INSANE! Membrane UpperLeaflet>DPPC:DIPC:CHOL=20.0:65.0:15.0 LowerLeaflet>DPPC:DIPC:CHOL=20.0:65.0:15.0
70205
    1DPPC   NC3    1  15.088   8.606   7.261 -0.0588  0.1453 -0.0793
    1DPPC   PO4    2  15.052   8.922   7.446  0.0732 -0.3879 -0.0619
    1DPPC   GL1    3  14.867   8.987   7.019  0.2259 -0.0468 -0.2724
    1DPPC   GL2    4  15.043   8.799   6.821  0.3332 -0.1355 -0.1528
    1DPPC   C1A    5  14.462   8.795   6.932  0.1455  0.2601  0.0518
    1DPPC   C2A    6  14.313   8.716   6.584  0.0801  0.3272  0.3026
    1DPPC   C3A    7  13.978   8.541   6.257 -0.0434  0.1651 -0.0851
    1DPPC   C4A    8  13.920   8.530   5.832  0.0615  0.1184  0.0116
    1DPPC   C1B    9  14.827   8.696   6.595  0.2618 -0.3886  0.0587
    1DPPC   C2B   10  14.874   8.636   6.205  0.2081 -0.1744 -0.1908
    1DPPC   C3B   11  14.982   8.629   5.769 -0.2128 -0.1860 -0.1601
    1DPPC   C4B   12  15.222   8.808   5.433  0.1060 -0.1074 -0.0573
    1DPPC   NC3   13  12.207  21.438   7.244  0.1030 -0.1001 -0.2121
    1DPPC   PO4   14  12.019  21.365   6.884  0.2100 -0.1809  0.4539
    1DPPC   GL1   15  12.127  21.039   6.548  0.1841  0.1743 -0.1660
    1DPPC   GL2   16  12.388  20.716   6.553 -0.1537 -0.2470 -0.2147
    1DPPC   C1A   17  12.164  20.884   6.084  0.1241 -0.6087  0.0972
    1DPPC   C2A   18  12.361  20.738   5.735  0.1504  0.2561  0.2008
    1DPPC   C3A   19  12.532  20.714   5.312 -0.4423  0.3254 -0.0325
    1DPPC   C4A   20  12.709  20.716   4.912 -0.1027 -0.2587  0.0967
    1DPPC   C1B   21  12.569  20.545   6.167  0.1160 -0.1875 -0.0253
    1DPPC   C2B   22  12.833  20.589   5.741  0.0961  0.1289  0.0385
    1DPPC   C3B   23  13.054  20.411   5.342  0.2172 -0.1274  0.0170
    1DPPC   C4B   24  13.402  20.326   5.307  0.2640 -0.0152  0.0018
    1DPPC   NC3   25  13.470  14.791   7.472 -0.0207  0.1871  0.0938
    1DPPC   PO4   26  13.650  14.494   7.319  0.0575 -0.2052 -0.0293
    1DPPC   GL1   27  13.517  14.775   6.962  0.1723  0.2256  0.1774
    1DPPC   GL2   28  13.257  14.851   6.968  0.0752  0.1204  0.1664
    1DPPC   C1A   29  13.591  14.785   6.549  0.1224  0.0192  0.0606
    1DPPC   C2A   30  13.579  14.918   6.162  0.2614  0.2430 -0.2578
    1DPPC   C3A   31  13.429  15.094   5.848  0.2868 -0.0252 -0.0767
    1DPPC   C4A   32  13.283  15.143   5.330 -0.0042  0.0335 -0.1530
    1DPPC   C1B   33  13.119  14.892   6.466 -0.0682  0.2361  0.0353
    1DPPC   C2B   34  13.007  14.949   6.087  0.2779 -0.2504  0.0900
    1DPPC   C3B   35  12.933  15.063   5.719  0.1120 -0.3182 -0.0147
    1DPPC   C4B   36  12.762  14.826   5.450 -0.1339 -0.1384  0.1330
    1DPPC   NC3   37  16.045  14.701   7.340  0.1497  0.0168  0.0131
    1DPPC   PO4   38  16.292  14.271   7.182  0.0298 -0.2995  0.0858
    1DPPC   GL1   39  16.182  14.354   6.779  0.1130 -0.0360  0.2280
    1DPPC   GL2   40  15.835  14.446   6.778  0.2324  0.0596  0.2447
    1DPPC   C1A   41  16.131  14.149   6.400  0.1801  0.1612 -0.1926
    1DPPC   C2A   42  16.108  14.156   5.968 -0.4087 -0.0525 -0.1982
    1DPPC   C3A   43  15.974  14.085   5.578  0.0496  0.0417 -0.3651
    1DPPC   C4A   44  15.956  13.970   5.163  0.3003  0.0941 -0.0642
    1DPPC   C1B   45  15.968  14.667   6.462 -0.0662  0.1576 -0.1894
    1DPPC   C2B   46  15.992  14.699   6.039  0.1946 -0.0134 -0.1919
    1DPPC   C3B   47  15.819  14.633   5.577  0.0987  0.2034  0.2154
    1DPPC   C4B   48  15.658  14.398   5.189 -0.3591  0.2287 -0.0256
    1DPPC   NC3   49  13.713  21.974   7.096  0.1319  0.1618  0.3550
    1DPPC   PO4   50  14.082  22.111   7.069  0.3184 -0.1714 -0.2964
    1DPPC   GL1   51  13.904  22.096   6.652 -0.0773 -0.1052  0.2978
    1DPPC   GL2   52  14.071  22.342   6.636 -0.0922  0.0715  0.2937
    1DPPC   C1A   53  13.705  22.069   6.259 -0.3063 -0.1519 -0.2787
    1DPPC   C2A   54  13.762  22.130   5.746  0.0510  0.3651 -0.3509
    1DPPC   C3A   55  13.813  22.278   5.413 -0.0363  0.1220  0.0950
    1DPPC   C4A   56  14.141  22.416   5.209 -0.4400 -0.2157  0.4752
    1DPPC   C1B   57  13.982  22.470   6.207  0.3765  0.2288 -0.0826
    1DPPC   C2B   58  13.935  22.566   5.791 -0.4417  0.4024 -0.0646
    1DPPC   C3B   59  14.238  22.910   5.645 -0.0862 -0.0007  0.0790
    1DPPC   C4B   60  14.476  23.346   5.467 -0.0873 -0.0451 -0.3791
    1DPPC   NC3   61  18.255  18.748   7.678  0.0789 -0.4251  0.2291
    1DPPC   PO4   62  18.736  18.579   7.613 -0.1663  0.1360 -0.1400
    1DPPC   GL1   63  18.566  18.962   7.340  0.0262  0.1376 -0.2759
    1DPPC   GL2   64  18.859  19.184   7.180  0.1442 -0.2087  0.2037
    1DPPC   C1A   65  18.326  19.121   7.009  0.4786 -0.2899 -0.0980
    1DPPC   C2A   66  18.263  19.187   6.515 -0.1055 -0.1426 -0.3094
    1DPPC   C3A   67  18.250  19.251   6.079 -0.0295 -0.1578  0.0737
    1DPPC   C4A   68  18.344  19.266   5.676 -0.3407 -0.0274 -0.0139
    1DPPC   C1B   69  19.196  19.218   6.884  0.2501 -0.1343 -0.0434
    1DPPC   C2B   70  19.176  19.391   6.392 -0.1735  0.0245 -0.4478
    1DPPC   C3B   71  19.163  19.110   6.094  0.2691  0.1005  0.1041
    1DPPC   C4B   72  19.344  19.000   5.627 -0.1278  0.0782 -0.0015
    1DPPC   NC3   73  12.108   5.976   7.425  0.0185  0.0229 -0.0138
    1DPPC   PO4   74  12.147   5.441   7.385  0.1186 -0.1566 -0.0553
    1DPPC   GL1   75  12.175   5.275   7.086 -0.0292 -0.0185 -0.0631
    1DPPC   GL2   76  11.889   5.166   7.003 -0.0723  0.0741 -0.0303
    1DPPC   C1A   77  12.135   4.992   6.669  0.2968  0.1356  0.0015
    1DPPC   C2A   78  12.070   5.058   6.127 -0.2759  0.0459 -0.4319
    1DPPC   C3A   79  11.690   5.093   5.815  0.0491 -0.2377  0.0432
    1DPPC   C4A   80  11.454   5.201   5.386 -0.0054  0.0347  0.0931
    1DPPC   C1B   81  11.993   5.545   6.709  0.0516  0.1025  0.0795
    1DPPC   C2B   82  12.295   5.777   6.476 -0.3348  0.1680  0.1189
    1DPPC   C3B   83  12.526   6.080   6.207  0.2220 -0.0957 -0.1516
    1DPPC   C4B   84  12.704   6.372   5.866  0.1142  0.3491 -0.0436
    1DPPC   NC3   85   8.209  11.632   7.248 -0.2294 -0.0920 -0.1543
    1DPPC   PO4   86   7.964  11.968   7.280 -0.0629  0.0626 -0.0703
    1DPPC   GL1   87   7.830  11.760   6.843  0.4634 -0.0806 -0.1593
    1DPPC   GL2   88   7.809  11.439   6.695 -0.1404 -0.0460 -0.1631
    1DPPC   C1A   89   8.088  11.753   6.428  0.0831  0.1576 -0.0839
    1DPPC   C2A   90   8.118  11.743   5.964  0.1696 -0.0520 -0.1658
    1DPPC   C3A   91   7.942  11.996   5.530 -0.0014  0.1472 -0.0144
    1DPPC   C4A   92   7.801  11.900   5.094  0.1045 -0.1502  0.1519
    1DPPC   C1B   93   7.675  11.549   6.253  0.1649 -0.2319 -0.0207
    1DPPC   C2B   94   7.632  11.678   5.822  0.0614  0.2309  0.0930
    1DPPC   C3B   95   7.417  11.773   5.459  0.1943  0.0135  0.4277
    1DPPC   C4B   96   7.184  11.943   5.180  0.0021  0.1413 -0.0310
    1DPPC   NC3   97  17.282   7.787   7.570  0.0438  0.0215 -0.0861
    1DPPC   PO4   98  17.315   8.197   7.281  0.0203  0.0607  0.1292
    1DPPC   GL1   99  17.029   8.267   6.948 -0.1418  0.3500 -0.1221
    1DPPC   GL2  100  16.676   8.374   6.946 -0.1458  0.0599 -0.0011
    1DPPC   C1A  101  16.973   8.218   6.503 -0.0530  0.0294 -0.0061
    1DPPC   C2A  102  16.899   7.909   6.162  0.5026  0.1367  0.0254
    1DPPC   C3A  103  16.875   7.606   5.818  0.3055 -0.0771  0.4085
    1DPPC   C4A  104  16.740   7.393   5.419 -0.1136  0.1000  0.3028
    1DPPC   C1B  105  16.497   8.533   6.585 -0.0647 -0.2511 -0.0914
    1DPPC   C2B  106  16.439   8.765   6.287 -0.0134 -0.4993 -0.3202
    1DPPC   C3B  107  16.270   8.970   6.001 -0.1165 -0.2284 -0.3090
    1DPPC   C4B  108  16.490   9.414   5.810 -0.1310  0.2139 -0.1545
    1DPPC   NC3  109  26.307   9.548   5.899 -0.3880 -0.3102 -0.0254
    1DPPC   PO4  110  25.942   9.764   5.667 -0.1691 -0.1720 -0.1846
    1DPPC   GL1  111  25.709  10.025   5.325 -0.0769  0.2611 -0.0271
    1DPPC   GL2  112  25.517  10.328   5.218  0.0292 -0.0655  0.0430
    1DPPC   C1A  113  25.959  10.194   4.970 -0.0697 -0.0389 -0.1453
    1DPPC   C2A  114  26.249  10.076   4.714 -0.0866 -0.0554 -0.0064
    1DPPC   C3A  115  26.428   9.847   4.477  0.2795  0.0584 -0.1346
    1DPPC   C4A  116  26.517   9.513   4.333 -0.0681 -0.1782  0.1625
    1DPPC   C1B  117  25.536  10.198   4.693 -0.0344 -0.1377 -0.2735
    1DPPC   C2B  118  25.436  10.055   4.361  0.1797  0.2233  0.1971
    1DPPC   C3B  119  25.144  10.302   4.171 -0.2353  0.3053 -0.1205
    1DPPC   C4B  120  25.063  10.588   3.855  0.1002  0.0710 -0.0779
    1DPPC   NC3  121  15.389  13.726   7.671 -0.0720 -0.0164  0.1002
    1DPPC   PO4  122  15.089  13.839   7.300  0.4841 -0.1110  0.0379
    1DPPC   GL1  123  15.129  14.080   6.974 -0.2432  0.5430  0.0195
    1DPPC   GL2  124  15.378  13.970   6.911  0.1094 -0.1994 -0.0401
    1DPPC   C1A  125  15.164  14.099   6.499 -0.4581 -0.2330  0.2983
    1DPPC   C2A  126  15.178  14.074   6.005  0.1160  0.1057  0.0371
    1DPPC   C3A  127  15.089  13.919   5.718 -0.1580 -0.1838 -0.0340
    1DPPC   C4A  128  14.934  13.857   5.276 -0.0094 -0.1161  0.2586
    1DPPC   C1B  129  15.683  14.011   6.521  0.1146 -0.0617 -0.1040
    1DPPC   C2B  130  15.621  13.901   6.116  0.2254 -0.2187  0.0588
    1DPPC   C3B  131  15.575  13.803   5.720 -0.0209 -0.2318  0.0752
    1DPPC   C4B  132  15.473  13.928   5.258  0.1165 -0.1291  0.1019
    1DPPC   NC3  133  13.215  14.046   7.530 -0.0026  0.2510 -0.1805
    1DPPC   PO4  134  13.306  13.618   7.444  0.2687 -0.0785 -0.1859
    1DPPC   GL1  135  13.424  13.693   7.039  0.0630  0.1917 -0.3513
    1DPPC   GL2  136  13.420  14.096   7.043 -0.4459  0.0417 -0.0119
    1DPPC   C1A  137  13.241  13.452   6.670  0.0281  0.0574  0.2526
    1DPPC   C2A  138  13.192  13.584   6.203  0.3748  0.2705  0.0247
    1DPPC   C3A  139  13.121  13.652   5.814  0.1505 -0.3470 -0.2666
    1DPPC   C4A  140  12.801  13.824   5.572  0.1135  0.0985  0.1296
    1DPPC   C1B  141  13.365  14.333   6.626  0.0808  0.1458  0.1041
    1DPPC   C2B  142  13.309  14.467   6.262 -0.0772 -0.2544 -0.0618
    1DPPC   C3B  143  13.357  14.573   5.786 -0.2889  0.0843  0.0507
    1DPPC   C4B  144  13.238  14.672   5.313 -0.2126 -0.2406 -0.1237
    1DPPC   NC3  145  11.687  19.971   7.170 -0.0918  0.1920 -0.0692
    1DPPC   PO4  146  11.401  20.003   6.905  0.0976 -0.0250  0.1288
    1DPPC   GL1  147  11.706  20.095   6.649  0.1633  0.2726 -0.3140
    1DPPC   GL2  148  11.866  19.891   6.624  0.1070 -0.1400 -0.1648
    1DPPC   C1A  149  11.645  20.071   6.184  0.0011 -0.2123 -0.2478
    1DPPC   C2A  150  11.786  20.114   5.745 -0.0126  0.0678  0.3312
    1DPPC   C3A  151  12.034  20.132   5.418  0.3239  0.0952 -0.1610
    1DPPC   C4A  152  12.470  20.293   5.493 -0.1171 -0.0520  0.3215
    1DPPC   C1B  153  12.077  19.918   6.231  0.0130  0.1120 -0.1223
    1DPPC   C2B  154  12.221  19.731   5.880  0.2890  0.0578 -0.1002
    1DPPC   C3B  155  12.462  19.700   5.532  0.0157 -0.3073 -0.0973
    1DPPC   C4B  156  12.544  19.598   5.136 -0.2755  0.4266 -0.3694
    1DPPC   NC3  157  12.386  10.027   7.753  0.2420 -0.1706 -0.1351
    1DPPC   PO4  158  12.163   9.860   7.374 -0.1236 -0.1017 -0.2791
    1DPPC   GL1  159  11.976   9.644   7.004  0.0457 -0.2733  0.2016
    1DPPC   GL2  160  11.683   9.410   6.925  0.1821  0.2869 -0.0989
    1DPPC   C1A  161  12.097   9.668   6.540  0.0132  0.0968  0.1752
    1DPPC   C2A  162  12.350   9.545   6.130  0.2319  0.0705 -0.1676
    1DPPC   C3A  163  12.536   9.340   5.817 -0.2956 -0.2106 -0.2691
    1DPPC   C4A  164  12.972   9.066   5.758  0.1098 -0.1323  0.2270
    1DPPC   C1B  165  11.801   9.245   6.551 -0.0201  0.1355 -0.3232
    1DPPC   C2B  166  11.831   9.256   6.163 -0.0170 -0.0092 -0.2186
    1DPPC   C3B  167  12.093   9.136   5.858  0.0710 -0.0414 -0.0860
    1DPPC   C4B  168  12.326   8.873   5.758 -0.1355 -0.1955  0.1144
    1DPPC   NC3  169  12.518  13.285   7.718  0.1234  0.1298 -0.1314
    1DPPC   PO4  170  12.710  12.924   7.559  0.1769  0.1965 -0.2678
    1DPPC   GL1  171  12.970  12.846   7.207 -0.2964  0.0116  0.0846
    1DPPC   GL2  172  12.644  12.838   7.052  0.2514 -0.2032 -0.1480
    1DPPC   C1A  173  13.152  12.977   6.769 -0.0051 -0.3795  0.1021
    1DPPC   C2A  174  13.163  13.045   6.343 -0.0048  0.0970  0.4224
    1DPPC   C3A  175  13.079  13.056   5.890  0.2940  0.1563 -0.0852
    1DPPC   C4A  176  13.092  13.165   5.561  0.1989  0.1137  0.3832
    1DPPC   C1B  177  12.675  12.905   6.580  0.0733 -0.1532 -0.0075
    1DPPC   C2B  178  12.665  12.944   6.112  0.0701  0.4259 -0.0165
    1DPPC   C3B  179  12.600  12.973   5.666 -0.1241  0.0067  0.0006
    1DPPC   C4B  180  12.665  13.356   5.406  0.1624 -0.1307 -0.1311
    1DPPC   NC3  181  13.090  16.818   7.765 -0.2266  0.0811  0.0566
    1DPPC   PO4  182  12.886  16.623   7.448  0.0403 -0.0951  0.1500
    1DPPC   GL1  183  12.947  16.645   7.074  0.3039  0.1261  0.0535
    1DPPC   GL2  184  12.924  16.890   6.890 -0.0341 -0.1108 -0.1851
    1DPPC   C1A  185  13.137  16.532   6.688  0.3239 -0.1347  0.0190
    1DPPC   C2A  186  13.097  16.519   6.202 -0.3295  0.1262 -0.0830
    1DPPC   C3A  187  13.118  16.555   5.745 -0.0763 -0.0520  0.0739
    1DPPC   C4A  188  13.240  16.406   5.363 -0.0170  0.0992 -0.1262
    1DPPC   C1B  189  12.944  16.942   6.425  0.3926 -0.1283 -0.0356
    1DPPC   C2B  190  12.901  16.920   6.000  0.1417 -0.2391  0.0382
    1DPPC   C3B  191  12.822  16.937   5.649  0.3326 -0.0128  0.2324
    1DPPC   C4B  192  12.920  16.748   5.258 -0.0069  0.1116 -0.0454
    1DPPC   NC3  193  11.295  18.153   7.343 -0.3038  0.1343  0.0715
    1DPPC   PO4  194  11.072  17.827   7.238  0.1264  0.0234 -0.3431
    1DPPC   GL1  195  11.036  17.908   6.908  0.1563 -0.0748  0.1436
    1DPPC   GL2  196  10.899  18.275   6.976 -0.2055  0.1233 -0.1125
    1DPPC   C1A  197  11.099  17.829   6.445  0.0528 -0.0133 -0.1526
    1DPPC   C2A  198  10.939  17.889   6.039  0.3288  0.0423 -0.0673
    1DPPC   C3A  199  10.913  17.858   5.525 -0.2519 -0.1131 -0.3514
    1DPPC   C4A  200  11.262  17.736   5.276 -0.0032  0.3330 -0.3306
    1DPPC   C1B  201  10.869  18.280   6.598 -0.2101 -0.3542  0.0669
    1DPPC   C2B  202  10.921  18.345   6.219  0.1822 -0.2722  0.4193
    1DPPC   C3B  203  10.938  18.337   5.773 -0.0528 -0.1578  0.2711
    1DPPC   C4B  204  10.975  18.432   5.392 -0.4224 -0.1390  0.2120
    1DPPC   NC3  205  28.515  13.613   5.912  0.1965  0.1145 -0.3570
    1DPPC   PO4  206  28.615  13.216   5.710  0.1253 -0.0971  0.1571
    1DPPC   GL1  207  28.466  13.102   5.254 -0.1595 -0.1875  0.2083
    1DPPC   GL2  208  28.376  12.727   5.231 -0.1561  0.1063 -0.2217
    1DPPC   C1A  209  28.065  13.000   4.891 -0.1282  0.1171  0.0470
    1DPPC   C2A  210  27.668  13.024   4.593 -0.2845 -0.1468  0.0532
    1DPPC   C3A  211  27.335  13.254   4.399  0.0587  0.2479 -0.0530
    1DPPC   C4A  212  27.455  13.539   4.022 -0.1395  0.0304  0.1530
    1DPPC   C1B  213  28.392  12.712   4.698 -0.0855  0.1483 -0.0853
    1DPPC   C2B  214  28.726  12.749   4.453  0.1003 -0.0912  0.3571
    1DPPC   C3B  215  29.189  12.886   4.253 -0.1175  0.1268 -0.2292
    1DPPC   C4B  216  29.364  13.275   4.220 -0.1585  0.0282 -0.2146
    1DPPC   NC3  217   8.307  15.307   6.698 -0.0575 -0.5588  0.1108
    1DPPC   PO4  218   7.954  15.495   6.677  0.1758  0.1723  0.2598
    1DPPC   GL1  219   7.916  15.226   6.430 -0.4907 -0.1737 -0.1566
    1DPPC   GL2  220   7.606  15.295   6.328  0.0061 -0.1112  0.2446
    1DPPC   C1A  221   7.959  14.949   6.015 -0.1223 -0.0230  0.0910
    1DPPC   C2A  222   7.889  14.879   5.562  0.0362 -0.2863 -0.0655
    1DPPC   C3A  223   7.947  14.511   5.399  0.1743  0.1713  0.3120
    1DPPC   C4A  224   7.814  14.425   4.928  0.2128  0.0837 -0.0764
    1DPPC   C1B  225   7.525  15.336   5.929  0.3245  0.0545 -0.2857
    1DPPC   C2B  226   7.684  15.313   5.506 -0.0740 -0.2203  0.1860
    1DPPC   C3B  227   7.827  15.274   5.129  0.0818  0.0075 -0.0481
    1DPPC   C4B  228   7.888  15.447   4.729 -0.0183  0.0856  0.2271
    1DPPC   NC3  229  21.063  17.046   7.720  0.0708 -0.1634  0.0034
    1DPPC   PO4  230  20.736  16.971   7.379 -0.1533 -0.1005  0.1782
    1DPPC   GL1  231  20.531  17.189   7.007  0.0245  0.1965  0.0709
    1DPPC   GL2  232  20.734  17.122   6.694 -0.2723 -0.1710  0.1573
    1DPPC   C1A  233  20.207  17.204   6.793 -0.2498  0.1010  0.0856
    1DPPC   C2A  234  20.301  16.990   6.395  0.2442 -0.0394  0.0398
    1DPPC   C3A  235  20.379  16.954   6.016  0.0387 -0.0283 -0.0887
    1DPPC   C4A  236  20.169  16.916   5.612 -0.1187 -0.2231  0.2664
    1DPPC   C1B  237  20.807  17.101   6.212 -0.0133  0.0564 -0.1315
    1DPPC   C2B  238  20.778  16.778   5.800 -0.1554 -0.0501  0.0111
    1DPPC   C3B  239  20.564  16.687   5.429  0.2452 -0.2429 -0.2861
    1DPPC   C4B  240  20.378  16.712   5.013  0.0384 -0.1770  0.2230
    1DPPC   NC3  241   8.945  12.018   7.715  0.1108 -0.0342  0.2658
    1DPPC   PO4  242   9.066  11.678   7.348  0.0583 -0.1754  0.4679
    1DPPC   GL1  243   9.216  11.441   7.010  0.0150  0.2867  0.0607
    1DPPC   GL2  244   9.154  11.125   6.898 -0.2232 -0.0664 -0.1612
    1DPPC   C1A  245   9.497  11.428   6.680 -0.0755  0.3622  0.2573
    1DPPC   C2A  246   9.572  11.396   6.236  0.3688 -0.2392 -0.2686
    1DPPC   C3A  247   9.652  11.666   5.881  0.0585  0.2629  0.1933
    1DPPC   C4A  248   9.863  11.591   5.443  0.1740 -0.1018 -0.0728
    1DPPC   C1B  249   8.900  11.345   6.594  0.0095  0.3947  0.1887
    1DPPC   C2B  250   8.672  11.311   6.167  0.2121 -0.0733 -0.3338
    1DPPC   C3B  251   8.552  11.438   5.750  0.0302 -0.2036  0.0596
    1DPPC   C4B  252   8.301  11.135   5.434  0.2058  0.1502  0.3057
    1DPPC   NC3  253   9.551  14.438   7.817  0.1469 -0.2197 -0.0075
    1DPPC   PO4  254   9.534  14.145   7.462 -0.3257 -0.5608 -0.1700
    1DPPC   GL1  255   9.562  13.996   7.021  0.0617  0.2022 -0.0146
    1DPPC   GL2  256   9.901  13.845   6.986 -0.1723 -0.1147  0.0941
    1DPPC   C1A  257   9.372  14.075   6.648  0.2123 -0.0831 -0.0057
    1DPPC   C2A  258   9.354  14.061   6.206  0.1337 -0.2805 -0.0847
    1DPPC   C3A  259   9.335  13.983   5.777 -0.0031  0.1855 -0.0284
    1DPPC   C4A  260   9.288  14.040   5.296 -0.1520 -0.2157  0.1418
    1DPPC   C1B  261   9.761  13.874   6.538 -0.1348 -0.0619  0.1619
    1DPPC   C2B  262   9.835  13.829   6.124 -0.0094  0.0454  0.0762
    1DPPC   C3B  263   9.844  13.786   5.718  0.1628 -0.3360 -0.1711
    1DPPC   C4B  264   9.842  13.671   5.281 -0.2941 -0.0833  0.1558
    1DPPC   NC3  265  16.547  11.852   7.141 -0.1434 -0.4472 -0.2473
    1DPPC   PO4  266  16.911  11.572   6.992  0.0552 -0.2407 -0.2511
    1DPPC   GL1  267  17.128  11.732   6.678 -0.0751  0.0954 -0.0887
    1DPPC   GL2  268  17.435  11.553   6.622  0.2781  0.1654  0.0788
    1DPPC   C1A  269  17.338  12.065   6.622 -0.0480 -0.1896  0.2817
    1DPPC   C2A  270  17.278  12.315   6.201  0.1189  0.0719 -0.0878
    1DPPC   C3A  271  17.349  12.231   5.748  0.2230  0.2255 -0.0743
    1DPPC   C4A  272  17.406  12.032   5.352 -0.1621 -0.0751 -0.1435
    1DPPC   C1B  273  17.332  11.665   6.159  0.1343 -0.0241  0.2731
    1DPPC   C2B  274  17.304  11.717   5.711  0.1624  0.1047  0.2316
    1DPPC   C3B  275  17.112  11.580   5.310 -0.2085  0.1308 -0.1258
    1DPPC   C4B  276  16.955  11.543   4.858 -0.1119 -0.1884 -0.1823
    1DPPC   NC3  277  16.849  22.059   7.564 -0.0109 -0.1533 -0.1349
    1DPPC   PO4  278  16.533  21.776   7.531 -0.2335  0.0787  0.1894
    1DPPC   GL1  279  16.618  21.836   7.082  0.1215 -0.1561 -0.2503
    1DPPC   GL2  280  16.832  21.621   7.000  0.0111  0.0640  0.0926
    1DPPC   C1A  281  16.717  22.117   6.800  0.1031  0.0027  0.0994
    1DPPC   C2A  282  17.036  22.199   6.559  0.0625 -0.3489 -0.1527
    1DPPC   C3A  283  17.061  21.927   6.219 -0.0893 -0.1994 -0.1045
    1DPPC   C4A  284  17.298  21.603   6.104  0.0538  0.4418  0.0990
    1DPPC   C1B  285  16.834  21.614   6.582 -0.4845  0.2396  0.0993
    1DPPC   C2B  286  16.614  21.718   6.293 -0.2200  0.0164  0.0706
    1DPPC   C3B  287  16.797  21.764   5.888  0.1235 -0.0940 -0.0943
    1DPPC   C4B  288  17.189  21.742   5.609  0.1963  0.1789  0.2126
    1DPPC   NC3  289   3.183   7.436   6.847 -0.0449 -0.0921 -0.1683
    1DPPC   PO4  290   3.132   7.023   6.458 -0.1126  0.0103  0.0355
    1DPPC   GL1  291   3.291   7.028   6.119  0.1346 -0.1346  0.1013
    1DPPC   GL2  292   3.351   6.676   6.130 -0.0141 -0.2595 -0.1744
    1DPPC   C1A  293   3.085   6.952   5.752  0.1708  0.1991  0.2067
    1DPPC   C2A  294   3.115   6.906   5.348 -0.2290  0.0219 -0.0975
    1DPPC   C3A  295   3.273   6.833   4.946 -0.0617  0.4923  0.0093
    1DPPC   C4A  296   3.107   6.825   4.461 -0.0030  0.2528 -0.1668
    1DPPC   C1B  297   3.359   6.538   5.798 -0.0347  0.1369  0.0798
    1DPPC   C2B  298   3.218   6.446   5.397  0.2175  0.0328 -0.1766
    1DPPC   C3B  299   2.938   6.301   5.010 -0.0356  0.0308  0.0387
    1DPPC   C4B  300   2.497   6.450   4.697 -0.1878 -0.1417  0.0231
    1DPPC   NC3  301  12.132  18.482   7.277 -0.3031  0.1374  0.2596
    1DPPC   PO4  302  12.343  18.093   7.384 -0.0608 -0.1987  0.2356
    1DPPC   GL1  303  12.299  18.168   6.915 -0.1276  0.0071 -0.2640
    1DPPC   GL2  304  12.268  18.471   6.811  0.1777 -0.0939 -0.1669
    1DPPC   C1A  305  11.991  17.955   6.640  0.2339 -0.1375 -0.0961
    1DPPC   C2A  306  11.885  17.876   6.233  0.0833  0.0018  0.1241
    1DPPC   C3A  307  11.845  17.922   5.842  0.0327  0.0402  0.0579
    1DPPC   C4A  308  11.795  17.900   5.440 -0.0440  0.3040 -0.0851
    1DPPC   C1B  309  12.408  18.348   6.367 -0.1413 -0.2660 -0.0331
    1DPPC   C2B  310  12.311  18.498   5.959 -0.2383  0.0449 -0.0140
    1DPPC   C3B  311  12.336  18.732   5.529  0.2732 -0.1423  0.1837
    1DPPC   C4B  312  12.408  18.734   5.145 -0.0794 -0.2785  0.1582
    1DPPC   NC3  313   5.242  25.438   6.540 -0.0007  0.1086 -0.1815
    1DPPC   PO4  314   4.872  25.651   6.559  0.2365  0.2245 -0.0789
    1DPPC   GL1  315   4.853  25.877   6.154  0.2954 -0.0381 -0.1879
    1DPPC   GL2  316   4.863  26.164   6.122  0.3407 -0.0470 -0.2076
    1DPPC   C1A  317   5.080  26.031   5.734 -0.0070  0.2132 -0.3397
    1DPPC   C2A  318   5.021  26.279   5.364 -0.1520  0.1580 -0.0464
    1DPPC   C3A  319   4.723  26.258   4.992 -0.0866  0.0201  0.1105
    1DPPC   C4A  320   4.384  26.182   4.747  0.3170  0.1684 -0.0894
    1DPPC   C1B  321   4.621  26.383   5.790  0.1973  0.1158  0.0082
    1DPPC   C2B  322   4.630  26.697   5.386 -0.0892  0.2863 -0.2688
    1DPPC   C3B  323   4.641  26.904   5.012  0.0713 -0.0516 -0.0462
    1DPPC   C4B  324   4.574  27.096   4.644 -0.1829  0.1433  0.0834
    1DPPC   NC3  325  13.102  21.174   7.207  0.3517  0.0266  0.0369
    1DPPC   PO4  326  13.208  20.746   7.402 -0.2359  0.0672  0.1164
    1DPPC   GL1  327  13.100  20.582   6.957  0.0117 -0.2835  0.1878
    1DPPC   GL2  328  12.919  20.183   6.973  0.0531  0.0752 -0.0502
    1DPPC   C1A  329  13.034  20.736   6.539 -0.0326 -0.1998  0.2476
    1DPPC   C2A  330  12.997  20.862   6.135  0.2397 -0.0609  0.1313
    1DPPC   C3A  331  13.252  21.169   5.789  0.0356 -0.2047 -0.2441
    1DPPC   C4A  332  13.234  21.342   5.370  0.1048  0.2023 -0.3817
    1DPPC   C1B  333  12.693  20.323   6.693 -0.3399  0.0324  0.0911
    1DPPC   C2B  334  12.250  20.214   6.582 -0.1002 -0.0871 -0.0342
    1DPPC   C3B  335  12.096  20.415   6.305  0.0381  0.0163  0.2700
    1DPPC   C4B  336  12.219  20.277   5.886 -0.1729 -0.0154 -0.2771
    1DPPC   NC3  337  12.745  15.087   7.857  0.0776 -0.1454  0.0119
    1DPPC   PO4  338  12.841  14.764   7.612  0.0312  0.2584  0.1014
    1DPPC   GL1  339  12.738  14.917   7.118 -0.1074  0.1301 -0.0463
    1DPPC   GL2  340  12.437  14.915   7.102  0.1557 -0.0757  0.0650
    1DPPC   C1A  341  12.792  15.072   6.811  0.1418 -0.0670 -0.1445
    1DPPC   C2A  342  12.544  15.043   6.431 -0.2324  0.2646 -0.3400
    1DPPC   C3A  343  12.499  15.101   6.055 -0.0357 -0.0860 -0.0741
    1DPPC   C4A  344  12.422  15.093   5.659  0.0293 -0.0567  0.5118
    1DPPC   C1B  345  12.295  14.780   6.754  0.0196 -0.3802  0.0901
    1DPPC   C2B  346  12.293  14.672   6.342  0.2880  0.1509 -0.2818
    1DPPC   C3B  347  12.235  14.548   5.956  0.3625 -0.2252 -0.1677
    1DPPC   C4B  348  12.307  14.633   5.532  0.2538  0.1109  0.3529
    1DPPC   NC3  349  26.045  19.798   5.950  0.1954  0.0768  0.2661
    1DPPC   PO4  350  26.019  19.470   6.107 -0.0035  0.2430  0.0294
    1DPPC   GL1  351  25.819  19.443   5.679 -0.0803 -0.3842 -0.0922
    1DPPC   GL2  352  25.542  19.578   5.701  0.0180 -0.0439 -0.0167
    1DPPC   C1A  353  25.882  19.595   5.287  0.0770  0.0576 -0.2268
    1DPPC   C2A  354  25.673  19.717   4.911 -0.0963 -0.1304  0.2617
    1DPPC   C3A  355  25.579  19.797   4.526  0.1562  0.1786 -0.0817
    1DPPC   C4A  356  25.336  19.670   4.240  0.1069 -0.1130  0.2092
    1DPPC   C1B  357  25.351  19.469   5.269  0.0601  0.3284  0.1595
    1DPPC   C2B  358  25.073  19.218   5.043  0.0569 -0.1571  0.0851
    1DPPC   C3B  359  24.671  18.945   4.803  0.1288  0.1372 -0.1459
    1DPPC   C4B  360  24.367  18.793   4.722 -0.1264  0.0872  0.2336
    1DPPC   NC3  361  10.384  14.806   7.597 -0.2499 -0.1365  0.0850
    1DPPC   PO4  362  10.721  14.588   7.447 -0.1957  0.2705 -0.0214
    1DPPC   GL1  363  10.941  14.587   7.080  0.0329 -0.0131 -0.2716
    1DPPC   GL2  364  11.154  14.755   6.892 -0.0850  0.1696  0.1845
    1DPPC   C1A  365  10.719  14.595   6.704 -0.1607 -0.2280  0.0678
    1DPPC   C2A  366  10.659  14.470   6.285 -0.3272 -0.2022 -0.1629
    1DPPC   C3A  367  10.608  14.439   5.872  0.2303 -0.1374 -0.0824
    1DPPC   C4A  368  10.739  14.467   5.452  0.1156  0.0970 -0.0271
    1DPPC   C1B  369  11.116  14.747   6.381 -0.2944  0.1389 -0.1781
    1DPPC   C2B  370  11.047  14.668   5.956  0.2423 -0.0579  0.0045
    1DPPC   C3B  371  11.209  14.671   5.602 -0.3685  0.2231  0.0465
    1DPPC   C4B  372  11.240  14.533   5.172  0.1795 -0.1821 -0.0414
    1DPPC   NC3  373  14.398  11.795   7.293  0.0171  0.2183 -0.4847
    1DPPC   PO4  374  14.317  12.236   7.309 -0.2040  0.0356 -0.2063
    1DPPC   GL1  375  14.249  11.985   6.843  0.1555  0.3482  0.0746
    1DPPC   GL2  376  13.888  11.952   6.857  0.0841 -0.2270 -0.2291
    1DPPC   C1A  377  14.307  11.748   6.463  0.2888  0.1479 -0.0300
    1DPPC   C2A  378  14.211  11.820   6.086  0.2654  0.0219  0.0611
    1DPPC   C3A  379  14.208  11.661   5.661 -0.1719  0.1632  0.1906
    1DPPC   C4A  380  14.232  11.432   5.269  0.0038 -0.2996 -0.0755
    1DPPC   C1B  381  13.770  11.822   6.352 -0.1600 -0.1969  0.0915
    1DPPC   C2B  382  13.722  11.904   5.887 -0.2871  0.0688  0.5089
    1DPPC   C3B  383  13.813  12.008   5.487 -0.2579 -0.2706  0.1196
    1DPPC   C4B  384  13.839  12.045   5.021  0.0193 -0.1068  0.2339
    1DPPC   NC3  385  19.292  16.047   7.149 -0.1615  0.1513  0.0896
    1DPPC   PO4  386  19.746  15.966   7.112 -0.2487  0.3988 -0.0806
    1DPPC   GL1  387  19.672  15.714   6.700  0.1192 -0.0624 -0.0776
    1DPPC   GL2  388  19.451  15.512   6.799 -0.1774  0.1940  0.3372
    1DPPC   C1A  389  19.660  15.861   6.372 -0.0445 -0.1291  0.2398
    1DPPC   C2A  390  19.543  15.808   5.959 -0.2679 -0.3183 -0.3267
    1DPPC   C3A  391  19.454  15.852   5.610 -0.3085 -0.0764  0.0130
    1DPPC   C4A  392  19.310  15.984   5.298 -0.0297 -0.1751  0.0273
    1DPPC   C1B  393  19.252  15.567   6.303 -0.0351  0.1193 -0.1749
    1DPPC   C2B  394  19.128  15.503   5.835 -0.2633 -0.2908 -0.0561
    1DPPC   C3B  395  19.082  15.497   5.417  0.1459  0.2697  0.2100
    1DPPC   C4B  396  18.846  15.568   5.001  0.4243 -0.3685 -0.2498
    1DPPC   NC3  397  15.334  15.160   7.589 -0.0470  0.1816  0.0587
    1DPPC   PO4  398  15.684  15.062   7.277  0.2072 -0.1419 -0.1101
    1DPPC   GL1  399  15.531  15.381   7.089  0.1139  0.0169 -0.2925
    1DPPC   GL2  400  15.732  15.601   7.108  0.2776 -0.1561  0.1953
    1DPPC   C1A  401  15.271  15.450   6.681  0.1519  0.0246  0.0640
    1DPPC   C2A  402  15.159  15.429   6.269  0.1945 -0.1309  0.1403
    1DPPC   C3A  403  15.233  15.433   5.850 -0.1963 -0.0284  0.0816
    1DPPC   C4A  404  15.332  15.672   5.431 -0.0761  0.1206  0.4175
    1DPPC   C1B  405  15.796  15.512   6.658 -0.0123 -0.0440  0.0530
    1DPPC   C2B  406  15.818  15.589   6.193 -0.4016 -0.2818  0.0370
    1DPPC   C3B  407  15.951  15.910   6.070  0.1722 -0.2168  0.1134
    1DPPC   C4B  408  15.864  16.193   5.605  0.0447  0.2886 -0.0455
    1DPPC   NC3  409  12.945  16.096   7.512 -0.3744  0.0594 -0.0826
    1DPPC   PO4  410  13.166  15.712   7.401 -0.0394 -0.1737  0.1547
    1DPPC   GL1  411  13.014  15.487   7.013  0.2281 -0.2622 -0.2802
    1DPPC   GL2  412  13.229  15.346   6.772  0.2848 -0.1319  0.1183
    1DPPC   C1A  413  12.772  15.602   6.571 -0.0123  0.1251 -0.2158
    1DPPC   C2A  414  12.697  15.560   6.174  0.1513  0.0684  0.0232
    1DPPC   C3A  415  12.670  15.522   5.745 -0.2688 -0.0429  0.2907
    1DPPC   C4A  416  12.590  15.352   5.300  0.0168  0.1213  0.2218
    1DPPC   C1B  417  13.248  15.378   6.347  0.5121  0.1893 -0.1036
    1DPPC   C2B  418  13.202  15.557   5.980  0.0082  0.2720 -0.0854
    1DPPC   C3B  419  13.222  15.570   5.611  0.1760 -0.1602 -0.1037
    1DPPC   C4B  420  13.022  15.649   5.191 -0.1548 -0.0164  0.0528
    1DPPC   NC3  421  10.216  15.100   7.140 -0.2863 -0.0898  0.1337
    1DPPC   PO4  422  10.711  15.059   7.266 -0.0692 -0.0114  0.1321
    1DPPC   GL1  423  10.802  15.209   6.864 -0.1046  0.0298 -0.2759
    1DPPC   GL2  424  10.543  15.063   6.744 -0.0203 -0.1978 -0.0722
    1DPPC   C1A  425  11.016  15.230   6.517 -0.0110  0.1148 -0.3003
    1DPPC   C2A  426  11.039  15.241   6.035 -0.1064 -0.0493 -0.1838
    1DPPC   C3A  427  11.014  15.142   5.623  0.1060 -0.1609 -0.0014
    1DPPC   C4A  428  11.050  14.964   5.210 -0.0454 -0.1612 -0.1988
    1DPPC   C1B  429  10.636  14.956   6.356 -0.0737 -0.3781  0.0108
    1DPPC   C2B  430  10.650  14.948   5.934  0.0457 -0.1291  0.1591
    1DPPC   C3B  431  10.544  14.941   5.479 -0.2193 -0.2576  0.2401
    1DPPC   C4B  432  10.555  15.015   5.031 -0.0501 -0.2115  0.1256
    1DPPC   NC3  433   7.319  14.697   7.065 -0.2468  0.2304  0.1253
    1DPPC   PO4  434   7.580  14.982   6.796  0.0707 -0.0033 -0.4088
    1DPPC   GL1  435   7.645  14.827   6.359  0.2321  0.0110 -0.0344
    1DPPC   GL2  436   7.820  14.560   6.398  0.1838  0.0470 -0.0684
    1DPPC   C1A  437   7.474  14.802   5.990 -0.0392 -0.0515  0.1584
    1DPPC   C2A  438   7.319  14.706   5.551 -0.0274 -0.2315 -0.1644
    1DPPC   C3A  439   7.096  14.607   5.176 -0.0618 -0.0685  0.0088
    1DPPC   C4A  440   6.967  14.829   4.735  0.3449 -0.0597  0.0179
    1DPPC   C1B  441   7.839  14.439   5.976 -0.0236 -0.1662  0.1692
    1DPPC   C2B  442   7.544  14.305   5.743  0.0649 -0.1569  0.0919
    1DPPC   C3B  443   7.452  14.285   5.342  0.1242  0.2548  0.0712
    1DPPC   C4B  444   7.299  14.073   5.060  0.0166  0.2408 -0.2107
    1DPPC   NC3  445  14.791  18.332   7.242 -0.3157 -0.0837  0.3321
    1DPPC   PO4  446  14.408  18.166   7.433  0.0060  0.0966 -0.2998
    1DPPC   GL1  447  14.367  18.333   6.975  0.0210 -0.0120  0.0273
    1DPPC   GL2  448  14.604  18.005   6.882  0.2802 -0.1554  0.0105
    1DPPC   C1A  449  14.579  18.425   6.618  0.0043 -0.0516 -0.1873
    1DPPC   C2A  450  14.598  18.437   6.220 -0.4214 -0.1773  0.0875
    1DPPC   C3A  451  14.507  18.215   5.802 -0.2592  0.0491 -0.2277
    1DPPC   C4A  452  14.347  18.191   5.394 -0.1999  0.0195 -0.0221
    1DPPC   C1B  453  14.972  18.121   6.644 -0.0930  0.0773  0.1186
    1DPPC   C2B  454  15.085  18.173   6.148  0.1019  0.0311 -0.0428
    1DPPC   C3B  455  15.003  18.323   5.754 -0.1154 -0.1379  0.0804
    1DPPC   C4B  456  14.747  18.469   5.338  0.0197  0.0780 -0.2652
    1DPPC   NC3  457  19.751  12.622   7.133 -0.2491  0.0651  0.2712
    1DPPC   PO4  458  20.046  12.945   7.011  0.1640 -0.3547 -0.0234
    1DPPC   GL1  459  19.806  12.837   6.660 -0.3903 -0.1145 -0.0413
    1DPPC   GL2  460  19.964  12.528   6.588  0.2261 -0.2848  0.0941
    1DPPC   C1A  461  19.815  12.981   6.237 -0.1944  0.1321  0.4421
    1DPPC   C2A  462  19.936  12.965   5.821 -0.1280  0.0584 -0.2091
    1DPPC   C3A  463  20.181  13.159   5.522 -0.1896  0.3441  0.1320
    1DPPC   C4A  464  20.154  13.232   5.067 -0.1150 -0.0075  0.0103
    1DPPC   C1B  465  20.180  12.618   6.251  0.2303  0.2434  0.3735
    1DPPC   C2B  466  20.195  12.546   5.831  0.3024 -0.0578  0.0272
    1DPPC   C3B  467  20.391  12.437   5.507 -0.1430 -0.0621  0.1395
    1DPPC   C4B  468  20.669  12.498   5.187  0.0136 -0.0960 -0.2943
    1DPPC   NC3  469  17.021  13.673   7.390 -0.0663 -0.1992 -0.1095
    1DPPC   PO4  470  16.908  13.394   7.113 -0.1133 -0.2124 -0.1869
    1DPPC   GL1  471  16.463  13.307   7.033 -0.1979 -0.3398  0.1785
    1DPPC   GL2  472  16.587  13.494   6.768 -0.2191 -0.1829 -0.1298
    1DPPC   C1A  473  16.253  13.082   6.651 -0.2440  0.1273  0.0448
    1DPPC   C2A  474  16.359  12.832   6.259 -0.1567  0.0541  0.2230
    1DPPC   C3A  475  16.343  12.736   5.830 -0.1202  0.1853  0.1248
    1DPPC   C4A  476  16.431  12.763   5.465  0.0353 -0.1015 -0.0806
    1DPPC   C1B  477  16.465  13.773   6.473  0.2771  0.0323  0.2438
    1DPPC   C2B  478  16.409  13.789   5.990 -0.0643 -0.0855  0.0372
    1DPPC   C3B  479  16.187  13.655   5.692 -0.1133  0.0376  0.2830
    1DPPC   C4B  480  15.873  13.537   5.413  0.0341  0.0279  0.1311
    1DPPC   NC3  481  17.507  21.756   7.085  0.1809  0.3212 -0.1444
    1DPPC   PO4  482  17.839  21.820   6.832  0.0133 -0.2309  0.0978
    1DPPC   GL1  483  17.760  21.646   6.511  0.1775 -0.1899 -0.0763
    1DPPC   GL2  484  17.982  21.409   6.461 -0.0500 -0.0709 -0.0553
    1DPPC   C1A  485  17.780  21.513   6.070  0.0201  0.0826  0.0344
    1DPPC   C2A  486  17.666  21.586   5.676  0.2933  0.2137 -0.1176
    1DPPC   C3A  487  17.679  21.844   5.439  0.0501 -0.1585  0.0906
    1DPPC   C4A  488  17.924  22.110   5.375  0.1379 -0.0442  0.0352
    1DPPC   C1B  489  18.362  21.235   6.402  0.2292 -0.0865  0.0520
    1DPPC   C2B  490  18.335  21.090   5.983  0.1010  0.1316 -0.0939
    1DPPC   C3B  491  18.409  20.996   5.430  0.2774 -0.0981 -0.5205
    1DPPC   C4B  492  18.402  20.926   5.008  0.1505  0.0583  0.1262
    1DPPC   NC3  493  22.059  27.810   6.147 -0.0406  0.0011 -0.1235
    1DPPC   PO4  494  21.703  27.483   6.113 -0.2038 -0.1278  0.2920
    1DPPC   GL1  495  21.954  27.307   5.858  0.3485 -0.4729  0.1158
    1DPPC   GL2  496  22.278  27.231   6.130 -0.1338 -0.1102  0.0373
    1DPPC   C1A  497  22.221  27.401   5.471  0.4174 -0.2134 -0.0110
    1DPPC   C2A  498  22.539  27.624   5.356  0.0184  0.1875  0.4654
    1DPPC   C3A  499  22.771  28.022   5.160 -0.1506 -0.0154  0.0683
    1DPPC   C4A  500  22.691  28.137   4.659  0.3746 -0.0053  0.0519
    1DPPC   C1B  501  22.418  27.083   5.761  0.2029  0.0784  0.0802
    1DPPC   C2B  502  22.688  27.118   5.337 -0.2697  0.2147 -0.0883
    1DPPC   C3B  503  22.941  27.098   4.922  0.1324 -0.0826  0.1695
    1DPPC   C4B  504  23.074  27.199   4.621  0.0467  0.0212 -0.1455
    1DPPC   NC3  505  14.558  15.414   7.180 -0.0616 -0.2730  0.0921
    1DPPC   PO4  506  14.350  15.101   7.009  0.2325  0.0990 -0.0800
    1DPPC   GL1  507  14.322  15.234   6.631  0.1618 -0.0434  0.1826
    1DPPC   GL2  508  14.282  15.569   6.641 -0.0896  0.1802 -0.1990
    1DPPC   C1A  509  14.650  15.337   6.375  0.0358  0.1715 -0.1242
    1DPPC   C2A  510  14.749  15.407   5.942 -0.0250 -0.1156  0.1102
    1DPPC   C3A  511  14.976  15.356   5.504 -0.0614  0.2531  0.1274
    1DPPC   C4A  512  14.993  15.201   5.040  0.1795  0.2608  0.1495
    1DPPC   C1B  513  14.305  15.779   6.271 -0.0335  0.0733 -0.3306
    1DPPC   C2B  514  14.332  15.656   5.914 -0.2062 -0.0616 -0.3169
    1DPPC   C3B  515  14.450  15.688   5.498 -0.1063 -0.2237  0.0832
    1DPPC   C4B  516  14.671  15.615   5.189  0.0351 -0.0686  0.4568
    1DPPC   NC3  517  20.186  17.529   7.659 -0.0640  0.0831  0.1745
    1DPPC   PO4  518  19.843  17.599   7.452  0.0347  0.0878  0.1190
    1DPPC   GL1  519  19.866  17.364   7.094 -0.0277  0.0855 -0.0357
    1DPPC   GL2  520  19.494  17.363   7.064 -0.0238 -0.2129  0.3719
    1DPPC   C1A  521  19.865  17.553   6.674 -0.1039  0.0970 -0.0755
    1DPPC   C2A  522  19.942  17.555   6.301 -0.0604 -0.3254  0.0476
    1DPPC   C3A  523  20.021  17.372   5.896  0.0755  0.0819 -0.0526
    1DPPC   C4A  524  19.886  17.376   5.417 -0.1718  0.0483  0.1098
    1DPPC   C1B  525  19.414  17.476   6.567 -0.1400 -0.1134  0.2103
    1DPPC   C2B  526  19.468  17.598   6.121  0.1963  0.1211  0.0504
    1DPPC   C3B  527  19.575  17.711   5.649  0.0043 -0.0748  0.2042
    1DPPC   C4B  528  19.595  17.745   5.168  0.0363 -0.2694  0.0207
    1DPPC   NC3  529  12.186  15.638   7.217  0.3172 -0.0077  0.1040
    1DPPC   PO4  530  12.630  15.781   7.216 -0.2043 -0.1031  0.0647
    1DPPC   GL1  531  12.391  15.937   6.821 -0.0633  0.0720  0.0564
    1DPPC   GL2  532  12.146  15.800   6.715  0.3561 -0.2896  0.0144
    1DPPC   C1A  533  12.378  16.055   6.353 -0.0733  0.0250 -0.0203
    1DPPC   C2A  534  12.477  15.982   5.896 -0.2318  0.1230  0.1410
    1DPPC   C3A  535  12.336  16.000   5.536  0.0649 -0.0687 -0.0317
    1DPPC   C4A  536  12.366  16.170   5.162  0.0118 -0.1659 -0.3282
    1DPPC   C1B  537  12.218  15.527   6.371  0.0620 -0.0370  0.1236
    1DPPC   C2B  538  12.193  15.551   5.911 -0.2479  0.1355 -0.2278
    1DPPC   C3B  539  12.077  15.396   5.503 -0.2607 -0.0258  0.0256
    1DPPC   C4B  540  12.152  15.590   5.154 -0.3643  0.0932  0.0144
    1DPPC   NC3  541  13.319  18.024   7.366 -0.1495 -0.3011  0.3147
    1DPPC   PO4  542  13.163  18.471   7.329  0.0764  0.0429 -0.3556
    1DPPC   GL1  543  13.133  18.595   6.865  0.1944  0.1166 -0.1365
    1DPPC   GL2  544  13.192  18.935   6.841  0.1359  0.0949  0.1308
    1DPPC   C1A  545  13.216  18.349   6.509  0.0435  0.0584  0.1047
    1DPPC   C2A  546  12.890  18.331   6.229 -0.1676  0.0135 -0.1439
    1DPPC   C3A  547  12.756  18.356   5.749 -0.0529 -0.0541  0.0453
    1DPPC   C4A  548  12.821  18.506   5.366  0.0889  0.1577  0.1659
    1DPPC   C1B  549  13.204  18.860   6.423  0.0159  0.2337  0.0091
    1DPPC   C2B  550  13.176  18.666   5.972  0.0119  0.0818 -0.2619
    1DPPC   C3B  551  13.297  18.595   5.593  0.0525  0.1140 -0.0531
    1DPPC   C4B  552  13.344  18.565   5.201 -0.0851  0.0234  0.0887
    1DPPC   NC3  553  11.561  12.864   7.753 -0.0560 -0.2660  0.0481
    1DPPC   PO4  554  11.332  12.956   7.352 -0.2892  0.1964  0.1284
    1DPPC   GL1  555  11.184  13.166   6.887  0.0683  0.0358  0.0349
    1DPPC   GL2  556  11.202  12.924   6.809  0.0816  0.1148  0.0109
    1DPPC   C1A  557  10.923  13.353   6.445 -0.1437 -0.1268  0.0181
    1DPPC   C2A  558  10.733  13.394   6.065 -0.0213  0.4225 -0.1624
    1DPPC   C3A  559  10.729  13.438   5.562  0.1125  0.0055  0.1845
    1DPPC   C4A  560  10.818  13.220   5.156 -0.1048 -0.0240 -0.2339
    1DPPC   C1B  561  11.300  13.009   6.430  0.1018  0.2260 -0.2080
    1DPPC   C2B  562  11.202  13.187   5.975  0.1028  0.3990 -0.3088
    1DPPC   C3B  563  11.159  13.186   5.573 -0.0348 -0.0864 -0.0868
    1DPPC   C4B  564  11.245  12.859   5.321  0.0698 -0.2231  0.2536
    1DPPC   NC3  565  11.050  16.510   6.946  0.0154  0.1937 -0.1728
    1DPPC   PO4  566  11.310  16.163   6.917  0.1467  0.1961  0.2271
    1DPPC   GL1  567  11.323  16.083   6.461  0.2168  0.0354 -0.0635
    1DPPC   GL2  568  11.147  15.749   6.533 -0.0417  0.0448  0.3772
    1DPPC   C1A  569  11.464  15.999   6.100  0.1308 -0.0568 -0.0997
    1DPPC   C2A  570  11.358  15.965   5.603 -0.3371 -0.2191  0.0452
    1DPPC   C3A  571  11.342  15.952   5.092 -0.1463 -0.2651 -0.1575
    1DPPC   C4A  572  11.229  15.970   4.586 -0.0066 -0.1320 -0.4352
    1DPPC   C1B  573  11.008  15.738   6.066 -0.0449 -0.2267  0.2047
    1DPPC   C2B  574  10.911  15.828   5.670  0.0272  0.0586  0.3031
    1DPPC   C3B  575  10.850  16.009   5.215  0.2688 -0.0878 -0.4017
    1DPPC   C4B  576  10.857  16.121   4.876  0.1005  0.2124 -0.0947
    1DPPC   NC3  577   7.727  10.961   7.567  0.0459 -0.4360  0.0582
    1DPPC   PO4  578   7.632  10.843   7.164 -0.2295 -0.1730  0.1216
    1DPPC   GL1  579   7.335  10.623   6.982  0.1248  0.2082 -0.4555
    1DPPC   GL2  580   7.090  10.767   6.980 -0.1860 -0.2433  0.2738
    1DPPC   C1A  581   7.310  10.281   6.541 -0.2223 -0.1515  0.2572
    1DPPC   C2A  582   7.140  10.196   6.151  0.2554 -0.1439 -0.3067
    1DPPC   C3A  583   6.839  10.023   5.816 -0.2580  0.1676  0.1184
    1DPPC   C4A  584   6.523   9.966   5.686  0.1239 -0.0469  0.0136
    1DPPC   C1B  585   6.783  10.927   6.586  0.2093 -0.2318  0.1049
    1DPPC   C2B  586   6.822  10.919   6.194 -0.2066  0.1325  0.1986
    1DPPC   C3B  587   6.919  11.188   5.937 -0.0567  0.4499  0.0236
    1DPPC   C4B  588   7.220  11.350   5.771 -0.3723 -0.2196  0.1502
    1DPPC   NC3  589  14.707  16.929   7.325  0.2562 -0.3392  0.0379
    1DPPC   PO4  590  14.321  17.262   7.160 -0.0793  0.1772  0.3014
    1DPPC   GL1  591  14.326  17.167   6.803  0.0127  0.3067 -0.0885
    1DPPC   GL2  592  14.527  16.865   6.855  0.1491  0.0519 -0.1737
    1DPPC   C1A  593  14.287  17.179   6.416  0.3439 -0.3098 -0.1178
    1DPPC   C2A  594  14.269  17.167   5.980  0.1067  0.1218 -0.4857
    1DPPC   C3A  595  14.325  17.100   5.489  0.2477  0.1379 -0.1656
    1DPPC   C4A  596  14.211  16.822   5.214  0.1333 -0.0360  0.1720
    1DPPC   C1B  597  14.589  16.750   6.443  0.1422  0.1313  0.1515
    1DPPC   C2B  598  14.581  16.746   6.016 -0.0524  0.0035  0.2400
    1DPPC   C3B  599  14.690  16.805   5.566 -0.2112 -0.1060 -0.1819
    1DPPC   C4B  600  14.724  16.864   5.120  0.1220 -0.1261  0.0179
    1DPPC   NC3  601  23.244  15.689   6.625 -0.1525 -0.0886  0.5548
    1DPPC   PO4  602  22.821  15.842   6.590 -0.0434  0.1164  0.0689
    1DPPC   GL1  603  22.503  15.999   6.360 -0.0991  0.1124  0.2760
    1DPPC   GL2  604  22.507  16.113   6.161  0.0023  0.0210 -0.0375
    1DPPC   C1A  605  22.085  15.924   6.339 -0.1576  0.1002  0.0070
    1DPPC   C2A  606  21.902  15.673   6.030  0.0377 -0.2375 -0.0667
    1DPPC   C3A  607  21.767  15.533   5.704  0.3195 -0.4014 -0.1395
    1DPPC   C4A  608  21.531  15.505   5.254 -0.0818 -0.2611 -0.1325
    1DPPC   C1B  609  22.138  16.022   5.875  0.0941 -0.0183  0.2367
    1DPPC   C2B  610  21.846  16.043   5.577 -0.0914  0.0610  0.1854
    1DPPC   C3B  611  21.731  16.033   5.142  0.1756  0.0358 -0.0231
    1DPPC   C4B  612  21.693  15.740   4.799 -0.0218 -0.2009 -0.1440
    1DPPC   NC3  613  18.225  11.065   7.086  0.1991 -0.0754  0.2466
    1DPPC   PO4  614  18.597  11.146   7.120 -0.1612  0.0973 -0.0386
    1DPPC   GL1  615  18.561  11.114   6.633 -0.2037  0.1433  0.1542
    1DPPC   GL2  616  18.670  11.405   6.519 -0.0017  0.1500  0.0402
    1DPPC   C1A  617  18.374  10.965   6.267 -0.0548 -0.0304  0.2230
    1DPPC   C2A  618  18.270  10.988   5.823  0.4102 -0.0660 -0.2705
    1DPPC   C3A  619  18.438  10.864   5.358 -0.0232 -0.2624 -0.2801
    1DPPC   C4A  620  18.309  10.709   4.965 -0.0774  0.2734 -0.0450
    1DPPC   C1B  621  18.596  11.369   6.068  0.1740 -0.0209  0.0459
    1DPPC   C2B  622  18.594  11.456   5.584 -0.0198 -0.1529 -0.2753
    1DPPC   C3B  623  18.687  11.370   5.188  0.0880 -0.0363  0.0440
    1DPPC   C4B  624  18.797  10.948   4.963 -0.0394  0.2485  0.2303
    1DPPC   NC3  625  11.796  11.017   7.427  0.3062  0.1821  0.1101
    1DPPC   PO4  626  12.087  10.757   7.477 -0.1715  0.0500  0.0629
    1DPPC   GL1  627  12.068  10.908   7.001 -0.2292 -0.1860 -0.0577
    1DPPC   GL2  628  12.280  10.630   6.940  0.0190 -0.0869 -0.1205
    1DPPC   C1A  629  11.971  11.077   6.705 -0.2229 -0.0726 -0.0818
    1DPPC   C2A  630  12.184  10.975   6.337  0.2569 -0.0852 -0.1182
    1DPPC   C3A  631  12.246  10.999   5.916  0.1765 -0.1164 -0.3346
    1DPPC   C4A  632  12.415  11.337   5.542 -0.1281 -0.0942  0.0744
    1DPPC   C1B  633  12.100  10.427   6.615  0.1735 -0.0613  0.1659
    1DPPC   C2B  634  11.958  10.477   6.276 -0.1698 -0.0866  0.2431
    1DPPC   C3B  635  11.902  10.271   5.819  0.2987  0.3164 -0.0229
    1DPPC   C4B  636  11.963  10.040   5.500  0.0742 -0.2112  0.1428
    1DPPC   NC3  637   9.715  11.541   8.030  0.0412 -0.2816  0.1071
    1DPPC   PO4  638  10.005  11.831   7.708 -0.1366 -0.0644  0.1289
    1DPPC   GL1  639   9.993  11.631   7.243  0.0707  0.0406  0.0573
    1DPPC   GL2  640   9.686  11.681   7.145 -0.1384 -0.0925 -0.1738
    1DPPC   C1A  641  10.023  11.588   6.799  0.0841 -0.1354  0.1501
    1DPPC   C2A  642  10.009  11.696   6.305  0.2365  0.0372  0.1263
    1DPPC   C3A  643  10.162  11.677   5.839  0.1318  0.0530 -0.2032
    1DPPC   C4A  644  10.396  11.783   5.502 -0.1488  0.1283 -0.0290
    1DPPC   C1B  645   9.614  11.993   6.788  0.2563  0.0399 -0.1280
    1DPPC   C2B  646   9.689  12.043   6.284  0.2193 -0.2983  0.0279
    1DPPC   C3B  647   9.918  12.106   5.950 -0.0139  0.3316 -0.1150
    1DPPC   C4B  648   9.992  12.201   5.528 -0.2795  0.1042  0.0150
    1DPPC   NC3  649   4.000   7.334   6.685 -0.0099 -0.2822 -0.0242
    1DPPC   PO4  650   4.009   6.952   6.520 -0.2011  0.0640 -0.1872
    1DPPC   GL1  651   3.836   6.833   6.124 -0.1755 -0.0860  0.1502
    1DPPC   GL2  652   3.752   7.206   6.021 -0.0835  0.4152  0.2215
    1DPPC   C1A  653   3.856   6.589   5.814  0.1052 -0.0287  0.1345
    1DPPC   C2A  654   3.711   6.251   5.592  0.1390  0.1279  0.2270
    1DPPC   C3A  655   3.742   5.847   5.556 -0.0955  0.4407 -0.1045
    1DPPC   C4A  656   3.646   5.494   5.761  0.1584  0.1373 -0.0947
    1DPPC   C1B  657   3.596   7.092   5.716  0.0466 -0.1395  0.3652
    1DPPC   C2B  658   3.612   6.805   5.381 -0.2256 -0.1291  0.0046
    1DPPC   C3B  659   3.803   6.636   4.986 -0.0616  0.1646 -0.1513
    1DPPC   C4B  660   4.094   6.262   4.873 -0.2593  0.3281  0.0203
    1DPPC   NC3  661  20.111  13.348   7.280 -0.1406 -0.2700  0.2723
    1DPPC   PO4  662  20.496  13.648   7.116  0.1117  0.2949  0.0518
    1DPPC   GL1  663  20.480  13.973   6.719 -0.1669  0.0886  0.0141
    1DPPC   GL2  664  20.198  13.893   6.544 -0.0133  0.0059 -0.0982
    1DPPC   C1A  665  20.644  14.264   6.340 -0.0049  0.1381  0.0264
    1DPPC   C2A  666  20.863  14.488   5.973  0.3209  0.2507  0.0609
    1DPPC   C3A  667  21.002  14.850   5.705 -0.1531 -0.0964 -0.0113
    1DPPC   C4A  668  21.080  14.804   5.269 -0.0201  0.1190  0.1193
    1DPPC   C1B  669  20.361  13.883   6.127 -0.0630 -0.0532  0.0889
    1DPPC   C2B  670  20.517  14.147   5.800  0.0709  0.1099  0.1060
    1DPPC   C3B  671  20.481  14.156   5.390 -0.1430  0.1689 -0.0213
    1DPPC   C4B  672  20.644  14.378   5.055 -0.4457  0.0459 -0.0151
    1DPPC   NC3  673  18.964   8.470   7.543 -0.3754  0.2924 -0.0040
    1DPPC   PO4  674  18.955   8.196   7.179 -0.3497 -0.1716 -0.2022
    1DPPC   GL1  675  19.121   8.258   6.742 -0.1964  0.0658 -0.0218
    1DPPC   GL2  676  19.070   7.972   6.529 -0.0477  0.2202 -0.0595
    1DPPC   C1A  677  18.739   8.306   6.449 -0.0602  0.2580  0.2764
    1DPPC   C2A  678  18.840   8.293   6.001  0.0373 -0.0528  0.4219
    1DPPC   C3A  679  18.964   8.194   5.555  0.1414  0.1088 -0.0597
    1DPPC   C4A  680  18.985   8.102   5.124  0.0546  0.2481 -0.1417
    1DPPC   C1B  681  18.942   7.892   6.194 -0.0631  0.2582  0.1472
    1DPPC   C2B  682  19.105   7.680   5.821 -0.2797 -0.0477 -0.0520
    1DPPC   C3B  683  19.338   7.701   5.484 -0.1659  0.2116  0.0151
    1DPPC   C4B  684  19.273   7.583   5.084  0.4846 -0.0916 -0.0911
    1DPPC   NC3  685   2.066  13.814   6.867  0.0847 -0.1371 -0.2916
    1DPPC   PO4  686   2.228  13.608   6.546  0.0464 -0.1060  0.1283
    1DPPC   GL1  687   2.337  13.614   6.173 -0.2382  0.1539  0.1311
    1DPPC   GL2  688   2.651  13.703   6.027 -0.0021  0.1952 -0.2812
    1DPPC   C1A  689   2.196  13.600   5.721 -0.1806  0.0595 -0.0579
    1DPPC   C2A  690   1.764  13.405   5.498 -0.1055 -0.4640 -0.0172
    1DPPC   C3A  691   1.734  13.499   5.067  0.2851 -0.2688  0.0939
    1DPPC   C4A  692   1.892  13.396   4.699  0.0429 -0.0789 -0.1601
    1DPPC   C1B  693   2.857  13.781   5.761 -0.1661 -0.1747  0.0830
    1DPPC   C2B  694   2.938  14.082   5.328  0.1022  0.0873  0.0363
    1DPPC   C3B  695   3.139  14.152   4.966  0.1401 -0.2895  0.2888
    1DPPC   C4B  696   3.126  14.345   4.623  0.1168 -0.5298  0.0103
    1DPPC   NC3  697  13.994  20.758   7.875 -0.0567  0.0347 -0.1054
    1DPPC   PO4  698  13.721  20.499   7.560  0.2098  0.1592  0.0990
    1DPPC   GL1  699  13.695  20.601   7.145 -0.0300 -0.1584 -0.0469
    1DPPC   GL2  700  13.932  20.704   6.984 -0.2227  0.2480 -0.1429
    1DPPC   C1A  701  13.545  20.575   6.693 -0.2782 -0.2693  0.2533
    1DPPC   C2A  702  13.587  20.448   6.270 -0.0892  0.0830  0.3313
    1DPPC   C3A  703  13.343  20.699   5.858  0.0853 -0.2023 -0.0473
    1DPPC   C4A  704  13.261  20.874   5.439  0.1328 -0.0440 -0.0981
    1DPPC   C1B  705  14.151  20.891   6.606  0.0717  0.1386 -0.0649
    1DPPC   C2B  706  14.284  21.038   6.166  0.3343 -0.0957  0.1564
    1DPPC   C3B  707  14.190  21.153   5.749 -0.0700  0.0424 -0.1727
    1DPPC   C4B  708  14.219  20.832   5.383  0.1151 -0.1615 -0.5119
    1DPPC   NC3  709  20.699   9.691   6.837  0.2389 -0.2225  0.2633
    1DPPC   PO4  710  20.190   9.683   6.767  0.0556 -0.2035 -0.0587
    1DPPC   GL1  711  20.436   9.691   6.404  0.1531 -0.0063  0.4772
    1DPPC   GL2  712  20.674   9.468   6.377 -0.0289  0.0366  0.2755
    1DPPC   C1A  713  20.378   9.574   5.963 -0.1780 -0.1143 -0.1630
    1DPPC   C2A  714  20.579   9.383   5.656  0.2375  0.0165 -0.1038
    1DPPC   C3A  715  20.828   9.336   5.274  0.1390 -0.3314 -0.0513
    1DPPC   C4A  716  20.685   9.037   5.029  0.2488  0.2145 -0.3197
    1DPPC   C1B  717  20.843   9.230   6.067  0.1622 -0.0426 -0.4165
    1DPPC   C2B  718  21.110   9.057   5.785 -0.2461  0.1526 -0.1058
    1DPPC   C3B  719  21.247   9.042   5.486 -0.1503 -0.1367  0.0989
    1DPPC   C4B  720  21.191   9.125   5.037 -0.3932 -0.0835 -0.0337
    1DPPC   NC3  721   4.241  11.648   6.827 -0.0060 -0.3341  0.4504
    1DPPC   PO4  722   4.187  11.277   6.727  0.1572  0.1090  0.1572
    1DPPC   GL1  723   4.165  11.479   6.270  0.0138  0.0622 -0.1685
    1DPPC   GL2  724   4.247  11.795   6.061  0.2716  0.3316  0.0457
    1DPPC   C1A  725   4.092  11.236   5.841  0.2139 -0.4430 -0.0926
    1DPPC   C2A  726   3.783  10.994   5.555 -0.2091  0.1237 -0.0829
    1DPPC   C3A  727   3.632  10.859   5.052 -0.2046  0.1296  0.0208
    1DPPC   C4A  728   3.603  10.793   4.616 -0.3156 -0.1452  0.2934
    1DPPC   C1B  729   4.185  12.122   5.583 -0.1798  0.1525  0.0215
    1DPPC   C2B  730   4.156  12.353   5.189 -0.1872  0.0402 -0.2392
    1DPPC   C3B  731   3.927  12.374   4.749  0.0932 -0.1065 -0.0104
    1DPPC   C4B  732   4.029  12.173   4.399  0.0012  0.0392  0.0813
    1DPPC   NC3  733  19.274  18.348   7.612  0.0678 -0.4851 -0.1677
    1DPPC   PO4  734  19.483  18.004   7.552 -0.1801  0.0222 -0.2371
    1DPPC   GL1  735  19.258  18.189   7.170 -0.3159 -0.1805  0.0277
    1DPPC   GL2  736  18.845  18.250   7.096 -0.3340 -0.3236 -0.0507
    1DPPC   C1A  737  19.290  18.358   6.695  0.1300 -0.0052  0.1864
    1DPPC   C2A  738  19.126  18.476   6.231 -0.1360 -0.0519  0.3253
    1DPPC   C3A  739  19.048  18.665   5.875 -0.0746 -0.1842 -0.1210
    1DPPC   C4A  740  18.929  18.567   5.405 -0.3270 -0.0047  0.2592
    1DPPC   C1B  741  18.796  18.318   6.631 -0.2124  0.0736 -0.1347
    1DPPC   C2B  742  18.584  18.349   6.162 -0.3613  0.2256 -0.0660
    1DPPC   C3B  743  18.274  18.207   5.888  0.2155 -0.2115 -0.2145
    1DPPC   C4B  744  18.025  18.105   5.572 -0.2424  0.1941  0.0881
    1DPPC   NC3  745  18.345   8.954   6.897  0.0460  0.3561  0.1775
    1DPPC   PO4  746  18.241   9.336   6.959  0.1350 -0.0545 -0.4127
    1DPPC   GL1  747  18.502   9.424   6.664 -0.3160  0.2017  0.0392
    1DPPC   GL2  748  18.591   9.085   6.542  0.0441  0.0278 -0.0295
    1DPPC   C1A  749  18.444   9.442   6.246  0.0358  0.1398  0.2264
    1DPPC   C2A  750  18.614   9.517   5.819 -0.2839 -0.1805 -0.1783
    1DPPC   C3A  751  18.600   9.656   5.407  0.0508  0.0726 -0.2136
    1DPPC   C4A  752  18.624   9.447   5.060  0.0531  0.0081  0.1237
    1DPPC   C1B  753  18.611   8.740   6.200  0.0899 -0.0068 -0.0298
    1DPPC   C2B  754  18.529   8.603   5.824  0.1492 -0.0084 -0.0580
    1DPPC   C3B  755  18.569   8.590   5.394 -0.0548  0.1508 -0.2063
    1DPPC   C4B  756  18.648   8.499   4.926 -0.0551  0.1002  0.1399
    1DPPC   NC3  757  14.499  18.849   7.881  0.0766  0.0917  0.3773
    1DPPC   PO4  758  14.928  18.740   7.692  0.1524 -0.4185 -0.0115
    1DPPC   GL1  759  14.887  18.848   7.275 -0.1842  0.1128 -0.1145
    1DPPC   GL2  760  15.070  19.049   7.116 -0.1696 -0.0717 -0.1994
    1DPPC   C1A  761  14.636  18.895   6.861  0.1363  0.0932 -0.0865
    1DPPC   C2A  762  14.536  18.994   6.504 -0.2172  0.2838  0.0713
    1DPPC   C3A  763  14.510  18.983   6.088  0.1814  0.2409  0.2221
    1DPPC   C4A  764  14.559  18.811   5.614  0.1012  0.0946 -0.2145
    1DPPC   C1B  765  15.348  19.175   6.752  0.1483 -0.1385  0.3851
    1DPPC   C2B  766  15.271  19.416   6.384 -0.1539 -0.1693 -0.3648
    1DPPC   C3B  767  15.233  19.511   6.017  0.0087  0.0391 -0.0096
    1DPPC   C4B  768  15.342  19.882   5.845  0.1997  0.0176  0.0573
    1DPPC   NC3  769  16.291  15.544   7.697  0.1534  0.2107 -0.0421
    1DPPC   PO4  770  16.089  15.824   7.382 -0.0054 -0.1243  0.2419
    1DPPC   GL1  771  16.090  15.831   6.905 -0.3552  0.2142  0.0464
    1DPPC   GL2  772  16.374  15.620   6.809 -0.3181 -0.3449 -0.0101
    1DPPC   C1A  773  16.092  15.991   6.552 -0.1107  0.0639  0.0313
    1DPPC   C2A  774  16.386  16.099   6.234  0.2106  0.1512  0.1174
    1DPPC   C3A  775  16.394  16.069   5.778  0.0605  0.0452  0.1246
    1DPPC   C4A  776  16.304  15.991   5.326 -0.2190 -0.0608  0.3572
    1DPPC   C1B  777  16.352  15.564   6.448  0.1846 -0.0805  0.2439
    1DPPC   C2B  778  16.335  15.597   6.090  0.0246 -0.0440 -0.0869
    1DPPC   C3B  779  16.335  15.586   5.708  0.0181  0.0040  0.0306
    1DPPC   C4B  780  16.281  15.502   5.208  0.0006  0.0192 -0.0297
    1DPPC   NC3  781  11.980  14.653   7.353  0.1401 -0.1379 -0.2610
    1DPPC   PO4  782  11.944  15.113   7.356 -0.3787 -0.1713 -0.2092
    1DPPC   GL1  783  11.952  15.116   6.984 -0.1747 -0.0356 -0.2424
    1DPPC   GL2  784  11.805  15.353   6.895  0.1351  0.0751  0.1271
    1DPPC   C1A  785  12.054  15.110   6.516 -0.0800  0.0637 -0.1666
    1DPPC   C2A  786  11.936  15.097   6.073  0.0651 -0.2728 -0.0839
    1DPPC   C3A  787  11.938  14.890   5.704  0.1965  0.0275  0.0695
    1DPPC   C4A  788  12.010  14.921   5.267  0.3553 -0.0424 -0.0412
    1DPPC   C1B  789  11.529  15.232   6.653  0.1351  0.0726  0.0789
    1DPPC   C2B  790  11.508  15.039   6.369  0.0279 -0.3489 -0.3526
    1DPPC   C3B  791  11.471  14.975   5.929 -0.1053 -0.1986  0.2824
    1DPPC   C4B  792  11.552  14.999   5.421 -0.0358 -0.2308 -0.0918
    1DPPC   NC3  793  15.718   8.395   7.752 -0.0337 -0.2274 -0.1048
    1DPPC   PO4  794  15.533   8.466   7.381  0.1354 -0.2080  0.1364
    1DPPC   GL1  795  15.438   8.467   6.948 -0.1823  0.2777  0.1877
    1DPPC   GL2  796  15.181   8.333   6.863  0.2690  0.0598  0.0243
    1DPPC   C1A  797  15.551   8.204   6.583 -0.0347  0.0122  0.1393
    1DPPC   C2A  798  15.560   8.123   6.100 -0.0261 -0.3112 -0.0468
    1DPPC   C3A  799  15.425   7.924   5.652  0.6148  0.0477 -0.0280
    1DPPC   C4A  800  15.635   7.693   5.341 -0.0948  0.3124 -0.2971
    1DPPC   C1B  801  15.088   8.267   6.436 -0.0177 -0.2897  0.1609
    1DPPC   C2B  802  15.001   8.122   5.991  0.0297 -0.2423 -0.0207
    1DPPC   C3B  803  14.673   7.926   5.757 -0.1881  0.3377 -0.0030
    1DPPC   C4B  804  14.555   7.717   5.443  0.0100  0.0883  0.2862
    1DPPC   NC3  805  13.814  13.445   7.214  0.0990 -0.2505  0.2917
    1DPPC   PO4  806  14.162  13.687   7.202 -0.1772 -0.0747  0.1371
    1DPPC   GL1  807  14.175  13.933   6.811  0.0715  0.0924  0.0183
    1DPPC   GL2  808  13.853  13.846   6.769 -0.0542 -0.0113  0.3101
    1DPPC   C1A  809  14.079  13.813   6.333 -0.1847 -0.2218 -0.0997
    1DPPC   C2A  810  14.019  13.950   5.851  0.1503 -0.1893 -0.1007
    1DPPC   C3A  811  13.921  14.206   5.562  0.1875 -0.0300  0.1403
    1DPPC   C4A  812  13.623  14.345   5.416  0.0422 -0.0216  0.2031
    1DPPC   C1B  813  13.509  13.838   6.535 -0.0993  0.1525  0.2923
    1DPPC   C2B  814  13.545  13.952   6.122  0.0601  0.0235  0.0147
    1DPPC   C3B  815  13.516  13.936   5.670  0.0993  0.0045  0.0267
    1DPPC   C4B  816  13.307  13.780   5.323  0.2000  0.1940 -0.0512
    1DPPC   NC3  817  19.367   5.752   7.128 -0.2042 -0.2288  0.5292
    1DPPC   PO4  818  19.379   5.411   6.901 -0.2142 -0.1176  0.1175
    1DPPC   GL1  819  19.389   5.600   6.562  0.1290 -0.0259  0.0307
    1DPPC   GL2  820  19.476   5.864   6.339  0.0836  0.4005  0.1706
    1DPPC   C1A  821  19.053   5.546   6.182  0.1576  0.0396  0.1396
    1DPPC   C2A  822  18.791   5.562   5.868 -0.2956 -0.3742  0.0554
    1DPPC   C3A  823  18.888   5.641   5.509  0.3064  0.0310  0.1086
    1DPPC   C4A  824  19.238   5.858   5.400  0.0354 -0.2043 -0.1264
    1DPPC   C1B  825  19.438   5.882   5.887  0.2926  0.2794  0.1794
    1DPPC   C2B  826  19.652   5.700   5.562 -0.1881 -0.1139 -0.0218
    1DPPC   C3B  827  19.765   5.362   5.274  0.1402  0.2483 -0.2926
    1DPPC   C4B  828  19.708   4.995   5.353 -0.0333 -0.0383  0.0406
    1DPPC   NC3  829  26.589  10.257   5.931  0.2834  0.2042 -0.2349
    1DPPC   PO4  830  26.703   9.878   5.898  0.0961 -0.1553 -0.3053
    1DPPC   GL1  831  26.921   9.919   5.527  0.0277  0.1914 -0.1307
    1DPPC   GL2  832  26.972   9.675   5.299 -0.2287  0.3370 -0.1394
    1DPPC   C1A  833  26.920  10.197   5.196  0.1142  0.3746  0.0160
    1DPPC   C2A  834  26.769  10.233   4.750  0.0014  0.0903  0.0140
    1DPPC   C3A  835  26.496  10.329   4.354  0.2473 -0.3844 -0.2149
    1DPPC   C4A  836  26.165  10.736   4.088  0.3487  0.2855 -0.2148
    1DPPC   C1B  837  27.233   9.329   5.032 -0.0364  0.3493  0.1065
    1DPPC   C2B  838  27.538   9.152   4.769 -0.2785 -0.0535 -0.0620
    1DPPC   C3B  839  27.595   8.956   4.445  0.1388  0.1730  0.1304
    1DPPC   C4B  840  27.811   9.039   4.105 -0.1502  0.1475  0.1028
    1DPPC   NC3  841   8.308  16.168   7.007  0.2181  0.0056  0.0523
    1DPPC   PO4  842   8.628  15.757   6.908 -0.4869 -0.0319 -0.0792
    1DPPC   GL1  843   8.774  15.653   6.559  0.1387  0.2362 -0.0084
    1DPPC   GL2  844   8.732  15.837   6.305 -0.1667  0.0542  0.1137
    1DPPC   C1A  845   8.855  15.333   6.298 -0.1458 -0.3546 -0.0429
    1DPPC   C2A  846   8.775  15.263   5.838 -0.1438  0.1130 -0.3180
    1DPPC   C3A  847   8.708  15.204   5.426  0.0934 -0.1706 -0.3765
    1DPPC   C4A  848   8.706  14.956   5.087 -0.2553  0.1794 -0.0702
    1DPPC   C1B  849   8.644  15.770   5.899 -0.1968  0.0588  0.0908
    1DPPC   C2B  850   8.585  15.712   5.437 -0.0966 -0.0003 -0.0925
    1DPPC   C3B  851   8.397  15.790   4.951  0.1166  0.3082 -0.0322
    1DPPC   C4B  852   8.343  15.687   4.511  0.1462  0.2856 -0.3148
    1DPPC   NC3  853  16.933  17.499   7.432  0.0093  0.1169 -0.2296
    1DPPC   PO4  854  17.135  17.869   7.322  0.0396  0.1312  0.2059
    1DPPC   GL1  855  17.165  17.935   6.930  0.1337  0.1058  0.0069
    1DPPC   GL2  856  17.223  18.242   6.762  0.3621  0.0474 -0.1606
    1DPPC   C1A  857  17.611  17.907   6.668  0.1229  0.0910 -0.0774
    1DPPC   C2A  858  17.573  17.836   6.164 -0.3662  0.0723 -0.2300
    1DPPC   C3A  859  17.509  17.501   5.813  0.2760  0.1238 -0.2156
    1DPPC   C4A  860  17.725  17.268   5.452  0.2068  0.0224  0.1465
    1DPPC   C1B  861  17.292  18.224   6.354 -0.1328  0.0350  0.1940
    1DPPC   C2B  862  17.270  18.323   6.019 -0.0260 -0.3286  0.4286
    1DPPC   C3B  863  17.536  18.647   5.754  0.1825 -0.1907 -0.2005
    1DPPC   C4B  864  18.033  18.670   5.742 -0.0242  0.0532  0.3664
    1DPPC   NC3  865  13.973  15.535   7.046  0.0092  0.2442 -0.3942
    1DPPC   PO4  866  14.322  15.851   7.106  0.2071 -0.3728 -0.1402
    1DPPC   GL1  867  14.404  16.073   6.860 -0.0479  0.1909  0.0168
    1DPPC   GL2  868  14.423  16.357   6.940  0.0977 -0.1761 -0.1486
    1DPPC   C1A  869  14.434  16.276   6.420 -0.0048  0.0675 -0.1212
    1DPPC   C2A  870  14.466  16.269   5.904 -0.1478  0.1454 -0.2689
    1DPPC   C3A  871  14.557  16.189   5.533  0.1684 -0.2691  0.0133
    1DPPC   C4A  872  14.550  16.359   5.147 -0.4693 -0.1200 -0.0414
    1DPPC   C1B  873  14.821  16.396   6.729  0.0458  0.1501 -0.0933
    1DPPC   C2B  874  14.863  16.374   6.304  0.3373  0.1309 -0.0198
    1DPPC   C3B  875  14.911  16.416   5.809  0.0198  0.0462  0.2428
    1DPPC   C4B  876  15.072  16.539   5.418 -0.0505 -0.1038  0.1051
    1DPPC   NC3  877  18.809  11.613   7.006  0.1646 -0.0185  0.0191
    1DPPC   PO4  878  19.030  11.991   7.238 -0.1501 -0.2360  0.0776
    1DPPC   GL1  879  19.199  12.020   6.755  0.1533  0.0537  0.2314
    1DPPC   GL2  880  19.018  11.804   6.618 -0.1237 -0.0077  0.2436
    1DPPC   C1A  881  19.076  12.121   6.239 -0.0929 -0.2079 -0.2724
    1DPPC   C2A  882  19.072  12.108   5.880  0.1358 -0.1164  0.0587
    1DPPC   C3A  883  19.346  11.956   5.476  0.0267 -0.1046 -0.0571
    1DPPC   C4A  884  19.462  11.994   4.975  0.0450 -0.4106  0.0500
    1DPPC   C1B  885  19.016  11.653   6.178 -0.0267 -0.2409 -0.0729
    1DPPC   C2B  886  19.204  11.588   5.799  0.0487 -0.3709 -0.2053
    1DPPC   C3B  887  19.097  11.571   5.422  0.0067 -0.0512  0.0245
    1DPPC   C4B  888  19.206  11.578   5.031 -0.1562  0.0661  0.1044
    1DPPC   NC3  889  19.049  12.624   7.344 -0.0508  0.0587  0.1508
    1DPPC   PO4  890  19.354  12.376   7.146 -0.1411  0.1062 -0.2298
    1DPPC   GL1  891  19.073  12.525   6.851 -0.1517  0.0484 -0.1518
    1DPPC   GL2  892  18.779  12.233   6.763 -0.0212  0.2325  0.1394
    1DPPC   C1A  893  18.989  12.607   6.473 -0.2711  0.1286 -0.0232
    1DPPC   C2A  894  19.000  12.711   6.022 -0.2492 -0.0799  0.0296
    1DPPC   C3A  895  18.959  12.509   5.595 -0.0770 -0.2781 -0.1201
    1DPPC   C4A  896  18.814  12.582   5.095 -0.2688 -0.1657 -0.1028
    1DPPC   C1B  897  18.597  12.074   6.334 -0.3029 -0.1707  0.2014
    1DPPC   C2B  898  18.609  11.864   5.914  0.0807 -0.0853  0.0901
    1DPPC   C3B  899  18.771  11.975   5.535  0.0304 -0.2364 -0.2667
    1DPPC   C4B  900  18.920  12.007   5.152  0.0420  0.0100  0.4093
    1DPPC   NC3  901  21.184  14.610   6.915  0.1660 -0.1391  0.3214
    1DPPC   PO4  902  20.653  14.611   6.911  0.2766 -0.1470  0.0537
    1DPPC   GL1  903  20.481  14.797   6.564 -0.0892  0.2669  0.0717
    1DPPC   GL2  904  20.446  15.104   6.541 -0.0846  0.2780 -0.2841
    1DPPC   C1A  905  20.411  14.722   6.167  0.0436 -0.1647 -0.1682
    1DPPC   C2A  906  20.429  14.765   5.883  0.0681  0.2302 -0.0717
    1DPPC   C3A  907  20.634  14.611   5.576 -0.0341  0.0350 -0.2883
    1DPPC   C4A  908  21.006  14.317   5.407  0.2777 -0.0481  0.0424
    1DPPC   C1B  909  20.373  15.251   6.193  0.2427 -0.2784  0.2075
    1DPPC   C2B  910  20.262  15.236   5.807  0.1406  0.2488  0.1616
    1DPPC   C3B  911  20.263  14.992   5.450 -0.0777  0.0088 -0.0452
    1DPPC   C4B  912  20.597  14.976   5.180 -0.0085 -0.1756  0.1997
    1DPPC   NC3  913   8.559  12.885   7.439  0.0047  0.0291 -0.1606
    1DPPC   PO4  914   8.135  12.960   7.457  0.1304 -0.1879 -0.1196
    1DPPC   GL1  915   8.316  12.999   7.045  0.0691  0.1307 -0.0196
    1DPPC   GL2  916   8.679  13.016   6.959  0.1222  0.2151  0.4282
    1DPPC   C1A  917   8.107  13.007   6.587 -0.0360 -0.0418 -0.1574
    1DPPC   C2A  918   8.075  13.019   6.082 -0.0424  0.2990 -0.1654
    1DPPC   C3A  919   8.115  12.972   5.670 -0.0606  0.0133  0.2106
    1DPPC   C4A  920   8.180  12.804   5.240  0.1829 -0.2333  0.1748
    1DPPC   C1B  921   8.812  12.765   6.584  0.2807  0.0460 -0.0718
    1DPPC   C2B  922   8.883  12.766   6.192 -0.1076 -0.1294 -0.0406
    1DPPC   C3B  923   9.118  12.685   5.764 -0.0213  0.0573 -0.0957
    1DPPC   C4B  924   9.321  12.579   5.397  0.0167  0.0416 -0.2334
    1DPPC   NC3  925  20.045   8.456   7.125  0.2597  0.2573  0.0044
    1DPPC   PO4  926  19.670   8.746   7.061 -0.1950 -0.0410  0.0298
    1DPPC   GL1  927  19.605   8.595   6.650 -0.1989  0.1076 -0.3993
    1DPPC   GL2  928  19.572   8.165   6.549 -0.1259  0.3147 -0.0572
    1DPPC   C1A  929  19.671   8.803   6.253 -0.3671  0.1331  0.0179
    1DPPC   C2A  930  19.922   8.820   5.793  0.2193 -0.3722  0.0765
    1DPPC   C3A  931  20.001   8.665   5.487 -0.2008 -0.4638  0.0917
    1DPPC   C4A  932  20.053   8.897   5.123 -0.0785  0.1421 -0.2533
    1DPPC   C1B  933  19.395   8.289   6.271 -0.0496 -0.2806  0.4905
    1DPPC   C2B  934  19.335   8.158   5.892  0.0575 -0.1426 -0.1882
    1DPPC   C3B  935  19.448   8.160   5.433  0.3371  0.1629  0.2666
    1DPPC   C4B  936  19.683   7.959   5.165  0.1647  0.2426  0.0112
    1DPPC   NC3  937  17.781  12.468   7.078 -0.1207 -0.1390 -0.2955
    1DPPC   PO4  938  17.575  12.834   7.088 -0.0699  0.1312  0.2885
    1DPPC   GL1  939  17.761  12.914   6.697 -0.0885  0.4732 -0.0667
    1DPPC   GL2  940  17.682  13.060   6.596 -0.0474  0.0108  0.1072
    1DPPC   C1A  941  18.089  12.963   6.305 -0.2468 -0.2617 -0.1567
    1DPPC   C2A  942  18.313  12.806   5.946 -0.0061  0.0449  0.2741
    1DPPC   C3A  943  18.466  12.846   5.620  0.0502 -0.0957 -0.1973
    1DPPC   C4A  944  18.512  13.043   5.206  0.0790  0.4611 -0.0981
    1DPPC   C1B  945  17.680  13.020   6.091  0.2101  0.3062 -0.0095
    1DPPC   C2B  946  17.922  13.010   5.730 -0.1157 -0.2036  0.3292
    1DPPC   C3B  947  17.987  13.119   5.384  0.2267  0.1299  0.0367
    1DPPC   C4B  948  18.130  13.279   5.037 -0.0311  0.0552 -0.0179
    1DPPC   NC3  949  10.659  18.519   7.340 -0.0217  0.0991  0.1304
    1DPPC   PO4  950  10.998  18.633   7.305  0.1631  0.0252  0.0287
    1DPPC   GL1  951  10.847  18.824   6.908  0.1453 -0.1518 -0.1292
    1DPPC   GL2  952  10.594  19.095   6.820 -0.1955 -0.0397 -0.0156
    1DPPC   C1A  953  10.901  18.798   6.370 -0.0506  0.1041  0.1754
    1DPPC   C2A  954  10.832  18.985   5.997  0.0105 -0.1477 -0.0830
    1DPPC   C3A  955  10.862  18.912   5.512 -0.0312  0.2086 -0.1113
    1DPPC   C4A  956  11.095  18.926   5.124  0.4301 -0.1057  0.0665
    1DPPC   C1B  957  10.498  19.083   6.441  0.0291 -0.0971  0.0184
    1DPPC   C2B  958  10.334  19.224   5.986  0.3465  0.0382  0.1178
    1DPPC   C3B  959  10.421  19.110   5.604 -0.2079 -0.0466 -0.0905
    1DPPC   C4B  960  10.483  18.987   5.151  0.0806  0.0548 -0.1739
    1DPPC   NC3  961  14.425  14.687   7.391 -0.1407 -0.2309 -0.0705
    1DPPC   PO4  962  14.282  14.578   7.034  0.4250 -0.1446  0.1931
    1DPPC   GL1  963  14.413  14.361   6.723  0.1916 -0.0730 -0.2363
    1DPPC   GL2  964  14.752  14.343   6.698  0.2074 -0.0078  0.1137
    1DPPC   C1A  965  14.367  14.302   6.309 -0.2095  0.1094  0.0895
    1DPPC   C2A  966  14.418  14.429   5.880 -0.0864  0.0422  0.1737
    1DPPC   C3A  967  14.255  14.564   5.452 -0.1803 -0.0381 -0.0230
    1DPPC   C4A  968  14.249  14.534   5.062  0.2279 -0.2970  0.4108
    1DPPC   C1B  969  14.897  14.486   6.261 -0.1351 -0.0413 -0.0262
    1DPPC   C2B  970  14.932  14.465   5.798 -0.0597 -0.2775 -0.1952
    1DPPC   C3B  971  14.689  14.325   5.519  0.1334  0.1440  0.1479
    1DPPC   C4B  972  14.635  14.184   5.040 -0.1804 -0.0846  0.0550
    1DPPC   NC3  973  15.235  14.873   7.135 -0.0725 -0.0048  0.1463
    1DPPC   PO4  974  14.818  14.926   7.276 -0.0171  0.2197  0.1222
    1DPPC   GL1  975  14.779  14.813   6.875  0.0851 -0.1127 -0.0963
    1DPPC   GL2  976  14.933  15.051   6.730  0.1513 -0.0224 -0.1160
    1DPPC   C1A  977  14.544  14.807   6.479 -0.1514  0.0142  0.1120
    1DPPC   C2A  978  14.648  14.871   6.032  0.1207  0.1073  0.1089
    1DPPC   C3A  979  14.583  14.840   5.617 -0.1425 -0.2081 -0.1300
    1DPPC   C4A  980  14.725  14.738   5.134 -0.4757 -0.2627  0.0009
    1DPPC   C1B  981  15.025  14.979   6.305  0.3207  0.0089 -0.0083
    1DPPC   C2B  982  15.113  14.932   5.894  0.2520  0.1459  0.0047
    1DPPC   C3B  983  15.200  14.835   5.546 -0.0288  0.0616  0.0700
    1DPPC   C4B  984  15.369  14.835   5.119  0.0511 -0.0287  0.2946
    1DPPC   NC3  985  11.989  17.629   7.573  0.0708 -0.3090 -0.0213
    1DPPC   PO4  986  12.223  17.317   7.335 -0.3088 -0.2750  0.1594
    1DPPC   GL1  987  12.299  17.278   6.874 -0.0530 -0.0732 -0.2170
    1DPPC   GL2  988  12.476  17.019   6.709 -0.0847 -0.3771 -0.0741
    1DPPC   C1A  989  12.128  17.463   6.508 -0.2548 -0.2897  0.0692
    1DPPC   C2A  990  12.118  17.507   5.939 -0.1413  0.4173 -0.1979
    1DPPC   C3A  991  12.069  17.454   5.560 -0.1039 -0.1788  0.0463
    1DPPC   C4A  992  12.073  17.251   5.184 -0.0116  0.1904  0.0595
    1DPPC   C1B  993  12.437  17.115   6.275 -0.1247  0.2373 -0.3405
    1DPPC   C2B  994  12.337  16.982   5.873 -0.0572  0.1693  0.2836
    1DPPC   C3B  995  12.358  16.920   5.440 -0.2166  0.1606  0.2629
    1DPPC   C4B  996  12.512  16.925   5.063 -0.2523  0.0600 -0.1798
    1DPPC   NC3  997  15.211  22.414   7.431 -0.1433 -0.0422  0.0456
    1DPPC   PO4  998  14.951  22.079   7.379  0.5764  0.1441  0.2951
    1DPPC   GL1  999  14.822  21.996   6.952  0.1556 -0.1000 -0.1219
    1DPPC   GL2 1000  14.595  22.262   6.937 -0.0340  0.1247 -0.0904
    1DPPC   C1A 1001  14.876  22.078   6.500 -0.0051 -0.3312  0.0018
    1DPPC   C2A 1002  14.894  22.424   6.193 -0.0758 -0.0076 -0.0399
    1DPPC   C3A 1003  14.945  22.519   5.725 -0.0949  0.2433  0.0480
    1DPPC   C4A 1004  15.194  22.791   5.451  0.0499 -0.0049 -0.2003
    1DPPC   C1B 1005  14.573  22.543   6.610 -0.2297 -0.0750 -0.0753
    1DPPC   C2B 1006  14.482  22.748   6.244 -0.1694  0.2460  0.3759
    1DPPC   C3B 1007  14.592  22.835   5.976  0.1383 -0.1299 -0.2964
    1DPPC   C4B 1008  14.727  23.013   5.722 -0.0568 -0.1341 -0.0124
    1DPPC   NC3 1009  15.163   7.218   7.722 -0.0158 -0.0325 -0.0825
    1DPPC   PO4 1010  15.033   7.703   7.553  0.2667  0.0351 -0.0335
    1DPPC   GL1 1011  14.975   7.473   7.209 -0.0325  0.0785  0.0277
    1DPPC   GL2 1012  14.779   7.542   7.005  0.0443  0.2574 -0.0559
    1DPPC   C1A 1013  15.182   7.328   6.796 -0.0470 -0.1341 -0.0251
    1DPPC   C2A 1014  15.138   7.097   6.510 -0.2984 -0.1449 -0.3893
    1DPPC   C3A 1015  14.983   7.275   6.052 -0.0412 -0.1763  0.2072
    1DPPC   C4A 1016  14.717   7.063   5.696  0.0685 -0.2298 -0.0276
    1DPPC   C1B 1017  14.865   7.795   6.708  0.0050 -0.1717 -0.2905
    1DPPC   C2B 1018  14.788   7.813   6.291 -0.1531 -0.1009  0.2897
    1DPPC   C3B 1019  14.512   7.537   6.012 -0.4700  0.0613  0.1570
    1DPPC   C4B 1020  14.215   7.251   6.217  0.1389 -0.2053 -0.2354
    1DPPC   NC3 1021  19.487  10.488   7.260  0.0557  0.0973  0.0771
    1DPPC   PO4 1022  19.507  10.266   6.970 -0.1987 -0.2157 -0.2067
    1DPPC   GL1 1023  19.596  10.229   6.567 -0.2673 -0.0819  0.0450
    1DPPC   GL2 1024  19.891  10.001   6.499 -0.0725 -0.0096 -0.1860
    1DPPC   C1A 1025  19.690  10.240   6.131 -0.0427 -0.0544 -0.0261
    1DPPC   C2A 1026  19.663  10.233   5.740  0.1486  0.1765 -0.0891
    1DPPC   C3A 1027  19.614  10.269   5.304 -0.3074  0.0564  0.1562
    1DPPC   C4A 1028  19.319  10.080   4.958  0.1234  0.1522  0.1305
    1DPPC   C1B 1029  20.075   9.910   6.075 -0.0688  0.1879  0.1765
    1DPPC   C2B 1030  20.049   9.973   5.677 -0.0051  0.2446 -0.1669
    1DPPC   C3B 1031  20.413   9.894   5.495  0.1085 -0.2350 -0.1516
    1DPPC   C4B 1032  20.793   9.884   5.407  0.1034  0.1556  0.1565
    1DPPC   NC3 1033  16.634  16.517   7.497  0.1415 -0.0149  0.1993
    1DPPC   PO4 1034  16.881  16.222   7.304 -0.1945  0.1361 -0.1890
    1DPPC   GL1 1035  16.763  16.608   6.998 -0.1585 -0.0777  0.4462
    1DPPC   GL2 1036  16.474  16.825   6.935  0.2260  0.1582  0.0612
    1DPPC   C1A 1037  16.914  16.899   6.683  0.0211 -0.0251  0.1274
    1DPPC   C2A 1038  17.105  16.859   6.303  0.3112  0.0091  0.0441
    1DPPC   C3A 1039  17.191  16.546   5.969 -0.1372  0.1076  0.0742
    1DPPC   C4A 1040  17.279  16.511   5.559 -0.1354  0.1319  0.1032
    1DPPC   C1B 1041  16.447  17.037   6.569  0.1742 -0.1570 -0.0372
    1DPPC   C2B 1042  16.713  17.184   6.221  0.1581  0.0993 -0.0128
    1DPPC   C3B 1043  16.652  17.167   5.726 -0.0491  0.3147  0.2024
    1DPPC   C4B 1044  16.487  17.039   5.266 -0.0729 -0.1003 -0.0729
    1DPPC   NC3 1045   8.589  13.916   7.178  0.0178 -0.0523 -0.1625
    1DPPC   PO4 1046   8.153  13.980   7.276  0.1738 -0.3610 -0.2656
    1DPPC   GL1 1047   8.188  13.935   6.830 -0.4153  0.0586 -0.1193
    1DPPC   GL2 1048   8.465  13.954   6.622  0.1126  0.1996  0.0997
    1DPPC   C1A 1049   8.000  13.933   6.414 -0.0120 -0.0396  0.0609
    1DPPC   C2A 1050   7.961  13.967   6.042 -0.2187  0.1482 -0.1809
    1DPPC   C3A 1051   8.017  13.959   5.592 -0.0105 -0.1068  0.1960
    1DPPC   C4A 1052   7.935  13.955   5.214  0.0825 -0.3046  0.2896
    1DPPC   C1B 1053   8.509  13.885   6.267 -0.0847 -0.0205  0.0401
    1DPPC   C2B 1054   8.502  13.800   5.884  0.0940  0.0746  0.0590
    1DPPC   C3B 1055   8.429  13.771   5.444  0.0893 -0.1757 -0.0153
    1DPPC   C4B 1056   8.409  13.774   5.007  0.2444  0.3095 -0.0855
    1DPPC   NC3 1057  13.386  10.815   7.889  0.4422 -0.0071 -0.1503
    1DPPC   PO4 1058  13.375  11.104   7.512  0.1595  0.1360  0.2811
    1DPPC   GL1 1059  13.684  11.139   7.271  0.1828 -0.1794  0.0579
    1DPPC   GL2 1060  13.642  11.406   7.089  0.1003  0.1022  0.1235
    1DPPC   C1A 1061  13.742  10.957   6.858 -0.1722 -0.0514 -0.0190
    1DPPC   C2A 1062  13.694  11.028   6.479  0.3917 -0.1522 -0.0693
    1DPPC   C3A 1063  13.615  11.019   6.019  0.4713  0.1239  0.1364
    1DPPC   C4A 1064  13.659  10.756   5.659 -0.1992  0.1279  0.2711
    1DPPC   C1B 1065  13.447  11.395   6.697  0.0227 -0.0485 -0.0034
    1DPPC   C2B 1066  13.470  11.441   6.311 -0.0236  0.0957  0.0258
    1DPPC   C3B 1067  13.338  11.383   5.974 -0.1270 -0.0865 -0.0133
    1DPPC   C4B 1068  13.332  11.171   5.672 -0.1454  0.0180 -0.0847
    1DPPC   NC3 1069  15.374  17.518   7.769  0.2071 -0.1699 -0.0478
    1DPPC   PO4 1070  15.438  16.998   7.669  0.3134  0.0740 -0.1019
    1DPPC   GL1 1071  15.327  16.956   7.254  0.2677 -0.0603  0.2327
    1DPPC   GL2 1072  15.055  16.862   6.961 -0.0394 -0.1832 -0.1437
    1DPPC   C1A 1073  15.498  16.790   6.832 -0.2354  0.2082  0.0333
    1DPPC   C2A 1074  15.546  16.771   6.330 -0.0414 -0.1384  0.1084
    1DPPC   C3A 1075  15.684  16.861   5.969  0.0679 -0.0395  0.1370
    1DPPC   C4A 1076  15.598  16.773   5.468  0.1001 -0.0911  0.0090
    1DPPC   C1B 1077  15.086  16.766   6.534  0.1122  0.2713  0.1747
    1DPPC   C2B 1078  15.096  16.753   6.084 -0.1043  0.0880  0.4529
    1DPPC   C3B 1079  15.194  16.879   5.816  0.0912  0.1520  0.2791
    1DPPC   C4B 1080  15.165  16.990   5.442  0.1640 -0.3730 -0.0112
    1DPPC   NC3 1081  22.659  18.217   6.942  0.0704 -0.1962 -0.1204
    1DPPC   PO4 1082  22.537  17.859   6.582  0.3077  0.0754  0.2402
    1DPPC   GL1 1083  22.639  17.981   6.169  0.1471  0.0745 -0.0749
    1DPPC   GL2 1084  22.333  18.072   6.138  0.2184  0.1386 -0.1856
    1DPPC   C1A 1085  22.875  18.005   5.732  0.2828  0.2711  0.2360
    1DPPC   C2A 1086  22.845  17.951   5.280 -0.2015 -0.0218  0.0305
    1DPPC   C3A 1087  22.892  17.990   4.816 -0.0149 -0.4133  0.2984
    1DPPC   C4A 1088  22.715  17.750   4.542  0.0919  0.2069 -0.1346
    1DPPC   C1B 1089  22.163  18.337   5.850 -0.0328  0.1821  0.0707
    1DPPC   C2B 1090  22.001  18.660   5.612 -0.1270 -0.0510 -0.0627
    1DPPC   C3B 1091  22.170  18.782   5.239  0.0044 -0.0502 -0.2409
    1DPPC   C4B 1092  22.355  19.029   4.994 -0.3501 -0.0894  0.0760
    1DPPC   NC3 1093  19.668  22.711   7.372 -0.0879  0.0339 -0.0160
    1DPPC   PO4 1094  19.718  22.302   7.229 -0.0223  0.2627  0.0917
    1DPPC   GL1 1095  19.686  22.382   6.769 -0.2682  0.0496 -0.2622
    1DPPC   GL2 1096  19.911  22.608   6.784  0.0528 -0.0920  0.0898
    1DPPC   C1A 1097  19.672  22.485   6.334  0.1082 -0.0340 -0.0391
    1DPPC   C2A 1098  19.714  22.819   6.098  0.0949  0.1059  0.0660
    1DPPC   C3A 1099  19.551  23.009   5.779 -0.1066  0.1571 -0.1358
    1DPPC   C4A 1100  19.503  23.294   5.454 -0.0605  0.1570  0.2471
    1DPPC   C1B 1101  19.758  22.937   6.581  0.0040  0.2178 -0.1361
    1DPPC   C2B 1102  19.408  23.229   6.445 -0.2310 -0.3015  0.3435
    1DPPC   C3B 1103  19.238  23.520   6.199  0.1286  0.0877  0.0093
    1DPPC   C4B 1104  18.684  23.664   6.183  0.1874  0.0736 -0.2088
    1DPPC   NC3 1105  18.774  14.409   7.314 -0.1499 -0.1751 -0.1101
    1DPPC   PO4 1106  19.161  14.681   7.216  0.1399  0.2170 -0.0010
    1DPPC   GL1 1107  19.110  14.384   6.902 -0.0373 -0.1619 -0.1610
    1DPPC   GL2 1108  18.810  14.212   6.871 -0.2458  0.1117  0.1662
    1DPPC   C1A 1109  19.205  14.307   6.485 -0.0670 -0.1494  0.0633
    1DPPC   C2A 1110  19.216  14.248   5.982  0.2179 -0.1305  0.2577
    1DPPC   C3A 1111  19.086  14.241   5.594 -0.0585 -0.0157  0.0932
    1DPPC   C4A 1112  18.838  14.091   5.281 -0.0490 -0.0580  0.2181
    1DPPC   C1B 1113  18.832  14.016   6.395 -0.0416  0.1047 -0.1366
    1DPPC   C2B 1114  18.778  13.971   5.997  0.1567  0.2583  0.0439
    1DPPC   C3B 1115  18.760  13.764   5.668 -0.1350  0.0968  0.1815
    1DPPC   C4B 1116  18.721  13.573   5.301  0.3161  0.2963  0.0522
    1DPPC   NC3 1117  28.467  21.439   6.380 -0.1844  0.0475  0.0642
    1DPPC   PO4 1118  28.922  21.487   6.283  0.2193 -0.2975 -0.1241
    1DPPC   GL1 1119  28.719  21.572   5.885 -0.0829 -0.0481 -0.0500
    1DPPC   GL2 1120  28.407  21.338   5.866 -0.1148 -0.1379 -0.0869
    1DPPC   C1A 1121  28.652  21.559   5.444  0.2329 -0.0838 -0.1404
    1DPPC   C2A 1122  28.610  21.810   5.121  0.0639  0.2014  0.0217
    1DPPC   C3A 1123  28.204  21.837   4.825 -0.2489  0.0469 -0.0636
    1DPPC   C4A 1124  27.871  21.608   4.913  0.0403  0.1321  0.1221
    1DPPC   C1B 1125  28.001  21.495   5.823 -0.1539  0.0870 -0.0499
    1DPPC   C2B 1126  27.763  21.530   5.505 -0.3630  0.1308  0.1151
    1DPPC   C3B 1127  27.565  21.242   5.238 -0.1655  0.0799 -0.2979
    1DPPC   C4B 1128  27.577  21.187   4.799 -0.0965  0.3859 -0.2151
    1DPPC   NC3 1129  23.732  16.614   6.275  0.0257  0.2388 -0.0890
    1DPPC   PO4 1130  23.232  16.590   6.272 -0.0564  0.1161  0.2953
    1DPPC   GL1 1131  23.168  16.502   5.918 -0.0631  0.1312  0.2267
    1DPPC   GL2 1132  22.858  16.323   5.894 -0.2186  0.1705 -0.0671
    1DPPC   C1A 1133  23.249  16.565   5.534  0.1349  0.0927 -0.0289
    1DPPC   C2A 1134  23.198  16.334   5.180  0.2995  0.1289 -0.0544
    1DPPC   C3A 1135  23.132  16.335   4.755 -0.0324  0.1455 -0.0559
    1DPPC   C4A 1136  22.855  16.276   4.503  0.2063 -0.0868 -0.1877
    1DPPC   C1B 1137  22.874  16.235   5.572 -0.2151  0.1530  0.1167
    1DPPC   C2B 1138  22.429  16.113   5.443 -0.2266  0.1615 -0.1537
    1DPPC   C3B 1139  22.224  15.924   4.984 -0.1179  0.2457 -0.0614
    1DPPC   C4B 1140  22.118  16.112   4.555 -0.1653  0.1771 -0.2334
    1DPPC   NC3 1141   8.214  14.418   7.066  0.1713 -0.0317  0.1118
    1DPPC   PO4 1142   8.660  14.446   7.140  0.0869 -0.0484 -0.1716
    1DPPC   GL1 1143   8.711  14.343   6.817 -0.1102  0.4545 -0.3072
    1DPPC   GL2 1144   8.944  14.014   6.834  0.3892 -0.0014  0.0310
    1DPPC   C1A 1145   8.825  14.298   6.413 -0.2642  0.0867  0.1432
    1DPPC   C2A 1146   8.918  14.265   5.970 -0.0001  0.0257  0.2940
    1DPPC   C3A 1147   8.814  14.099   5.520  0.1282 -0.0967 -0.2435
    1DPPC   C4A 1148   8.837  13.959   5.204  0.0890  0.3086 -0.0170
    1DPPC   C1B 1149   8.913  13.804   6.483  0.0478 -0.0661 -0.1375
    1DPPC   C2B 1150   8.964  13.764   6.081 -0.0354  0.0011 -0.3784
    1DPPC   C3B 1151   8.963  13.614   5.660 -0.3695  0.0625  0.0450
    1DPPC   C4B 1152   8.823  13.450   5.198 -0.1582  0.0766 -0.0062
    1DPPC   NC3 1153  18.730  10.696   6.844 -0.0159  0.0071 -0.2026
    1DPPC   PO4 1154  18.515  10.318   6.822 -0.3168  0.1460  0.1337
    1DPPC   GL1 1155  18.358  10.312   6.443  0.1584  0.0036 -0.2030
    1DPPC   GL2 1156  17.982  10.239   6.541  0.1661 -0.1180  0.3012
    1DPPC   C1A 1157  18.241  10.549   6.064 -0.0141  0.1226 -0.3645
    1DPPC   C2A 1158  17.994  10.637   5.585 -0.0461  0.3824  0.1729
    1DPPC   C3A 1159  17.885  10.851   5.246 -0.2552  0.1877 -0.0570
    1DPPC   C4A 1160  17.858  10.828   4.857  0.0216 -0.1441  0.3153
    1DPPC   C1B 1161  17.901  10.166   6.149  0.1578  0.1466  0.1524
    1DPPC   C2B 1162  17.839  10.164   5.679 -0.0205  0.3256  0.1430
    1DPPC   C3B 1163  17.771  10.332   5.253  0.0541  0.0687  0.1143
    1DPPC   C4B 1164  17.587  10.391   4.791 -0.0994  0.0928  0.1539
    1DPPC   NC3 1165  12.760  18.685   7.612  0.1339  0.3397 -0.0044
    1DPPC   PO4 1166  12.428  18.917   7.457  0.2863  0.2146  0.2550
    1DPPC   GL1 1167  12.259  18.997   7.017 -0.2520 -0.2800 -0.0763
    1DPPC   GL2 1168  12.385  19.286   7.049 -0.3192 -0.1900  0.2031
    1DPPC   C1A 1169  12.100  18.954   6.602 -0.1720  0.1114  0.3590
    1DPPC   C2A 1170  12.057  18.820   6.152 -0.0018 -0.0492  0.2533
    1DPPC   C3A 1171  11.802  18.869   5.749 -0.2186  0.1786  0.0999
    1DPPC   C4A 1172  11.925  18.928   5.297  0.2430 -0.1080 -0.0977
    1DPPC   C1B 1173  12.702  19.340   6.745 -0.0666 -0.2895  0.4876
    1DPPC   C2B 1174  12.919  19.389   6.350  0.1169 -0.0388 -0.0220
    1DPPC   C3B 1175  13.174  19.194   5.962 -0.0781 -0.0572 -0.1323
    1DPPC   C4B 1176  13.265  19.122   5.650  0.1074  0.1789  0.2299
    1DPPC   NC3 1177  15.596  10.253   8.055 -0.0460 -0.0208  0.3455
    1DPPC   PO4 1178  15.082  10.156   7.936  0.1586 -0.0968 -0.2271
    1DPPC   GL1 1179  14.990  10.366   7.398 -0.2464  0.4512 -0.1294
    1DPPC   GL2 1180  15.128  10.636   7.288  0.0371  0.1175  0.1168
    1DPPC   C1A 1181  14.944  10.263   7.020 -0.1336 -0.1389 -0.2950
    1DPPC   C2A 1182  14.910  10.274   6.583 -0.3392  0.1442 -0.1710
    1DPPC   C3A 1183  14.817   9.989   6.214  0.0542  0.1479  0.3075
    1DPPC   C4A 1184  14.698   9.910   5.792 -0.2717 -0.4168  0.0906
    1DPPC   C1B 1185  15.222  10.678   6.851  0.1516 -0.1688 -0.1732
    1DPPC   C2B 1186  15.193  10.647   6.439  0.1068 -0.0790  0.1149
    1DPPC   C3B 1187  15.074  10.392   6.129  0.0113  0.0951 -0.2907
    1DPPC   C4B 1188  14.984  10.358   5.719  0.0218  0.3183  0.0793
    1DPPC   NC3 1189  17.923   7.197   7.286 -0.0757  0.1396 -0.1132
    1DPPC   PO4 1190  17.899   6.666   7.218 -0.1816 -0.4304 -0.3047
    1DPPC   GL1 1191  17.915   6.528   6.864  0.1692 -0.2782 -0.2286
    1DPPC   GL2 1192  18.285   6.474   6.878  0.4232 -0.2825 -0.2081
    1DPPC   C1A 1193  17.627   6.639   6.542 -0.0781 -0.2904  0.0795
    1DPPC   C2A 1194  17.398   6.830   6.271  0.4357 -0.0312 -0.0034
    1DPPC   C3A 1195  17.218   6.797   5.895  0.0359 -0.4503  0.1482
    1DPPC   C4A 1196  16.990   7.094   5.694  0.1230  0.0213  0.1795
    1DPPC   C1B 1197  18.233   6.695   6.456  0.1201  0.0811  0.1333
    1DPPC   C2B 1198  18.096   6.840   6.102  0.1223 -0.1678 -0.2591
    1DPPC   C3B 1199  18.034   6.680   5.717  0.1711 -0.1822 -0.2294
    1DPPC   C4B 1200  17.959   6.803   5.332 -0.3788 -0.0887 -0.1128
    1DPPC   NC3 1201  19.463  15.577   7.314 -0.1361  0.0507 -0.3611
    1DPPC   PO4 1202  19.593  15.188   7.120 -0.0977 -0.0523 -0.3478
    1DPPC   GL1 1203  19.530  15.034   6.796 -0.1024 -0.0998 -0.2672
    1DPPC   GL2 1204  19.319  14.793   6.754 -0.1248 -0.3798  0.1096
    1DPPC   C1A 1205  19.589  15.204   6.455 -0.1932 -0.4941 -0.1718
    1DPPC   C2A 1206  19.461  15.190   6.035 -0.2281  0.1196  0.0368
    1DPPC   C3A 1207  19.438  15.182   5.546  0.2758  0.1459  0.0709
    1DPPC   C4A 1208  19.284  15.196   5.093 -0.3888  0.0780  0.0585
    1DPPC   C1B 1209  19.340  14.696   6.287 -0.0811  0.0899  0.2361
    1DPPC   C2B 1210  19.296  14.718   5.857  0.0361  0.0312 -0.0650
    1DPPC   C3B 1211  19.247  14.708   5.397 -0.3114 -0.1573  0.3910
    1DPPC   C4B 1212  19.012  14.611   5.099  0.1074  0.0489  0.0984
    1DPPC   NC3 1213   9.496  15.599   7.418  0.1439  0.0115 -0.0715
    1DPPC   PO4 1214   9.465  15.167   7.174  0.3467  0.0082  0.0009
    1DPPC   GL1 1215   9.602  15.036   6.810 -0.3883 -0.1869 -0.4389
    1DPPC   GL2 1216   9.910  14.816   6.901  0.0272  0.2105  0.3445
    1DPPC   C1A 1217   9.733  14.882   6.378  0.4367 -0.0353 -0.1972
    1DPPC   C2A 1218   9.703  14.899   5.936 -0.0111 -0.0957  0.0237
    1DPPC   C3A 1219   9.657  14.833   5.522  0.0965  0.0987  0.2006
    1DPPC   C4A 1220   9.807  14.766   5.111 -0.0256 -0.3795 -0.0287
    1DPPC   C1B 1221  10.238  14.614   6.659 -0.2189 -0.0796 -0.1418
    1DPPC   C2B 1222  10.204  14.582   6.189 -0.0488 -0.2522 -0.0821
    1DPPC   C3B 1223  10.167  14.641   5.698 -0.3060 -0.1474 -0.0603
    1DPPC   C4B 1224  10.275  14.502   5.268  0.0105  0.4367  0.1969
    1DPPC   NC3 1225  15.443  19.851   7.556  0.0152 -0.3713 -0.1062
    1DPPC   PO4 1226  15.404  19.350   7.513  0.3578 -0.1963  0.0155
    1DPPC   GL1 1227  15.416  19.473   7.120 -0.0297  0.1693  0.0989
    1DPPC   GL2 1228  15.717  19.515   7.038 -0.5162 -0.0015  0.1746
    1DPPC   C1A 1229  15.317  19.731   6.786  0.2827  0.1164  0.1497
    1DPPC   C2A 1230  15.095  19.869   6.413 -0.2154 -0.0946  0.0487
    1DPPC   C3A 1231  14.787  19.934   5.988 -0.1292 -0.1026 -0.2077
    1DPPC   C4A 1232  14.772  19.888   5.551  0.0695 -0.1427  0.0136
    1DPPC   C1B 1233  15.719  19.564   6.571 -0.0319  0.1005  0.1600
    1DPPC   C2B 1234  15.679  19.445   6.146 -0.2818 -0.1975  0.2675
    1DPPC   C3B 1235  15.626  19.501   5.761 -0.1198 -0.0183 -0.2582
    1DPPC   C4B 1236  15.385  19.707   5.362 -0.1129 -0.2828 -0.0629
    1DPPC   NC3 1237  20.999  13.937   7.263  0.1032  0.0007  0.2958
    1DPPC   PO4 1238  21.314  14.175   7.167 -0.2079 -0.0789  0.0734
    1DPPC   GL1 1239  21.314  14.213   6.650 -0.3705 -0.2107 -0.3142
    1DPPC   GL2 1240  21.500  14.497   6.559 -0.0979 -0.0305 -0.0337
    1DPPC   C1A 1241  21.207  14.267   6.280  0.0596  0.1592  0.1433
    1DPPC   C2A 1242  21.282  14.210   5.840  0.0751 -0.0830 -0.0604
    1DPPC   C3A 1243  21.332  13.899   5.441  0.1949 -0.0025 -0.0198
    1DPPC   C4A 1244  21.492  13.562   5.290  0.1113 -0.0797  0.4294
    1DPPC   C1B 1245  21.701  14.350   6.108  0.2240  0.2981 -0.3256
    1DPPC   C2B 1246  21.772  14.135   5.685 -0.2524  0.2035  0.0620
    1DPPC   C3B 1247  22.031  13.943   5.220 -0.0169 -0.0883 -0.2024
    1DPPC   C4B 1248  22.036  13.699   4.880 -0.4153 -0.1683 -0.1882
    1DPPC   NC3 1249  11.734  23.556   6.793 -0.0225  0.1406  0.0451
    1DPPC   PO4 1250  11.680  23.731   6.396 -0.1205  0.1640 -0.1184
    1DPPC   GL1 1251  12.019  23.641   6.091 -0.2042  0.0700  0.0373
    1DPPC   GL2 1252  11.741  23.874   5.906  0.2976  0.2541  0.0179
    1DPPC   C1A 1253  12.193  23.536   5.654 -0.0642 -0.3334 -0.2834
    1DPPC   C2A 1254  12.347  23.171   5.465 -0.4013  0.1983  0.0899
    1DPPC   C3A 1255  12.453  22.829   5.253 -0.0497 -0.0912 -0.2147
    1DPPC   C4A 1256  12.619  22.648   4.776 -0.1797 -0.0693 -0.2078
    1DPPC   C1B 1257  11.717  23.521   5.615 -0.2627 -0.1842 -0.1698
    1DPPC   C2B 1258  11.905  23.328   5.243 -0.0115 -0.1000  0.1320
    1DPPC   C3B 1259  11.761  23.281   4.840  0.3722  0.0879 -0.3732
    1DPPC   C4B 1260  11.882  23.198   4.482 -0.2258 -0.4045  0.2344
    1DPPC   NC3 1261   7.873  17.675   6.536  0.0371 -0.1640  0.0316
    1DPPC   PO4 1262   8.271  17.828   6.579 -0.0163  0.0056  0.1180
    1DPPC   GL1 1263   8.281  17.647   6.113 -0.0554 -0.0639  0.1585
    1DPPC   GL2 1264   8.470  17.351   6.080  0.0400  0.3425 -0.2297
    1DPPC   C1A 1265   7.943  17.322   5.999  0.3586  0.2759 -0.1157
    1DPPC   C2A 1266   8.050  17.080   5.568 -0.0566  0.1562 -0.2102
    1DPPC   C3A 1267   8.061  16.619   5.471  0.1289 -0.2590  0.0022
    1DPPC   C4A 1268   8.017  16.310   5.131 -0.0740  0.1527  0.1398
    1DPPC   C1B 1269   8.325  17.440   5.670 -0.1833 -0.0264 -0.0610
    1DPPC   C2B 1270   8.327  17.232   5.196 -0.3242  0.1687  0.0411
    1DPPC   C3B 1271   8.268  17.105   4.726 -0.0290  0.1859 -0.1101
    1DPPC   C4B 1272   8.192  17.039   4.289 -0.0855  0.0506  0.2113
    1DPPC   NC3 1273  16.013  17.290   7.919 -0.1313 -0.2813 -0.2013
    1DPPC   PO4 1274  15.832  17.551   7.573  0.1522  0.1160  0.1858
    1DPPC   GL1 1275  15.857  17.559   7.123  0.0095  0.2683 -0.1846
    1DPPC   GL2 1276  16.092  17.284   6.947 -0.2170 -0.0029  0.0908
    1DPPC   C1A 1277  15.686  17.737   6.718  0.1123 -0.3702  0.0831
    1DPPC   C2A 1278  15.434  17.822   6.385 -0.1862  0.3784 -0.1208
    1DPPC   C3A 1279  15.439  17.879   5.934  0.3381 -0.0536 -0.3087
    1DPPC   C4A 1280  15.328  17.813   5.497  0.0953  0.0520 -0.4286
    1DPPC   C1B 1281  15.957  17.370   6.542 -0.3148  0.1198  0.0695
    1DPPC   C2B 1282  15.733  17.482   6.195  0.0250 -0.2262 -0.0290
    1DPPC   C3B 1283  15.752  17.313   5.724 -0.1379 -0.1007  0.2981
    1DPPC   C4B 1284  15.801  17.727   5.391 -0.0519  0.0461  0.0156
    1DPPC   NC3 1285  18.273  27.786   7.164  0.0983  0.1178  0.1138
    1DPPC   PO4 1286  18.551  27.476   7.124  0.0687  0.3915 -0.3547
    1DPPC   GL1 1287  18.775  27.383   6.689 -0.2725 -0.2463  0.0429
    1DPPC   GL2 1288  18.690  27.561   6.427 -0.4640 -0.1605 -0.0517
    1DPPC   C1A 1289  18.956  27.193   6.348 -0.2709  0.2812  0.0659
    1DPPC   C2A 1290  19.305  27.010   5.971 -0.0163  0.0811 -0.4078
    1DPPC   C3A 1291  19.329  26.761   5.603 -0.5452  0.2452  0.0044
    1DPPC   C4A 1292  19.609  26.424   5.570  0.1638  0.3886  0.1292
    1DPPC   C1B 1293  18.512  27.578   6.101 -0.1716  0.1818 -0.0339
    1DPPC   C2B 1294  18.407  27.691   5.774  0.1277  0.1286 -0.0281
    1DPPC   C3B 1295  18.406  27.900   5.293  0.2800  0.0195 -0.2700
    1DPPC   C4B 1296  18.412  27.896   4.852 -0.4943 -0.1256 -0.0966
    1DPPC   NC3 1297   1.334  12.028   5.946 -0.0850  0.1672  0.0169
    1DPPC   PO4 1298   1.036  11.576   5.964 -0.2887 -0.3201  0.0148
    1DPPC   GL1 1299   0.890  11.658   5.532  0.0852  0.0924  0.0130
    1DPPC   GL2 1300   1.179  11.695   5.486  0.0639  0.2932 -0.0075
    1DPPC   C1A 1301   0.610  11.733   5.120 -0.3537  0.0658 -0.0051
    1DPPC   C2A 1302   0.559  11.672   4.744  0.1103 -0.0546  0.2462
    1DPPC   C3A 1303   0.364  11.871   4.421  0.1158 -0.0275  0.0968
    1DPPC   C4A 1304   0.429  11.924   4.042 -0.0656  0.0643 -0.0129
    1DPPC   C1B 1305   1.091  11.539   5.061  0.1240 -0.0009 -0.0499
    1DPPC   C2B 1306   0.942  11.298   4.780 -0.1808 -0.0483 -0.2199
    1DPPC   C3B 1307   0.711  10.964   4.447 -0.0839 -0.2337 -0.2748
    1DPPC   C4B 1308   0.732  10.754   4.095  0.0164  0.0556 -0.0686
    1DPPC   NC3 1309  14.586  10.180   7.794 -0.2681  0.0429 -0.0525
    1DPPC   PO4 1310  14.970   9.888   7.548 -0.0728 -0.0095  0.0098
    1DPPC   GL1 1311  15.109   9.744   7.113  0.3594  0.0705  0.0307
    1DPPC   GL2 1312  14.878   9.517   7.109 -0.2714 -0.1554 -0.0539
    1DPPC   C1A 1313  14.961   9.775   6.696 -0.0311  0.1263  0.0487
    1DPPC   C2A 1314  14.717   9.550   6.340 -0.1722  0.0870  0.2539
    1DPPC   C3A 1315  14.544   9.456   5.925  0.0848  0.0561  0.1290
    1DPPC   C4A 1316  14.418   9.316   5.472  0.0127 -0.0317 -0.2381
    1DPPC   C1B 1317  14.711   9.219   6.671  0.2114  0.0689 -0.0116
    1DPPC   C2B 1318  14.571   9.061   6.273  0.0653 -0.1215  0.0814
    1DPPC   C3B 1319  14.370   8.793   6.069  0.0792  0.0461 -0.0484
    1DPPC   C4B 1320  14.415   8.815   5.625 -0.1222 -0.0444  0.2144
    1DPPC   NC3 1321  10.165  20.462   7.186 -0.1159 -0.1525  0.0703
    1DPPC   PO4 1322  10.415  20.505   6.727  0.0880  0.1911 -0.3388
    1DPPC   GL1 1323  10.477  20.652   6.293  0.2208  0.1056 -0.0371
    1DPPC   GL2 1324  10.730  20.363   6.262 -0.0030 -0.1388 -0.0625
    1DPPC   C1A 1325  10.499  20.767   6.024  0.1977 -0.1867  0.0250
    1DPPC   C2A 1326  10.570  20.720   5.508  0.0946  0.0299 -0.1410
    1DPPC   C3A 1327  10.589  20.637   5.139  0.1981  0.0290 -0.0255
    1DPPC   C4A 1328  10.526  20.519   4.758 -0.2784  0.0257 -0.0846
    1DPPC   C1B 1329  10.728  20.380   5.896  0.2844 -0.0705  0.0317
    1DPPC   C2B 1330  10.755  20.242   5.516 -0.0074  0.0615  0.2195
    1DPPC   C3B 1331  10.765  19.815   5.285 -0.1066  0.2901  0.2138
    1DPPC   C4B 1332  10.598  19.433   5.236 -0.4812  0.2773  0.3056
    1DPPC   NC3 1333   9.429  18.653   6.932 -0.2459 -0.2984 -0.1715
    1DPPC   PO4 1334   9.856  18.414   6.969 -0.0125  0.2981  0.0012
    1DPPC   GL1 1335   9.979  18.350   6.534  0.2446  0.3823  0.1007
    1DPPC   GL2 1336   9.722  18.551   6.466  0.1534 -0.3550  0.1957
    1DPPC   C1A 1337  10.109  18.232   6.102  0.0587 -0.3017  0.1299
    1DPPC   C2A 1338  10.056  18.269   5.605  0.1241  0.0494 -0.1913
    1DPPC   C3A 1339   9.992  18.370   5.148  0.0897 -0.1266  0.1036
    1DPPC   C4A 1340   9.729  18.529   4.933  0.2542  0.2429 -0.0784
    1DPPC   C1B 1341   9.633  18.259   6.118  0.0493 -0.1384  0.3220
    1DPPC   C2B 1342   9.659  18.152   5.782  0.1433 -0.0282  0.2979
    1DPPC   C3B 1343   9.599  18.191   5.379  0.0065 -0.2881  0.1832
    1DPPC   C4B 1344   9.310  18.284   5.022  0.0677 -0.0855  0.0385
    1DPPC   NC3 1345  21.165  13.314   6.603  0.1998 -0.1631  0.4606
    1DPPC   PO4 1346  20.993  12.949   6.959 -0.0687 -0.0559 -0.0742
    1DPPC   GL1 1347  20.743  13.053   6.595 -0.0191  0.2163  0.3084
    1DPPC   GL2 1348  20.487  12.896   6.682 -0.0771 -0.0431 -0.0796
    1DPPC   C1A 1349  20.768  12.840   6.227  0.2635  0.3413 -0.1523
    1DPPC   C2A 1350  20.862  12.399   6.172 -0.1280 -0.1096 -0.0736
    1DPPC   C3A 1351  20.893  12.179   5.731 -0.3651  0.1359 -0.0167
    1DPPC   C4A 1352  20.879  11.777   5.579 -0.1990  0.1594 -0.1927
    1DPPC   C1B 1353  20.318  13.084   6.337 -0.0570  0.0118  0.3515
    1DPPC   C2B 1354  20.410  12.976   5.931  0.3270  0.2933  0.0140
    1DPPC   C3B 1355  20.770  12.732   5.718 -0.1309 -0.1834 -0.1043
    1DPPC   C4B 1356  21.169  12.802   5.824  0.2285 -0.3998  0.1176
    1DPPC   NC3 1357   9.392  24.056   6.462 -0.1264  0.0205  0.0082
    1DPPC   PO4 1358   9.266  24.277   6.071  0.1694  0.1391 -0.0917
    1DPPC   GL1 1359   9.066  24.443   5.771  0.1031 -0.0392  0.1846
    1DPPC   GL2 1360   8.733  24.339   5.722 -0.1776 -0.0632 -0.5331
    1DPPC   C1A 1361   9.031  24.490   5.338  0.0295 -0.0250 -0.1345
    1DPPC   C2A 1362   9.166  24.720   5.091  0.3534 -0.1893  0.0061
    1DPPC   C3A 1363   8.891  25.000   4.840 -0.0929  0.1924 -0.1821
    1DPPC   C4A 1364   8.658  25.012   4.552 -0.1696  0.0253  0.0890
    1DPPC   C1B 1365   8.511  24.309   5.349 -0.2948  0.0764 -0.0628
    1DPPC   C2B 1366   8.680  24.428   4.922 -0.0030 -0.1048 -0.2869
    1DPPC   C3B 1367   8.944  24.586   4.568 -0.2671 -0.2513 -0.2043
    1DPPC   C4B 1368   9.131  24.586   4.133  0.1742  0.2809 -0.1563
    1DPPC   NC3 1369  16.580  18.848   7.148 -0.0034  0.2453 -0.0905
    1DPPC   PO4 1370  16.350  18.439   7.351 -0.1927 -0.1069  0.0510
    1DPPC   GL1 1371  15.947  18.349   6.992  0.0861  0.2334 -0.3957
    1DPPC   GL2 1372  15.722  18.128   7.052  0.0721 -0.0118 -0.1533
    1DPPC   C1A 1373  16.010  18.519   6.568 -0.1485 -0.0736  0.0701
    1DPPC   C2A 1374  15.989  18.638   6.136 -0.0298 -0.2390 -0.1750
    1DPPC   C3A 1375  15.913  18.676   5.725  0.1528  0.1698  0.0716
    1DPPC   C4A 1376  15.927  18.847   5.315  0.0933 -0.3205  0.1484
    1DPPC   C1B 1377  15.550  18.264   6.646 -0.1180 -0.1266 -0.1310
    1DPPC   C2B 1378  15.622  18.330   6.253  0.1658 -0.1942 -0.0724
    1DPPC   C3B 1379  15.485  18.449   5.910 -0.0932  0.0100  0.1826
    1DPPC   C4B 1380  15.443  18.606   5.456  0.3539  0.0265 -0.1252
    1DPPC   NC3 1381  21.423  15.928   7.161 -0.1236 -0.4896  0.1775
    1DPPC   PO4 1382  21.501  15.866   6.836 -0.0096 -0.0851 -0.2821
    1DPPC   GL1 1383  21.295  15.706   6.491  0.1156  0.5280  0.3307
    1DPPC   GL2 1384  21.055  15.442   6.524 -0.1746 -0.0955 -0.1454
    1DPPC   C1A 1385  21.378  15.718   6.066 -0.0993  0.2520 -0.0579
    1DPPC   C2A 1386  21.369  15.903   5.543 -0.1754 -0.3500 -0.0507
    1DPPC   C3A 1387  21.239  16.245   5.306 -0.2314  0.0136  0.1181
    1DPPC   C4A 1388  21.156  16.668   5.468 -0.1059  0.1334  0.1909
    1DPPC   C1B 1389  20.863  15.627   6.158  0.0463 -0.1718  0.0449
    1DPPC   C2B 1390  20.890  15.794   5.805  0.0866 -0.1090  0.1688
    1DPPC   C3B 1391  20.950  15.742   5.388  0.3301  0.1449  0.0662
    1DPPC   C4B 1392  21.143  15.706   5.030 -0.1872 -0.4343  0.0341
    1DPPC   NC3 1393  14.150  11.664   7.803 -0.0260 -0.0320 -0.0188
    1DPPC   PO4 1394  14.051  11.467   7.429  0.2032 -0.5946 -0.1122
    1DPPC   GL1 1395  14.151  11.457   7.037 -0.5112  0.0845 -0.0370
    1DPPC   GL2 1396  14.513  11.453   6.884 -0.0701  0.4103 -0.2951
    1DPPC   C1A 1397  14.049  11.324   6.611 -0.2061 -0.0763 -0.0682
    1DPPC   C2A 1398  14.037  11.317   6.213 -0.2895  0.0008  0.0155
    1DPPC   C3A 1399  13.859  11.440   5.936  0.2774 -0.2620  0.3066
    1DPPC   C4A 1400  13.727  11.468   5.537 -0.0630 -0.1329 -0.1552
    1DPPC   C1B 1401  14.552  11.238   6.470 -0.0014  0.1042  0.2197
    1DPPC   C2B 1402  14.529  11.166   6.046 -0.0043  0.0036  0.3464
    1DPPC   C3B 1403  14.595  11.232   5.601  0.0555 -0.0362  0.0407
    1DPPC   C4B 1404  14.743  11.285   5.237 -0.1852 -0.2433  0.0972
    1DPPC   NC3 1405  13.756  16.647   7.395 -0.0681 -0.2043 -0.1436
    1DPPC   PO4 1406  13.377  16.871   7.258 -0.0053 -0.0846  0.2188
    1DPPC   GL1 1407  13.523  16.748   6.892 -0.0584  0.2500 -0.0440
    1DPPC   GL2 1408  13.577  16.481   6.921  0.1673 -0.1799 -0.0561
    1DPPC   C1A 1409  13.488  16.843   6.411  0.3347  0.0177  0.0922
    1DPPC   C2A 1410  13.441  16.878   6.018 -0.3804 -0.0860 -0.0216
    1DPPC   C3A 1411  13.466  16.845   5.593  0.0203 -0.0403  0.2395
    1DPPC   C4A 1412  13.753  17.101   5.249  0.2346  0.1907 -0.1293
    1DPPC   C1B 1413  13.493  16.264   6.534  0.3261 -0.1500  0.2103
    1DPPC   C2B 1414  13.528  16.384   6.043  0.0804 -0.0667 -0.3224
    1DPPC   C3B 1415  13.643  16.407   5.742  0.1911  0.0226 -0.0129
    1DPPC   C4B 1416  13.722  16.469   5.291 -0.1012  0.0640 -0.2212
    1DPPC   NC3 1417  15.685  16.083   7.280 -0.0821 -0.3392 -0.0072
    1DPPC   PO4 1418  15.332  15.730   7.359  0.1649 -0.0185 -0.0333
    1DPPC   GL1 1419  15.241  15.884   6.943 -0.0246  0.1571  0.0612
    1DPPC   GL2 1420  15.591  15.947   6.791 -0.0528  0.1479 -0.1395
    1DPPC   C1A 1421  15.231  16.256   6.590 -0.2413  0.1653 -0.2021
    1DPPC   C2A 1422  15.377  16.300   6.106 -0.0444 -0.0128 -0.4208
    1DPPC   C3A 1423  15.385  16.314   5.743  0.1028 -0.1014  0.0771
    1DPPC   C4A 1424  15.467  16.151   5.289 -0.2112  0.3093 -0.1685
    1DPPC   C1B 1425  15.499  15.886   6.379  0.0000 -0.0389  0.4055
    1DPPC   C2B 1426  15.530  15.815   5.905 -0.0193  0.2573 -0.3202
    1DPPC   C3B 1427  15.812  15.661   5.597 -0.2809  0.1637  0.1980
    1DPPC   C4B 1428  15.883  15.830   5.139  0.0521 -0.0643 -0.2765
    1DPPC   NC3 1429  11.125  14.269   7.645  0.1059 -0.1705  0.2761
    1DPPC   PO4 1430  11.325  13.935   7.474 -0.1952  0.4408 -0.0577
    1DPPC   GL1 1431  11.093  13.817   7.123  0.0047 -0.0446 -0.1091
    1DPPC   GL2 1432  10.933  13.551   7.105 -0.3181  0.0025  0.0399
    1DPPC   C1A 1433  11.213  13.802   6.681 -0.1450 -0.1230  0.0882
    1DPPC   C2A 1434  11.179  13.714   6.243 -0.0335 -0.0491 -0.3971
    1DPPC   C3A 1435  11.167  13.713   5.840 -0.1322  0.0667 -0.0213
    1DPPC   C4A 1436  11.146  13.694   5.376 -0.0566  0.3235 -0.2581
    1DPPC   C1B 1437  10.628  13.299   6.903 -0.1786  0.5081 -0.0734
    1DPPC   C2B 1438  10.438  13.189   6.459 -0.1729 -0.0496 -0.1667
    1DPPC   C3B 1439  10.114  12.937   6.259  0.0158  0.0604  0.1002
    1DPPC   C4B 1440  10.278  13.083   5.869 -0.0628  0.1276  0.2346
    1DPPC   NC3 1441  12.328  16.602   7.549  0.3145 -0.0532 -0.1155
    1DPPC   PO4 1442  11.998  16.389   7.291  0.5104  0.2037 -0.1648
    1DPPC   GL1 1443  11.988  16.351   6.916  0.0486 -0.0976 -0.2591
    1DPPC   GL2 1444  12.322  16.459   6.797  0.1156  0.1093  0.0832
    1DPPC   C1A 1445  11.942  16.176   6.517  0.0042 -0.0711 -0.1729
    1DPPC   C2A 1446  11.960  15.958   6.103 -0.1329  0.0204  0.0582
    1DPPC   C3A 1447  11.895  15.895   5.645 -0.0302 -0.0191  0.0121
    1DPPC   C4A 1448  11.833  15.939   5.267 -0.2278 -0.2271  0.0614
    1DPPC   C1B 1449  12.578  16.628   6.446  0.1048  0.1554  0.0556
    1DPPC   C2B 1450  12.629  16.472   6.012 -0.1566  0.3096  0.0282
    1DPPC   C3B 1451  12.605  16.411   5.560  0.0372 -0.1181  0.2481
    1DPPC   C4B 1452  12.800  16.279   5.216  0.2804 -0.2322  0.3099
    1DPPC   NC3 1453  11.359  10.273   7.465 -0.2789 -0.5113  0.1735
    1DPPC   PO4 1454  11.591  10.623   7.688 -0.0231 -0.1508  0.1926
    1DPPC   GL1 1455  11.749  10.527   7.211  0.3728 -0.0999  0.3467
    1DPPC   GL2 1456  11.953  10.236   7.111  0.1244  0.2299  0.2055
    1DPPC   C1A 1457  11.701  10.543   6.767 -0.1189 -0.0165 -0.1758
    1DPPC   C2A 1458  11.595  10.856   6.439 -0.1542 -0.2045 -0.1424
    1DPPC   C3A 1459  11.725  10.976   6.028 -0.1393  0.0670  0.1675
    1DPPC   C4A 1460  11.412  10.866   5.670 -0.2872  0.0187 -0.0842
    1DPPC   C1B 1461  11.673  10.033   6.836  0.0999 -0.1045 -0.0841
    1DPPC   C2B 1462  11.648  10.036   6.457  0.1202  0.3487  0.0217
    1DPPC   C3B 1463  11.901   9.803   6.064  0.0736 -0.2920 -0.1739
    1DPPC   C4B 1464  12.021   9.617   5.723  0.4654  0.1073 -0.2208
    1DPPC   NC3 1465   5.622   2.720   6.961  0.0180  0.0575  0.1509
    1DPPC   PO4 1466   5.827   2.295   6.913  0.1749  0.2490  0.1895
    1DPPC   GL1 1467   5.790   2.396   6.520 -0.2788 -0.1736 -0.3971
    1DPPC   GL2 1468   5.647   2.715   6.428 -0.0747  0.2738  0.1965
    1DPPC   C1A 1469   5.652   2.189   6.225 -0.2509  0.1494 -0.0488
    1DPPC   C2A 1470   5.680   2.168   5.761 -0.0141 -0.2183  0.1848
    1DPPC   C3A 1471   5.739   2.210   5.334 -0.0235  0.1158 -0.2930
    1DPPC   C4A 1472   5.521   2.174   4.837  0.0278 -0.0437 -0.1588
    1DPPC   C1B 1473   5.574   2.755   6.074 -0.2422  0.3441 -0.2428
    1DPPC   C2B 1474   5.570   2.669   5.717  0.1130 -0.1006 -0.2129
    1DPPC   C3B 1475   5.589   2.695   5.329 -0.0051  0.0930  0.1170
    1DPPC   C4B 1476   5.300   2.533   5.063 -0.2094 -0.0958 -0.1462
    1DPPC   NC3 1477  19.600  13.926   7.542  0.0504  0.1748  0.0029
    1DPPC   PO4 1478  19.676  13.619   7.237 -0.1173  0.0024  0.0623
    1DPPC   GL1 1479  19.775  13.336   6.837  0.1114  0.2767 -0.0919
    1DPPC   GL2 1480  20.049  13.340   6.724 -0.4035 -0.0076 -0.0921
    1DPPC   C1A 1481  19.571  13.370   6.405 -0.0612 -0.0675  0.0962
    1DPPC   C2A 1482  19.610  13.434   5.968 -0.0877  0.1401 -0.2130
    1DPPC   C3A 1483  19.772  13.546   5.529  0.0271  0.1004  0.0311
    1DPPC   C4A 1484  19.542  13.305   5.059  0.0664  0.3332 -0.0803
    1DPPC   C1B 1485  20.101  13.473   6.310 -0.0702  0.0316  0.1778
    1DPPC   C2B 1486  20.114  13.470   5.891 -0.0803  0.1366  0.0402
    1DPPC   C3B 1487  20.380  13.651   5.644  0.2295  0.3454  0.1914
    1DPPC   C4B 1488  20.479  13.512   5.257  0.1233  0.2511  0.0206
    1DPPC   NC3 1489  11.102  20.343   7.088  0.1296  0.2375 -0.2187
    1DPPC   PO4 1490  11.452  20.517   6.790 -0.1497  0.0121 -0.0384
    1DPPC   GL1 1491  11.238  20.240   6.509  0.1533  0.1542 -0.1642
    1DPPC   GL2 1492  11.225  20.619   6.318  0.4402 -0.0173 -0.0160
    1DPPC   C1A 1493  11.027  19.915   6.200  0.3378 -0.0128  0.3095
    1DPPC   C2A 1494  11.104  19.948   5.676 -0.1738  0.0129  0.4208
    1DPPC   C3A 1495  11.273  19.885   5.205 -0.2968  0.3542 -0.0709
    1DPPC   C4A 1496  11.281  19.779   4.769  0.3110 -0.1827 -0.0930
    1DPPC   C1B 1497  11.243  20.375   5.942 -0.1199 -0.0011  0.0893
    1DPPC   C2B 1498  11.341  20.318   5.530 -0.2653  0.0846 -0.0279
    1DPPC   C3B 1499  11.593  20.287   5.171  0.1715  0.0248 -0.4541
    1DPPC   C4B 1500  11.765  19.965   4.908 -0.0197 -0.0988  0.2183
    1DPPC   NC3 1501   8.660  10.767   7.643  0.0634 -0.3727 -0.0940
    1DPPC   PO4 1502   8.451  11.156   7.258  0.2267  0.0045 -0.1817
    1DPPC   GL1 1503   8.510  10.912   6.836  0.2153  0.3264  0.0029
    1DPPC   GL2 1504   8.234  10.731   6.684 -0.0160  0.2475 -0.1824
    1DPPC   C1A 1505   8.854  10.766   6.599  0.3487  0.0601  0.2182
    1DPPC   C2A 1506   9.004  10.596   6.240 -0.2252  0.1569 -0.1017
    1DPPC   C3A 1507   9.287  10.652   5.881 -0.1164 -0.1302 -0.2158
    1DPPC   C4A 1508   9.600  10.719   5.457  0.2219 -0.1083 -0.2316
    1DPPC   C1B 1509   8.493  10.820   6.275 -0.0435  0.0951  0.4190
    1DPPC   C2B 1510   8.573  10.546   5.885 -0.2650 -0.0777 -0.0376
    1DPPC   C3B 1511   9.021  10.272   5.716  0.1256  0.2616 -0.0189
    1DPPC   C4B 1512   9.477  10.233   5.621  0.1904  0.2770 -0.1256
    1DPPC   NC3 1513   2.238  15.615   6.578  0.2454 -0.1014 -0.1047
    1DPPC   PO4 1514   2.391  15.851   6.174 -0.2973  0.1295 -0.3014
    1DPPC   GL1 1515   2.514  15.845   5.739  0.1744 -0.1208  0.2604
    1DPPC   GL2 1516   2.946  15.919   5.649  0.2953  0.2988  0.0954
    1DPPC   C1A 1517   2.682  15.481   5.410  0.0695 -0.3270 -0.0102
    1DPPC   C2A 1518   2.645  15.218   5.121  0.1435 -0.2082 -0.0414
    1DPPC   C3A 1519   2.817  14.887   4.954  0.1763  0.2798  0.0848
    1DPPC   C4A 1520   3.111  14.920   4.619 -0.0498  0.0527 -0.0102
    1DPPC   C1B 1521   2.942  15.786   5.142  0.5600  0.2324 -0.4193
    1DPPC   C2B 1522   2.637  15.646   4.873  0.1165 -0.0300  0.0023
    1DPPC   C3B 1523   2.676  15.339   4.498 -0.0977 -0.1721 -0.1903
    1DPPC   C4B 1524   2.595  14.930   4.426 -0.0558 -0.2029 -0.0595
    1DPPC   NC3 1525  17.388   6.922   7.643 -0.2407 -0.1126 -0.1131
    1DPPC   PO4 1526  17.396   7.304   7.351  0.0449 -0.0351  0.0835
    1DPPC   GL1 1527  17.596   7.398   6.903 -0.0208  0.0527 -0.1735
    1DPPC   GL2 1528  17.720   7.083   6.840 -0.2467 -0.0163 -0.0489
    1DPPC   C1A 1529  17.820   7.622   6.566  0.0363 -0.3665  0.2531
    1DPPC   C2A 1530  17.776   7.616   6.183  0.1864  0.0769  0.0569
    1DPPC   C3A 1531  17.853   7.709   5.697 -0.0988  0.0651  0.1086
    1DPPC   C4A 1532  18.226   7.690   5.438  0.0642 -0.0411  0.2685
    1DPPC   C1B 1533  17.810   7.109   6.370  0.2821  0.0717 -0.1585
    1DPPC   C2B 1534  17.677   7.042   5.936 -0.0674  0.3798 -0.0652
    1DPPC   C3B 1535  17.477   6.958   5.465  0.1803 -0.0243  0.0987
    1DPPC   C4B 1536  17.222   6.659   5.450 -0.0916 -0.0236  0.0012
    1DPPC   NC3 1537  16.815  16.727   7.950 -0.1192 -0.2265 -0.3290
    1DPPC   PO4 1538  16.758  17.010   7.427  0.0501  0.1163  0.2141
    1DPPC   GL1 1539  16.792  17.181   7.083  0.1057  0.2437  0.0305
    1DPPC   GL2 1540  16.579  17.414   6.981  0.0234 -0.0818  0.0480
    1DPPC   C1A 1541  16.983  17.404   6.697  0.0878 -0.2536  0.2283
    1DPPC   C2A 1542  17.044  17.796   6.501 -0.0457  0.1138  0.3845
    1DPPC   C3A 1543  16.975  17.917   6.138  0.2858 -0.1687 -0.2707
    1DPPC   C4A 1544  17.067  17.901   5.692 -0.1743 -0.0078 -0.1529
    1DPPC   C1B 1545  16.518  17.547   6.529  0.0518 -0.1335  0.2221
    1DPPC   C2B 1546  16.552  17.682   6.063 -0.2617 -0.0762 -0.1049
    1DPPC   C3B 1547  16.449  18.052   5.801 -0.0842 -0.0678  0.0027
    1DPPC   C4B 1548  16.294  18.306   5.699 -0.0243  0.0949 -0.1035
    1DPPC   NC3 1549  19.535   6.345   7.040  0.0289  0.2172  0.4681
    1DPPC   PO4 1550  19.511   6.042   6.776  0.2061  0.1754  0.0883
    1DPPC   GL1 1551  19.373   6.327   6.488 -0.0497 -0.1016 -0.2440
    1DPPC   GL2 1552  19.095   6.519   6.611  0.1281  0.2182  0.0540
    1DPPC   C1A 1553  19.499   6.432   6.043 -0.0083 -0.2958 -0.1294
    1DPPC   C2A 1554  19.806   6.665   5.807 -0.0599 -0.0562  0.2148
    1DPPC   C3A 1555  19.794   6.820   5.325  0.1647 -0.1114  0.2173
    1DPPC   C4A 1556  19.709   6.466   5.044  0.1664 -0.3538  0.0137
    1DPPC   C1B 1557  19.126   6.714   6.143 -0.1526  0.1294 -0.0220
    1DPPC   C2B 1558  18.826   6.731   5.797 -0.2608  0.1877 -0.1434
    1DPPC   C3B 1559  18.796   6.841   5.322  0.2348  0.2883 -0.1257
    1DPPC   C4B 1560  18.827   7.205   5.002  0.0268  0.2947  0.1288
    1DPPC   NC3 1561  13.548  18.844   7.272 -0.0716 -0.1586 -0.0113
    1DPPC   PO4 1562  13.541  19.241   7.361 -0.1244  0.1381 -0.2819
    1DPPC   GL1 1563  13.739  19.145   6.955 -0.1897 -0.0623  0.1270
    1DPPC   GL2 1564  14.041  19.221   7.127 -0.2092  0.0395 -0.0045
    1DPPC   C1A 1565  13.888  19.188   6.518  0.0615  0.2276 -0.1021
    1DPPC   C2A 1566  13.990  19.162   6.112  0.1660 -0.0588 -0.1913
    1DPPC   C3A 1567  14.133  19.154   5.693  0.1267  0.2200  0.0218
    1DPPC   C4A 1568  14.151  19.025   5.247  0.0454 -0.0076  0.0540
    1DPPC   C1B 1569  14.116  18.810   6.823  0.1395  0.0015 -0.0176
    1DPPC   C2B 1570  14.162  18.660   6.377 -0.0115 -0.0592 -0.2108
    1DPPC   C3B 1571  14.140  18.686   5.952  0.0078 -0.0550  0.0631
    1DPPC   C4B 1572  14.116  18.610   5.542  0.1408  0.3085  0.1985
    1DPPC   NC3 1573  11.521   6.559   7.357  0.0402  0.1389 -0.1604
    1DPPC   PO4 1574  11.609   6.959   7.262  0.2426 -0.1014  0.2387
    1DPPC   GL1 1575  11.565   7.135   6.836  0.1744  0.1820 -0.1975
    1DPPC   GL2 1576  11.489   7.497   6.797  0.1110  0.1522 -0.0376
    1DPPC   C1A 1577  11.392   7.193   6.405  0.2036  0.0013 -0.0248
    1DPPC   C2A 1578  11.274   7.162   5.926 -0.2355  0.2089 -0.0637
    1DPPC   C3A 1579  11.286   6.961   5.594 -0.3400 -0.1416 -0.1314
    1DPPC   C4A 1580  11.325   6.827   5.297 -0.0387  0.1389  0.0038
    1DPPC   C1B 1581  11.322   7.670   6.442 -0.0993  0.2796  0.0530
    1DPPC   C2B 1582  11.449   7.742   6.118 -0.0155 -0.0713  0.5214
    1DPPC   C3B 1583  11.234   7.620   5.767 -0.1110  0.0683  0.0217
    1DPPC   C4B 1584  11.029   7.325   5.392 -0.4808 -0.1686  0.2532
    1DPPC   NC3 1585   9.069  14.916   7.014  0.0775  0.1340  0.0206
    1DPPC   PO4 1586   8.578  14.939   6.926 -0.5873 -0.4554  0.1473
    1DPPC   GL1 1587   8.558  14.781   6.605  0.0580  0.1072 -0.4493
    1DPPC   GL2 1588   8.422  15.032   6.282 -0.2853  0.0040 -0.0622
    1DPPC   C1A 1589   8.845  14.772   6.226  0.2139 -0.1654  0.0781
    1DPPC   C2A 1590   8.870  14.785   5.781 -0.1688  0.1569 -0.1013
    1DPPC   C3A 1591   8.788  14.602   5.405 -0.0766 -0.2055 -0.0908
    1DPPC   C4A 1592   8.795  14.411   4.986  0.0620  0.2319  0.3749
    1DPPC   C1B 1593   8.437  14.925   5.876  0.0881 -0.1949  0.1222
    1DPPC   C2B 1594   8.313  14.822   5.446 -0.1019 -0.3215 -0.0862
    1DPPC   C3B 1595   8.153  14.808   5.007 -0.1133 -0.0061  0.0111
    1DPPC   C4B 1596   7.972  14.839   4.620 -0.3845  0.2383  0.1331
    1DPPC   NC3 1597  17.048  12.860   7.210 -0.2779 -0.0684 -0.1562
    1DPPC   PO4 1598  16.685  12.944   7.348 -0.0186  0.0596 -0.2667
    1DPPC   GL1 1599  16.727  12.905   6.874  0.1574 -0.0596  0.2807
    1DPPC   GL2 1600  16.491  12.667   6.709  0.0610 -0.0629  0.0128
    1DPPC   C1A 1601  16.772  13.015   6.526 -0.2209  0.1365 -0.0937
    1DPPC   C2A 1602  16.656  13.224   6.330 -0.0638  0.2166 -0.0871
    1DPPC   C3A 1603  16.625  13.201   5.926 -0.0407 -0.0850  0.0494
    1DPPC   C4A 1604  16.525  13.286   5.512 -0.1790  0.2247 -0.1041
    1DPPC   C1B 1605  16.399  12.364   6.420  0.2139 -0.0844 -0.1226
    1DPPC   C2B 1606  16.621  12.307   5.964 -0.0535  0.0516 -0.0268
    1DPPC   C3B 1607  16.474  12.227   5.537 -0.1199  0.2359 -0.0527
    1DPPC   C4B 1608  16.200  12.277   5.164 -0.0526  0.1570  0.3576
    1DPPC   NC3 1609   8.911  16.936   6.683 -0.1235 -0.0178  0.1888
    1DPPC   PO4 1610   8.642  17.331   6.555 -0.1823 -0.2926  0.1430
    1DPPC   GL1 1611   8.979  17.137   6.199  0.1099 -0.2307 -0.2181
    1DPPC   GL2 1612   9.385  17.206   6.245 -0.1459 -0.1041 -0.2310
    1DPPC   C1A 1613   8.916  17.095   5.740 -0.0219 -0.1370 -0.0104
    1DPPC   C2A 1614   8.802  17.108   5.246 -0.0342  0.1970 -0.0547
    1DPPC   C3A 1615   8.812  17.015   4.827  0.2022 -0.0617  0.0767
    1DPPC   C4A 1616   8.525  16.733   4.565 -0.1787  0.1628 -0.0556
    1DPPC   C1B 1617   9.417  17.260   5.859  0.0551  0.1380 -0.3966
    1DPPC   C2B 1618   9.240  17.301   5.478 -0.2267  0.0275 -0.1638
    1DPPC   C3B 1619   9.033  17.591   5.269 -0.0027  0.2953  0.0181
    1DPPC   C4B 1620   8.761  17.519   4.875 -0.0431 -0.5673  0.0504
    1DPPC   NC3 1621   8.535  20.184   6.361 -0.0315  0.1067  0.0527
    1DPPC   PO4 1622   8.151  19.901   6.578 -0.0161  0.4034 -0.0521
    1DPPC   GL1 1623   8.269  19.784   6.151 -0.3365  0.1638  0.1353
    1DPPC   GL2 1624   8.218  19.380   6.036  0.2469  0.1130 -0.0370
    1DPPC   C1A 1625   8.162  19.920   5.815  0.0453 -0.1157 -0.0200
    1DPPC   C2A 1626   8.211  19.918   5.415  0.2004 -0.3538 -0.3110
    1DPPC   C3A 1627   8.058  20.083   5.052 -0.0149  0.2629  0.0926
    1DPPC   C4A 1628   8.011  20.359   4.779 -0.0191  0.1489 -0.0304
    1DPPC   C1B 1629   8.198  19.455   5.570 -0.1515  0.3591  0.0920
    1DPPC   C2B 1630   8.319  19.572   5.090 -0.0198 -0.0002  0.2575
    1DPPC   C3B 1631   8.514  19.832   4.761 -0.3262 -0.0714 -0.0997
    1DPPC   C4B 1632   8.797  19.903   4.524  0.0239 -0.0310 -0.1133
    1DPPC   NC3 1633  17.774  20.664   7.514  0.0422 -0.1611  0.1221
    1DPPC   PO4 1634  17.704  20.925   7.128 -0.0856 -0.0985  0.1861
    1DPPC   GL1 1635  17.998  20.691   6.898 -0.2772  0.3595  0.2540
    1DPPC   GL2 1636  18.110  20.937   6.731  0.2416  0.3120  0.0680
    1DPPC   C1A 1637  17.964  20.493   6.426  0.2233  0.0598 -0.0957
    1DPPC   C2A 1638  17.993  20.530   6.123 -0.1109 -0.0614 -0.0069
    1DPPC   C3A 1639  17.960  20.555   5.609 -0.2348  0.2657  0.1586
    1DPPC   C4A 1640  18.000  20.769   5.234 -0.1562  0.0547  0.0610
    1DPPC   C1B 1641  17.969  20.954   6.334  0.2182  0.0006 -0.1075
    1DPPC   C2B 1642  17.844  20.969   5.908 -0.1930  0.1288  0.0677
    1DPPC   C3B 1643  17.866  21.173   5.553  0.1031 -0.1304  0.0260
    1DPPC   C4B 1644  17.578  21.386   5.265 -0.0700 -0.2354 -0.0486
    1DPPC   NC3 1645  18.329  13.722   7.627 -0.3639 -0.0069 -0.1038
    1DPPC   PO4 1646  18.240  13.544   7.149 -0.0630 -0.0001  0.1173
    1DPPC   GL1 1647  18.408  13.231   6.873 -0.0946 -0.2707  0.2510
    1DPPC   GL2 1648  18.189  13.189   6.723 -0.0190  0.0219  0.2069
    1DPPC   C1A 1649  18.559  13.101   6.371  0.0976  0.0169  0.2356
    1DPPC   C2A 1650  18.763  13.172   6.004 -0.2452 -0.1168 -0.0446
    1DPPC   C3A 1651  18.790  13.192   5.670 -0.0529  0.0307  0.0060
    1DPPC   C4A 1652  18.939  12.974   5.339  0.1287  0.3612  0.2782
    1DPPC   C1B 1653  17.954  13.422   6.362 -0.1642 -0.0627  0.0579
    1DPPC   C2B 1654  17.808  13.473   6.048  0.0843  0.1157  0.1364
    1DPPC   C3B 1655  17.823  13.585   5.666 -0.1614 -0.2494  0.1434
    1DPPC   C4B 1656  17.810  13.598   5.144 -0.0973 -0.2496  0.2055
    1DPPC   NC3 1657  17.999   9.908   7.566  0.3343 -0.1349  0.1723
    1DPPC   PO4 1658  17.867   9.703   7.136  0.0423  0.0216  0.4562
    1DPPC   GL1 1659  17.798   9.667   6.760 -0.0593 -0.0473  0.4227
    1DPPC   GL2 1660  17.719   9.418   6.719 -0.2908 -0.0535 -0.0643
    1DPPC   C1A 1661  18.081   9.753   6.438  0.1783 -0.0682  0.2230
    1DPPC   C2A 1662  18.015   9.693   6.041  0.0076  0.3886  0.2286
    1DPPC   C3A 1663  18.064   9.687   5.662 -0.1567 -0.0386 -0.1384
    1DPPC   C4A 1664  17.731   9.830   5.331  0.2411  0.0452 -0.2260
    1DPPC   C1B 1665  17.727   9.327   6.256 -0.2362 -0.2465  0.2749
    1DPPC   C2B 1666  17.736   9.289   5.864  0.0604 -0.1302 -0.1733
    1DPPC   C3B 1667  17.789   9.321   5.372 -0.3631 -0.0388 -0.0301
    1DPPC   C4B 1668  17.942   9.397   5.037  0.1710  0.0794  0.0977
    1DPPC   NC3 1669   7.872  12.490   7.143  0.1064  0.0433  0.4045
    1DPPC   PO4 1670   7.608  12.227   6.984 -0.3228 -0.3274 -0.0143
    1DPPC   GL1 1671   8.050  12.221   6.816  0.0418  0.1379  0.0624
    1DPPC   GL2 1672   8.319  11.965   6.914  0.0353 -0.1584  0.3234
    1DPPC   C1A 1673   8.205  12.212   6.449 -0.1127 -0.1451 -0.1485
    1DPPC   C2A 1674   8.233  12.206   6.011 -0.0414 -0.0232  0.1111
    1DPPC   C3A 1675   8.277  12.427   5.552  0.0225 -0.2483  0.0652
    1DPPC   C4A 1676   8.637  12.523   5.164 -0.1832  0.2963 -0.2525
    1DPPC   C1B 1677   8.558  11.798   6.516  0.0677  0.0279 -0.1004
    1DPPC   C2B 1678   8.587  11.832   6.076 -0.0791  0.0136 -0.4102
    1DPPC   C3B 1679   8.465  11.930   5.684  0.0116  0.2930 -0.1557
    1DPPC   C4B 1680   8.398  12.078   5.229 -0.0449 -0.2180  0.2003
    1DPPC   NC3 1681  10.689  17.440   7.090 -0.2241  0.1341  0.2423
    1DPPC   PO4 1682  10.244  17.592   6.947 -0.1165  0.2959 -0.0327
    1DPPC   GL1 1683  10.484  17.876   6.658 -0.2200 -0.1469 -0.2271
    1DPPC   GL2 1684  10.453  18.150   6.736 -0.2716  0.3755 -0.0366
    1DPPC   C1A 1685  10.565  18.044   6.285 -0.2315  0.1863  0.0353
    1DPPC   C2A 1686  10.463  18.030   5.841 -0.0888 -0.2080  0.2122
    1DPPC   C3A 1687  10.440  18.023   5.355 -0.0427  0.0666 -0.1064
    1DPPC   C4A 1688  10.284  17.995   4.878 -0.1669  0.1844 -0.1337
    1DPPC   C1B 1689  10.439  18.522   6.424  0.2628  0.1458 -0.2606
    1DPPC   C2B 1690  10.436  18.545   5.890  0.0463 -0.1538 -0.0638
    1DPPC   C3B 1691  10.463  18.536   5.468 -0.1423 -0.0730  0.2027
    1DPPC   C4B 1692  10.558  18.447   5.021  0.0421 -0.0025 -0.0046
    1DPPC   NC3 1693  15.003  11.980   7.689 -0.2903  0.1982 -0.0572
    1DPPC   PO4 1694  14.872  12.028   7.291  0.3001 -0.3195 -0.1071
    1DPPC   GL1 1695  14.633  12.265   6.962  0.2750 -0.1161 -0.0455
    1DPPC   GL2 1696  14.703  12.614   6.940 -0.1780  0.2898 -0.0663
    1DPPC   C1A 1697  14.568  12.152   6.575  0.1716  0.1490  0.2277
    1DPPC   C2A 1698  14.501  12.201   6.172  0.1458  0.0391 -0.1891
    1DPPC   C3A 1699  14.296  12.172   5.754 -0.1440  0.0735  0.0364
    1DPPC   C4A 1700  14.304  12.092   5.381 -0.2332 -0.4354 -0.0472
    1DPPC   C1B 1701  14.878  12.562   6.635  0.1471  0.0282 -0.0662
    1DPPC   C2B 1702  14.982  12.377   6.261 -0.1107 -0.2996 -0.1105
    1DPPC   C3B 1703  14.898  12.306   5.872 -0.0318  0.2430  0.2438
    1DPPC   C4B 1704  14.766  12.379   5.425 -0.0455 -0.0401 -0.1351
    1DPPC   NC3 1705  19.084  25.925   6.740 -0.1409  0.1723 -0.0341
    1DPPC   PO4 1706  18.896  26.233   6.494 -0.2873 -0.1282  0.1185
    1DPPC   GL1 1707  18.517  26.125   6.276  0.1565 -0.2458  0.0616
    1DPPC   GL2 1708  18.788  26.165   6.012 -0.1515 -0.0016  0.1229
    1DPPC   C1A 1709  18.237  26.004   5.953  0.1220  0.1858 -0.1159
    1DPPC   C2A 1710  17.936  25.766   5.727 -0.1152  0.0139  0.0146
    1DPPC   C3A 1711  18.051  25.366   5.519  0.1681  0.0258  0.1606
    1DPPC   C4A 1712  17.816  25.127   5.173 -0.0102  0.4091 -0.1535
    1DPPC   C1B 1713  18.664  26.322   5.604 -0.0645 -0.2097  0.0901
    1DPPC   C2B 1714  18.627  26.216   5.171 -0.1058 -0.0813  0.0447
    1DPPC   C3B 1715  18.224  26.217   4.972  0.0210 -0.0274 -0.3386
    1DPPC   C4B 1716  18.051  26.542   4.770  0.1992  0.0077 -0.1822
    1DPPC   NC3 1717   3.622  16.856   5.894 -0.1606  0.2149 -0.5253
    1DPPC   PO4 1718   3.419  17.294   5.958  0.0394  0.3502  0.1047
    1DPPC   GL1 1719   3.554  17.450   5.584 -0.3283 -0.1500  0.0640
    1DPPC   GL2 1720   3.921  17.582   5.457 -0.0053  0.1266 -0.1331
    1DPPC   C1A 1721   3.394  17.561   5.148 -0.0030 -0.1143  0.1166
    1DPPC   C2A 1722   3.213  17.537   4.743 -0.0142 -0.0472 -0.1696
    1DPPC   C3A 1723   2.945  17.523   4.453 -0.2381 -0.0461 -0.1456
    1DPPC   C4A 1724   2.659  17.865   4.216 -0.0507  0.2483 -0.1270
    1DPPC   C1B 1725   4.357  17.405   5.226 -0.0163 -0.1299  0.2216
    1DPPC   C2B 1726   4.795  17.308   5.048  0.0182  0.0342 -0.1454
    1DPPC   C3B 1727   5.148  17.196   4.873  0.0844  0.1562 -0.3788
    1DPPC   C4B 1728   5.582  17.398   4.875 -0.2538  0.1950 -0.2270
    1DPPC   NC3 1729  20.793  18.831   7.153 -0.2532  0.0896 -0.1477
    1DPPC   PO4 1730  20.445  18.530   7.131 -0.1623  0.3179  0.1385
    1DPPC   GL1 1731  20.187  18.442   6.756  0.4624 -0.1953  0.1024
    1DPPC   GL2 1732  20.220  18.429   6.452  0.1385 -0.1489  0.2366
    1DPPC   C1A 1733  19.766  18.621   6.493 -0.1680 -0.1477 -0.0632
    1DPPC   C2A 1734  19.608  18.559   6.046 -0.3691  0.3163  0.1688
    1DPPC   C3A 1735  19.441  18.496   5.625 -0.2925  0.0348 -0.3004
    1DPPC   C4A 1736  19.330  18.116   5.451  0.3787  0.3077  0.0934
    1DPPC   C1B 1737  20.161  18.457   6.006  0.1884  0.2901  0.1624
    1DPPC   C2B 1738  20.410  18.387   5.655 -0.1437 -0.3509  0.0212
    1DPPC   C3B 1739  20.834  18.457   5.336  0.2901  0.0224  0.0656
    1DPPC   C4B 1740  21.080  18.141   5.258  0.1067  0.1277 -0.1674
    1DPPC   NC3 1741  12.033  16.848   7.005 -0.3143  0.0657 -0.1160
    1DPPC   PO4 1742  11.587  16.877   7.174 -0.1528 -0.0412  0.1079
    1DPPC   GL1 1743  11.645  17.062   6.752  0.4813  0.1755  0.3436
    1DPPC   GL2 1744  11.314  17.006   6.751  0.1697 -0.0648  0.2124
    1DPPC   C1A 1745  11.799  17.125   6.297 -0.1134 -0.5704 -0.0131
    1DPPC   C2A 1746  11.897  17.058   6.022  0.1814 -0.1582 -0.0434
    1DPPC   C3A 1747  11.853  16.933   5.589 -0.2701 -0.1507  0.3969
    1DPPC   C4A 1748  11.729  16.897   5.197  0.0165  0.0820  0.0561
    1DPPC   C1B 1749  11.224  16.915   6.358 -0.1141  0.2704  0.1206
    1DPPC   C2B 1750  11.264  17.027   5.971  0.3146 -0.0934  0.1249
    1DPPC   C3B 1751  11.272  16.915   5.524  0.2209 -0.0357 -0.3306
    1DPPC   C4B 1752  11.156  16.894   5.147  0.3847  0.0959  0.1652
    1DPPC   NC3 1753  15.369  21.232   7.481  0.0697  0.1148 -0.2579
    1DPPC   PO4 1754  15.705  21.387   7.403 -0.1733 -0.0081 -0.2208
    1DPPC   GL1 1755  15.644  21.386   7.029  0.2174 -0.3102 -0.0559
    1DPPC   GL2 1756  15.631  21.023   7.031 -0.0011  0.0964  0.3990
    1DPPC   C1A 1757  15.859  21.287   6.647  0.3014  0.0234 -0.0988
    1DPPC   C2A 1758  15.749  21.067   6.317 -0.3725  0.0545 -0.2179
    1DPPC   C3A 1759  15.769  20.985   5.922 -0.0564 -0.4052  0.1091
    1DPPC   C4A 1760  15.849  20.653   5.504  0.2785 -0.0656 -0.3301
    1DPPC   C1B 1761  15.535  20.762   6.669 -0.0514  0.1374 -0.0930
    1DPPC   C2B 1762  15.490  20.653   6.233  0.1699  0.0080 -0.0423
    1DPPC   C3B 1763  15.283  20.793   5.970 -0.1196 -0.1756  0.2388
    1DPPC   C4B 1764  15.308  20.811   5.572  0.0043 -0.0644 -0.5643
    1DPPC   NC3 1765  11.859  12.715   7.406 -0.0660 -0.1843  0.0028
    1DPPC   PO4 1766  11.839  13.200   7.462  0.2214  0.1224  0.0006
    1DPPC   GL1 1767  11.826  13.155   7.077 -0.0609 -0.2649  0.2003
    1DPPC   GL2 1768  12.083  13.368   6.932 -0.1926  0.1546  0.0679
    1DPPC   C1A 1769  11.756  12.910   6.751 -0.2320 -0.1890  0.0448
    1DPPC   C2A 1770  11.775  12.918   6.335  0.1309  0.0525 -0.1652
    1DPPC   C3A 1771  11.633  12.812   5.967 -0.0010 -0.0230  0.1683
    1DPPC   C4A 1772  11.688  12.955   5.562 -0.1380  0.2087 -0.0406
    1DPPC   C1B 1773  12.199  13.091   6.690  0.0510  0.2061 -0.1088
    1DPPC   C2B 1774  12.218  13.165   6.268  0.0675 -0.2697 -0.1081
    1DPPC   C3B 1775  12.234  13.175   5.901 -0.2876 -0.0516 -0.3618
    1DPPC   C4B 1776  12.178  12.948   5.450 -0.0692  0.1336  0.1649
    1DPPC   NC3 1777  19.272  13.368   7.042 -0.5135  0.4608  0.1397
    1DPPC   PO4 1778  19.133  13.873   7.017  0.0182  0.0356  0.4207
    1DPPC   GL1 1779  19.357  13.786   6.688 -0.2595 -0.0165  0.2526
    1DPPC   GL2 1780  19.710  13.779   6.609  0.3121 -0.0690 -0.1993
    1DPPC   C1A 1781  19.373  13.902   6.276  0.1547  0.1838 -0.0262
    1DPPC   C2A 1782  19.485  13.873   5.827 -0.1843  0.2148  0.1440
    1DPPC   C3A 1783  19.475  13.885   5.387  0.0926  0.0735  0.0283
    1DPPC   C4A 1784  19.316  14.203   5.176  0.2109  0.1827 -0.1695
    1DPPC   C1B 1785  19.862  13.874   6.201  0.1336 -0.1169 -0.0664
    1DPPC   C2B 1786  20.003  14.009   5.763 -0.2990 -0.1129  0.0702
    1DPPC   C3B 1787  20.056  13.891   5.355 -0.4082  0.0898  0.1310
    1DPPC   C4B 1788  19.877  13.685   5.045 -0.0570 -0.0503 -0.3109
    1DPPC   NC3 1789  22.478  13.958   6.486 -0.1871  0.1838 -0.0459
    1DPPC   PO4 1790  22.436  13.485   6.650 -0.1535 -0.1742  0.4653
    1DPPC   GL1 1791  22.280  13.531   6.331  0.0599  0.1301 -0.1477
    1DPPC   GL2 1792  22.069  13.699   6.409 -0.0610 -0.0304  0.0917
    1DPPC   C1A 1793  21.945  13.368   6.039  0.2551  0.0838 -0.2388
    1DPPC   C2A 1794  21.684  13.175   5.765  0.1850  0.3073 -0.1399
    1DPPC   C3A 1795  21.472  12.933   5.443 -0.0554 -0.1228 -0.0323
    1DPPC   C4A 1796  21.089  12.967   5.375 -0.2670  0.1150  0.1044
    1DPPC   C1B 1797  22.114  13.882   5.979  0.4882 -0.4140  0.1038
    1DPPC   C2B 1798  22.346  13.880   5.691 -0.0216 -0.1814  0.1136
    1DPPC   C3B 1799  22.608  14.092   5.312  0.0003  0.2619  0.0999
    1DPPC   C4B 1800  22.726  14.113   4.870  0.1085  0.0124  0.0055
    1DPPC   NC3 1801   9.428  12.608   7.432  0.0170 -0.1391  0.0912
    1DPPC   PO4 1802   8.880  12.516   7.500 -0.1820 -0.0261  0.1866
    1DPPC   GL1 1803   8.743  12.528   7.083  0.0225  0.1388  0.2094
    1DPPC   GL2 1804   8.433  12.506   7.134 -0.1376  0.1543 -0.0018
    1DPPC   C1A 1805   8.696  12.224   6.770 -0.0984  0.1900  0.3961
    1DPPC   C2A 1806   8.730  12.260   6.342 -0.2397 -0.1197  0.1990
    1DPPC   C3A 1807   8.750  12.297   5.850  0.0338  0.3868 -0.0410
    1DPPC   C4A 1808   8.977  12.215   5.421 -0.1843 -0.0961  0.2153
    1DPPC   C1B 1809   8.369  12.614   6.766 -0.0297 -0.2788 -0.0711
    1DPPC   C2B 1810   8.411  12.708   6.326  0.2818 -0.2916 -0.0563
    1DPPC   C3B 1811   8.491  12.711   5.958  0.0823  0.1148  0.0857
    1DPPC   C4B 1812   8.677  12.798   5.589 -0.0115  0.0003  0.1449
    1DPPC   NC3 1813  22.536  15.531   6.733  0.2376 -0.0855  0.0540
    1DPPC   PO4 1814  22.910  15.318   6.818  0.0385  0.0647  0.2179
    1DPPC   GL1 1815  22.886  15.424   6.336  0.0473 -0.1031  0.2870
    1DPPC   GL2 1816  22.868  15.609   6.192 -0.1402  0.0964  0.2174
    1DPPC   C1A 1817  22.661  15.116   6.095 -0.2603  0.0426 -0.0026
    1DPPC   C2A 1818  22.896  14.758   5.885  0.2322 -0.0337 -0.0835
    1DPPC   C3A 1819  22.963  14.365   5.805 -0.1815 -0.0339 -0.1855
    1DPPC   C4A 1820  23.096  14.232   5.347 -0.1268 -0.1837  0.0575
    1DPPC   C1B 1821  22.921  15.661   5.768  0.0981  0.1260 -0.0144
    1DPPC   C2B 1822  22.790  15.591   5.353  0.0555  0.1807  0.0024
    1DPPC   C3B 1823  22.716  15.847   5.037  0.0672 -0.1210 -0.0366
    1DPPC   C4B 1824  22.655  15.791   4.630 -0.2121  0.2016 -0.2848
    1DPPC   NC3 1825  16.174  22.103   7.619  0.1584 -0.1486  0.1692
    1DPPC   PO4 1826  16.028  22.653   7.622 -0.1710  0.0484  0.1879
    1DPPC   GL1 1827  16.082  22.470   7.215 -0.0233  0.1340  0.2073
    1DPPC   GL2 1828  15.926  22.679   7.000  0.0938 -0.2573  0.2322
    1DPPC   C1A 1829  16.163  22.138   6.995 -0.0689  0.2032  0.0866
    1DPPC   C2A 1830  16.294  22.036   6.586 -0.0864  0.0678  0.1898
    1DPPC   C3A 1831  16.214  22.113   6.180  0.0270 -0.1823  0.1942
    1DPPC   C4A 1832  16.440  22.201   5.730  0.0857 -0.2806  0.0010
    1DPPC   C1B 1833  16.001  22.453   6.575 -0.0081 -0.0821 -0.0509
    1DPPC   C2B 1834  16.061  22.599   6.143  0.1311  0.2227  0.2281
    1DPPC   C3B 1835  16.157  22.736   5.703 -0.0844  0.1487 -0.0616
    1DPPC   C4B 1836  16.114  22.523   5.331 -0.0670 -0.0558 -0.0202
    1DPPC   NC3 1837   7.130  13.652   6.974 -0.0351  0.0615  0.0870
    1DPPC   PO4 1838   7.456  13.422   7.013  0.0708  0.0090 -0.2805
    1DPPC   GL1 1839   7.653  13.296   6.643  0.1312 -0.0814 -0.2987
    1DPPC   GL2 1840   7.918  13.457   6.755  0.2202 -0.2049 -0.0751
    1DPPC   C1A 1841   7.598  13.170   6.227 -0.1694 -0.0804 -0.1990
    1DPPC   C2A 1842   7.604  13.229   5.807  0.0194  0.0349  0.2958
    1DPPC   C3A 1843   7.665  13.002   5.475  0.1281 -0.1723 -0.0852
    1DPPC   C4A 1844   7.627  13.159   5.081 -0.0578 -0.1714  0.0286
    1DPPC   C1B 1845   7.975  13.472   6.311 -0.2629 -0.0993  0.3422
    1DPPC   C2B 1846   8.110  13.447   5.854  0.3491  0.0427 -0.3745
    1DPPC   C3B 1847   8.009  13.496   5.407  0.1473  0.0100 -0.0518
    1DPPC   C4B 1848   8.122  13.387   5.050  0.1004 -0.1788 -0.3347
    1DPPC   NC3 1849  10.814   9.765   7.342  0.0819  0.1815 -0.1148
    1DPPC   PO4 1850  10.387   9.818   7.336 -0.2335 -0.0412 -0.0705
    1DPPC   GL1 1851  10.629  10.035   6.922  0.1520 -0.0659 -0.0080
    1DPPC   GL2 1852  10.917   9.824   6.836 -0.0513 -0.2524 -0.1804
    1DPPC   C1A 1853  10.559  10.069   6.521 -0.0930  0.0673  0.2076
    1DPPC   C2A 1854  10.555   9.815   6.109 -0.0849 -0.5057 -0.3027
    1DPPC   C3A 1855  10.337   9.669   5.939 -0.2345  0.1975 -0.0267
    1DPPC   C4A 1856  10.238   9.248   5.796 -0.0511  0.1388 -0.3831
    1DPPC   C1B 1857  10.964   9.626   6.392 -0.0799 -0.1697  0.1540
    1DPPC   C2B 1858  11.090   9.684   5.986 -0.0388 -0.3980  0.2519
    1DPPC   C3B 1859  11.405   9.960   5.900 -0.0230  0.0849  0.1707
    1DPPC   C4B 1860  11.514  10.431   6.107  0.1449 -0.3010 -0.0897
    1DPPC   NC3 1861   2.614  12.293   6.358 -0.3500  0.0734  0.0742
    1DPPC   PO4 1862   2.140  12.291   6.211 -0.2928 -0.0388  0.2131
    1DPPC   GL1 1863   2.232  12.460   5.727 -0.0869  0.2327 -0.0280
    1DPPC   GL2 1864   2.390  12.281   5.559 -0.3985 -0.1041 -0.0875
    1DPPC   C1A 1865   2.136  12.728   5.499  0.0750  0.0843  0.0604
    1DPPC   C2A 1866   2.160  13.135   5.279 -0.1365  0.0943  0.2500
    1DPPC   C3A 1867   2.187  13.525   5.151 -0.0611 -0.2503  0.0198
    1DPPC   C4A 1868   2.135  13.772   4.923 -0.1740  0.2895  0.1304
    1DPPC   C1B 1869   2.333  12.159   5.091  0.0055 -0.0461  0.0441
    1DPPC   C2B 1870   2.275  12.315   4.622 -0.4434  0.0406 -0.1060
    1DPPC   C3B 1871   2.023  12.203   4.196  0.2768 -0.1650 -0.1063
    1DPPC   C4B 1872   1.788  12.401   3.946  0.3879  0.0353  0.2102
    1DPPC   NC3 1873  15.418  18.410   7.784 -0.0343  0.3623  0.1489
    1DPPC   PO4 1874  15.307  18.489   7.236 -0.0390  0.0854  0.0165
    1DPPC   GL1 1875  15.554  18.729   6.991  0.0825 -0.0539 -0.1645
    1DPPC   GL2 1876  15.590  18.980   7.169 -0.1624 -0.0980 -0.0117
    1DPPC   C1A 1877  15.572  18.815   6.532  0.2126  0.0594  0.1421
    1DPPC   C2A 1878  15.576  18.941   6.191 -0.1435 -0.0515 -0.0237
    1DPPC   C3A 1879  15.531  19.014   5.820 -0.2033  0.1509  0.2533
    1DPPC   C4A 1880  15.577  19.211   5.410  0.1466  0.2685  0.1564
    1DPPC   C1B 1881  15.897  19.094   6.771  0.0023  0.0546 -0.0104
    1DPPC   C2B 1882  15.975  19.119   6.369 -0.1448 -0.0745 -0.3404
    1DPPC   C3B 1883  16.013  19.117   5.957  0.0890  0.1739  0.0902
    1DPPC   C4B 1884  16.115  19.265   5.482 -0.0437  0.1974 -0.2446
    1DPPC   NC3 1885   9.898  18.867   6.951 -0.0017  0.0640  0.0304
    1DPPC   PO4 1886   9.561  19.083   6.656 -0.1765  0.1107 -0.1934
    1DPPC   GL1 1887   9.493  19.097   6.233  0.0676 -0.1813  0.2983
    1DPPC   GL2 1888   9.173  19.235   6.162  0.1062  0.0760  0.0308
    1DPPC   C1A 1889   9.574  19.178   5.809  0.1269  0.1562 -0.0694
    1DPPC   C2A 1890   9.697  19.216   5.404 -0.3323  0.0736  0.2909
    1DPPC   C3A 1891  10.088  19.396   5.175 -0.0624  0.2214  0.1616
    1DPPC   C4A 1892  10.287  19.359   4.822 -0.1017  0.3819 -0.3365
    1DPPC   C1B 1893   9.082  19.253   5.692  0.0163 -0.1485 -0.1057
    1DPPC   C2B 1894   9.226  19.361   5.349 -0.0070 -0.1198  0.3208
    1DPPC   C3B 1895   9.437  19.699   5.096 -0.2651 -0.0118 -0.0403
    1DPPC   C4B 1896   9.827  19.852   4.885  0.2010 -0.1922  0.1721
    1DPPC   NC3 1897   8.660  19.702   6.538 -0.0329  0.3261  0.0373
    1DPPC   PO4 1898   8.636  19.214   6.372  0.0173  0.0751  0.3790
    1DPPC   GL1 1899   8.772  18.970   6.026  0.0148 -0.2625 -0.2265
    1DPPC   GL2 1900   8.586  19.192   5.763 -0.1633  0.0794 -0.0065
    1DPPC   C1A 1901   8.862  18.753   5.638 -0.2140 -0.0839  0.0833
    1DPPC   C2A 1902   8.937  18.943   5.212  0.0006  0.1795 -0.1592
    1DPPC   C3A 1903   8.729  18.893   4.826  0.0133  0.2107 -0.2517
    1DPPC   C4A 1904   8.905  18.885   4.410 -0.0530 -0.2155  0.0152
    1DPPC   C1B 1905   8.648  19.306   5.386 -0.1449  0.0841 -0.1120
    1DPPC   C2B 1906   8.814  19.406   4.966 -0.1478  0.0718  0.2059
    1DPPC   C3B 1907   9.122  19.266   4.732 -0.0863  0.0898 -0.1244
    1DPPC   C4B 1908   9.445  19.137   4.447  0.2359 -0.2076 -0.0923
    1DPPC   NC3 1909  17.145   8.173   7.878  0.1989 -0.1368 -0.2494
    1DPPC   PO4 1910  16.843   8.035   7.456 -0.2148 -0.0681 -0.0644
    1DPPC   GL1 1911  16.637   7.905   7.086 -0.2787  0.0618  0.0435
    1DPPC   GL2 1912  16.313   7.990   7.050  0.2070 -0.4337  0.4377
    1DPPC   C1A 1913  16.801   7.820   6.784  0.1720 -0.1993  0.0368
    1DPPC   C2A 1914  16.697   7.639   6.503 -0.2363  0.0306 -0.0011
    1DPPC   C3A 1915  16.761   7.328   6.261 -0.1199  0.0767 -0.0382
    1DPPC   C4A 1916  16.759   6.936   6.173  0.1706  0.0305  0.1749
    1DPPC   C1B 1917  16.405   8.024   6.595 -0.0533  0.0488 -0.1896
    1DPPC   C2B 1918  16.551   8.259   6.206 -0.0434 -0.0849 -0.1540
    1DPPC   C3B 1919  16.519   8.544   5.845  0.1011 -0.2560 -0.1457
    1DPPC   C4B 1920  16.336   8.975   5.561 -0.0016  0.0883 -0.1185
    1DPPC   NC3 1921   4.281   8.094   6.454  0.4295  0.0438 -0.1696
    1DPPC   PO4 1922   4.717   8.125   6.365  0.6177 -0.0004  0.0712
    1DPPC   GL1 1923   4.752   8.505   6.098  0.2422  0.0963 -0.1718
    1DPPC   GL2 1924   4.392   8.542   6.059  0.1052  0.1943 -0.2674
    1DPPC   C1A 1925   4.824   8.746   5.746 -0.1760  0.0156 -0.1245
    1DPPC   C2A 1926   4.482   8.896   5.460 -0.0932 -0.1936  0.3181
    1DPPC   C3A 1927   4.017   9.120   5.403  0.0260 -0.0136  0.1717
    1DPPC   C4A 1928   4.016   9.632   5.448 -0.0088 -0.2121 -0.1147
    1DPPC   C1B 1929   4.357   8.481   5.663  0.1133  0.0561 -0.0893
    1DPPC   C2B 1930   4.007   8.613   5.255 -0.2176 -0.0624 -0.1306
    1DPPC   C3B 1931   3.789   8.478   4.923  0.0239  0.2051 -0.1184
    1DPPC   C4B 1932   3.580   8.228   4.715 -0.1951  0.1210  0.1408
    1DPPC   NC3 1933  16.987  15.006   7.305 -0.0986 -0.0482 -0.1916
    1DPPC   PO4 1934  17.498  14.807   7.344  0.0780  0.2949 -0.0871
    1DPPC   GL1 1935  17.538  14.928   6.886  0.0997 -0.0281  0.3250
    1DPPC   GL2 1936  17.343  15.099   6.893  0.0309 -0.1373 -0.1230
    1DPPC   C1A 1937  17.490  14.658   6.528  0.0702  0.2275 -0.1068
    1DPPC   C2A 1938  17.723  14.633   6.338  0.2500  0.1469  0.0929
    1DPPC   C3A 1939  17.658  14.637   5.920 -0.0378 -0.0543  0.2388
    1DPPC   C4A 1940  17.529  14.560   5.516 -0.1877  0.1194 -0.1232
    1DPPC   C1B 1941  17.436  15.151   6.452  0.1654  0.0039  0.1392
    1DPPC   C2B 1942  17.403  15.036   6.164  0.1196 -0.1221 -0.2483
    1DPPC   C3B 1943  17.254  14.940   5.754  0.1259  0.3781 -0.3362
    1DPPC   C4B 1944  17.190  14.921   5.299 -0.0031 -0.3447 -0.2161
    1DPPC   NC3 1945  26.011  22.778   6.513  0.1858  0.0966  0.0362
    1DPPC   PO4 1946  25.625  22.628   6.600  0.3220  0.2106 -0.0032
    1DPPC   GL1 1947  25.791  22.489   6.131 -0.2053  0.0990  0.1456
    1DPPC   GL2 1948  25.533  22.365   5.957 -0.3778 -0.0154 -0.0006
    1DPPC   C1A 1949  25.857  22.646   5.660  0.0403  0.3135 -0.1970
    1DPPC   C2A 1950  25.755  22.687   5.308  0.1348  0.0627  0.1075
    1DPPC   C3A 1951  25.614  22.777   4.756  0.0907 -0.1389  0.1443
    1DPPC   C4A 1952  25.489  22.590   4.326 -0.0763  0.1374 -0.1407
    1DPPC   C1B 1953  25.352  22.353   5.526  0.0003  0.0885  0.1598
    1DPPC   C2B 1954  25.402  22.411   5.037  0.1423  0.1435  0.3868
    1DPPC   C3B 1955  25.287  22.211   4.630 -0.0820 -0.3293 -0.0899
    1DPPC   C4B 1956  25.200  21.974   4.327 -0.2629  0.2455 -0.2120
    1DPPC   NC3 1957  20.165  11.936   7.124 -0.0100  0.1302  0.1716
    1DPPC   PO4 1958  19.943  11.599   7.006 -0.0703  0.0715 -0.0156
    1DPPC   GL1 1959  19.896  11.567   6.675  0.4373  0.1091  0.0908
    1DPPC   GL2 1960  19.464  11.590   6.560  0.4020 -0.2565  0.0228
    1DPPC   C1A 1961  19.936  11.611   6.229  0.1884 -0.2748 -0.0344
    1DPPC   C2A 1962  19.756  11.740   5.772 -0.1617  0.0231 -0.2264
    1DPPC   C3A 1963  19.677  11.420   5.393 -0.2420  0.1940  0.1210
    1DPPC   C4A 1964  19.523  11.148   5.145 -0.0103 -0.0844  0.3893
    1DPPC   C1B 1965  19.536  11.315   6.197  0.0143 -0.0727  0.1158
    1DPPC   C2B 1966  19.504  11.120   5.734 -0.2778  0.0715 -0.0149
    1DPPC   C3B 1967  19.750  10.840   5.483  0.2298 -0.1866  0.0360
    1DPPC   C4B 1968  19.907  10.770   5.106  0.3387 -0.1840 -0.1661
    1DPPC   NC3 1969  12.232  19.370   7.522  0.0061 -0.1542 -0.0687
    1DPPC   PO4 1970  12.050  19.692   7.383  0.0929 -0.2655  0.0299
    1DPPC   GL1 1971  11.965  19.544   7.045  0.0266 -0.3132 -0.1879
    1DPPC   GL2 1972  11.827  19.236   6.985 -0.0870  0.1119  0.0456
    1DPPC   C1A 1973  12.103  19.483   6.609  0.0877 -0.2176 -0.1902
    1DPPC   C2A 1974  12.402  19.392   6.296 -0.0625  0.0321  0.2541
    1DPPC   C3A 1975  12.653  19.417   5.892 -0.0887 -0.1112 -0.1183
    1DPPC   C4A 1976  12.930  19.457   5.577 -0.3753 -0.4968  0.1868
    1DPPC   C1B 1977  11.671  19.151   6.586  0.0877 -0.0320  0.1914
    1DPPC   C2B 1978  11.812  19.212   6.204  0.0153  0.1745  0.3316
    1DPPC   C3B 1979  12.153  19.238   5.901  0.4025  0.3214  0.3218
    1DPPC   C4B 1980  12.253  19.273   5.498  0.0906 -0.0585 -0.0365
    1DPPC   NC3 1981  14.534  19.554   7.596 -0.2495  0.1822  0.0817
    1DPPC   PO4 1982  14.365  19.212   7.606 -0.1240 -0.1965  0.0116
    1DPPC   GL1 1983  14.604  19.265   7.214 -0.0634  0.0252 -0.0309
    1DPPC   GL2 1984  14.470  19.496   7.039  0.1820  0.1509 -0.0683
    1DPPC   C1A 1985  14.845  19.404   6.727  0.1258 -0.2361 -0.4904
    1DPPC   C2A 1986  14.810  19.447   6.308  0.1853  0.0023 -0.0354
    1DPPC   C3A 1987  14.724  19.484   5.914  0.3022  0.4288 -0.1087
    1DPPC   C4A 1988  14.565  19.398   5.444  0.1810  0.3046  0.1116
    1DPPC   C1B 1989  14.327  19.381   6.687  0.0206  0.0678  0.3167
    1DPPC   C2B 1990  14.319  19.487   6.227 -0.1766  0.2597  0.1409
    1DPPC   C3B 1991  14.253  19.675   5.855 -0.0258  0.1519  0.1286
    1DPPC   C4B 1992  14.009  19.576   5.418 -0.1129  0.0828 -0.0134
    1DPPC   NC3 1993  19.194   8.992   6.710 -0.3535  0.0167  0.0586
    1DPPC   PO4 1994  19.175   9.459   6.828  0.6582 -0.3041 -0.0162
    1DPPC   GL1 1995  18.970   9.486   6.473  0.1979  0.1145  0.1807
    1DPPC   GL2 1996  18.967   9.209   6.256  0.3150 -0.0802  0.1530
    1DPPC   C1A 1997  19.036   9.608   5.995  0.0905  0.1049 -0.2647
    1DPPC   C2A 1998  19.121   9.432   5.572  0.2655 -0.3686  0.0189
    1DPPC   C3A 1999  19.113   9.660   5.230 -0.3213  0.1115  0.0814
    1DPPC   C4A 2000  19.016   9.659   4.818  0.2818  0.1168 -0.0894
    1DPPC   C1B 2001  18.808   9.071   5.819 -0.1453 -0.2868 -0.0721
    1DPPC   C2B 2002  18.772   9.085   5.397  0.1818 -0.1494  0.1756
    1DPPC   C3B 2003  19.011   9.160   5.118 -0.0019 -0.1074 -0.1981
    1DPPC   C4B 2004  19.319   9.211   4.896 -0.1667  0.1751  0.0723
    1DPPC   NC3 2005   6.916  12.802   7.153  0.2395 -0.1304  0.2902
    1DPPC   PO4 2006   6.855  13.238   6.935 -0.1983  0.0386 -0.4013
    1DPPC   GL1 2007   6.827  12.945   6.574  0.0549  0.1552  0.1828
    1DPPC   GL2 2008   7.032  12.695   6.496 -0.2110  0.2149  0.0523
    1DPPC   C1A 2009   6.825  12.836   6.025 -0.2373 -0.3507  0.0099
    1DPPC   C2A 2010   6.809  12.678   5.635  0.1203 -0.1552  0.1028
    1DPPC   C3A 2011   6.722  12.865   5.263 -0.2340 -0.0226  0.2084
    1DPPC   C4A 2012   6.483  13.063   4.879  0.0452  0.1103 -0.0117
    1DPPC   C1B 2013   7.296  12.827   6.156  0.2546  0.2383 -0.4010
    1DPPC   C2B 2014   7.305  12.783   5.729  0.0201 -0.2140 -0.1300
    1DPPC   C3B 2015   7.221  12.686   5.283  0.1781 -0.0202 -0.1293
    1DPPC   C4B 2016   7.209  12.458   4.930  0.0795  0.0802  0.0340
    1DPPC   NC3 2017  18.511  22.212   7.355 -0.1360  0.0218  0.0527
    1DPPC   PO4 2018  18.694  22.136   6.950 -0.3148  0.0449 -0.2976
    1DPPC   GL1 2019  18.751  21.971   6.479 -0.0516  0.2481  0.0833
    1DPPC   GL2 2020  18.676  21.557   6.409  0.1397  0.1166 -0.0669
    1DPPC   C1A 2021  18.817  21.902   6.087 -0.0906  0.0046 -0.2458
    1DPPC   C2A 2022  18.803  21.869   5.634  0.0022  0.1490 -0.1025
    1DPPC   C3A 2023  19.012  21.700   5.320  0.3680  0.0891 -0.0594
    1DPPC   C4A 2024  19.118  21.677   4.987 -0.0280 -0.0597 -0.0383
    1DPPC   C1B 2025  18.778  21.447   6.029  0.0033  0.2333  0.2698
    1DPPC   C2B 2026  18.701  21.362   5.584  0.2023 -0.1669 -0.0808
    1DPPC   C3B 2027  18.545  21.419   5.246 -0.0053 -0.1875  0.0151
    1DPPC   C4B 2028  18.383  21.716   4.889 -0.0773 -0.1463  0.0351
    1DPPC   NC3 2029   9.709  16.491   6.749 -0.1090  0.0621 -0.1676
    1DPPC   PO4 2030  10.162  16.496   6.962  0.1572  0.0580  0.0795
    1DPPC   GL1 2031  10.159  16.765   6.576 -0.2152 -0.0477  0.3166
    1DPPC   GL2 2032   9.862  16.813   6.430  0.0738  0.1118 -0.0740
    1DPPC   C1A 2033  10.183  16.894   6.114 -0.1664  0.1955 -0.3581
    1DPPC   C2A 2034  10.252  16.832   5.716 -0.1383 -0.1549 -0.0203
    1DPPC   C3A 2035  10.079  16.699   5.272  0.3148 -0.1970 -0.1071
    1DPPC   C4A 2036   9.981  16.572   4.888 -0.1429  0.0108 -0.0809
    1DPPC   C1B 2037   9.677  16.816   6.041  0.0734 -0.3294  0.1103
    1DPPC   C2B 2038   9.689  16.767   5.676  0.0034 -0.0741 -0.0833
    1DPPC   C3B 2039   9.673  16.435   5.277  0.2396  0.1034  0.0305
    1DPPC   C4B 2040   9.603  16.314   4.862  0.4068  0.0420  0.2279
    1DPPC   NC3 2041  16.501  12.379   7.473  0.2305  0.1042 -0.0041
    1DPPC   PO4 2042  16.707  12.370   7.109  0.0191 -0.1268 -0.2915
    1DPPC   GL1 2043  16.775  12.117   6.761 -0.2466  0.1431  0.0594
    1DPPC   GL2 2044  16.524  11.908   6.674 -0.0236  0.0108  0.0245
    1DPPC   C1A 2045  16.907  11.982   6.267 -0.0830 -0.1382  0.1088
    1DPPC   C2A 2046  16.882  11.980   5.753 -0.0172  0.0880 -0.0881
    1DPPC   C3A 2047  16.911  12.068   5.396 -0.0652  0.0306 -0.0836
    1DPPC   C4A 2048  17.109  12.115   5.006  0.0691 -0.1214 -0.0599
    1DPPC   C1B 2049  16.402  11.904   6.176 -0.0047 -0.0178 -0.1010
    1DPPC   C2B 2050  16.375  11.707   5.764 -0.2053 -0.0743  0.0207
    1DPPC   C3B 2051  16.573  11.735   5.449 -0.2395 -0.1882  0.3096
    1DPPC   C4B 2052  16.565  11.881   5.059  0.1460 -0.1519 -0.0392
    1DPPC   NC3 2053  18.483  16.118   7.991  0.2872 -0.0049  0.1148
    1DPPC   PO4 2054  18.492  16.272   7.485 -0.4072  0.1183  0.0968
    1DPPC   GL1 2055  18.416  16.443   7.097 -0.1688  0.1632  0.0579
    1DPPC   GL2 2056  18.099  16.524   6.974 -0.1047 -0.2859  0.0954
    1DPPC   C1A 2057  18.695  16.398   6.652 -0.1437  0.0305  0.0501
    1DPPC   C2A 2058  18.699  16.373   6.193  0.1190  0.1354 -0.1101
    1DPPC   C3A 2059  18.652  16.451   5.728 -0.1345  0.1836 -0.0521
    1DPPC   C4A 2060  18.860  16.440   5.338 -0.1695  0.0189 -0.2854
    1DPPC   C1B 2061  18.222  16.537   6.511  0.0356 -0.2232 -0.2147
    1DPPC   C2B 2062  18.191  16.365   6.130 -0.0772  0.2422 -0.0113
    1DPPC   C3B 2063  18.111  16.352   5.704  0.2056 -0.0975 -0.1235
    1DPPC   C4B 2064  18.363  16.448   5.274 -0.0405 -0.1895  0.4237
    1DPPC   NC3 2065  16.424   8.344   7.391 -0.0575  0.0938 -0.0879
    1DPPC   PO4 2066  16.016   8.155   7.441 -0.3794  0.1133  0.2641
    1DPPC   GL1 2067  15.828   8.115   7.090 -0.0774  0.3103  0.1452
    1DPPC   GL2 2068  15.520   8.011   7.201 -0.2215 -0.3323  0.0020
    1DPPC   C1A 2069  15.930   7.963   6.662 -0.0035 -0.3040 -0.0805
    1DPPC   C2A 2070  15.832   7.795   6.289 -0.1926 -0.0765 -0.0723
    1DPPC   C3A 2071  15.883   7.839   5.825  0.0738  0.0597 -0.1513
    1DPPC   C4A 2072  16.069   7.946   5.465 -0.1754 -0.1479  0.0611
    1DPPC   C1B 2073  15.334   7.760   6.876  0.3157 -0.1578 -0.0430
    1DPPC   C2B 2074  15.291   7.803   6.480  0.3309 -0.0431  0.1395
    1DPPC   C3B 2075  15.313   7.685   6.093  0.0009  0.1144 -0.0521
    1DPPC   C4B 2076  15.431   7.398   5.796 -0.0524  0.1097 -0.0261
    1DPPC   NC3 2077  19.666  11.314   7.377 -0.1253  0.0786  0.0944
    1DPPC   PO4 2078  19.475  11.033   7.112 -0.1279  0.2439  0.1982
    1DPPC   GL1 2079  19.644  11.141   6.656 -0.2068  0.3020 -0.0068
    1DPPC   GL2 2080  19.608  10.803   6.448  0.0159 -0.0178 -0.1316
    1DPPC   C1A 2081  19.947  11.118   6.335 -0.1099  0.0526 -0.1243
    1DPPC   C2A 2082  20.085  11.210   5.910 -0.0689  0.0408  0.2189
    1DPPC   C3A 2083  20.298  10.925   5.578  0.0236  0.0600  0.1520
    1DPPC   C4A 2084  20.522  10.826   5.186 -0.1950 -0.2076 -0.1674
    1DPPC   C1B 2085  19.670  10.832   6.067  0.0347  0.2848  0.2331
    1DPPC   C2B 2086  19.966  10.720   5.909  0.1185  0.0093 -0.0440
    1DPPC   C3B 2087  20.121  10.461   5.743 -0.1445 -0.2134 -0.0220
    1DPPC   C4B 2088  20.090  10.453   5.412 -0.1090 -0.3129 -0.0988
    1DPPC   NC3 2089  16.735   7.523   7.495 -0.0412 -0.3259 -0.2077
    1DPPC   PO4 2090  16.268   7.532   7.301  0.1541 -0.0132  0.4174
    1DPPC   GL1 2091  16.335   7.430   6.897 -0.0354  0.0885 -0.0222
    1DPPC   GL2 2092  16.622   7.336   7.035  0.1844  0.0727  0.2404
    1DPPC   C1A 2093  16.214   7.502   6.518  0.1069  0.1274 -0.1846
    1DPPC   C2A 2094  16.346   7.768   6.157  0.1561  0.0949 -0.0182
    1DPPC   C3A 2095  16.445   7.958   5.807  0.2355  0.0865 -0.0088
    1DPPC   C4A 2096  16.597   8.195   5.467 -0.0057 -0.3092 -0.0232
    1DPPC   C1B 2097  16.651   7.077   6.666  0.3072 -0.0509 -0.0782
    1DPPC   C2B 2098  16.499   6.637   6.507 -0.1292 -0.0441 -0.2843
    1DPPC   C3B 2099  16.360   6.576   6.078  0.4154  0.0459 -0.4625
    1DPPC   C4B 2100  16.257   6.263   5.817  0.3118 -0.0375 -0.0491
    1DPPC   NC3 2101  19.903   9.278   6.964  0.1606  0.1066  0.1324
    1DPPC   PO4 2102  19.620   9.226   6.681 -0.2537 -0.0217  0.1829
    1DPPC   GL1 2103  19.504   9.396   6.311  0.3755  0.3158 -0.3314
    1DPPC   GL2 2104  19.474   9.729   6.316  0.0420 -0.1186 -0.1841
    1DPPC   C1A 2105  19.428   9.138   5.932  0.2766 -0.1419  0.1228
    1DPPC   C2A 2106  19.570   9.203   5.538 -0.1233 -0.1174 -0.3651
    1DPPC   C3A 2107  19.567   8.902   5.311  0.0250  0.0003  0.1063
    1DPPC   C4A 2108  19.567   8.531   5.149 -0.0998  0.0144 -0.0664
    1DPPC   C1B 2109  19.537   9.646   5.910 -0.2263 -0.1084  0.3183
    1DPPC   C2B 2110  19.555   9.757   5.591  0.1766 -0.1674  0.0077
    1DPPC   C3B 2111  19.572   9.573   5.180 -0.1915 -0.1566  0.0889
    1DPPC   C4B 2112  19.832   9.288   4.950 -0.2551  0.0530 -0.1021
    1DPPC   NC3 2113  22.700  26.780   6.529  0.2303 -0.4578  0.5092
    1DPPC   PO4 2114  22.290  26.739   6.628  0.1463  0.0305 -0.0660
    1DPPC   GL1 2115  22.218  26.710   6.247 -0.1947  0.1078  0.0476
    1DPPC   GL2 2116  21.930  26.661   6.090 -0.0045 -0.1299  0.0012
    1DPPC   C1A 2117  22.427  26.620   5.955  0.0167 -0.2036 -0.1860
    1DPPC   C2A 2118  22.644  26.348   5.747  0.3180 -0.0174 -0.0550
    1DPPC   C3A 2119  22.878  26.037   5.737  0.1110  0.4947 -0.1029
    1DPPC   C4A 2120  23.049  25.661   5.485 -0.1589 -0.1701 -0.1110
    1DPPC   C1B 2121  22.016  26.776   5.692 -0.0972 -0.4061 -0.0169
    1DPPC   C2B 2122  22.098  26.986   5.300 -0.3587  0.3048 -0.0565
    1DPPC   C3B 2123  22.330  27.086   4.985  0.0414  0.0044 -0.0144
    1DPPC   C4B 2124  22.541  27.413   4.907 -0.1801  0.1724 -0.0249
    1DPPC   NC3 2125  17.530  15.245   7.442 -0.1635  0.1525 -0.0347
    1DPPC   PO4 2126  17.654  15.535   7.113  0.2022  0.0375  0.2535
    1DPPC   GL1 2127  17.614  15.552   6.708  0.0961 -0.0633  0.0531
    1DPPC   GL2 2128  17.253  15.564   6.693 -0.1642 -0.0057  0.0399
    1DPPC   C1A 2129  17.601  15.599   6.351  0.1422 -0.0316 -0.3623
    1DPPC   C2A 2130  17.669  15.492   6.006  0.1582  0.0128 -0.1305
    1DPPC   C3A 2131  17.502  15.386   5.546  0.0349 -0.3484 -0.1425
    1DPPC   C4A 2132  17.373  15.474   5.173  0.0832 -0.0746  0.0646
    1DPPC   C1B 2133  17.149  15.562   6.323 -0.0339 -0.0110 -0.2209
    1DPPC   C2B 2134  17.125  15.479   5.851 -0.1708  0.1548  0.4559
    1DPPC   C3B 2135  17.039  15.390   5.473 -0.1600  0.0942 -0.2721
    1DPPC   C4B 2136  16.857  15.205   5.084  0.0991 -0.3866 -0.1022
    1DPPC   NC3 2137  13.598  21.868   7.659  0.0083 -0.0188  0.0319
    1DPPC   PO4 2138  13.846  21.602   7.411  0.2063 -0.0541 -0.2564
    1DPPC   GL1 2139  13.947  21.528   7.015 -0.0711  0.4103 -0.1981
    1DPPC   GL2 2140  14.146  21.269   6.928 -0.3936 -0.0629  0.2336
    1DPPC   C1A 2141  13.953  21.605   6.521  0.0186  0.0206  0.0923
    1DPPC   C2A 2142  13.987  21.471   6.153  0.1789  0.0789  0.2175
    1DPPC   C3A 2143  13.905  21.592   5.739  0.0926  0.4167  0.0998
    1DPPC   C4A 2144  14.146  21.882   5.482  0.1933 -0.1257 -0.0707
    1DPPC   C1B 2145  14.370  21.387   6.539  0.1831  0.2729 -0.0822
    1DPPC   C2B 2146  14.500  21.488   6.101 -0.0755  0.4909  0.1916
    1DPPC   C3B 2147  14.579  21.606   5.655 -0.0769  0.1309 -0.2666
    1DPPC   C4B 2148  14.368  21.388   5.368 -0.0361 -0.1846  0.1890
    1DPPC   NC3 2149  12.694  12.414   7.352  0.1346 -0.2394  0.0721
    1DPPC   PO4 2150  12.180  12.309   7.271  0.1577 -0.0977 -0.1442
    1DPPC   GL1 2151  12.339  12.429   6.931 -0.4087 -0.0181 -0.5013
    1DPPC   GL2 2152  12.155  12.722   6.968 -0.1750 -0.0670 -0.0630
    1DPPC   C1A 2153  12.538  12.387   6.646 -0.3153  0.1167  0.1926
    1DPPC   C2A 2154  12.559  12.379   6.249  0.0472  0.3098  0.1746
    1DPPC   C3A 2155  12.432  12.348   5.768 -0.2782  0.2263  0.0012
    1DPPC   C4A 2156  12.415  12.465   5.417 -0.0437 -0.2564  0.2402
    1DPPC   C1B 2157  12.182  12.649   6.466 -0.0065  0.2210  0.1298
    1DPPC   C2B 2158  12.265  12.701   6.055  0.1591 -0.1341  0.2017
    1DPPC   C3B 2159  11.993  12.529   5.667 -0.4715 -0.0650  0.2847
    1DPPC   C4B 2160  11.571  12.430   5.483  0.0827 -0.0687  0.0560
    1DPPC   NC3 2161  10.197  12.398   7.646  0.2366  0.0192 -0.0876
    1DPPC   PO4 2162   9.920  12.620   7.399  0.5607  0.0814  0.0520
    1DPPC   GL1 2163   9.669  12.470   7.012  0.0526 -0.0417  0.1371
    1DPPC   GL2 2164   9.375  12.567   6.978 -0.1233  0.0628  0.1767
    1DPPC   C1A 2165   9.703  12.500   6.617 -0.0939  0.1017 -0.2010
    1DPPC   C2A 2166   9.832  12.500   6.207 -0.1049  0.0779 -0.1137
    1DPPC   C3A 2167   9.859  12.614   5.793  0.0890 -0.0040  0.0361
    1DPPC   C4A 2168   9.866  12.706   5.389 -0.2289 -0.0884  0.4998
    1DPPC   C1B 2169   9.183  12.435   6.562 -0.1912 -0.1553  0.1664
    1DPPC   C2B 2170   9.351  12.378   6.132 -0.5388  0.1867  0.0027
    1DPPC   C3B 2171   9.448  12.171   5.786 -0.0916  0.0287 -0.2722
    1DPPC   C4B 2172   9.444  11.953   5.430  0.3161 -0.1050 -0.2117
    1DPPC   NC3 2173   8.707  18.187   6.653  0.2144 -0.1423  0.1430
    1DPPC   PO4 2174   8.740  18.551   6.317 -0.0057  0.2922  0.2093
    1DPPC   GL1 2175   8.525  18.478   5.963  0.0089 -0.1599 -0.2376
    1DPPC   GL2 2176   8.446  18.200   6.066 -0.1396  0.1263 -0.1475
    1DPPC   C1A 2177   8.492  18.315   5.496  0.1632 -0.3208 -0.1072
    1DPPC   C2A 2178   8.838  18.480   5.211 -0.0331 -0.0599 -0.4677
    1DPPC   C3A 2179   8.861  18.420   4.748 -0.0655  0.1830 -0.1751
    1DPPC   C4A 2180   8.855  18.190   4.307 -0.0517  0.0249 -0.1627
    1DPPC   C1B 2181   8.919  18.284   5.816 -0.0185 -0.1506  0.1572
    1DPPC   C2B 2182   9.108  18.072   5.466  0.0334 -0.1086 -0.1859
    1DPPC   C3B 2183   8.844  18.013   5.077  0.1097  0.0362  0.0129
    1DPPC   C4B 2184   8.553  18.045   4.693  0.0730 -0.2251 -0.1627
    1DPPC   NC3 2185  12.485  12.050   7.675 -0.1462  0.0574  0.0692
    1DPPC   PO4 2186  12.873  11.938   7.380  0.1078  0.2208 -0.1239
    1DPPC   GL1 2187  12.931  11.903   6.963 -0.2818  0.0453 -0.0245
    1DPPC   GL2 2188  12.573  11.978   7.000 -0.0077 -0.0370 -0.1104
    1DPPC   C1A 2189  12.718  11.936   6.566 -0.0242  0.0972  0.1299
    1DPPC   C2A 2190  12.740  11.938   6.101 -0.0210 -0.1423  0.3233
    1DPPC   C3A 2191  12.873  12.013   5.676 -0.2803  0.4063  0.1101
    1DPPC   C4A 2192  12.858  12.031   5.192 -0.2440 -0.2936  0.1449
    1DPPC   C1B 2193  12.398  11.631   6.827 -0.0582  0.0495  0.1423
    1DPPC   C2B 2194  12.398  11.542   6.475 -0.2478 -0.1222  0.0435
    1DPPC   C3B 2195  12.500  11.476   6.079  0.1088  0.1889  0.0335
    1DPPC   C4B 2196  12.408  11.761   5.679  0.2601 -0.1583 -0.2778
    1DPPC   NC3 2197  18.039   8.508   7.727  0.1271  0.0188  0.0904
    1DPPC   PO4 2198  18.018   8.156   7.318 -0.0750  0.1518 -0.0117
    1DPPC   GL1 2199  17.769   8.121   6.967 -0.3527 -0.0767  0.2218
    1DPPC   GL2 2200  17.553   7.889   6.989  0.2555  0.1288 -0.1218
    1DPPC   C1A 2201  17.834   8.162   6.498 -0.0650  0.0487  0.0247
    1DPPC   C2A 2202  17.777   8.153   6.054 -0.2426 -0.1922  0.0697
    1DPPC   C3A 2203  17.501   8.358   5.641  0.3648  0.0841  0.1341
    1DPPC   C4A 2204  17.223   8.597   5.525  0.0984 -0.2877  0.3498
    1DPPC   C1B 2205  17.355   7.912   6.640 -0.0585 -0.1390 -0.1195
    1DPPC   C2B 2206  17.372   8.024   6.235  0.0092 -0.3594 -0.1677
    1DPPC   C3B 2207  17.346   7.875   5.839  0.0466  0.1158 -0.0105
    1DPPC   C4B 2208  17.593   7.916   5.362  0.1102  0.2585 -0.1011
    1DPPC   NC3 2209   5.610   8.012   6.281 -0.2694 -0.0852  0.2441
    1DPPC   PO4 2210   5.299   8.292   6.253  0.1622  0.2385  0.0216
    1DPPC   GL1 2211   5.167   8.351   5.815  0.1179 -0.4053  0.0896
    1DPPC   GL2 2212   4.907   8.149   5.650 -0.1673  0.4483 -0.0273
    1DPPC   C1A 2213   5.339   8.731   5.636  0.2429 -0.0574 -0.1758
    1DPPC   C2A 2214   5.141   9.057   5.341 -0.1648 -0.0231 -0.1642
    1DPPC   C3A 2215   5.163   9.504   5.246 -0.0215  0.3015 -0.4330
    1DPPC   C4A 2216   4.913   9.625   4.849  0.3771 -0.0757  0.1363
    1DPPC   C1B 2217   4.764   8.442   5.360 -0.3539  0.1600 -0.1213
    1DPPC   C2B 2218   4.513   8.611   4.963  0.0803  0.1102 -0.2495
    1DPPC   C3B 2219   4.148   8.420   4.635 -0.0917 -0.0718 -0.1640
    1DPPC   C4B 2220   3.868   8.630   4.329 -0.0712 -0.1739 -0.2293
    1DPPC   NC3 2221  10.476  11.642   7.479  0.4087 -0.1226 -0.1137
    1DPPC   PO4 2222  10.468  11.992   7.520 -0.0791 -0.3164  0.3496
    1DPPC   GL1 2223  10.331  11.915   7.060 -0.0985 -0.3228  0.1203
    1DPPC   GL2 2224  10.482  11.661   6.909 -0.3724 -0.3504  0.0313
    1DPPC   C1A 2225  10.099  12.044   6.795 -0.1889  0.0590 -0.3298
    1DPPC   C2A 2226  10.206  12.299   6.373 -0.3195 -0.1662 -0.0983
    1DPPC   C3A 2227  10.303  12.471   5.954 -0.1448  0.1127 -0.4062
    1DPPC   C4A 2228  10.316  12.557   5.533 -0.0738 -0.1107 -0.1530
    1DPPC   C1B 2229  10.448  11.885   6.497 -0.0361 -0.1601 -0.1484
    1DPPC   C2B 2230  10.478  12.000   6.045  0.4418 -0.1188  0.2222
    1DPPC   C3B 2231  10.719  12.155   5.711 -0.1399  0.1146 -0.1849
    1DPPC   C4B 2232  10.553  12.183   5.344 -0.0478 -0.1448  0.0924
    1DPPC   NC3 2233  11.039  12.630   7.177 -0.0004 -0.0065  0.2607
    1DPPC   PO4 2234  11.372  12.448   7.492  0.0798 -0.1762  0.0894
    1DPPC   GL1 2235  11.500  12.560   7.089  0.1934 -0.1348  0.1524
    1DPPC   GL2 2236  11.798  12.418   6.880  0.1273  0.0872  0.2609
    1DPPC   C1A 2237  11.265  12.430   6.587  0.0909  0.0079 -0.0174
    1DPPC   C2A 2238  11.232  12.566   6.169  0.1560  0.0391  0.3318
    1DPPC   C3A 2239  11.207  12.559   5.745 -0.3620  0.2122 -0.0458
    1DPPC   C4A 2240  11.029  12.368   5.348  0.2398 -0.1396  0.0867
    1DPPC   C1B 2241  11.706  12.457   6.367 -0.0019 -0.2488  0.1449
    1DPPC   C2B 2242  11.553  12.258   5.973 -0.1529 -0.3356  0.0867
    1DPPC   C3B 2243  11.241  12.058   5.829 -0.1683 -0.1492  0.0142
    1DPPC   C4B 2244  11.071  11.770   5.483 -0.0321  0.0459 -0.0926
    1DPPC   NC3 2245  19.838   9.067   7.447  0.4149  0.0052 -0.2801
    1DPPC   PO4 2246  20.264   8.904   7.296 -0.0513  0.0110 -0.1391
    1DPPC   GL1 2247  20.294   8.887   6.852  0.1881 -0.0850  0.0311
    1DPPC   GL2 2248  20.332   9.222   6.653  0.0722 -0.1036 -0.1245
    1DPPC   C1A 2249  20.106   8.746   6.459  0.0909  0.0586 -0.1315
    1DPPC   C2A 2250  19.881   8.368   6.210  0.2534 -0.2375  0.2726
    1DPPC   C3A 2251  19.801   8.360   5.792 -0.1739  0.1367 -0.3244
    1DPPC   C4A 2252  20.010   8.211   5.449  0.2728 -0.0902 -0.0103
    1DPPC   C1B 2253  20.382   9.060   6.250 -0.4393  0.0798 -0.1441
    1DPPC   C2B 2254  20.446   8.902   5.863 -0.6623 -0.0361 -0.0348
    1DPPC   C3B 2255  20.443   8.885   5.458  0.3225  0.0683 -0.0368
    1DPPC   C4B 2256  20.540   8.514   5.268 -0.1616  0.0737 -0.3220
    1DPPC   NC3 2257  14.623   9.164   7.529 -0.0625  0.0879  0.0119
    1DPPC   PO4 2258  14.269   9.074   7.534 -0.0313  0.0402 -0.2077
    1DPPC   GL1 2259  14.066   8.998   7.223  0.2614 -0.1089 -0.1843
    1DPPC   GL2 2260  14.059   8.614   7.160 -0.1298  0.1868  0.1781
    1DPPC   C1A 2261  13.779   8.940   6.865 -0.0021 -0.0162  0.3020
    1DPPC   C2A 2262  13.675   8.940   6.431 -0.1455 -0.2402 -0.2136
    1DPPC   C3A 2263  13.507   8.845   6.076  0.0049 -0.0747 -0.1520
    1DPPC   C4A 2264  13.416   8.729   5.724  0.0399 -0.0157  0.1044
    1DPPC   C1B 2265  14.066   8.347   6.829 -0.0798 -0.2664 -0.2990
    1DPPC   C2B 2266  13.944   8.042   6.476 -0.0149 -0.0176 -0.2166
    1DPPC   C3B 2267  14.038   7.885   6.129  0.3219  0.1964  0.0798
    1DPPC   C4B 2268  14.142   7.886   5.784 -0.2767 -0.0046  0.0737
    1DPPC   NC3 2269  19.682  16.723   7.551  0.0450  0.0729  0.1241
    1DPPC   PO4 2270  19.340  16.517   7.347 -0.0153  0.0652 -0.1039
    1DPPC   GL1 2271  19.177  16.518   6.925 -0.1097  0.2050  0.1097
    1DPPC   GL2 2272  19.497  16.341   6.814  0.0929  0.0257  0.1010
    1DPPC   C1A 2273  19.152  16.570   6.503  0.1738 -0.2600  0.2505
    1DPPC   C2A 2274  19.195  16.625   6.090 -0.2088 -0.0885  0.1065
    1DPPC   C3A 2275  19.268  16.576   5.719  0.0423 -0.0304  0.1409
    1DPPC   C4A 2276  19.142  16.885   5.477 -0.1164 -0.1159  0.0835
    1DPPC   C1B 2277  19.611  16.371   6.425  0.1514  0.2066  0.0792
    1DPPC   C2B 2278  19.661  16.367   5.978  0.2336 -0.1576 -0.1622
    1DPPC   C3B 2279  19.683  16.370   5.531  0.0261  0.4347 -0.2899
    1DPPC   C4B 2280  19.433  16.597   5.222  0.1036 -0.0713 -0.0002
    1DPPC   NC3 2281  10.469  13.450   7.534 -0.1027  0.1520 -0.0487
    1DPPC   PO4 2282   9.994  13.371   7.372  0.0994  0.0567 -0.4323
    1DPPC   GL1 2283  10.058  13.382   6.930  0.1715 -0.3062 -0.1098
    1DPPC   GL2 2284   9.726  13.432   6.804 -0.0087 -0.1201  0.0767
    1DPPC   C1A 2285   9.945  12.922   6.811  0.0882  0.0452 -0.2624
    1DPPC   C2A 2286  10.284  12.654   6.648  0.1732 -0.1072 -0.1357
    1DPPC   C3A 2287  10.621  12.335   6.656  0.0178 -0.1071  0.0667
    1DPPC   C4A 2288  10.909  12.032   6.659 -0.1525  0.4853  0.4172
    1DPPC   C1B 2289   9.857  13.350   6.427 -0.0870 -0.2573 -0.1294
    1DPPC   C2B 2290   9.869  13.349   5.906 -0.1237  0.1834  0.3651
    1DPPC   C3B 2291   9.970  13.223   5.500  0.0237 -0.0978  0.0129
    1DPPC   C4B 2292  10.339  13.034   5.325 -0.3384 -0.0471  0.1926
    1DPPC   NC3 2293  17.943  17.446   7.596  0.0275 -0.1144  0.3569
    1DPPC   PO4 2294  17.437  17.443   7.437 -0.2319 -0.2457  0.1307
    1DPPC   GL1 2295  17.596  17.427   6.986 -0.1154  0.2391  0.2261
    1DPPC   GL2 2296  17.913  17.468   7.102  0.1502 -0.0474 -0.0963
    1DPPC   C1A 2297  17.848  17.455   6.599  0.1921 -0.1479  0.1769
    1DPPC   C2A 2298  17.835  17.382   6.190 -0.4582  0.0681  0.0529
    1DPPC   C3A 2299  17.681  17.079   6.068 -0.0446 -0.2268 -0.3560
    1DPPC   C4A 2300  17.343  17.005   5.781  0.1242  0.1109  0.1817
    1DPPC   C1B 2301  18.335  17.465   6.862  0.0363 -0.0824 -0.1452
    1DPPC   C2B 2302  18.339  17.413   6.365  0.1709 -0.0718  0.1390
    1DPPC   C3B 2303  18.286  17.307   5.940 -0.1623 -0.1339 -0.0762
    1DPPC   C4B 2304  18.306  17.263   5.448  0.0930  0.4281  0.1442
    1DPPC   NC3 2305  13.885  19.453   7.617  0.0846  0.0406  0.2525
    1DPPC   PO4 2306  14.074  19.667   7.296  0.0975 -0.2126 -0.0178
    1DPPC   GL1 2307  13.836  20.104   7.124  0.2621  0.1472 -0.1528
    1DPPC   GL2 2308  13.947  20.223   6.858  0.0027 -0.1556  0.0230
    1DPPC   C1A 2309  13.470  20.085   6.798 -0.3027  0.1037 -0.2525
    1DPPC   C2A 2310  13.147  20.274   6.518 -0.1064  0.1898  0.0538
    1DPPC   C3A 2311  13.024  20.359   6.169  0.0644  0.0598  0.2273
    1DPPC   C4A 2312  13.304  20.213   5.849 -0.0974  0.0720  0.1368
    1DPPC   C1B 2313  14.018  20.400   6.521  0.0517 -0.0460  0.1763
    1DPPC   C2B 2314  14.014  20.596   6.138 -0.0359  0.1516  0.0276
    1DPPC   C3B 2315  14.024  20.670   5.849  0.5263 -0.2678 -0.2091
    1DPPC   C4B 2316  13.708  20.441   5.731 -0.1372  0.2079 -0.1556
    1DPPC   NC3 2317   7.038   2.004   7.143  0.0028 -0.2341  0.1125
    1DPPC   PO4 2318   7.517   2.202   7.019  0.1355  0.0074  0.0536
    1DPPC   GL1 2319   7.342   2.291   6.564 -0.0985  0.2909  0.1747
    1DPPC   GL2 2320   7.046   2.218   6.690  0.0948  0.1204 -0.1056
    1DPPC   C1A 2321   7.368   2.251   6.100 -0.3941  0.3054 -0.2516
    1DPPC   C2A 2322   7.732   2.205   5.861  0.1668  0.0145 -0.3037
    1DPPC   C3A 2323   7.844   2.301   5.458 -0.0501 -0.0984  0.2546
    1DPPC   C4A 2324   8.221   2.102   5.253  0.0034 -0.1499  0.1804
    1DPPC   C1B 2325   6.975   1.919   6.343  0.0973 -0.0855  0.1644
    1DPPC   C2B 2326   6.918   1.528   6.239 -0.4267 -0.1341 -0.2867
    1DPPC   C3B 2327   6.894   1.286   5.875 -0.0543 -0.0053  0.0599
    1DPPC   C4B 2328   6.821   0.888   5.743 -0.0369  0.1690 -0.4183
    1DPPC   NC3 2329   7.321  23.322   5.893  0.0526 -0.0651 -0.0593
    1DPPC   PO4 2330   7.164  22.974   5.697 -0.1336 -0.1086  0.1579
    1DPPC   GL1 2331   7.250  23.306   5.374 -0.2148 -0.2948  0.1565
    1DPPC   GL2 2332   7.284  23.009   5.116  0.2190 -0.0120  0.1387
    1DPPC   C1A 2333   7.109  23.659   5.241  0.2733  0.0745  0.0473
    1DPPC   C2A 2334   6.992  23.972   5.037 -0.0741  0.1215 -0.0162
    1DPPC   C3A 2335   7.037  24.318   4.658  0.0227 -0.1946 -0.0919
    1DPPC   C4A 2336   7.253  24.365   4.230  0.0022 -0.0868  0.1007
    1DPPC   C1B 2337   7.296  22.957   4.654  0.0478 -0.5225 -0.0909
    1DPPC   C2B 2338   7.559  23.043   4.335  0.2476 -0.0486 -0.0516
    1DPPC   C3B 2339   7.965  23.095   4.115  0.0709 -0.2068 -0.1650
    1DPPC   C4B 2340   8.405  23.059   3.904  0.1670  0.0893 -0.1258
    1DPPC   NC3 2341   7.124  11.909   7.667  0.2140 -0.0038  0.1448
    1DPPC   PO4 2342   6.968  11.580   7.359 -0.1929  0.1185  0.1448
    1DPPC   GL1 2343   7.021  11.540   6.976  0.0749  0.1191  0.1682
    1DPPC   GL2 2344   6.970  11.227   6.903  0.2291 -0.0513  0.0852
    1DPPC   C1A 2345   6.746  11.685   6.650  0.2550  0.2464 -0.1891
    1DPPC   C2A 2346   6.520  11.833   6.259 -0.3710 -0.1150  0.1058
    1DPPC   C3A 2347   6.402  11.892   5.839  0.1610  0.1267 -0.1859
    1DPPC   C4A 2348   6.520  11.980   5.468  0.2884 -0.1922  0.2013
    1DPPC   C1B 2349   7.074  11.294   6.490  0.0483 -0.3331 -0.0897
    1DPPC   C2B 2350   7.379  11.193   6.223  0.0872  0.3277  0.0873
    1DPPC   C3B 2351   7.560  10.992   5.847 -0.1386 -0.1163  0.0522
    1DPPC   C4B 2352   7.885  10.863   5.534  0.0550  0.2392  0.4028
    1DPPC   NC3 2353  10.649  13.683   8.029 -0.0196  0.0277  0.3862
    1DPPC   PO4 2354  10.368  13.863   7.775 -0.1541 -0.0976  0.1351
    1DPPC   GL1 2355  10.251  13.887   7.341  0.0689 -0.1641  0.1454
    1DPPC   GL2 2356  10.388  13.749   7.137  0.4562 -0.1617 -0.4443
    1DPPC   C1A 2357  10.236  14.185   6.941  0.1023  0.2219  0.1671
    1DPPC   C2A 2358  10.260  14.144   6.441 -0.1172  0.0071  0.1130
    1DPPC   C3A 2359  10.173  14.105   5.949  0.0546  0.2080 -0.0824
    1DPPC   C4A 2360  10.190  14.054   5.479  0.0116 -0.2670 -0.0929
    1DPPC   C1B 2361  10.252  13.702   6.646  0.3297  0.1937 -0.2999
    1DPPC   C2B 2362  10.279  13.663   6.206  0.3927 -0.0854 -0.0966
    1DPPC   C3B 2363  10.282  13.605   5.813  0.4653 -0.3094  0.1591
    1DPPC   C4B 2364  10.318  13.554   5.341 -0.0545  0.2284 -0.0013
    1DPPC   NC3 2365  17.517   9.335   7.173 -0.0419  0.0262  0.0838
    1DPPC   PO4 2366  17.328   8.895   7.096 -0.0289 -0.4651  0.0400
    1DPPC   GL1 2367  17.269   9.168   6.714 -0.2524 -0.0037 -0.0612
    1DPPC   GL2 2368  17.234   9.490   6.715 -0.1571  0.0308  0.0798
    1DPPC   C1A 2369  17.278   9.175   6.301 -0.0220 -0.3274  0.1175
    1DPPC   C2A 2370  17.280   9.079   5.941 -0.2815  0.0221  0.1901
    1DPPC   C3A 2371  17.314   9.124   5.551  0.4946 -0.0929  0.3742
    1DPPC   C4A 2372  17.379   9.077   5.083  0.0490 -0.1097  0.0244
    1DPPC   C1B 2373  16.928   9.567   6.320 -0.1087  0.0174 -0.2245
    1DPPC   C2B 2374  16.943   9.457   5.819  0.0425  0.0477 -0.0184
    1DPPC   C3B 2375  16.757   9.417   5.400 -0.1973 -0.1481 -0.1341
    1DPPC   C4B 2376  16.781   9.094   5.152  0.0096  0.0223  0.2473
    1DPPC   NC3 2377  10.400  16.038   7.135  0.0554 -0.1279  0.1110
    1DPPC   PO4 2378  10.248  15.599   7.117 -0.2581  0.0301  0.1275
    1DPPC   GL1 2379  10.541  15.591   6.744  0.0673  0.0913 -0.0997
    1DPPC   GL2 2380  10.300  15.772   6.552  0.4436 -0.0439 -0.0411
    1DPPC   C1A 2381  10.668  15.499   6.319 -0.1095  0.2036 -0.0790
    1DPPC   C2A 2382  10.613  15.519   5.893 -0.3892  0.1697 -0.5123
    1DPPC   C3A 2383  10.638  15.438   5.500  0.1123  0.1819 -0.1690
    1DPPC   C4A 2384  11.105  15.512   5.287 -0.1938 -0.1219  0.2524
    1DPPC   C1B 2385  10.168  15.754   6.142 -0.2127  0.1016 -0.0138
    1DPPC   C2B 2386  10.089  15.660   5.789  0.0020  0.3822  0.0229
    1DPPC   C3B 2387  10.016  15.594   5.359  0.0618  0.1243 -0.0422
    1DPPC   C4B 2388  10.173  15.471   4.921  0.2065  0.1345 -0.2352
    1DPPC   NC3 2389  18.357  16.804   7.424 -0.1170 -0.0910 -0.2268
    1DPPC   PO4 2390  18.009  16.966   7.272  0.3659 -0.0163 -0.0357
    1DPPC   GL1 2391  18.100  17.053   6.837 -0.4364 -0.1665 -0.1353
    1DPPC   GL2 2392  17.799  16.999   6.792 -0.1914 -0.1758  0.1340
    1DPPC   C1A 2393  18.089  17.011   6.375  0.0895  0.0095  0.1442
    1DPPC   C2A 2394  18.140  16.804   5.994  0.0386  0.0054  0.1935
    1DPPC   C3A 2395  18.284  16.818   5.680  0.2614 -0.0853  0.2312
    1DPPC   C4A 2396  18.621  16.889   5.414 -0.2397 -0.1285  0.1636
    1DPPC   C1B 2397  17.492  17.103   6.533 -0.0441 -0.2845  0.0036
    1DPPC   C2B 2398  17.256  17.378   6.248  0.1687 -0.1654  0.0009
    1DPPC   C3B 2399  17.071  17.441   5.890  0.3134 -0.1788 -0.0064
    1DPPC   C4B 2400  17.190  17.427   5.439 -0.1458 -0.0442  0.2713
    1DPPC   NC3 2401  14.643  22.909   7.731  0.1085  0.0105 -0.1550
    1DPPC   PO4 2402  15.041  23.019   7.782 -0.0510  0.1327  0.1518
    1DPPC   GL1 2403  15.110  22.940   7.300  0.2132 -0.1145 -0.1524
    1DPPC   GL2 2404  15.329  22.831   7.251 -0.1725 -0.1174  0.0329
    1DPPC   C1A 2405  14.954  23.050   6.917 -0.0322 -0.3306 -0.1548
    1DPPC   C2A 2406  15.098  23.273   6.645 -0.0597  0.0631  0.2342
    1DPPC   C3A 2407  15.323  23.504   6.314  0.0955 -0.1549  0.1793
    1DPPC   C4A 2408  15.532  23.671   5.987 -0.1508  0.3883  0.0967
    1DPPC   C1B 2409  15.490  22.886   6.833  0.2970  0.1680  0.0709
    1DPPC   C2B 2410  15.679  23.081   6.439  0.2017 -0.0253  0.1362
    1DPPC   C3B 2411  15.853  23.048   6.036 -0.3987 -0.3814 -0.3703
    1DPPC   C4B 2412  16.104  23.276   5.727  0.0733  0.0703 -0.3490
    1DPPC   NC3 2413  22.689  14.210   7.318 -0.1832  0.0845 -0.0837
    1DPPC   PO4 2414  22.357  14.221   6.857  0.0342  0.1461 -0.3256
    1DPPC   GL1 2415  22.484  14.492   6.563  0.1486  0.2863  0.2601
    1DPPC   GL2 2416  22.370  14.317   6.172  0.0729  0.0143  0.0602
    1DPPC   C1A 2417  22.294  14.779   6.200 -0.1154 -0.1318  0.1240
    1DPPC   C2A 2418  22.384  14.921   5.730 -0.1630 -0.1215 -0.2703
    1DPPC   C3A 2419  22.275  14.986   5.309 -0.0946  0.0457  0.0320
    1DPPC   C4A 2420  22.371  14.964   4.958 -0.2561  0.2426 -0.1602
    1DPPC   C1B 2421  22.447  14.427   5.758 -0.0205  0.4507  0.1300
    1DPPC   C2B 2422  22.717  14.574   5.409 -0.0471 -0.0489 -0.3727
    1DPPC   C3B 2423  22.929  14.542   4.972  0.0301  0.0462  0.2183
    1DPPC   C4B 2424  23.231  14.071   4.850  0.2606  0.2469 -0.2762
    1DPPC   NC3 2425   8.957  11.190   7.370  0.3109 -0.0252 -0.1831
    1DPPC   PO4 2426   9.322  10.810   7.452 -0.0520  0.1539  0.2136
    1DPPC   GL1 2427   9.442  10.689   7.100 -0.3300 -0.0626 -0.0577
    1DPPC   GL2 2428   9.175  10.477   6.960 -0.1843  0.0111  0.2371
    1DPPC   C1A 2429   9.432  10.848   6.644 -0.0474 -0.0312 -0.0090
    1DPPC   C2A 2430   9.186  11.068   6.305  0.0222  0.2258 -0.2998
    1DPPC   C3A 2431   9.111  11.146   5.898  0.0097  0.1832  0.1700
    1DPPC   C4A 2432   9.060  11.245   5.447 -0.1318 -0.2271 -0.1096
    1DPPC   C1B 2433   9.274  10.341   6.587 -0.3589  0.1054  0.1013
    1DPPC   C2B 2434   9.633  10.492   6.268 -0.5512  0.0149  0.1255
    1DPPC   C3B 2435   9.812  10.589   5.907 -0.3091  0.0938 -0.1024
    1DPPC   C4B 2436  10.122  10.832   5.588  0.0053 -0.1556 -0.2306
    1DPPC   NC3 2437  13.410  12.731   7.445 -0.2944  0.4258 -0.2984
    1DPPC   PO4 2438  13.173  12.382   7.371  0.2186 -0.0768 -0.0199
    1DPPC   GL1 2439  13.337  12.159   7.008  0.0099  0.2886  0.2617
    1DPPC   GL2 2440  13.418  11.832   7.013 -0.1111  0.2165 -0.2410
    1DPPC   C1A 2441  13.564  12.246   6.669 -0.0608  0.2163  0.3708
    1DPPC   C2A 2442  13.544  12.249   6.237  0.0099 -0.1871  0.0941
    1DPPC   C3A 2443  13.429  12.310   5.858  0.1157  0.2445 -0.0132
    1DPPC   C4A 2444  13.293  12.199   5.488 -0.0437 -0.0371 -0.4800
    1DPPC   C1B 2445  13.227  11.863   6.544  0.0645  0.0817  0.0778
    1DPPC   C2B 2446  13.234  11.875   5.997 -0.1066 -0.2165 -0.0079
    1DPPC   C3B 2447  13.300  11.721   5.565  0.1694 -0.0189  0.0063
    1DPPC   C4B 2448  13.388  11.854   5.121  0.2843 -0.1733 -0.0983
    1DPPC   NC3 2449  18.696   7.300   7.627  0.0365  0.2875  0.2821
    1DPPC   PO4 2450  19.155   7.151   7.392  0.0148 -0.1736 -0.0860
    1DPPC   GL1 2451  19.250   7.311   6.928  0.2080 -0.2046  0.0130
    1DPPC   GL2 2452  19.065   7.426   6.710  0.0138 -0.2399  0.0074
    1DPPC   C1A 2453  19.439   7.111   6.506  0.3504 -0.1940 -0.2970
    1DPPC   C2A 2454  19.476   7.026   5.999  0.0592 -0.0881  0.1232
    1DPPC   C3A 2455  19.346   6.763   5.634  0.3342 -0.0220 -0.1605
    1DPPC   C4A 2456  19.302   6.747   5.266 -0.2250  0.0129  0.2196
    1DPPC   C1B 2457  19.051   7.389   6.225 -0.1785  0.0544 -0.0436
    1DPPC   C2B 2458  18.993   7.157   5.886  0.0399  0.1317  0.1294
    1DPPC   C3B 2459  19.143   7.201   5.410 -0.2076 -0.0116  0.1646
    1DPPC   C4B 2460  19.493   7.179   5.079 -0.2303 -0.1208 -0.0513
    1DPPC   NC3 2461  20.661  15.075   6.982  0.0177 -0.0902  0.1071
    1DPPC   PO4 2462  20.619  15.516   6.812 -0.1918 -0.0471  0.1043
    1DPPC   GL1 2463  20.338  15.680   6.412 -0.1101  0.1282 -0.0023
    1DPPC   GL2 2464  20.039  15.439   6.500  0.0782 -0.0698  0.2038
    1DPPC   C1A 2465  20.414  15.750   6.038 -0.2602  0.0373  0.1391
    1DPPC   C2A 2466  20.397  15.896   5.636  0.0919  0.0252  0.1002
    1DPPC   C3A 2467  20.139  15.930   5.282  0.0061  0.0894 -0.2730
    1DPPC   C4A 2468  19.746  15.952   5.068  0.0659  0.1936 -0.2549
    1DPPC   C1B 2469  19.921  15.529   6.114  0.2482  0.2985  0.1864
    1DPPC   C2B 2470  19.908  15.535   5.655 -0.1297 -0.1303  0.1848
    1DPPC   C3B 2471  19.712  15.502   5.277  0.1425 -0.0495 -0.0949
    1DPPC   C4B 2472  19.724  15.491   4.835 -0.0288 -0.1098  0.1429
    1DPPC   NC3 2473   9.149  14.392   7.166  0.0168 -0.0028  0.0805
    1DPPC   PO4 2474   9.552  14.497   7.130  0.1171 -0.2596  0.0463
    1DPPC   GL1 2475   9.421  14.533   6.775  0.0036 -0.0545 -0.3081
    1DPPC   GL2 2476   9.707  14.407   6.659 -0.0888 -0.0889  0.2019
    1DPPC   C1A 2477   9.299  14.541   6.396  0.0896  0.1695  0.3716
    1DPPC   C2A 2478   9.359  14.570   5.952 -0.1305  0.1471 -0.0450
    1DPPC   C3A 2479   9.254  14.544   5.526  0.0319 -0.1961 -0.2519
    1DPPC   C4A 2480   9.256  14.505   5.042  0.0017 -0.2423  0.1449
    1DPPC   C1B 2481   9.793  14.372   6.258  0.0416  0.0296  0.2484
    1DPPC   C2B 2482   9.773  14.329   5.720 -0.2247  0.1720 -0.1313
    1DPPC   C3B 2483   9.685  14.303   5.377  0.0492 -0.3048 -0.1842
    1DPPC   C4B 2484   9.724  14.246   4.939  0.0286  0.4246  0.0542
    1DPPC   NC3 2485  12.984  13.624   7.907 -0.0072 -0.3937  0.0668
    1DPPC   PO4 2486  12.692  13.703   7.576  0.1159 -0.3448 -0.1124
    1DPPC   GL1 2487  12.727  13.979   7.229  0.2777  0.0272 -0.0658
    1DPPC   GL2 2488  12.952  13.822   7.137 -0.1871 -0.2348 -0.0288
    1DPPC   C1A 2489  12.549  13.967   6.850 -0.1422 -0.1087  0.0647
    1DPPC   C2A 2490  12.539  13.963   6.383  0.0266  0.0686 -0.0231
    1DPPC   C3A 2491  12.528  14.055   5.950  0.2256 -0.0323  0.0635
    1DPPC   C4A 2492  12.534  14.204   5.471 -0.2165  0.1754 -0.2922
    1DPPC   C1B 2493  13.044  13.962   6.781 -0.0014  0.2835 -0.2919
    1DPPC   C2B 2494  13.002  14.034   6.360  0.1025 -0.0393  0.0039
    1DPPC   C3B 2495  13.129  14.124   5.916 -0.0314  0.0368  0.0649
    1DPPC   C4B 2496  13.063  14.239   5.504 -0.1439 -0.0174  0.1863
    1DPPC   NC3 2497  12.327  14.022   7.516 -0.0280 -0.1187 -0.0275
    1DPPC   PO4 2498  12.442  14.460   7.300 -0.1101  0.0993  0.0209
    1DPPC   GL1 2499  12.250  14.367   6.962  0.0566  0.2375  0.0275
    1DPPC   GL2 2500  11.961  14.255   7.044 -0.2602  0.2184 -0.1833
    1DPPC   C1A 2501  12.083  14.254   6.526  0.0149 -0.1229 -0.3266
    1DPPC   C2A 2502  12.041  14.156   6.166  0.0005 -0.1333  0.0773
    1DPPC   C3A 2503  12.082  14.077   5.716 -0.0007  0.2251 -0.1916
    1DPPC   C4A 2504  11.962  13.845   5.335 -0.0799 -0.1637 -0.0448
    1DPPC   C1B 2505  12.077  13.881   6.879 -0.1558  0.0764  0.2623
    1DPPC   C2B 2506  12.133  13.739   6.445 -0.1270 -0.2315  0.2008
    1DPPC   C3B 2507  12.233  13.656   6.084 -0.1610  0.0112 -0.0744
    1DPPC   C4B 2508  12.335  13.643   5.740  0.0455  0.1249  0.0012
    1DPPC   NC3 2509  14.402  13.345   7.933  0.0930  0.2039  0.0085
    1DPPC   PO4 2510  14.263  13.245   7.452  0.0710 -0.0828  0.1850
    1DPPC   GL1 2511  14.239  13.149   6.994 -0.2021 -0.1064  0.2271
    1DPPC   GL2 2512  14.287  13.379   6.831  0.0907 -0.2384  0.0281
    1DPPC   C1A 2513  14.453  12.901   6.671  0.2386 -0.2659 -0.1102
    1DPPC   C2A 2514  14.534  12.669   6.298  0.1128  0.0781  0.0691
    1DPPC   C3A 2515  14.506  12.663   5.884  0.1972  0.2541 -0.2394
    1DPPC   C4A 2516  14.254  12.571   5.453  0.2342 -0.1106  0.0024
    1DPPC   C1B 2517  14.141  13.341   6.427 -0.2155  0.0195  0.2588
    1DPPC   C2B 2518  14.150  13.457   5.984 -0.0070 -0.0513  0.1529
    1DPPC   C3B 2519  14.011  13.497   5.600  0.0674 -0.2813 -0.2149
    1DPPC   C4B 2520  13.803  13.725   5.305  0.0767  0.1068 -0.0593
    1DPPC   NC3 2521   9.935   6.791   7.445 -0.1055  0.1360 -0.1194
    1DPPC   PO4 2522  10.187   6.947   7.196 -0.2422  0.3602  0.1401
    1DPPC   GL1 2523  10.184   7.026   6.838 -0.1887  0.2117 -0.1943
    1DPPC   GL2 2524  10.311   7.237   6.714  0.0479 -0.2422  0.2693
    1DPPC   C1A 2525   9.929   6.942   6.563  0.1140  0.3264  0.0218
    1DPPC   C2A 2526   9.696   6.541   6.416 -0.0882  0.0003  0.2174
    1DPPC   C3A 2527   9.393   6.179   6.451  0.0236 -0.0748  0.0246
    1DPPC   C4A 2528   9.413   5.679   6.422 -0.2294 -0.1983  0.0819
    1DPPC   C1B 2529  10.238   7.251   6.324  0.1520  0.1767 -0.0362
    1DPPC   C2B 2530  10.210   7.166   5.887  0.0648 -0.2093  0.1283
    1DPPC   C3B 2531  10.101   7.150   5.465 -0.1123  0.2769  0.0901
    1DPPC   C4B 2532  10.272   7.248   5.010  0.0164 -0.1520  0.1486
    1DPPC   NC3 2533   7.242  11.156   7.302  0.1431  0.2495  0.0976
    1DPPC   PO4 2534   7.481  11.358   7.088 -0.2251 -0.1190 -0.0712
    1DPPC   GL1 2535   7.457  11.025   6.723 -0.2299 -0.0657  0.1010
    1DPPC   GL2 2536   7.732  10.903   6.664 -0.1626 -0.2071 -0.0179
    1DPPC   C1A 2537   7.275  10.740   6.375 -0.1514 -0.0162  0.1847
    1DPPC   C2A 2538   7.184  10.740   5.885  0.1666 -0.1150 -0.0373
    1DPPC   C3A 2539   6.985  10.522   5.620 -0.1724  0.3235  0.1861
    1DPPC   C4A 2540   6.675  10.410   5.423 -0.1826  0.1579  0.0874
    1DPPC   C1B 2541   7.815  10.751   6.333  0.1469 -0.1737 -0.0560
    1DPPC   C2B 2542   8.074  10.685   6.089  0.0290 -0.2039  0.3492
    1DPPC   C3B 2543   8.127  10.498   5.719 -0.0599 -0.0548 -0.0001
    1DPPC   C4B 2544   8.403  10.153   5.608 -0.1344  0.5328 -0.0428
    1DPPC   NC3 2545  14.949  13.036   7.857 -0.0730 -0.3754  0.0373
    1DPPC   PO4 2546  15.140  13.338   7.480  0.0121  0.1969 -0.2293
    1DPPC   GL1 2547  15.103  13.420   7.000 -0.1526  0.0257  0.1220
    1DPPC   GL2 2548  14.775  13.303   6.864  0.2664  0.4094 -0.1725
    1DPPC   C1A 2549  15.072  13.614   6.617 -0.2246 -0.4798 -0.1835
    1DPPC   C2A 2550  15.022  13.532   6.138 -0.1766 -0.0837 -0.3941
    1DPPC   C3A 2551  14.885  13.450   5.753 -0.0304  0.1218 -0.0967
    1DPPC   C4A 2552  14.929  13.277   5.320  0.0068  0.1122  0.0716
    1DPPC   C1B 2553  14.660  13.318   6.447 -0.1516  0.0790  0.0644
    1DPPC   C2B 2554  14.530  13.143   6.032 -0.1181  0.0232  0.0959
    1DPPC   C3B 2555  14.465  13.151   5.588 -0.6242 -0.2750 -0.0539
    1DPPC   C4B 2556  14.400  13.442   5.223 -0.3749  0.4572  0.0779
    1DPPC   NC3 2557  11.175  14.838   7.497  0.1718  0.1607 -0.2606
    1DPPC   PO4 2558  11.385  14.528   7.333 -0.3830 -0.0203  0.0782
    1DPPC   GL1 2559  11.332  14.292   6.989 -0.1266  0.2562  0.1453
    1DPPC   GL2 2560  11.549  14.033   6.985 -0.0585  0.1124  0.0613
    1DPPC   C1A 2561  11.218  14.319   6.614 -0.1783  0.1348 -0.2157
    1DPPC   C2A 2562  11.206  14.244   6.273  0.0580  0.2407 -0.0159
    1DPPC   C3A 2563  11.080  14.167   5.932  0.3388  0.1458 -0.2546
    1DPPC   C4A 2564  11.174  14.163   5.554  0.0883  0.0408  0.4038
    1DPPC   C1B 2565  11.668  14.006   6.518  0.1706 -0.0234 -0.1585
    1DPPC   C2B 2566  11.607  13.957   6.103  0.5330  0.0689  0.2024
    1DPPC   C3B 2567  11.577  13.920   5.668 -0.0144  0.2029 -0.0222
    1DPPC   C4B 2568  11.534  14.045   5.239 -0.1227 -0.1448  0.2268
    1DPPC   NC3 2569   9.094  15.931   6.801  0.1402 -0.0185  0.1993
    1DPPC   PO4 2570   9.117  15.567   7.058  0.1446  0.0756  0.0106
    1DPPC   GL1 2571   9.254  15.409   6.682  0.2991 -0.2064 -0.1276
    1DPPC   GL2 2572   9.117  15.121   6.625  0.2390 -0.1651 -0.2942
    1DPPC   C1A 2573   9.576  15.402   6.425  0.0080  0.1097  0.2079
    1DPPC   C2A 2574   9.620  15.388   5.854 -0.2009 -0.1907 -0.1753
    1DPPC   C3A 2575   9.577  15.333   5.412  0.0488  0.0302  0.0099
    1DPPC   C4A 2576   9.666  15.489   4.998  0.4380  0.3882  0.2660
    1DPPC   C1B 2577   9.274  15.038   6.249 -0.0386  0.1141 -0.3151
    1DPPC   C2B 2578   9.219  15.091   5.849  0.1676  0.0990  0.0736
    1DPPC   C3B 2579   9.162  15.057   5.381  0.1415  0.0550  0.3325
    1DPPC   C4B 2580   9.376  15.053   4.950 -0.0148  0.0103  0.0311
    1DPPC   NC3 2581  17.087  10.565   7.524 -0.0411  0.2326 -0.1055
    1DPPC   PO4 2582  17.008  10.158   7.301  0.0380 -0.0690 -0.3265
    1DPPC   GL1 2583  16.977  10.222   6.948  0.0983 -0.1242 -0.1029
    1DPPC   GL2 2584  16.647  10.152   6.884 -0.0580  0.0128  0.0881
    1DPPC   C1A 2585  17.024  10.032   6.426 -0.2239  0.0617 -0.1564
    1DPPC   C2A 2586  16.977   9.933   5.935  0.0290  0.0428 -0.2840
    1DPPC   C3A 2587  16.875   9.879   5.555  0.0767  0.1215 -0.2221
    1DPPC   C4A 2588  16.780   9.907   5.151 -0.0777  0.1252  0.0796
    1DPPC   C1B 2589  16.639  10.392   6.488 -0.0004  0.2331  0.1030
    1DPPC   C2B 2590  16.798  10.377   6.134 -0.3832  0.1910 -0.0174
    1DPPC   C3B 2591  16.815  10.320   5.699  0.0161  0.1068 -0.0635
    1DPPC   C4B 2592  16.574  10.337   5.387 -0.0333  0.2495 -0.0513
    1DPPC   NC3 2593  14.392  16.098   7.524  0.1419 -0.0947 -0.0746
    1DPPC   PO4 2594  13.999  16.225   7.343  0.0758 -0.1462  0.3662
    1DPPC   GL1 2595  13.839  16.094   7.059  0.0703 -0.1202 -0.3384
    1DPPC   GL2 2596  13.543  15.828   7.048 -0.1161 -0.0100 -0.0272
    1DPPC   C1A 2597  13.922  16.032   6.712 -0.0317  0.2028  0.0598
    1DPPC   C2A 2598  14.004  16.117   6.137  0.0882 -0.1741 -0.2554
    1DPPC   C3A 2599  14.012  16.069   5.759 -0.2349 -0.0149 -0.1472
    1DPPC   C4A 2600  14.079  16.085   5.334  0.0097  0.2146 -0.0170
    1DPPC   C1B 2601  13.465  15.765   6.636  0.0802  0.1819  0.0634
    1DPPC   C2B 2602  13.522  15.871   6.189 -0.0594 -0.0611 -0.0555
    1DPPC   C3B 2603  13.571  15.885   5.771 -0.3117 -0.4845 -0.1451
    1DPPC   C4B 2604  13.509  15.921   5.300 -0.3239 -0.0659  0.0448
    1DPPC   NC3 2605  15.375   9.774   7.823  0.1348 -0.1909 -0.0156
    1DPPC   PO4 2606  15.657   9.642   7.517  0.0635 -0.0494  0.0147
    1DPPC   GL1 2607  15.662   9.612   7.144 -0.1424  0.1365  0.2398
    1DPPC   GL2 2608  15.793   9.363   6.985 -0.0385  0.1843 -0.1273
    1DPPC   C1A 2609  15.638   9.757   6.731 -0.2146  0.2267 -0.1525
    1DPPC   C2A 2610  15.556   9.621   6.345  0.0676  0.0307 -0.1246
    1DPPC   C3A 2611  15.563   9.471   5.966 -0.0499 -0.1021  0.1723
    1DPPC   C4A 2612  15.447   9.207   5.645 -0.1427 -0.1037 -0.0555
    1DPPC   C1B 2613  15.709   8.934   6.909 -0.0994 -0.2275  0.2442
    1DPPC   C2B 2614  15.420   8.710   6.545  0.0630  0.0595 -0.1032
    1DPPC   C3B 2615  15.395   8.635   6.074 -0.2101 -0.0620  0.0337
    1DPPC   C4B 2616  15.455   8.414   5.734  0.1086 -0.0710  0.0661
    1DPPC   NC3 2617   9.156  17.682   7.137 -0.2732  0.0157 -0.2223
    1DPPC   PO4 2618   9.086  17.866   6.708  0.0363  0.0870  0.5940
    1DPPC   GL1 2619   9.204  17.692   6.256  0.4694 -0.2766  0.2753
    1DPPC   GL2 2620   9.490  17.678   6.062  0.1883  0.3129  0.1276
    1DPPC   C1A 2621   9.038  17.738   5.859 -0.1669 -0.1704  0.0167
    1DPPC   C2A 2622   8.687  17.748   5.612 -0.1906  0.1451  0.0658
    1DPPC   C3A 2623   8.471  17.670   5.315 -0.0343 -0.0797  0.0763
    1DPPC   C4A 2624   8.320  17.697   4.976  0.0379  0.0785 -0.1478
    1DPPC   C1B 2625   9.503  17.724   5.587  0.1843  0.2374  0.3972
    1DPPC   C2B 2626   9.527  17.650   5.140  0.0377 -0.1230 -0.0796
    1DPPC   C3B 2627   9.684  17.987   4.876  0.0894  0.2637  0.1422
    1DPPC   C4B 2628   9.679  18.231   4.562  0.0280  0.1722 -0.1820
    1DPPC   NC3 2629  17.151  12.745   7.705  0.0460 -0.3996 -0.0142
    1DPPC   PO4 2630  17.251  12.456   7.353 -0.1023  0.1577  0.1808
    1DPPC   GL1 2631  17.176  12.410   6.890 -0.1047  0.2528  0.0688
    1DPPC   GL2 2632  17.342  12.619   6.732  0.0373  0.0344  0.1243
    1DPPC   C1A 2633  16.900  12.499   6.448 -0.0093 -0.2595  0.2620
    1DPPC   C2A 2634  16.824  12.742   6.089  0.1013 -0.2116  0.0434
    1DPPC   C3A 2635  16.878  12.553   5.593  0.1443  0.0314  0.3032
    1DPPC   C4A 2636  16.758  12.553   5.132  0.1379 -0.2420 -0.0418
    1DPPC   C1B 2637  17.301  12.834   6.386 -0.0644 -0.0881 -0.0003
    1DPPC   C2B 2638  17.283  12.734   5.906  0.2412 -0.1580 -0.1259
    1DPPC   C3B 2639  17.482  12.835   5.473 -0.0648 -0.3322  0.2039
    1DPPC   C4B 2640  17.282  12.558   5.258 -0.0712  0.2661 -0.1015
    1DPPC   NC3 2641  11.210  17.177   7.421 -0.0518 -0.0954  0.2390
    1DPPC   PO4 2642  11.256  17.392   7.007 -0.1826  0.0720  0.1267
    1DPPC   GL1 2643  10.915  17.384   6.659 -0.0576 -0.0462 -0.1896
    1DPPC   GL2 2644  10.634  17.347   6.592 -0.1359  0.1800 -0.1368
    1DPPC   C1A 2645  10.973  17.398   6.199  0.0003 -0.2423  0.2784
    1DPPC   C2A 2646  10.950  17.421   5.726 -0.0910 -0.0165 -0.2281
    1DPPC   C3A 2647  10.955  17.362   5.309 -0.0978 -0.3366  0.1646
    1DPPC   C4A 2648  11.276  17.442   4.879 -0.1112  0.0971 -0.1671
    1DPPC   C1B 2649  10.669  16.986   6.373 -0.0260 -0.2916  0.0180
    1DPPC   C2B 2650  10.747  16.886   5.953 -0.0040 -0.2695 -0.0566
    1DPPC   C3B 2651  10.734  16.914   5.515 -0.0975 -0.1028  0.3506
    1DPPC   C4B 2652  10.564  17.003   5.153  0.1985  0.0384  0.1996
    1DPPC   NC3 2653   9.656  17.163   6.745  0.3093 -0.2437 -0.0133
    1DPPC   PO4 2654   9.425  16.912   6.693  0.1144 -0.1010  0.0823
    1DPPC   GL1 2655   9.283  16.693   6.325 -0.1797 -0.1954  0.1473
    1DPPC   GL2 2656   8.967  16.572   6.371  0.1414  0.0824  0.1050
    1DPPC   C1A 2657   9.103  16.687   5.853 -0.2500 -0.0768  0.1498
    1DPPC   C2A 2658   9.295  16.795   5.359  0.0219  0.2639  0.1416
    1DPPC   C3A 2659   9.245  16.794   5.014 -0.0958 -0.3777  0.0680
    1DPPC   C4A 2660   9.556  16.773   4.718  0.1308 -0.0896  0.0254
    1DPPC   C1B 2661   8.947  16.247   6.046 -0.1040  0.0149  0.0512
    1DPPC   C2B 2662   8.824  16.192   5.625 -0.3499  0.3590 -0.3696
    1DPPC   C3B 2663   8.538  16.239   5.276  0.0983  0.0106  0.1226
    1DPPC   C4B 2664   8.371  16.692   5.123  0.0387  0.1842 -0.0690
    1DPPC   NC3 2665  19.096  15.202   7.061 -0.1369  0.0477 -0.4275
    1DPPC   PO4 2666  19.013  15.657   7.051  0.1443  0.2055  0.0188
    1DPPC   GL1 2667  18.929  15.453   6.643  0.2243 -0.3896  0.2905
    1DPPC   GL2 2668  19.048  15.160   6.603  0.1261  0.1100  0.1178
    1DPPC   C1A 2669  18.801  15.565   6.257  0.1406 -0.2339 -0.1360
    1DPPC   C2A 2670  18.620  15.544   5.792  0.0644 -0.2150  0.2343
    1DPPC   C3A 2671  18.536  15.441   5.397  0.5105 -0.1071 -0.0719
    1DPPC   C4A 2672  18.345  15.577   5.052 -0.1094  0.1815  0.0166
    1DPPC   C1B 2673  19.014  15.095   6.139 -0.2236 -0.2821 -0.0906
    1DPPC   C2B 2674  18.935  15.046   5.676  0.0478 -0.1061 -0.0427
    1DPPC   C3B 2675  18.774  14.989   5.319 -0.1249 -0.1494 -0.1413
    1DPPC   C4B 2676  18.533  15.138   5.007 -0.0358  0.2803  0.2997
    1DPPC   NC3 2677  12.520  10.863   7.285 -0.1719 -0.0651  0.0252
    1DPPC   PO4 2678  12.806  11.105   7.369  0.1274  0.2229  0.0271
    1DPPC   GL1 2679  12.740  11.249   7.016  0.0277  0.2886  0.1148
    1DPPC   GL2 2680  12.517  11.078   6.721 -0.1191  0.0237 -0.2107
    1DPPC   C1A 2681  12.870  11.492   6.641  0.0586  0.1206 -0.0319
    1DPPC   C2A 2682  12.970  11.507   6.223 -0.1322  0.0947  0.0709
    1DPPC   C3A 2683  12.868  11.465   5.803  0.1692 -0.6069 -0.0436
    1DPPC   C4A 2684  12.865  11.536   5.386  0.0970  0.2081 -0.1516
    1DPPC   C1B 2685  12.649  11.135   6.364 -0.1457  0.0764 -0.0643
    1DPPC   C2B 2686  12.730  10.999   5.917  0.0709 -0.3044  0.1548
    1DPPC   C3B 2687  12.851  11.029   5.510 -0.2696  0.0881 -0.0080
    1DPPC   C4B 2688  13.206  10.823   5.252  0.1048 -0.0354 -0.3484
    1DPPC   NC3 2689  15.816  17.098   7.332 -0.1646 -0.0455 -0.0735
    1DPPC   PO4 2690  16.186  16.870   7.378 -0.1127  0.0897  0.0264
    1DPPC   GL1 2691  15.902  16.721   7.033 -0.2938  0.1433 -0.1641
    1DPPC   GL2 2692  15.979  16.362   6.963  0.3126 -0.1217 -0.1657
    1DPPC   C1A 2693  15.969  16.811   6.626 -0.0723 -0.1502 -0.0832
    1DPPC   C2A 2694  16.068  16.892   6.257  0.1167  0.0563 -0.0577
    1DPPC   C3A 2695  16.223  17.273   6.068 -0.0731 -0.0887 -0.0285
    1DPPC   C4A 2696  16.221  17.508   5.711 -0.5124 -0.1055  0.1814
    1DPPC   C1B 2697  15.710  16.342   6.520 -0.2222 -0.2285 -0.0535
    1DPPC   C2B 2698  15.907  16.404   6.118  0.1707  0.0371 -0.1903
    1DPPC   C3B 2699  16.065  16.564   5.853 -0.1229 -0.1477  0.0027
    1DPPC   C4B 2700  16.171  16.939   5.647  0.1591 -0.1676  0.0410
    1DPPC   NC3 2701  15.360  11.907   7.372 -0.1527 -0.0705  0.0469
    1DPPC   PO4 2702  15.508  12.349   7.523 -0.0017 -0.0528  0.2842
    1DPPC   GL1 2703  15.629  12.569   7.111 -0.0270 -0.0449  0.0571
    1DPPC   GL2 2704  15.892  12.605   6.873  0.0555 -0.2443 -0.1830
    1DPPC   C1A 2705  15.424  12.573   6.706 -0.2688 -0.0705 -0.0992
    1DPPC   C2A 2706  15.448  12.533   6.276  0.1211  0.2069  0.0330
    1DPPC   C3A 2707  15.430  12.441   5.879 -0.0365 -0.4083 -0.1287
    1DPPC   C4A 2708  15.356  12.505   5.476 -0.2513  0.1489 -0.2614
    1DPPC   C1B 2709  15.902  12.650   6.457  0.1716  0.0976 -0.2280
    1DPPC   C2B 2710  15.886  12.556   6.030 -0.4294  0.0007  0.2316
    1DPPC   C3B 2711  15.956  12.513   5.612 -0.0612  0.0103  0.2080
    1DPPC   C4B 2712  15.750  12.542   5.229  0.0358  0.2311 -0.2410
    1DPPC   NC3 2713  12.589  17.685   7.261  0.1912 -0.0421  0.4703
    1DPPC   PO4 2714  12.960  17.695   7.452  0.0502 -0.0942  0.0888
    1DPPC   GL1 2715  13.020  17.604   7.051  0.1451  0.4336 -0.0071
    1DPPC   GL2 2716  12.886  17.393   6.917 -0.0866  0.1263  0.1260
    1DPPC   C1A 2717  13.043  17.858   6.658 -0.0062  0.2225  0.0890
    1DPPC   C2A 2718  13.087  17.868   6.243 -0.1159  0.0635  0.0655
    1DPPC   C3A 2719  13.032  17.857   5.924 -0.1932  0.0429  0.1312
    1DPPC   C4A 2720  12.831  17.800   5.617  0.1938  0.0924  0.4373
    1DPPC   C1B 2721  12.768  17.463   6.443 -0.0494  0.3349 -0.2084
    1DPPC   C2B 2722  12.724  17.377   5.986 -0.2616  0.0448  0.2647
    1DPPC   C3B 2723  12.540  17.332   5.654  0.2419 -0.1856 -0.3242
    1DPPC   C4B 2724  12.548  17.454   5.216  0.1935  0.2772  0.0617
    1DPPC   NC3 2725  17.799  10.545   6.924  0.1066 -0.1905  0.0839
    1DPPC   PO4 2726  17.707  10.978   7.000 -0.0014 -0.4265  0.0396
    1DPPC   GL1 2727  17.525  10.853   6.623  0.4015 -0.1159  0.3682
    1DPPC   GL2 2728  17.817  10.733   6.405  0.0777 -0.1073 -0.4733
    1DPPC   C1A 2729  17.324  10.990   6.345 -0.1504  0.1117 -0.2306
    1DPPC   C2A 2730  17.150  10.843   5.946  0.0316 -0.1158 -0.2297
    1DPPC   C3A 2731  17.029  10.818   5.478 -0.0482  0.2767  0.3816
    1DPPC   C4A 2732  17.102  11.102   5.081  0.3066  0.0655 -0.0321
    1DPPC   C1B 2733  17.710  10.682   6.033 -0.0945 -0.0057  0.1374
    1DPPC   C2B 2734  17.522  10.745   5.587  0.1246 -0.1150 -0.0506
    1DPPC   C3B 2735  17.436  10.655   5.190  0.2334 -0.0514 -0.1456
    1DPPC   C4B 2736  17.021  10.494   5.068  0.0171 -0.2186  0.3430
    1DPPC   NC3 2737  13.984   9.597   7.698 -0.0957 -0.1442 -0.0802
    1DPPC   PO4 2738  14.128   9.884   7.711  0.0738 -0.0280 -0.1879
    1DPPC   GL1 2739  14.204   9.963   7.334  0.0668  0.1074 -0.2654
    1DPPC   GL2 2740  14.572  10.036   7.266  0.1703  0.0114  0.1259
    1DPPC   C1A 2741  14.010   9.845   6.941  0.0705 -0.0142 -0.0643
    1DPPC   C2A 2742  13.908   9.779   6.506 -0.1005  0.1886 -0.3148
    1DPPC   C3A 2743  13.813   9.696   6.140  0.3386  0.3027 -0.1323
    1DPPC   C4A 2744  13.670   9.746   5.739 -0.0884  0.3844  0.1922
    1DPPC   C1B 2745  14.526   9.804   6.926  0.0376  0.0063 -0.2313
    1DPPC   C2B 2746  14.381   9.882   6.524 -0.0208  0.1366  0.1140
    1DPPC   C3B 2747  14.305   9.865   6.158 -0.2985 -0.1870  0.1814
    1DPPC   C4B 2748  14.236   9.828   5.779  0.2262  0.1122 -0.0424
    1DPPC   NC3 2749  15.871  10.096   7.281  0.1511  0.3905 -0.0472
    1DPPC   PO4 2750  16.269  10.043   7.254 -0.1646  0.0124  0.2052
    1DPPC   GL1 2751  16.175  10.050   6.787 -0.0264  0.5240  0.1680
    1DPPC   GL2 2752  16.097   9.763   6.867 -0.0909  0.3469 -0.0907
    1DPPC   C1A 2753  15.926  10.084   6.545  0.1911  0.3719  0.1636
    1DPPC   C2A 2754  15.848   9.984   6.165 -0.0810  0.1712 -0.2597
    1DPPC   C3A 2755  15.785   9.816   5.676 -0.1284  0.1683  0.2009
    1DPPC   C4A 2756  15.708   9.652   5.257  0.0186  0.0624  0.0348
    1DPPC   C1B 2757  16.024   9.533   6.570  0.0057 -0.0824 -0.1438
    1DPPC   C2B 2758  16.075   9.431   6.153  0.1838 -0.3118 -0.2667
    1DPPC   C3B 2759  16.026   9.323   5.726  0.0584 -0.1678 -0.4718
    1DPPC   C4B 2760  15.988   9.247   5.201 -0.0450  0.2436 -0.1900
    1DPPC   NC3 2761  10.453   5.664   7.178 -0.2876 -0.0352 -0.0066
    1DPPC   PO4 2762  10.200   5.622   6.880 -0.0438 -0.2134 -0.1191
    1DPPC   GL1 2763  10.296   5.338   6.569 -0.3036  0.0382  0.2415
    1DPPC   GL2 2764  10.461   5.020   6.679 -0.2622  0.3506 -0.0823
    1DPPC   C1A 2765  10.081   5.058   6.267  0.3290 -0.1414 -0.0713
    1DPPC   C2A 2766  10.134   4.717   6.008  0.2222  0.3087  0.1629
    1DPPC   C3A 2767  10.230   4.852   5.525  0.4432  0.2556 -0.0791
    1DPPC   C4A 2768  10.219   4.849   5.027  0.0239  0.0299  0.5136
    1DPPC   C1B 2769  10.602   5.040   6.252  0.3261  0.1808 -0.1278
    1DPPC   C2B 2770  10.470   5.061   5.867  0.2034 -0.1854 -0.0853
    1DPPC   C3B 2771  10.666   5.103   5.404 -0.4872 -0.1372 -0.0790
    1DPPC   C4B 2772  11.024   5.066   5.144  0.1111 -0.0768  0.0348
    1DPPC   NC3 2773  14.127  21.172   7.443 -0.0032  0.0195  0.0588
    1DPPC   PO4 2774  14.389  20.892   7.501  0.1175  0.1002  0.1515
    1DPPC   GL1 2775  14.600  21.139   7.196  0.0844  0.3860  0.0629
    1DPPC   GL2 2776  14.498  20.871   6.937 -0.2573  0.0334 -0.0717
    1DPPC   C1A 2777  14.741  21.489   6.849  0.0240 -0.1002  0.2072
    1DPPC   C2A 2778  14.903  21.559   6.481  0.2434 -0.0612  0.1462
    1DPPC   C3A 2779  14.940  21.785   6.057  0.3169  0.3081 -0.1100
    1DPPC   C4A 2780  15.058  21.767   5.572 -0.0852  0.0765 -0.1055
    1DPPC   C1B 2781  14.733  20.992   6.522 -0.0792  0.1782  0.1242
    1DPPC   C2B 2782  14.849  21.126   6.059  0.2104  0.0209  0.0213
    1DPPC   C3B 2783  15.031  21.280   5.686  0.0724 -0.1225  0.2259
    1DPPC   C4B 2784  14.850  21.383   5.233 -0.2834 -0.1899 -0.3215
    1DPPC   NC3 2785  12.530  19.892   7.268  0.2126 -0.0143  0.1344
    1DPPC   PO4 2786  12.682  19.520   7.349  0.1032 -0.3641 -0.2463
    1DPPC   GL1 2787  13.020  19.645   7.042 -0.0025  0.0612 -0.0259
    1DPPC   GL2 2788  13.356  19.447   6.913  0.2056  0.3382  0.0796
    1DPPC   C1A 2789  13.061  19.804   6.639  0.1219  0.2010 -0.1107
    1DPPC   C2A 2790  13.283  19.826   6.247  0.1979  0.0087  0.1043
    1DPPC   C3A 2791  13.203  19.692   5.927 -0.0496  0.2278  0.2511
    1DPPC   C4A 2792  13.367  19.802   5.552 -0.0487 -0.0711 -0.1973
    1DPPC   C1B 2793  13.409  19.357   6.566  0.3520  0.0605  0.2074
    1DPPC   C2B 2794  13.557  19.403   6.150 -0.1209 -0.1918 -0.0467
    1DPPC   C3B 2795  13.651  19.456   5.736 -0.0987  0.2617 -0.1047
    1DPPC   C4B 2796  13.539  19.401   5.312 -0.1250 -0.1293  0.0766
    1DPPC   NC3 2797  11.292  15.878   7.306  0.2781  0.0077 -0.0769
    1DPPC   PO4 2798  10.907  16.105   7.221 -0.0043 -0.3069 -0.3247
    1DPPC   GL1 2799  10.827  16.098   6.801 -0.2049  0.3076  0.1576
    1DPPC   GL2 2800  10.575  16.455   6.660 -0.0849 -0.1142  0.3386
    1DPPC   C1A 2801  10.667  15.968   6.338 -0.1079  0.1243 -0.2823
    1DPPC   C2A 2802  10.593  16.008   6.002  0.0865 -0.0122  0.1064
    1DPPC   C3A 2803  10.470  16.017   5.580 -0.0871  0.3966  0.0439
    1DPPC   C4A 2804  10.437  15.820   5.205  0.0601 -0.0852 -0.0190
    1DPPC   C1B 2805  10.540  16.484   6.223  0.2694 -0.2934  0.2715
    1DPPC   C2B 2806  10.547  16.455   5.787 -0.3315  0.1072  0.0967
    1DPPC   C3B 2807  10.460  16.471   5.465  0.0608  0.0780 -0.0817
    1DPPC   C4B 2808  10.406  16.366   5.078  0.2068 -0.1560 -0.0679
    1DPPC   NC3 2809  19.082  13.095   7.438  0.4164  0.0975  0.2544
    1DPPC   PO4 2810  18.840  13.091   7.166 -0.0629 -0.2053  0.2609
    1DPPC   GL1 2811  18.907  12.975   6.792 -0.1898 -0.0750 -0.2895
    1DPPC   GL2 2812  18.888  13.256   6.706 -0.2065 -0.0988  0.0835
    1DPPC   C1A 2813  19.193  13.060   6.360  0.1316 -0.2572  0.2763
    1DPPC   C2A 2814  19.378  12.997   5.977 -0.4817 -0.2497 -0.1231
    1DPPC   C3A 2815  19.545  13.012   5.515 -0.0759  0.1911  0.2844
    1DPPC   C4A 2816  19.793  12.859   5.330 -0.0973  0.1466  0.2386
    1DPPC   C1B 2817  18.898  13.538   6.287 -0.1150  0.0452  0.0132
    1DPPC   C2B 2818  19.107  13.554   5.893  0.0475 -0.0650  0.2478
    1DPPC   C3B 2819  19.153  13.465   5.418  0.0966 -0.0368 -0.2915
    1DPPC   C4B 2820  19.111  13.738   5.083  0.3485  0.1363  0.1651
    1DPPC   NC3 2821  18.774   7.097   7.062 -0.1987 -0.2157  0.0091
    1DPPC   PO4 2822  18.771   6.592   7.108  0.0424  0.3571 -0.0820
    1DPPC   GL1 2823  18.633   6.825   6.684  0.0066  0.0401 -0.0101
    1DPPC   GL2 2824  18.926   6.971   6.540  0.0502 -0.0516 -0.1251
    1DPPC   C1A 2825  18.707   6.502   6.361  0.2399  0.1738  0.2815
    1DPPC   C2A 2826  18.450   6.489   5.967  0.0217  0.0282  0.0568
    1DPPC   C3A 2827  18.500   6.532   5.506 -0.1736  0.0058 -0.0425
    1DPPC   C4A 2828  18.357   6.710   5.087 -0.2908  0.0400  0.0541
    1DPPC   C1B 2829  18.604   7.038   6.190 -0.2280  0.0402 -0.0207
    1DPPC   C2B 2830  18.446   7.060   5.780 -0.4977  0.4081  0.0703
    1DPPC   C3B 2831  18.449   7.230   5.377 -0.0951  0.0235 -0.0840
    1DPPC   C4B 2832  18.381   7.356   5.018  0.0449 -0.2960  0.3023
    1DPPC   NC3 2833  16.975  21.060   7.327  0.1368 -0.1750 -0.1945
    1DPPC   PO4 2834  17.328  21.332   7.225 -0.3567 -0.1436  0.0946
    1DPPC   GL1 2835  17.255  21.183   6.825 -0.2440  0.0018  0.2550
    1DPPC   GL2 2836  17.583  21.131   6.720 -0.1348 -0.0926  0.0322
    1DPPC   C1A 2837  17.017  21.169   6.456  0.0454  0.0425  0.0895
    1DPPC   C2A 2838  16.931  21.214   6.089  0.0605 -0.0037 -0.0651
    1DPPC   C3A 2839  16.729  21.256   5.813 -0.3720 -0.1134  0.0335
    1DPPC   C4A 2840  16.412  21.408   5.579 -0.0583 -0.1005 -0.5843
    1DPPC   C1B 2841  17.462  21.154   6.271 -0.1440 -0.0676 -0.2103
    1DPPC   C2B 2842  17.422  21.200   5.872 -0.0061  0.3289  0.2797
    1DPPC   C3B 2843  17.139  21.227   5.569  0.3765 -0.2094 -0.2424
    1DPPC   C4B 2844  16.766  21.087   5.334 -0.3109  0.1389 -0.1791
    1DPPC   NC3 2845  13.331   9.063   7.799 -0.2127  0.0109 -0.1672
    1DPPC   PO4 2846  13.515   8.655   8.007 -0.0046 -0.3432  0.0825
    1DPPC   GL1 2847  13.428   8.591   7.603 -0.0827  0.3104 -0.0894
    1DPPC   GL2 2848  13.635   8.467   7.436 -0.0065  0.0070 -0.0809
    1DPPC   C1A 2849  13.135   8.450   7.277  0.2201 -0.1896 -0.4406
    1DPPC   C2A 2850  13.037   8.326   6.950 -0.0014 -0.3703  0.1218
    1DPPC   C3A 2851  12.795   8.382   6.569  0.1416  0.1374  0.1428
    1DPPC   C4A 2852  12.577   8.734   6.553  0.1784 -0.1208  0.0690
    1DPPC   C1B 2853  13.550   8.517   6.983  0.0021 -0.2338  0.1870
    1DPPC   C2B 2854  13.582   8.445   6.563  0.2327  0.1189 -0.0428
    1DPPC   C3B 2855  13.650   8.232   6.125  0.1997  0.1710  0.0789
    1DPPC   C4B 2856  13.657   7.934   5.744  0.0022 -0.3307 -0.2282
    1DPPC   NC3 2857  10.951  19.360   7.063  0.1302 -0.0710  0.2473
    1DPPC   PO4 2858  10.896  19.747   6.919 -0.1298  0.0591 -0.0861
    1DPPC   GL1 2859  10.982  19.441   6.533  0.2450  0.0553 -0.3581
    1DPPC   GL2 2860  11.161  19.104   6.630 -0.1347  0.2015 -0.2067
    1DPPC   C1A 2861  10.837  19.416   6.252  0.2988  0.0474  0.0487
    1DPPC   C2A 2862  10.783  19.494   5.838 -0.0670  0.0420 -0.1224
    1DPPC   C3A 2863  11.056  19.426   5.454  0.0720  0.2859  0.4434
    1DPPC   C4A 2864  11.103  19.425   5.065  0.3294  0.2226  0.1044
    1DPPC   C1B 2865  11.282  19.177   6.249 -0.0058 -0.0625 -0.0497
    1DPPC   C2B 2866  11.244  19.106   5.774 -0.1304  0.0929  0.2878
    1DPPC   C3B 2867  11.498  19.239   5.410  0.0296  0.1420 -0.2991
    1DPPC   C4B 2868  11.610  19.489   5.064 -0.0463 -0.1693 -0.3626
    1DPPC   NC3 2869   6.031  15.268   6.422  0.3728  0.0452 -0.0846
    1DPPC   PO4 2870   6.114  15.603   6.506 -0.2017  0.0493 -0.1875
    1DPPC   GL1 2871   6.319  15.622   6.119 -0.3257  0.2952 -0.1255
    1DPPC   GL2 2872   6.661  15.695   6.031 -0.1979  0.0196  0.0352
    1DPPC   C1A 2873   6.232  15.620   5.558  0.1327 -0.0524 -0.2210
    1DPPC   C2A 2874   6.187  15.652   5.097 -0.3728  0.0752 -0.0871
    1DPPC   C3A 2875   6.231  15.536   4.695 -0.0904  0.0053 -0.1699
    1DPPC   C4A 2876   5.969  15.464   4.328  0.2453 -0.0410  0.0678
    1DPPC   C1B 2877   6.573  15.317   5.741 -0.0879  0.1399  0.0181
    1DPPC   C2B 2878   6.528  15.229   5.372 -0.0925  0.0314  0.0478
    1DPPC   C3B 2879   6.450  15.100   4.904  0.1772  0.0642  0.2421
    1DPPC   C4B 2880   6.377  14.882   4.525  0.2186 -0.2053  0.0605
    1DPPC   NC3 2881  20.434  14.191   7.163 -0.1600 -0.1599  0.2918
    1DPPC   PO4 2882  20.005  14.321   7.272 -0.0202 -0.1718 -0.1457
    1DPPC   GL1 2883  19.978  14.290   6.844  0.0084  0.2042 -0.3026
    1DPPC   GL2 2884  20.189  14.458   6.811 -0.0490 -0.0986  0.0465
    1DPPC   C1A 2885  19.689  14.263   6.499 -0.1786 -0.2310  0.0983
    1DPPC   C2A 2886  19.659  14.396   6.091  0.1023  0.2848 -0.2399
    1DPPC   C3A 2887  19.631  14.306   5.624  0.2785 -0.1751  0.1120
    1DPPC   C4A 2888  19.842  14.307   5.194  0.1937  0.0683  0.2886
    1DPPC   C1B 2889  20.151  14.399   6.418  0.1218 -0.0426  0.1503
    1DPPC   C2B 2890  20.119  14.366   6.068  0.3564 -0.1712 -0.1929
    1DPPC   C3B 2891  20.160  14.477   5.636 -0.1891  0.2151 -0.1092
    1DPPC   C4B 2892  20.220  14.576   5.229 -0.2808  0.4122 -0.0843
    1DPPC   NC3 2893  14.313  12.733   7.270 -0.0020  0.2852 -0.1389
    1DPPC   PO4 2894  13.854  12.945   7.271 -0.0760  0.0523  0.0318
    1DPPC   GL1 2895  13.740  12.813   6.868  0.2691  0.1118  0.2469
    1DPPC   GL2 2896  13.470  12.671   6.922 -0.0932 -0.1992 -0.1416
    1DPPC   C1A 2897  13.953  12.892   6.515 -0.0744 -0.0102 -0.0340
    1DPPC   C2A 2898  14.085  12.918   6.123 -0.1458  0.0662  0.1344
    1DPPC   C3A 2899  13.992  12.905   5.710  0.1847  0.0672 -0.0053
    1DPPC   C4A 2900  14.004  13.031   5.341  0.0713  0.2569 -0.1149
    1DPPC   C1B 2901  13.457  12.711   6.492 -0.1330  0.1529 -0.1699
    1DPPC   C2B 2902  13.587  12.741   6.106  0.2273  0.0740 -0.1495
    1DPPC   C3B 2903  13.478  12.748   5.671  0.2401 -0.0274  0.1878
    1DPPC   C4B 2904  13.389  12.739   5.307 -0.0321  0.0601 -0.0450
    1DPPC   NC3 2905  11.047   5.879   7.228  0.1741  0.3008 -0.0641
    1DPPC   PO4 2906  10.835   6.208   7.095  0.0794  0.2364 -0.0967
    1DPPC   GL1 2907  11.027   6.397   6.800 -0.2534 -0.0463 -0.0340
    1DPPC   GL2 2908  11.398   6.565   6.759 -0.2618 -0.1464 -0.2166
    1DPPC   C1A 2909  10.946   6.430   6.429  0.0093  0.0413 -0.0531
    1DPPC   C2A 2910  10.699   6.265   6.141  0.3754 -0.1485 -0.3272
    1DPPC   C3A 2911  10.638   6.245   5.786 -0.0262 -0.4867 -0.2262
    1DPPC   C4A 2912  10.495   6.139   5.330 -0.1339 -0.1462 -0.0360
    1DPPC   C1B 2913  11.375   6.702   6.351 -0.2068  0.4081  0.2238
    1DPPC   C2B 2914  11.216   6.629   5.910 -0.0633  0.1672 -0.1509
    1DPPC   C3B 2915  11.029   6.516   5.573 -0.0212  0.0008  0.3482
    1DPPC   C4B 2916  10.995   6.477   5.169 -0.0617 -0.5001 -0.3903
    1DPPC   NC3 2917  18.779  17.578   7.721 -0.2052  0.2366 -0.0088
    1DPPC   PO4 2918  18.390  17.747   7.533 -0.0876  0.0676 -0.0079
    1DPPC   GL1 2919  18.675  17.751   7.202  0.0700 -0.3703  0.0738
    1DPPC   GL2 2920  18.571  17.889   6.902  0.0613 -0.0197  0.1518
    1DPPC   C1A 2921  19.056  17.787   6.959 -0.3004  0.1776  0.1989
    1DPPC   C2A 2922  19.145  17.903   6.542 -0.0672 -0.0654 -0.0449
    1DPPC   C3A 2923  19.164  17.997   6.108 -0.2910 -0.0788 -0.2644
    1DPPC   C4A 2924  18.922  18.202   5.771 -0.3591 -0.1251  0.2474
    1DPPC   C1B 2925  18.649  17.888   6.462  0.0020 -0.1354 -0.0858
    1DPPC   C2B 2926  18.637  17.863   6.077  0.0524  0.1113  0.2511
    1DPPC   C3B 2927  18.477  17.810   5.649  0.0361 -0.1902 -0.0216
    1DPPC   C4B 2928  18.760  18.024   5.334 -0.3320 -0.4421 -0.1550
    1DPPC   NC3 2929  17.502  18.634   7.513  0.0188  0.3322 -0.3188
    1DPPC   PO4 2930  17.870  18.354   7.446 -0.1670 -0.3599 -0.0658
    1DPPC   GL1 2931  17.706  18.356   6.987  0.1426 -0.1370 -0.0961
    1DPPC   GL2 2932  17.552  18.574   6.973 -0.0526  0.0297  0.0966
    1DPPC   C1A 2933  17.806  18.370   6.500 -0.0042 -0.0214  0.0647
    1DPPC   C2A 2934  17.819  18.275   6.100 -0.4513 -0.1996 -0.0624
    1DPPC   C3A 2935  17.564  18.107   5.707 -0.0490 -0.2321  0.1744
    1DPPC   C4A 2936  17.632  17.794   5.359 -0.0829  0.0239 -0.0677
    1DPPC   C1B 2937  17.427  18.654   6.603 -0.1257  0.5608 -0.1728
    1DPPC   C2B 2938  17.339  18.835   6.290 -0.0330 -0.1365  0.3880
    1DPPC   C3B 2939  17.376  19.113   5.978  0.2142  0.1824  0.0449
    1DPPC   C4B 2940  17.435  19.580   6.038 -0.0957  0.3691 -0.0452
    1DPPC   NC3 2941  14.604  10.986   8.236  0.0456  0.0015  0.1160
    1DPPC   PO4 2942  14.611  10.758   7.752  0.0343  0.0671  0.0227
    1DPPC   GL1 2943  14.538  10.546   7.321 -0.0092 -0.1541 -0.4680
    1DPPC   GL2 2944  14.666  10.815   7.175 -0.2517 -0.1604 -0.2327
    1DPPC   C1A 2945  14.483  10.376   6.906 -0.1611 -0.0526 -0.1945
    1DPPC   C2A 2946  14.432  10.355   6.506  0.3090 -0.2200 -0.0734
    1DPPC   C3A 2947  14.520  10.347   6.024  0.1788 -0.2503 -0.0488
    1DPPC   C4A 2948  14.384  10.270   5.586 -0.1722 -0.0047  0.1296
    1DPPC   C1B 2949  14.794  10.868   6.716 -0.0753  0.2368  0.2681
    1DPPC   C2B 2950  14.718  10.742   6.235  0.0627 -0.3141 -0.1804
    1DPPC   C3B 2951  14.694  10.766   5.802  0.0964  0.1583  0.0178
    1DPPC   C4B 2952  14.954  10.856   5.493 -0.1179 -0.1713 -0.0029
    1DPPC   NC3 2953  25.716   8.393   6.319  0.0529  0.2390 -0.2068
    1DPPC   PO4 2954  25.354   8.178   6.234 -0.2434 -0.0621  0.1304
    1DPPC   GL1 2955  25.147   8.217   5.816 -0.0746 -0.3721  0.0746
    1DPPC   GL2 2956  25.008   7.820   5.810  0.1926 -0.2501  0.2556
    1DPPC   C1A 2957  24.992   8.362   5.346  0.0245 -0.0148  0.2086
    1DPPC   C2A 2958  24.691   8.372   5.222 -0.4106  0.0241  0.1360
    1DPPC   C3A 2959  24.316   8.429   4.986 -0.0679 -0.0912  0.2036
    1DPPC   C4A 2960  23.888   8.311   4.764 -0.3641  0.0882  0.0363
    1DPPC   C1B 2961  24.905   7.877   5.386 -0.2001 -0.3718  0.0799
    1DPPC   C2B 2962  24.835   7.632   5.032  0.0557  0.1219 -0.0005
    1DPPC   C3B 2963  24.815   7.551   4.562  0.1175  0.0399 -0.2771
    1DPPC   C4B 2964  24.731   7.783   4.205 -0.1132 -0.1046  0.0087
    1DPPC   NC3 2965  10.070   8.329   7.711 -0.2831 -0.0992 -0.0844
    1DPPC   PO4 2966  10.351   8.486   7.400  0.0594  0.0805  0.0862
    1DPPC   GL1 2967  10.292   8.421   7.035  0.1204  0.1400  0.2645
    1DPPC   GL2 2968  10.066   8.541   6.806  0.0605 -0.1191 -0.3248
    1DPPC   C1A 2969  10.312   8.135   6.690 -0.0364 -0.3886 -0.1111
    1DPPC   C2A 2970  10.468   8.109   6.322  0.0014  0.1017 -0.0008
    1DPPC   C3A 2971  10.431   8.172   5.894  0.4460 -0.1306  0.2662
    1DPPC   C4A 2972  10.469   8.021   5.435  0.0898  0.1184  0.4683
    1DPPC   C1B 2973  10.009   8.345   6.380 -0.0007 -0.2330  0.1504
    1DPPC   C2B 2974   9.891   8.294   5.920 -0.0437 -0.2808  0.2298
    1DPPC   C3B 2975   9.985   8.105   5.491 -0.0676  0.2185  0.1728
    1DPPC   C4B 2976   9.784   7.673   5.368 -0.0841  0.0726  0.0291
    1DPPC   NC3 2977  16.441   9.301   7.759  0.0507 -0.1878  0.1872
    1DPPC   PO4 2978  16.612   9.288   7.372  0.1089  0.1128 -0.1500
    1DPPC   GL1 2979  16.329   9.236   6.927  0.2764 -0.1092  0.1116
    1DPPC   GL2 2980  16.548   9.245   6.773 -0.0899  0.2902 -0.3866
    1DPPC   C1A 2981  16.120   9.023   6.600 -0.0645 -0.2007  0.0327
    1DPPC   C2A 2982  15.829   8.975   6.275 -0.0463 -0.0312  0.2202
    1DPPC   C3A 2983  15.771   8.918   5.849  0.1720  0.0633 -0.0693
    1DPPC   C4A 2984  15.771   8.864   5.468  0.2036 -0.2977  0.2504
    1DPPC   C1B 2985  16.494   9.301   6.361  0.0980  0.1699  0.0865
    1DPPC   C2B 2986  16.815   9.094   6.162  0.1020  0.3315 -0.1789
    1DPPC   C3B 2987  16.800   8.979   5.732 -0.2059 -0.1078 -0.0556
    1DPPC   C4B 2988  16.719   8.667   5.398 -0.0659 -0.2216 -0.1491
    1DPPC   NC3 2989   0.354  19.794   5.753  0.1582 -0.2514 -0.1700
    1DPPC   PO4 2990   0.080  19.409   5.637 -0.2345 -0.3039  0.0678
    1DPPC   GL1 2991  -0.132  19.068   5.440 -0.2033 -0.0068  0.0563
    1DPPC   GL2 2992   0.030  18.772   5.395  0.1995 -0.1781  0.2424
    1DPPC   C1A 2993  -0.283  18.945   5.063  0.3132 -0.1687  0.0454
    1DPPC   C2A 2994  -0.323  18.944   4.627 -0.0599  0.0502  0.3557
    1DPPC   C3A 2995  -0.115  19.000   4.181  0.3019 -0.2366  0.0317
    1DPPC   C4A 2996   0.319  19.024   3.968  0.0239 -0.3312 -0.0511
    1DPPC   C1B 2997   0.007  18.513   5.065 -0.0802 -0.0989  0.0804
    1DPPC   C2B 2998  -0.135  18.481   4.583 -0.1605 -0.0719 -0.1098
    1DPPC   C3B 2999  -0.335  18.524   4.262  0.1698  0.0775  0.1206
    1DPPC   C4B 3000  -0.473  18.714   3.896  0.2007  0.2831 -0.0384
    1DPPC   NC3 3001  17.698   3.920   7.427 -0.1850 -0.1098 -0.0750
    1DPPC   PO4 3002  17.491   4.304   7.480 -0.0131  0.0031 -0.0230
    1DPPC   GL1 3003  17.600   4.209   6.959 -0.0515 -0.0024 -0.0112
    1DPPC   GL2 3004  17.447   4.237   6.625 -0.3185 -0.0553  0.2335
    1DPPC   C1A 3005  17.833   3.981   6.535 -0.3267 -0.0089 -0.1284
    1DPPC   C2A 3006  17.897   4.206   6.122 -0.0805 -0.1747 -0.1931
    1DPPC   C3A 3007  18.114   4.367   5.732 -0.2620  0.1687 -0.0813
    1DPPC   C4A 3008  18.190   4.702   5.640  0.0745  0.1572 -0.0550
    1DPPC   C1B 3009  17.385   4.490   6.166  0.2513  0.2184 -0.0322
    1DPPC   C2B 3010  17.492   4.442   5.643 -0.1512 -0.3335  0.1046
    1DPPC   C3B 3011  17.444   4.444   5.325 -0.2702 -0.0944 -0.0725
    1DPPC   C4B 3012  17.109   4.341   5.212  0.0019 -0.3095  0.0326
    1DPPC   NC3 3013  15.239  21.687   7.631  0.0397  0.2578 -0.3850
    1DPPC   PO4 3014  15.438  22.069   7.789 -0.1810  0.1969 -0.1882
    1DPPC   GL1 3015  15.557  21.924   7.335  0.1695  0.1823  0.0693
    1DPPC   GL2 3016  15.373  21.779   7.144 -0.2071  0.1164 -0.1279
    1DPPC   C1A 3017  15.768  21.860   6.925 -0.0374  0.0591 -0.0084
    1DPPC   C2A 3018  15.798  21.965   6.529  0.2053 -0.0188  0.3157
    1DPPC   C3A 3019  15.744  21.912   6.067  0.1130 -0.0082  0.2415
    1DPPC   C4A 3020  16.066  21.870   5.757 -0.3822  0.4321  0.2073
    1DPPC   C1B 3021  15.367  21.743   6.664  0.0189 -0.1757 -0.1161
    1DPPC   C2B 3022  15.326  21.919   6.309  0.5132 -0.0092 -0.0058
    1DPPC   C3B 3023  15.224  22.100   5.830 -0.2159 -0.0913  0.1070
    1DPPC   C4B 3024  15.391  22.317   5.544  0.0119 -0.1626  0.0860
    1DPPC   NC3 3025  17.387  13.336   7.223  0.3171 -0.2070 -0.0952
    1DPPC   PO4 3026  17.497  13.760   7.189 -0.0508 -0.0117 -0.5965
    1DPPC   GL1 3027  17.240  13.684   6.860 -0.1208 -0.0378  0.1964
    1DPPC   GL2 3028  17.522  13.628   6.615 -0.0697  0.0804  0.1324
    1DPPC   C1A 3029  16.988  13.808   6.561  0.1192  0.1522 -0.2214
    1DPPC   C2A 3030  16.852  13.723   6.194 -0.3104 -0.1343  0.1697
    1DPPC   C3A 3031  16.865  13.693   5.746  0.0495 -0.1500 -0.1884
    1DPPC   C4A 3032  16.920  13.667   5.363  0.1423  0.4098  0.1788
    1DPPC   C1B 3033  17.399  13.771   6.258  0.0181  0.0698 -0.0761
    1DPPC   C2B 3034  17.390  13.802   5.915 -0.1189 -0.1022  0.2363
    1DPPC   C3B 3035  17.328  13.621   5.543  0.2882 -0.1281 -0.1434
    1DPPC   C4B 3036  17.418  13.331   5.324 -0.3773 -0.1171 -0.2323
    1DPPC   NC3 3037  27.382   3.590   6.697  0.3617  0.0479 -0.0795
    1DPPC   PO4 3038  27.147   3.264   6.654 -0.0316 -0.0850 -0.1597
    1DPPC   GL1 3039  26.992   3.541   6.254 -0.3165  0.0504 -0.2289
    1DPPC   GL2 3040  27.072   3.752   6.051  0.1113 -0.5308 -0.0779
    1DPPC   C1A 3041  26.693   3.533   5.848  0.0693 -0.0567  0.0310
    1DPPC   C2A 3042  26.681   3.795   5.400 -0.0116  0.1047  0.0221
    1DPPC   C3A 3043  26.710   3.883   4.875  0.0343  0.2848  0.0542
    1DPPC   C4A 3044  26.656   3.799   4.468 -0.1852 -0.0212 -0.0470
    1DPPC   C1B 3045  27.130   3.976   5.585 -0.1306  0.2341 -0.0852
    1DPPC   C2B 3046  27.061   4.150   5.230  0.0225  0.1466 -0.1664
    1DPPC   C3B 3047  27.047   4.632   5.115  0.3382 -0.2223 -0.2883
    1DPPC   C4B 3048  26.963   4.869   4.814  0.0902 -0.0394 -0.1960
    1DPPC   NC3 3049  16.140  13.147   7.469  0.0140 -0.1417 -0.0401
    1DPPC   PO4 3050  16.060  13.580   7.321 -0.2857 -0.5249 -0.1708
    1DPPC   GL1 3051  15.921  13.280   7.044  0.2220 -0.1285  0.0741
    1DPPC   GL2 3052  15.692  13.084   7.114  0.1906 -0.3206  0.0045
    1DPPC   C1A 3053  15.760  13.112   6.598  0.0180  0.0025 -0.0846
    1DPPC   C2A 3054  15.656  12.966   6.120 -0.1739  0.0344 -0.0584
    1DPPC   C3A 3055  15.461  12.909   5.699  0.0747 -0.3222 -0.0977
    1DPPC   C4A 3056  15.417  12.945   5.275  0.1961 -0.1720  0.2252
    1DPPC   C1B 3057  15.574  13.552   6.744  0.2333  0.0513 -0.1296
    1DPPC   C2B 3058  15.503  13.435   6.344  0.3959 -0.2374 -0.1500
    1DPPC   C3B 3059  15.448  13.412   5.930 -0.1479  0.2499  0.2097
    1DPPC   C4B 3060  15.364  13.382   5.594 -0.1120  0.0058  0.1119
    1DPPC   NC3 3061  14.503   5.131   7.426  0.2572 -0.0875 -0.0846
    1DPPC   PO4 3062  14.102   5.215   7.595  0.0760 -0.0257 -0.0946
    1DPPC   GL1 3063  14.177   5.474   7.290  0.1383  0.0619 -0.2977
    1DPPC   GL2 3064  14.003   5.813   7.276  0.0882  0.0283 -0.2634
    1DPPC   C1A 3065  14.162   5.545   6.876 -0.0685 -0.2509 -0.0187
    1DPPC   C2A 3066  14.078   5.330   6.455 -0.1746 -0.1697 -0.0405
    1DPPC   C3A 3067  13.938   5.236   6.068 -0.1279 -0.2243  0.3550
    1DPPC   C4A 3068  13.604   5.076   5.839  0.3479 -0.2992  0.1122
    1DPPC   C1B 3069  13.778   5.929   6.845 -0.2114  0.1546 -0.0268
    1DPPC   C2B 3070  13.881   5.876   6.400  0.0727 -0.1121  0.2748
    1DPPC   C3B 3071  13.872   6.018   6.077  0.0235  0.0279  0.2168
    1DPPC   C4B 3072  13.827   5.850   5.687 -0.0195  0.0604 -0.0726
    1DPPC   NC3 3073  12.747  20.755   7.644 -0.2002  0.2981  0.1341
    1DPPC   PO4 3074  12.636  21.135   7.334  0.2544 -0.2752 -0.0563
    1DPPC   GL1 3075  12.509  21.233   6.848 -0.1168  0.2033 -0.0937
    1DPPC   GL2 3076  12.719  20.978   6.843  0.1409 -0.1456 -0.1310
    1DPPC   C1A 3077  12.575  21.110   6.333 -0.0232 -0.1636  0.0192
    1DPPC   C2A 3078  12.660  21.157   5.886  0.0826 -0.2979 -0.1143
    1DPPC   C3A 3079  12.811  21.043   5.589 -0.1527  0.2478  0.1075
    1DPPC   C4A 3080  12.822  21.101   5.151 -0.2252 -0.1359  0.3145
    1DPPC   C1B 3081  12.976  21.313   6.593 -0.3088  0.0698  0.4611
    1DPPC   C2B 3082  13.047  21.341   6.213  0.1082 -0.1271 -0.0786
    1DPPC   C3B 3083  12.947  21.617   5.837  0.0165 -0.0602  0.2679
    1DPPC   C4B 3084  12.925  22.035   5.578  0.1562 -0.0370 -0.3488
    1DPPC   NC3 3085  21.545  15.392   6.782  0.1387 -0.1293  0.0063
    1DPPC   PO4 3086  21.206  15.100   6.918 -0.0706 -0.2598  0.0662
    1DPPC   GL1 3087  20.962  14.953   6.580  0.3167  0.2094  0.1933
    1DPPC   GL2 3088  20.943  14.630   6.420 -0.0580  0.1659 -0.1126
    1DPPC   C1A 3089  20.879  15.027   6.159  0.2320  0.0190  0.0726
    1DPPC   C2A 3090  20.731  15.225   5.846  0.1232 -0.1692 -0.1938
    1DPPC   C3A 3091  20.629  15.384   5.511  0.1936 -0.0087 -0.4485
    1DPPC   C4A 3092  20.288  15.493   5.153 -0.0936  0.1330 -0.2036
    1DPPC   C1B 3093  21.304  14.698   6.048  0.0184 -0.3517  0.0283
    1DPPC   C2B 3094  21.544  14.705   5.567  0.0513 -0.1949  0.0757
    1DPPC   C3B 3095  21.532  14.449   5.261 -0.1361  0.0521 -0.2082
    1DPPC   C4B 3096  21.250  14.315   4.947  0.2189 -0.1082 -0.0510
    1DPPC   NC3 3097  14.470  17.844   7.814  0.1409  0.2162 -0.0604
    1DPPC   PO4 3098  14.540  17.500   7.569  0.0858  0.0568  0.0680
    1DPPC   GL1 3099  14.721  17.573   7.137 -0.1194 -0.2014  0.3250
    1DPPC   GL2 3100  14.920  17.327   7.059  0.2323  0.1065  0.0613
    1DPPC   C1A 3101  14.895  17.624   6.699 -0.1387  0.0713  0.0488
    1DPPC   C2A 3102  14.999  17.610   6.277 -0.1320  0.0835 -0.1673
    1DPPC   C3A 3103  14.953  17.724   5.805 -0.1972  0.0986 -0.1981
    1DPPC   C4A 3104  14.845  17.910   5.433  0.1199  0.0384  0.2105
    1DPPC   C1B 3105  14.802  17.171   6.638  0.1894 -0.3300  0.0472
    1DPPC   C2B 3106  14.754  17.189   6.207 -0.1477 -0.1692 -0.1102
    1DPPC   C3B 3107  14.813  17.234   5.766  0.3350 -0.0148 -0.1611
    1DPPC   C4B 3108  14.737  17.321   5.328  0.0644  0.0377 -0.0675
    1DPPC   NC3 3109  10.732   8.079   7.319  0.0419  0.0101  0.1164
    1DPPC   PO4 3110  10.723   7.563   7.261 -0.1616 -0.0724  0.5460
    1DPPC   GL1 3111  10.624   7.798   6.892 -0.0613  0.2041 -0.2281
    1DPPC   GL2 3112  10.421   7.700   6.811 -0.1142  0.0708  0.1947
    1DPPC   C1A 3113  10.849   7.896   6.516  0.2256  0.0434  0.0059
    1DPPC   C2A 3114  10.921   8.003   6.043  0.0557  0.0068  0.1307
    1DPPC   C3A 3115  11.249   8.078   5.800 -0.3845  0.1135  0.0418
    1DPPC   C4A 3116  11.393   8.216   5.444  0.0060  0.1851  0.3760
    1DPPC   C1B 3117  10.216   7.705   6.455 -0.3245  0.4153  0.1409
    1DPPC   C2B 3118  10.126   7.830   6.049 -0.0229  0.1076 -0.1820
    1DPPC   C3B 3119  10.142   7.658   5.661 -0.1167  0.0602 -0.0969
    1DPPC   C4B 3120  10.534   7.529   5.301 -0.1415 -0.0259 -0.2024
    1DPPC   NC3 3121  12.517  21.693   7.658  0.0500 -0.1720 -0.0100
    1DPPC   PO4 3122  12.862  21.616   7.412 -0.0805 -0.0308 -0.3855
    1DPPC   GL1 3123  13.032  21.632   6.912 -0.0962 -0.0182 -0.1979
    1DPPC   GL2 3124  13.008  21.917   6.735  0.0991  0.2943  0.1994
    1DPPC   C1A 3125  13.408  21.610   6.585  0.3574  0.2037  0.4279
    1DPPC   C2A 3126  13.508  21.596   6.138 -0.0101 -0.2974 -0.0246
    1DPPC   C3A 3127  13.395  21.710   5.631 -0.0546 -0.0661 -0.1541
    1DPPC   C4A 3128  13.099  21.736   5.127  0.0425  0.0644 -0.1564
    1DPPC   C1B 3129  13.121  21.968   6.310 -0.0017 -0.2637  0.0585
    1DPPC   C2B 3130  13.153  22.218   6.014  0.1270 -0.1924 -0.1849
    1DPPC   C3B 3131  13.388  22.435   5.741 -0.0728 -0.5666 -0.1332
    1DPPC   C4B 3132  13.415  22.537   5.282  0.1004  0.2545 -0.2652
    1DPPC   NC3 3133  16.175  10.568   7.257  0.2364 -0.0342  0.1121
    1DPPC   PO4 3134  16.293  10.947   7.064  0.0844 -0.0045 -0.1579
    1DPPC   GL1 3135  16.147  11.021   6.660 -0.0854  0.0968 -0.2297
    1DPPC   GL2 3136  16.383  11.284   6.475  0.0138  0.1632  0.0515
    1DPPC   C1A 3137  15.885  10.974   6.394  0.0392  0.0559 -0.1689
    1DPPC   C2A 3138  15.975  10.910   6.054  0.4829 -0.1222 -0.2422
    1DPPC   C3A 3139  15.873  10.830   5.797  0.0542  0.1583  0.2746
    1DPPC   C4A 3140  15.956  10.746   5.416 -0.0358  0.1110  0.0476
    1DPPC   C1B 3141  16.402  11.165   6.117  0.2693 -0.1535 -0.0073
    1DPPC   C2B 3142  16.281  11.177   5.774  0.2511 -0.2128 -0.4990
    1DPPC   C3B 3143  16.196  11.335   5.418 -0.0835 -0.0398  0.0349
    1DPPC   C4B 3144  16.087  11.823   5.236 -0.4196  0.0663 -0.0710
    1DPPC   NC3 3145  11.413  18.863   7.701 -0.1641 -0.0018  0.0783
    1DPPC   PO4 3146  11.617  18.553   7.359 -0.0194 -0.2148 -0.3696
    1DPPC   GL1 3147  11.773  18.317   6.936 -0.1071 -0.0215 -0.0382
    1DPPC   GL2 3148  11.788  18.704   6.898 -0.4226 -0.1631 -0.3054
    1DPPC   C1A 3149  11.520  18.115   6.570 -0.2177  0.0126  0.1388
    1DPPC   C2A 3150  11.475  18.140   6.061  0.0655  0.2940 -0.2045
    1DPPC   C3A 3151  11.373  18.089   5.688  0.0078 -0.0149 -0.0664
    1DPPC   C4A 3152  11.455  18.232   5.247  0.0522 -0.1055  0.0803
    1DPPC   C1B 3153  11.914  18.449   6.506 -0.0883 -0.2464  0.2497
    1DPPC   C2B 3154  11.924  18.340   6.112 -0.1692  0.0996 -0.3504
    1DPPC   C3B 3155  11.826  18.338   5.693  0.1898  0.1989  0.2700
    1DPPC   C4B 3156  11.906  18.437   5.232 -0.0282  0.3102 -0.2998
    1DPPC   NC3 3157   1.171   3.457   6.577  0.2079 -0.0079  0.0065
    1DPPC   PO4 3158   0.974   3.520   6.208  0.1411 -0.1807 -0.2656
    1DPPC   GL1 3159   1.371   3.595   6.046  0.3476 -0.0841 -0.0327
    1DPPC   GL2 3160   1.625   3.740   6.040 -0.0436  0.1070  0.0373
    1DPPC   C1A 3161   1.436   3.438   5.637  0.0408  0.3224 -0.3248
    1DPPC   C2A 3162   1.727   3.274   5.285 -0.5328  0.2439 -0.4186
    1DPPC   C3A 3163   2.020   2.994   5.252  0.0795 -0.3700 -0.4270
    1DPPC   C4A 3164   2.365   2.943   5.064 -0.0101  0.0094  0.1091
    1DPPC   C1B 3165   1.841   3.840   5.622 -0.1300 -0.2485  0.0134
    1DPPC   C2B 3166   2.300   3.688   5.404 -0.1273 -0.1083 -0.3027
    1DPPC   C3B 3167   2.684   3.600   5.256  0.4346  0.0607 -0.2099
    1DPPC   C4B 3168   3.012   3.478   5.229  0.1967 -0.0173  0.0747
    1DPPC   NC3 3169   6.750  15.379   6.347  0.1788  0.0431 -0.0176
    1DPPC   PO4 3170   7.031  15.557   6.587 -0.0572  0.2630 -0.3133
    1DPPC   GL1 3171   7.233  15.601   6.225 -0.0120  0.1696 -0.0151
    1DPPC   GL2 3172   7.260  15.884   6.117 -0.2695 -0.0062 -0.0842
    1DPPC   C1A 3173   7.063  15.557   5.789  0.1926  0.3191  0.1474
    1DPPC   C2A 3174   7.294  15.615   5.447  0.1911  0.2175  0.2343
    1DPPC   C3A 3175   7.463  15.610   5.114 -0.1713  0.1366  0.3563
    1DPPC   C4A 3176   7.908  15.800   5.118  0.0690 -0.0749  0.1231
    1DPPC   C1B 3177   7.169  16.048   5.664  0.1058  0.2204  0.1914
    1DPPC   C2B 3178   7.036  16.162   5.259  0.1277 -0.1186 -0.2855
    1DPPC   C3B 3179   7.057  16.021   4.884  0.0676  0.1431  0.1376
    1DPPC   C4B 3180   6.832  15.813   4.546 -0.4459 -0.2146  0.1598
    1DPPC   NC3 3181  18.454   7.811   7.201 -0.0724 -0.0715  0.1415
    1DPPC   PO4 3182  18.466   7.428   7.247 -0.0200 -0.1872  0.2305
    1DPPC   GL1 3183  18.509   7.387   6.810 -0.1280  0.0182  0.2524
    1DPPC   GL2 3184  18.642   7.529   6.496 -0.1601 -0.0154 -0.1424
    1DPPC   C1A 3185  18.256   7.222   6.450  0.1171 -0.0724  0.0209
    1DPPC   C2A 3186  18.144   7.353   5.956 -0.2918 -0.1431 -0.1731
    1DPPC   C3A 3187  17.947   7.231   5.544 -0.1154 -0.1260 -0.1139
    1DPPC   C4A 3188  17.781   7.383   5.185 -0.2766  0.2281  0.0887
    1DPPC   C1B 3189  18.619   7.546   6.065  0.2212 -0.1997  0.0513
    1DPPC   C2B 3190  18.611   7.542   5.705 -0.1165 -0.3946  0.0872
    1DPPC   C3B 3191  18.729   7.647   5.329 -0.2415  0.0333 -0.0088
    1DPPC   C4B 3192  18.804   7.667   4.865  0.1726 -0.1737 -0.0826
    1DPPC   NC3 3193   7.432  14.041   7.443  0.2849 -0.2053 -0.1856
    1DPPC   PO4 3194   7.229  14.163   7.055 -0.0232 -0.1219 -0.1765
    1DPPC   GL1 3195   7.350  14.097   6.649  0.2099  0.0931 -0.0885
    1DPPC   GL2 3196   7.413  13.787   6.572  0.0894  0.0852  0.5220
    1DPPC   C1A 3197   7.445  14.260   6.257 -0.1706 -0.0911 -0.0519
    1DPPC   C2A 3198   7.215  14.045   5.973  0.0890  0.0928 -0.1033
    1DPPC   C3A 3199   7.140  13.910   5.503  0.1943  0.3321 -0.0221
    1DPPC   C4A 3200   6.809  14.061   4.996 -0.1696  0.0121  0.2168
    1DPPC   C1B 3201   7.536  13.754   6.278  0.0311  0.0289  0.0087
    1DPPC   C2B 3202   7.556  13.718   5.808  0.0661 -0.1358  0.2420
    1DPPC   C3B 3203   7.513  13.632   5.363 -0.1001  0.3390 -0.2961
    1DPPC   C4B 3204   7.612  13.620   4.939 -0.0716  0.0540 -0.2782
    1DPPC   NC3 3205  18.303  15.934   7.215 -0.1088 -0.1249  0.0137
    1DPPC   PO4 3206  17.826  16.072   7.170 -0.0891 -0.3016 -0.0335
    1DPPC   GL1 3207  17.894  15.988   6.734 -0.0040  0.1484 -0.1609
    1DPPC   GL2 3208  18.196  16.060   6.757 -0.2405 -0.2130  0.0646
    1DPPC   C1A 3209  17.850  16.071   6.378 -0.2705  0.0122  0.0898
    1DPPC   C2A 3210  17.882  15.989   5.941 -0.0472  0.2636  0.0650
    1DPPC   C3A 3211  17.757  15.819   5.600 -0.0630  0.2249  0.1969
    1DPPC   C4A 3212  17.745  15.784   5.201 -0.1217 -0.0329 -0.1290
    1DPPC   C1B 3213  18.479  15.960   6.379 -0.0834  0.0136 -0.0371
    1DPPC   C2B 3214  18.428  15.981   5.911  0.1131  0.1678  0.0213
    1DPPC   C3B 3215  18.283  15.906   5.497 -0.2499  0.1163  0.0804
    1DPPC   C4B 3216  18.386  16.045   5.000  0.2270  0.2523 -0.0506
    1DPPC   NC3 3217   9.949  17.939   6.953 -0.1639 -0.0111  0.2128
    1DPPC   PO4 3218   9.650  17.703   6.813  0.0346  0.0072 -0.4397
    1DPPC   GL1 3219   9.780  17.589   6.479 -0.2792  0.0739  0.1941
    1DPPC   GL2 3220   9.883  17.808   6.365 -0.3292 -0.1927  0.1873
    1DPPC   C1A 3221   9.862  17.304   6.159  0.2415 -0.0133  0.0578
    1DPPC   C2A 3222   9.939  17.180   5.764  0.3813  0.1029  0.2184
    1DPPC   C3A 3223   9.766  17.265   5.453 -0.0011  0.1467 -0.0121
    1DPPC   C4A 3224   9.677  16.979   5.162 -0.5455 -0.0102 -0.1399
    1DPPC   C1B 3225   9.952  17.750   5.883  0.0241  0.2212  0.1784
    1DPPC   C2B 3226   9.965  17.743   5.436  0.0686  0.3739 -0.0089
    1DPPC   C3B 3227   9.967  17.570   4.934 -0.2396 -0.0235 -0.0402
    1DPPC   C4B 3228   9.705  17.234   4.709  0.1468 -0.1712  0.0387
    1DPPC   NC3 3229   2.700  15.226   6.392 -0.1356  0.2413  0.1822
    1DPPC   PO4 3230   2.287  15.080   6.436  0.1115 -0.2002 -0.0752
    1DPPC   GL1 3231   2.372  14.936   5.986 -0.0164 -0.1573  0.0070
    1DPPC   GL2 3232   2.485  15.166   5.741 -0.2164  0.0516 -0.1187
    1DPPC   C1A 3233   2.594  14.621   5.740  0.1034 -0.0045  0.1726
    1DPPC   C2A 3234   2.608  14.484   5.327 -0.1514  0.4459 -0.1665
    1DPPC   C3A 3235   2.662  14.430   4.906 -0.0532  0.1939 -0.2245
    1DPPC   C4A 3236   2.677  14.314   4.467  0.0473 -0.1438  0.1217
    1DPPC   C1B 3237   2.383  14.960   5.434 -0.0327  0.1645  0.0825
    1DPPC   C2B 3238   2.307  14.812   5.026  0.0140  0.4416  0.1031
    1DPPC   C3B 3239   2.243  14.568   4.644 -0.1932  0.0146 -0.0273
    1DPPC   C4B 3240   2.124  14.223   4.472  0.3085  0.0011 -0.0440
    1DPPC   NC3 3241  18.436  11.410   7.621 -0.0045  0.1350  0.0452
    1DPPC   PO4 3242  18.319  11.574   7.246  0.2207 -0.0078  0.2301
    1DPPC   GL1 3243  18.310  11.545   6.819 -0.0442 -0.2670  0.2605
    1DPPC   GL2 3244  18.373  11.830   6.749  0.1982 -0.1239  0.1318
    1DPPC   C1A 3245  17.891  11.756   6.622  0.0645  0.2268 -0.2116
    1DPPC   C2A 3246  17.697  11.957   6.282  0.0373  0.3145  0.0825
    1DPPC   C3A 3247  17.743  11.947   5.818  0.0018  0.3336  0.1436
    1DPPC   C4A 3248  17.693  11.687   5.461  0.1114 -0.0013 -0.0775
    1DPPC   C1B 3249  18.245  11.609   6.323  0.0482 -0.0745 -0.1197
    1DPPC   C2B 3250  18.124  11.598   5.848 -0.0346  0.0388 -0.0229
    1DPPC   C3B 3251  18.116  11.327   5.431 -0.3395  0.0465 -0.0749
    1DPPC   C4B 3252  18.223  11.177   5.004  0.0575  0.0699 -0.1784
    1DPPC   NC3 3253  13.858   8.229   7.844 -0.0227 -0.1796  0.1588
    1DPPC   PO4 3254  14.226   8.016   7.774 -0.0821 -0.0594  0.2565
    1DPPC   GL1 3255  14.231   8.152   7.330  0.1653  0.1330  0.0443
    1DPPC   GL2 3256  13.975   8.027   7.325  0.3751 -0.0872  0.1924
    1DPPC   C1A 3257  14.321   7.897   6.931 -0.2514 -0.1546  0.1477
    1DPPC   C2A 3258  14.412   7.512   6.639  0.2785  0.1126 -0.2543
    1DPPC   C3A 3259  14.669   7.302   6.450  0.0896 -0.3006 -0.0763
    1DPPC   C4A 3260  14.646   6.902   6.149  0.1898  0.1421 -0.2062
    1DPPC   C1B 3261  13.727   8.034   6.948 -0.0162  0.0560 -0.1136
    1DPPC   C2B 3262  13.395   7.986   6.715 -0.0147 -0.1109  0.0134
    1DPPC   C3B 3263  13.207   8.064   6.392 -0.0831 -0.0939 -0.2048
    1DPPC   C4B 3264  13.164   7.926   5.933  0.1198  0.1338  0.3469
    1DPPC   NC3 3265  18.668  10.089   7.214 -0.2242 -0.3145 -0.0836
    1DPPC   PO4 3266  19.019  10.310   6.985  0.0780 -0.1820  0.0865
    1DPPC   GL1 3267  18.952  10.393   6.546  0.1223 -0.1510  0.4539
    1DPPC   GL2 3268  19.213  10.443   6.354 -0.2493  0.0623 -0.0811
    1DPPC   C1A 3269  18.746  10.516   6.176  0.1896 -0.2275 -0.1638
    1DPPC   C2A 3270  18.741  10.512   5.793  0.0444  0.2152  0.1316
    1DPPC   C3A 3271  18.873  10.582   5.305 -0.0259  0.0724 -0.1373
    1DPPC   C4A 3272  19.024  10.414   4.896  0.0722 -0.0584  0.0578
    1DPPC   C1B 3273  19.260  10.517   5.983 -0.3713  0.0693  0.3782
    1DPPC   C2B 3274  19.312  10.606   5.606 -0.2092 -0.0644 -0.0365
    1DPPC   C3B 3275  19.355  10.680   5.187  0.0130 -0.0139 -0.1291
    1DPPC   C4B 3276  19.493  10.583   4.783  0.0597  0.0700 -0.0947
    1DPPC   NC3 3277  18.565  12.154   7.231  0.1736  0.1698 -0.2411
    1DPPC   PO4 3278  18.208  12.411   7.352 -0.3637 -0.4660 -0.1122
    1DPPC   GL1 3279  18.207  12.361   6.859 -0.0910  0.2572 -0.0143
    1DPPC   GL2 3280  18.185  12.605   6.661  0.1747 -0.2465  0.0507
    1DPPC   C1A 3281  18.120  12.185   6.408 -0.2006 -0.0981 -0.0570
    1DPPC   C2A 3282  18.186  12.128   5.986  0.3091  0.2170 -0.0788
    1DPPC   C3A 3283  18.178  11.989   5.560 -0.1399  0.0290 -0.0592
    1DPPC   C4A 3284  18.406  11.909   5.158 -0.0175 -0.1365 -0.0011
    1DPPC   C1B 3285  18.473  12.573   6.335 -0.0641  0.2408  0.1089
    1DPPC   C2B 3286  18.629  12.371   5.926 -0.0658  0.4293 -0.1171
    1DPPC   C3B 3287  18.469  12.393   5.513 -0.1215  0.0760 -0.2789
    1DPPC   C4B 3288  18.203  12.661   5.228 -0.0238 -0.3493  0.1222
    1DPPC   NC3 3289  15.923  11.267   7.004  0.0703 -0.1674 -0.3022
    1DPPC   PO4 3290  15.617  11.520   7.230 -0.2059  0.2450 -0.1052
    1DPPC   GL1 3291  15.534  11.632   6.813  0.0561 -0.0406  0.0910
    1DPPC   GL2 3292  15.271  11.871   6.894  0.4181 -0.0105 -0.1042
    1DPPC   C1A 3293  15.375  11.628   6.361  0.1410 -0.2627 -0.0130
    1DPPC   C2A 3294  15.391  11.546   5.947 -0.1036 -0.1350 -0.1334
    1DPPC   C3A 3295  15.521  11.160   5.611  0.1287 -0.1143 -0.0200
    1DPPC   C4A 3296  15.810  11.154   5.238  0.3239 -0.2348 -0.0429
    1DPPC   C1B 3297  15.248  12.080   6.565 -0.0071 -0.0855  0.0706
    1DPPC   C2B 3298  15.248  12.033   6.071  0.1580 -0.0709 -0.0391
    1DPPC   C3B 3299  15.295  11.935   5.605 -0.1035 -0.0761  0.0176
    1DPPC   C4B 3300  15.598  12.069   5.219 -0.0550  0.1342 -0.1446
    1DPPC   NC3 3301  16.232  21.405   7.756  0.0066 -0.1657 -0.2292
    1DPPC   PO4 3302  16.395  21.078   7.503 -0.1897 -0.3257  0.2634
    1DPPC   GL1 3303  16.360  21.320   7.178  0.2259 -0.2673 -0.0226
    1DPPC   GL2 3304  16.123  21.163   7.029  0.0399  0.1466  0.1355
    1DPPC   C1A 3305  16.238  21.578   6.759 -0.3278  0.0380  0.0628
    1DPPC   C2A 3306  16.084  21.589   6.348 -0.0589  0.3110 -0.2049
    1DPPC   C3A 3307  15.962  21.457   5.912 -0.2138 -0.3875  0.0064
    1DPPC   C4A 3308  15.863  21.354   5.571 -0.1454  0.0332  0.0714
    1DPPC   C1B 3309  16.045  20.761   6.753 -0.0542  0.3029  0.1413
    1DPPC   C2B 3310  16.009  20.613   6.271  0.1536  0.2727 -0.1747
    1DPPC   C3B 3311  15.780  20.352   5.846  0.0376  0.1903  0.0913
    1DPPC   C4B 3312  15.618  20.142   5.521 -0.1153  0.0290  0.0121
    1DPPC   NC3 3313   9.758  16.286   7.311  0.2756 -0.0938 -0.0717
    1DPPC   PO4 3314   9.491  16.115   7.091  0.1406  0.0444  0.1062
    1DPPC   GL1 3315   9.588  15.994   6.547 -0.3872  0.2021  0.1739
    1DPPC   GL2 3316   9.369  16.206   6.392  0.2294  0.1805  0.2371
    1DPPC   C1A 3317   9.705  15.900   6.094 -0.5253  0.0486 -0.0207
    1DPPC   C2A 3318   9.628  15.851   5.612  0.0082 -0.1904 -0.2711
    1DPPC   C3A 3319   9.567  15.892   5.233  0.1231 -0.0143  0.0789
    1DPPC   C4A 3320   9.323  15.922   4.777 -0.0521 -0.2872  0.0311
    1DPPC   C1B 3321   9.480  16.330   5.998  0.1152 -0.1067 -0.1698
    1DPPC   C2B 3322   9.404  16.300   5.659 -0.3321 -0.4597 -0.1627
    1DPPC   C3B 3323   9.151  16.245   5.247 -0.2503 -0.0991  0.1335
    1DPPC   C4B 3324   8.862  15.955   4.995  0.1182 -0.1437 -0.0751
    1DPPC   NC3 3325  22.139  14.718   6.899  0.1436 -0.3724 -0.4627
    1DPPC   PO4 3326  22.105  15.175   6.957 -0.0399  0.4109  0.1727
    1DPPC   GL1 3327  21.995  15.092   6.571  0.0689 -0.1365 -0.0019
    1DPPC   GL2 3328  21.813  15.340   6.398  0.4491 -0.0855  0.1058
    1DPPC   C1A 3329  21.798  14.829   6.162  0.0587  0.0071 -0.0250
    1DPPC   C2A 3330  21.973  14.647   5.802  0.0060 -0.0663 -0.1712
    1DPPC   C3A 3331  22.073  14.518   5.440  0.0436  0.1488 -0.2957
    1DPPC   C4A 3332  22.317  14.435   5.065 -0.1246 -0.4408 -0.1594
    1DPPC   C1B 3333  22.020  15.199   5.994 -0.2399 -0.0298 -0.1659
    1DPPC   C2B 3334  21.893  15.117   5.562 -0.0233 -0.0477  0.0176
    1DPPC   C3B 3335  21.616  15.009   5.183 -0.2914  0.1011  0.1382
    1DPPC   C4B 3336  21.365  14.851   4.834 -0.1962  0.1964  0.0191
    1DPPC   NC3 3337  17.988  13.994   7.141 -0.1536  0.0270  0.1416
    1DPPC   PO4 3338  18.423  14.076   7.169 -0.0879  0.1474  0.0223
    1DPPC   GL1 3339  18.338  14.120   6.760 -0.0680  0.1867 -0.1660
    1DPPC   GL2 3340  18.262  14.411   6.778  0.1061 -0.1127 -0.0517
    1DPPC   C1A 3341  18.340  14.202   6.356  0.2352  0.4366  0.0667
    1DPPC   C2A 3342  18.377  14.121   5.868  0.2476 -0.0236 -0.0575
    1DPPC   C3A 3343  18.296  14.127   5.424  0.1075  0.0020 -0.1989
    1DPPC   C4A 3344  17.986  14.070   5.150  0.0740 -0.1627  0.4655
    1DPPC   C1B 3345  18.267  14.678   6.455 -0.0165  0.0485  0.2526
    1DPPC   C2B 3346  18.213  14.666   6.009 -0.2423 -0.0895 -0.1825
    1DPPC   C3B 3347  18.087  14.533   5.637  0.1336  0.1696 -0.0404
    1DPPC   C4B 3348  17.969  14.551   5.257  0.4623  0.0974 -0.0885
    1DPPC   NC3 3349  14.867  11.181   7.832 -0.1879  0.0528  0.2681
    1DPPC   PO4 3350  14.996  11.088   7.524  0.2177 -0.1369  0.1263
    1DPPC   GL1 3351  15.051  11.127   7.076  0.2494  0.0460  0.0067
    1DPPC   GL2 3352  15.395  11.110   6.960 -0.1477  0.2117 -0.0767
    1DPPC   C1A 3353  15.067  11.379   6.741 -0.2829 -0.0627 -0.0406
    1DPPC   C2A 3354  15.029  11.199   6.299 -0.0524 -0.1191  0.3876
    1DPPC   C3A 3355  14.991  11.227   5.906 -0.1957 -0.1466  0.4149
    1DPPC   C4A 3356  15.114  11.454   5.554  0.0861  0.3063  0.4461
    1DPPC   C1B 3357  15.464  11.192   6.511  0.0244 -0.0078  0.0353
    1DPPC   C2B 3358  15.448  11.099   6.143  0.1260  0.0314  0.2003
    1DPPC   C3B 3359  15.287  10.797   5.895 -0.0179 -0.0590 -0.1937
    1DPPC   C4B 3360  15.426  10.645   5.450  0.0032 -0.0844  0.4176
    1DPPC   NC3 3361  26.512  11.081   5.932  0.1528  0.0193 -0.0568
    1DPPC   PO4 3362  26.221  10.628   5.868  0.0760 -0.2667 -0.3402
    1DPPC   GL1 3363  26.359  10.613   5.572  0.1124  0.1863 -0.0577
    1DPPC   GL2 3364  26.412  10.939   5.439 -0.1702  0.1402 -0.0121
    1DPPC   C1A 3365  26.411  10.491   5.227  0.2119 -0.1317  0.2433
    1DPPC   C2A 3366  26.335  10.602   4.779 -0.1964 -0.1383  0.1646
    1DPPC   C3A 3367  26.507  10.815   4.538  0.2979 -0.0779  0.1323
    1DPPC   C4A 3368  26.447  11.038   4.352  0.2235 -0.0360  0.1078
    1DPPC   C1B 3369  26.415  11.018   5.043 -0.0099 -0.0027  0.2006
    1DPPC   C2B 3370  26.369  11.393   4.752  0.1763 -0.2585  0.1555
    1DPPC   C3B 3371  26.267  11.825   4.698  0.4293 -0.1586  0.2903
    1DPPC   C4B 3372  25.896  12.182   4.778  0.1916  0.0922 -0.0084
    1DPPC   NC3 3373  21.867   3.847   7.075  0.1772 -0.2088 -0.0984
    1DPPC   PO4 3374  22.081   3.747   6.773  0.4129 -0.0282  0.2797
    1DPPC   GL1 3375  22.031   3.827   6.322 -0.4241 -0.0587  0.2497
    1DPPC   GL2 3376  22.012   3.413   6.259 -0.0673 -0.2411 -0.1177
    1DPPC   C1A 3377  21.789   3.750   5.928  0.3243  0.2570 -0.0085
    1DPPC   C2A 3378  21.469   3.907   5.774 -0.0256  0.0320  0.1348
    1DPPC   C3A 3379  21.390   3.962   5.247 -0.0943 -0.2082 -0.1893
    1DPPC   C4A 3380  21.230   3.715   4.954  0.2319 -0.1228  0.3696
    1DPPC   C1B 3381  22.033   3.225   5.900  0.0202  0.1236  0.2585
    1DPPC   C2B 3382  22.080   3.423   5.398 -0.2165 -0.0884 -0.2480
    1DPPC   C3B 3383  22.407   3.360   5.132  0.2146  0.2805 -0.2038
    1DPPC   C4B 3384  22.842   3.471   4.983 -0.0459 -0.0821 -0.2554
    1DPPC   NC3 3385   1.321  12.775   6.359  0.1896 -0.0113  0.1435
    1DPPC   PO4 3386   1.559  13.077   6.260 -0.1401 -0.2946 -0.0709
    1DPPC   GL1 3387   1.316  13.127   5.920 -0.1578  0.2142 -0.0127
    1DPPC   GL2 3388   1.252  12.856   5.802  0.0168 -0.0278 -0.2480
    1DPPC   C1A 3389   1.064  13.214   5.520 -0.0179  0.3484 -0.1224
    1DPPC   C2A 3390   1.181  13.459   5.120 -0.1084 -0.3245 -0.3414
    1DPPC   C3A 3391   1.138  13.822   4.877  0.4279  0.1543 -0.2916
    1DPPC   C4A 3392   1.162  14.180   4.573 -0.1932 -0.0814 -0.3391
    1DPPC   C1B 3393   1.159  12.764   5.422 -0.0464  0.1814 -0.0712
    1DPPC   C2B 3394   1.156  12.666   5.022 -0.3184  0.0168  0.0019
    1DPPC   C3B 3395   1.333  12.525   4.572 -0.0829 -0.3312 -0.0890
    1DPPC   C4B 3396   1.325  12.257   4.270  0.0994 -0.1414  0.0580
    1DPPC   NC3 3397   6.857   5.352   6.780  0.0106 -0.0049 -0.1243
    1DPPC   PO4 3398   6.820   4.974   6.766 -0.1637  0.0012  0.0105
    1DPPC   GL1 3399   6.749   4.845   6.402 -0.0624  0.2084  0.2494
    1DPPC   GL2 3400   6.964   4.516   6.304 -0.1579  0.1172  0.2619
    1DPPC   C1A 3401   6.866   4.933   5.946  0.3134 -0.3466 -0.0411
    1DPPC   C2A 3402   6.597   4.879   5.528 -0.1557 -0.0427  0.0968
    1DPPC   C3A 3403   6.490   4.607   5.176 -0.1958 -0.1291 -0.0978
    1DPPC   C4A 3404   6.664   4.425   4.959 -0.5790 -0.1280  0.0355
    1DPPC   C1B 3405   7.277   4.678   5.942 -0.2697 -0.1343 -0.3316
    1DPPC   C2B 3406   7.539   4.524   5.609 -0.4096  0.2005 -0.3239
    1DPPC   C3B 3407   7.651   4.489   5.200 -0.2198 -0.0470  0.0426
    1DPPC   C4B 3408   7.813   4.564   4.812 -0.1921 -0.1032  0.0435
    1DPPC   NC3 3409  17.188  11.170   6.932 -0.1017  0.0999 -0.1081
    1DPPC   PO4 3410  17.203  10.685   7.065 -0.0755 -0.0488  0.1061
    1DPPC   GL1 3411  17.014  10.656   6.685 -0.0568 -0.0541 -0.0923
    1DPPC   GL2 3412  16.664  10.819   6.736  0.1582  0.1356  0.2426
    1DPPC   C1A 3413  17.250  10.442   6.300  0.0107 -0.1268  0.2836
    1DPPC   C2A 3414  17.284  10.345   5.831  0.1527  0.0384 -0.0741
    1DPPC   C3A 3415  17.234  10.201   5.393  0.0328 -0.1768 -0.0192
    1DPPC   C4A 3416  17.302  10.021   4.977  0.0506 -0.0428  0.1407
    1DPPC   C1B 3417  16.738  10.864   6.318  0.0768  0.1468 -0.2640
    1DPPC   C2B 3418  16.675  10.806   5.887  0.1936 -0.0303  0.2472
    1DPPC   C3B 3419  16.428  10.786   5.512  0.1892 -0.1078 -0.3758
    1DPPC   C4B 3420  16.612  10.783   5.093 -0.2751  0.1660 -0.2819
    1DPPC   NC3 3421  10.129  21.421   6.308  0.1501  0.1888 -0.1708
    1DPPC   PO4 3422  10.629  21.459   6.523  0.4342 -0.2070  0.2478
    1DPPC   GL1 3423  10.654  21.193   6.186 -0.1380  0.2925 -0.2086
    1DPPC   GL2 3424  10.894  20.962   6.244  0.1224  0.0201 -0.0069
    1DPPC   C1A 3425  10.726  21.191   5.713  0.0895 -0.3603 -0.0907
    1DPPC   C2A 3426  10.823  21.112   5.300 -0.0824 -0.2656  0.3504
    1DPPC   C3A 3427  10.887  21.010   4.899  0.1823 -0.0269 -0.1369
    1DPPC   C4A 3428  10.965  20.686   4.656 -0.2815 -0.1788  0.0520
    1DPPC   C1B 3429  10.974  20.810   5.844  0.0311  0.2904  0.2112
    1DPPC   C2B 3430  11.088  20.732   5.454 -0.1795 -0.0549  0.1117
    1DPPC   C3B 3431  11.050  20.456   5.107  0.0909 -0.1564  0.0413
    1DPPC   C4B 3432  10.780  20.138   4.940 -0.0951 -0.3073  0.0629
    1DPPC   NC3 3433  13.182   9.956   8.008 -0.0036  0.0255  0.1152
    1DPPC   PO4 3434  13.482   9.595   7.857 -0.0998  0.0838 -0.3438
    1DPPC   GL1 3435  13.539   9.546   7.426  0.1520  0.1861  0.0575
    1DPPC   GL2 3436  13.853   9.459   7.183 -0.0795 -0.1650 -0.3716
    1DPPC   C1A 3437  13.344   9.574   7.057 -0.0192 -0.0927  0.0364
    1DPPC   C2A 3438  13.097   9.467   6.658  0.3135  0.1083 -0.1272
    1DPPC   C3A 3439  12.761   9.253   6.379  0.3966  0.2756  0.0969
    1DPPC   C4A 3440  12.306   9.020   6.252 -0.3082  0.0239  0.1547
    1DPPC   C1B 3441  13.771   9.417   6.842  0.1332 -0.0916  0.2842
    1DPPC   C2B 3442  13.499   9.397   6.452 -0.1159  0.4571  0.1425
    1DPPC   C3B 3443  13.398   9.293   6.117 -0.2829 -0.0965  0.1187
    1DPPC   C4B 3444  13.600   9.273   5.657  0.1695 -0.1973 -0.3013
    1DPPC   NC3 3445  20.699  12.610   7.234 -0.1474  0.0285  0.0413
    1DPPC   PO4 3446  20.658  12.148   7.091  0.1897  0.3009  0.4866
    1DPPC   GL1 3447  20.352  12.130   6.687 -0.0546  0.0308 -0.2117
    1DPPC   GL2 3448  20.485  12.239   6.364 -0.2348 -0.0151  0.1692
    1DPPC   C1A 3449  19.989  12.052   6.472 -0.1139 -0.1512  0.1230
    1DPPC   C2A 3450  19.951  12.109   6.035 -0.1615 -0.1431  0.0562
    1DPPC   C3A 3451  19.885  12.208   5.597 -0.0632 -0.0907  0.2308
    1DPPC   C4A 3452  19.916  12.356   5.225 -0.3269  0.4002  0.0166
    1DPPC   C1B 3453  20.475  12.062   5.914  0.2019  0.1088  0.0867
    1DPPC   C2B 3454  20.267  11.849   5.589 -0.1274  0.1164 -0.1338
    1DPPC   C3B 3455  20.197  11.478   5.399  0.2399 -0.2366 -0.0981
    1DPPC   C4B 3456  20.187  11.192   5.130 -0.0097 -0.1545 -0.1955
    1DPPC   NC3 3457  17.031  14.471   7.909  0.0208  0.1422 -0.0881
    1DPPC   PO4 3458  17.087  14.553   7.470  0.2407  0.0364  0.0598
    1DPPC   GL1 3459  17.178  14.595   7.015  0.0764  0.0337  0.1195
    1DPPC   GL2 3460  16.973  14.749   6.828  0.0149 -0.0834 -0.0764
    1DPPC   C1A 3461  17.202  14.294   6.707  0.1683  0.3065  0.3091
    1DPPC   C2A 3462  17.294  14.295   6.295 -0.1972 -0.1692 -0.2608
    1DPPC   C3A 3463  17.313  14.287   5.896  0.0047  0.1141 -0.0078
    1DPPC   C4A 3464  17.179  14.080   5.603 -0.0139 -0.1169 -0.0994
    1DPPC   C1B 3465  16.983  14.670   6.351 -0.1544  0.0107  0.0256
    1DPPC   C2B 3466  16.992  14.634   6.038 -0.1175  0.3371  0.2994
    1DPPC   C3B 3467  16.910  14.626   5.629  0.1628  0.0204 -0.0942
    1DPPC   C4B 3468  16.724  14.707   5.270 -0.1261  0.0983  0.2317
    1DPPC   NC3 3469  17.715   8.551   7.308 -0.1806  0.1850 -0.1331
    1DPPC   PO4 3470  18.096   8.711   7.284 -0.2925  0.1216 -0.2098
    1DPPC   GL1 3471  18.031   8.538   6.815  0.0210  0.0237 -0.1085
    1DPPC   GL2 3472  18.277   8.582   6.548  0.1516  0.0758 -0.5072
    1DPPC   C1A 3473  17.816   8.642   6.497 -0.3597  0.1688  0.0870
    1DPPC   C2A 3474  17.613   8.673   6.076  0.1462 -0.1472 -0.0147
    1DPPC   C3A 3475  17.732   8.741   5.602 -0.3033 -0.0401 -0.0648
    1DPPC   C4A 3476  18.089   8.760   5.287  0.0610  0.0488  0.1030
    1DPPC   C1B 3477  18.150   8.484   6.196 -0.0057 -0.0028 -0.1913
    1DPPC   C2B 3478  18.081   8.461   5.717 -0.1578 -0.1335  0.1288
    1DPPC   C3B 3479  18.006   8.158   5.397  0.3398 -0.1440 -0.0987
    1DPPC   C4B 3480  17.982   7.923   4.918  0.0143 -0.0648  0.0445
    1DPPC   NC3 3481  18.255  15.101   7.581 -0.0876 -0.0207 -0.1486
    1DPPC   PO4 3482  18.467  15.355   7.264 -0.2394 -0.0764  0.0409
    1DPPC   GL1 3483  18.512  15.197   6.878  0.2595  0.0574  0.0518
    1DPPC   GL2 3484  18.241  14.969   6.845 -0.1868 -0.1138  0.2535
    1DPPC   C1A 3485  18.604  15.095   6.435 -0.1495 -0.0885 -0.1109
    1DPPC   C2A 3486  18.538  15.026   6.042  0.0241  0.2876 -0.0533
    1DPPC   C3A 3487  18.389  15.040   5.709 -0.1817 -0.2162  0.1185
    1DPPC   C4A 3488  18.262  14.936   5.322  0.1638 -0.4475 -0.1398
    1DPPC   C1B 3489  17.907  15.062   6.633  0.1599 -0.2511  0.0417
    1DPPC   C2B 3490  17.928  15.061   6.148 -0.1140  0.0395  0.0391
    1DPPC   C3B 3491  17.856  15.004   5.673 -0.1045 -0.2581  0.2598
    1DPPC   C4B 3492  17.674  14.971   5.270 -0.2905 -0.0558 -0.1021
    1DPPC   NC3 3493  18.849  17.014   8.062  0.1397  0.0503  0.1752
    1DPPC   PO4 3494  18.668  17.076   7.742 -0.0090  0.0959  0.0026
    1DPPC   GL1 3495  18.956  17.195   7.422 -0.1621  0.1251 -0.3539
    1DPPC   GL2 3496  19.166  16.995   7.199 -0.2527  0.0599 -0.1552
    1DPPC   C1A 3497  18.857  17.329   6.992 -0.1429  0.0844 -0.0103
    1DPPC   C2A 3498  18.857  17.467   6.563 -0.2265  0.0939  0.1506
    1DPPC   C3A 3499  18.996  17.480   6.109 -0.2068 -0.3722 -0.3587
    1DPPC   C4A 3500  18.997  17.721   5.705 -0.1447  0.0345  0.0756
    1DPPC   C1B 3501  19.141  16.974   6.734 -0.1492  0.0632 -0.4426
    1DPPC   C2B 3502  19.210  17.104   6.332  0.0052 -0.0147  0.2007
    1DPPC   C3B 3503  19.334  17.122   5.941  0.0488 -0.5160  0.3645
    1DPPC   C4B 3504  19.254  17.341   5.574  0.3170  0.1884  0.2212
    1DPPC   NC3 3505  16.977  15.833   7.580  0.0176  0.0963 -0.0634
    1DPPC   PO4 3506  17.119  15.481   7.195 -0.1451  0.0707  0.0558
    1DPPC   GL1 3507  16.861  15.839   6.902 -0.1293 -0.2143 -0.1861
    1DPPC   GL2 3508  16.880  16.080   6.822 -0.1918  0.2218 -0.2421
    1DPPC   C1A 3509  16.769  15.767   6.453  0.1168  0.2192  0.0167
    1DPPC   C2A 3510  16.773  15.754   6.044  0.0752  0.0283  0.1878
    1DPPC   C3A 3511  16.774  15.837   5.565 -0.0133  0.1825 -0.2521
    1DPPC   C4A 3512  16.948  15.722   5.123 -0.0512  0.0011  0.2303
    1DPPC   C1B 3513  16.953  16.338   6.557 -0.0477 -0.2910  0.1185
    1DPPC   C2B 3514  16.874  16.236   6.146  0.2194  0.2432  0.1717
    1DPPC   C3B 3515  16.842  16.306   5.759  0.2529 -0.0189 -0.3086
    1DPPC   C4B 3516  16.758  16.268   5.331  0.1835 -0.2222 -0.1995
    1DPPC   NC3 3517  13.706  10.024   7.952 -0.0706 -0.1624  0.0999
    1DPPC   PO4 3518  13.325  10.310   7.708  0.3590  0.0593  0.3536
    1DPPC   GL1 3519  13.450  10.611   7.365 -0.1168 -0.0588 -0.0719
    1DPPC   GL2 3520  13.739  10.691   7.427  0.0407 -0.0493  0.1834
    1DPPC   C1A 3521  13.425  10.570   6.903  0.0143  0.2174 -0.0023
    1DPPC   C2A 3522  13.557  10.540   6.582 -0.2847  0.1617 -0.2225
    1DPPC   C3A 3523  13.538  10.546   6.173  0.1743  0.1036 -0.0269
    1DPPC   C4A 3524  13.511  10.304   5.813 -0.0509 -0.1390 -0.0991
    1DPPC   C1B 3525  13.966  10.399   7.105  0.2464 -0.4671  0.0726
    1DPPC   C2B 3526  13.982  10.288   6.702 -0.0262 -0.0190  0.0848
    1DPPC   C3B 3527  13.932  10.225   6.316  0.0330  0.0387  0.2200
    1DPPC   C4B 3528  14.035  10.275   5.966 -0.1349  0.1380  0.1535
    1DPPC   NC3 3529  14.944  19.217   7.564 -0.0595 -0.1287  0.0220
    1DPPC   PO4 3530  14.924  19.711   7.360 -0.0087 -0.3045 -0.0709
    1DPPC   GL1 3531  14.872  19.831   6.968 -0.0635  0.0886 -0.0849
    1DPPC   GL2 3532  14.947  20.182   6.773 -0.0420 -0.3207  0.0070
    1DPPC   C1A 3533  14.614  19.871   6.637 -0.2059 -0.0466  0.1886
    1DPPC   C2A 3534  14.301  19.979   6.476 -0.1707  0.0652  0.1676
    1DPPC   C3A 3535  14.312  20.122   6.077 -0.3190  0.0817  0.0307
    1DPPC   C4A 3536  14.209  20.302   5.630 -0.1716 -0.2082 -0.2613
    1DPPC   C1B 3537  15.406  20.223   6.688  0.3074 -0.1793  0.2310
    1DPPC   C2B 3538  15.649  20.072   6.405  0.0080 -0.2454 -0.1277
    1DPPC   C3B 3539  15.973  19.903   6.151  0.2012  0.2824  0.2826
    1DPPC   C4B 3540  16.081  19.687   5.761  0.1212  0.1398  0.3429
    1DPPC   NC3 3541  13.043  10.696   7.535 -0.2611 -0.0995 -0.3077
    1DPPC   PO4 3542  12.856  10.359   7.493 -0.2702 -0.1417  0.0131
    1DPPC   GL1 3543  12.955  10.397   7.073 -0.1114 -0.1238 -0.1876
    1DPPC   GL2 3544  12.747  10.371   6.957 -0.2450 -0.1903  0.0166
    1DPPC   C1A 3545  13.053  10.418   6.551  0.1002  0.0483  0.1357
    1DPPC   C2A 3546  13.059  10.335   6.129 -0.0923 -0.4043  0.1721
    1DPPC   C3A 3547  12.941  10.059   5.703  0.2866  0.0688 -0.2476
    1DPPC   C4A 3548  13.093   9.669   5.592 -0.1673 -0.0566  0.1779
    1DPPC   C1B 3549  12.622  10.639   6.622 -0.0815 -0.0015  0.2832
    1DPPC   C2B 3550  12.587  10.625   6.192 -0.1863  0.2592 -0.3253
    1DPPC   C3B 3551  12.309  10.506   5.865  0.2058 -0.1969  0.0549
    1DPPC   C4B 3552  11.928  10.763   5.642 -0.2240  0.0374 -0.1320
    1DPPC   NC3 3553  15.505  10.877   7.465  0.3047 -0.1529  0.0882
    1DPPC   PO4 3554  15.707  10.477   7.586  0.0534  0.0362 -0.0171
    1DPPC   GL1 3555  15.607  10.550   7.159  0.1824 -0.0026 -0.1696
    1DPPC   GL2 3556  15.831  10.794   6.991 -0.0218  0.1064  0.1675
    1DPPC   C1A 3557  15.381  10.216   6.816  0.2380 -0.1749 -0.0982
    1DPPC   C2A 3558  15.384  10.115   6.428 -0.1862 -0.0569 -0.2072
    1DPPC   C3A 3559  15.351   9.950   6.083  0.0824 -0.2068 -0.0682
    1DPPC   C4A 3560  15.074   9.629   5.941  0.1597  0.4236  0.1184
    1DPPC   C1B 3561  15.662  10.598   6.623  0.2006  0.1072 -0.3750
    1DPPC   C2B 3562  15.652  10.466   6.200 -0.2482 -0.2839  0.2466
    1DPPC   C3B 3563  15.577  10.378   5.823 -0.0748 -0.1624  0.0126
    1DPPC   C4B 3564  15.385  10.071   5.604 -0.0242  0.0449  0.0767
    1DPPC   NC3 3565   9.534  13.614   7.323  0.0244  0.1744 -0.2964
    1DPPC   PO4 3566   9.160  13.389   7.354  0.2342 -0.1096  0.0237
    1DPPC   GL1 3567   8.969  13.456   6.889 -0.2110 -0.1324  0.1633
    1DPPC   GL2 3568   9.146  13.575   6.812 -0.2627 -0.1142 -0.0467
    1DPPC   C1A 3569   9.011  13.174   6.404 -0.2042  0.1520 -0.0933
    1DPPC   C2A 3570   9.049  13.132   5.885  0.0560 -0.0420  0.1888
    1DPPC   C3A 3571   9.097  13.138   5.511  0.1234 -0.0778 -0.3365
    1DPPC   C4A 3572   9.112  12.961   5.085  0.0782  0.1453 -0.0302
    1DPPC   C1B 3573   9.353  13.552   6.374  0.2425  0.1363  0.0154
    1DPPC   C2B 3574   9.423  13.508   5.978  0.0798  0.2332 -0.0591
    1DPPC   C3B 3575   9.422  13.517   5.539  0.0821 -0.0040  0.2572
    1DPPC   C4B 3576   9.273  13.540   5.120 -0.1438  0.1913 -0.0506
    1DPPC   NC3 3577  16.721  14.781   7.701  0.1068 -0.2091 -0.1007
    1DPPC   PO4 3578  16.491  14.988   7.304 -0.2197  0.2743 -0.0230
    1DPPC   GL1 3579  16.368  14.812   6.943 -0.1366  0.1263  0.1093
    1DPPC   GL2 3580  16.012  14.929   6.858 -0.1348 -0.0082  0.0638
    1DPPC   C1A 3581  16.549  14.704   6.583 -0.1478  0.2298 -0.2634
    1DPPC   C2A 3582  16.479  14.745   6.125 -0.1096 -0.1984 -0.0147
    1DPPC   C3A 3583  16.361  14.639   5.670 -0.0293  0.0144 -0.0137
    1DPPC   C4A 3584  16.222  14.425   5.330  0.0167 -0.2169 -0.1607
    1DPPC   C1B 3585  16.188  15.123   6.603 -0.1559 -0.2251 -0.1857
    1DPPC   C2B 3586  16.070  15.167   6.212 -0.2616  0.1289  0.0420
    1DPPC   C3B 3587  16.198  15.124   5.828 -0.3485  0.1869 -0.1624
    1DPPC   C4B 3588  16.031  15.045   5.409 -0.0021  0.2765  0.0809
    1DPPC   NC3 3589   9.808  10.786   7.501  0.1998  0.2102  0.0952
    1DPPC   PO4 3590  10.236  10.884   7.425  0.0441 -0.0048  0.0390
    1DPPC   GL1 3591  10.240  10.794   6.997 -0.3481 -0.1219 -0.0442
    1DPPC   GL2 3592  10.449  10.944   6.756 -0.2714 -0.0577  0.0966
    1DPPC   C1A 3593   9.947  10.940   6.652 -0.2065  0.0496  0.0505
    1DPPC   C2A 3594   9.859  10.989   6.185  0.0371 -0.1352 -0.0496
    1DPPC   C3A 3595   9.755  11.132   5.771  0.0878  0.0005  0.3598
    1DPPC   C4A 3596   9.563  11.196   5.444  0.3075 -0.1714 -0.1902
    1DPPC   C1B 3597  10.299  11.153   6.381 -0.1503 -0.1271 -0.1802
    1DPPC   C2B 3598  10.235  11.197   5.910 -0.1383 -0.1615  0.1066
    1DPPC   C3B 3599  10.394  11.290   5.489  0.1052 -0.0842  0.0760
    1DPPC   C4B 3600  10.336  11.532   5.090  0.0771  0.3588  0.0490
    1DPPC   NC3 3601  13.401  17.388   7.337  0.3118  0.2920 -0.2751
    1DPPC   PO4 3602  13.590  17.659   7.113 -0.0070  0.1414  0.2997
    1DPPC   GL1 3603  13.885  17.512   6.921 -0.2148 -0.1132  0.1943
    1DPPC   GL2 3604  14.313  17.640   6.743  0.1599 -0.0315  0.1510
    1DPPC   C1A 3605  13.841  17.136   6.622 -0.0808 -0.0046  0.1295
    1DPPC   C2A 3606  13.814  17.168   6.167  0.2273 -0.1099  0.0482
    1DPPC   C3A 3607  13.737  17.317   5.804 -0.1707 -0.0291  0.0064
    1DPPC   C4A 3608  13.503  17.502   5.352 -0.3578 -0.1482 -0.2210
    1DPPC   C1B 3609  13.983  17.610   6.418  0.1842  0.0189 -0.1629
    1DPPC   C2B 3610  13.778  17.767   6.062 -0.1158 -0.0582 -0.0595
    1DPPC   C3B 3611  13.442  17.918   5.671 -0.1030 -0.1647  0.1596
    1DPPC   C4B 3612  13.172  18.110   5.426  0.2911  0.2248  0.1968
    1DPPC   NC3 3613  21.504  16.588   6.888  0.0816  0.2697 -0.0458
    1DPPC   PO4 3614  21.759  16.917   6.595 -0.3520 -0.0126 -0.2820
    1DPPC   GL1 3615  22.031  17.138   6.382  0.0117  0.2389 -0.1514
    1DPPC   GL2 3616  22.180  16.929   6.336  0.0002  0.0415 -0.1213
    1DPPC   C1A 3617  21.962  17.376   6.169  0.1393 -0.4059  0.5179
    1DPPC   C2A 3618  21.988  17.401   5.714  0.0388 -0.2888 -0.0341
    1DPPC   C3A 3619  22.227  17.662   5.279  0.2691  0.2749 -0.0770
    1DPPC   C4A 3620  21.938  17.938   4.946 -0.0709 -0.0201  0.0662
    1DPPC   C1B 3621  22.307  16.999   5.962 -0.0448 -0.1083  0.1583
    1DPPC   C2B 3622  22.275  17.039   5.500  0.0504  0.1642 -0.0599
    1DPPC   C3B 3623  22.307  17.176   5.101  0.1984 -0.0353 -0.0467
    1DPPC   C4B 3624  22.268  17.548   4.820  0.2260 -0.0919 -0.0384
    1DPPC   NC3 3625  13.982  18.379   7.301  0.1235  0.0892  0.2742
    1DPPC   PO4 3626  13.629  18.390   7.515  0.1004 -0.2375  0.2945
    1DPPC   GL1 3627  13.555  18.392   7.017 -0.0953  0.1751  0.2914
    1DPPC   GL2 3628  13.402  18.096   6.898  0.0077  0.2213  0.1272
    1DPPC   C1A 3629  13.676  18.591   6.571 -0.2099  0.1879  0.1440
    1DPPC   C2A 3630  13.670  18.733   6.134 -0.0748 -0.0616  0.1063
    1DPPC   C3A 3631  13.718  18.853   5.664  0.1101  0.0329 -0.0577
    1DPPC   C4A 3632  13.664  18.916   5.263 -0.3102 -0.3290  0.2044
    1DPPC   C1B 3633  13.509  17.964   6.504  0.1374 -0.1098  0.0057
    1DPPC   C2B 3634  13.492  18.180   6.147 -0.0260 -0.1534  0.1666
    1DPPC   C3B 3635  13.682  18.365   5.815 -0.0021  0.2881  0.0492
    1DPPC   C4B 3636  13.737  18.357   5.365 -0.2396  0.2136  0.3067
    1DPPC   NC3 3637  14.268   6.529   7.775  0.2784  0.0629  0.0313
    1DPPC   PO4 3638  14.028   6.268   7.556 -0.0550 -0.1915  0.3234
    1DPPC   GL1 3639  14.124   6.400   7.203 -0.1875 -0.0534  0.3011
    1DPPC   GL2 3640  14.359   6.616   7.299  0.3972  0.1442  0.0542
    1DPPC   C1A 3641  14.033   6.446   6.851 -0.0415 -0.0838  0.1711
    1DPPC   C2A 3642  13.896   6.363   6.426  0.0101  0.0676 -0.0915
    1DPPC   C3A 3643  13.743   6.470   6.007 -0.0198  0.0716 -0.3359
    1DPPC   C4A 3644  13.576   6.444   5.566  0.3706  0.0008  0.0692
    1DPPC   C1B 3645  14.552   6.447   7.000 -0.2334  0.4346  0.1065
    1DPPC   C2B 3646  14.963   6.459   6.814  0.2874  0.2445  0.1224
    1DPPC   C3B 3647  15.064   6.507   6.488 -0.0223 -0.0636 -0.4107
    1DPPC   C4B 3648  15.280   6.207   6.226 -0.2999 -0.1517  0.0986
    1DIPC   NC3 3649   9.590   6.319   7.140 -0.0056  0.1728  0.2994
    1DIPC   PO4 3650  10.027   6.473   7.073 -0.2260 -0.1617 -0.2140
    1DIPC   GL1 3651  10.155   6.485   6.605 -0.3778  0.3390  0.0359
    1DIPC   GL2 3652  10.414   6.634   6.412  0.0347  0.4167  0.0136
    1DIPC   C1A 3653  10.167   6.240   6.195  0.3758  0.0293 -0.1013
    1DIPC   D2A 3654  10.136   6.111   5.815  0.2220 -0.0885 -0.2058
    1DIPC   D3A 3655  10.161   5.575   6.031  0.1971 -0.1755  0.4327
    1DIPC   C4A 3656   9.873   5.488   6.289 -0.3252 -0.2447 -0.1490
    1DIPC   C1B 3657  10.234   6.706   6.009 -0.0802 -0.0520  0.2060
    1DIPC   D2B 3658   9.829   6.624   5.682 -0.2051 -0.1569  0.4181
    1DIPC   D3B 3659  10.087   6.414   5.337 -0.0791 -0.2359 -0.1599
    1DIPC   C4B 3660  10.449   6.692   5.496 -0.4222 -0.1981  0.5503
    1DIPC   NC3 3661   1.810  14.411   6.985 -0.0438 -0.0763  0.0165
    1DIPC   PO4 3662   1.691  14.488   6.515 -0.2762 -0.0251  0.2094
    1DIPC   GL1 3663   1.792  14.360   6.081 -0.0325  0.0796 -0.1171
    1DIPC   GL2 3664   1.603  14.376   5.888  0.0876 -0.1988 -0.2478
    1DIPC   C1A 3665   2.077  14.058   5.918 -0.0646  0.0694 -0.0040
    1DIPC   D2A 3666   2.442  14.152   5.706 -0.2082  0.2376  0.2699
    1DIPC   D3A 3667   2.390  13.912   5.365  0.0677  0.3082 -0.1675
    1DIPC   C4A 3668   1.973  13.906   5.360 -0.2428  0.0450  0.4808
    1DIPC   C1B 3669   1.628  14.024   5.691 -0.0581  0.0765  0.1780
    1DIPC   D2B 3670   1.342  13.655   5.691  0.1559 -0.0535 -0.3012
    1DIPC   D3B 3671   1.336  13.879   5.294 -0.1182 -0.2078 -0.1751
    1DIPC   C4B 3672   1.583  14.067   5.102  0.0632 -0.2128 -0.0916
    1DIPC   NC3 3673   3.529  15.043   6.474 -0.2744  0.0898  0.2262
    1DIPC   PO4 3674   3.176  15.185   6.239  0.0090  0.3010 -0.5126
    1DIPC   GL1 3675   3.424  14.997   5.938 -0.4635 -0.1533 -0.0056
    1DIPC   GL2 3676   3.418  15.130   5.647 -0.1432 -0.0220 -0.2219
    1DIPC   C1A 3677   3.554  14.597   5.796 -0.1181 -0.0484 -0.0458
    1DIPC   D2A 3678   3.404  14.367   5.380  0.0174 -0.2000 -0.1993
    1DIPC   D3A 3679   3.098  14.577   5.343 -0.1848 -0.0045  0.2111
    1DIPC   C4A 3680   3.001  14.889   5.672  0.0918 -0.0757  0.1351
    1DIPC   C1B 3681   3.161  15.342   5.290  0.1670 -0.0850 -0.2557
    1DIPC   D2B 3682   3.048  15.372   4.913  0.0907 -0.1287  0.0777
    1DIPC   D3B 3683   3.437  15.298   4.757 -0.1051  0.4152  0.0131
    1DIPC   C4B 3684   3.806  15.242   4.493 -0.1963  0.1936  0.0225
    1DIPC   NC3 3685  14.677  28.591   7.751  0.0241  0.1352 -0.3377
    1DIPC   PO4 3686  15.079  28.819   7.630  0.0780 -0.2529  0.0647
    1DIPC   GL1 3687  14.897  28.772   7.254 -0.1380  0.1417 -0.1211
    1DIPC   GL2 3688  15.003  28.870   6.915 -0.1949 -0.1408  0.1881
    1DIPC   C1A 3689  14.860  28.400   6.927  0.1055  0.0283 -0.2003
    1DIPC   D2A 3690  14.749  28.106   6.613  0.2207  0.0820 -0.1495
    1DIPC   D3A 3691  15.189  28.213   6.547  0.2451 -0.0822 -0.1359
    1DIPC   C4A 3692  15.348  28.515   6.926  0.1888 -0.0374  0.1717
    1DIPC   C1B 3693  14.876  28.626   6.517  0.2281  0.0375 -0.4585
    1DIPC   D2B 3694  14.766  28.583   6.141  0.3624  0.1205 -0.1287
    1DIPC   D3B 3695  15.211  28.617   6.074  0.1467 -0.0071  0.2057
    1DIPC   C4B 3696  15.486  28.976   5.879 -0.1143  0.0334  0.0444
    1DIPC   NC3 3697  28.582   4.269   6.795  0.4366 -0.0168 -0.1333
    1DIPC   PO4 3698  28.917   4.263   6.369  0.3241 -0.1437  0.0204
    1DIPC   GL1 3699  28.683   4.447   6.017 -0.0466 -0.1489 -0.2259
    1DIPC   GL2 3700  28.837   4.572   5.709  0.0203  0.1941 -0.2625
    1DIPC   C1A 3701  28.555   4.184   5.650 -0.0965 -0.2705  0.1079
    1DIPC   D2A 3702  28.246   3.946   5.452 -0.1569  0.0478 -0.2180
    1DIPC   D3A 3703  28.071   4.355   5.471 -0.0750 -0.1067  0.0243
    1DIPC   C4A 3704  28.017   4.557   5.188  0.0873 -0.0396  0.3229
    1DIPC   C1B 3705  28.630   4.556   5.255  0.1847 -0.2061  0.2340
    1DIPC   D2B 3706  28.679   4.507   4.786 -0.1318 -0.0394 -0.0607
    1DIPC   D3B 3707  29.087   4.371   4.773 -0.0683  0.0947  0.2054
    1DIPC   C4B 3708  29.318   4.335   4.461  0.0548 -0.0844 -0.0240
    1DIPC   NC3 3709  21.331   8.805   7.175  0.1448 -0.0684 -0.1190
    1DIPC   PO4 3710  21.511   9.109   6.874  0.0161  0.1855 -0.0494
    1DIPC   GL1 3711  21.165   9.041   6.742  0.0263  0.3107  0.0463
    1DIPC   GL2 3712  21.160   9.274   6.478 -0.1245  0.1715  0.3108
    1DIPC   C1A 3713  20.798   8.932   6.551  0.2501 -0.2477 -0.1006
    1DIPC   D2A 3714  20.623   8.604   6.454  0.0428  0.0683  0.0773
    1DIPC   D3A 3715  20.440   8.456   6.216 -0.2307 -0.2005 -0.3410
    1DIPC   C4A 3716  20.357   8.440   5.800 -0.3130 -0.1149  0.3777
    1DIPC   C1B 3717  21.235   9.608   6.207  0.2425 -0.1285  0.0087
    1DIPC   D2B 3718  21.361  10.022   5.964  0.1739 -0.0083  0.1162
    1DIPC   D3B 3719  21.577   9.984   5.538 -0.0366  0.2771 -0.0038
    1DIPC   C4B 3720  21.889  10.248   5.401  0.0298  0.1321 -0.1152
    1DIPC   NC3 3721   9.236   0.463   7.448  0.0456 -0.1969 -0.2242
    1DIPC   PO4 3722   9.159   0.880   7.544  0.0571  0.2047 -0.2570
    1DIPC   GL1 3723   9.094   0.931   7.127 -0.1545  0.2205 -0.0175
    1DIPC   GL2 3724   8.761   0.968   7.059  0.0440  0.0877  0.0549
    1DIPC   C1A 3725   9.082   1.002   6.692  0.0466  0.1348 -0.2494
    1DIPC   D2A 3726   9.171   1.230   6.394  0.0185 -0.1792  0.0613
    1DIPC   D3A 3727   9.185   0.912   6.057 -0.2513 -0.3531 -0.2129
    1DIPC   C4A 3728   8.818   0.813   5.798 -0.0768  0.2051 -0.0285
    1DIPC   C1B 3729   8.900   0.552   6.829 -0.1313 -0.0566 -0.2711
    1DIPC   D2B 3730   9.108   0.095   6.837  0.0032 -0.1119  0.0119
    1DIPC   D3B 3731   9.576   0.179   6.648  0.0177  0.1193 -0.1493
    1DIPC   C4B 3732   9.631  -0.154   6.419 -0.3160  0.0212  0.0881
    1DIPC   NC3 3733  26.795  28.342   7.556  0.2316  0.1198  0.5466
    1DIPC   PO4 3734  27.207  28.147   7.327 -0.2421 -0.1005 -0.2059
    1DIPC   GL1 3735  27.228  28.071   6.889 -0.1333  0.1412 -0.1890
    1DIPC   GL2 3736  27.059  27.791   6.864 -0.0875  0.2879 -0.0995
    1DIPC   C1A 3737  27.295  28.160   6.494  0.2426  0.1365 -0.0232
    1DIPC   D2A 3738  27.402  28.109   6.015  0.2038  0.0339 -0.2192
    1DIPC   D3A 3739  27.356  28.521   6.052 -0.3285  0.0612 -0.0718
    1DIPC   C4A 3740  27.421  28.791   5.813 -0.0404 -0.0465  0.3237
    1DIPC   C1B 3741  26.868  27.879   6.488 -0.2133 -0.0418  0.0863
    1DIPC   D2B 3742  26.526  27.627   6.251  0.1114  0.2035 -0.0638
    1DIPC   D3B 3743  26.593  27.952   6.015  0.0588 -0.1715  0.0703
    1DIPC   C4B 3744  26.258  28.186   5.920  0.0848  0.0391 -0.0952
    1DIPC   NC3 3745  20.887  10.647   7.024 -0.1385  0.1710  0.2068
    1DIPC   PO4 3746  21.280  10.485   6.837  0.2470 -0.2445 -0.2786
    1DIPC   GL1 3747  21.465  10.431   6.547 -0.1338 -0.2088  0.0167
    1DIPC   GL2 3748  21.538  10.085   6.474  0.1340  0.1503  0.1211
    1DIPC   C1A 3749  21.710  10.414   6.170 -0.2947 -0.3199  0.1184
    1DIPC   D2A 3750  21.573  10.482   5.805  0.1446  0.0023  0.0449
    1DIPC   D3A 3751  21.233  10.775   5.730  0.0177  0.2773 -0.1476
    1DIPC   C4A 3752  21.027  10.698   5.411 -0.2258 -0.1671 -0.0876
    1DIPC   C1B 3753  21.847   9.915   6.133  0.4789  0.2586  0.0691
    1DIPC   D2B 3754  22.246   9.736   6.066  0.1715  0.2405  0.0575
    1DIPC   D3B 3755  22.013   9.485   5.658 -0.0476 -0.0626 -0.2112
    1DIPC   C4B 3756  21.852   9.654   5.307  0.1217  0.2209  0.1229
    1DIPC   NC3 3757   4.660   2.078   6.932 -0.0697  0.1944  0.2662
    1DIPC   PO4 3758   4.317   2.305   6.761 -0.0219  0.0532  0.3929
    1DIPC   GL1 3759   4.470   1.865   6.481 -0.2593 -0.2129  0.2879
    1DIPC   GL2 3760   4.687   1.990   6.232 -0.0111 -0.0999  0.1410
    1DIPC   C1A 3761   4.266   1.642   6.138 -0.2447  0.0945  0.0026
    1DIPC   D2A 3762   4.299   1.540   5.742  0.2918  0.2588 -0.0718
    1DIPC   D3A 3763   4.483   1.904   5.775  0.0536 -0.3569 -0.1008
    1DIPC   C4A 3764   4.974   1.929   5.631 -0.2639  0.1382 -0.2991
    1DIPC   C1B 3765   5.115   1.878   6.187 -0.1807 -0.5482  0.0492
    1DIPC   D2B 3766   5.428   1.801   5.937  0.2489 -0.2113 -0.0327
    1DIPC   D3B 3767   5.270   1.510   5.610 -0.2062 -0.0853 -0.0220
    1DIPC   C4B 3768   5.513   1.172   5.373 -0.0512  0.1688  0.2653
    1DIPC   NC3 3769   4.691  14.819   6.523 -0.0493  0.1529 -0.1028
    1DIPC   PO4 3770   5.041  14.750   6.328 -0.0558 -0.0295 -0.1895
    1DIPC   GL1 3771   5.120  14.644   5.918  0.1216 -0.1369  0.1296
    1DIPC   GL2 3772   5.341  14.848   5.904 -0.0762 -0.3854 -0.1318
    1DIPC   C1A 3773   4.998  15.000   5.612 -0.0742  0.2513  0.0372
    1DIPC   D2A 3774   4.841  15.084   5.304  0.1380 -0.1293 -0.0680
    1DIPC   D3A 3775   4.986  14.698   5.193  0.2557  0.1726  0.1527
    1DIPC   C4A 3776   4.983  14.465   4.790 -0.1021  0.0367  0.0631
    1DIPC   C1B 3777   5.697  14.755   5.599  0.2193  0.4059 -0.2379
    1DIPC   D2B 3778   5.820  14.526   5.117 -0.1086 -0.2110 -0.1005
    1DIPC   D3B 3779   5.436  14.581   5.112  0.1436  0.1000  0.1613
    1DIPC   C4B 3780   5.434  14.752   4.725  0.0454 -0.3092 -0.0990
    1DIPC   NC3 3781   4.134   4.953   7.019 -0.0054  0.0341 -0.0661
    1DIPC   PO4 3782   4.527   4.892   6.857  0.0438  0.0255  0.1388
    1DIPC   GL1 3783   4.566   4.657   6.511  0.0385 -0.0046  0.3363
    1DIPC   GL2 3784   4.785   4.629   6.349  0.0373  0.0852 -0.0524
    1DIPC   C1A 3785   4.616   4.208   6.285 -0.1589 -0.0847 -0.1818
    1DIPC   D2A 3786   4.698   3.765   6.252 -0.3181  0.0829 -0.2123
    1DIPC   D3A 3787   4.231   3.671   6.062 -0.0191 -0.4504  0.1153
    1DIPC   C4A 3788   4.306   3.553   5.655  0.2977  0.1423 -0.0285
    1DIPC   C1B 3789   4.784   4.468   5.937 -0.0031  0.1404  0.3115
    1DIPC   D2B 3790   4.758   4.262   5.474  0.1695  0.3187  0.0115
    1DIPC   D3B 3791   4.817   4.338   5.094  0.0789  0.1128 -0.0477
    1DIPC   C4B 3792   4.388   4.429   4.958  0.2837  0.0986  0.0244
    1DIPC   NC3 3793  22.080   6.069   7.160  0.0745  0.2089 -0.1467
    1DIPC   PO4 3794  21.600   6.169   7.014 -0.0992 -0.0052  0.1287
    1DIPC   GL1 3795  21.304   6.223   6.595 -0.0127 -0.1748 -0.1373
    1DIPC   GL2 3796  21.278   6.538   6.493  0.0852 -0.2145  0.0532
    1DIPC   C1A 3797  21.074   6.001   6.374  0.1116  0.2909  0.2177
    1DIPC   D2A 3798  20.879   6.091   5.985  0.0743  0.2459  0.2461
    1DIPC   D3A 3799  20.535   6.322   6.181 -0.0785 -0.1762  0.0289
    1DIPC   C4A 3800  20.262   6.370   5.877  0.0738  0.0388  0.0313
    1DIPC   C1B 3801  21.224   6.405   6.073  0.0960  0.1693 -0.1215
    1DIPC   D2B 3802  21.307   6.332   5.580  0.1046  0.1072  0.0279
    1DIPC   D3B 3803  21.195   6.683   5.441  0.1624  0.3842  0.0225
    1DIPC   C4B 3804  21.416   6.905   5.160  0.0732 -0.2606  0.3917
    1DIPC   NC3 3805   1.485  20.748   5.740  0.0911 -0.2750 -0.0537
    1DIPC   PO4 3806   1.684  21.109   5.993 -0.0672 -0.0658  0.0490
    1DIPC   GL1 3807   1.473  21.401   5.692  0.2052  0.3052  0.0473
    1DIPC   GL2 3808   1.531  21.258   5.452 -0.1601 -0.1743  0.1345
    1DIPC   C1A 3809   1.211  21.719   5.567 -0.0958  0.0804 -0.0081
    1DIPC   D2A 3810   0.756  21.703   5.303 -0.0066 -0.0029 -0.0026
    1DIPC   D3A 3811   0.406  21.726   5.114  0.1637  0.1077  0.1358
    1DIPC   C4A 3812   0.187  21.411   5.041  0.1917 -0.2816 -0.0509
    1DIPC   C1B 3813   0.995  21.237   5.338  0.2201  0.1212 -0.0207
    1DIPC   D2B 3814   0.890  21.271   4.980 -0.2480  0.0803  0.1423
    1DIPC   D3B 3815   0.872  21.737   4.858 -0.0351  0.1983 -0.1067
    1DIPC   C4B 3816   0.979  21.853   4.410 -0.1093  0.0977  0.5015
    1DIPC   NC3 3817   8.367  21.715   6.438 -0.1839  0.0311  0.1419
    1DIPC   PO4 3818   8.384  21.226   6.331 -0.2482 -0.2308  0.1112
    1DIPC   GL1 3819   8.279  21.088   5.940 -0.0866 -0.0925  0.1140
    1DIPC   GL2 3820   8.456  21.246   5.784 -0.0483  0.0046 -0.2605
    1DIPC   C1A 3821   7.992  21.085   5.478 -0.3049 -0.1627  0.2937
    1DIPC   D2A 3822   7.659  21.199   5.305 -0.0622  0.0613 -0.2555
    1DIPC   D3A 3823   7.960  21.155   4.963  0.0606 -0.2790  0.3372
    1DIPC   C4A 3824   7.880  20.867   4.722  0.3756  0.0393  0.2161
    1DIPC   C1B 3825   8.438  20.859   5.487  0.0527  0.2617  0.1367
    1DIPC   D2B 3826   8.922  20.842   5.325  0.2127  0.0213 -0.1767
    1DIPC   D3B 3827   8.704  20.416   5.281 -0.2793 -0.0796 -0.1627
    1DIPC   C4B 3828   8.542  20.256   4.953 -0.1217  0.1455 -0.3119
    1DIPC   NC3 3829   3.085  17.060   6.179 -0.3394 -0.0911 -0.1652
    1DIPC   PO4 3830   3.312  16.725   6.226  0.1360  0.3826  0.3130
    1DIPC   GL1 3831   3.217  16.649   5.706  0.0793 -0.2912  0.0692
    1DIPC   GL2 3832   3.191  16.974   5.630 -0.1593  0.0941 -0.2917
    1DIPC   C1A 3833   3.030  16.492   5.326  0.0663 -0.0871  0.1969
    1DIPC   D2A 3834   2.797  16.325   4.912 -0.0290 -0.1010 -0.2116
    1DIPC   D3A 3835   2.644  16.561   4.525 -0.0743  0.4737  0.2455
    1DIPC   C4A 3836   2.430  16.925   4.427 -0.1681 -0.0760 -0.3325
    1DIPC   C1B 3837   2.942  17.139   5.299 -0.0900  0.3334 -0.0962
    1DIPC   D2B 3838   2.902  17.001   4.855  0.3724 -0.2210  0.2104
    1DIPC   D3B 3839   3.222  16.687   4.868 -0.0182 -0.1798 -0.1144
    1DIPC   C4B 3840   3.240  16.405   4.507 -0.2657  0.2337  0.0225
    1DIPC   NC3 3841   7.134  17.009   6.398 -0.0788 -0.0803 -0.1465
    1DIPC   PO4 3842   6.742  17.266   6.321  0.1906  0.0581 -0.0735
    1DIPC   GL1 3843   6.683  17.266   5.918 -0.0908  0.1095  0.0146
    1DIPC   GL2 3844   6.577  16.958   5.699 -0.2737  0.0222 -0.0211
    1DIPC   C1A 3845   6.659  17.472   5.478  0.1442 -0.3163 -0.2258
    1DIPC   D2A 3846   6.703  17.453   4.991 -0.1281  0.0050  0.0749
    1DIPC   D3A 3847   7.043  17.740   5.191 -0.4305 -0.0831  0.0945
    1DIPC   C4A 3848   7.070  18.217   4.958  0.1055  0.0445  0.0730
    1DIPC   C1B 3849   6.956  17.022   5.326  0.3370  0.5227  0.0013
    1DIPC   D2B 3850   7.114  17.257   5.009  0.0269 -0.2061 -0.0919
    1DIPC   D3B 3851   7.279  16.940   4.851  0.0150 -0.3652  0.1936
    1DIPC   C4B 3852   7.022  16.547   4.789 -0.2334  0.0781 -0.0633
    1DIPC   NC3 3853  23.319   8.867   6.417 -0.1464  0.0078 -0.0775
    1DIPC   PO4 3854  23.542   8.461   6.352  0.0240 -0.1825  0.2382
    1DIPC   GL1 3855  23.428   8.633   5.982 -0.4757  0.0852 -0.2942
    1DIPC   GL2 3856  23.202   8.636   5.957 -0.0095  0.1277 -0.0702
    1DIPC   C1A 3857  23.739   8.873   5.815  0.1298 -0.0423  0.0350
    1DIPC   D2A 3858  24.174   8.904   5.842 -0.0870  0.0754 -0.0367
    1DIPC   D3A 3859  24.239   9.320   5.649 -0.0069 -0.1054 -0.0090
    1DIPC   C4A 3860  24.428   9.669   5.617  0.2971  0.2033  0.0754
    1DIPC   C1B 3861  23.069   8.470   5.635 -0.4288  0.1797  0.1755
    1DIPC   D2B 3862  23.126   8.150   5.276 -0.3338 -0.2021 -0.0825
    1DIPC   D3B 3863  23.054   7.815   5.031  0.1009  0.4915  0.3473
    1DIPC   C4B 3864  22.801   7.474   4.706  0.0650 -0.3421  0.0432
    1DIPC   NC3 3865  27.370   8.034   6.298  0.2758  0.0422 -0.1854
    1DIPC   PO4 3866  27.144   8.346   6.097  0.0832 -0.0970  0.1448
    1DIPC   GL1 3867  27.260   8.177   5.686 -0.0204 -0.0578 -0.1842
    1DIPC   GL2 3868  27.399   7.945   5.726 -0.1392 -0.1533 -0.5658
    1DIPC   C1A 3869  27.265   8.044   5.213 -0.1345  0.2098  0.0606
    1DIPC   D2A 3870  27.261   7.920   4.792 -0.0468  0.1023 -0.2192
    1DIPC   D3A 3871  27.305   7.622   4.584 -0.0683  0.1065  0.0480
    1DIPC   C4A 3872  26.890   7.398   4.613 -0.1450 -0.1458 -0.0234
    1DIPC   C1B 3873  27.701   7.781   5.530  0.1371 -0.0303 -0.1978
    1DIPC   D2B 3874  27.974   7.620   5.368 -0.6241 -0.2552 -0.3780
    1DIPC   D3B 3875  27.649   7.746   5.043  0.1711 -0.1233 -0.0019
    1DIPC   C4B 3876  27.776   7.778   4.601 -0.2197  0.0690 -0.2220
    1DIPC   NC3 3877  28.524  18.650   5.863  0.4326 -0.1712 -0.1164
    1DIPC   PO4 3878  28.096  18.795   5.896 -0.1927  0.3135 -0.1111
    1DIPC   GL1 3879  28.211  18.704   5.468  0.4099 -0.0480 -0.1412
    1DIPC   GL2 3880  28.065  19.029   5.415 -0.1679 -0.1155  0.1599
    1DIPC   C1A 3881  28.111  18.527   5.095  0.1202  0.2814  0.2444
    1DIPC   D2A 3882  28.097  18.548   4.706  0.3113 -0.2894  0.1565
    1DIPC   D3A 3883  27.991  18.170   4.590 -0.0571  0.0652 -0.0139
    1DIPC   C4A 3884  27.636  17.964   4.249  0.1916  0.4429  0.0340
    1DIPC   C1B 3885  27.943  19.000   5.011  0.1617 -0.1816  0.0151
    1DIPC   D2B 3886  27.846  19.200   4.707 -0.0717  0.2017  0.1425
    1DIPC   D3B 3887  27.933  19.505   5.033 -0.0063  0.0412 -0.0199
    1DIPC   C4B 3888  28.088  19.898   5.063 -0.0646  0.1220 -0.1361
    1DIPC   NC3 3889   9.710   1.723   7.703  0.1183 -0.1104 -0.0032
    1DIPC   PO4 3890  10.178   1.551   7.677  0.3199  0.2243  0.1056
    1DIPC   GL1 3891  10.366   1.690   7.305 -0.0703  0.0652 -0.0826
    1DIPC   GL2 3892  10.296   1.919   7.048 -0.0730 -0.1555  0.2593
    1DIPC   C1A 3893  10.635   1.476   6.964 -0.0024  0.0635  0.0326
    1DIPC   D2A 3894  10.577   1.099   6.743  0.0967 -0.2269 -0.0407
    1DIPC   D3A 3895  10.903   1.318   6.597 -0.3351 -0.1494  0.0270
    1DIPC   C4A 3896  11.178   1.597   6.894  0.0514  0.0150  0.0372
    1DIPC   C1B 3897  10.487   2.246   6.756 -0.0416 -0.1644  0.1095
    1DIPC   D2B 3898  10.400   2.271   6.260 -0.1241 -0.0914  0.2869
    1DIPC   D3B 3899  10.551   1.898   6.170 -0.0331 -0.0700  0.0678
    1DIPC   C4B 3900  10.410   1.766   6.567  0.0133 -0.2188  0.2256
    1DIPC   NC3 3901  12.869  27.283   7.739 -0.0914 -0.0050  0.0373
    1DIPC   PO4 3902  13.008  27.721   7.654  0.0348 -0.0366  0.0805
    1DIPC   GL1 3903  12.953  27.885   7.191 -0.0688  0.0473 -0.0336
    1DIPC   GL2 3904  12.719  27.899   6.919  0.2231  0.0776  0.1958
    1DIPC   C1A 3905  13.135  27.644   6.791 -0.2177  0.0304 -0.1172
    1DIPC   D2A 3906  13.038  27.488   6.445  0.3403 -0.1858 -0.2533
    1DIPC   D3A 3907  13.043  27.994   6.402 -0.4048  0.1953 -0.3153
    1DIPC   C4A 3908  12.738  28.244   6.283  0.1743 -0.3918 -0.3334
    1DIPC   C1B 3909  12.571  27.835   6.515  0.1200 -0.3721 -0.0368
    1DIPC   D2B 3910  12.741  27.757   6.044  0.1996 -0.1901 -0.0234
    1DIPC   D3B 3911  12.831  28.136   5.857  0.0453 -0.1515 -0.0157
    1DIPC   C4B 3912  13.161  28.396   5.924 -0.1695  0.0816  0.1147
    1DIPC   NC3 3913   6.433  13.285   6.819  0.0995  0.0638 -0.0346
    1DIPC   PO4 3914   6.552  13.697   6.872  0.0072 -0.2660  0.0550
    1DIPC   GL1 3915   6.633  13.586   6.487 -0.0725 -0.2562  0.1130
    1DIPC   GL2 3916   6.964  13.763   6.500  0.0183 -0.0347 -0.1770
    1DIPC   C1A 3917   6.615  13.379   6.041  0.0617 -0.2491  0.1523
    1DIPC   D2A 3918   6.469  13.153   5.691  0.2060 -0.0270 -0.1213
    1DIPC   D3A 3919   6.192  12.967   5.353 -0.1370  0.0941  0.4578
    1DIPC   C4A 3920   6.332  12.505   5.092 -0.0158  0.0939 -0.1910
    1DIPC   C1B 3921   6.938  14.261   6.357  0.1167 -0.0261  0.2586
    1DIPC   D2B 3922   7.052  14.520   6.011  0.0141  0.0063  0.0685
    1DIPC   D3B 3923   6.960  14.325   5.644 -0.2933 -0.1432 -0.2577
    1DIPC   C4B 3924   6.583  14.124   5.516  0.0854  0.0513 -0.1378
    1DIPC   NC3 3925   6.735   3.084   6.566  0.0519  0.0636 -0.3359
    1DIPC   PO4 3926   7.110   3.116   6.894  0.1107  0.0604  0.0770
    1DIPC   GL1 3927   7.271   3.173   6.488  0.2531  0.0817  0.0154
    1DIPC   GL2 3928   6.994   3.309   6.242  0.2023 -0.1728  0.0629
    1DIPC   C1A 3929   7.447   3.293   6.072 -0.2120 -0.1158  0.0813
    1DIPC   D2A 3930   7.850   3.329   5.788  0.1635 -0.1088  0.1118
    1DIPC   D3A 3931   7.547   3.223   5.581  0.1176  0.1625 -0.1194
    1DIPC   C4A 3932   7.239   3.447   5.630  0.2852 -0.3080  0.1741
    1DIPC   C1B 3933   7.080   3.011   5.914 -0.1294 -0.0321  0.0529
    1DIPC   D2B 3934   6.726   2.945   5.921 -0.0531  0.4432 -0.1287
    1DIPC   D3B 3935   6.567   3.145   5.528 -0.0441  0.2030  0.0807
    1DIPC   C4B 3936   6.327   3.460   5.117  0.0485 -0.0959 -0.2358
    1DIPC   NC3 3937  12.948   7.101   7.764  0.0067  0.3744 -0.1237
    1DIPC   PO4 3938  12.706   6.822   7.915  0.0386 -0.1855 -0.1303
    1DIPC   GL1 3939  12.529   6.880   7.457 -0.1474 -0.0138  0.2119
    1DIPC   GL2 3940  12.862   6.944   7.321  0.0362  0.1547 -0.0198
    1DIPC   C1A 3941  12.526   6.585   7.076  0.2638  0.1855  0.0961
    1DIPC   D2A 3942  12.581   6.120   7.072  0.0714  0.0199 -0.2220
    1DIPC   D3A 3943  12.431   6.266   6.726 -0.1512 -0.0178  0.3902
    1DIPC   C4A 3944  12.123   6.602   6.717  0.0154  0.0133 -0.1949
    1DIPC   C1B 3945  12.819   6.970   6.933 -0.0330 -0.0836 -0.0682
    1DIPC   D2B 3946  12.779   7.144   6.583  0.1859  0.1992 -0.0370
    1DIPC   D3B 3947  12.990   7.007   6.293  0.1861 -0.1005 -0.3775
    1DIPC   C4B 3948  12.706   6.828   6.050 -0.0334 -0.0773  0.1042
    1DIPC   NC3 3949  12.851   5.031   7.711  0.1463 -0.0112 -0.0177
    1DIPC   PO4 3950  12.467   4.904   7.594 -0.1681  0.0550  0.1979
    1DIPC   GL1 3951  12.366   4.794   7.175 -0.1462  0.0408  0.1932
    1DIPC   GL2 3952  12.075   4.636   7.063  0.4548 -0.0985 -0.1505
    1DIPC   C1A 3953  12.577   4.758   6.823 -0.3029  0.1739 -0.0539
    1DIPC   D2A 3954  12.866   4.679   6.500  0.0086  0.1237  0.3309
    1DIPC   D3A 3955  13.134   4.962   6.218  0.0027  0.2540  0.0014
    1DIPC   C4A 3956  13.016   5.330   5.986 -0.0743  0.0267 -0.2946
    1DIPC   C1B 3957  12.162   4.511   6.694  0.0840 -0.2216  0.2380
    1DIPC   D2B 3958  12.392   4.539   6.320 -0.0608  0.1576  0.0756
    1DIPC   D3B 3959  12.161   4.089   6.451  0.1403  0.0332 -0.0549
    1DIPC   C4B 3960  11.833   4.029   6.627  0.0310  0.1286 -0.2444
    1DIPC   NC3 3961  25.852  16.245   6.322 -0.1569  0.0955  0.0518
    1DIPC   PO4 3962  25.695  16.667   6.361  0.0369 -0.2873 -0.1987
    1DIPC   GL1 3963  25.605  16.625   6.024  0.3547 -0.0362 -0.1451
    1DIPC   GL2 3964  25.836  16.471   5.829 -0.0740  0.2299  0.0772
    1DIPC   C1A 3965  25.312  16.821   5.609  0.0821  0.1346  0.1329
    1DIPC   D2A 3966  25.483  16.775   5.186 -0.2328 -0.0482 -0.3476
    1DIPC   D3A 3967  25.091  17.034   5.006  0.2690 -0.0598 -0.1342
    1DIPC   C4A 3968  24.937  17.256   4.693 -0.1303 -0.1286  0.1448
    1DIPC   C1B 3969  25.444  16.378   5.566 -0.2889 -0.2290 -0.5689
    1DIPC   D2B 3970  25.121  16.272   5.179  0.1556 -0.1307  0.0986
    1DIPC   D3B 3971  25.249  16.343   4.761  0.3235  0.0203  0.0073
    1DIPC   C4B 3972  25.650  16.468   4.781 -0.2430 -0.3132 -0.0084
    1DIPC   NC3 3973   4.608  27.857   6.595  0.1335 -0.0390 -0.1704
    1DIPC   PO4 3974   5.013  27.706   6.814 -0.2371 -0.1176 -0.2546
    1DIPC   GL1 3975   4.931  27.571   6.362 -0.1324  0.1298  0.2201
    1DIPC   GL2 3976   4.947  27.856   6.121 -0.2935  0.0464 -0.1122
    1DIPC   C1A 3977   4.554  27.572   6.076  0.2878 -0.4720 -0.1210
    1DIPC   D2A 3978   4.458  27.729   5.633  0.0220 -0.1670  0.2012
    1DIPC   D3A 3979   4.004  27.649   5.467  0.1233 -0.2579 -0.0231
    1DIPC   C4A 3980   3.957  27.994   5.121 -0.0295 -0.0023  0.1472
    1DIPC   C1B 3981   4.966  27.647   5.802  0.0967 -0.0168  0.0249
    1DIPC   D2B 3982   4.839  27.321   5.536 -0.0101  0.2280 -0.0110
    1DIPC   D3B 3983   4.830  27.282   5.160 -0.1156 -0.0165 -0.2486
    1DIPC   C4B 3984   4.765  27.587   4.723 -0.1806  0.1439  0.1684
    1DIPC   NC3 3985  19.554   3.923   7.422 -0.1944  0.0907 -0.1943
    1DIPC   PO4 3986  19.674   4.034   6.980  0.1409  0.0118 -0.0960
    1DIPC   GL1 3987  19.544   4.263   6.643 -0.0125  0.0559  0.0355
    1DIPC   GL2 3988  19.407   4.160   6.380 -0.0236  0.1197  0.3097
    1DIPC   C1A 3989  19.777   4.557   6.516 -0.2570 -0.1090 -0.0418
    1DIPC   D2A 3990  20.045   4.839   6.418  0.2375 -0.3459  0.0345
    1DIPC   D3A 3991  20.404   4.794   6.742 -0.2203 -0.0665  0.2828
    1DIPC   C4A 3992  20.851   4.890   6.608 -0.2086  0.1559 -0.1359
    1DIPC   C1B 3993  19.157   4.235   6.055 -0.1721  0.2567  0.2522
    1DIPC   D2B 3994  19.038   4.374   5.681 -0.4600 -0.0775 -0.0277
    1DIPC   D3B 3995  18.630   4.331   5.833  0.0024  0.1699  0.2547
    1DIPC   C4B 3996  18.484   4.749   6.048  0.1657  0.2536 -0.2776
    1DIPC   NC3 3997   4.727  20.486   6.077 -0.0954  0.0258 -0.0688
    1DIPC   PO4 3998   4.744  20.718   5.677  0.1674 -0.3122 -0.0703
    1DIPC   GL1 3999   4.483  20.752   5.257 -0.2495  0.1322  0.0500
    1DIPC   GL2 4000   4.256  20.952   5.063 -0.1999 -0.1311 -0.2910
    1DIPC   C1A 4001   4.683  20.837   4.876 -0.0438 -0.2140  0.0895
    1DIPC   D2A 4002   4.871  20.789   4.461 -0.2360 -0.1608 -0.0645
    1DIPC   D3A 4003   5.346  20.885   4.193 -0.1459 -0.0815  0.2193
    1DIPC   C4A 4004   5.648  20.851   3.808 -0.0186 -0.3125 -0.3866
    1DIPC   C1B 4005   4.203  20.533   4.877  0.0215  0.0085 -0.0484
    1DIPC   D2B 4006   4.207  20.204   4.947  0.1215 -0.0215  0.1743
    1DIPC   D3B 4007   4.239  20.006   4.511 -0.1094  0.0191 -0.0856
    1DIPC   C4B 4008   4.589  19.839   4.298  0.2253 -0.1425  0.0303
    1DIPC   NC3 4009  25.560   9.226   6.122 -0.4186 -0.1122  0.0134
    1DIPC   PO4 4010  25.923   9.220   5.760 -0.0447 -0.2850 -0.1916
    1DIPC   GL1 4011  26.009   8.880   5.471 -0.1369 -0.0424 -0.0403
    1DIPC   GL2 4012  25.968   8.633   5.467 -0.0221  0.1311 -0.2291
    1DIPC   C1A 4013  26.154   8.733   4.991 -0.2551  0.0499  0.0096
    1DIPC   D2A 4014  26.603   8.602   4.703 -0.1546  0.0018  0.1334
    1DIPC   D3A 4015  26.354   8.456   4.401  0.0071 -0.1536  0.0729
    1DIPC   C4A 4016  26.431   8.117   4.277  0.0931 -0.2101  0.0661
    1DIPC   C1B 4017  25.910   8.319   5.276  0.0074  0.0454 -0.2570
    1DIPC   D2B 4018  25.700   8.163   4.928 -0.0553  0.3509  0.1395
    1DIPC   D3B 4019  25.852   8.512   4.718  0.0278 -0.1436 -0.0307
    1DIPC   C4B 4020  25.853   8.477   4.172 -0.0717  0.1489 -0.0415
    1DIPC   NC3 4021  21.444   0.492   6.431 -0.1288  0.2865 -0.0818
    1DIPC   PO4 4022  21.359   0.906   6.309  0.0826  0.1322 -0.2517
    1DIPC   GL1 4023  21.408   0.929   5.895 -0.1734  0.2313  0.1144
    1DIPC   GL2 4024  21.208   0.794   5.656 -0.0835  0.1197 -0.1392
    1DIPC   C1A 4025  21.540   1.135   5.650 -0.1656  0.0491  0.1295
    1DIPC   D2A 4026  21.754   1.363   5.357  0.4235 -0.1535 -0.2727
    1DIPC   D3A 4027  21.611   0.994   5.171 -0.1253 -0.0129  0.1748
    1DIPC   C4A 4028  21.954   0.738   5.083  0.0668  0.0036 -0.1240
    1DIPC   C1B 4029  21.370   0.553   5.375  0.2051 -0.2064 -0.1251
    1DIPC   D2B 4030  21.603   0.289   5.116  0.0671 -0.3413 -0.1086
    1DIPC   D3B 4031  21.393   0.076   5.532  0.2492  0.2272  0.2073
    1DIPC   C4B 4032  21.015  -0.115   5.643 -0.2682 -0.2510  0.0224
    1DIPC   NC3 4033   9.770  28.523   7.509  0.2625 -0.1912 -0.2987
    1DIPC   PO4 4034   9.774  28.969   7.515  0.2600  0.3439  0.2788
    1DIPC   GL1 4035   9.731  29.205   7.110  0.0792  0.0086 -0.3297
    1DIPC   GL2 4036   9.566  29.541   7.076 -0.1135  0.1834  0.0457
    1DIPC   C1A 4037   9.824  29.312   6.672 -0.2292  0.0344  0.0281
    1DIPC   D2A 4038   9.794  29.074   6.237 -0.2119 -0.2327 -0.0824
    1DIPC   D3A 4039  10.155  29.274   5.923 -0.2970  0.0906 -0.4023
    1DIPC   C4A 4040  10.205  28.935   5.705  0.0485  0.2201 -0.1538
    1DIPC   C1B 4041   9.365  29.280   6.812  0.0958 -0.1928 -0.2556
    1DIPC   D2B 4042   9.199  29.214   6.449  0.0167  0.2172 -0.0028
    1DIPC   D3B 4043   9.235  28.897   6.269  0.1674  0.0268  0.1181
    1DIPC   C4B 4044   8.981  28.670   6.013  0.0844  0.2837  0.1470
    1DIPC   NC3 4045  24.405  27.802   7.173 -0.2853  0.1276  0.3424
    1DIPC   PO4 4046  24.061  27.916   6.896 -0.1986  0.0521  0.4175
    1DIPC   GL1 4047  24.233  27.986   6.411  0.1286 -0.0051  0.1437
    1DIPC   GL2 4048  24.087  27.735   6.222  0.1569  0.0700  0.0569
    1DIPC   C1A 4049  24.103  28.189   6.053  0.0118  0.0162 -0.1347
    1DIPC   D2A 4050  23.729  28.313   5.942 -0.0132 -0.1062  0.0071
    1DIPC   D3A 4051  23.494  27.962   6.066 -0.0553  0.0064  0.1017
    1DIPC   C4A 4052  23.552  27.562   5.940  0.2537 -0.3576 -0.1789
    1DIPC   C1B 4053  24.153  27.573   5.911  0.2681  0.0957 -0.2284
    1DIPC   D2B 4054  24.263  27.626   5.542 -0.1311  0.2134  0.0959
    1DIPC   D3B 4055  24.227  28.014   5.604 -0.0509 -0.0399 -0.2047
    1DIPC   C4B 4056  24.206  28.409   5.547  0.1611  0.0899  0.0155
    1DIPC   NC3 4057   0.507  25.315   6.471 -0.1067 -0.2151 -0.1665
    1DIPC   PO4 4058   0.755  25.096   6.177  0.1181 -0.1964 -0.1235
    1DIPC   GL1 4059   0.499  25.322   5.937  0.3074  0.1076  0.1931
    1DIPC   GL2 4060   0.345  25.587   6.078 -0.0706 -0.0442  0.1892
    1DIPC   C1A 4061   0.554  25.408   5.515 -0.2166 -0.0183  0.1859
    1DIPC   D2A 4062   0.862  25.391   5.175  0.2410 -0.0556 -0.3081
    1DIPC   D3A 4063   0.385  25.365   4.923  0.1762 -0.2108 -0.0842
    1DIPC   C4A 4064   0.240  25.222   4.535  0.1773 -0.0985  0.0003
    1DIPC   C1B 4065   0.180  25.667   5.721  0.3403 -0.0871 -0.0210
    1DIPC   D2B 4066  -0.259  25.792   5.623 -0.1540 -0.0834  0.0150
    1DIPC   D3B 4067  -0.121  26.275   5.772 -0.3393  0.2311 -0.1943
    1DIPC   C4B 4068  -0.272  26.552   5.471  0.0116  0.1627 -0.1661
    1DIPC   NC3 4069  19.444  21.328   6.892 -0.1182 -0.1376 -0.3408
    1DIPC   PO4 4070  19.620  21.410   6.451 -0.0372  0.0763 -0.2620
    1DIPC   GL1 4071  19.672  21.811   6.337  0.0737 -0.4528  0.0948
    1DIPC   GL2 4072  19.848  22.018   6.399 -0.0433  0.2742 -0.2364
    1DIPC   C1A 4073  19.318  22.091   6.084 -0.1074  0.3378  0.1429
    1DIPC   D2A 4074  19.082  22.220   5.791 -0.1360  0.2787 -0.1883
    1DIPC   D3A 4075  19.315  22.527   5.619 -0.2721 -0.1454  0.0070
    1DIPC   C4A 4076  19.466  22.541   5.219  0.1672  0.0107  0.1653
    1DIPC   C1B 4077  19.808  22.228   5.907 -0.2729  0.1248  0.3378
    1DIPC   D2B 4078  19.812  22.279   5.506 -0.1443  0.1752  0.0543
    1DIPC   D3B 4079  19.492  21.939   5.504 -0.0701  0.2172  0.0135
    1DIPC   C4B 4080  19.521  21.620   5.425 -0.0760  0.2119 -0.1496
    1DIPC   NC3 4081  11.251  25.255   6.353 -0.0252  0.0227  0.1664
    1DIPC   PO4 4082  11.437  25.612   6.511 -0.1645 -0.0758 -0.0170
    1DIPC   GL1 4083  11.239  25.643   6.025  0.2730 -0.1462 -0.0827
    1DIPC   GL2 4084  11.112  25.975   5.976 -0.2416 -0.1630 -0.0438
    1DIPC   C1A 4085  11.263  25.507   5.590  0.2702  0.1983  0.1588
    1DIPC   D2A 4086  10.949  25.530   5.250  0.0009 -0.0051 -0.1060
    1DIPC   D3A 4087  10.783  25.297   5.486  0.2744 -0.0489 -0.2300
    1DIPC   C4A 4088  10.578  24.993   5.134  0.0177 -0.0984 -0.3438
    1DIPC   C1B 4089  11.165  26.331   5.591 -0.1500 -0.3604  0.0143
    1DIPC   D2B 4090  10.889  26.686   5.555 -0.1142  0.3004  0.1318
    1DIPC   D3B 4091  10.669  26.406   5.409  0.1802  0.3609 -0.0477
    1DIPC   C4B 4092  10.412  26.001   5.223 -0.1098  0.1422 -0.3156
    1DIPC   NC3 4093  27.701  16.444   5.885 -0.1249  0.4982 -0.1519
    1DIPC   PO4 4094  28.096  16.759   6.003  0.1003  0.1098  0.0126
    1DIPC   GL1 4095  28.023  16.726   5.564  0.0361  0.1414 -0.3070
    1DIPC   GL2 4096  27.852  16.448   5.424 -0.0659  0.1597  0.1827
    1DIPC   C1A 4097  27.792  16.939   5.256 -0.4297  0.0918 -0.3385
    1DIPC   D2A 4098  27.750  17.071   4.759  0.1923 -0.0869  0.1542
    1DIPC   D3A 4099  28.200  17.004   4.576 -0.2491 -0.0516 -0.2417
    1DIPC   C4A 4100  28.531  17.406   4.542  0.0256  0.0206 -0.2931
    1DIPC   C1B 4101  28.022  16.302   4.958 -0.1928 -0.0601  0.0973
    1DIPC   D2B 4102  28.053  16.217   4.470  0.1594  0.1615 -0.0674
    1DIPC   D3B 4103  28.195  15.889   4.280  0.1769 -0.1421  0.2390
    1DIPC   C4B 4104  28.562  15.961   4.066 -0.1122 -0.0056 -0.1290
    1DIPC   NC3 4105  11.383   9.161   7.229 -0.2337 -0.0521 -0.2290
    1DIPC   PO4 4106  11.252   9.637   7.192 -0.0429  0.4518  0.2374
    1DIPC   GL1 4107  10.955   9.294   7.021 -0.1886  0.2430 -0.1965
    1DIPC   GL2 4108  10.528   9.321   7.149 -0.2718 -0.1714  0.3138
    1DIPC   C1A 4109  10.871   9.149   6.673 -0.1317 -0.1082  0.0119
    1DIPC   D2A 4110  11.019   8.882   6.286 -0.1620  0.0782 -0.1134
    1DIPC   D3A 4111  10.852   8.949   5.790  0.3052 -0.1249  0.0728
    1DIPC   C4A 4112  11.081   9.102   5.529  0.2243  0.2679  0.2063
    1DIPC   C1B 4113  10.455   9.390   6.727 -0.4310 -0.0585 -0.0422
    1DIPC   D2B 4114  10.186   9.227   6.291  0.0001 -0.1327  0.0153
    1DIPC   D3B 4115  10.621   9.288   6.204  0.3653  0.1236 -0.0818
    1DIPC   C4B 4116  10.758   9.419   5.777  0.0222 -0.2517  0.1124
    1DIPC   NC3 4117  27.566  23.999   6.329  0.1124 -0.6911  0.0681
    1DIPC   PO4 4118  27.209  24.175   6.455 -0.0033  0.2109 -0.1351
    1DIPC   GL1 4119  27.240  24.257   6.012  0.1766  0.0650 -0.0123
    1DIPC   GL2 4120  27.016  24.398   5.811  0.3757 -0.3033  0.0746
    1DIPC   C1A 4121  27.309  24.145   5.488 -0.2310 -0.0054 -0.1746
    1DIPC   D2A 4122  27.335  23.926   5.094  0.2808 -0.3090 -0.1945
    1DIPC   D3A 4123  27.494  23.702   5.272  0.1952  0.3170  0.1999
    1DIPC   C4A 4124  27.184  23.377   5.467  0.2720 -0.1018  0.3876
    1DIPC   C1B 4125  26.821  24.803   5.613  0.0350  0.1207 -0.0411
    1DIPC   D2B 4126  26.551  25.201   5.533 -0.0138  0.1378  0.1204
    1DIPC   D3B 4127  26.856  24.982   5.162  0.1297 -0.2665  0.0218
    1DIPC   C4B 4128  27.045  25.172   4.831  0.2952 -0.0709 -0.0115
    1DIPC   NC3 4129   1.270   2.275   6.366  0.0721 -0.1570  0.0876
    1DIPC   PO4 4130   1.056   2.699   6.333 -0.3399 -0.0090 -0.2695
    1DIPC   GL1 4131   1.176   2.843   5.951 -0.0143 -0.1756  0.1197
    1DIPC   GL2 4132   1.379   2.573   5.935  0.1524  0.2093 -0.1618
    1DIPC   C1A 4133   1.058   2.802   5.549 -0.0756  0.1290 -0.1933
    1DIPC   D2A 4134   1.074   2.843   5.107 -0.1124  0.0706 -0.0463
    1DIPC   D3A 4135   1.251   3.231   5.051 -0.4196 -0.0274  0.1417
    1DIPC   C4A 4136   1.111   3.645   4.718 -0.1351  0.1781  0.2215
    1DIPC   C1B 4137   1.646   2.781   5.608  0.1618 -0.1261  0.0460
    1DIPC   D2B 4138   1.582   2.810   5.180  0.0464  0.0121 -0.1761
    1DIPC   D3B 4139   1.892   2.537   5.110 -0.0835 -0.2142 -0.1806
    1DIPC   C4B 4140   1.783   2.151   4.801 -0.0328 -0.2641 -0.1434
    1DIPC   NC3 4141   3.989  23.194   5.586 -0.0185 -0.0661 -0.0506
    1DIPC   PO4 4142   3.564  23.012   5.401  0.2251  0.2034 -0.1700
    1DIPC   GL1 4143   3.589  22.793   5.016  0.2818  0.1123  0.2263
    1DIPC   GL2 4144   3.546  23.029   4.774 -0.1245  0.2338  0.1706
    1DIPC   C1A 4145   3.982  22.761   4.873 -0.1903  0.2480  0.0261
    1DIPC   D2A 4146   4.379  22.941   4.964  0.0220 -0.0461  0.1535
    1DIPC   D3A 4147   4.552  23.274   4.773 -0.2637 -0.0758 -0.0210
    1DIPC   C4A 4148   4.364  23.650   4.906  0.0951  0.0169  0.2684
    1DIPC   C1B 4149   3.149  23.221   4.950 -0.1150  0.1533 -0.1618
    1DIPC   D2B 4150   3.001  23.585   5.226  0.1060  0.0348 -0.2002
    1DIPC   D3B 4151   2.782  24.008   5.145  0.2651  0.1111  0.1228
    1DIPC   C4B 4152   2.847  24.409   4.913  0.2997 -0.0970 -0.1359
    1DIPC   NC3 4153   7.422   3.484   6.830 -0.3892 -0.3509 -0.0453
    1DIPC   PO4 4154   7.558   3.577   7.189 -0.2585 -0.0248 -0.0760
    1DIPC   GL1 4155   7.896   3.332   6.931 -0.0609  0.1886  0.2479
    1DIPC   GL2 4156   7.767   3.147   6.721 -0.1062  0.2547  0.2036
    1DIPC   C1A 4157   8.263   3.230   6.810  0.0025  0.0878  0.1255
    1DIPC   D2A 4158   8.565   3.431   6.598 -0.2180  0.0821 -0.1120
    1DIPC   D3A 4159   8.951   3.189   6.661 -0.2618  0.0090  0.0921
    1DIPC   C4A 4160   9.085   2.725   6.591  0.1902  0.0306  0.3251
    1DIPC   C1B 4161   7.821   3.047   6.391  0.2494 -0.0715  0.0773
    1DIPC   D2B 4162   7.843   2.857   6.026  0.1531  0.1888  0.0878
    1DIPC   D3B 4163   7.489   2.703   5.798 -0.1449  0.1942  0.1022
    1DIPC   C4B 4164   7.573   2.761   5.343 -0.0563 -0.0987 -0.1093
    1DIPC   NC3 4165  28.664  17.767   5.758  0.1246 -0.3258 -0.1842
    1DIPC   PO4 4166  28.871  18.231   5.779 -0.1392 -0.0234 -0.0054
    1DIPC   GL1 4167  28.978  18.035   5.404  0.0118  0.2395  0.1013
    1DIPC   GL2 4168  28.944  17.672   5.363  0.1479 -0.0016  0.0735
    1DIPC   C1A 4169  29.075  18.070   4.924 -0.0213 -0.0876 -0.0064
    1DIPC   D2A 4170  29.364  18.193   4.700 -0.2921 -0.3981  0.0499
    1DIPC   D3A 4171  28.985  18.236   4.466 -0.0917 -0.1229 -0.2314
    1DIPC   C4A 4172  29.029  18.561   4.201 -0.0646 -0.2219 -0.2411
    1DIPC   C1B 4173  28.855  17.638   4.858  0.0714  0.0379  0.1951
    1DIPC   D2B 4174  29.003  17.672   4.440  0.0275  0.1746 -0.1717
    1DIPC   D3B 4175  29.322  17.558   4.607 -0.2158  0.1565 -0.1086
    1DIPC   C4B 4176  29.550  17.031   4.558 -0.0802  0.1209 -0.2644
    1DIPC   NC3 4177  27.178  20.928   6.768  0.2830  0.0357 -0.1790
    1DIPC   PO4 4178  26.886  20.709   6.430 -0.0311 -0.2292  0.0891
    1DIPC   GL1 4179  27.036  21.094   6.209 -0.2291  0.1864 -0.2403
    1DIPC   GL2 4180  27.357  21.101   6.335  0.1618  0.0723  0.1163
    1DIPC   C1A 4181  27.007  21.309   5.907 -0.0867 -0.0588  0.3914
    1DIPC   D2A 4182  26.837  21.636   5.774 -0.1088  0.0100 -0.0063
    1DIPC   D3A 4183  26.551  21.820   5.394  0.2130 -0.1955  0.1109
    1DIPC   C4A 4184  26.900  21.702   5.137 -0.0667 -0.0473  0.0635
    1DIPC   C1B 4185  27.508  21.380   5.937  0.0397  0.0787 -0.3364
    1DIPC   D2B 4186  27.297  21.602   5.510 -0.3372  0.2832  0.0210
    1DIPC   D3B 4187  27.066  21.192   5.342 -0.2499  0.2811  0.1911
    1DIPC   C4B 4188  27.398  20.993   5.622 -0.0395 -0.1952 -0.1568
    1DIPC   NC3 4189  13.953  23.043   7.157 -0.1690  0.0773 -0.2026
    1DIPC   PO4 4190  14.216  23.399   7.427 -0.0158  0.2249  0.2398
    1DIPC   GL1 4191  14.376  23.480   6.885  0.1314  0.2710 -0.3804
    1DIPC   GL2 4192  14.652  23.565   7.010  0.0502 -0.1761  0.0288
    1DIPC   C1A 4193  14.232  23.462   6.411 -0.0548 -0.3794 -0.0187
    1DIPC   D2A 4194  13.973  23.655   6.089 -0.1315  0.2392  0.2985
    1DIPC   D3A 4195  14.100  23.642   5.676  0.3112  0.3502  0.1092
    1DIPC   C4A 4196  14.099  23.840   5.432  0.2471  0.0676  0.2062
    1DIPC   C1B 4197  14.746  23.672   6.580 -0.3181 -0.0570 -0.2253
    1DIPC   D2B 4198  14.451  23.847   6.256 -0.1448 -0.4627 -0.0969
    1DIPC   D3B 4199  14.776  24.234   6.074  0.1408 -0.0599 -0.0188
    1DIPC   C4B 4200  14.692  24.575   6.347  0.0608  0.1817  0.4311
    1DIPC   NC3 4201  20.651   1.514   6.462  0.0159  0.1888  0.0124
    1DIPC   PO4 4202  20.386   1.882   6.329 -0.1235 -0.2003 -0.1463
    1DIPC   GL1 4203  20.327   1.800   5.873  0.0909 -0.0579  0.4163
    1DIPC   GL2 4204  20.192   1.810   5.603  0.3317 -0.0419 -0.0434
    1DIPC   C1A 4205  20.581   1.415   5.672 -0.2948  0.2339 -0.0064
    1DIPC   D2A 4206  20.744   1.305   5.359 -0.0408  0.0823 -0.1116
    1DIPC   D3A 4207  21.074   1.335   5.517  0.0112 -0.1411 -0.1701
    1DIPC   C4A 4208  21.319   1.514   5.113 -0.2034 -0.1216 -0.0479
    1DIPC   C1B 4209  19.990   2.006   5.245  0.1162 -0.0241 -0.0508
    1DIPC   D2B 4210  19.748   1.949   4.977  0.1221 -0.0040  0.0400
    1DIPC   D3B 4211  19.674   1.486   5.033  0.2055  0.0344  0.0963
    1DIPC   C4B 4212  19.858   1.256   4.694 -0.1913 -0.3519  0.0913
    1DIPC   NC3 4213  25.772  13.964   6.529 -0.1310  0.0887 -0.2003
    1DIPC   PO4 4214  25.644  13.789   6.113  0.1204  0.3197 -0.1433
    1DIPC   GL1 4215  25.825  13.598   5.532 -0.0000  0.0897 -0.3331
    1DIPC   GL2 4216  25.774  13.788   5.314  0.2273 -0.3187 -0.1902
    1DIPC   C1A 4217  25.850  13.230   5.232  0.1076  0.1417  0.0120
    1DIPC   D2A 4218  25.931  13.105   4.777  0.0333 -0.1337  0.1647
    1DIPC   D3A 4219  25.587  13.298   4.713 -0.2402  0.2427  0.2582
    1DIPC   C4A 4220  25.398  13.394   4.348  0.2463  0.1442 -0.1077
    1DIPC   C1B 4221  25.399  13.536   5.219  0.2917  0.0534 -0.0559
    1DIPC   D2B 4222  24.916  13.404   5.278  0.2080 -0.2994  0.0207
    1DIPC   D3B 4223  24.947  13.468   4.848 -0.1379 -0.2967 -0.1278
    1DIPC   C4B 4224  25.279  13.775   4.677  0.4992  0.1469 -0.1742
    1DIPC   NC3 4225  17.528   5.295   7.362 -0.2612  0.3189  0.4451
    1DIPC   PO4 4226  17.333   5.618   7.194  0.1999  0.4013  0.1076
    1DIPC   GL1 4227  17.083   5.608   6.774 -0.0408 -0.1104 -0.1739
    1DIPC   GL2 4228  16.751   5.747   6.833 -0.0935  0.0980 -0.0396
    1DIPC   C1A 4229  17.197   5.411   6.391 -0.2774  0.1756  0.1028
    1DIPC   D2A 4230  17.608   5.375   6.164 -0.0238  0.2638 -0.2534
    1DIPC   D3A 4231  17.610   5.823   6.335  0.0832 -0.2740 -0.0330
    1DIPC   C4A 4232  17.443   6.129   6.280  0.0408  0.0541  0.1796
    1DIPC   C1B 4233  16.748   5.558   6.403  0.1248  0.0035 -0.3063
    1DIPC   D2B 4234  16.649   5.454   5.969  0.2140 -0.3085 -0.0816
    1DIPC   D3B 4235  16.630   4.958   5.841  0.2446 -0.2266 -0.0375
    1DIPC   C4B 4236  16.528   4.783   5.411  0.1770  0.0470 -0.0648
    1DIPC   NC3 4237   6.077   2.597   7.192  0.0161 -0.0963 -0.1135
    1DIPC   PO4 4238   6.127   2.739   6.805  0.2427 -0.0072  0.1608
    1DIPC   GL1 4239   6.331   2.784   6.407  0.4634  0.0822  0.2238
    1DIPC   GL2 4240   6.612   2.555   6.275  0.1794  0.2207  0.2022
    1DIPC   C1A 4241   6.082   2.479   6.106  0.3481 -0.0789 -0.2459
    1DIPC   D2A 4242   6.158   2.226   5.753 -0.1613 -0.1082 -0.1396
    1DIPC   D3A 4243   6.122   2.019   6.181  0.1411 -0.3549  0.3253
    1DIPC   C4A 4244   5.915   1.734   6.203 -0.3844  0.1282  0.1588
    1DIPC   C1B 4245   6.514   2.524   5.842 -0.1234  0.3433  0.1416
    1DIPC   D2B 4246   6.685   2.275   5.472  0.3138 -0.1275 -0.0201
    1DIPC   D3B 4247   6.770   2.699   5.477 -0.2074  0.0917  0.1113
    1DIPC   C4B 4248   7.084   2.920   5.398  0.3220 -0.1451 -0.2387
    1DIPC   NC3 4249  26.450  14.282   5.794  0.0553 -0.2267 -0.4120
    1DIPC   PO4 4250  26.809  14.302   5.531 -0.1853 -0.0515 -0.1769
    1DIPC   GL1 4251  26.734  14.182   5.062 -0.2058  0.0662  0.1473
    1DIPC   GL2 4252  26.333  14.045   4.959  0.1602  0.0115  0.1367
    1DIPC   C1A 4253  26.771  14.174   4.631  0.1366 -0.0197 -0.1639
    1DIPC   D2A 4254  26.736  14.047   4.191  0.0420  0.0430 -0.0664
    1DIPC   D3A 4255  27.106  13.916   4.068  0.0474  0.1511 -0.3667
    1DIPC   C4A 4256  27.150  13.763   3.664  0.0866 -0.1107 -0.1869
    1DIPC   C1B 4257  26.164  14.226   4.533 -0.3032  0.1940  0.2269
    1DIPC   D2B 4258  25.831  14.421   4.323  0.1702  0.0805 -0.2540
    1DIPC   D3B 4259  25.893  14.728   4.733 -0.1050  0.0622  0.0015
    1DIPC   C4B 4260  26.005  15.091   4.626 -0.2091 -0.2023  0.1089
    1DIPC   NC3 4261  21.777   2.184   6.483 -0.1106 -0.1992  0.1985
    1DIPC   PO4 4262  22.236   2.341   6.379  0.0243 -0.0660  0.1290
    1DIPC   GL1 4263  22.348   2.510   5.911  0.0579 -0.2708  0.0957
    1DIPC   GL2 4264  22.346   2.848   5.990  0.0648 -0.2484 -0.1840
    1DIPC   C1A 4265  22.416   2.320   5.469 -0.3693 -0.1279  0.0740
    1DIPC   D2A 4266  22.407   1.953   5.273 -0.0221  0.1496  0.1598
    1DIPC   D3A 4267  22.404   2.167   4.832 -0.3045 -0.1719  0.0885
    1DIPC   C4A 4268  22.650   2.305   4.605  0.1962 -0.1736  0.1687
    1DIPC   C1B 4269  22.513   3.313   6.058  0.3399  0.0233  0.2700
    1DIPC   D2B 4270  22.478   3.749   6.076 -0.4110 -0.1488 -0.1616
    1DIPC   D3B 4271  22.391   3.853   5.638  0.2171  0.0609 -0.0471
    1DIPC   C4B 4272  21.888   3.880   5.407 -0.0957  0.1915 -0.1479
    1DIPC   NC3 4273   9.499  25.263   6.346  0.3114  0.0859 -0.0287
    1DIPC   PO4 4274   9.950  25.427   6.234  0.0477 -0.2132  0.1335
    1DIPC   GL1 4275  10.171  25.383   5.814  0.0088  0.1039 -0.0717
    1DIPC   GL2 4276  10.439  25.418   5.890 -0.0655  0.3926 -0.0365
    1DIPC   C1A 4277  10.220  25.420   5.368 -0.0365 -0.3104 -0.1700
    1DIPC   D2A 4278  10.483  25.500   5.018  0.2058  0.3134 -0.2371
    1DIPC   D3A 4279  10.296  25.642   4.669  0.1556  0.1646 -0.0167
    1DIPC   C4A 4280  10.188  26.100   4.697 -0.1625 -0.1683 -0.1284
    1DIPC   C1B 4281  10.530  25.752   5.667 -0.0248 -0.4402 -0.1512
    1DIPC   D2B 4282  10.905  25.930   5.485 -0.4080 -0.0560  0.0082
    1DIPC   D3B 4283  10.901  26.112   5.081  0.4085  0.0687 -0.0769
    1DIPC   C4B 4284  10.984  25.745   4.761  0.1616 -0.2127 -0.3022
    1DIPC   NC3 4285  22.680   5.794   6.674 -0.3513  0.0609 -0.0076
    1DIPC   PO4 4286  22.415   5.908   6.493  0.0398  0.0853  0.0341
    1DIPC   GL1 4287  22.118   6.073   6.158 -0.1876 -0.0647 -0.0144
    1DIPC   GL2 4288  22.189   6.147   5.893  0.0763 -0.0349  0.2334
    1DIPC   C1A 4289  21.789   5.696   5.977 -0.3265  0.0721 -0.0179
    1DIPC   D2A 4290  21.647   5.455   5.614  0.3335  0.3440 -0.2642
    1DIPC   D3A 4291  21.623   5.095   5.704  0.2139 -0.1193 -0.1365
    1DIPC   C4A 4292  21.742   4.853   5.386  0.1685 -0.1146  0.1461
    1DIPC   C1B 4293  22.108   5.796   5.593 -0.0035 -0.1079 -0.2176
    1DIPC   D2B 4294  22.066   5.624   5.289  0.0907  0.4357  0.1925
    1DIPC   D3B 4295  22.531   5.657   5.413 -0.3283 -0.1909  0.2095
    1DIPC   C4B 4296  22.802   5.453   5.745  0.3564  0.0431 -0.4004
    1DIPC   NC3 4297  22.030  21.631   6.860 -0.0264 -0.2357  0.1364
    1DIPC   PO4 4298  22.490  21.795   6.933 -0.1448 -0.0604  0.0860
    1DIPC   GL1 4299  22.353  21.799   6.439 -0.2871 -0.1745 -0.2804
    1DIPC   GL2 4300  22.180  22.109   6.536  0.1595  0.0947 -0.2495
    1DIPC   C1A 4301  22.258  21.905   5.977  0.2759  0.2425  0.2857
    1DIPC   D2A 4302  22.463  22.174   5.808  0.0363  0.1182 -0.1112
    1DIPC   D3A 4303  22.711  22.465   5.537 -0.0936  0.1666 -0.0346
    1DIPC   C4A 4304  22.869  22.323   5.137 -0.1509  0.2410 -0.3008
    1DIPC   C1B 4305  21.901  22.146   6.219  0.1046  0.2194  0.3759
    1DIPC   D2B 4306  21.843  22.219   5.695 -0.0812  0.1762 -0.0085
    1DIPC   D3B 4307  22.042  21.901   5.476 -0.0332  0.2079 -0.0244
    1DIPC   C4B 4308  22.024  21.541   5.685  0.1156 -0.1346 -0.0064
    1DIPC   NC3 4309   6.860  24.217   5.861  0.3149 -0.1740  0.0210
    1DIPC   PO4 4310   7.191  24.288   5.872 -0.1899 -0.0501  0.0211
    1DIPC   GL1 4311   7.117  24.401   5.451 -0.0445  0.1460 -0.0184
    1DIPC   GL2 4312   6.868  24.501   5.416 -0.0959  0.0688  0.4574
    1DIPC   C1A 4313   7.248  24.439   5.082  0.1188  0.2263 -0.0598
    1DIPC   D2A 4314   7.214  24.822   4.834 -0.0220  0.0427  0.2582
    1DIPC   D3A 4315   6.896  24.707   4.972  0.0576 -0.0492 -0.1630
    1DIPC   C4A 4316   6.795  24.701   4.506  0.2197 -0.1369  0.0799
    1DIPC   C1B 4317   6.617  24.797   5.330 -0.0535 -0.0576 -0.1351
    1DIPC   D2B 4318   6.489  24.934   4.913  0.0551  0.1780 -0.0034
    1DIPC   D3B 4319   6.158  24.672   4.746 -0.2270  0.0472 -0.2098
    1DIPC   C4B 4320   5.774  24.773   4.551  0.2007  0.0574  0.0548
    1DIPC   NC3 4321  21.804  18.775   6.599  0.2697 -0.0012 -0.1191
    1DIPC   PO4 4322  21.604  18.370   6.668 -0.0235  0.1660  0.4913
    1DIPC   GL1 4323  21.834  18.328   6.243  0.2278 -0.1587 -0.0497
    1DIPC   GL2 4324  21.751  18.644   6.124  0.2313 -0.1202  0.1006
    1DIPC   C1A 4325  21.630  18.299   5.801  0.0740  0.0781  0.0799
    1DIPC   D2A 4326  21.250  18.490   5.569  0.0806 -0.0870  0.3130
    1DIPC   D3A 4327  21.166  18.858   5.406  0.3370 -0.1079  0.1203
    1DIPC   C4A 4328  20.750  18.939   5.302  0.0188  0.0903 -0.0631
    1DIPC   C1B 4329  21.603  18.944   5.801 -0.1275  0.0175  0.0010
    1DIPC   D2B 4330  21.855  19.289   5.574  0.2436 -0.0343 -0.3572
    1DIPC   D3B 4331  21.541  19.296   5.397  0.0508 -0.0437 -0.1473
    1DIPC   C4B 4332  21.495  19.569   5.105  0.2135  0.1197  0.0064
    1DIPC   NC3 4333  12.933   3.169   7.796  0.1651  0.0856  0.1219
    1DIPC   PO4 4334  12.930   3.513   7.785  0.2908 -0.0603  0.2649
    1DIPC   GL1 4335  12.733   3.648   7.409  0.5088  0.0558 -0.0059
    1DIPC   GL2 4336  12.958   3.856   7.418 -0.0724 -0.0364 -0.2671
    1DIPC   C1A 4337  12.789   3.805   6.959 -0.0112  0.1205  0.0937
    1DIPC   D2A 4338  13.065   4.000   6.725  0.2038 -0.1179  0.2226
    1DIPC   D3A 4339  13.085   3.753   6.527 -0.1364  0.0910  0.1082
    1DIPC   C4A 4340  12.996   3.403   6.717  0.0812 -0.0042 -0.3091
    1DIPC   C1B 4341  13.258   3.697   7.048 -0.1698 -0.4572  0.0566
    1DIPC   D2B 4342  13.609   3.624   6.750 -0.1589 -0.0522  0.1004
    1DIPC   D3B 4343  13.832   3.403   6.473 -0.2919  0.1823  0.2325
    1DIPC   C4B 4344  14.079   3.048   6.510  0.1047  0.3308 -0.2566
    1DIPC   NC3 4345   1.420  15.749   6.267 -0.2299 -0.2917  0.1319
    1DIPC   PO4 4346   1.013  15.815   6.203 -0.1865  0.0993  0.0066
    1DIPC   GL1 4347   0.801  15.663   5.749  0.0205 -0.1420  0.0529
    1DIPC   GL2 4348   0.652  15.428   5.701 -0.0639  0.0191  0.1056
    1DIPC   C1A 4349   1.038  15.541   5.342  0.0155 -0.0617  0.2626
    1DIPC   D2A 4350   1.164  15.707   4.925 -0.0092  0.0391 -0.0042
    1DIPC   D3A 4351   0.860  15.883   4.823 -0.0700  0.3451  0.0521
    1DIPC   C4A 4352   0.594  16.047   4.571 -0.0302 -0.1081  0.0819
    1DIPC   C1B 4353   0.587  15.025   5.780  0.1531  0.2639 -0.0796
    1DIPC   D2B 4354   0.278  14.798   5.599 -0.1590  0.1832 -0.1254
    1DIPC   D3B 4355   0.122  14.723   5.216  0.1584  0.1844 -0.1099
    1DIPC   C4B 4356   0.427  14.438   5.138 -0.2723  0.0644  0.1008
    1DIPC   NC3 4357  13.799   2.751   7.437  0.0794 -0.0947  0.1963
    1DIPC   PO4 4358  13.324   2.800   7.268  0.1536  0.1847  0.2963
    1DIPC   GL1 4359  13.084   2.844   6.922 -0.0720  0.1641  0.0681
    1DIPC   GL2 4360  13.149   2.689   6.618  0.3550 -0.0103 -0.0128
    1DIPC   C1A 4361  12.684   2.852   6.713  0.1156 -0.1425 -0.3324
    1DIPC   D2A 4362  12.448   3.196   6.763  0.0583  0.2642 -0.1911
    1DIPC   D3A 4363  12.091   3.127   6.521 -0.0605  0.1499 -0.3309
    1DIPC   C4A 4364  12.248   3.073   6.102 -0.0549  0.1271  0.0893
    1DIPC   C1B 4365  13.222   2.433   6.269 -0.1226  0.0533  0.2037
    1DIPC   D2B 4366  13.307   2.273   5.851 -0.1697 -0.0633 -0.1870
    1DIPC   D3B 4367  13.377   2.718   5.880  0.1080  0.0128  0.2591
    1DIPC   C4B 4368  13.012   2.857   6.183 -0.1152  0.2789 -0.2566
    1DIPC   NC3 4369   5.559  10.987   6.991  0.0808 -0.3859  0.1138
    1DIPC   PO4 4370   5.215  11.205   6.781 -0.2277 -0.1184 -0.2291
    1DIPC   GL1 4371   5.478  10.920   6.498  0.1684  0.2628 -0.3654
    1DIPC   GL2 4372   5.690  10.675   6.585 -0.4805 -0.1172  0.1649
    1DIPC   C1A 4373   5.623  10.919   6.137  0.0334 -0.2919  0.2186
    1DIPC   D2A 4374   5.638  10.634   5.786  0.1514  0.0356  0.1133
    1DIPC   D3A 4375   6.039  10.473   5.545 -0.3209 -0.0950 -0.0306
    1DIPC   C4A 4376   6.228  10.741   5.332 -0.0908 -0.1476  0.0200
    1DIPC   C1B 4377   5.893  10.486   6.173 -0.1796  0.1481  0.1750
    1DIPC   D2B 4378   6.173  10.186   5.933  0.1503  0.2596 -0.1675
    1DIPC   D3B 4379   5.999   9.749   6.178 -0.1048 -0.0745 -0.2723
    1DIPC   C4B 4380   6.180   9.752   6.526 -0.1770  0.0294  0.1826
    1DIPC   NC3 4381  10.457   1.988   7.722 -0.0851  0.1453  0.3392
    1DIPC   PO4 4382  10.802   2.008   7.443  0.0728  0.1517  0.2126
    1DIPC   GL1 4383  10.884   1.971   7.016  0.1016 -0.0085 -0.2301
    1DIPC   GL2 4384  11.222   2.186   7.017  0.2226  0.1060  0.1395
    1DIPC   C1A 4385  10.917   2.027   6.612 -0.3455 -0.2212 -0.1829
    1DIPC   D2A 4386  10.969   2.204   6.249 -0.0075  0.1256 -0.1819
    1DIPC   D3A 4387  10.809   2.560   6.253 -0.0360  0.0574 -0.0924
    1DIPC   C4A 4388  10.997   2.758   5.953 -0.0790  0.2929  0.3636
    1DIPC   C1B 4389  11.412   2.052   6.638  0.1898  0.1212  0.0281
    1DIPC   D2B 4390  11.741   2.201   6.440 -0.2215  0.2289 -0.0198
    1DIPC   D3B 4391  11.421   2.096   6.165  0.0915  0.1050  0.1479
    1DIPC   C4B 4392  11.249   1.843   5.802  0.2041 -0.1020 -0.1134
    1DIPC   NC3 4393  24.382  16.764   6.174 -0.0107 -0.0486 -0.1303
    1DIPC   PO4 4394  24.144  16.969   6.326 -0.2073  0.0953 -0.0297
    1DIPC   GL1 4395  24.019  17.123   5.878 -0.1010  0.1925 -0.1094
    1DIPC   GL2 4396  24.383  17.220   5.859 -0.1903 -0.0692  0.2545
    1DIPC   C1A 4397  24.030  17.029   5.536  0.0624  0.1549 -0.0320
    1DIPC   D2A 4398  24.159  16.675   5.099 -0.1638 -0.3015  0.0554
    1DIPC   D3A 4399  24.009  16.291   4.823  0.2380  0.3340 -0.2508
    1DIPC   C4A 4400  24.097  15.932   5.119 -0.2978  0.0262 -0.3337
    1DIPC   C1B 4401  24.520  17.125   5.394  0.1351 -0.0905 -0.3425
    1DIPC   D2B 4402  24.560  17.164   4.975 -0.3302 -0.1117  0.2139
    1DIPC   D3B 4403  24.422  17.154   4.653 -0.1783  0.0069  0.1773
    1DIPC   C4B 4404  24.749  17.001   4.261  0.3852 -0.0976 -0.1520
    1DIPC   NC3 4405  26.197  12.028   6.659 -0.0860  0.0315  0.0467
    1DIPC   PO4 4406  26.207  11.611   6.323  0.0437  0.0555  0.0769
    1DIPC   GL1 4407  26.360  11.585   5.942  0.2328  0.0938  0.0310
    1DIPC   GL2 4408  26.675  11.582   5.932  0.0647 -0.0160 -0.0850
    1DIPC   C1A 4409  26.371  11.854   5.590 -0.1060  0.3469  0.1773
    1DIPC   D2A 4410  26.056  12.181   5.257 -0.2452 -0.3647 -0.4768
    1DIPC   D3A 4411  26.341  12.252   4.930  0.0574  0.4992 -0.0619
    1DIPC   C4A 4412  26.258  12.368   4.506 -0.0504  0.1826 -0.0963
    1DIPC   C1B 4413  26.969  11.913   5.804  0.1391  0.0644  0.2961
    1DIPC   D2B 4414  26.929  12.104   5.428 -0.0262 -0.0537 -0.1871
    1DIPC   D3B 4415  26.570  12.316   5.326 -0.2454  0.2768 -0.0738
    1DIPC   C4B 4416  26.239  12.450   5.605 -0.1127 -0.2203  0.2659
    1DIPC   NC3 4417   7.300   4.904   6.683 -0.0400 -0.0114  0.0231
    1DIPC   PO4 4418   7.386   5.447   6.639 -0.0754 -0.2117 -0.1368
    1DIPC   GL1 4419   7.539   5.215   6.275 -0.2771  0.0366  0.0950
    1DIPC   GL2 4420   7.243   5.098   6.236  0.1184  0.0152 -0.1638
    1DIPC   C1A 4421   7.681   5.034   5.848 -0.0507  0.0007  0.5548
    1DIPC   D2A 4422   7.857   4.961   5.414  0.1899 -0.1701  0.1093
    1DIPC   D3A 4423   8.303   5.016   5.379 -0.1552 -0.0959 -0.0962
    1DIPC   C4A 4424   8.513   4.984   5.707  0.1648 -0.0280 -0.4163
    1DIPC   C1B 4425   7.164   5.368   5.946  0.3107 -0.1513 -0.0486
    1DIPC   D2B 4426   7.186   5.675   5.567 -0.1755 -0.0036  0.1454
    1DIPC   D3B 4427   7.436   5.313   5.484  0.0477  0.1280  0.3108
    1DIPC   C4B 4428   7.155   4.943   5.534 -0.0372  0.0554  0.0670
    1DIPC   NC3 4429  19.598   2.853   6.997 -0.0090  0.0880  0.1327
    1DIPC   PO4 4430  19.402   3.160   6.932 -0.2280  0.0018 -0.1909
    1DIPC   GL1 4431  19.593   3.051   6.510 -0.0431  0.0844  0.1709
    1DIPC   GL2 4432  19.809   3.335   6.376 -0.1544  0.3274  0.0646
    1DIPC   C1A 4433  19.600   2.883   6.133 -0.1050 -0.1723  0.0856
    1DIPC   D2A 4434  19.715   2.727   5.796 -0.3426  0.3076 -0.2098
    1DIPC   D3A 4435  19.947   2.423   5.659  0.3680  0.1473  0.1092
    1DIPC   C4A 4436  20.302   2.308   5.495 -0.0046  0.2131 -0.0340
    1DIPC   C1B 4437  20.121   3.588   6.305 -0.0813  0.0495  0.3275
    1DIPC   D2B 4438  20.277   3.810   5.933 -0.1732  0.0569 -0.1842
    1DIPC   D3B 4439  20.515   3.808   5.555  0.0832 -0.1289 -0.1011
    1DIPC   C4B 4440  20.260   3.693   5.168 -0.0625 -0.1604 -0.1062
    1DIPC   NC3 4441  27.132  26.272   6.941  0.0933  0.1167 -0.1811
    1DIPC   PO4 4442  27.040  25.874   6.749 -0.0841 -0.2253  0.2059
    1DIPC   GL1 4443  27.167  25.731   6.375 -0.3551  0.3797  0.3516
    1DIPC   GL2 4444  27.217  26.085   6.333  0.0672 -0.2551 -0.3214
    1DIPC   C1A 4445  27.221  25.891   5.900 -0.2600 -0.0422 -0.1716
    1DIPC   D2A 4446  27.367  26.060   5.509  0.1738  0.0603 -0.0613
    1DIPC   D3A 4447  27.519  25.716   5.529 -0.1171 -0.2693  0.4282
    1DIPC   C4A 4448  27.831  25.712   5.319  0.2480  0.0839 -0.2395
    1DIPC   C1B 4449  26.986  26.321   6.105 -0.3006 -0.0546  0.0279
    1DIPC   D2B 4450  26.640  26.317   5.920  0.2013  0.0249  0.1473
    1DIPC   D3B 4451  26.352  26.628   5.848  0.1772  0.0399 -0.1357
    1DIPC   C4B 4452  26.319  26.941   5.663  0.3672  0.4073 -0.1151
    1DIPC   NC3 4453  18.983  20.224   7.106 -0.3750 -0.0257 -0.1872
    1DIPC   PO4 4454  19.418  20.234   7.006 -0.0552 -0.4189  0.2272
    1DIPC   GL1 4455  19.589  20.379   6.527  0.0619  0.1180 -0.0413
    1DIPC   GL2 4456  19.552  20.198   6.403  0.0128  0.1249 -0.0770
    1DIPC   C1A 4457  19.616  20.432   5.973 -0.1518 -0.1760  0.2493
    1DIPC   D2A 4458  19.975  20.311   5.769  0.1199  0.2411  0.0651
    1DIPC   D3A 4459  19.677  19.971   5.647 -0.2094 -0.1994 -0.0021
    1DIPC   C4A 4460  19.710  19.800   5.218  0.1875 -0.1257  0.0252
    1DIPC   C1B 4461  19.403  19.973   6.075  0.2426  0.1099 -0.0745
    1DIPC   D2B 4462  19.209  19.679   5.974  0.0422  0.0988 -0.0688
    1DIPC   D3B 4463  19.205  19.669   5.555 -0.1049 -0.0791 -0.0800
    1DIPC   C4B 4464  19.022  19.382   5.310 -0.2986  0.0464 -0.2968
    1DIPC   NC3 4465  25.996   2.807   6.248  0.1486 -0.2001  0.0185
    1DIPC   PO4 4466  25.764   2.467   6.142 -0.1148 -0.1167 -0.0903
    1DIPC   GL1 4467  25.983   2.461   5.806 -0.1909  0.4376 -0.1667
    1DIPC   GL2 4468  26.000   2.775   5.668  0.3324  0.1547 -0.2892
    1DIPC   C1A 4469  26.171   2.291   5.546 -0.0943  0.2128  0.1077
    1DIPC   D2A 4470  26.076   1.867   5.406  0.1563  0.0683  0.1413
    1DIPC   D3A 4471  25.662   1.759   5.528  0.0742 -0.0656  0.0994
    1DIPC   C4A 4472  25.283   1.854   5.413 -0.1214  0.0132 -0.0369
    1DIPC   C1B 4473  26.007   2.938   5.278 -0.0258 -0.0011 -0.0236
    1DIPC   D2B 4474  25.825   2.990   4.803 -0.0843 -0.1384 -0.0380
    1DIPC   D3B 4475  25.943   2.589   4.585 -0.0926  0.1318 -0.1078
    1DIPC   C4B 4476  25.668   2.332   4.549  0.2946 -0.3073 -0.0113
    1DIPC   NC3 4477  18.033  21.352   6.997  0.0105 -0.2694 -0.1119
    1DIPC   PO4 4478  18.467  21.132   7.044 -0.2178 -0.3347  0.1869
    1DIPC   GL1 4479  18.781  20.984   6.656 -0.2556  0.0657  0.1220
    1DIPC   GL2 4480  19.079  21.213   6.467 -0.1487 -0.3720  0.0928
    1DIPC   C1A 4481  18.792  20.990   6.146 -0.1930 -0.1883 -0.1636
    1DIPC   D2A 4482  18.761  20.886   5.759  0.2484  0.1492 -0.1420
    1DIPC   D3A 4483  19.071  20.500   5.911  0.0302  0.2186  0.0205
    1DIPC   C4A 4484  19.209  20.526   6.242 -0.3653  0.3260 -0.0282
    1DIPC   C1B 4485  19.277  21.043   6.021  0.0968 -0.0845  0.0798
    1DIPC   D2B 4486  19.348  20.821   5.547  0.0420  0.0571 -0.0217
    1DIPC   D3B 4487  19.047  20.540   5.366 -0.3158 -0.2591  0.0394
    1DIPC   C4B 4488  19.002  20.407   4.945  0.0245 -0.0298  0.1198
    1DIPC   NC3 4489   3.250  13.679   6.541 -0.2575  0.0583  0.3333
    1DIPC   PO4 4490   2.989  13.460   6.368 -0.0255 -0.0487  0.3820
    1DIPC   GL1 4491   3.335  13.516   6.018 -0.2419  0.1432  0.0444
    1DIPC   GL2 4492   3.183  13.340   5.749  0.4806  0.0355  0.0362
    1DIPC   C1A 4493   3.710  13.533   5.739 -0.2878 -0.1349 -0.1118
    1DIPC   D2A 4494   3.961  13.568   5.325 -0.2031  0.0555  0.0965
    1DIPC   D3A 4495   3.980  13.680   4.895 -0.2143 -0.2298  0.3306
    1DIPC   C4A 4496   3.691  13.725   4.610  0.3171  0.0843 -0.0028
    1DIPC   C1B 4497   3.259  13.649   5.540 -0.2433  0.1838  0.0862
    1DIPC   D2B 4498   3.449  13.869   5.201  0.2771 -0.0102 -0.1442
    1DIPC   D3B 4499   3.136  13.579   5.000 -0.2940  0.1787 -0.1431
    1DIPC   C4B 4500   3.185  13.775   4.624 -0.0032 -0.1724 -0.0440
    1DIPC   NC3 4501   9.364  21.424   5.819 -0.0067 -0.2641 -0.1376
    1DIPC   PO4 4502   9.695  21.246   6.159  0.1857  0.2980  0.2287
    1DIPC   GL1 4503   9.875  21.124   5.774  0.1248 -0.2106  0.2530
    1DIPC   GL2 4504  10.214  21.168   5.875  0.1392  0.0656  0.2508
    1DIPC   C1A 4505   9.998  20.873   5.438 -0.0474 -0.0407 -0.0978
    1DIPC   D2A 4506  10.057  20.709   5.062  0.0243 -0.0749 -0.0139
    1DIPC   D3A 4507   9.646  20.762   4.873 -0.3578  0.0394  0.1396
    1DIPC   C4A 4508   9.286  20.553   5.089 -0.0300 -0.0847 -0.0785
    1DIPC   C1B 4509  10.289  21.402   5.578 -0.1016 -0.2316  0.2053
    1DIPC   D2B 4510  10.373  21.154   5.140  0.1545 -0.0442 -0.0880
    1DIPC   D3B 4511  10.138  21.136   4.789  0.0243  0.5637 -0.0035
    1DIPC   C4B 4512  10.440  20.980   4.652 -0.1320 -0.1427  0.0337
    1DIPC   NC3 4513   2.238   3.176   6.545 -0.0062 -0.1552  0.1985
    1DIPC   PO4 4514   2.388   3.336   6.853  0.2029  0.2118  0.0608
    1DIPC   GL1 4515   2.467   3.596   6.460  0.1115  0.2806 -0.1851
    1DIPC   GL2 4516   2.490   3.947   6.489 -0.2192 -0.4159  0.3681
    1DIPC   C1A 4517   2.549   3.558   5.994 -0.0116 -0.1301  0.0148
    1DIPC   D2A 4518   2.448   3.254   5.598 -0.2702  0.3426 -0.0505
    1DIPC   D3A 4519   2.271   2.878   5.684 -0.0679 -0.2848  0.2031
    1DIPC   C4A 4520   2.264   2.499   5.505 -0.0621  0.0888 -0.1929
    1DIPC   C1B 4521   2.712   4.008   6.168  0.0791 -0.5104 -0.3348
    1DIPC   D2B 4522   2.677   3.911   5.691 -0.0682  0.1831 -0.1392
    1DIPC   D3B 4523   3.005   4.133   5.591 -0.3388 -0.3037  0.1637
    1DIPC   C4B 4524   3.450   4.010   5.553  0.1765 -0.0485  0.0985
    1DIPC   NC3 4525  13.006  26.529   7.733 -0.2443 -0.0904 -0.0306
    1DIPC   PO4 4526  13.142  26.357   7.337 -0.0558 -0.0472 -0.0334
    1DIPC   GL1 4527  13.249  26.489   6.877  0.0057  0.0895 -0.0848
    1DIPC   GL2 4528  13.003  26.641   6.701 -0.0372 -0.0110  0.1622
    1DIPC   C1A 4529  13.505  26.326   6.646  0.0045  0.0954  0.0112
    1DIPC   D2A 4530  13.643  26.215   6.292 -0.0524 -0.1459 -0.1620
    1DIPC   D3A 4531  13.468  25.862   6.252  0.0413 -0.3074  0.1657
    1DIPC   C4A 4532  13.084  25.769   5.969 -0.1719 -0.2489 -0.1844
    1DIPC   C1B 4533  13.122  26.468   6.281 -0.1224 -0.1125 -0.0247
    1DIPC   D2B 4534  13.033  26.249   5.805  0.1699  0.1569 -0.3494
    1DIPC   D3B 4535  12.730  25.944   5.498  0.0886  0.0786 -0.3574
    1DIPC   C4B 4536  12.909  25.862   5.111  0.1319  0.0090 -0.0123
    1DIPC   NC3 4537  10.713  27.306   7.006 -0.0540  0.1752  0.0795
    1DIPC   PO4 4538  11.154  27.358   7.109 -0.2323 -0.1666  0.1345
    1DIPC   GL1 4539  11.203  27.285   6.710  0.1043  0.0161  0.1386
    1DIPC   GL2 4540  11.337  27.471   6.622 -0.1346  0.0922 -0.1452
    1DIPC   C1A 4541  11.044  27.237   6.291 -0.2848 -0.0729  0.2192
    1DIPC   D2A 4542  10.782  27.206   5.919 -0.2338  0.1258  0.2055
    1DIPC   D3A 4543  10.712  27.551   5.755 -0.1445 -0.0646 -0.0588
    1DIPC   C4A 4544  10.787  27.622   5.317 -0.2224  0.2465 -0.2764
    1DIPC   C1B 4545  11.457  27.528   6.290  0.0295 -0.0371 -0.0901
    1DIPC   D2B 4546  11.190  27.518   5.876  0.1466 -0.1269  0.1750
    1DIPC   D3B 4547  11.468  27.667   5.496  0.0124  0.2949 -0.0555
    1DIPC   C4B 4548  11.484  27.430   5.137 -0.1501 -0.1595 -0.3018
    1DIPC   NC3 4549  28.045   6.670   6.330 -0.4557 -0.1139  0.1053
    1DIPC   PO4 4550  28.229   6.231   6.236 -0.2612  0.1029 -0.1512
    1DIPC   GL1 4551  28.538   6.440   5.925 -0.0765  0.2019  0.0062
    1DIPC   GL2 4552  28.448   6.699   5.971  0.3240  0.0716 -0.0550
    1DIPC   C1A 4553  28.819   6.423   5.579  0.1971  0.3275 -0.0628
    1DIPC   D2A 4554  28.781   6.232   5.123 -0.0098 -0.1992  0.0132
    1DIPC   D3A 4555  28.771   6.488   4.722 -0.0173 -0.1978  0.2510
    1DIPC   C4A 4556  29.069   6.502   4.385  0.1981  0.1424  0.0721
    1DIPC   C1B 4557  28.414   6.653   5.510  0.2789  0.1441  0.2890
    1DIPC   D2B 4558  28.222   6.581   5.102 -0.0800  0.1203 -0.0019
    1DIPC   D3B 4559  28.300   6.275   4.829  0.1632 -0.0585  0.0617
    1DIPC   C4B 4560  28.522   5.833   4.870  0.3740 -0.1271  0.0642
    1DIPC   NC3 4561   2.759  24.494   6.797  0.4500 -0.4461  0.2723
    1DIPC   PO4 4562   2.689  24.494   6.283  0.0147  0.0069 -0.0119
    1DIPC   GL1 4563   2.732  24.869   5.996 -0.0917 -0.0281  0.5652
    1DIPC   GL2 4564   2.456  25.020   6.019  0.0644 -0.2796 -0.0929
    1DIPC   C1A 4565   2.826  24.864   5.628 -0.3186  0.1800  0.1189
    1DIPC   D2A 4566   3.080  24.831   5.206  0.2039 -0.3289 -0.4653
    1DIPC   D3A 4567   3.118  25.305   4.984  0.1789 -0.0075 -0.0228
    1DIPC   C4A 4568   2.955  25.397   4.664  0.0773  0.0758  0.0674
    1DIPC   C1B 4569   2.683  25.361   5.755 -0.3778  0.0260 -0.0165
    1DIPC   D2B 4570   3.082  25.295   5.488  0.2030 -0.2388  0.0486
    1DIPC   D3B 4571   2.698  25.175   5.209 -0.0921  0.3473 -0.0599
    1DIPC   C4B 4572   2.539  25.285   4.830  0.1730 -0.0187  0.0005
    1DIPC   NC3 4573  15.089  25.210   7.069 -0.1314 -0.1053 -0.0869
    1DIPC   PO4 4574  14.823  25.030   6.804  0.2309 -0.1569 -0.2656
    1DIPC   GL1 4575  14.670  25.209   6.526  0.2140 -0.1503 -0.0361
    1DIPC   GL2 4576  14.683  25.510   6.358 -0.0409  0.1162  0.0404
    1DIPC   C1A 4577  14.817  25.083   6.076  0.1370  0.0784 -0.1916
    1DIPC   D2A 4578  15.075  25.095   5.652 -0.0514 -0.1667  0.3349
    1DIPC   D3A 4579  14.702  25.324   5.541 -0.1593  0.4007 -0.1351
    1DIPC   C4A 4580  14.335  25.467   5.322 -0.0120  0.0286  0.2402
    1DIPC   C1B 4581  14.687  25.922   6.206 -0.3588  0.0141  0.0256
    1DIPC   D2B 4582  14.603  26.367   6.294  0.2593  0.2448 -0.0992
    1DIPC   D3B 4583  14.320  26.008   6.533 -0.0493 -0.0080  0.0791
    1DIPC   C4B 4584  14.169  25.572   6.508 -0.2683 -0.1306 -0.1198
    1DIPC   NC3 4585   3.107  20.188   5.529  0.0132  0.0156 -0.2693
    1DIPC   PO4 4586   3.091  20.557   5.299 -0.0923 -0.0417 -0.2329
    1DIPC   GL1 4587   2.819  20.789   5.050  0.1873 -0.0950  0.0755
    1DIPC   GL2 4588   2.861  21.020   4.936 -0.0077 -0.3052 -0.0241
    1DIPC   C1A 4589   2.475  20.779   4.804 -0.1843  0.1407  0.0233
    1DIPC   D2A 4590   2.232  20.953   4.516  0.2873  0.2138  0.1449
    1DIPC   D3A 4591   2.073  20.610   4.216  0.0226  0.1932 -0.2924
    1DIPC   C4A 4592   2.129  20.231   4.011  0.1359 -0.2538  0.1333
    1DIPC   C1B 4593   3.055  21.072   4.488  0.0802 -0.1753  0.0983
    1DIPC   D2B 4594   3.165  21.232   4.091  0.0294  0.1228  0.1177
    1DIPC   D3B 4595   3.454  20.869   4.217 -0.2705 -0.0319  0.1290
    1DIPC   C4B 4596   3.757  20.695   3.878 -0.1494  0.0275 -0.2974
    1DIPC   NC3 4597   4.356  16.930   6.245  0.1391 -0.1740 -0.2932
    1DIPC   PO4 4598   4.145  16.918   5.871 -0.1031 -0.5927 -0.2198
    1DIPC   GL1 4599   4.191  16.626   5.559  0.0458 -0.3734 -0.1919
    1DIPC   GL2 4600   4.388  16.543   5.467  0.1335 -0.3250  0.3334
    1DIPC   C1A 4601   4.116  16.614   5.116 -0.0285 -0.1688 -0.2354
    1DIPC   D2A 4602   4.191  16.730   4.609  0.1678 -0.1923  0.2405
    1DIPC   D3A 4603   3.992  16.817   4.281 -0.0698 -0.1456  0.0462
    1DIPC   C4A 4604   4.210  16.618   3.936  0.1124  0.2354  0.1890
    1DIPC   C1B 4605   4.444  16.191   5.447  0.4421 -0.2296  0.1467
    1DIPC   D2B 4606   4.482  15.959   5.027 -0.1215 -0.1272  0.1132
    1DIPC   D3B 4607   4.295  15.716   4.676  0.2347 -0.3411  0.0205
    1DIPC   C4B 4608   4.039  15.854   4.434 -0.1548 -0.0716  0.3261
    1DIPC   NC3 4609   0.638   5.756   6.314 -0.0181 -0.0926  0.1388
    1DIPC   PO4 4610   0.371   5.974   6.175 -0.0394 -0.2863 -0.1029
    1DIPC   GL1 4611   0.293   5.832   5.690 -0.0454  0.0627  0.3025
    1DIPC   GL2 4612   0.481   5.547   5.554 -0.2364  0.1775  0.0753
    1DIPC   C1A 4613   0.542   6.029   5.267 -0.1824  0.1264 -0.0959
    1DIPC   D2A 4614   0.484   6.255   4.899  0.1418  0.0565 -0.0917
    1DIPC   D3A 4615   0.414   6.673   5.068  0.0135 -0.2253 -0.0475
    1DIPC   C4A 4616   0.061   6.847   5.169 -0.0297 -0.0458  0.1495
    1DIPC   C1B 4617   0.706   5.552   5.194  0.1666 -0.1510  0.1914
    1DIPC   D2B 4618   0.875   5.844   4.879  0.4047  0.2020  0.0712
    1DIPC   D3B 4619   0.380   5.774   4.824 -0.1143  0.0843  0.0618
    1DIPC   C4B 4620   0.198   5.596   5.081 -0.1878  0.2088  0.0445
    1DIPC   NC3 4621  23.642  27.747   7.151  0.2504  0.1691  0.1059
    1DIPC   PO4 4622  23.266  27.986   6.827  0.0482  0.1480  0.1197
    1DIPC   GL1 4623  23.272  27.761   6.425 -0.0951 -0.1993 -0.1640
    1DIPC   GL2 4624  23.350  27.344   6.361  0.0333  0.1892 -0.1470
    1DIPC   C1A 4625  23.064  27.664   6.052  0.2780 -0.1730  0.3142
    1DIPC   D2A 4626  22.838  27.356   5.776 -0.0392 -0.3808  0.2749
    1DIPC   D3A 4627  23.088  27.504   5.295 -0.3518  0.1115  0.0001
    1DIPC   C4A 4628  23.401  27.211   5.005  0.1093 -0.1181  0.0772
    1DIPC   C1B 4629  23.716  27.125   6.116 -0.0190  0.0072  0.0281
    1DIPC   D2B 4630  23.728  26.800   5.772 -0.0254  0.1828  0.1095
    1DIPC   D3B 4631  23.963  27.244   5.627  0.6407 -0.0884 -0.2756
    1DIPC   C4B 4632  24.363  27.153   5.502 -0.1148  0.0169 -0.0807
    1DIPC   NC3 4633  19.177   2.822   6.685  0.2898  0.1318  0.0936
    1DIPC   PO4 4634  18.763   2.744   6.504  0.4546  0.0995 -0.1025
    1DIPC   GL1 4635  19.087   2.776   6.196  0.1244  0.1781  0.3521
    1DIPC   GL2 4636  19.181   2.558   5.958 -0.0634  0.0917  0.2639
    1DIPC   C1A 4637  19.242   3.160   5.966 -0.3235 -0.1130  0.1000
    1DIPC   D2A 4638  19.374   3.302   5.497  0.0583 -0.4446  0.3571
    1DIPC   D3A 4639  19.050   3.589   5.251 -0.0412  0.2540 -0.0770
    1DIPC   C4A 4640  18.549   3.581   5.207 -0.0035 -0.2133 -0.0541
    1DIPC   C1B 4641  19.106   2.770   5.512 -0.1031  0.1563  0.1321
    1DIPC   D2B 4642  19.382   2.787   5.126  0.0413 -0.0580  0.2373
    1DIPC   D3B 4643  19.164   2.791   4.732 -0.2834  0.1861 -0.0972
    1DIPC   C4B 4644  18.827   2.989   4.716  0.0970  0.0286 -0.1840
    1DIPC   NC3 4645   7.660  21.092   6.732  0.1970  0.0874 -0.1808
    1DIPC   PO4 4646   7.371  21.024   6.491  0.1081  0.2161 -0.2514
    1DIPC   GL1 4647   7.577  21.105   6.191 -0.2253  0.1552 -0.1599
    1DIPC   GL2 4648   7.307  21.154   5.927 -0.1548 -0.0698 -0.0882
    1DIPC   C1A 4649   7.854  21.360   5.855 -0.0315  0.0113 -0.0194
    1DIPC   D2A 4650   7.902  21.622   5.475  0.0860 -0.1301  0.0694
    1DIPC   D3A 4651   8.235  21.476   5.180 -0.0891 -0.3510 -0.0676
    1DIPC   C4A 4652   8.594  21.334   5.346  0.2916 -0.3128  0.1237
    1DIPC   C1B 4653   7.401  20.863   5.560  0.1188  0.1848  0.2075
    1DIPC   D2B 4654   7.542  20.701   5.152 -0.4510 -0.2339  0.2088
    1DIPC   D3B 4655   7.561  20.303   5.029  0.0575 -0.2806 -0.0657
    1DIPC   C4B 4656   7.592  19.948   4.797  0.1141  0.2369  0.0932
    1DIPC   NC3 4657   2.207   6.631   6.940  0.1840 -0.0975 -0.5076
    1DIPC   PO4 4658   2.049   7.017   6.641  0.2442  0.3613 -0.2829
    1DIPC   GL1 4659   1.938   6.878   6.213 -0.0485 -0.1170  0.0890
    1DIPC   GL2 4660   2.230   6.832   5.952  0.2113 -0.0955 -0.0314
    1DIPC   C1A 4661   1.770   6.690   5.863  0.0410 -0.1824 -0.3360
    1DIPC   D2A 4662   1.320   6.727   5.522 -0.0129  0.2663 -0.0135
    1DIPC   D3A 4663   1.413   6.361   5.324  0.0948  0.2602  0.3357
    1DIPC   C4A 4664   1.811   6.355   5.232 -0.0833  0.0521 -0.2378
    1DIPC   C1B 4665   2.627   6.816   5.661 -0.1342 -0.0301  0.0275
    1DIPC   D2B 4666   2.888   6.475   5.829 -0.1806  0.2065  0.0828
    1DIPC   D3B 4667   2.695   6.233   5.450 -0.0537  0.3042  0.1926
    1DIPC   C4B 4668   2.319   6.221   5.098 -0.0817  0.0049 -0.0528
    1DIPC   NC3 4669  16.186  26.205   6.593  0.0086 -0.2229 -0.4013
    1DIPC   PO4 4670  16.502  26.373   6.727  0.1456 -0.0265  0.0726
    1DIPC   GL1 4671  16.642  25.993   6.505 -0.3444  0.0067 -0.2776
    1DIPC   GL2 4672  16.518  25.874   6.315 -0.1343  0.2045 -0.0938
    1DIPC   C1A 4673  17.059  25.754   6.469 -0.2902  0.0649 -0.0220
    1DIPC   D2A 4674  17.403  25.490   6.544 -0.0926  0.2462 -0.1131
    1DIPC   D3A 4675  17.151  25.140   6.304  0.0768 -0.1283 -0.2022
    1DIPC   C4A 4676  17.108  24.748   6.584 -0.0167  0.0921 -0.1675
    1DIPC   C1B 4677  16.769  25.518   6.058  0.2310 -0.1141 -0.0759
    1DIPC   D2B 4678  17.086  25.391   5.736 -0.2814 -0.1299  0.2850
    1DIPC   D3B 4679  17.482  25.413   5.587  0.3977  0.2975  0.2229
    1DIPC   C4B 4680  17.558  25.606   5.205  0.0170  0.2024  0.2945
    1DIPC   NC3 4681   3.977  15.281   6.452 -0.2393  0.1139  0.1366
    1DIPC   PO4 4682   3.634  15.411   6.157 -0.2277  0.1665  0.1732
    1DIPC   GL1 4683   3.809  15.475   5.774  0.1520  0.0169 -0.0484
    1DIPC   GL2 4684   3.622  15.558   5.575  0.1647  0.0005  0.0985
    1DIPC   C1A 4685   4.144  15.373   5.476 -0.1165 -0.2354 -0.2651
    1DIPC   D2A 4686   4.453  15.304   5.119 -0.0525 -0.1530 -0.0150
    1DIPC   D3A 4687   4.751  15.576   4.916  0.1105  0.2308  0.2313
    1DIPC   C4A 4688   5.187  15.596   4.949  0.0938 -0.2363  0.1675
    1DIPC   C1B 4689   3.454  15.729   5.121 -0.1007  0.2482 -0.1563
    1DIPC   D2B 4690   3.286  16.138   5.010  0.0376 -0.2670  0.2749
    1DIPC   D3B 4691   3.042  15.933   4.635 -0.2023 -0.1106 -0.0893
    1DIPC   C4B 4692   2.602  16.028   4.593  0.1136 -0.0985  0.0377
    1DIPC   NC3 4693   3.512  25.017   6.288 -0.0969 -0.0632  0.0207
    1DIPC   PO4 4694   3.521  24.906   5.847  0.2992 -0.0746  0.1040
    1DIPC   GL1 4695   3.807  24.844   5.478 -0.0065  0.1701  0.0394
    1DIPC   GL2 4696   4.061  24.908   5.615  0.0062 -0.0675 -0.2193
    1DIPC   C1A 4697   4.005  25.130   5.174  0.1545  0.2115 -0.0395
    1DIPC   D2A 4698   4.153  24.948   4.679  0.2106  0.1039 -0.3097
    1DIPC   D3A 4699   4.518  24.835   4.552  0.0502  0.0179  0.3084
    1DIPC   C4A 4700   4.759  25.141   4.503  0.4060  0.1026 -0.2515
    1DIPC   C1B 4701   4.257  25.338   5.588 -0.0847  0.1213 -0.2997
    1DIPC   D2B 4702   4.485  25.714   5.597 -0.2002 -0.2289 -0.0654
    1DIPC   D3B 4703   4.208  25.977   5.599  0.0132 -0.0485  0.1171
    1DIPC   C4B 4704   4.311  26.292   5.257  0.0178 -0.3323 -0.0570
    1DIPC   NC3 4705  20.078  22.110   6.901 -0.1417 -0.2658  0.2025
    1DIPC   PO4 4706  20.521  21.927   6.830  0.1283  0.1303 -0.0191
    1DIPC   GL1 4707  20.377  22.043   6.436 -0.1544  0.2704 -0.1752
    1DIPC   GL2 4708  20.421  22.239   6.222  0.0011 -0.2796  0.2396
    1DIPC   C1A 4709  20.148  21.862   6.020  0.0846 -0.1618 -0.3822
    1DIPC   D2A 4710  19.891  21.755   5.795  0.0950 -0.1759 -0.0256
    1DIPC   D3A 4711  19.723  21.409   5.912 -0.1203  0.0675 -0.2543
    1DIPC   C4A 4712  19.692  21.197   5.508 -0.0697  0.0013  0.0666
    1DIPC   C1B 4713  20.327  22.352   5.802  0.1045  0.2828  0.1346
    1DIPC   D2B 4714  20.293  22.640   5.410  0.0004 -0.2315 -0.0887
    1DIPC   D3B 4715  20.285  22.107   5.398  0.2583  0.0672 -0.1223
    1DIPC   C4B 4716  19.989  21.716   5.343  0.0347  0.2622  0.0549
    1DIPC   NC3 4717   9.009  26.745   6.868  0.0736 -0.0176 -0.1354
    1DIPC   PO4 4718   8.941  27.144   6.923  0.1547  0.1265 -0.1455
    1DIPC   GL1 4719   8.798  27.658   6.772 -0.2572  0.1403  0.0704
    1DIPC   GL2 4720   8.466  27.690   6.650  0.0705  0.0862  0.0803
    1DIPC   C1A 4721   8.772  28.048   6.786 -0.0700 -0.0611  0.0722
    1DIPC   D2A 4722   8.614  28.444   6.511  0.3937  0.0134  0.0198
    1DIPC   D3A 4723   8.420  28.588   6.193  0.0510 -0.2787 -0.2268
    1DIPC   C4A 4724   8.156  28.507   5.885  0.0813 -0.0805 -0.0611
    1DIPC   C1B 4725   8.630  27.892   6.332  0.0805  0.1478  0.3666
    1DIPC   D2B 4726   8.871  28.171   6.099 -0.1081  0.1845  0.0659
    1DIPC   D3B 4727   9.301  28.249   6.083 -0.1238 -0.1117 -0.1685
    1DIPC   C4B 4728   9.143  28.426   6.424 -0.0580 -0.0480  0.0763
    1DIPC   NC3 4729  12.464  25.098   7.014  0.1334 -0.2067 -0.1072
    1DIPC   PO4 4730  12.845  24.935   6.879  0.0621 -0.0257  0.3989
    1DIPC   GL1 4731  12.723  25.156   6.474  0.1970 -0.2617 -0.0297
    1DIPC   GL2 4732  12.547  25.447   6.695  0.2575 -0.0813 -0.0478
    1DIPC   C1A 4733  12.791  25.196   6.011  0.1711  0.0679  0.0174
    1DIPC   D2A 4734  12.963  25.472   5.636  0.2158 -0.5327  0.0807
    1DIPC   D3A 4735  13.241  25.862   5.502  0.3384 -0.0491 -0.0864
    1DIPC   C4A 4736  13.611  26.079   5.725  0.1505 -0.4400 -0.2917
    1DIPC   C1B 4737  12.648  25.577   6.280  0.0027 -0.1465 -0.1082
    1DIPC   D2B 4738  12.599  25.927   6.052  0.3889  0.1585 -0.1283
    1DIPC   D3B 4739  12.387  25.580   5.872  0.2636  0.0472  0.1312
    1DIPC   C4B 4740  12.287  25.178   6.124 -0.1077 -0.1739 -0.2183
    1DIPC   NC3 4741   5.809   7.491   6.573  0.1698 -0.0024 -0.0387
    1DIPC   PO4 4742   5.418   7.658   6.494 -0.0131  0.2626  0.1000
    1DIPC   GL1 4743   5.629   7.608   6.018  0.0038  0.1693  0.2632
    1DIPC   GL2 4744   5.361   7.489   5.917 -0.2314  0.0513 -0.1920
    1DIPC   C1A 4745   5.824   7.784   5.686  0.3312  0.0971  0.1983
    1DIPC   D2A 4746   6.104   8.135   5.564  0.3366 -0.0121  0.2058
    1DIPC   D3A 4747   5.687   8.293   5.537 -0.0977  0.3017 -0.0225
    1DIPC   C4A 4748   5.290   8.037   5.400  0.0527  0.0980  0.2062
    1DIPC   C1B 4749   5.067   7.672   5.696  0.0736  0.1856  0.2748
    1DIPC   D2B 4750   4.699   7.579   5.585  0.0837  0.0843 -0.0660
    1DIPC   D3B 4751   4.846   7.471   5.192  0.0084  0.0508  0.0407
    1DIPC   C4B 4752   5.204   7.367   4.958  0.0937  0.3798 -0.0571
    1DIPC   NC3 4753   3.221  28.228   6.938 -0.0848  0.0320  0.1808
    1DIPC   PO4 4754   3.150  28.002   6.516 -0.1253 -0.0526 -0.2537
    1DIPC   GL1 4755   3.226  27.905   6.047  0.0358 -0.0479  0.1246
    1DIPC   GL2 4756   3.106  27.631   6.040  0.3051 -0.1433 -0.0739
    1DIPC   C1A 4757   3.550  27.941   5.651  0.0227  0.0820 -0.1520
    1DIPC   D2A 4758   3.505  27.893   5.266 -0.1443  0.1557 -0.0804
    1DIPC   D3A 4759   3.089  27.886   5.248  0.2084  0.2193 -0.1871
    1DIPC   C4A 4760   2.659  28.189   5.377  0.1422 -0.1893 -0.2582
    1DIPC   C1B 4761   3.375  27.486   5.690 -0.1875  0.1259 -0.0066
    1DIPC   D2B 4762   3.468  27.429   5.245 -0.1180 -0.1935 -0.1220
    1DIPC   D3B 4763   3.413  27.552   4.860 -0.3117 -0.2248  0.1466
    1DIPC   C4B 4764   3.600  27.199   4.564 -0.1861  0.3555  0.0683
    1DIPC   NC3 4765  25.152   2.064   6.264 -0.2803  0.2126  0.3014
    1DIPC   PO4 4766  25.192   2.512   6.263 -0.1264 -0.3593 -0.0219
    1DIPC   GL1 4767  25.318   2.462   5.903 -0.0272  0.0176 -0.0550
    1DIPC   GL2 4768  25.495   2.206   5.691 -0.5709  0.0564 -0.2864
    1DIPC   C1A 4769  25.054   2.467   5.520 -0.2893 -0.0836 -0.0698
    1DIPC   D2A 4770  25.047   2.205   5.165 -0.2803  0.0720  0.1709
    1DIPC   D3A 4771  25.410   2.080   4.826  0.0337 -0.1369  0.0058
    1DIPC   C4A 4772  25.819   2.066   4.930 -0.1407 -0.0369  0.0429
    1DIPC   C1B 4773  25.603   2.312   5.341  0.2014  0.2231 -0.3456
    1DIPC   D2B 4774  25.628   2.587   5.050  0.1691  0.0733  0.1717
    1DIPC   D3B 4775  25.470   2.846   5.487  0.2068  0.0502  0.0437
    1DIPC   C4B 4776  25.687   3.269   5.625  0.0551  0.1228 -0.1915
    1DIPC   NC3 4777  26.873  12.474   6.631 -0.1607 -0.3784  0.1551
    1DIPC   PO4 4778  26.514  12.350   6.450 -0.1556  0.1581 -0.0750
    1DIPC   GL1 4779  26.831  12.273   6.100  0.0865  0.2248 -0.1196
    1DIPC   GL2 4780  26.695  12.332   5.804 -0.1366  0.2536  0.4561
    1DIPC   C1A 4781  27.187  12.422   5.854  0.1977  0.1117 -0.3981
    1DIPC   D2A 4782  27.655  12.568   5.934  0.0777 -0.0151 -0.0269
    1DIPC   D3A 4783  27.538  12.359   5.547  0.0428 -0.2008 -0.1148
    1DIPC   C4A 4784  27.387  11.978   5.562  0.2072  0.0063  0.0120
    1DIPC   C1B 4785  26.910  12.644   5.532  0.4014  0.1447  0.0571
    1DIPC   D2B 4786  27.245  12.838   5.383 -0.0514  0.2020  0.2573
    1DIPC   D3B 4787  27.205  12.406   5.157 -0.2271  0.2502  0.1685
    1DIPC   C4B 4788  27.001  12.290   4.942  0.0639 -0.1023  0.1868
    1DIPC   NC3 4789   6.293  23.641   5.492  0.1495 -0.1344  0.0469
    1DIPC   PO4 4790   6.249  23.240   5.763  0.1658  0.1895 -0.0110
    1DIPC   GL1 4791   6.293  23.126   5.288  0.2453 -0.0326 -0.1564
    1DIPC   GL2 4792   6.293  22.805   5.363 -0.1715 -0.0877 -0.1286
    1DIPC   C1A 4793   6.716  23.085   5.019  0.3016  0.2129 -0.0075
    1DIPC   D2A 4794   7.034  23.371   4.855  0.0022  0.0609 -0.0804
    1DIPC   D3A 4795   6.879  23.643   4.564 -0.1484 -0.0991  0.1466
    1DIPC   C4A 4796   6.589  23.421   4.249  0.3031  0.2022 -0.0216
    1DIPC   C1B 4797   6.394  22.626   4.996 -0.0317  0.3523 -0.2400
    1DIPC   D2B 4798   6.203  22.365   4.618  0.1736  0.1010 -0.1104
    1DIPC   D3B 4799   5.982  22.035   4.942 -0.0846  0.2414 -0.3375
    1DIPC   C4B 4800   5.920  21.655   4.701  0.2894 -0.0243 -0.2887
    1DIPC   NC3 4801  27.700   6.370   6.688  0.0598 -0.0015  0.4024
    1DIPC   PO4 4802  27.546   6.637   6.310  0.1728  0.5299 -0.0665
    1DIPC   GL1 4803  27.682   6.695   5.885 -0.0918  0.4598  0.1638
    1DIPC   GL2 4804  27.845   6.294   5.938  0.0377 -0.1445 -0.1577
    1DIPC   C1A 4805  27.879   6.655   5.440  0.3847 -0.0366  0.1277
    1DIPC   D2A 4806  27.757   6.720   5.037 -0.1023 -0.2898 -0.0826
    1DIPC   D3A 4807  27.677   7.201   5.268 -0.2225 -0.0417  0.3141
    1DIPC   C4A 4808  27.477   7.104   5.685  0.0285 -0.1392  0.0772
    1DIPC   C1B 4809  28.142   6.241   5.591  0.0635  0.0930  0.0597
    1DIPC   D2B 4810  28.344   6.125   5.319 -0.0747  0.0808 -0.1234
    1DIPC   D3B 4811  27.889   6.204   5.158 -0.3364  0.1567 -0.3865
    1DIPC   C4B 4812  27.584   6.142   4.764  0.0647  0.3486 -0.1786
    1DIPC   NC3 4813  25.828  15.770   6.649  0.0233  0.2863 -0.3059
    1DIPC   PO4 4814  25.687  15.745   6.227  0.1619  0.2301 -0.0301
    1DIPC   GL1 4815  25.710  15.937   5.893 -0.0697  0.1518 -0.0274
    1DIPC   GL2 4816  25.339  15.977   5.771 -0.1857  0.1326  0.0065
    1DIPC   C1A 4817  25.872  16.020   5.517  0.0872 -0.1616  0.0270
    1DIPC   D2A 4818  25.715  16.169   5.193  0.5075  0.0792  0.1379
    1DIPC   D3A 4819  25.973  16.584   5.295  0.1745 -0.0982 -0.1951
    1DIPC   C4A 4820  26.345  16.687   5.099  0.1780 -0.0587  0.3751
    1DIPC   C1B 4821  25.497  15.730   5.455 -0.0952  0.3473  0.3584
    1DIPC   D2B 4822  25.772  15.591   5.176 -0.1112 -0.0669 -0.1019
    1DIPC   D3B 4823  25.600  15.299   5.238  0.1550 -0.0975  0.1011
    1DIPC   C4B 4824  25.690  14.855   5.131 -0.1893 -0.1296  0.2643
    1DIPC   NC3 4825  21.002  23.218   6.887  0.3015 -0.0712  0.0296
    1DIPC   PO4 4826  20.620  23.257   6.687  0.1282 -0.1156  0.1860
    1DIPC   GL1 4827  20.645  23.232   6.332 -0.0420 -0.1071  0.0214
    1DIPC   GL2 4828  20.921  23.365   6.252  0.2439 -0.0606 -0.1223
    1DIPC   C1A 4829  20.914  23.014   5.977  0.1601  0.1429  0.0527
    1DIPC   D2A 4830  21.253  22.826   5.710 -0.3784 -0.0600 -0.3137
    1DIPC   D3A 4831  21.279  22.878   5.312  0.1269  0.2472 -0.0980
    1DIPC   C4A 4832  20.857  22.948   5.092 -0.0955 -0.1828 -0.0219
    1DIPC   C1B 4833  20.549  23.409   5.888 -0.1438 -0.2290 -0.0480
    1DIPC   D2B 4834  20.543  23.267   5.380 -0.1606 -0.3070  0.0809
    1DIPC   D3B 4835  20.332  23.644   5.218 -0.0692 -0.1387 -0.1096
    1DIPC   C4B 4836  20.470  23.858   5.462 -0.0497  0.0583 -0.1442
    1DIPC   NC3 4837  22.338  11.416   6.858 -0.3839 -0.2461 -0.0351
    1DIPC   PO4 4838  22.638  11.709   6.853  0.2468  0.1450 -0.1065
    1DIPC   GL1 4839  22.479  11.697   6.474 -0.0380 -0.0256  0.0970
    1DIPC   GL2 4840  22.034  11.660   6.545  0.1412  0.1842 -0.3980
    1DIPC   C1A 4841  22.657  11.368   6.269  0.2416 -0.0157  0.2190
    1DIPC   D2A 4842  22.526  11.129   5.827 -0.0135  0.0718  0.0774
    1DIPC   D3A 4843  22.028  11.104   5.681 -0.0669  0.1756  0.0438
    1DIPC   C4A 4844  21.911  10.750   5.581 -0.0916 -0.0898 -0.0936
    1DIPC   C1B 4845  21.689  11.477   6.278  0.2134 -0.0414  0.0307
    1DIPC   D2B 4846  21.296  11.331   6.411 -0.1585  0.1778 -0.3216
    1DIPC   D3B 4847  21.113  10.951   6.684  0.2411 -0.2577 -0.1124
    1DIPC   C4B 4848  20.774  10.700   6.387 -0.1857  0.1304 -0.1399
    1DIPC   NC3 4849  24.986  19.060   6.621 -0.0441  0.1643 -0.0146
    1DIPC   PO4 4850  24.697  18.689   6.684  0.1608 -0.2223  0.2234
    1DIPC   GL1 4851  24.570  18.809   6.226  0.2396  0.2651  0.1267
    1DIPC   GL2 4852  24.162  18.952   6.099  0.0780 -0.2581 -0.0839
    1DIPC   C1A 4853  24.547  18.678   5.814  0.1570 -0.1693 -0.1496
    1DIPC   D2A 4854  24.562  18.852   5.419 -0.3148 -0.2856 -0.1307
    1DIPC   D3A 4855  24.203  18.971   5.260 -0.2210 -0.1968  0.3019
    1DIPC   C4A 4856  24.102  19.470   5.269 -0.0892 -0.1070  0.1174
    1DIPC   C1B 4857  23.884  18.902   5.750 -0.1746 -0.1996  0.1091
    1DIPC   D2B 4858  23.741  19.183   5.357 -0.0440 -0.1046 -0.0758
    1DIPC   D3B 4859  23.711  18.922   5.017  0.2013 -0.2198 -0.1054
    1DIPC   C4B 4860  23.421  19.004   4.645  0.2020 -0.1231  0.1607
    1DIPC   NC3 4861  14.686  20.484   7.254  0.2418  0.1367  0.1672
    1DIPC   PO4 4862  15.024  20.414   7.359 -0.1286 -0.0010  0.2599
    1DIPC   GL1 4863  15.240  20.563   7.077 -0.1662  0.2529 -0.0062
    1DIPC   GL2 4864  15.031  20.703   6.856 -0.2738  0.0467 -0.1280
    1DIPC   C1A 4865  15.683  20.483   7.029 -0.2209 -0.1659 -0.1431
    1DIPC   D2A 4866  16.071  20.620   7.206 -0.0698  0.2816 -0.1474
    1DIPC   D3A 4867  16.138  20.279   6.956 -0.0673  0.0910  0.0191
    1DIPC   C4A 4868  15.880  19.944   6.873 -0.0772 -0.0200 -0.1246
    1DIPC   C1B 4869  15.060  20.649   6.439  0.1183  0.1453  0.3592
    1DIPC   D2B 4870  15.189  20.275   6.087  0.2213  0.1046 -0.0563
    1DIPC   D3B 4871  15.073  20.257   5.623 -0.2609 -0.0033  0.4785
    1DIPC   C4B 4872  14.670  20.417   5.460  0.1154  0.1342 -0.1016
    1DIPC   NC3 4873  22.090   6.924   6.685 -0.0317 -0.2927 -0.2147
    1DIPC   PO4 4874  21.877   6.556   6.660 -0.1584  0.1075  0.1290
    1DIPC   GL1 4875  21.713   6.471   6.244  0.2869  0.2671  0.0633
    1DIPC   GL2 4876  21.567   6.095   6.181  0.1648 -0.1519  0.2320
    1DIPC   C1A 4877  21.574   6.734   5.851  0.0142  0.0531 -0.1954
    1DIPC   D2A 4878  21.622   7.021   5.562 -0.0337 -0.2473 -0.3044
    1DIPC   D3A 4879  22.083   6.945   5.614 -0.2576 -0.0675 -0.0377
    1DIPC   C4A 4880  22.103   6.692   5.889 -0.1976 -0.0946 -0.0933
    1DIPC   C1B 4881  21.277   5.871   5.845 -0.2145 -0.0779  0.2374
    1DIPC   D2B 4882  21.175   5.710   5.399  0.1031 -0.0288  0.0430
    1DIPC   D3B 4883  21.068   6.157   5.202  0.0456  0.0617  0.0893
    1DIPC   C4B 4884  21.300   6.466   4.930  0.3393 -0.1898  0.2082
    1DIPC   NC3 4885   7.013   3.770   7.093 -0.5179 -0.1156  0.0821
    1DIPC   PO4 4886   6.989   3.620   6.642  0.3529  0.0774  0.0720
    1DIPC   GL1 4887   7.381   3.735   6.422  0.0383 -0.0639  0.1868
    1DIPC   GL2 4888   7.320   3.769   6.067  0.2314 -0.1643  0.0479
    1DIPC   C1A 4889   7.805   3.681   6.160  0.1268 -0.0383 -0.1357
    1DIPC   D2A 4890   8.091   3.595   6.497  0.1430 -0.1222  0.4062
    1DIPC   D3A 4891   8.234   3.414   6.125 -0.0032  0.1306  0.1111
    1DIPC   C4A 4892   8.372   3.536   5.822 -0.1586  0.0907  0.1560
    1DIPC   C1B 4893   7.634   3.805   5.713 -0.0163  0.0712 -0.0518
    1DIPC   D2B 4894   8.076   3.896   5.639 -0.0348  0.4020  0.0869
    1DIPC   D3B 4895   7.824   4.188   5.972 -0.1480 -0.0527 -0.0476
    1DIPC   C4B 4896   7.468   4.237   6.160 -0.0756  0.1680  0.2337
    1DIPC   NC3 4897   5.201   9.310   7.295  0.1706 -0.0933 -0.1459
    1DIPC   PO4 4898   5.139   9.537   6.924  0.0119 -0.4219  0.0473
    1DIPC   GL1 4899   5.364   9.552   6.614  0.0303  0.1578 -0.3419
    1DIPC   GL2 4900   5.181   9.343   6.388  0.2865 -0.1005 -0.1719
    1DIPC   C1A 4901   5.465   9.753   6.198 -0.0901  0.2222 -0.1824
    1DIPC   D2A 4902   5.556  10.052   5.873 -0.1676  0.0723 -0.2868
    1DIPC   D3A 4903   5.805   9.984   5.583 -0.1111 -0.1899 -0.2813
    1DIPC   C4A 4904   5.886  10.071   5.192 -0.2218  0.0598 -0.2614
    1DIPC   C1B 4905   5.679   9.332   6.256  0.3073  0.0955  0.0531
    1DIPC   D2B 4906   6.213   9.289   6.181 -0.0838  0.2175 -0.0223
    1DIPC   D3B 4907   6.410   9.168   5.778  0.0026 -0.4284 -0.5354
    1DIPC   C4B 4908   6.200   8.751   5.668  0.2446 -0.0757 -0.1393
    1DIPC   NC3 4909   6.445  17.684   6.219 -0.0997 -0.1233  0.1871
    1DIPC   PO4 4910   6.195  17.391   5.957  0.0562  0.0287  0.1541
    1DIPC   GL1 4911   6.106  17.087   5.610  0.1153 -0.0024 -0.1847
    1DIPC   GL2 4912   6.174  16.672   5.428  0.0483  0.3315  0.2434
    1DIPC   C1A 4913   6.276  17.028   5.131  0.0932  0.0971  0.1534
    1DIPC   D2A 4914   6.098  16.984   4.735  0.1573 -0.0154 -0.2158
    1DIPC   D3A 4915   5.893  17.276   4.486 -0.1194  0.2211  0.0350
    1DIPC   C4A 4916   5.978  17.691   4.492  0.3124  0.1824 -0.1303
    1DIPC   C1B 4917   6.100  16.510   5.032 -0.2707 -0.2629 -0.1121
    1DIPC   D2B 4918   6.093  16.476   4.632 -0.0798 -0.0828 -0.0725
    1DIPC   D3B 4919   6.509  16.672   4.585  0.1330  0.1568  0.0934
    1DIPC   C4B 4920   6.683  16.982   4.740  0.1053 -0.2822  0.0426
    1DIPC   NC3 4921  24.801  21.256   6.964  0.0931 -0.1367  0.1934
    1DIPC   PO4 4922  24.615  20.901   6.756  0.3159  0.0969 -0.2559
    1DIPC   GL1 4923  24.707  20.824   6.301  0.1027 -0.1493  0.1329
    1DIPC   GL2 4924  24.811  21.015   5.984  0.0001  0.0576  0.2066
    1DIPC   C1A 4925  24.432  20.656   6.008 -0.1172 -0.2261  0.0417
    1DIPC   D2A 4926  24.270  20.392   5.548  0.0010  0.1708 -0.0636
    1DIPC   D3A 4927  24.156  20.266   5.907 -0.0028 -0.0167  0.0339
    1DIPC   C4A 4928  23.857  20.568   6.031  0.3220  0.0920 -0.0175
    1DIPC   C1B 4929  24.425  21.094   5.705  0.0150 -0.0039  0.2585
    1DIPC   D2B 4930  24.307  21.266   5.260  0.0488  0.0139 -0.0339
    1DIPC   D3B 4931  24.694  21.252   5.024 -0.0322 -0.0455  0.1104
    1DIPC   C4B 4932  24.738  21.446   4.626 -0.1482 -0.2126  0.2264
    1DIPC   NC3 4933   5.090  23.787   6.058 -0.0862  0.1241  0.1307
    1DIPC   PO4 4934   5.544  23.768   5.856  0.0724 -0.0938 -0.4565
    1DIPC   GL1 4935   5.386  23.802   5.442  0.0330 -0.0232 -0.0656
    1DIPC   GL2 4936   5.317  23.431   5.296 -0.0792  0.2990 -0.1220
    1DIPC   C1A 4937   5.421  23.833   4.982 -0.1058 -0.0051  0.3784
    1DIPC   D2A 4938   5.623  23.899   4.674 -0.0198 -0.0096  0.0047
    1DIPC   D3A 4939   5.836  23.792   4.323  0.4025 -0.0090  0.1830
    1DIPC   C4A 4940   6.213  23.701   4.400 -0.2012 -0.0789 -0.1834
    1DIPC   C1B 4941   5.688  23.402   4.935 -0.3021 -0.2124  0.1217
    1DIPC   D2B 4942   6.154  23.462   4.891  0.1733  0.1743 -0.0897
    1DIPC   D3B 4943   6.386  23.135   4.658  0.0075 -0.1798  0.1544
    1DIPC   C4B 4944   6.344  22.873   4.290  0.0721  0.2196 -0.2117
    1DIPC   NC3 4945  25.239  24.963   6.597  0.0828  0.1439  0.2569
    1DIPC   PO4 4946  25.220  25.077   6.204  0.0725  0.0240  0.0444
    1DIPC   GL1 4947  25.348  25.095   5.778 -0.1730  0.0399 -0.3435
    1DIPC   GL2 4948  25.163  25.078   5.605  0.0005 -0.0285 -0.0783
    1DIPC   C1A 4949  25.532  25.358   5.496  0.1078 -0.0167  0.2429
    1DIPC   D2A 4950  25.788  25.653   5.649  0.0114  0.1244 -0.0960
    1DIPC   D3A 4951  25.345  25.800   5.704  0.1818 -0.2018 -0.3537
    1DIPC   C4A 4952  25.066  25.786   5.342  0.0481  0.1311  0.3532
    1DIPC   C1B 4953  25.277  25.025   5.168  0.0612  0.1498  0.0453
    1DIPC   D2B 4954  25.614  25.085   4.943  0.1870 -0.3024  0.3092
    1DIPC   D3B 4955  26.015  25.114   4.881  0.3120  0.2445  0.0136
    1DIPC   C4B 4956  26.326  25.375   5.039  0.0544  0.1058  0.1932
    1DIPC   NC3 4957  19.156  28.369   7.055 -0.1415 -0.1299 -0.3347
    1DIPC   PO4 4958  19.599  28.314   6.821  0.4569 -0.2516  0.0124
    1DIPC   GL1 4959  19.568  28.175   6.396 -0.3269 -0.2070 -0.2409
    1DIPC   GL2 4960  19.926  27.907   6.128 -0.1253 -0.1187 -0.2019
    1DIPC   C1A 4961  19.241  28.121   6.033  0.0849  0.0535 -0.3190
    1DIPC   D2A 4962  18.769  28.022   5.969  0.1456 -0.2287  0.2064
    1DIPC   D3A 4963  18.480  28.345   5.687 -0.0003 -0.1615  0.1081
    1DIPC   C4A 4964  18.136  28.685   5.833 -0.1345  0.1399 -0.0374
    1DIPC   C1B 4965  19.799  27.984   5.750 -0.1160 -0.2924  0.0787
    1DIPC   D2B 4966  20.085  28.231   5.391  0.0803 -0.3009 -0.1560
    1DIPC   D3B 4967  19.987  27.955   5.142 -0.1616  0.1646  0.0915
    1DIPC   C4B 4968  19.663  27.721   5.166  0.3549 -0.0483 -0.0559
    1DIPC   NC3 4969   5.016   0.498   6.841 -0.2503 -0.1458  0.1057
    1DIPC   PO4 4970   5.397   0.772   6.777 -0.0573  0.1693 -0.1870
    1DIPC   GL1 4971   5.560   0.908   6.410 -0.2389 -0.1751  0.2494
    1DIPC   GL2 4972   5.405   0.717   6.171  0.0795 -0.1295  0.2967
    1DIPC   C1A 4973   5.566   1.197   6.006 -0.4612 -0.4165 -0.1321
    1DIPC   D2A 4974   5.917   1.341   5.877 -0.2140  0.4226 -0.0811
    1DIPC   D3A 4975   5.949   1.690   5.679 -0.1543  0.2957 -0.2425
    1DIPC   C4A 4976   5.704   1.688   5.291  0.0643 -0.0559 -0.0242
    1DIPC   C1B 4977   5.615   0.804   5.731  0.4559 -0.0507  0.0604
    1DIPC   D2B 4978   5.961   0.976   5.443  0.1838  0.0521  0.0544
    1DIPC   D3B 4979   6.054   0.794   4.997  0.1178  0.0755  0.0341
    1DIPC   C4B 4980   5.868   0.898   4.757  0.0575 -0.1607  0.3812
    1DIPC   NC3 4981  22.784  20.482   6.950 -0.2873  0.2300  0.0858
    1DIPC   PO4 4982  22.623  20.851   7.054 -0.1776  0.2921  0.0994
    1DIPC   GL1 4983  22.864  20.888   6.681  0.0863  0.0814  0.2288
    1DIPC   GL2 4984  22.642  20.897   6.407 -0.0832  0.0671 -0.0384
    1DIPC   C1A 4985  23.032  21.047   6.181 -0.1422  0.0314  0.1372
    1DIPC   D2A 4986  23.161  21.461   5.966 -0.2967 -0.0789 -0.2000
    1DIPC   D3A 4987  23.481  21.459   5.580 -0.0966 -0.1212 -0.0176
    1DIPC   C4A 4988  23.314  21.273   5.215 -0.0866 -0.0550 -0.1884
    1DIPC   C1B 4989  22.829  20.562   6.159 -0.3578 -0.0455 -0.0171
    1DIPC   D2B 4990  22.898  20.334   5.824 -0.1474  0.2537  0.1761
    1DIPC   D3B 4991  22.681  20.614   5.540 -0.0617  0.2512  0.2368
    1DIPC   C4B 4992  22.903  20.794   5.269  0.3125  0.1770  0.1215
    1DIPC   NC3 4993   0.313   9.134   6.769  0.3837 -0.2945  0.2425
    1DIPC   PO4 4994   0.243   9.013   6.362 -0.4468  0.1188 -0.0920
    1DIPC   GL1 4995   0.538   8.971   5.930  0.0054 -0.2517  0.0041
    1DIPC   GL2 4996   0.609   8.758   5.839 -0.0173 -0.1178 -0.2920
    1DIPC   C1A 4997   0.456   9.144   5.485 -0.0780  0.1641  0.1281
    1DIPC   D2A 4998   0.391   9.319   5.123 -0.1695  0.1956  0.2619
    1DIPC   D3A 4999   0.494   8.941   4.987 -0.1467  0.1058  0.0211
    1DIPC   C4A 5000   0.692   8.746   5.303  0.3342  0.0414  0.1229
    1DIPC   C1B 5001   0.232   8.712   5.649  0.1680 -0.2959  0.1052
    1DIPC   D2B 5002   0.114   8.655   5.320 -0.1482 -0.1360 -0.2320
    1DIPC   D3B 5003   0.091   8.506   4.957 -0.1455  0.0573 -0.2237
    1DIPC   C4B 5004   0.227   8.782   4.637  0.0537  0.0549  0.1433
    1DIPC   NC3 5005   5.859   3.117   6.644  0.2026  0.1508  0.1710
    1DIPC   PO4 5006   6.226   3.282   6.596  0.3268  0.2906  0.0677
    1DIPC   GL1 5007   6.468   3.250   6.211 -0.1090  0.2838 -0.2778
    1DIPC   GL2 5008   6.561   3.620   6.317  0.1396  0.1644  0.1093
    1DIPC   C1A 5009   6.675   3.489   5.850 -0.0233 -0.2013 -0.1808
    1DIPC   D2A 5010   6.524   3.824   5.642  0.0999 -0.0381  0.1988
    1DIPC   D3A 5011   6.125   4.115   5.799 -0.1150 -0.1235 -0.2602
    1DIPC   C4A 5012   5.794   4.372   5.850  0.0805  0.1898  0.0129
    1DIPC   C1B 5013   6.221   3.619   6.002 -0.1092  0.2048  0.2822
    1DIPC   D2B 5014   6.215   3.454   5.575  0.0533 -0.1134 -0.2550
    1DIPC   D3B 5015   5.962   3.212   5.382 -0.0249  0.1050  0.2120
    1DIPC   C4B 5016   5.506   3.097   5.595 -0.0144  0.1769  0.0023
    1DIPC   NC3 5017   4.827   2.806   6.564  0.1054 -0.1534 -0.1122
    1DIPC   PO4 5018   4.786   2.393   6.540  0.0481 -0.1522  0.0511
    1DIPC   GL1 5019   4.746   2.505   6.198 -0.1522  0.1524  0.0392
    1DIPC   GL2 5020   4.618   2.836   6.123  0.0802 -0.0406 -0.4293
    1DIPC   C1A 5021   4.521   2.357   5.855 -0.0699 -0.0509  0.0790
    1DIPC   D2A 5022   4.645   2.274   5.423 -0.0137 -0.2370 -0.3110
    1DIPC   D3A 5023   4.428   2.610   5.251  0.1216 -0.0664 -0.1524
    1DIPC   C4A 5024   4.002   2.557   4.948 -0.0643  0.0424 -0.3038
    1DIPC   C1B 5025   4.379   2.922   5.770 -0.0114 -0.2391 -0.0008
    1DIPC   D2B 5026   4.290   3.058   5.410  0.2435 -0.0788  0.2176
    1DIPC   D3B 5027   4.678   3.330   5.395 -0.2122 -0.2203 -0.1327
    1DIPC   C4B 5028   5.052   3.345   5.295 -0.1830 -0.2270  0.0013
    1DIPC   NC3 5029  11.404   0.258   7.608  0.0897  0.1027  0.0905
    1DIPC   PO4 5030  11.221  -0.029   7.337 -0.1042 -0.2454  0.2540
    1DIPC   GL1 5031  11.454  -0.083   6.956 -0.1287  0.0243  0.1697
    1DIPC   GL2 5032  11.571  -0.433   6.876 -0.1825  0.0777  0.0912
    1DIPC   C1A 5033  11.467  -0.036   6.574  0.2383 -0.0654  0.0522
    1DIPC   D2A 5034  11.477   0.082   6.061  0.1553  0.1655  0.0725
    1DIPC   D3A 5035  11.557   0.366   5.695 -0.1542  0.0930  0.0078
    1DIPC   C4A 5036  11.206   0.703   5.705  0.0279  0.0122  0.1192
    1DIPC   C1B 5037  11.719  -0.449   6.467 -0.2047 -0.2739  0.3193
    1DIPC   D2B 5038  11.891  -0.325   6.050 -0.3099 -0.0865 -0.1549
    1DIPC   D3B 5039  11.575  -0.204   5.681  0.0918  0.2812  0.0539
    1DIPC   C4B 5040  11.186  -0.353   5.755  0.3915 -0.0078 -0.1475
    1DIPC   NC3 5041   7.197   1.110   7.457 -0.3393 -0.0788 -0.1546
    1DIPC   PO4 5042   6.889   1.209   7.083  0.2372  0.2469 -0.2491
    1DIPC   GL1 5043   6.988   1.153   6.684  0.0704  0.0551 -0.3114
    1DIPC   GL2 5044   6.735   1.101   6.316 -0.2658  0.3945 -0.0539
    1DIPC   C1A 5045   7.306   1.207   6.423 -0.1024  0.1320 -0.0838
    1DIPC   D2A 5046   7.628   0.930   6.390  0.0450 -0.0357 -0.2872
    1DIPC   D3A 5047   7.425   0.573   6.672 -0.0570  0.2298 -0.2457
    1DIPC   C4A 5048   7.480   0.059   6.591  0.1250  0.0106  0.0947
    1DIPC   C1B 5049   7.030   0.794   6.327  0.1158 -0.1721  0.0254
    1DIPC   D2B 5050   7.339   0.402   6.221  0.0232  0.0551 -0.0566
    1DIPC   D3B 5051   7.448   0.483   5.738 -0.2172  0.1526 -0.0218
    1DIPC   C4B 5052   7.472   0.874   5.395 -0.1871 -0.1265  0.0497
    1DIPC   NC3 5053  10.340   5.158   7.162 -0.2020 -0.0830  0.1993
    1DIPC   PO4 5054   9.929   5.070   7.152  0.3124 -0.0317  0.2920
    1DIPC   GL1 5055   9.960   5.017   6.752 -0.0044 -0.0441 -0.2636
    1DIPC   GL2 5056   9.657   4.880   6.570 -0.0017 -0.1728  0.3629
    1DIPC   C1A 5057  10.138   4.655   6.540  0.1552 -0.2198 -0.2026
    1DIPC   D2A 5058  10.175   4.241   6.336  0.0648  0.1156 -0.0312
    1DIPC   D3A 5059   9.973   4.221   5.915 -0.3441 -0.1082  0.0298
    1DIPC   C4A 5060   9.551   4.129   5.837  0.1912 -0.1694  0.1852
    1DIPC   C1B 5061   9.506   5.131   6.183  0.0870 -0.1469 -0.0809
    1DIPC   D2B 5062   9.386   5.573   5.951 -0.2270 -0.0270 -0.0711
    1DIPC   D3B 5063   9.494   5.634   5.593 -0.1144 -0.1133  0.1704
    1DIPC   C4B 5064   9.082   5.604   5.433  0.0423 -0.2979  0.0940
    1DIPC   NC3 5065   6.888  22.417   6.521 -0.0771 -0.1082  0.0905
    1DIPC   PO4 5066   6.613  22.404   6.084  0.2630 -0.0258 -0.0386
    1DIPC   GL1 5067   6.552  22.399   5.621 -0.1867 -0.1177 -0.3983
    1DIPC   GL2 5068   6.760  22.624   5.387  0.0795  0.0020  0.2572
    1DIPC   C1A 5069   6.440  22.188   5.257 -0.0202  0.1001  0.2812
    1DIPC   D2A 5070   6.635  22.178   4.835 -0.0022  0.0932  0.1638
    1DIPC   D3A 5071   6.369  21.888   4.533 -0.1702  0.1438 -0.3679
    1DIPC   C4A 5072   6.393  21.752   4.144 -0.0715 -0.1213 -0.3359
    1DIPC   C1B 5073   6.938  22.640   5.012  0.0540 -0.0772  0.1264
    1DIPC   D2B 5074   6.658  22.654   4.615 -0.1774  0.0192 -0.0849
    1DIPC   D3B 5075   6.865  22.745   4.175  0.1013 -0.0328 -0.4188
    1DIPC   C4B 5076   7.093  23.076   4.197 -0.2030 -0.3354  0.2448
    1DIPC   NC3 5077   0.563  22.491   5.995 -0.0640 -0.2798  0.1271
    1DIPC   PO4 5078   0.977  22.385   6.014 -0.0096  0.1463  0.1870
    1DIPC   GL1 5079   0.926  22.418   5.536 -0.2823  0.1192 -0.0935
    1DIPC   GL2 5080   1.136  22.614   5.571 -0.0954 -0.2659  0.2617
    1DIPC   C1A 5081   0.698  22.219   5.223 -0.0277  0.1297 -0.1866
    1DIPC   D2A 5082   0.758  22.222   4.753 -0.4049 -0.0228  0.0807
    1DIPC   D3A 5083   0.497  21.981   4.490  0.1840 -0.1454  0.0995
    1DIPC   C4A 5084   0.072  22.158   4.474  0.1120 -0.1499 -0.4987
    1DIPC   C1B 5085   0.786  22.863   5.323  0.2049  0.0090 -0.4190
    1DIPC   D2B 5086   0.359  22.604   5.336 -0.3760 -0.0559  0.4401
    1DIPC   D3B 5087   0.585  22.652   4.944  0.1490 -0.0699  0.2821
    1DIPC   C4B 5088   0.969  22.593   4.979 -0.0027 -0.0328  0.0334
    1DIPC   NC3 5089   3.627  28.169   6.488  0.2240  0.0269 -0.0548
    1DIPC   PO4 5090   3.629  28.556   6.637 -0.0605  0.1357  0.3835
    1DIPC   GL1 5091   3.667  28.618   6.164  0.1514 -0.0382  0.2409
    1DIPC   GL2 5092   3.536  28.913   5.987 -0.1691  0.2863 -0.2962
    1DIPC   C1A 5093   3.860  28.609   5.696  0.1379  0.1713 -0.0005
    1DIPC   D2A 5094   4.086  28.934   5.390  0.0833  0.0119 -0.2991
    1DIPC   D3A 5095   4.188  29.321   5.181 -0.3136 -0.2087  0.1751
    1DIPC   C4A 5096   4.462  29.674   5.382 -0.0119 -0.1208 -0.0270
    1DIPC   C1B 5097   3.614  29.062   5.536  0.1627  0.2372  0.0895
    1DIPC   D2B 5098   3.659  29.292   5.204  0.1996  0.3511 -0.1275
    1DIPC   D3B 5099   3.653  29.509   5.518 -0.0325 -0.2807  0.0413
    1DIPC   C4B 5100   3.839  29.341   5.912 -0.1473 -0.1128 -0.1410
    1DIPC   NC3 5101  15.566   6.524   7.639 -0.3496  0.1806 -0.2941
    1DIPC   PO4 5102  15.481   6.877   7.372  0.3018  0.4684 -0.1457
    1DIPC   GL1 5103  15.808   6.767   7.211 -0.2592  0.2212  0.1400
    1DIPC   GL2 5104  15.921   7.112   7.247  0.0452  0.0340  0.2435
    1DIPC   C1A 5105  15.947   6.574   6.825  0.1416  0.3254 -0.0134
    1DIPC   D2A 5106  16.076   6.278   6.445  0.1779 -0.0554 -0.0473
    1DIPC   D3A 5107  15.885   6.149   6.138  0.0271 -0.0695  0.0799
    1DIPC   C4A 5108  15.835   6.548   5.921  0.2902  0.1088 -0.1940
    1DIPC   C1B 5109  16.087   7.017   6.849  0.2402 -0.0152  0.0105
    1DIPC   D2B 5110  16.025   6.776   6.368  0.0235 -0.1983  0.0858
    1DIPC   D3B 5111  16.204   7.120   6.174 -0.1237 -0.0541 -0.6274
    1DIPC   C4B 5112  15.924   7.420   6.005 -0.0704  0.3963  0.0216
    1DIPC   NC3 5113  19.266   7.827   6.926 -0.0445 -0.2752  0.1341
    1DIPC   PO4 5114  19.763   7.666   6.900  0.1812  0.0700  0.0659
    1DIPC   GL1 5115  20.040   7.979   6.588  0.5311 -0.0345 -0.0853
    1DIPC   GL2 5116  20.179   8.268   6.661  0.0800  0.1230 -0.2492
    1DIPC   C1A 5117  20.248   7.913   6.168 -0.3192  0.2949 -0.0765
    1DIPC   D2A 5118  20.670   7.937   6.009 -0.3002  0.0251 -0.0053
    1DIPC   D3A 5119  20.444   7.952   5.659  0.0936 -0.2836  0.1627
    1DIPC   C4A 5120  20.798   8.138   5.506 -0.0705 -0.4754 -0.0053
    1DIPC   C1B 5121  20.572   8.058   6.526 -0.2320  0.1122  0.1884
    1DIPC   D2B 5122  20.906   7.714   6.498  0.2769  0.0898 -0.0252
    1DIPC   D3B 5123  21.075   8.128   6.327 -0.1193  0.2128 -0.0285
    1DIPC   C4B 5124  21.097   8.248   5.993  0.2445 -0.1018 -0.0427
    1DIPC   NC3 5125   9.906   9.977   7.470  0.0799  0.0132 -0.1821
    1DIPC   PO4 5126   9.946  10.324   7.559 -0.3536 -0.0422  0.3501
    1DIPC   GL1 5127   9.937  10.420   7.152  0.1291  0.2374 -0.2048
    1DIPC   GL2 5128  10.227  10.268   7.127 -0.1402 -0.2930  0.1895
    1DIPC   C1A 5129   9.760  10.406   6.734  0.0837  0.2242  0.3442
    1DIPC   D2A 5130   9.640  10.010   6.411  0.4494 -0.1036  0.0382
    1DIPC   D3A 5131   9.294  10.114   6.071  0.2616  0.1060 -0.2351
    1DIPC   C4A 5132   9.310   9.767   5.715  0.0975 -0.2728  0.1924
    1DIPC   C1B 5133  10.137   9.976   6.790  0.2266 -0.1669  0.1417
    1DIPC   D2B 5134  10.153   9.775   6.399 -0.0032 -0.0353 -0.0496
    1DIPC   D3B 5135   9.802   9.587   6.224 -0.0339 -0.0048 -0.0478
    1DIPC   C4B 5136   9.773   9.465   5.758 -0.2081 -0.0739 -0.0203
    1DIPC   NC3 5137  23.340  17.619   6.742  0.0932  0.4185  0.2917
    1DIPC   PO4 5138  23.709  17.663   6.413  0.4074 -0.2212 -0.3655
    1DIPC   GL1 5139  23.725  17.566   5.964 -0.2521 -0.1211  0.0474
    1DIPC   GL2 5140  23.985  17.626   5.772 -0.2655  0.2166 -0.1986
    1DIPC   C1A 5141  23.602  17.288   5.619 -0.1905 -0.2686 -0.0191
    1DIPC   D2A 5142  23.686  17.235   5.202 -0.3164 -0.1562 -0.0005
    1DIPC   D3A 5143  23.588  16.760   5.266 -0.3460 -0.1229 -0.0705
    1DIPC   C4A 5144  23.908  16.442   5.426 -0.2265 -0.1601  0.0580
    1DIPC   C1B 5145  23.789  17.761   5.396 -0.0878  0.1461  0.1815
    1DIPC   D2B 5146  23.667  17.858   4.928 -0.3209  0.1359 -0.3058
    1DIPC   D3B 5147  23.596  17.486   4.556  0.2732 -0.1166  0.0500
    1DIPC   C4B 5148  23.799  17.159   4.328 -0.2138 -0.2468 -0.0560
    1DIPC   NC3 5149   0.322  13.569   6.556 -0.0680  0.1708 -0.0885
    1DIPC   PO4 5150   0.098  13.811   6.315 -0.0484  0.2934  0.0222
    1DIPC   GL1 5151   0.280  13.877   5.898 -0.1962  0.1548 -0.0673
    1DIPC   GL2 5152   0.535  14.017   5.800  0.1413 -0.1407  0.0960
    1DIPC   C1A 5153   0.138  14.258   5.669  0.0392  0.1235  0.0825
    1DIPC   D2A 5154  -0.191  14.511   5.653 -0.0659  0.1028  0.0765
    1DIPC   D3A 5155  -0.205  14.929   5.707 -0.0544  0.3441  0.1214
    1DIPC   C4A 5156  -0.282  15.112   5.308 -0.2717  0.5225 -0.0715
    1DIPC   C1B 5157   0.446  13.921   5.420  0.0006  0.0872 -0.1587
    1DIPC   D2B 5158   0.700  13.743   5.073  0.3810 -0.0479 -0.0327
    1DIPC   D3B 5159   0.715  13.728   4.586 -0.2476  0.0542 -0.1028
    1DIPC   C4B 5160   1.105  13.653   4.242  0.0559 -0.1267 -0.1533
    1DIPC   NC3 5161   5.986   0.293   6.922  0.1420 -0.0889 -0.1170
    1DIPC   PO4 5162   5.571  -0.017   7.178 -0.5062 -0.0528  0.1059
    1DIPC   GL1 5163   5.373  -0.128   6.786 -0.1852 -0.0239  0.0941
    1DIPC   GL2 5164   5.130  -0.423   6.683  0.0282 -0.2088  0.0290
    1DIPC   C1A 5165   5.459  -0.209   6.311 -0.1807 -0.1745 -0.0572
    1DIPC   D2A 5166   5.669  -0.216   5.997 -0.0651  0.0689 -0.0981
    1DIPC   D3A 5167   5.677  -0.250   5.509 -0.3098  0.0454 -0.1350
    1DIPC   C4A 5168   6.011  -0.297   5.314 -0.1226  0.0382 -0.2358
    1DIPC   C1B 5169   5.320  -0.677   6.371  0.1591  0.1132  0.1353
    1DIPC   D2B 5170   5.717  -0.643   6.240 -0.1142  0.2483 -0.0837
    1DIPC   D3B 5171   5.614  -0.990   6.047 -0.0386 -0.1616  0.0250
    1DIPC   C4B 5172   5.362  -1.254   6.100  0.0099  0.0185  0.2108
    1DIPC   NC3 5173  19.239   0.528   7.301 -0.3522  0.0683  0.0405
    1DIPC   PO4 5174  19.062   0.917   7.133 -0.0462  0.1631  0.1064
    1DIPC   GL1 5175  19.173   0.802   6.768 -0.1461 -0.0881 -0.0857
    1DIPC   GL2 5176  19.180   0.547   6.784 -0.0128  0.0968 -0.2933
    1DIPC   C1A 5177  19.207   0.746   6.348  0.1687 -0.2189 -0.3004
    1DIPC   D2A 5178  19.599   0.484   6.163  0.2716 -0.0565  0.0389
    1DIPC   D3A 5179  19.451   0.372   5.821 -0.1145 -0.1176 -0.0308
    1DIPC   C4A 5180  19.762   0.222   5.475  0.0223 -0.1453 -0.1034
    1DIPC   C1B 5181  19.339   0.291   6.524  0.3880 -0.0056  0.3515
    1DIPC   D2B 5182  19.340  -0.094   6.176  0.2086  0.2165  0.1257
    1DIPC   D3B 5183  19.641  -0.149   5.818 -0.1216  0.3511  0.2670
    1DIPC   C4B 5184  19.638  -0.235   5.432  0.1530 -0.0259  0.2668
    1DIPC   NC3 5185  20.835   3.961   7.086 -0.1353 -0.1621  0.0017
    1DIPC   PO4 5186  21.070   4.416   7.043  0.1822  0.4133  0.2639
    1DIPC   GL1 5187  20.753   4.440   6.737  0.0521  0.0050  0.1301
    1DIPC   GL2 5188  20.870   4.195   6.557 -0.0415 -0.0960  0.0484
    1DIPC   C1A 5189  20.517   4.544   6.283  0.0827 -0.2404 -0.1203
    1DIPC   D2A 5190  20.116   4.404   6.034  0.0955  0.1101  0.1881
    1DIPC   D3A 5191  20.337   4.330   5.697 -0.1707 -0.1923  0.1185
    1DIPC   C4A 5192  20.052   4.166   5.545  0.0986 -0.1126  0.2576
    1DIPC   C1B 5193  20.972   4.548   6.246  0.2782  0.1537  0.1278
    1DIPC   D2B 5194  21.164   4.317   5.904 -0.0819 -0.0516  0.0440
    1DIPC   D3B 5195  20.965   4.110   5.572 -0.0018 -0.1023 -0.2628
    1DIPC   C4B 5196  20.972   3.597   5.632 -0.1443 -0.2209 -0.2867
    1DIPC   NC3 5197   0.322  12.808   6.754  0.0552 -0.0553 -0.2404
    1DIPC   PO4 5198   0.453  12.640   6.285  0.3111 -0.2028  0.1989
    1DIPC   GL1 5199   0.675  12.448   5.912 -0.0379 -0.1716  0.0297
    1DIPC   GL2 5200   0.706  12.657   5.701 -0.0414  0.0213  0.0733
    1DIPC   C1A 5201   0.496  12.220   5.543 -0.1022 -0.2129  0.1283
    1DIPC   D2A 5202   0.233  12.092   5.217  0.0390 -0.2735  0.1936
    1DIPC   D3A 5203   0.451  12.153   4.925  0.2819  0.1704  0.2212
    1DIPC   C4A 5204   0.470  12.371   4.502  0.0702 -0.3425  0.1451
    1DIPC   C1B 5205   0.678  12.577   5.266  0.0383 -0.0170  0.0033
    1DIPC   D2B 5206   0.568  12.629   4.914 -0.0717  0.0290 -0.0109
    1DIPC   D3B 5207   0.839  12.823   4.691 -0.0458 -0.2365  0.0290
    1DIPC   C4B 5208   0.952  12.670   4.309 -0.0066  0.2667 -0.0130
    1DIPC   NC3 5209   0.409  12.108   6.367  0.1021  0.3319 -0.1230
    1DIPC   PO4 5210   0.205  11.820   6.095  0.0942  0.3405  0.0824
    1DIPC   GL1 5211   0.233  11.862   5.677 -0.1222 -0.0371  0.2414
    1DIPC   GL2 5212   0.305  11.610   5.432  0.0827 -0.3667  0.0454
    1DIPC   C1A 5213  -0.166  11.775   5.444 -0.0556  0.3143 -0.0752
    1DIPC   D2A 5214  -0.591  11.614   5.248 -0.1598  0.0303 -0.2044
    1DIPC   D3A 5215  -0.328  11.574   4.989 -0.2584  0.4086 -0.2077
    1DIPC   C4A 5216  -0.028  11.798   4.787  0.1156  0.0005  0.0747
    1DIPC   C1B 5217   0.081  11.372   5.094 -0.0319  0.1921  0.2631
    1DIPC   D2B 5218  -0.141  11.167   4.714 -0.2544 -0.0461  0.0275
    1DIPC   D3B 5219  -0.101  11.440   4.392 -0.0635 -0.1155 -0.1577
    1DIPC   C4B 5220   0.127  11.470   3.925  0.0826  0.0991  0.3625
    1DIPC   NC3 5221   7.484  16.303   6.721 -0.0158  0.0422 -0.1424
    1DIPC   PO4 5222   7.495  16.741   6.660  0.3241 -0.1970 -0.2723
    1DIPC   GL1 5223   7.622  16.741   6.183 -0.0186  0.0436  0.0592
    1DIPC   GL2 5224   7.902  16.837   5.988  0.1443 -0.0536 -0.3204
    1DIPC   C1A 5225   7.575  16.988   5.718 -0.3773 -0.1131  0.3585
    1DIPC   D2A 5226   7.451  17.208   5.357 -0.0102  0.1053  0.0206
    1DIPC   D3A 5227   7.116  17.468   5.599 -0.1977  0.2782  0.1981
    1DIPC   C4A 5228   6.899  17.856   5.714  0.1800 -0.0616 -0.3412
    1DIPC   C1B 5229   8.123  16.441   5.965  0.2167 -0.0626 -0.1057
    1DIPC   D2B 5230   8.456  16.230   6.175  0.2634  0.1502  0.1915
    1DIPC   D3B 5231   8.189  15.945   6.006  0.3293  0.0187 -0.3309
    1DIPC   C4B 5232   8.196  16.013   5.559 -0.0372 -0.2698 -0.1088
    1DIPC   NC3 5233   8.144  10.741   7.190  0.1256  0.0191 -0.0963
    1DIPC   PO4 5234   8.456  10.405   7.263 -0.1420  0.3816  0.0126
    1DIPC   GL1 5235   8.502  10.352   6.861  0.1324  0.1476 -0.1487
    1DIPC   GL2 5236   8.789  10.110   6.854 -0.3973  0.1353  0.0660
    1DIPC   C1A 5237   8.593  10.352   6.471 -0.0216 -0.0906 -0.3019
    1DIPC   D2A 5238   8.748  10.128   6.109  0.1592 -0.1295 -0.4118
    1DIPC   D3A 5239   8.926   9.818   6.405  0.0111  0.0265 -0.0810
    1DIPC   C4A 5240   9.279   9.686   6.298 -0.1650  0.0976 -0.0077
    1DIPC   C1B 5241   8.324   9.987   6.649  0.0095 -0.2458  0.0649
    1DIPC   D2B 5242   8.127  10.259   6.515  0.0050  0.1073  0.3527
    1DIPC   D3B 5243   8.272  10.220   6.118 -0.0639 -0.1475  0.0391
    1DIPC   C4B 5244   7.947  10.062   5.837 -0.3205  0.2230 -0.0709
    1DIPC   NC3 5245  25.212  17.524   6.079  0.0110 -0.0622 -0.1815
    1DIPC   PO4 5246  25.760  17.546   6.131  0.0267 -0.0225 -0.1808
    1DIPC   GL1 5247  25.709  17.665   5.711  0.1654 -0.1700 -0.0819
    1DIPC   GL2 5248  25.382  17.676   5.642  0.0882 -0.0989  0.0947
    1DIPC   C1A 5249  25.805  17.486   5.332  0.1979  0.1010 -0.1472
    1DIPC   D2A 5250  25.821  17.165   5.019 -0.1248 -0.1055  0.1234
    1DIPC   D3A 5251  25.828  17.380   4.633 -0.2645 -0.0020 -0.0151
    1DIPC   C4A 5252  25.800  17.216   4.266  0.2080  0.1635  0.2352
    1DIPC   C1B 5253  25.289  17.307   5.395 -0.1935 -0.0340 -0.0712
    1DIPC   D2B 5254  25.414  17.410   4.953  0.0420  0.3197  0.0408
    1DIPC   D3B 5255  25.486  17.828   5.200 -0.2907  0.0996 -0.0549
    1DIPC   C4B 5256  25.900  17.971   5.322 -0.2383  0.2081  0.3711
    1DIPC   NC3 5257  11.293   2.350   7.646 -0.1929 -0.1760 -0.0922
    1DIPC   PO4 5258  11.496   2.449   7.292  0.2262  0.0637  0.1069
    1DIPC   GL1 5259  11.296   2.716   6.959 -0.0932  0.0623  0.0433
    1DIPC   GL2 5260  11.259   2.998   6.807 -0.2061  0.1272 -0.1587
    1DIPC   C1A 5261  11.315   2.570   6.461  0.0706 -0.4488 -0.0249
    1DIPC   D2A 5262  11.561   2.629   6.127  0.1856 -0.1431  0.0751
    1DIPC   D3A 5263  11.785   2.959   6.123 -0.2978  0.0155 -0.3188
    1DIPC   C4A 5264  12.038   2.959   5.664  0.1340 -0.2869 -0.1772
    1DIPC   C1B 5265  11.137   3.415   6.719  0.3970  0.2065 -0.1099
    1DIPC   D2B 5266  11.399   3.728   6.700 -0.1611  0.3654  0.1481
    1DIPC   D3B 5267  11.242   3.661   6.287  0.0233  0.2325  0.3298
    1DIPC   C4B 5268  11.396   3.720   5.904 -0.1518  0.2392  0.0771
    1DIPC   NC3 5269   0.251  12.867   5.834 -0.1263 -0.1502 -0.2017
    1DIPC   PO4 5270  -0.135  12.666   5.665 -0.3168  0.0334 -0.0093
    1DIPC   GL1 5271   0.142  12.667   5.377 -0.2621  0.2660  0.3081
    1DIPC   GL2 5272   0.275  12.916   5.277  0.1255 -0.0811 -0.1060
    1DIPC   C1A 5273   0.080  12.508   4.925 -0.0070 -0.3654 -0.3434
    1DIPC   D2A 5274  -0.007  12.294   4.547 -0.2849  0.0081  0.1598
    1DIPC   D3A 5275  -0.332  12.495   4.221 -0.0624 -0.1661  0.0582
    1DIPC   C4A 5276  -0.256  12.874   4.007 -0.1860  0.1930 -0.2312
    1DIPC   C1B 5277   0.204  13.017   4.859 -0.3836 -0.3435 -0.2580
    1DIPC   D2B 5278  -0.223  13.181   4.651  0.2309  0.1320  0.2286
    1DIPC   D3B 5279  -0.364  13.694   4.867  0.1150 -0.4418  0.0227
    1DIPC   C4B 5280  -0.659  13.954   4.643  0.1182 -0.1105  0.2886
    1DIPC   NC3 5281   2.702  23.584   6.305 -0.1216 -0.0554  0.2278
    1DIPC   PO4 5282   2.840  23.214   6.170  0.1389 -0.0016 -0.1358
    1DIPC   GL1 5283   2.679  23.502   5.756 -0.0931 -0.0983  0.1373
    1DIPC   GL2 5284   2.640  23.334   5.510  0.1469  0.0923  0.1742
    1DIPC   C1A 5285   2.609  23.957   5.663 -0.2656  0.0010  0.1212
    1DIPC   D2A 5286   2.709  24.378   5.431  0.0411 -0.1115  0.1975
    1DIPC   D3A 5287   2.568  24.683   5.180 -0.2830  0.4858 -0.1169
    1DIPC   C4A 5288   2.129  24.654   5.153 -0.0921  0.1386 -0.0306
    1DIPC   C1B 5289   2.442  23.618   5.276  0.2041 -0.1947  0.1857
    1DIPC   D2B 5290   2.213  23.725   4.879  0.1229 -0.5274 -0.0380
    1DIPC   D3B 5291   2.000  23.345   5.099  0.2430 -0.2619 -0.0074
    1DIPC   C4B 5292   1.627  23.347   4.982 -0.2367 -0.1235 -0.2740
    1DIPC   NC3 5293   2.260   1.457   6.724 -0.2213 -0.0379 -0.0361
    1DIPC   PO4 5294   2.561   1.727   6.594  0.0079 -0.2034 -0.1410
    1DIPC   GL1 5295   2.440   1.689   6.175  0.1287  0.0691 -0.2438
    1DIPC   GL2 5296   2.207   1.435   6.225 -0.0873  0.0319 -0.0528
    1DIPC   C1A 5297   2.555   1.367   5.874  0.1559  0.0239  0.0994
    1DIPC   D2A 5298   2.892   1.175   5.608  0.1554 -0.0974 -0.0140
    1DIPC   D3A 5299   2.778   1.071   5.159 -0.3412 -0.0545 -0.1812
    1DIPC   C4A 5300   2.346   1.065   5.207 -0.4693  0.0515 -0.2084
    1DIPC   C1B 5301   2.018   1.343   5.904  0.0518 -0.0249 -0.0070
    1DIPC   D2B 5302   1.971   1.309   5.507 -0.2687 -0.2173  0.0971
    1DIPC   D3B 5303   1.849   0.918   5.194  0.1084  0.0022 -0.2394
    1DIPC   C4B 5304   2.065   0.755   4.874  0.2076  0.3492  0.0692
    1DIPC   NC3 5305  24.922  26.555   6.922 -0.0459 -0.2942  0.2401
    1DIPC   PO4 5306  25.397  26.252   6.672  0.2285  0.2075  0.1386
    1DIPC   GL1 5307  25.325  26.396   6.274  0.0060 -0.2452  0.0687
    1DIPC   GL2 5308  25.428  26.240   5.933 -0.1228  0.1453 -0.3596
    1DIPC   C1A 5309  25.027  26.557   5.946 -0.0726  0.3055  0.0640
    1DIPC   D2A 5310  24.803  26.853   5.786  0.2582 -0.1932  0.1730
    1DIPC   D3A 5311  24.953  26.855   5.367 -0.1031 -0.2005  0.2142
    1DIPC   C4A 5312  24.660  27.050   5.036  0.3785 -0.2599 -0.0371
    1DIPC   C1B 5313  25.580  26.115   5.490  0.2942 -0.1247  0.2139
    1DIPC   D2B 5314  25.667  25.835   5.217 -0.4457 -0.2241  0.0691
    1DIPC   D3B 5315  25.995  26.155   5.155 -0.3583 -0.2118 -0.2798
    1DIPC   C4B 5316  26.190  26.181   5.610 -0.0895 -0.3122  0.0641
    1DIPC   NC3 5317  27.930  18.202   6.383  0.0254 -0.2851  0.1295
    1DIPC   PO4 5318  28.035  17.870   5.967  0.1471 -0.1887  0.1189
    1DIPC   GL1 5319  28.116  17.673   5.575 -0.0401  0.1123  0.3073
    1DIPC   GL2 5320  27.938  17.373   5.473  0.1591  0.1722  0.3620
    1DIPC   C1A 5321  28.394  17.541   5.214  0.0975 -0.2053 -0.0476
    1DIPC   D2A 5322  28.229  17.259   5.000 -0.1726 -0.1254 -0.1214
    1DIPC   D3A 5323  28.119  17.610   4.752 -0.1179  0.2374 -0.1932
    1DIPC   C4A 5324  27.856  17.477   4.449  0.0559 -0.0256  0.2920
    1DIPC   C1B 5325  27.734  17.436   5.085  0.3528  0.2830  0.0253
    1DIPC   D2B 5326  27.552  17.703   4.786  0.0108  0.0413 -0.0553
    1DIPC   D3B 5327  27.171  17.883   4.478  0.0832 -0.2266  0.0314
    1DIPC   C4B 5328  26.745  17.777   4.654  0.0793  0.1295 -0.0004
    1DIPC   NC3 5329  26.234  18.093   6.331 -0.2237 -0.2397  0.0573
    1DIPC   PO4 5330  26.497  17.782   6.340  0.0619 -0.0010 -0.0973
    1DIPC   GL1 5331  26.322  17.812   5.878 -0.0311  0.0458  0.3398
    1DIPC   GL2 5332  26.129  18.039   5.835 -0.0657  0.0760  0.1330
    1DIPC   C1A 5333  26.398  17.757   5.490 -0.1977 -0.0860  0.0462
    1DIPC   D2A 5334  26.705  17.580   5.219  0.2048  0.1094  0.3867
    1DIPC   D3A 5335  26.742  17.246   5.483 -0.1366  0.0081  0.2061
    1DIPC   C4A 5336  27.011  16.953   5.530  0.0147  0.1942 -0.1234
    1DIPC   C1B 5337  26.417  18.267   5.633  0.0856 -0.0617  0.2383
    1DIPC   D2B 5338  26.229  18.549   5.434 -0.2992  0.0016 -0.0633
    1DIPC   D3B 5339  25.852  18.542   5.721 -0.1947 -0.0914 -0.0823
    1DIPC   C4B 5340  25.619  18.171   5.607  0.0772 -0.0454  0.0069
    1DIPC   NC3 5341   4.632   0.531   7.148  0.3492  0.1058  0.2071
    1DIPC   PO4 5342   4.518   0.350   6.669  0.1950 -0.1509  0.0319
    1DIPC   GL1 5343   4.421   0.030   6.439  0.0131 -0.0845 -0.0614
    1DIPC   GL2 5344   4.635   0.080   6.206  0.0040 -0.0778  0.0014
    1DIPC   C1A 5345   4.239  -0.269   6.223 -0.2315 -0.2584  0.0422
    1DIPC   D2A 5346   4.422  -0.647   6.128 -0.0909  0.0932 -0.2877
    1DIPC   D3A 5347   4.669  -0.363   5.711 -0.1264 -0.1082 -0.3183
    1DIPC   C4A 5348   4.961  -0.664   5.448 -0.0562 -0.1656  0.2226
    1DIPC   C1B 5349   4.856  -0.339   6.266 -0.1183  0.0891  0.2274
    1DIPC   D2B 5350   5.157  -0.503   5.899  0.1431  0.2084  0.2178
    1DIPC   D3B 5351   5.120  -0.030   5.990  0.2732  0.2675  0.5461
    1DIPC   C4B 5352   4.832   0.183   5.737 -0.0579 -0.0526  0.4060
    1DIPC   NC3 5353  26.537  24.156   6.818 -0.2739  0.2061  0.1696
    1DIPC   PO4 5354  26.306  24.318   6.490  0.0837 -0.2506 -0.0404
    1DIPC   GL1 5355  26.065  24.535   6.144  0.2709  0.1737  0.3758
    1DIPC   GL2 5356  26.246  24.788   6.120 -0.2512 -0.0032 -0.2274
    1DIPC   C1A 5357  25.944  24.383   5.745  0.1767  0.0101  0.0742
    1DIPC   D2A 5358  25.543  24.071   5.573 -0.2959  0.1947 -0.0330
    1DIPC   D3A 5359  25.971  24.126   5.377 -0.1742 -0.2533  0.2283
    1DIPC   C4A 5360  26.097  23.763   5.106  0.0556  0.4122  0.0477
    1DIPC   C1B 5361  26.315  24.720   5.709  0.0008  0.0834  0.0863
    1DIPC   D2B 5362  26.351  24.439   5.441 -0.0417 -0.2317  0.2170
    1DIPC   D3B 5363  26.777  24.319   5.349 -0.1821  0.2131  0.1976
    1DIPC   C4B 5364  26.871  23.864   5.271 -0.1099 -0.2511  0.0680
    1DIPC   NC3 5365   3.593   5.533   6.938  0.0246 -0.0592 -0.1601
    1DIPC   PO4 5366   4.023   5.488   7.130 -0.2859 -0.0174 -0.0401
    1DIPC   GL1 5367   4.062   5.371   6.677  0.1441 -0.0085 -0.2791
    1DIPC   GL2 5368   4.299   5.269   6.555  0.1296  0.3049 -0.2027
    1DIPC   C1A 5369   3.759   5.213   6.206  0.1729  0.2201 -0.1259
    1DIPC   D2A 5370   3.386   5.069   5.818 -0.0906 -0.0409 -0.1406
    1DIPC   D3A 5371   3.057   5.246   5.938 -0.1033  0.0596 -0.0194
    1DIPC   C4A 5372   2.893   4.877   5.946  0.1190 -0.3072  0.0377
    1DIPC   C1B 5373   4.495   5.374   6.184 -0.3565  0.0576  0.1177
    1DIPC   D2B 5374   4.712   5.381   5.771  0.1387 -0.3130  0.3273
    1DIPC   D3B 5375   5.058   5.163   6.079 -0.1932 -0.3579  0.1914
    1DIPC   C4B 5376   5.368   4.877   5.883 -0.2276 -0.2898 -0.3837
    1DIPC   NC3 5377  23.255  23.885   6.790 -0.2128  0.0591 -0.0019
    1DIPC   PO4 5378  23.472  23.549   6.541  0.2048 -0.0125  0.2443
    1DIPC   GL1 5379  23.677  23.487   6.135  0.2886  0.2469  0.0084
    1DIPC   GL2 5380  23.921  23.244   6.093 -0.0371  0.1205 -0.0557
    1DIPC   C1A 5381  23.463  23.335   5.711 -0.0026 -0.1542  0.1662
    1DIPC   D2A 5382  23.625  23.436   5.248  0.0725  0.0806 -0.1916
    1DIPC   D3A 5383  23.417  23.138   4.995  0.4401  0.1779 -0.1456
    1DIPC   C4A 5384  23.361  22.965   4.642 -0.0606  0.0456  0.0330
    1DIPC   C1B 5385  23.421  23.039   6.083 -0.3388  0.1502 -0.1696
    1DIPC   D2B 5386  23.111  22.977   5.762 -0.2111  0.0798 -0.2405
    1DIPC   D3B 5387  23.112  22.730   5.352  0.2614  0.1228  0.0566
    1DIPC   C4B 5388  23.006  22.770   4.906  0.1240 -0.0803 -0.2871
    1DIPC   NC3 5389  25.736   7.588   6.486 -0.2366  0.1403 -0.2379
    1DIPC   PO4 5390  25.859   7.910   6.211 -0.1902 -0.2398  0.0199
    1DIPC   GL1 5391  25.693   8.081   5.883  0.0283  0.1986  0.0105
    1DIPC   GL2 5392  25.658   8.382   5.809  0.0810 -0.2443 -0.0092
    1DIPC   C1A 5393  25.426   7.988   5.523 -0.1624 -0.2336 -0.3132
    1DIPC   D2A 5394  25.266   8.076   5.069  0.3108  0.3585  0.0048
    1DIPC   D3A 5395  25.181   7.857   4.784  0.0423  0.3647 -0.1952
    1DIPC   C4A 5396  25.524   7.825   4.571  0.3541 -0.1652  0.0231
    1DIPC   C1B 5397  25.418   8.507   5.487  0.3862  0.3170 -0.2510
    1DIPC   D2B 5398  25.357   8.561   5.067 -0.4128 -0.2837  0.0371
    1DIPC   D3B 5399  25.678   8.798   5.093  0.2022 -0.0909 -0.0742
    1DIPC   C4B 5400  25.475   9.246   4.910  0.2449 -0.1359  0.0446
    1DIPC   NC3 5401   1.908  25.612   6.405 -0.1323  0.1537  0.2202
    1DIPC   PO4 5402   1.976  26.029   6.583 -0.1280 -0.0464 -0.0440
    1DIPC   GL1 5403   2.088  26.180   6.184 -0.0941  0.0374 -0.1370
    1DIPC   GL2 5404   1.896  25.967   5.991 -0.0201 -0.0321 -0.2102
    1DIPC   C1A 5405   2.057  26.344   5.675 -0.2117  0.2198  0.1521
    1DIPC   D2A 5406   2.206  26.637   5.420 -0.2329  0.1373 -0.2555
    1DIPC   D3A 5407   1.887  26.795   5.396 -0.2351  0.2186 -0.1038
    1DIPC   C4A 5408   1.544  26.621   5.596  0.2541  0.1130 -0.1560
    1DIPC   C1B 5409   1.464  26.207   5.881 -0.1755 -0.3525 -0.1601
    1DIPC   D2B 5410   1.208  26.258   5.472 -0.4421  0.0269  0.0864
    1DIPC   D3B 5411   1.241  26.075   5.089 -0.0420 -0.2416  0.1525
    1DIPC   C4B 5412   1.680  25.853   4.968 -0.0652 -0.1869  0.1724
    1DIPC   NC3 5413   5.505  20.432   5.737 -0.1653 -0.0042  0.1085
    1DIPC   PO4 5414   5.725  20.604   5.374 -0.1131  0.3211  0.1612
    1DIPC   GL1 5415   5.622  20.733   4.966 -0.1808  0.2068 -0.1169
    1DIPC   GL2 5416   5.301  20.771   4.909  0.1970 -0.2041  0.0024
    1DIPC   C1A 5417   5.687  20.763   4.575  0.0921 -0.2091 -0.1200
    1DIPC   D2A 5418   5.947  20.683   4.261  0.1625 -0.0232  0.1550
    1DIPC   D3A 5419   6.348  20.425   4.156  0.0406 -0.1647  0.1442
    1DIPC   C4A 5420   6.442  19.944   4.310 -0.0162 -0.2712  0.0334
    1DIPC   C1B 5421   5.237  20.416   4.620 -0.2492  0.2386 -0.0756
    1DIPC   D2B 5422   5.340  20.250   4.199 -0.1490 -0.3122 -0.0008
    1DIPC   D3B 5423   5.521  19.837   4.375 -0.3368  0.0336  0.2744
    1DIPC   C4B 5424   5.894  19.696   4.473 -0.2561  0.3616  0.1360
    1DIPC   NC3 5425   8.280  18.884   6.246 -0.0649  0.1179 -0.0145
    1DIPC   PO4 5426   7.951  18.536   6.091  0.0954 -0.0232 -0.1779
    1DIPC   GL1 5427   8.005  18.368   5.781 -0.0960  0.1301 -0.0246
    1DIPC   GL2 5428   7.619  18.301   5.649 -0.1033 -0.0476  0.2433
    1DIPC   C1A 5429   8.055  18.547   5.333 -0.0229 -0.3009 -0.2877
    1DIPC   D2A 5430   7.849  18.608   4.953 -0.0219  0.1672  0.2602
    1DIPC   D3A 5431   8.053  18.558   4.570  0.1422 -0.2676  0.0730
    1DIPC   C4A 5432   7.810  18.822   4.276 -0.0688  0.0410  0.1016
    1DIPC   C1B 5433   7.611  18.767   5.419 -0.0644 -0.3086 -0.0481
    1DIPC   D2B 5434   7.486  18.948   5.099  0.1436 -0.2479 -0.1552
    1DIPC   D3B 5435   7.257  18.654   4.924  0.0687  0.2514  0.1376
    1DIPC   C4B 5436   7.068  18.541   4.519  0.0340 -0.0357 -0.0130
    1DIPC   NC3 5437  27.656  15.022   5.682  0.2493  0.1031  0.0360
    1DIPC   PO4 5438  27.666  15.414   5.776  0.0748  0.0790  0.0223
    1DIPC   GL1 5439  27.780  15.401   5.395  0.0519  0.1230  0.1382
    1DIPC   GL2 5440  27.559  15.512   5.245 -0.0101  0.5304  0.2187
    1DIPC   C1A 5441  28.119  15.365   5.007  0.1318 -0.2823 -0.0902
    1DIPC   D2A 5442  28.572  15.532   5.065 -0.2442 -0.1842  0.2334
    1DIPC   D3A 5443  28.459  15.453   4.609 -0.3921  0.0391  0.2667
    1DIPC   C4A 5444  28.354  15.047   4.428  0.1514 -0.3657 -0.0844
    1DIPC   C1B 5445  27.638  15.556   4.853 -0.4313  0.0438 -0.0964
    1DIPC   D2B 5446  27.634  15.866   4.608  0.1171 -0.0122  0.1000
    1DIPC   D3B 5447  27.610  15.615   4.348 -0.1328 -0.2217 -0.2852
    1DIPC   C4B 5448  28.047  15.450   4.312  0.1887 -0.1874 -0.1310
    1DIPC   NC3 5449  25.990  27.009   7.362  0.3000  0.0208 -0.0096
    1DIPC   PO4 5450  25.744  27.100   7.030 -0.2222 -0.2753  0.1933
    1DIPC   GL1 5451  25.752  27.185   6.643  0.1374 -0.0209 -0.2562
    1DIPC   GL2 5452  25.430  27.306   6.565  0.3451 -0.0253 -0.1429
    1DIPC   C1A 5453  25.815  27.301   6.227  0.1034  0.0520 -0.1837
    1DIPC   D2A 5454  25.654  27.486   5.859  0.0099 -0.2313  0.0827
    1DIPC   D3A 5455  25.747  27.035   5.729 -0.1731 -0.1368 -0.1534
    1DIPC   C4A 5456  25.395  26.745   5.605  0.1645  0.0011 -0.0894
    1DIPC   C1B 5457  25.383  27.667   6.227 -0.2097  0.3946 -0.1015
    1DIPC   D2B 5458  25.103  27.698   5.897  0.3210  0.1841 -0.2233
    1DIPC   D3B 5459  25.256  27.602   5.479 -0.0571  0.1283 -0.2209
    1DIPC   C4B 5460  25.095  27.518   5.055 -0.6309 -0.0295  0.0632
    1DIPC   NC3 5461   5.572  22.662   5.990 -0.4016  0.1415 -0.0500
    1DIPC   PO4 5462   5.122  22.765   5.951  0.1526  0.3169 -0.0262
    1DIPC   GL1 5463   5.211  22.882   5.565  0.1061  0.3755 -0.0356
    1DIPC   GL2 5464   5.368  22.533   5.503  0.0932 -0.2662  0.1032
    1DIPC   C1A 5465   5.291  22.942   5.167 -0.0446 -0.1167  0.0685
    1DIPC   D2A 5466   5.404  22.947   4.714  0.2473  0.0275 -0.1582
    1DIPC   D3A 5467   5.285  23.397   4.687 -0.2277 -0.2216  0.2355
    1DIPC   C4A 5468   4.951  23.361   4.398 -0.1051  0.1403  0.2130
    1DIPC   C1B 5469   5.156  22.481   5.004 -0.3979  0.0685  0.0585
    1DIPC   D2B 5470   5.193  22.506   4.504 -0.1973  0.1355 -0.0028
    1DIPC   D3B 5471   5.530  22.229   4.293  0.0352 -0.2116  0.1598
    1DIPC   C4B 5472   5.953  21.944   4.262  0.0284 -0.3083 -0.2300
    1DIPC   NC3 5473  10.105   0.500   7.751  0.0440 -0.0900  0.2485
    1DIPC   PO4 5474  10.485   0.659   7.574  0.0990 -0.0727  0.0683
    1DIPC   GL1 5475  10.544   0.664   7.111  0.0172  0.1350  0.0339
    1DIPC   GL2 5476  10.883   0.752   7.135  0.3409  0.0541 -0.2621
    1DIPC   C1A 5477  10.365   0.450   6.772 -0.2130 -0.1159 -0.2838
    1DIPC   D2A 5478  10.232   0.685   6.407 -0.0091 -0.3454  0.0554
    1DIPC   D3A 5479  10.361   1.009   6.178  0.0210  0.1053  0.1715
    1DIPC   C4A 5480  10.363   1.006   5.764 -0.2688 -0.2930 -0.2029
    1DIPC   C1B 5481  10.922   0.711   6.676 -0.1684 -0.1233  0.2152
    1DIPC   D2B 5482  10.734   0.725   6.253 -0.0817 -0.2087  0.0249
    1DIPC   D3B 5483  10.538   0.312   6.336 -0.0901 -0.1588 -0.2397
    1DIPC   C4B 5484  10.602   0.083   6.023  0.1779  0.2157  0.2061
    1DIPC   NC3 5485  10.024  23.434   6.098  0.0522  0.2353  0.0342
    1DIPC   PO4 5486   9.779  22.975   6.121  0.0893 -0.1583 -0.1609
    1DIPC   GL1 5487   9.928  23.185   5.688  0.2101  0.1301  0.3054
    1DIPC   GL2 5488   9.704  23.398   5.660  0.2406  0.1172  0.2888
    1DIPC   C1A 5489  10.170  23.377   5.357  0.1373 -0.0827 -0.0791
    1DIPC   D2A 5490  10.494  23.663   5.208 -0.1070 -0.1132 -0.3035
    1DIPC   D3A 5491  10.954  23.757   5.178  0.0361  0.0674  0.1506
    1DIPC   C4A 5492  11.345  23.547   5.246  0.0020  0.0046 -0.0638
    1DIPC   C1B 5493   9.972  23.787   5.556 -0.2062  0.1804  0.0019
    1DIPC   D2B 5494   9.743  24.182   5.634 -0.1034 -0.2359 -0.0112
    1DIPC   D3B 5495   9.313  24.116   5.583 -0.2416 -0.0275 -0.3342
    1DIPC   C4B 5496   9.240  23.635   5.571 -0.0349 -0.1468 -0.3510
    1DIPC   NC3 5497  23.468   1.458   6.920  0.2745  0.0736 -0.5057
    1DIPC   PO4 5498  23.434   1.280   6.478  0.2045  0.3475  0.0604
    1DIPC   GL1 5499  23.454   1.124   6.092  0.0829 -0.2782 -0.1222
    1DIPC   GL2 5500  23.404   1.452   5.946  0.0621 -0.1379 -0.3414
    1DIPC   C1A 5501  23.623   1.067   5.638  0.1430 -0.1044 -0.0290
    1DIPC   D2A 5502  23.955   1.073   5.327 -0.1110 -0.0045  0.0875
    1DIPC   D3A 5503  23.736   1.393   5.092 -0.0166  0.0039  0.0669
    1DIPC   C4A 5504  23.458   1.273   4.822 -0.0916  0.0227 -0.0492
    1DIPC   C1B 5505  22.996   1.238   5.649  0.0383  0.0593  0.0707
    1DIPC   D2B 5506  22.816   0.908   5.296  0.0958  0.0385 -0.0513
    1DIPC   D3B 5507  22.720   0.608   5.686 -0.3111 -0.1034 -0.0132
    1DIPC   C4B 5508  22.786   0.859   6.036  0.0225 -0.0943 -0.3571
    1DIPC   NC3 5509   6.892  20.876   6.130  0.2462  0.3462 -0.1618
    1DIPC   PO4 5510   6.507  20.721   5.822  0.0465 -0.0206  0.3088
    1DIPC   GL1 5511   6.548  20.620   5.444 -0.0027 -0.2075  0.2818
    1DIPC   GL2 5512   6.710  20.290   5.444 -0.1155  0.3215 -0.0035
    1DIPC   C1A 5513   6.324  20.607   5.114  0.0937 -0.1276  0.2392
    1DIPC   D2A 5514   6.157  20.864   4.824 -0.0765  0.1586 -0.1300
    1DIPC   D3A 5515   6.086  20.433   4.707 -0.3006 -0.2272  0.2665
    1DIPC   C4A 5516   6.166  20.101   4.772 -0.2393 -0.0736  0.2598
    1DIPC   C1B 5517   6.749  20.352   5.014 -0.2448  0.1391  0.0974
    1DIPC   D2B 5518   6.599  20.486   4.565 -0.0107 -0.1712 -0.0051
    1DIPC   D3B 5519   6.808  20.796   4.764  0.1909  0.0465 -0.0597
    1DIPC   C4B 5520   6.624  21.046   5.095  0.3919 -0.1582  0.1773
    1DIPC   NC3 5521  17.879  23.219   7.248 -0.0318  0.1214  0.1553
    1DIPC   PO4 5522  17.604  22.928   7.271 -0.3387  0.2378  0.0535
    1DIPC   GL1 5523  17.569  23.022   6.873  0.1777 -0.0272  0.3707
    1DIPC   GL2 5524  17.286  23.070   6.666 -0.2626  0.1203  0.0046
    1DIPC   C1A 5525  17.741  22.944   6.467  0.1438 -0.1220 -0.0972
    1DIPC   D2A 5526  17.816  22.711   6.148  0.0506 -0.0571 -0.1820
    1DIPC   D3A 5527  17.438  22.683   5.864 -0.0472 -0.0067  0.3725
    1DIPC   C4A 5528  17.099  22.750   5.646  0.4128 -0.0836  0.0867
    1DIPC   C1B 5529  17.253  22.730   6.466  0.1227 -0.2728 -0.1313
    1DIPC   D2B 5530  17.419  22.456   6.311  0.2988  0.0454 -0.1884
    1DIPC   D3B 5531  17.387  22.164   5.893 -0.0686  0.0266 -0.0879
    1DIPC   C4B 5532  17.471  22.277   5.599 -0.0383 -0.0937  0.1412
    1DIPC   NC3 5533   0.435  22.112   6.659 -0.1027 -0.2531  0.4173
    1DIPC   PO4 5534   0.206  22.427   6.338 -0.1473  0.0732 -0.3197
    1DIPC   GL1 5535  -0.041  22.370   5.905 -0.0852  0.1876 -0.0010
    1DIPC   GL2 5536  -0.404  22.528   5.886  0.1075 -0.1256  0.0460
    1DIPC   C1A 5537  -0.187  22.043   5.609  0.1927  0.1349 -0.0021
    1DIPC   D2A 5538  -0.412  21.888   5.809  0.0070  0.2104 -0.0295
    1DIPC   D3A 5539  -0.559  21.730   5.310  0.2452  0.0472 -0.0713
    1DIPC   C4A 5540  -0.345  21.415   4.923  0.0553  0.2109  0.0013
    1DIPC   C1B 5541  -0.148  22.610   5.492 -0.0973  0.0298  0.4381
    1DIPC   D2B 5542  -0.075  22.748   5.047 -0.0925 -0.1066  0.0986
    1DIPC   D3B 5543  -0.555  22.862   5.100 -0.0730  0.1582  0.3551
    1DIPC   C4B 5544  -0.740  22.840   5.530 -0.1763  0.2229 -0.1838
    1DIPC   NC3 5545  23.455  11.362   6.715  0.2336  0.0709  0.2666
    1DIPC   PO4 5546  23.790  11.084   6.513  0.3024 -0.1668  0.2349
    1DIPC   GL1 5547  23.631  11.190   6.172  0.1256  0.3533 -0.2782
    1DIPC   GL2 5548  23.361  11.415   6.176  0.0470 -0.1843  0.1372
    1DIPC   C1A 5549  23.727  10.982   5.775 -0.0393 -0.3311  0.1330
    1DIPC   D2A 5550  23.706  10.943   5.370  0.1551 -0.2868 -0.0009
    1DIPC   D3A 5551  23.222  10.832   5.353 -0.0049  0.0729 -0.1025
    1DIPC   C4A 5552  23.002  10.767   5.801 -0.2003  0.0281  0.0352
    1DIPC   C1B 5553  23.372  11.739   5.826  0.1102  0.3067  0.1598
    1DIPC   D2B 5554  23.457  12.114   5.616 -0.1262  0.1247  0.1116
    1DIPC   D3B 5555  23.343  12.575   5.609  0.2047  0.2208 -0.2649
    1DIPC   C4B 5556  23.719  12.836   5.376  0.0316  0.1547 -0.1455
    1DIPC   NC3 5557  11.666  24.320   6.376 -0.5755  0.2522  0.0563
    1DIPC   PO4 5558  11.440  24.339   6.089 -0.0029 -0.1927 -0.2241
    1DIPC   GL1 5559  11.345  24.254   5.567  0.1197 -0.0460  0.0785
    1DIPC   GL2 5560  11.225  23.986   5.503 -0.0738 -0.4770  0.0733
    1DIPC   C1A 5561  11.164  24.499   5.252 -0.2451  0.2287 -0.2169
    1DIPC   D2A 5562  10.948  24.659   4.910  0.2485 -0.1664 -0.0348
    1DIPC   D3A 5563  11.217  24.458   4.731 -0.2258  0.0585 -0.0870
    1DIPC   C4A 5564  11.719  24.311   4.721  0.2140 -0.0125 -0.0341
    1DIPC   C1B 5565  11.716  23.969   5.392  0.1677 -0.2215  0.1021
    1DIPC   D2B 5566  12.098  24.001   5.333 -0.0105 -0.2569 -0.0866
    1DIPC   D3B 5567  12.009  24.284   5.130  0.1521 -0.1080 -0.0104
    1DIPC   C4B 5568  12.158  24.591   4.851 -0.1251 -0.1552  0.0470
    1DIPC   NC3 5569  28.605   0.489   6.718  0.1764  0.3906 -0.1876
    1DIPC   PO4 5570  28.185   0.486   6.535  0.1039 -0.1563  0.1066
    1DIPC   GL1 5571  27.990   0.506   6.117  0.0142  0.1629 -0.0721
    1DIPC   GL2 5572  28.198   0.698   5.889 -0.1780  0.1701  0.1766
    1DIPC   C1A 5573  27.882   0.436   5.607  0.0920  0.0231 -0.1634
    1DIPC   D2A 5574  27.664   0.224   5.270  0.0493 -0.2125  0.1684
    1DIPC   D3A 5575  27.443  -0.118   5.387 -0.1812  0.0542 -0.0726
    1DIPC   C4A 5576  27.602  -0.418   5.630 -0.0614  0.0428 -0.0425
    1DIPC   C1B 5577  28.343   0.308   5.647 -0.2715  0.0143 -0.3444
    1DIPC   D2B 5578  28.650   0.282   5.285 -0.0160 -0.2115 -0.1317
    1DIPC   D3B 5579  28.367   0.583   5.238  0.2316  0.4360 -0.0383
    1DIPC   C4B 5580  28.030   0.680   4.909  0.0922 -0.1860 -0.2051
    1DIPC   NC3 5581   2.827   0.703   7.313  0.1073  0.0029  0.0007
    1DIPC   PO4 5582   2.913   0.743   6.803  0.4475 -0.1813  0.2680
    1DIPC   GL1 5583   2.712   0.784   6.430  0.0852  0.2511 -0.1526
    1DIPC   GL2 5584   2.663   0.516   6.265 -0.0243  0.1310  0.0508
    1DIPC   C1A 5585   2.959   0.924   6.077 -0.2269 -0.0006 -0.2071
    1DIPC   D2A 5586   3.317   1.078   5.901 -0.1064 -0.0724 -0.0844
    1DIPC   D3A 5587   3.578   1.289   6.377  0.2060  0.2565  0.3012
    1DIPC   C4A 5588   3.780   1.642   6.168  0.1238  0.1662  0.0457
    1DIPC   C1B 5589   2.738   0.458   5.812 -0.1773  0.2391 -0.0126
    1DIPC   D2B 5590   2.634   0.756   5.460  0.0256  0.3286 -0.0690
    1DIPC   D3B 5591   3.081   0.629   5.485  0.2322  0.0272  0.0152
    1DIPC   C4B 5592   3.296   0.882   5.159 -0.2218  0.4136 -0.2549
    1DIPC   NC3 5593  23.393  15.570   6.127 -0.3823 -0.1334 -0.1928
    1DIPC   PO4 5594  23.744  15.706   5.916  0.0217 -0.1804 -0.0780
    1DIPC   GL1 5595  23.538  15.419   5.552  0.0429  0.3179 -0.3160
    1DIPC   GL2 5596  23.701  15.633   5.381 -0.0350  0.2893  0.1766
    1DIPC   C1A 5597  23.228  15.233   5.466 -0.0860  0.1905 -0.0084
    1DIPC   D2A 5598  22.858  15.202   5.599 -0.0195  0.2737 -0.0848
    1DIPC   D3A 5599  22.790  15.115   5.233  0.0179  0.0022  0.0835
    1DIPC   C4A 5600  22.513  15.405   5.003  0.0010  0.0899  0.1194
    1DIPC   C1B 5601  24.103  15.344   5.159  0.0436 -0.1639  0.0775
    1DIPC   D2B 5602  23.962  15.159   4.791  0.0526  0.2527  0.1676
    1DIPC   D3B 5603  23.722  15.319   4.604 -0.1524  0.2078 -0.0012
    1DIPC   C4B 5604  23.323  15.146   4.454 -0.1005  0.1722 -0.1226
    1DIPC   NC3 5605   6.675  18.888   6.519  0.0878  0.0046  0.1677
    1DIPC   PO4 5606   7.019  18.833   6.168 -0.3534 -0.1778  0.2139
    1DIPC   GL1 5607   6.971  18.858   5.706  0.0291  0.0383 -0.3035
    1DIPC   GL2 5608   6.731  18.733   5.550  0.0569  0.0518  0.2859
    1DIPC   C1A 5609   7.078  19.024   5.329  0.1872 -0.0396 -0.1784
    1DIPC   D2A 5610   7.218  19.374   5.237  0.0794  0.2625  0.0575
    1DIPC   D3A 5611   7.465  19.377   4.880 -0.0026  0.1336 -0.1588
    1DIPC   C4A 5612   7.411  19.048   4.535  0.0193  0.1959 -0.2642
    1DIPC   C1B 5613   7.129  18.472   5.360  0.0971 -0.1639  0.1434
    1DIPC   D2B 5614   7.564  18.220   5.111  0.1977  0.1213  0.0493
    1DIPC   D3B 5615   7.426  18.124   4.627  0.1922  0.2410  0.1299
    1DIPC   C4B 5616   7.560  18.442   4.370  0.0270 -0.0936  0.1819
    1DIPC   NC3 5617  17.690  26.816   6.928 -0.3020  0.1719 -0.2008
    1DIPC   PO4 5618  18.088  26.716   6.688 -0.1474 -0.1627  0.1496
    1DIPC   GL1 5619  18.174  27.052   6.481  0.1368  0.0077  0.2039
    1DIPC   GL2 5620  18.448  27.144   6.380  0.2903  0.0277  0.1298
    1DIPC   C1A 5621  18.088  27.406   6.099  0.3033  0.0203 -0.1481
    1DIPC   D2A 5622  17.921  27.631   5.761  0.0712  0.0345 -0.0314
    1DIPC   D3A 5623  17.535  27.427   5.683  0.0641 -0.1055 -0.0873
    1DIPC   C4A 5624  17.457  27.440   5.248 -0.0905  0.3254  0.1908
    1DIPC   C1B 5625  18.467  27.105   5.976  0.2336  0.0306 -0.1487
    1DIPC   D2B 5626  18.837  26.811   5.735  0.0942  0.0109 -0.1615
    1DIPC   D3B 5627  18.901  26.783   5.309  0.2206  0.0001  0.0273
    1DIPC   C4B 5628  19.108  26.346   5.311 -0.2123  0.1755 -0.2681
    1DIPC   NC3 5629  23.302   1.721   6.402 -0.0278  0.1473 -0.1293
    1DIPC   PO4 5630  22.993   1.822   6.294  0.1910 -0.1924 -0.0670
    1DIPC   GL1 5631  22.979   1.761   5.858  0.1900 -0.0799 -0.2439
    1DIPC   GL2 5632  22.790   2.008   5.595 -0.1852  0.2907 -0.1759
    1DIPC   C1A 5633  23.202   1.696   5.548 -0.3802  0.1310 -0.2607
    1DIPC   D2A 5634  23.252   1.503   5.209  0.1038 -0.0264  0.0540
    1DIPC   D3A 5635  22.807   1.431   5.211  0.0389  0.2004  0.0296
    1DIPC   C4A 5636  22.568   1.327   4.969 -0.1203 -0.0466  0.1537
    1DIPC   C1B 5637  22.932   2.102   5.205 -0.1490 -0.0208  0.0169
    1DIPC   D2B 5638  22.759   1.800   4.823 -0.2079 -0.1646 -0.5692
    1DIPC   D3B 5639  22.537   1.874   4.363 -0.2070  0.0210 -0.0614
    1DIPC   C4B 5640  22.851   1.775   4.049 -0.5885  0.1255 -0.0913
    1DIPC   NC3 5641  13.313   8.234   7.987 -0.1486  0.1487 -0.0602
    1DIPC   PO4 5642  13.458   8.038   7.695  0.2078 -0.1153 -0.1394
    1DIPC   GL1 5643  13.307   7.955   7.334 -0.1280 -0.1137  0.0476
    1DIPC   GL2 5644  12.927   7.941   7.349  0.1466  0.0347 -0.2315
    1DIPC   C1A 5645  13.402   7.637   7.044  0.1808 -0.0430  0.1673
    1DIPC   D2A 5646  13.733   7.610   6.615 -0.0216  0.1784  0.1717
    1DIPC   D3A 5647  13.489   7.689   6.222 -0.4017  0.4293  0.1076
    1DIPC   C4A 5648  13.787   7.433   5.914  0.1529  0.1455 -0.2705
    1DIPC   C1B 5649  12.577   8.250   7.174  0.2417  0.1718 -0.0505
    1DIPC   D2B 5650  12.345   8.596   7.018 -0.3458  0.0734  0.0716
    1DIPC   D3B 5651  12.733   8.728   7.049  0.0887  0.0929  0.1350
    1DIPC   C4B 5652  12.829   9.147   6.962  0.1424  0.0774  0.2528
    1DIPC   NC3 5653  18.968  27.759   7.047  0.1279 -0.1522 -0.0788
    1DIPC   PO4 5654  18.630  27.908   6.812  0.1791 -0.1237 -0.3943
    1DIPC   GL1 5655  18.622  28.248   6.367  0.1547 -0.1015 -0.0805
    1DIPC   GL2 5656  18.415  28.407   6.203 -0.0229  0.4266 -0.2332
    1DIPC   C1A 5657  18.872  28.487   5.953  0.2965  0.1184  0.1652
    1DIPC   D2A 5658  19.140  28.761   5.655 -0.2477  0.0122 -0.1835
    1DIPC   D3A 5659  19.021  29.019   6.033 -0.3201  0.0774  0.0561
    1DIPC   C4A 5660  18.903  28.682   6.444 -0.1049 -0.1329 -0.1145
    1DIPC   C1B 5661  18.127  28.032   6.002 -0.0074 -0.1480 -0.0495
    1DIPC   D2B 5662  18.023  28.080   5.571 -0.0266  0.2450 -0.1544
    1DIPC   D3B 5663  18.082  28.216   5.088  0.0974  0.0887 -0.3102
    1DIPC   C4B 5664  17.908  28.579   4.871  0.0702 -0.0179 -0.4878
    1DIPC   NC3 5665  21.686   4.743   6.853  0.1241 -0.3167  0.3379
    1DIPC   PO4 5666  22.153   4.692   6.867  0.2519  0.0826  0.0319
    1DIPC   GL1 5667  22.056   4.832   6.443  0.0455  0.0717 -0.3330
    1DIPC   GL2 5668  22.291   4.978   6.257  0.0542 -0.2358 -0.0464
    1DIPC   C1A 5669  21.931   4.736   6.019  0.4499 -0.3942 -0.1585
    1DIPC   D2A 5670  21.609   4.597   5.827  0.0376 -0.0060 -0.0802
    1DIPC   D3A 5671  21.729   4.207   6.115  0.1516 -0.2420  0.3189
    1DIPC   C4A 5672  21.537   4.003   6.451 -0.0971 -0.2140 -0.2373
    1DIPC   C1B 5673  21.871   5.188   6.166 -0.0386  0.2732 -0.2880
    1DIPC   D2B 5674  21.503   4.967   6.173  0.3425  0.0435  0.1343
    1DIPC   D3B 5675  21.215   4.891   5.814 -0.0796  0.1713  0.0446
    1DIPC   C4B 5676  20.766   4.630   5.712 -0.3122 -0.1699 -0.0501
    1DIPC   NC3 5677  28.627  14.690   6.096  0.1843  0.0416  0.1265
    1DIPC   PO4 5678  28.060  14.686   5.885  0.3325  0.1304 -0.1883
    1DIPC   GL1 5679  28.076  14.632   5.513  0.2084  0.0666  0.1528
    1DIPC   GL2 5680  27.996  14.837   5.280  0.2026  0.1364 -0.3431
    1DIPC   C1A 5681  28.352  14.619   5.126 -0.2609  0.2842  0.1609
    1DIPC   D2A 5682  28.344  14.962   4.864 -0.1180  0.2057  0.0419
    1DIPC   D3A 5683  28.626  14.645   4.598 -0.0301 -0.1105  0.0656
    1DIPC   C4A 5684  29.014  14.596   4.692  0.1067 -0.0404  0.0957
    1DIPC   C1B 5685  27.792  14.524   5.031  0.0665 -0.0417  0.2572
    1DIPC   D2B 5686  27.478  14.496   4.811 -0.0432 -0.2347 -0.2026
    1DIPC   D3B 5687  27.023  14.563   4.829 -0.1073  0.2810  0.0235
    1DIPC   C4B 5688  26.930  14.912   4.715  0.0361 -0.0465  0.1199
    1DIPC   NC3 5689   6.739   6.099   6.821  0.0660 -0.1917 -0.0103
    1DIPC   PO4 5690   6.542   5.749   6.661 -0.4391  0.3759 -0.2185
    1DIPC   GL1 5691   6.987   5.800   6.431  0.2168  0.1631 -0.1101
    1DIPC   GL2 5692   6.887   6.169   6.360 -0.3636  0.2028  0.1595
    1DIPC   C1A 5693   7.336   5.916   6.061  0.1579  0.1309 -0.0024
    1DIPC   D2A 5694   7.737   6.197   5.979  0.0837  0.0203  0.1070
    1DIPC   D3A 5695   7.727   5.852   5.662 -0.1020  0.1929  0.0478
    1DIPC   C4A 5696   7.597   5.534   5.912  0.0546 -0.1521  0.2806
    1DIPC   C1B 5697   6.889   6.160   5.918 -0.0360  0.1647  0.4653
    1DIPC   D2B 5698   6.944   6.133   5.486  0.0063 -0.1184 -0.0105
    1DIPC   D3B 5699   7.309   6.171   5.631  0.0363  0.1359 -0.4747
    1DIPC   C4B 5700   7.661   6.302   5.431 -0.1467  0.0611 -0.1155
    1DIPC   NC3 5701  24.694   2.745   6.231 -0.1874  0.2023 -0.2996
    1DIPC   PO4 5702  24.322   2.513   6.154 -0.2111 -0.0640 -0.0550
    1DIPC   GL1 5703  24.190   2.257   5.919 -0.1823 -0.2968  0.0053
    1DIPC   GL2 5704  24.358   1.993   6.007 -0.0135  0.2741 -0.0249
    1DIPC   C1A 5705  23.907   1.993   5.788  0.3088  0.1650 -0.2261
    1DIPC   D2A 5706  23.741   1.616   5.630  0.1982 -0.2375  0.1545
    1DIPC   D3A 5707  23.619   1.954   5.275 -0.1515  0.1834  0.1440
    1DIPC   C4A 5708  23.445   1.886   4.880 -0.0210  0.0878 -0.1526
    1DIPC   C1B 5709  24.491   1.708   5.695 -0.0692  0.0197 -0.3191
    1DIPC   D2B 5710  24.779   1.592   5.424  0.1697 -0.2285  0.1255
    1DIPC   D3B 5711  24.621   1.392   4.986  0.0834  0.0010  0.0798
    1DIPC   C4B 5712  24.344   1.000   4.895 -0.0109  0.2806  0.0809
    1DIPC   NC3 5713  24.917   4.095   6.252  0.0402 -0.4089  0.0678
    1DIPC   PO4 5714  24.786   3.835   5.933  0.3748 -0.2397 -0.3486
    1DIPC   GL1 5715  24.829   3.516   5.529 -0.0178 -0.1335 -0.0045
    1DIPC   GL2 5716  24.638   3.273   5.520  0.1043 -0.0615  0.1467
    1DIPC   C1A 5717  25.041   3.139   5.328  0.1137  0.2227 -0.3450
    1DIPC   D2A 5718  25.090   2.825   5.017 -0.0032 -0.2258  0.2702
    1DIPC   D3A 5719  24.787   3.063   4.681  0.4891 -0.0543 -0.2512
    1DIPC   C4A 5720  24.949   3.376   4.532 -0.4065 -0.3147  0.0324
    1DIPC   C1B 5721  24.602   3.244   5.170  0.0434  0.1938 -0.1080
    1DIPC   D2B 5722  24.548   3.537   4.795  0.0141  0.0933  0.0315
    1DIPC   D3B 5723  24.325   3.161   4.533 -0.0116 -0.1977  0.3240
    1DIPC   C4B 5724  24.335   2.920   4.879  0.5185  0.1312  0.0224
    1DIPC   NC3 5725  26.837  16.098   6.353  0.1378 -0.1730  0.2152
    1DIPC   PO4 5726  26.947  16.157   5.874 -0.0828  0.1862  0.2830
    1DIPC   GL1 5727  26.874  16.229   5.441 -0.0423 -0.0464  0.4466
    1DIPC   GL2 5728  26.755  16.575   5.504 -0.4382 -0.1058  0.0002
    1DIPC   C1A 5729  27.013  16.438   5.003 -0.1094 -0.1857 -0.1086
    1DIPC   D2A 5730  27.044  16.327   4.657 -0.0291  0.0312  0.1198
    1DIPC   D3A 5731  27.105  15.867   4.425 -0.1564  0.0167 -0.0432
    1DIPC   C4A 5732  27.330  15.833   4.002 -0.1057 -0.1554 -0.1404
    1DIPC   C1B 5733  26.759  16.933   5.110 -0.3553  0.3606  0.1228
    1DIPC   D2B 5734  26.709  17.245   4.847 -0.1824  0.0230  0.0060
    1DIPC   D3B 5735  27.075  17.461   4.759 -0.6961  0.0930  0.1210
    1DIPC   C4B 5736  27.326  17.443   4.369  0.1796 -0.0544 -0.3145
    1DIPC   NC3 5737  10.467  28.014   7.699  0.0631 -0.0029  0.0602
    1DIPC   PO4 5738  10.772  28.125   7.329 -0.1171 -0.1940  0.3815
    1DIPC   GL1 5739  10.909  28.452   7.055  0.1571 -0.0750  0.1089
    1DIPC   GL2 5740  10.717  28.260   6.823  0.2823 -0.4394 -0.1137
    1DIPC   C1A 5741  11.146  28.366   6.678 -0.1561 -0.1317  0.0666
    1DIPC   D2A 5742  11.331  27.940   6.571 -0.3398  0.0890  0.3798
    1DIPC   D3A 5743  11.343  28.132   6.208  0.2169  0.0180  0.2737
    1DIPC   C4A 5744  11.552  28.046   5.835 -0.0200 -0.1578 -0.1704
    1DIPC   C1B 5745  10.775  28.145   6.443 -0.2907 -0.2069 -0.3413
    1DIPC   D2B 5746  10.849  27.917   6.056  0.1012  0.0041 -0.1770
    1DIPC   D3B 5747  10.730  28.328   5.909  0.1203 -0.0006 -0.0837
    1DIPC   C4B 5748  11.040  28.513   6.175  0.3511  0.0518  0.0721
    1DIPC   NC3 5749   0.939  21.384   6.300  0.2714  0.2420 -0.2602
    1DIPC   PO4 5750   0.626  21.639   6.468 -0.2248  0.0645  0.0440
    1DIPC   GL1 5751   0.626  21.570   5.980 -0.1999  0.0929  0.1793
    1DIPC   GL2 5752   0.521  21.295   5.872  0.1711 -0.1489 -0.1042
    1DIPC   C1A 5753   0.428  21.717   5.626  0.2574  0.0784 -0.2186
    1DIPC   D2A 5754   0.387  22.238   5.641  0.2480  0.0562  0.2227
    1DIPC   D3A 5755   0.152  22.180   5.281  0.4116  0.1644  0.0850
    1DIPC   C4A 5756   0.313  22.204   4.926  0.0476 -0.0147 -0.0882
    1DIPC   C1B 5757   0.471  21.256   5.425  0.0581  0.0869  0.0048
    1DIPC   D2B 5758   0.471  20.943   5.063  0.1594 -0.1502 -0.1248
    1DIPC   D3B 5759   0.570  21.007   4.684  0.0289  0.0403 -0.1417
    1DIPC   C4B 5760   0.631  20.573   4.391 -0.2379  0.0862  0.0039
    1DIPC   NC3 5761  23.383  12.937   6.731 -0.0394 -0.1019 -0.0409
    1DIPC   PO4 5762  23.318  13.359   6.843 -0.0215 -0.3111 -0.2015
    1DIPC   GL1 5763  23.278  13.318   6.356 -0.1081 -0.0365  0.0708
    1DIPC   GL2 5764  23.397  13.430   6.112 -0.2734 -0.0856  0.2045
    1DIPC   C1A 5765  22.876  13.288   6.140  0.0110  0.2477  0.1107
    1DIPC   D2A 5766  22.518  13.449   5.845 -0.1177  0.0321 -0.1353
    1DIPC   D3A 5767  22.284  13.202   5.621 -0.2474  0.0269  0.4421
    1DIPC   C4A 5768  21.899  13.226   5.372  0.0172  0.2384  0.1912
    1DIPC   C1B 5769  23.272  12.911   5.987  0.0809  0.0486  0.1420
    1DIPC   D2B 5770  22.825  12.764   6.201 -0.2160 -0.0524 -0.1351
    1DIPC   D3B 5771  22.779  12.920   5.775 -0.3650  0.2069  0.2675
    1DIPC   C4B 5772  22.881  12.627   5.393 -0.1701  0.2492 -0.1975
    1DIPC   NC3 5773  27.646   0.543   6.583  0.2121 -0.1442  0.1297
    1DIPC   PO4 5774  27.307   0.813   6.409  0.1518 -0.0677  0.2590
    1DIPC   GL1 5775  27.018   0.709   6.035  0.2063  0.0075  0.1747
    1DIPC   GL2 5776  27.059   0.971   5.751  0.0079  0.0738 -0.1712
    1DIPC   C1A 5777  27.023   0.366   5.740  0.1372 -0.2748 -0.0306
    1DIPC   D2A 5778  27.128   0.219   5.330 -0.1216 -0.2516  0.0150
    1DIPC   D3A 5779  26.986  -0.174   5.048 -0.0538 -0.3721 -0.1941
    1DIPC   C4A 5780  27.028  -0.491   5.382  0.0850  0.1725 -0.0806
    1DIPC   C1B 5781  26.767   0.713   5.595 -0.2356 -0.3391  0.3161
    1DIPC   D2B 5782  26.356   0.616   5.657 -0.0237  0.0667  0.2046
    1DIPC   D3B 5783  26.045   0.708   6.109  0.3457 -0.0432  0.0031
    1DIPC   C4B 5784  25.620   0.664   6.040 -0.2814  0.0640  0.1575
    1DIPC   NC3 5785   3.275  25.325   7.042  0.5056 -0.3129 -0.0350
    1DIPC   PO4 5786   3.187  25.515   6.548 -0.2014 -0.4897 -0.0038
    1DIPC   GL1 5787   3.083  25.671   6.173  0.3570 -0.3047  0.0272
    1DIPC   GL2 5788   3.291  25.661   5.829 -0.0366  0.1896 -0.1062
    1DIPC   C1A 5789   2.740  25.863   5.843 -0.0547  0.1353  0.0766
    1DIPC   D2A 5790   2.360  25.816   5.600 -0.1730 -0.3924  0.0360
    1DIPC   D3A 5791   2.176  25.982   5.269 -0.1735  0.3221  0.7169
    1DIPC   C4A 5792   2.454  26.399   5.046  0.0349 -0.3722  0.0090
    1DIPC   C1B 5793   3.142  26.010   5.613  0.3369  0.5115  0.0188
    1DIPC   D2B 5794   3.252  26.346   5.489  0.2067  0.1316  0.0016
    1DIPC   D3B 5795   3.763  26.348   5.410  0.2719 -0.0159 -0.1265
    1DIPC   C4B 5796   3.938  26.343   4.965  0.1485 -0.1996  0.0691
    1DIPC   NC3 5797  15.882  23.796   7.348 -0.0208 -0.2247 -0.2874
    1DIPC   PO4 5798  15.371  23.833   7.364 -0.0754 -0.0617  0.0641
    1DIPC   GL1 5799  15.624  23.717   6.987 -0.0352  0.1932  0.0894
    1DIPC   GL2 5800  15.551  23.454   6.783  0.0149  0.0855  0.3754
    1DIPC   C1A 5801  15.960  23.610   6.585  0.2970  0.0938 -0.3286
    1DIPC   D2A 5802  16.009  23.530   6.129 -0.2475 -0.2066  0.3889
    1DIPC   D3A 5803  16.484  23.501   5.956 -0.1292  0.2108  0.0694
    1DIPC   C4A 5804  16.622  23.597   5.542  0.1020 -0.0303 -0.0474
    1DIPC   C1B 5805  15.524  23.916   6.562 -0.0547 -0.0624  0.1269
    1DIPC   D2B 5806  15.836  24.045   6.182 -0.1485  0.3452  0.1592
    1DIPC   D3B 5807  16.149  24.332   6.208  0.0259 -0.1311 -0.0661
    1DIPC   C4B 5808  16.588  24.352   6.057  0.0525  0.3453 -0.3103
    1DIPC   NC3 5809  24.627   7.162   6.350  0.0107  0.0499 -0.0527
    1DIPC   PO4 5810  24.980   7.388   6.102 -0.2739 -0.0959 -0.1957
    1DIPC   GL1 5811  25.209   7.368   5.764 -0.0950  0.2131  0.2018
    1DIPC   GL2 5812  25.364   7.110   5.746  0.1458  0.0042 -0.3606
    1DIPC   C1A 5813  25.644   7.552   5.650  0.0438  0.1491  0.2659
    1DIPC   D2A 5814  25.890   7.816   5.460 -0.1506 -0.1185  0.3148
    1DIPC   D3A 5815  25.624   7.716   5.087  0.2714  0.3099  0.1697
    1DIPC   C4A 5816  25.225   7.501   5.244  0.0240 -0.1760 -0.2454
    1DIPC   C1B 5817  25.314   7.017   5.284  0.1442  0.4090 -0.1756
    1DIPC   D2B 5818  25.285   6.683   5.066  0.0401  0.3236 -0.2001
    1DIPC   D3B 5819  25.303   6.904   4.679 -0.1153  0.2804 -0.1079
    1DIPC   C4B 5820  25.581   6.752   4.294  0.0227  0.0361 -0.1560
    1DIPC   NC3 5821   1.858  20.683   6.495 -0.0195 -0.0840  0.0603
    1DIPC   PO4 5822   1.815  20.472   6.019 -0.0852 -0.0299 -0.3277
    1DIPC   GL1 5823   1.818  20.448   5.544  0.1269  0.3213  0.0754
    1DIPC   GL2 5824   1.933  20.849   5.486 -0.0364  0.1356 -0.3270
    1DIPC   C1A 5825   1.622  20.361   5.183 -0.1437  0.2009 -0.1909
    1DIPC   D2A 5826   1.704  20.222   4.787  0.3261  0.3671  0.0434
    1DIPC   D3A 5827   1.728  20.252   4.341  0.1112  0.1253  0.0017
    1DIPC   C4A 5828   1.466  20.632   4.183  0.0553  0.0714  0.0926
    1DIPC   C1B 5829   1.999  20.968   5.013 -0.1491  0.3224 -0.1276
    1DIPC   D2B 5830   1.752  20.801   4.630  0.0122  0.1162 -0.0024
    1DIPC   D3B 5831   1.539  21.101   4.338 -0.1521  0.2730 -0.0350
    1DIPC   C4B 5832   1.818  21.318   4.122 -0.2075 -0.0420 -0.2418
    1DIPC   NC3 5833  25.493   6.784   6.498  0.0912 -0.1681  0.1942
    1DIPC   PO4 5834  25.906   6.833   6.291 -0.0738  0.0428  0.6041
    1DIPC   GL1 5835  25.666   6.778   5.954 -0.1361  0.0329 -0.0573
    1DIPC   GL2 5836  25.861   6.946   5.718  0.0194 -0.0599 -0.0448
    1DIPC   C1A 5837  25.717   6.426   5.784 -0.0116  0.3632  0.0824
    1DIPC   D2A 5838  25.756   6.486   5.327  0.0061 -0.0595 -0.0909
    1DIPC   D3A 5839  26.038   6.269   5.107 -0.3851 -0.0584 -0.1632
    1DIPC   C4A 5840  25.972   5.947   4.869  0.0679  0.2122 -0.0489
    1DIPC   C1B 5841  26.163   6.840   5.271  0.1814 -0.1497  0.1551
    1DIPC   D2B 5842  25.987   6.705   4.883 -0.1600 -0.4555 -0.1433
    1DIPC   D3B 5843  26.213   7.212   4.893  0.0810  0.2720  0.0540
    1DIPC   C4B 5844  26.478   7.169   4.584  0.1528  0.2686  0.1844
    1DIPC   NC3 5845  15.332   1.684   7.478  0.1448  0.2215 -0.0718
    1DIPC   PO4 5846  15.689   1.537   7.353 -0.2061  0.0924 -0.0811
    1DIPC   GL1 5847  15.704   1.550   6.865  0.2476 -0.1261  0.0016
    1DIPC   GL2 5848  15.853   1.253   6.750 -0.0203 -0.1374 -0.2255
    1DIPC   C1A 5849  15.809   1.674   6.341 -0.3857 -0.1514 -0.1196
    1DIPC   D2A 5850  15.740   1.882   5.895 -0.0919 -0.0876  0.4452
    1DIPC   D3A 5851  15.839   2.136   6.201  0.1906  0.0412 -0.0052
    1DIPC   C4A 5852  16.015   2.542   6.148  0.0978 -0.0842  0.2171
    1DIPC   C1B 5853  15.726   0.840   6.444  0.0589  0.0795  0.1776
    1DIPC   D2B 5854  15.517   0.740   6.062 -0.1363  0.0317 -0.1063
    1DIPC   D3B 5855  15.940   0.586   5.856  0.0597  0.4916 -0.0283
    1DIPC   C4B 5856  15.986   0.201   5.984  0.0723 -0.0095 -0.0892
    1DIPC   NC3 5857   2.685  27.494   6.699  0.0264  0.1156 -0.0664
    1DIPC   PO4 5858   2.267  27.547   6.367  0.0926  0.0225  0.2841
    1DIPC   GL1 5859   2.394  27.681   5.913 -0.0622  0.0605 -0.2042
    1DIPC   GL2 5860   2.697  27.815   5.807 -0.0096  0.1212 -0.3046
    1DIPC   C1A 5861   2.282  27.990   5.628 -0.1292  0.2057 -0.1915
    1DIPC   D2A 5862   1.953  27.863   5.405  0.1071  0.1806 -0.2254
    1DIPC   D3A 5863   1.867  27.524   5.131  0.1696 -0.4194 -0.0651
    1DIPC   C4A 5864   1.450  27.376   4.919  0.2895 -0.0355 -0.0367
    1DIPC   C1B 5865   2.857  27.515   5.472 -0.2736  0.2443  0.2623
    1DIPC   D2B 5866   2.838  27.409   5.006 -0.2279 -0.1271 -0.1783
    1DIPC   D3B 5867   2.864  27.825   4.710  0.0845  0.1077 -0.1283
    1DIPC   C4B 5868   3.247  27.712   4.396 -0.1896  0.0148 -0.2127
    1DIPC   NC3 5869  20.488  20.938   7.265  0.1331 -0.1742  0.0776
    1DIPC   PO4 5870  20.326  20.559   7.048 -0.2996 -0.3875  0.2063
    1DIPC   GL1 5871  20.085  20.761   6.625  0.3155  0.1660 -0.1105
    1DIPC   GL2 5872  20.058  21.108   6.490 -0.2970  0.1197 -0.1036
    1DIPC   C1A 5873  20.027  20.362   6.351  0.0981  0.0876  0.3355
    1DIPC   D2A 5874  19.938  19.903   6.082  0.2063  0.0656  0.1363
    1DIPC   D3A 5875  20.244  19.775   5.804  0.1002 -0.0471 -0.2675
    1DIPC   C4A 5876  20.083  19.672   5.465 -0.0659 -0.0877 -0.0385
    1DIPC   C1B 5877  20.204  21.392   6.122 -0.1595 -0.0491  0.0539
    1DIPC   D2B 5878  20.216  21.368   5.732  0.1190 -0.0690 -0.2310
    1DIPC   D3B 5879  20.366  21.652   5.677  0.1792 -0.0488 -0.0990
    1DIPC   C4B 5880  20.595  21.733   5.374  0.3074 -0.1427 -0.2758
    1DIPC   NC3 5881  22.038  16.495   6.692 -0.1113 -0.3308 -0.1063
    1DIPC   PO4 5882  21.927  16.130   6.979  0.6173 -0.0185  0.1964
    1DIPC   GL1 5883  21.695  16.175   6.534 -0.2391  0.0897 -0.2025
    1DIPC   GL2 5884  21.562  16.532   6.390 -0.1564  0.3417  0.1573
    1DIPC   C1A 5885  21.687  16.136   6.090 -0.2218  0.1537  0.0806
    1DIPC   D2A 5886  21.532  16.429   5.735 -0.1055  0.2113  0.1647
    1DIPC   D3A 5887  21.660  16.504   5.361 -0.0250  0.3460  0.1874
    1DIPC   C4A 5888  21.940  16.879   5.192 -0.3558  0.1601 -0.0516
    1DIPC   C1B 5889  21.269  16.759   6.006 -0.1940  0.4151  0.1375
    1DIPC   D2B 5890  21.136  17.075   5.742  0.2725  0.0357 -0.0676
    1DIPC   D3B 5891  21.030  17.519   5.565  0.0080  0.0880  0.1213
    1DIPC   C4B 5892  21.341  17.893   5.617  0.0223  0.0589  0.0457
    1DIPC   NC3 5893  10.111   3.157   7.355  0.1056 -0.1385  0.1146
    1DIPC   PO4 5894  10.461   3.435   7.366 -0.0890  0.2161  0.2217
    1DIPC   GL1 5895  10.470   3.241   6.957 -0.1736 -0.1405  0.2098
    1DIPC   GL2 5896  10.636   3.562   6.788  0.2237  0.3819  0.2817
    1DIPC   C1A 5897  10.242   3.399   6.622  0.0440 -0.0507 -0.2146
    1DIPC   D2A 5898   9.872   3.297   6.429  0.4583 -0.2700  0.2218
    1DIPC   D3A 5899   9.966   3.124   6.039  0.0692 -0.1268 -0.1401
    1DIPC   C4A 5900  10.054   3.013   5.716  0.3493 -0.1366 -0.0154
    1DIPC   C1B 5901  10.592   3.734   6.298  0.2208  0.1141 -0.1714
    1DIPC   D2B 5902  10.361   3.855   6.032  0.3304 -0.1809 -0.0996
    1DIPC   D3B 5903  10.185   3.495   5.784 -0.2479 -0.1270 -0.0716
    1DIPC   C4B 5904   9.892   3.370   5.448  0.3481 -0.2279  0.0758
    1DIPC   NC3 5905  21.143  18.131   7.773  0.0795 -0.1761  0.1332
    1DIPC   PO4 5906  21.077  17.926   7.384  0.1117 -0.2724 -0.0588
    1DIPC   GL1 5907  20.910  17.626   6.999  0.1315  0.0961 -0.0686
    1DIPC   GL2 5908  20.648  17.660   6.775 -0.1131 -0.0509 -0.2674
    1DIPC   C1A 5909  21.062  17.522   6.497 -0.2863 -0.2229 -0.2565
    1DIPC   D2A 5910  21.035  17.519   6.082 -0.0739 -0.0371 -0.0123
    1DIPC   D3A 5911  20.802  17.826   5.977  0.3058 -0.2276  0.0497
    1DIPC   C4A 5912  20.958  18.181   5.794  0.2473 -0.2678  0.0844
    1DIPC   C1B 5913  20.476  17.493   6.444  0.1160 -0.3248 -0.0212
    1DIPC   D2B 5914  20.482  17.451   6.025 -0.1237 -0.2533 -0.1978
    1DIPC   D3B 5915  20.534  17.460   5.536 -0.0414  0.1614 -0.1427
    1DIPC   C4B 5916  20.603  17.137   5.212  0.0492 -0.0536 -0.0165
    1DIPC   NC3 5917   0.653   3.950   6.221  0.2659  0.1893  0.0698
    1DIPC   PO4 5918   0.441   3.576   5.978  0.0847 -0.0492 -0.0261
    1DIPC   GL1 5919   0.258   3.404   5.667  0.0404 -0.0884 -0.0578
    1DIPC   GL2 5920   0.127   3.191   5.471  0.0922  0.1034 -0.1602
    1DIPC   C1A 5921   0.429   3.689   5.219  0.1871 -0.1167  0.2175
    1DIPC   D2A 5922   0.717   3.811   4.983 -0.2752 -0.0287  0.0162
    1DIPC   D3A 5923   1.106   3.709   5.215 -0.0108 -0.0957  0.0816
    1DIPC   C4A 5924   1.398   3.889   5.489  0.2715 -0.2064  0.3850
    1DIPC   C1B 5925  -0.229   3.479   5.338  0.1331  0.2031  0.2766
    1DIPC   D2B 5926  -0.433   3.646   5.079 -0.0146  0.1996  0.0563
    1DIPC   D3B 5927  -0.167   3.636   4.699  0.1059 -0.1770 -0.2154
    1DIPC   C4B 5928  -0.165   3.993   4.583 -0.0655 -0.3121  0.1606
    1DIPC   NC3 5929  18.770   3.666   6.768 -0.2600 -0.0802  0.1740
    1DIPC   PO4 5930  18.671   4.008   6.912 -0.1938 -0.4594 -0.2879
    1DIPC   GL1 5931  18.413   4.031   6.554 -0.1687  0.1108 -0.1625
    1DIPC   GL2 5932  18.382   4.248   6.366 -0.1721 -0.1391 -0.0748
    1DIPC   C1A 5933  18.249   3.736   6.239  0.2991 -0.1615  0.0418
    1DIPC   D2A 5934  18.264   3.905   5.901  0.0252 -0.0105  0.2135
    1DIPC   D3A 5935  17.773   3.740   6.079  0.1300 -0.0925  0.2938
    1DIPC   C4A 5936  17.888   3.485   6.407 -0.2795 -0.1129 -0.3135
    1DIPC   C1B 5937  18.315   4.576   6.489  0.2547  0.2630  0.1032
    1DIPC   D2B 5938  18.098   4.880   6.743 -0.0083  0.1652  0.1930
    1DIPC   D3B 5939  18.001   5.036   6.510 -0.2368 -0.1048 -0.0218
    1DIPC   C4B 5940  18.060   5.547   6.553 -0.1270  0.0560 -0.1572
    1DIPC   NC3 5941  20.874  23.714   6.620  0.3846  0.0549 -0.0677
    1DIPC   PO4 5942  21.289  23.504   6.571  0.3440  0.1996 -0.0940
    1DIPC   GL1 5943  21.432  23.856   6.266  0.0371  0.1209 -0.0120
    1DIPC   GL2 5944  21.133  23.942   6.268  0.0512  0.0242  0.4397
    1DIPC   C1A 5945  21.745  23.849   5.946  0.1856  0.0037  0.2947
    1DIPC   D2A 5946  21.785  23.517   5.688  0.0304 -0.5074 -0.0481
    1DIPC   D3A 5947  21.551  23.207   5.467 -0.2928 -0.1476  0.1341
    1DIPC   C4A 5948  21.373  23.422   5.094 -0.3163  0.0004 -0.1710
    1DIPC   C1B 5949  21.188  23.604   5.880  0.4859  0.0370 -0.0210
    1DIPC   D2B 5950  21.007  23.296   5.548  0.2274  0.0166 -0.0107
    1DIPC   D3B 5951  20.877  23.551   5.186 -0.2536  0.2375 -0.0948
    1DIPC   C4B 5952  20.753  23.491   4.794  0.1043  0.1079 -0.1584
    1DIPC   NC3 5953  28.417  25.644   6.677  0.0497  0.3138  0.4741
    1DIPC   PO4 5954  28.501  25.175   6.797  0.3138  0.1594 -0.4319
    1DIPC   GL1 5955  28.615  25.310   6.359  0.1646 -0.0769  0.0495
    1DIPC   GL2 5956  28.899  25.093   6.205  0.2919 -0.0765 -0.1817
    1DIPC   C1A 5957  28.597  25.274   5.900 -0.2428 -0.0726 -0.0296
    1DIPC   D2A 5958  28.712  25.233   5.493 -0.0140  0.0183  0.2618
    1DIPC   D3A 5959  28.480  25.683   5.075  0.0821  0.0633 -0.1198
    1DIPC   C4A 5960  28.250  26.031   5.250  0.0583  0.1816 -0.1928
    1DIPC   C1B 5961  28.816  24.873   5.776 -0.0799 -0.2485  0.0936
    1DIPC   D2B 5962  28.710  24.682   5.389  0.1604 -0.2711 -0.0216
    1DIPC   D3B 5963  28.438  24.507   5.624 -0.0052  0.1021 -0.3213
    1DIPC   C4B 5964  28.292  24.875   5.888 -0.0010  0.0423 -0.1950
    1DIPC   NC3 5965  28.464   5.442   5.964  0.0688  0.0290  0.0734
    1DIPC   PO4 5966  28.732   5.321   5.663  0.2991  0.1199  0.0331
    1DIPC   GL1 5967  28.864   5.125   5.363  0.0676 -0.0237  0.0602
    1DIPC   GL2 5968  29.136   5.068   5.347 -0.1331  0.0655  0.3039
    1DIPC   C1A 5969  28.827   4.992   4.974  0.1041  0.1462 -0.0767
    1DIPC   D2A 5970  28.664   4.924   4.511  0.2072  0.0730 -0.0123
    1DIPC   D3A 5971  28.905   4.511   4.340 -0.2214 -0.3485  0.0683
    1DIPC   C4A 5972  28.652   4.186   4.036  0.1413 -0.1513  0.1116
    1DIPC   C1B 5973  29.159   4.547   5.319 -0.0878 -0.2878  0.2650
    1DIPC   D2B 5974  28.997   4.235   5.325  0.1388 -0.0339 -0.0966
    1DIPC   D3B 5975  28.687   3.942   5.106  0.2078 -0.2189 -0.0696
    1DIPC   C4B 5976  28.398   4.143   5.031  0.1826 -0.1927  0.1386
    1DIPC   NC3 5977  23.612  18.004   6.769 -0.4120 -0.0568 -0.6794
    1DIPC   PO4 5978  23.184  18.075   6.972 -0.0024  0.1100 -0.1491
    1DIPC   GL1 5979  23.095  18.001   6.462 -0.2217 -0.0640  0.0453
    1DIPC   GL2 5980  23.074  18.271   6.186 -0.6756  0.1298 -0.2889
    1DIPC   C1A 5981  23.075  17.697   6.104 -0.0597 -0.1615  0.3602
    1DIPC   D2A 5982  23.124  17.494   5.730  0.1934  0.3445  0.0493
    1DIPC   D3A 5983  23.266  17.713   5.303 -0.0751  0.0535 -0.2199
    1DIPC   C4A 5984  23.223  17.525   4.874 -0.0635 -0.2095  0.0767
    1DIPC   C1B 5985  22.678  18.425   5.952 -0.3930  0.0888  0.0728
    1DIPC   D2B 5986  22.460  18.817   5.706  0.1413  0.1817  0.0085
    1DIPC   D3B 5987  22.520  18.370   5.384  0.1737  0.3933  0.2023
    1DIPC   C4B 5988  22.409  17.973   5.623 -0.1149 -0.0635  0.1319
    1DIPC   NC3 5989  22.397  19.187   7.210 -0.3642  0.0281 -0.0737
    1DIPC   PO4 5990  22.131  19.044   6.898 -0.2421  0.1096  0.0662
    1DIPC   GL1 5991  22.348  19.152   6.530  0.1594  0.2090 -0.0475
    1DIPC   GL2 5992  22.391  19.445   6.254  0.5038  0.1751  0.2508
    1DIPC   C1A 5993  22.680  18.933   6.347  0.0912  0.1838  0.0027
    1DIPC   D2A 5994  22.822  18.549   6.550 -0.0339  0.1220 -0.0933
    1DIPC   D3A 5995  22.314  18.620   6.569  0.0957  0.0763  0.1104
    1DIPC   C4A 5996  22.220  18.693   6.167  0.1457 -0.0460 -0.1707
    1DIPC   C1B 5997  22.267  19.276   5.862  0.1858  0.0688 -0.2213
    1DIPC   D2B 5998  22.326  19.234   5.483  0.1755 -0.1145  0.0713
    1DIPC   D3B 5999  22.725  19.367   5.224 -0.0091  0.1751 -0.2309
    1DIPC   C4B 6000  23.217  19.467   5.294 -0.1094 -0.1018 -0.1732
    1DIPC   NC3 6001  27.487   2.887   6.583  0.3323  0.0152  0.1234
    1DIPC   PO4 6002  27.041   2.854   6.398 -0.1773  0.1066  0.3325
    1DIPC   GL1 6003  26.913   2.980   5.927  0.2399  0.1854 -0.4208
    1DIPC   GL2 6004  27.101   3.245   5.881  0.0130  0.2588  0.0293
    1DIPC   C1A 6005  26.887   2.895   5.512 -0.0572 -0.2138 -0.2787
    1DIPC   D2A 6006  26.737   3.293   5.244 -0.0851 -0.3180 -0.1395
    1DIPC   D3A 6007  26.836   3.259   4.831 -0.0567  0.0215  0.1294
    1DIPC   C4A 6008  26.892   2.832   4.813  0.1081 -0.2154 -0.3835
    1DIPC   C1B 6009  27.169   3.532   5.475 -0.0530  0.1430  0.2770
    1DIPC   D2B 6010  27.073   3.629   5.118 -0.2497  0.0801 -0.2377
    1DIPC   D3B 6011  27.209   3.809   4.666 -0.0683 -0.1977  0.1526
    1DIPC   C4B 6012  27.589   3.539   4.459 -0.0560 -0.1128 -0.0477
    1DIPC   NC3 6013  24.326  24.528   6.453 -0.1640  0.1750 -0.2081
    1DIPC   PO4 6014  24.084  24.364   6.609 -0.2778 -0.1222 -0.2062
    1DIPC   GL1 6015  23.900  24.211   6.288 -0.1106  0.1147  0.2024
    1DIPC   GL2 6016  24.000  24.266   6.029  0.0738  0.1567  0.0546
    1DIPC   C1A 6017  23.637  23.948   5.941 -0.0814 -0.0457 -0.2847
    1DIPC   D2A 6018  23.338  23.843   5.611 -0.0015  0.0080 -0.1196
    1DIPC   D3A 6019  23.100  23.988   5.392 -0.0881 -0.1299 -0.1984
    1DIPC   C4A 6020  22.770  24.398   5.508  0.0712  0.0884 -0.2498
    1DIPC   C1B 6021  23.778  24.161   5.550 -0.1192  0.0627  0.0100
    1DIPC   D2B 6022  23.938  23.872   5.201  0.3523 -0.0195 -0.1427
    1DIPC   D3B 6023  23.827  23.778   4.862 -0.2419  0.1893  0.1861
    1DIPC   C4B 6024  23.737  24.065   4.489 -0.2435  0.0252  0.2136
    1DIPC   NC3 6025  20.092   0.872   6.294 -0.1171  0.3159 -0.2434
    1DIPC   PO4 6026  20.529   0.803   6.382 -0.1273  0.1429 -0.1806
    1DIPC   GL1 6027  20.535   0.704   5.971 -0.2339  0.2431 -0.0165
    1DIPC   GL2 6028  20.498   0.943   5.588  0.0550  0.2804  0.0719
    1DIPC   C1A 6029  20.411   0.474   5.565 -0.2247 -0.2152  0.2327
    1DIPC   D2A 6030  20.222   0.105   5.348  0.1457  0.0490  0.1850
    1DIPC   D3A 6031  20.008   0.583   5.270  0.3351 -0.0239 -0.2379
    1DIPC   C4A 6032  19.622   0.538   5.073  0.1727  0.0440  0.1059
    1DIPC   C1B 6033  20.435   0.876   5.216 -0.1425  0.0907  0.1036
    1DIPC   D2B 6034  20.490   0.415   5.006 -0.1177 -0.2112 -0.1783
    1DIPC   D3B 6035  20.105   0.224   4.920 -0.0080  0.0394  0.2280
    1DIPC   C4B 6036  19.980  -0.242   4.987  0.1494 -0.1679 -0.1225
    1DIPC   NC3 6037   6.055   0.448   7.370 -0.0584  0.1953 -0.1578
    1DIPC   PO4 6038   6.005   0.810   6.923 -0.0443 -0.0655 -0.4402
    1DIPC   GL1 6039   6.160   0.600   6.535  0.0688  0.2036 -0.1384
    1DIPC   GL2 6040   6.429   0.327   6.551  0.2465 -0.2040 -0.0323
    1DIPC   C1A 6041   5.822   0.392   6.234 -0.1332 -0.1601  0.0351
    1DIPC   D2A 6042   5.465   0.306   5.784  0.0356 -0.0154  0.2441
    1DIPC   D3A 6043   5.430   0.159   5.313 -0.1760  0.1222  0.2758
    1DIPC   C4A 6044   5.105  -0.172   5.327  0.1202  0.0851  0.0210
    1DIPC   C1B 6045   6.233   0.164   6.138  0.3851  0.0675 -0.1795
    1DIPC   D2B 6046   6.180  -0.105   5.734 -0.1140  0.0713 -0.1571
    1DIPC   D3B 6047   5.954   0.214   5.710 -0.1090 -0.2729 -0.1968
    1DIPC   C4B 6048   5.799   0.498   5.343  0.0855  0.1454  0.0505
    1DIPC   NC3 6049  27.236  15.647   5.670 -0.1292  0.1652  0.3815
    1DIPC   PO4 6050  26.837  15.458   5.755 -0.0453 -0.1949  0.2221
    1DIPC   GL1 6051  26.495  15.410   5.411  0.0358 -0.0539 -0.0525
    1DIPC   GL2 6052  26.723  15.278   5.212  0.0894  0.2090 -0.0007
    1DIPC   C1A 6053  26.206  15.760   5.221 -0.2779  0.1278  0.2087
    1DIPC   D2A 6054  26.014  16.064   4.854 -0.2225  0.0247  0.2952
    1DIPC   D3A 6055  25.979  15.612   4.671  0.0551  0.2047  0.0301
    1DIPC   C4A 6056  25.804  15.429   4.295 -0.1335  0.0048 -0.0420
    1DIPC   C1B 6057  27.014  15.433   5.011 -0.0773 -0.1446 -0.0654
    1DIPC   D2B 6058  27.273  15.326   4.613  0.1335 -0.1286  0.0491
    1DIPC   D3B 6059  27.274  15.034   4.255 -0.0162 -0.1497 -0.3204
    1DIPC   C4B 6060  27.179  15.150   3.863 -0.0132  0.1781  0.0058
    1DIPC   NC3 6061   1.744  23.911   6.089 -0.0211 -0.1307 -0.0808
    1DIPC   PO4 6062   1.770  24.217   6.406  0.2582 -0.3144 -0.0786
    1DIPC   GL1 6063   1.679  24.418   6.111  0.0476  0.0371  0.0719
    1DIPC   GL2 6064   1.882  24.420   5.844  0.0510  0.0828 -0.0876
    1DIPC   C1A 6065   1.373  24.436   5.715  0.0551  0.0662 -0.0111
    1DIPC   D2A 6066   1.320  24.257   5.279  0.1705 -0.1836  0.0582
    1DIPC   D3A 6067   1.041  24.610   5.079 -0.0254 -0.0629 -0.0076
    1DIPC   C4A 6068   0.668  24.552   4.815 -0.0792 -0.3252 -0.0290
    1DIPC   C1B 6069   1.721  24.554   5.436 -0.0716 -0.1221 -0.1411
    1DIPC   D2B 6070   1.678  24.571   4.941 -0.2564 -0.0572 -0.0268
    1DIPC   D3B 6071   1.467  24.890   4.695  0.2710  0.1883 -0.1247
    1DIPC   C4B 6072   1.583  25.319   4.761  0.3354 -0.0642 -0.1194
    1DIPC   NC3 6073   9.868  27.013   6.820 -0.1271  0.2263 -0.1247
    1DIPC   PO4 6074  10.342  26.923   7.059 -0.2014 -0.0070 -0.0813
    1DIPC   GL1 6075  10.310  26.954   6.575 -0.3094 -0.5025  0.1246
    1DIPC   GL2 6076  10.565  27.275   6.549  0.3389  0.0032 -0.1993
    1DIPC   C1A 6077  10.700  26.843   6.293  0.1219 -0.1752 -0.1761
    1DIPC   D2A 6078  11.039  26.596   6.110 -0.1043  0.3114 -0.2812
    1DIPC   D3A 6079  11.285  26.828   5.829  0.2246  0.3148 -0.1127
    1DIPC   C4A 6080  11.203  27.138   5.518 -0.0729 -0.0947  0.0050
    1DIPC   C1B 6081  10.368  27.401   6.145  0.1329 -0.2252  0.0462
    1DIPC   D2B 6082  10.234  27.145   5.985 -0.0037 -0.0648  0.3580
    1DIPC   D3B 6083  10.368  26.995   5.539  0.0890  0.3283  0.1959
    1DIPC   C4B 6084  10.760  27.133   5.313  0.1144  0.0108  0.1613
    1DIPC   NC3 6085   1.773  12.035   6.422  0.2319  0.1027 -0.2554
    1DIPC   PO4 6086   1.879  11.743   6.097  0.0770  0.0934  0.0872
    1DIPC   GL1 6087   2.073  11.762   5.661 -0.1148  0.0640  0.1310
    1DIPC   GL2 6088   2.028  11.977   5.395 -0.1556  0.3285 -0.1622
    1DIPC   C1A 6089   2.464  11.779   5.351  0.0659  0.1928 -0.0296
    1DIPC   D2A 6090   2.690  11.440   5.044  0.1175  0.1813  0.2565
    1DIPC   D3A 6091   2.678  11.871   4.854  0.0723 -0.1679  0.0110
    1DIPC   C4A 6092   2.631  12.087   4.374  0.0443 -0.0219 -0.2489
    1DIPC   C1B 6093   1.831  11.970   4.989 -0.2210  0.0186 -0.1609
    1DIPC   D2B 6094   1.586  12.122   4.753  0.2776 -0.0066  0.0005
    1DIPC   D3B 6095   1.601  12.455   5.096  0.0147  0.0156 -0.2158
    1DIPC   C4B 6096   1.961  12.561   5.052  0.1931 -0.1253  0.4005
    1DIPC   NC3 6097   3.034  11.669   6.656 -0.2124  0.1538 -0.2783
    1DIPC   PO4 6098   2.804  11.774   6.391  0.1161  0.1985 -0.0842
    1DIPC   GL1 6099   2.784  11.470   5.990 -0.1287 -0.1501 -0.0638
    1DIPC   GL2 6100   2.600  11.320   5.747 -0.1515 -0.1378  0.0909
    1DIPC   C1A 6101   2.896  11.751   5.686 -0.2040 -0.0521 -0.2293
    1DIPC   D2A 6102   2.989  11.711   5.337 -0.1049 -0.2457 -0.1167
    1DIPC   D3A 6103   2.793  12.182   5.293 -0.1606 -0.1326 -0.1704
    1DIPC   C4A 6104   3.139  12.583   5.159  0.2338 -0.0805  0.1208
    1DIPC   C1B 6105   2.874  11.255   5.464  0.1446 -0.0122 -0.3289
    1DIPC   D2B 6106   3.227  11.180   5.171 -0.0912 -0.0369  0.2803
    1DIPC   D3B 6107   3.255  11.075   4.726 -0.1333  0.0163 -0.0814
    1DIPC   C4B 6108   3.029  10.911   4.353 -0.1870 -0.0786  0.0400
    1DIPC   NC3 6109  23.366   9.984   7.092 -0.0313  0.2083  0.0132
    1DIPC   PO4 6110  23.537  10.073   6.701 -0.2798 -0.1904 -0.1729
    1DIPC   GL1 6111  23.507  10.141   6.254  0.2464 -0.0990  0.4214
    1DIPC   GL2 6112  23.542   9.805   6.025 -0.3911  0.1959  0.0237
    1DIPC   C1A 6113  23.754  10.203   5.888  0.1934 -0.0967 -0.0787
    1DIPC   D2A 6114  23.876  10.484   5.737 -0.1414 -0.0579  0.0602
    1DIPC   D3A 6115  23.912  10.345   5.388  0.1713 -0.0658  0.0149
    1DIPC   C4A 6116  23.923  10.609   5.069  0.4174 -0.0337 -0.0788
    1DIPC   C1B 6117  23.927   9.828   5.677 -0.1277 -0.0472 -0.2170
    1DIPC   D2B 6118  23.808   9.757   5.295 -0.2475  0.0073  0.0003
    1DIPC   D3B 6119  23.774  10.126   4.926  0.2581  0.2793  0.2264
    1DIPC   C4B 6120  23.457  10.049   4.767  0.0954  0.2583 -0.2167
    1DIPC   NC3 6121   6.859   6.978   7.034 -0.0165  0.2636  0.0896
    1DIPC   PO4 6122   7.310   6.995   6.952  0.1099  0.1391  0.2024
    1DIPC   GL1 6123   7.296   7.337   6.604  0.0156 -0.0066 -0.1514
    1DIPC   GL2 6124   7.511   7.611   6.648 -0.0476 -0.0268 -0.0454
    1DIPC   C1A 6125   7.269   7.505   6.181  0.4005  0.1226  0.2901
    1DIPC   D2A 6126   6.980   7.737   5.860 -0.1219 -0.1119 -0.0461
    1DIPC   D3A 6127   7.074   7.764   5.447  0.0266 -0.1042  0.1715
    1DIPC   C4A 6128   7.096   7.468   5.223  0.0476 -0.3027  0.1696
    1DIPC   C1B 6129   7.753   7.932   6.425  0.0308  0.0821 -0.4231
    1DIPC   D2B 6130   8.127   7.974   6.135 -0.0543 -0.0365 -0.0963
    1DIPC   D3B 6131   7.931   7.918   5.640 -0.1194  0.0161  0.0561
    1DIPC   C4B 6132   7.733   8.167   5.479 -0.1121  0.3051 -0.0952
    1DIPC   NC3 6133   7.638  23.696   5.766 -0.1259  0.0064  0.1176
    1DIPC   PO4 6134   7.619  24.122   5.682 -0.0115  0.0142 -0.0361
    1DIPC   GL1 6135   7.606  23.935   5.232  0.0547  0.0812  0.0270
    1DIPC   GL2 6136   7.670  24.168   5.088  0.1529  0.1056 -0.0133
    1DIPC   C1A 6137   7.500  23.691   4.860  0.0822 -0.1550  0.0255
    1DIPC   D2A 6138   7.357  23.496   4.487 -0.0254 -0.0019 -0.1445
    1DIPC   D3A 6139   7.472  23.363   4.015  0.0615 -0.0656  0.1692
    1DIPC   C4A 6140   7.894  23.445   3.818 -0.3058  0.2068  0.0876
    1DIPC   C1B 6141   7.529  24.155   4.636 -0.1754  0.1835 -0.0095
    1DIPC   D2B 6142   7.667  24.020   4.296  0.0232 -0.1039  0.0703
    1DIPC   D3B 6143   7.876  23.574   4.426 -0.0024 -0.2107 -0.2830
    1DIPC   C4B 6144   8.301  23.577   4.711  0.1244  0.4493 -0.1091
    1DIPC   NC3 6145  11.953   3.675   7.649  0.1393 -0.2593  0.1004
    1DIPC   PO4 6146  12.278   3.451   7.625 -0.1128 -0.0227  0.0914
    1DIPC   GL1 6147  12.113   3.460   7.268  0.0996 -0.2548  0.0369
    1DIPC   GL2 6148  11.905   3.744   7.111  0.1892  0.1669  0.0938
    1DIPC   C1A 6149  11.946   3.159   7.043  0.3227 -0.2109  0.0073
    1DIPC   D2A 6150  11.693   2.812   6.697  0.0509  0.0307 -0.1362
    1DIPC   D3A 6151  11.998   2.610   6.437 -0.1110  0.1941  0.2887
    1DIPC   C4A 6152  12.004   2.525   6.037  0.2297 -0.1347 -0.1754
    1DIPC   C1B 6153  11.814   3.520   6.707 -0.1345 -0.1028  0.3120
    1DIPC   D2B 6154  11.789   3.473   6.219 -0.3256 -0.0915 -0.1465
    1DIPC   D3B 6155  11.501   3.199   6.444  0.0915  0.0100  0.0044
    1DIPC   C4B 6156  10.999   3.041   6.373  0.0566  0.2183 -0.0526
    1DIPC   NC3 6157   6.403   7.617   7.203 -0.1416  0.0482 -0.1399
    1DIPC   PO4 6158   6.664   7.403   7.099  0.3805  0.2402 -0.1561
    1DIPC   GL1 6159   6.781   7.436   6.698 -0.0708 -0.0197 -0.0611
    1DIPC   GL2 6160   6.823   7.112   6.591  0.0726  0.1128  0.1012
    1DIPC   C1A 6161   6.728   7.552   6.300  0.1604 -0.3408  0.2977
    1DIPC   D2A 6162   6.591   8.054   6.059  0.0517  0.1292 -0.0585
    1DIPC   D3A 6163   6.591   8.091   5.646  0.1777  0.0193  0.2515
    1DIPC   C4A 6164   6.573   8.385   5.384 -0.1474 -0.2367 -0.0249
    1DIPC   C1B 6165   6.912   7.056   6.163  0.0766  0.2615 -0.0150
    1DIPC   D2B 6166   6.696   7.062   5.826  0.4291 -0.2234 -0.0363
    1DIPC   D3B 6167   6.301   7.163   5.459 -0.0295 -0.4583 -0.2281
    1DIPC   C4B 6168   6.198   7.641   5.371  0.0981  0.3540  0.2590
    1DIPC   NC3 6169  28.366  16.420   6.294 -0.1450  0.1204  0.0003
    1DIPC   PO4 6170  28.137  16.186   5.983  0.4805 -0.0192  0.0849
    1DIPC   GL1 6171  28.438  15.933   5.748 -0.1103  0.0605 -0.0429
    1DIPC   GL2 6172  28.828  15.998   5.675 -0.2193  0.0993  0.2227
    1DIPC   C1A 6173  28.492  15.988   5.276 -0.1719  0.2509  0.1773
    1DIPC   D2A 6174  28.541  16.316   5.078  0.1211  0.0007 -0.2016
    1DIPC   D3A 6175  28.425  16.082   4.807  0.1617 -0.0697  0.2016
    1DIPC   C4A 6176  28.802  15.883   4.588  0.1140  0.2280 -0.1306
    1DIPC   C1B 6177  28.943  15.740   5.327  0.0012  0.0672 -0.3698
    1DIPC   D2B 6178  29.308  15.466   5.098  0.1301 -0.0506 -0.0526
    1DIPC   D3B 6179  29.150  15.623   4.774 -0.2327 -0.2942  0.0188
    1DIPC   C4B 6180  29.032  15.448   4.417  0.0437  0.0692 -0.3197
    1DIPC   NC3 6181   5.244   3.389   6.728  0.0434  0.2026 -0.3224
    1DIPC   PO4 6182   5.318   2.993   6.603  0.3294 -0.2472 -0.2034
    1DIPC   GL1 6183   5.512   3.215   6.200 -0.2445 -0.1522  0.0392
    1DIPC   GL2 6184   5.282   3.465   6.292 -0.2297 -0.0492  0.1618
    1DIPC   C1A 6185   5.674   3.436   5.905 -0.2983 -0.0412  0.0660
    1DIPC   D2A 6186   5.690   3.871   5.885 -0.3229 -0.0614  0.0872
    1DIPC   D3A 6187   5.734   3.915   5.435 -0.1099  0.0645 -0.1136
    1DIPC   C4A 6188   6.085   3.902   5.252  0.0340  0.0071 -0.1502
    1DIPC   C1B 6189   5.066   3.353   5.950 -0.1604  0.0914 -0.1833
    1DIPC   D2B 6190   4.658   3.326   5.968  0.1643 -0.1382  0.0834
    1DIPC   D3B 6191   4.797   3.753   5.689  0.0455 -0.0719 -0.1269
    1DIPC   C4B 6192   4.926   3.812   5.265  0.0695  0.0235  0.0856
    1DIPC   NC3 6193  24.626  17.808   6.477  0.2976 -0.3220 -0.2634
    1DIPC   PO4 6194  25.007  17.770   6.532  0.0283  0.3762  0.1529
    1DIPC   GL1 6195  24.788  17.922   6.061  0.1104  0.1919 -0.1617
    1DIPC   GL2 6196  24.618  17.663   5.953  0.0499 -0.0013  0.1095
    1DIPC   C1A 6197  24.569  18.190   5.776 -0.0005 -0.1216  0.0135
    1DIPC   D2A 6198  24.138  18.006   5.528 -0.1580 -0.2930 -0.2138
    1DIPC   D3A 6199  24.143  17.981   5.089  0.0149 -0.0099 -0.0286
    1DIPC   C4A 6200  24.486  17.684   4.941  0.1807  0.0956  0.4357
    1DIPC   C1B 6201  24.480  17.676   5.640 -0.1976  0.1116  0.0626
    1DIPC   D2B 6202  24.185  17.456   5.356 -0.0152 -0.3263  0.2326
    1DIPC   D3B 6203  24.027  17.426   4.884 -0.2180  0.3624 -0.3796
    1DIPC   C4B 6204  23.883  17.002   4.799  0.1199 -0.0905  0.0866
    1DIPC   NC3 6205   5.870  21.770   5.938 -0.1736  0.2130 -0.3051
    1DIPC   PO4 6206   5.969  21.481   5.663  0.0333  0.2297 -0.2631
    1DIPC   GL1 6207   6.258  21.613   5.358 -0.1344  0.1520 -0.0924
    1DIPC   GL2 6208   6.598  21.504   5.411 -0.2919  0.0611  0.1528
    1DIPC   C1A 6209   6.483  21.738   4.993  0.1217 -0.2118  0.0457
    1DIPC   D2A 6210   6.784  21.644   4.852 -0.1167 -0.2914  0.1660
    1DIPC   D3A 6211   6.867  21.970   4.464 -0.1699 -0.2348  0.0349
    1DIPC   C4A 6212   7.069  22.329   4.538 -0.0431  0.0261 -0.2044
    1DIPC   C1B 6213   6.989  21.729   5.274 -0.4320  0.1286 -0.1870
    1DIPC   D2B 6214   7.099  22.145   5.100 -0.2644  0.2662 -0.0681
    1DIPC   D3B 6215   7.370  21.977   4.869 -0.1519  0.0430 -0.2106
    1DIPC   C4B 6216   7.748  22.135   4.889 -0.2447  0.1353  0.1333
    1DIPC   NC3 6217  21.523   3.358   7.176 -0.0131  0.1848  0.0459
    1DIPC   PO4 6218  21.173   3.494   6.982  0.0212  0.2491  0.1836
    1DIPC   GL1 6219  21.153   3.666   6.575 -0.0476 -0.0629 -0.2046
    1DIPC   GL2 6220  21.089   3.266   6.460 -0.0286  0.0984 -0.0072
    1DIPC   C1A 6221  21.177   3.714   6.177 -0.1701  0.1600  0.2572
    1DIPC   D2A 6222  20.691   4.050   5.984 -0.1318  0.2780 -0.3174
    1DIPC   D3A 6223  20.608   3.865   6.335  0.3594 -0.0791  0.1306
    1DIPC   C4A 6224  20.701   3.546   6.407 -0.0567  0.2389 -0.0632
    1DIPC   C1B 6225  20.961   3.234   6.056 -0.1538  0.1225  0.2661
    1DIPC   D2B 6226  21.098   3.050   5.638 -0.0281  0.2324  0.0652
    1DIPC   D3B 6227  21.296   2.690   5.860  0.2712  0.1190 -0.1703
    1DIPC   C4B 6228  21.480   2.425   5.687 -0.0076 -0.4059 -0.2487
    1DIPC   NC3 6229  27.912  17.265   5.959 -0.2271 -0.3252  0.2955
    1DIPC   PO4 6230  27.634  16.969   6.219  0.1871  0.0602  0.2140
    1DIPC   GL1 6231  27.537  17.000   5.834 -0.0420  0.3450  0.3791
    1DIPC   GL2 6232  27.391  16.710   5.643 -0.0153  0.0286 -0.1975
    1DIPC   C1A 6233  27.429  17.254   5.457  0.2359  0.0294  0.0031
    1DIPC   D2A 6234  27.186  17.409   5.258 -0.1713  0.1907 -0.2979
    1DIPC   D3A 6235  27.279  17.045   4.964 -0.1654  0.0673  0.1906
    1DIPC   C4A 6236  27.326  16.932   4.467 -0.2779 -0.0603 -0.4752
    1DIPC   C1B 6237  27.463  16.599   5.160 -0.0383 -0.0209 -0.1016
    1DIPC   D2B 6238  27.546  16.301   4.786  0.0508 -0.0799 -0.3105
    1DIPC   D3B 6239  27.811  16.653   4.529  0.0883 -0.1322 -0.4832
    1DIPC   C4B 6240  27.598  16.666   4.171  0.0569  0.0102  0.0342
    1DIPC   NC3 6241  19.589  25.096   6.794 -0.5696 -0.1233  0.0364
    1DIPC   PO4 6242  19.407  24.760   6.590 -0.1999  0.4805 -0.0763
    1DIPC   GL1 6243  19.173  24.627   6.190 -0.2708 -0.0470  0.0201
    1DIPC   GL2 6244  19.466  24.720   6.070  0.0580 -0.0531  0.2414
    1DIPC   C1A 6245  18.900  24.653   6.012  0.0565  0.2195 -0.0253
    1DIPC   D2A 6246  18.666  24.340   5.769 -0.0578 -0.2183  0.0404
    1DIPC   D3A 6247  18.979  23.903   5.850 -0.0558 -0.0634  0.2659
    1DIPC   C4A 6248  19.332  24.085   5.966 -0.2686 -0.3993 -0.1015
    1DIPC   C1B 6249  19.671  24.632   5.700 -0.0342  0.1823  0.0081
    1DIPC   D2B 6250  20.073  24.589   5.399  0.3088 -0.2672 -0.2118
    1DIPC   D3B 6251  19.871  24.310   4.882 -0.1187  0.1265 -0.0473
    1DIPC   C4B 6252  19.426  24.042   4.976  0.1274  0.0249 -0.2147
    1DIPC   NC3 6253  21.259  26.545   6.815  0.2601  0.0625 -0.1617
    1DIPC   PO4 6254  21.223  26.610   6.334 -0.3607 -0.0672  0.2679
    1DIPC   GL1 6255  21.300  26.501   5.972  0.2411 -0.1720  0.1740
    1DIPC   GL2 6256  21.180  26.257   5.880 -0.0502  0.1362 -0.0842
    1DIPC   C1A 6257  21.633  26.495   5.709  0.0959 -0.0585 -0.2756
    1DIPC   D2A 6258  21.976  26.260   5.702 -0.3656  0.2608 -0.1014
    1DIPC   D3A 6259  22.337  26.533   5.433  0.2224  0.1696 -0.0547
    1DIPC   C4A 6260  22.358  26.585   4.979 -0.0939 -0.2054 -0.2556
    1DIPC   C1B 6261  21.555  25.949   5.852 -0.2900  0.1022 -0.0147
    1DIPC   D2B 6262  21.915  25.750   5.775  0.0960 -0.0932 -0.0979
    1DIPC   D3B 6263  22.015  25.923   5.322  0.1321  0.1217  0.1278
    1DIPC   C4B 6264  21.962  25.578   5.017 -0.1728 -0.1033 -0.3039
    1DIPC   NC3 6265   6.093  14.091   6.853 -0.0660 -0.1307 -0.1306
    1DIPC   PO4 6266   5.865  14.430   6.723  0.0531  0.0135 -0.0679
    1DIPC   GL1 6267   6.079  14.188   6.383  0.1585 -0.0493 -0.1346
    1DIPC   GL2 6268   6.448  14.080   6.396 -0.0458  0.2656 -0.1663
    1DIPC   C1A 6269   6.082  14.156   5.975 -0.0620 -0.0859 -0.0917
    1DIPC   D2A 6270   6.047  13.814   5.607  0.3102  0.1022  0.0039
    1DIPC   D3A 6271   5.655  13.659   5.375 -0.0320  0.4134 -0.1692
    1DIPC   C4A 6272   5.390  13.395   5.501  0.2036 -0.2180  0.0251
    1DIPC   C1B 6273   6.525  14.384   6.035 -0.0382 -0.1049 -0.0813
    1DIPC   D2B 6274   6.653  14.782   5.847 -0.2557  0.0558 -0.0996
    1DIPC   D3B 6275   6.729  14.704   5.499  0.1204 -0.2362 -0.0636
    1DIPC   C4B 6276   6.542  14.548   5.101 -0.1314  0.0267 -0.4407
    1DIPC   NC3 6277   2.730   7.329   6.394 -0.2213 -0.0913  0.3505
    1DIPC   PO4 6278   3.061   7.597   6.360  0.0375  0.1185 -0.1035
    1DIPC   GL1 6279   3.167   7.461   5.942 -0.1585 -0.0342 -0.2481
    1DIPC   GL2 6280   2.933   7.695   5.888  0.2277 -0.2454  0.3269
    1DIPC   C1A 6281   3.287   7.526   5.504 -0.1407 -0.6424 -0.2409
    1DIPC   D2A 6282   3.357   7.382   5.119 -0.1955  0.1324 -0.0739
    1DIPC   D3A 6283   3.602   7.618   4.674  0.0481  0.0163  0.0251
    1DIPC   C4A 6284   4.047   7.417   4.573 -0.0171  0.0700 -0.0889
    1DIPC   C1B 6285   2.457   7.691   5.771 -0.2839 -0.0768 -0.1272
    1DIPC   D2B 6286   2.080   7.334   5.811  0.0451 -0.1476  0.0595
    1DIPC   D3B 6287   2.481   7.241   5.864  0.0867  0.0666  0.1683
    1DIPC   C4B 6288   2.774   7.281   5.577 -0.0444 -0.4347  0.0207
    1DIPC   NC3 6289  23.769  27.549   6.617  0.0200  0.1363  0.0271
    1DIPC   PO4 6290  24.273  27.490   6.675  0.1961  0.0970  0.0949
    1DIPC   GL1 6291  24.584  27.613   6.344  0.4131 -0.1740 -0.2202
    1DIPC   GL2 6292  24.894  27.680   6.377 -0.0992 -0.3280  0.2142
    1DIPC   C1A 6293  24.600  27.833   5.906 -0.1639  0.0666 -0.0661
    1DIPC   D2A 6294  24.755  27.867   5.493  0.0500  0.0669 -0.1647
    1DIPC   D3A 6295  25.183  28.167   5.662 -0.2842 -0.0859  0.0317
    1DIPC   C4A 6296  25.642  27.996   5.824  0.2269  0.4504 -0.0498
    1DIPC   C1B 6297  24.972  27.207   6.321 -0.1484 -0.1176 -0.0163
    1DIPC   D2B 6298  25.027  26.814   6.367  0.0202  0.1549  0.1787
    1DIPC   D3B 6299  25.414  26.940   6.111  0.1146  0.0640  0.5261
    1DIPC   C4B 6300  25.242  27.240   5.834 -0.0756  0.2700  0.0692
    1DIPC   NC3 6301   7.221   8.405   6.958 -0.3137 -0.3139 -0.1085
    1DIPC   PO4 6302   6.770   8.363   6.806  0.0806 -0.0070  0.1713
    1DIPC   GL1 6303   6.900   8.385   6.392 -0.2414 -0.0633  0.2649
    1DIPC   GL2 6304   7.147   8.587   6.507  0.1215  0.1760 -0.1820
    1DIPC   C1A 6305   7.031   8.313   5.960 -0.3597 -0.0151  0.0597
    1DIPC   D2A 6306   7.247   8.183   5.658 -0.0207  0.0917 -0.1392
    1DIPC   D3A 6307   7.009   8.178   5.263 -0.0444 -0.1319  0.1260
    1DIPC   C4A 6308   6.657   7.902   5.196  0.1784  0.0566  0.0957
    1DIPC   C1B 6309   7.492   8.477   6.203 -0.3630  0.0162 -0.3800
    1DIPC   D2B 6310   7.736   8.399   5.913  0.3637  0.1259 -0.0693
    1DIPC   D3B 6311   7.972   8.409   6.286  0.0039  0.4362  0.2601
    1DIPC   C4B 6312   8.371   8.480   6.229  0.0015 -0.0695  0.0924
    1DIPC   NC3 6313   7.288  12.986   6.861 -0.1487  0.3314  0.0921
    1DIPC   PO4 6314   7.433  12.777   7.272 -0.0987 -0.3051  0.0780
    1DIPC   GL1 6315   7.175  12.428   6.890 -0.3262  0.1414  0.1124
    1DIPC   GL2 6316   7.179  12.099   6.852 -0.0429 -0.3316  0.0702
    1DIPC   C1A 6317   7.332  12.308   6.420  0.1171 -0.2644  0.1387
    1DIPC   D2A 6318   7.718  12.073   6.449  0.2783 -0.2671 -0.2453
    1DIPC   D3A 6319   7.761  12.067   6.117 -0.2620 -0.1047 -0.1015
    1DIPC   C4A 6320   7.457  12.206   5.791 -0.1791 -0.0265 -0.2228
    1DIPC   C1B 6321   6.805  12.185   6.479  0.2926  0.3108 -0.1531
    1DIPC   D2B 6322   6.488  12.471   6.330  0.1800 -0.0412 -0.3565
    1DIPC   D3B 6323   6.632  12.268   6.000 -0.0411 -0.1304 -0.0507
    1DIPC   C4B 6324   7.018  12.353   6.057 -0.5559 -0.1984 -0.1360
    1DIPC   NC3 6325  19.981   1.576   6.204  0.1208 -0.0133  0.1000
    1DIPC   PO4 6326  19.801   1.453   6.634 -0.2108  0.3046  0.0155
    1DIPC   GL1 6327  19.565   1.204   6.319  0.0055 -0.0260  0.0961
    1DIPC   GL2 6328  19.211   1.239   6.373  0.1103 -0.0293  0.3612
    1DIPC   C1A 6329  19.480   0.986   5.978 -0.0026  0.1580 -0.0166
    1DIPC   D2A 6330  19.629   0.809   5.549 -0.2369 -0.0048 -0.1990
    1DIPC   D3A 6331  19.923   0.630   5.736  0.2627 -0.0118  0.0908
    1DIPC   C4A 6332  20.071   0.203   5.924  0.1222  0.3104 -0.0340
    1DIPC   C1B 6333  18.733   1.287   6.200 -0.1150 -0.1610 -0.2128
    1DIPC   D2B 6334  18.263   1.166   6.059  0.3002  0.3001 -0.0920
    1DIPC   D3B 6335  18.034   1.404   5.694  0.1265  0.2529 -0.1723
    1DIPC   C4B 6336  17.507   1.428   5.607  0.0262  0.2554 -0.1941
    1DIPC   NC3 6337   6.277  25.584   6.808 -0.1725 -0.3268  0.0224
    1DIPC   PO4 6338   5.862  25.529   6.674  0.2041 -0.2033  0.2400
    1DIPC   GL1 6339   6.172  25.461   6.281  0.0347 -0.0793 -0.2575
    1DIPC   GL2 6340   6.190  25.602   5.930  0.2348  0.0445  0.0581
    1DIPC   C1A 6341   6.562  25.283   6.223 -0.2155  0.0860  0.1383
    1DIPC   D2A 6342   6.798  25.151   5.863 -0.0410 -0.0273  0.3221
    1DIPC   D3A 6343   7.014  25.403   6.115 -0.1227  0.1282  0.0200
    1DIPC   C4A 6344   7.078  25.795   6.181  0.1766 -0.1297  0.1075
    1DIPC   C1B 6345   6.213  25.674   5.432 -0.0932 -0.3451  0.2131
    1DIPC   D2B 6346   6.599  25.664   5.288 -0.0491 -0.0387 -0.0144
    1DIPC   D3B 6347   6.573  26.123   5.362 -0.0554  0.3868  0.1264
    1DIPC   C4B 6348   6.371  26.419   5.165 -0.0205 -0.2874 -0.2399
    1DIPC   NC3 6349  27.317   8.859   6.137 -0.1061 -0.0772 -0.4238
    1DIPC   PO4 6350  27.324   9.244   5.969  0.3142  0.1035 -0.3175
    1DIPC   GL1 6351  27.760   9.248   5.722  0.0446 -0.0999  0.0043
    1DIPC   GL2 6352  27.897   8.783   5.615 -0.1042 -0.0759  0.1461
    1DIPC   C1A 6353  27.769   9.487   5.185 -0.0263 -0.2003 -0.1022
    1DIPC   D2A 6354  27.636   9.654   4.830 -0.0151 -0.1379  0.0155
    1DIPC   D3A 6355  27.353   9.620   4.522 -0.3836 -0.0050  0.3057
    1DIPC   C4A 6356  27.396   9.333   4.130 -0.0978  0.2026 -0.1085
    1DIPC   C1B 6357  27.608   9.045   5.255  0.2080 -0.3681  0.2332
    1DIPC   D2B 6358  27.170   8.940   5.317 -0.0736  0.1554 -0.2214
    1DIPC   D3B 6359  26.945   8.865   5.015  0.2349  0.1021 -0.2674
    1DIPC   C4B 6360  27.118   8.842   4.689  0.1875 -0.0975 -0.3747
    1DIPC   NC3 6361  17.169  23.117   7.136  0.0924  0.2363 -0.4267
    1DIPC   PO4 6362  16.786  22.928   7.238 -0.3289 -0.0261 -0.0551
    1DIPC   GL1 6363  16.766  23.136   6.863  0.2280 -0.0786 -0.2564
    1DIPC   GL2 6364  16.582  23.302   6.948 -0.1123 -0.0779  0.3981
    1DIPC   C1A 6365  16.703  23.003   6.475 -0.0437 -0.0724  0.0056
    1DIPC   D2A 6366  16.978  22.881   6.130  0.0685 -0.0415 -0.0373
    1DIPC   D3A 6367  17.331  23.123   6.166  0.0865  0.0135  0.1649
    1DIPC   C4A 6368  17.488  23.466   6.500 -0.0839  0.1886 -0.2091
    1DIPC   C1B 6369  16.426  23.480   6.481 -0.0192 -0.2841  0.0380
    1DIPC   D2B 6370  16.286  23.894   6.372 -0.1122 -0.2326 -0.1431
    1DIPC   D3B 6371  16.292  23.935   5.922  0.0827  0.0457  0.0696
    1DIPC   C4B 6372  16.166  24.175   5.661  0.0718 -0.0640 -0.0560
    1DIPC   NC3 6373  16.747   1.564   7.264  0.0008  0.2519  0.3259
    1DIPC   PO4 6374  16.425   1.872   7.441 -0.0228  0.0695 -0.1958
    1DIPC   GL1 6375  16.507   1.826   6.893 -0.0989  0.1990 -0.0209
    1DIPC   GL2 6376  16.208   1.641   6.782 -0.2408 -0.0705 -0.0644
    1DIPC   C1A 6377  16.628   1.628   6.521 -0.1530  0.1357 -0.1155
    1DIPC   D2A 6378  16.629   1.493   6.081 -0.2327  0.0204  0.0423
    1DIPC   D3A 6379  16.282   1.761   6.148 -0.3458  0.0934  0.0722
    1DIPC   C4A 6380  16.193   1.892   5.745  0.0865 -0.1107 -0.1796
    1DIPC   C1B 6381  16.145   1.327   6.379 -0.3907 -0.2615 -0.2987
    1DIPC   D2B 6382  16.142   0.964   6.281 -0.2282  0.0020 -0.0270
    1DIPC   D3B 6383  16.208   1.000   5.800 -0.2364  0.2400  0.1775
    1DIPC   C4B 6384  16.367   1.417   5.564  0.1446 -0.0825  0.3048
    1DIPC   NC3 6385  18.824   2.209   6.585  0.0633  0.0779  0.1607
    1DIPC   PO4 6386  19.158   2.339   6.417 -0.1540  0.1748  0.2390
    1DIPC   GL1 6387  19.053   2.053   6.059  0.0164  0.1382 -0.0907
    1DIPC   GL2 6388  19.239   2.096   5.738  0.0189 -0.0887  0.0720
    1DIPC   C1A 6389  18.792   1.759   5.904 -0.2184  0.1915 -0.0518
    1DIPC   D2A 6390  18.629   1.388   5.747 -0.2984 -0.0427 -0.0498
    1DIPC   D3A 6391  18.649   1.002   5.433  0.0748  0.1083 -0.1603
    1DIPC   C4A 6392  18.910   0.814   5.174 -0.1673 -0.2429 -0.1039
    1DIPC   C1B 6393  19.059   2.263   5.393 -0.0529 -0.0600 -0.0033
    1DIPC   D2B 6394  18.914   2.555   5.092 -0.0245  0.0199 -0.2641
    1DIPC   D3B 6395  18.960   3.078   5.189  0.4332  0.1738  0.0425
    1DIPC   C4B 6396  19.344   3.253   4.925 -0.0647  0.0462 -0.3493
    1DIPC   NC3 6397  19.086  23.196   7.030  0.1834  0.0004 -0.0359
    1DIPC   PO4 6398  18.712  23.017   7.113  0.0383  0.0263  0.0263
    1DIPC   GL1 6399  18.829  22.947   6.660  0.4342  0.1054 -0.4176
    1DIPC   GL2 6400  18.727  23.220   6.551 -0.2226 -0.0479 -0.3260
    1DIPC   C1A 6401  18.670  22.742   6.258 -0.3592 -0.0811 -0.0225
    1DIPC   D2A 6402  18.732  22.652   5.849 -0.0943  0.0051  0.2911
    1DIPC   D3A 6403  19.168  22.665   6.048  0.2226 -0.0685 -0.2791
    1DIPC   C4A 6404  19.152  22.763   6.368  0.0510 -0.0938  0.2015
    1DIPC   C1B 6405  18.788  23.180   6.077  0.0028 -0.0954  0.1048
    1DIPC   D2B 6406  19.071  23.424   5.754  0.2180 -0.0494 -0.2100
    1DIPC   D3B 6407  19.034  22.945   5.624 -0.0484 -0.4474  0.0827
    1DIPC   C4B 6408  18.811  22.574   5.344  0.3177  0.0542 -0.0641
    1DIPC   NC3 6409  26.655  11.351   6.431 -0.4745 -0.3936 -0.0230
    1DIPC   PO4 6410  27.011  11.144   6.157 -0.0851  0.2937  0.0415
    1DIPC   GL1 6411  27.030  11.315   5.797  0.1614 -0.1808  0.3688
    1DIPC   GL2 6412  26.950  11.120   5.622  0.1429 -0.0528  0.2212
    1DIPC   C1A 6413  27.061  11.548   5.419 -0.0942 -0.1128 -0.0349
    1DIPC   D2A 6414  27.214  11.870   5.107 -0.1172 -0.1161 -0.0393
    1DIPC   D3A 6415  27.200  11.422   4.922 -0.0305 -0.1523  0.0602
    1DIPC   C4A 6416  26.839  11.218   4.692  0.1394 -0.3012  0.4216
    1DIPC   C1B 6417  26.889  11.106   5.228 -0.1132 -0.0483  0.1646
    1DIPC   D2B 6418  26.885  10.761   4.972  0.2412  0.1830  0.3817
    1DIPC   D3B 6419  27.259  10.708   5.265  0.2381 -0.0547  0.0841
    1DIPC   C4B 6420  27.368  11.126   5.388 -0.6275  0.3688  0.1005
    1DIPC   NC3 6421  23.762  22.303   6.762  0.4161  0.0203 -0.1592
    1DIPC   PO4 6422  23.408  22.656   6.763 -0.2970 -0.0887  0.0625
    1DIPC   GL1 6423  23.387  22.662   6.419 -0.0140 -0.2824  0.1726
    1DIPC   GL2 6424  23.069  22.718   6.196  0.1123 -0.0379 -0.0084
    1DIPC   C1A 6425  23.651  22.604   5.988 -0.0346 -0.2085 -0.2169
    1DIPC   D2A 6426  23.977  22.425   5.987 -0.1627  0.1426 -0.0976
    1DIPC   D3A 6427  23.691  22.230   6.243  0.0549  0.2517  0.3393
    1DIPC   C4A 6428  23.281  22.171   6.222 -0.2484  0.1698  0.2387
    1DIPC   C1B 6429  22.743  22.643   5.964 -0.5020  0.1318 -0.1975
    1DIPC   D2B 6430  22.470  22.916   5.849  0.0429 -0.4848  0.3954
    1DIPC   D3B 6431  22.596  23.126   5.533  0.0025  0.0885 -0.1378
    1DIPC   C4B 6432  22.424  23.232   5.164  0.1099  0.0584 -0.0273
    1DIPC   NC3 6433   2.003  27.154   6.515  0.1591  0.5599  0.0865
    1DIPC   PO4 6434   2.492  26.977   6.608  0.0892 -0.2260 -0.1161
    1DIPC   GL1 6435   2.550  26.780   6.242 -0.1216  0.2606  0.2912
    1DIPC   GL2 6436   2.859  26.717   6.247 -0.0003  0.1010  0.2577
    1DIPC   C1A 6437   2.460  26.482   5.936 -0.1057 -0.1779  0.0313
    1DIPC   D2A 6438   2.690  26.299   5.536 -0.2704  0.2597  0.1025
    1DIPC   D3A 6439   2.779  25.821   5.320 -0.0234  0.0599  0.2903
    1DIPC   C4A 6440   2.646  25.807   4.924  0.1407 -0.2193  0.1256
    1DIPC   C1B 6441   2.943  26.636   5.813  0.1684 -0.0311 -0.0532
    1DIPC   D2B 6442   2.770  26.808   5.538  0.3883 -0.0176 -0.2628
    1DIPC   D3B 6443   2.962  26.656   5.130 -0.0269 -0.0470 -0.4380
    1DIPC   C4B 6444   2.943  26.277   5.085 -0.3127 -0.0199  0.2233
    1DIPC   NC3 6445  23.830   9.807   6.495  0.2660  0.3616 -0.0217
    1DIPC   PO4 6446  23.572   9.400   6.410  0.0233 -0.0873 -0.1943
    1DIPC   GL1 6447  23.354   9.202   6.034  0.1711 -0.0847  0.0069
    1DIPC   GL2 6448  23.089   9.463   6.013  0.1516  0.4488  0.0195
    1DIPC   C1A 6449  23.325   9.015   5.627  0.2445 -0.4119  0.2420
    1DIPC   D2A 6450  23.171   8.874   5.272 -0.1020  0.1363  0.0725
    1DIPC   D3A 6451  22.864   8.675   5.134 -0.0645  0.2347 -0.4621
    1DIPC   C4A 6452  22.817   8.287   4.942 -0.1833 -0.1721  0.0803
    1DIPC   C1B 6453  23.196   9.489   5.564  0.1542 -0.0605 -0.1077
    1DIPC   D2B 6454  23.069   9.343   5.171  0.1631 -0.1369  0.0167
    1DIPC   D3B 6455  22.705   9.424   4.951  0.2763 -0.0614 -0.1472
    1DIPC   C4B 6456  22.408   9.176   4.796  0.1647  0.0940  0.0951
    1DIPC   NC3 6457  11.699  21.002   6.842  0.1288  0.3203 -0.0904
    1DIPC   PO4 6458  11.501  21.360   6.993  0.1272 -0.2174  0.0254
    1DIPC   GL1 6459  11.621  21.371   6.532 -0.0152  0.0042  0.2887
    1DIPC   GL2 6460  11.542  21.676   6.262  0.1713 -0.0866  0.1069
    1DIPC   C1A 6461  11.769  21.262   6.174 -0.3621  0.0220  0.2048
    1DIPC   D2A 6462  11.916  21.205   5.715  0.3025 -0.0949 -0.1315
    1DIPC   D3A 6463  11.903  21.075   5.370  0.1092 -0.1202 -0.1625
    1DIPC   C4A 6464  11.823  21.292   5.042 -0.1719 -0.0245 -0.1131
    1DIPC   C1B 6465  11.641  21.687   5.778 -0.1056  0.0818  0.0057
    1DIPC   D2B 6466  11.911  21.637   5.466 -0.0105 -0.2993 -0.1618
    1DIPC   D3B 6467  12.292  21.866   5.389 -0.0209 -0.1730 -0.2244
    1DIPC   C4B 6468  12.673  21.658   5.397 -0.0021 -0.0823  0.3307
    1DIPC   NC3 6469  26.705  17.493   6.003  0.0283  0.0340  0.0171
    1DIPC   PO4 6470  27.012  17.827   6.101 -0.1931 -0.1886 -0.2017
    1DIPC   GL1 6471  27.037  17.948   5.729  0.3875 -0.2128 -0.1615
    1DIPC   GL2 6472  27.271  18.152   5.751 -0.2077 -0.0702 -0.4225
    1DIPC   C1A 6473  26.803  18.036   5.410  0.0408  0.4463 -0.0806
    1DIPC   D2A 6474  26.477  18.095   5.121  0.2868 -0.2478  0.1518
    1DIPC   D3A 6475  26.629  18.488   5.159  0.3624  0.0938 -0.5300
    1DIPC   C4A 6476  26.971  18.486   5.472  0.0479  0.0385 -0.0448
    1DIPC   C1B 6477  27.537  18.331   5.539  0.0754 -0.0663  0.0608
    1DIPC   D2B 6478  27.652  18.766   5.482 -0.0616  0.0375  0.3381
    1DIPC   D3B 6479  27.428  18.641   5.107  0.1891  0.2381  0.1245
    1DIPC   C4B 6480  27.633  18.701   4.731  0.2290  0.2806  0.0302
    1DIPC   NC3 6481   2.306  11.098   7.059  0.2523 -0.1831 -0.3591
    1DIPC   PO4 6482   2.285  11.048   6.578 -0.1156 -0.2338 -0.0921
    1DIPC   GL1 6483   2.176  10.749   6.267  0.1971 -0.0488 -0.5125
    1DIPC   GL2 6484   1.809  10.783   6.184  0.1381  0.1177  0.0715
    1DIPC   C1A 6485   2.350  10.846   5.819 -0.2586  0.3539  0.2628
    1DIPC   D2A 6486   2.697  10.741   5.522 -0.1149 -0.1267  0.0969
    1DIPC   D3A 6487   2.932  10.707   5.144 -0.3760  0.3043  0.0478
    1DIPC   C4A 6488   3.147  10.601   4.732 -0.0301  0.1965 -0.2554
    1DIPC   C1B 6489   1.776  10.835   5.737 -0.0992 -0.0971 -0.0371
    1DIPC   D2B 6490   1.958  10.875   5.407  0.3861 -0.1884  0.4466
    1DIPC   D3B 6491   1.605  11.163   5.371 -0.1980 -0.0993  0.2453
    1DIPC   C4B 6492   1.229  11.010   5.170  0.0327 -0.2196  0.1909
    1DIPC   NC3 6493   4.398  15.792   7.010  0.0262  0.0086 -0.1395
    1DIPC   PO4 6494   4.754  15.631   6.695  0.1865 -0.0115  0.0556
    1DIPC   GL1 6495   4.727  15.700   6.209 -0.1044 -0.1693  0.1018
    1DIPC   GL2 6496   4.681  16.009   6.092  0.0285  0.1629  0.4008
    1DIPC   C1A 6497   4.741  15.507   5.758  0.2438 -0.0050 -0.1729
    1DIPC   D2A 6498   4.518  15.698   5.485  0.1052  0.0115  0.0778
    1DIPC   D3A 6499   4.843  15.813   5.320  0.0065  0.2871 -0.2221
    1DIPC   C4A 6500   5.134  15.484   5.494 -0.0909  0.1427  0.2643
    1DIPC   C1B 6501   4.883  16.057   5.766  0.0635 -0.1303 -0.2937
    1DIPC   D2B 6502   5.212  16.266   5.600  0.3468  0.0471  0.1884
    1DIPC   D3B 6503   5.302  16.055   5.281 -0.0167  0.1181  0.0643
    1DIPC   C4B 6504   5.425  16.149   4.873  0.2209  0.0976 -0.0563
    1DIPC   NC3 6505   9.037   6.665   7.729 -0.1790  0.0519 -0.0476
    1DIPC   PO4 6506   9.321   6.801   7.398  0.2890 -0.0787  0.0387
    1DIPC   GL1 6507   9.181   6.896   6.997  0.0821 -0.0002 -0.0698
    1DIPC   GL2 6508   9.171   6.571   6.800 -0.0707 -0.1017  0.2472
    1DIPC   C1A 6509   9.400   6.967   6.519 -0.1412  0.1027  0.0296
    1DIPC   D2A 6510   9.745   6.889   6.112  0.2262  0.0312  0.3041
    1DIPC   D3A 6511   9.730   7.299   5.766  0.3735  0.0902  0.0292
    1DIPC   C4A 6512   9.599   7.147   5.360  0.0081 -0.0831 -0.0136
    1DIPC   C1B 6513   9.128   6.578   6.282 -0.0076 -0.3316 -0.2641
    1DIPC   D2B 6514   9.103   6.389   6.013 -0.1506 -0.2544  0.0666
    1DIPC   D3B 6515   9.504   6.387   5.987 -0.0280  0.1042 -0.0273
    1DIPC   C4B 6516   9.689   5.986   6.025  0.0811 -0.1437 -0.2353
    1DIPC   NC3 6517  28.219  26.394   6.932  0.3745  0.1785 -0.0652
    1DIPC   PO4 6518  28.514  26.127   6.763 -0.1269 -0.1150 -0.2808
    1DIPC   GL1 6519  28.533  26.544   6.610 -0.0747 -0.0269 -0.2426
    1DIPC   GL2 6520  28.390  26.768   6.712 -0.1472 -0.0887  0.1793
    1DIPC   C1A 6521  28.692  26.521   6.215  0.0221 -0.0970 -0.0138
    1DIPC   D2A 6522  29.016  26.831   6.141 -0.0212 -0.1809  0.1136
    1DIPC   D3A 6523  28.824  26.896   5.646  0.0778  0.1814 -0.1819
    1DIPC   C4A 6524  29.016  27.025   5.293 -0.1769 -0.1479 -0.1027
    1DIPC   C1B 6525  28.583  27.005   6.292 -0.1067  0.2876  0.2368
    1DIPC   D2B 6526  28.398  27.339   6.164  0.0347 -0.4267  0.0690
    1DIPC   D3B 6527  28.581  27.606   5.847 -0.0070  0.0491 -0.1060
    1DIPC   C4B 6528  28.325  27.586   5.491 -0.3339 -0.0093 -0.1142
    1DIPC   NC3 6529  16.341  26.852   6.773  0.0750  0.0956 -0.0194
    1DIPC   PO4 6530  16.131  26.665   6.444 -0.1368 -0.0794 -0.0405
    1DIPC   GL1 6531  16.228  26.426   6.143  0.1619 -0.0766  0.0065
    1DIPC   GL2 6532  15.981  26.208   6.086  0.3017 -0.1923  0.2082
    1DIPC   C1A 6533  16.233  26.548   5.764  0.0311 -0.0146 -0.0696
    1DIPC   D2A 6534  15.735  26.636   5.514  0.2391 -0.0672  0.1282
    1DIPC   D3A 6535  15.798  26.950   5.312  0.1105 -0.1634 -0.0805
    1DIPC   C4A 6536  16.007  27.315   5.371  0.0498 -0.1759 -0.0568
    1DIPC   C1B 6537  16.012  25.993   5.793  0.2169 -0.0150 -0.0212
    1DIPC   D2B 6538  16.063  25.624   5.577  0.0924  0.0223  0.1110
    1DIPC   D3B 6539  16.490  25.560   5.492  0.1986 -0.2895 -0.2300
    1DIPC   C4B 6540  16.778  25.812   5.619  0.2375  0.1409  0.3078
    1DIPC   NC3 6541  21.890   8.815   7.119  0.1970  0.0030 -0.0434
    1DIPC   PO4 6542  21.667   8.462   7.184  0.1533  0.1360 -0.0647
    1DIPC   GL1 6543  21.565   8.616   6.789  0.6035 -0.1804 -0.0692
    1DIPC   GL2 6544  21.533   8.345   6.547 -0.3302  0.0181 -0.2296
    1DIPC   C1A 6545  21.883   8.656   6.361 -0.0313 -0.3107 -0.1641
    1DIPC   D2A 6546  22.008   9.104   6.066  0.1668 -0.2668  0.0202
    1DIPC   D3A 6547  21.742   9.436   6.059 -0.0180 -0.0179 -0.2940
    1DIPC   C4A 6548  21.521   9.382   5.719 -0.0521 -0.0317  0.0257
    1DIPC   C1B 6549  21.551   8.192   6.134  0.0391  0.1715 -0.1443
    1DIPC   D2B 6550  21.374   7.836   5.877  0.1953 -0.1462 -0.2478
    1DIPC   D3B 6551  21.709   7.973   5.693 -0.0550 -0.3237 -0.1772
    1DIPC   C4B 6552  21.718   8.108   5.293  0.0468 -0.4730 -0.2845
    1DIPC   NC3 6553   6.432   1.477   7.258 -0.1591 -0.1177 -0.0013
    1DIPC   PO4 6554   6.419   1.477   6.772 -0.0387  0.1130  0.2209
    1DIPC   GL1 6555   6.515   1.814   6.428  0.0413 -0.2340  0.0722
    1DIPC   GL2 6556   6.436   1.583   6.278 -0.0769 -0.0891 -0.0943
    1DIPC   C1A 6557   6.615   2.026   6.043 -0.1868  0.0848  0.0837
    1DIPC   D2A 6558   6.986   2.095   5.846 -0.1415  0.0861 -0.0713
    1DIPC   D3A 6559   7.020   2.523   5.897 -0.2647 -0.0575  0.1445
    1DIPC   C4A 6560   7.124   2.654   6.242 -0.1949 -0.0990 -0.0936
    1DIPC   C1B 6561   6.394   1.645   5.841  0.1117 -0.0828  0.0648
    1DIPC   D2B 6562   6.616   1.799   5.587  0.0733  0.0917  0.0717
    1DIPC   D3B 6563   6.674   1.447   5.252  0.1308 -0.4697 -0.3451
    1DIPC   C4B 6564   6.486   1.123   5.409  0.1592  0.0048 -0.0501
    1DIPC   NC3 6565   0.520  18.916   6.193  0.3824  0.0411  0.3030
    1DIPC   PO4 6566   0.625  19.276   5.904  0.1878 -0.1055  0.0613
    1DIPC   GL1 6567   0.544  19.452   5.451  0.0726  0.0611  0.1559
    1DIPC   GL2 6568   0.273  19.585   5.199  0.0888 -0.1291 -0.1075
    1DIPC   C1A 6569   0.764  19.436   5.173 -0.1564  0.0488  0.0232
    1DIPC   D2A 6570   0.579  19.436   4.764 -0.2404 -0.1142  0.2368
    1DIPC   D3A 6571   0.280  19.765   4.713  0.2388 -0.0565 -0.3151
    1DIPC   C4A 6572   0.316  20.190   4.715  0.1080 -0.2076 -0.0204
    1DIPC   C1B 6573   0.091  19.285   4.854  0.1049  0.1260  0.0562
    1DIPC   D2B 6574   0.117  19.411   4.334 -0.0910 -0.0764 -0.0926
    1DIPC   D3B 6575  -0.198  19.496   4.021  0.3225  0.2177 -0.0138
    1DIPC   C4B 6576  -0.524  19.198   3.892  0.1597  0.2147  0.2051
    1DIPC   NC3 6577  23.546  24.684   7.449  0.0970 -0.0442 -0.0246
    1DIPC   PO4 6578  23.415  24.846   7.072 -0.0722  0.0552 -0.0870
    1DIPC   GL1 6579  23.615  24.671   6.639  0.1642  0.2090  0.2466
    1DIPC   GL2 6580  23.424  24.403   6.439 -0.0149  0.3298 -0.3392
    1DIPC   C1A 6581  23.781  24.761   6.199  0.0307  0.3398 -0.0454
    1DIPC   D2A 6582  23.629  24.898   5.830  0.0004  0.2185  0.0637
    1DIPC   D3A 6583  23.541  24.467   5.828 -0.0415 -0.1503 -0.1337
    1DIPC   C4A 6584  23.334  24.439   5.436  0.1796 -0.1911  0.2474
    1DIPC   C1B 6585  23.163  24.718   6.202 -0.0226  0.2842 -0.0537
    1DIPC   D2B 6586  22.970  24.766   5.737 -0.0819 -0.1689 -0.0600
    1DIPC   D3B 6587  23.007  25.142   5.596  0.1331 -0.0788 -0.2440
    1DIPC   C4B 6588  22.805  25.304   5.207 -0.1383  0.0699 -0.2773
    1DIPC   NC3 6589   1.064  18.265   5.750  0.0724  0.0337 -0.0732
    1DIPC   PO4 6590   0.812  18.020   5.640 -0.0735 -0.0858 -0.0238
    1DIPC   GL1 6591   0.795  18.116   5.238 -0.0366 -0.2462  0.1149
    1DIPC   GL2 6592   0.903  18.466   5.244 -0.0372  0.0186 -0.0965
    1DIPC   C1A 6593   0.749  17.715   5.056  0.1174  0.0516 -0.1332
    1DIPC   D2A 6594   1.041  17.472   4.822 -0.2006  0.1737  0.3924
    1DIPC   D3A 6595   1.344  17.244   4.582  0.0372 -0.0497 -0.2744
    1DIPC   C4A 6596   1.659  17.338   4.350 -0.0744 -0.1818  0.0582
    1DIPC   C1B 6597   1.170  18.444   4.830 -0.0500 -0.2653  0.0701
    1DIPC   D2B 6598   1.369  18.746   4.558 -0.0132 -0.2463 -0.1185
    1DIPC   D3B 6599   1.792  18.865   4.603 -0.0341 -0.0336 -0.0446
    1DIPC   C4B 6600   1.908  19.124   4.257 -0.0052 -0.1655  0.0661
    1DIPC   NC3 6601  11.979   9.357   7.435 -0.1804 -0.0804  0.2457
    1DIPC   PO4 6602  12.175   8.963   7.689 -0.1308  0.1926 -0.1263
    1DIPC   GL1 6603  12.399   9.060   7.274 -0.0367  0.0507  0.0911
    1DIPC   GL2 6604  12.455   9.408   7.278  0.1419 -0.1008  0.4078
    1DIPC   C1A 6605  12.336   9.095   6.833  0.3022 -0.0712  0.0155
    1DIPC   D2A 6606  12.061   8.861   6.598  0.0684 -0.1398 -0.0072
    1DIPC   D3A 6607  12.186   8.385   6.463  0.2116 -0.0787  0.0220
    1DIPC   C4A 6608  12.283   8.406   6.026  0.2649 -0.0578 -0.3106
    1DIPC   C1B 6609  12.640   9.595   6.850 -0.2137 -0.1136 -0.0156
    1DIPC   D2B 6610  12.926   9.904   6.879  0.0512 -0.0796  0.1359
    1DIPC   D3B 6611  13.006   9.856   6.437 -0.0034  0.2021  0.1172
    1DIPC   C4B 6612  12.794   9.657   6.116 -0.1181  0.0877 -0.4319
    1DIPC   NC3 6613  20.372   6.189   7.072  0.0946 -0.3317 -0.2805
    1DIPC   PO4 6614  20.353   5.819   6.896 -0.0017 -0.1139  0.0035
    1DIPC   GL1 6615  20.293   5.901   6.406  0.1226 -0.0742  0.6422
    1DIPC   GL2 6616  20.600   5.903   6.439 -0.0166  0.2980 -0.3675
    1DIPC   C1A 6617  20.429   5.893   5.908  0.0529 -0.2521  0.0422
    1DIPC   D2A 6618  20.294   5.770   5.498  0.0100  0.4442  0.0792
    1DIPC   D3A 6619  20.102   6.150   5.338 -0.2302  0.0418  0.1535
    1DIPC   C4A 6620  20.141   6.522   5.451 -0.1233  0.0783  0.0664
    1DIPC   C1B 6621  20.799   5.643   6.130  0.2860  0.1867 -0.2693
    1DIPC   D2B 6622  20.949   5.287   6.251 -0.1430 -0.0369 -0.0416
    1DIPC   D3B 6623  20.786   4.990   6.043  0.0719 -0.0094 -0.1624
    1DIPC   C4B 6624  20.752   5.101   5.587 -0.3777 -0.4080  0.0394
    1DIPC   NC3 6625  24.527  19.781   6.551 -0.0914 -0.0181  0.0514
    1DIPC   PO4 6626  24.876  19.509   6.778  0.0499 -0.3707  0.0548
    1DIPC   GL1 6627  24.903  19.454   6.283  0.3036  0.0041  0.3163
    1DIPC   GL2 6628  25.096  19.507   5.946 -0.1174 -0.0097  0.0630
    1DIPC   C1A 6629  24.545  19.289   6.007  0.0937 -0.1122 -0.2788
    1DIPC   D2A 6630  24.315  19.272   5.652 -0.1093  0.2493 -0.3494
    1DIPC   D3A 6631  24.411  19.720   5.521  0.1729 -0.2353 -0.0731
    1DIPC   C4A 6632  24.172  19.970   5.227  0.1477 -0.1361  0.2386
    1DIPC   C1B 6633  24.770  19.613   5.809 -0.1993  0.0025 -0.0241
    1DIPC   D2B 6634  24.309  19.732   6.044  0.0550 -0.1201  0.0472
    1DIPC   D3B 6635  23.930  19.422   5.929 -0.2154 -0.0391 -0.0635
    1DIPC   C4B 6636  23.577  19.473   5.822 -0.0448  0.3213 -0.2228
    1DIPC   NC3 6637   8.642   5.374   7.099  0.2815 -0.2632 -0.2047
    1DIPC   PO4 6638   8.196   5.693   6.960 -0.1409  0.0890  0.1687
    1DIPC   GL1 6639   8.608   5.752   6.769 -0.2092 -0.3682  0.1684
    1DIPC   GL2 6640   8.932   5.755   6.534  0.0056 -0.1112 -0.1169
    1DIPC   C1A 6641   8.518   5.652   6.242  0.3336 -0.1085 -0.0672
    1DIPC   D2A 6642   8.609   5.345   6.055  0.2322  0.2620  0.1671
    1DIPC   D3A 6643   8.562   5.465   5.580 -0.0051  0.0899 -0.0549
    1DIPC   C4A 6644   8.746   5.515   5.108  0.1884 -0.1648 -0.4695
    1DIPC   C1B 6645   9.006   5.837   6.190 -0.6498  0.1050 -0.0300
    1DIPC   D2B 6646   8.863   5.804   5.815  0.2147 -0.0240  0.1955
    1DIPC   D3B 6647   9.238   6.026   5.729 -0.1694 -0.0492  0.0545
    1DIPC   C4B 6648   9.601   6.156   5.513  0.0524 -0.0769  0.2021
    1DIPC   NC3 6649   3.256   9.216   6.396  0.0194  0.1146  0.0474
    1DIPC   PO4 6650   3.287   9.690   6.569 -0.0141  0.2939  0.0312
    1DIPC   GL1 6651   3.256   9.658   6.106 -0.0130  0.0212  0.4414
    1DIPC   GL2 6652   3.063   9.430   5.979 -0.0493 -0.0307 -0.2863
    1DIPC   C1A 6653   3.472   9.781   5.765  0.2138  0.0636  0.0112
    1DIPC   D2A 6654   3.615  10.065   5.410  0.0666 -0.0619 -0.3152
    1DIPC   D3A 6655   3.398   9.799   5.163  0.2049 -0.1823 -0.1357
    1DIPC   C4A 6656   3.021   9.894   5.122 -0.1666  0.0366 -0.0266
    1DIPC   C1B 6657   2.676   9.328   5.685  0.1200 -0.0120  0.1676
    1DIPC   D2B 6658   2.471   9.282   5.267  0.3167  0.1695 -0.4419
    1DIPC   D3B 6659   2.624   9.363   4.877  0.2020 -0.2645  0.1732
    1DIPC   C4B 6660   2.823   9.655   4.553 -0.0635  0.0773  0.0749
    1DIPC   NC3 6661   8.064  23.173   6.238  0.0807 -0.1406 -0.0479
    1DIPC   PO4 6662   7.826  23.291   6.048  0.3097  0.1272 -0.0066
    1DIPC   GL1 6663   7.691  23.160   5.597 -0.1689 -0.2050  0.0860
    1DIPC   GL2 6664   7.779  23.393   5.400 -0.3029  0.0430  0.1650
    1DIPC   C1A 6665   8.001  22.765   5.390 -0.1543 -0.0342 -0.0181
    1DIPC   D2A 6666   8.001  22.301   5.342  0.2393 -0.0425  0.2666
    1DIPC   D3A 6667   8.158  21.987   5.076  0.4274 -0.3220 -0.0961
    1DIPC   C4A 6668   8.137  22.198   4.664 -0.1748 -0.1483  0.0034
    1DIPC   C1B 6669   7.978  23.612   5.077  0.0062  0.1446 -0.0349
    1DIPC   D2B 6670   7.963  23.905   4.771 -0.2876  0.1416  0.2513
    1DIPC   D3B 6671   8.397  24.005   4.982 -0.0099  0.0367 -0.3471
    1DIPC   C4B 6672   8.797  23.862   4.736  0.0983 -0.0675  0.0183
    1DIPC   NC3 6673   6.238  28.246   7.351 -0.0900  0.1458 -0.0578
    1DIPC   PO4 6674   6.097  28.523   6.970 -0.1489  0.1282  0.0671
    1DIPC   GL1 6675   6.256  28.367   6.560  0.1713  0.0141 -0.1718
    1DIPC   GL2 6676   6.548  28.546   6.440  0.1855  0.1241  0.2305
    1DIPC   C1A 6677   6.129  28.376   6.151  0.0876 -0.0235  0.3110
    1DIPC   D2A 6678   5.972  28.106   5.798 -0.2621  0.1510 -0.1604
    1DIPC   D3A 6679   6.183  27.729   5.949 -0.2429  0.0562 -0.3423
    1DIPC   C4A 6680   6.616  27.743   5.811  0.1969 -0.3266  0.1356
    1DIPC   C1B 6681   6.600  28.641   6.076 -0.1676  0.0475 -0.1216
    1DIPC   D2B 6682   6.550  28.917   5.764 -0.2390 -0.0668  0.0115
    1DIPC   D3B 6683   6.952  28.990   5.689 -0.0962  0.0864 -0.2348
    1DIPC   C4B 6684   7.078  29.310   5.360  0.2194  0.0766  0.0561
    1DIPC   NC3 6685  23.668  21.381   6.862 -0.3263 -0.0646 -0.2525
    1DIPC   PO4 6686  23.398  21.161   6.711 -0.0086  0.1457 -0.1560
    1DIPC   GL1 6687  23.527  21.245   6.272 -0.0073 -0.1164 -0.2760
    1DIPC   GL2 6688  23.798  21.443   6.066  0.0233  0.4574 -0.2516
    1DIPC   C1A 6689  23.605  20.987   5.920  0.3217  0.1125 -0.0878
    1DIPC   D2A 6690  23.457  20.690   5.647  0.0854 -0.1072 -0.2268
    1DIPC   D3A 6691  23.087  20.804   5.729  0.0800  0.0551  0.0807
    1DIPC   C4A 6692  23.102  21.123   5.670  0.0080 -0.3089  0.1092
    1DIPC   C1B 6693  23.985  21.368   5.664  0.0326 -0.0526 -0.0346
    1DIPC   D2B 6694  23.829  21.164   5.365  0.1752 -0.3190 -0.0310
    1DIPC   D3B 6695  24.115  20.788   5.240 -0.0405  0.1172  0.2377
    1DIPC   C4B 6696  24.481  20.773   5.316 -0.0345  0.1731  0.1239
    1DIPC   NC3 6697  20.477  21.378   6.827  0.1879  0.3624 -0.2477
    1DIPC   PO4 6698  20.590  20.940   6.797 -0.0361 -0.2083  0.0583
    1DIPC   GL1 6699  20.701  20.642   6.617 -0.2430 -0.0407 -0.0614
    1DIPC   GL2 6700  21.003  20.628   6.449  0.0581 -0.1102 -0.2056
    1DIPC   C1A 6701  20.579  20.373   6.343  0.0526 -0.0081  0.2403
    1DIPC   D2A 6702  20.450  20.271   5.918  0.1229  0.2318 -0.0940
    1DIPC   D3A 6703  20.299  20.692   6.046  0.2125  0.1707  0.1772
    1DIPC   C4A 6704  20.494  20.986   5.814  0.1164 -0.3459  0.0655
    1DIPC   C1B 6705  20.904  20.761   6.017  0.0755  0.1444 -0.1039
    1DIPC   D2B 6706  21.079  21.019   5.742  0.2736 -0.1403 -0.0193
    1DIPC   D3B 6707  20.817  20.673   5.513 -0.0863 -0.2502  0.0086
    1DIPC   C4B 6708  20.520  20.800   5.082 -0.0702 -0.0746 -0.0412
    1DIPC   NC3 6709  25.867  21.322   6.809  0.0836 -0.3399  0.1718
    1DIPC   PO4 6710  25.758  21.089   6.422 -0.1162 -0.1166 -0.1089
    1DIPC   GL1 6711  25.666  21.028   5.971 -0.0569 -0.1017  0.0792
    1DIPC   GL2 6712  25.948  21.145   5.847  0.0270  0.3729  0.0384
    1DIPC   C1A 6713  25.546  21.067   5.536 -0.0306  0.1259 -0.3195
    1DIPC   D2A 6714  25.483  20.833   5.213  0.2357 -0.1307 -0.3990
    1DIPC   D3A 6715  25.827  20.812   5.258  0.0301 -0.0226  0.0221
    1DIPC   C4A 6716  25.984  20.603   4.876  0.0747 -0.1145 -0.1658
    1DIPC   C1B 6717  25.962  21.299   5.368  0.1601  0.1736 -0.1847
    1DIPC   D2B 6718  26.169  21.407   5.052  0.1448  0.0605 -0.0961
    1DIPC   D3B 6719  26.299  21.018   5.106  0.1107  0.3326  0.0508
    1DIPC   C4B 6720  26.245  20.911   5.512  0.0933  0.0424 -0.1528
    1DIPC   NC3 6721  25.400  18.244   6.826 -0.1247  0.1808 -0.0585
    1DIPC   PO4 6722  25.320  18.198   6.406 -0.4587  0.3398  0.0198
    1DIPC   GL1 6723  25.240  18.081   5.928  0.0810  0.0240  0.1783
    1DIPC   GL2 6724  25.098  18.342   5.684 -0.0447 -0.0621 -0.0928
    1DIPC   C1A 6725  24.925  17.895   5.640 -0.0086 -0.1036 -0.1207
    1DIPC   D2A 6726  24.626  17.984   5.282  0.0728 -0.0454 -0.0964
    1DIPC   D3A 6727  24.556  18.375   4.962  0.0472 -0.1970  0.3670
    1DIPC   C4A 6728  24.891  18.500   4.722  0.1123  0.2256 -0.1324
    1DIPC   C1B 6729  25.116  18.182   5.212  0.4352  0.2004  0.1373
    1DIPC   D2B 6730  25.308  18.220   4.839 -0.4158  0.1390 -0.2839
    1DIPC   D3B 6731  25.294  18.635   4.959 -0.1705  0.3229 -0.1181
    1DIPC   C4B 6732  24.983  18.711   5.234  0.0125 -0.0782 -0.0410
    1DIPC   NC3 6733   4.705  11.242   6.955  0.0706  0.2005 -0.2653
    1DIPC   PO4 6734   4.701  11.488   6.581  0.0686  0.0191 -0.0544
    1DIPC   GL1 6735   4.658  11.467   6.173 -0.0928 -0.1100 -0.1182
    1DIPC   GL2 6736   5.010  11.482   6.045 -0.0658 -0.0345 -0.1465
    1DIPC   C1A 6737   4.600  11.329   5.805 -0.3200 -0.3024 -0.1088
    1DIPC   D2A 6738   4.714  11.030   5.502  0.3385 -0.0765  0.2482
    1DIPC   D3A 6739   5.049  11.046   5.719  0.1017 -0.0547  0.0938
    1DIPC   C4A 6740   5.422  11.117   5.757  0.0726  0.1822  0.4391
    1DIPC   C1B 6741   5.370  11.636   5.783 -0.0902 -0.2383  0.0510
    1DIPC   D2B 6742   5.488  11.506   5.466 -0.3057 -0.0333  0.1307
    1DIPC   D3B 6743   5.756  11.885   5.223 -0.0409  0.2796 -0.0999
    1DIPC   C4B 6744   6.182  11.930   5.073 -0.2505 -0.2473  0.1721
    1DIPC   NC3 6745  14.152   3.792   7.763 -0.3925 -0.0498 -0.1017
    1DIPC   PO4 6746  14.587   4.064   7.604 -0.5023 -0.0451 -0.1293
    1DIPC   GL1 6747  14.607   4.182   7.149  0.0511  0.0400 -0.1803
    1DIPC   GL2 6748  14.497   4.493   7.005  0.0018  0.0793 -0.0467
    1DIPC   C1A 6749  14.493   4.090   6.713  0.2059 -0.3023 -0.0232
    1DIPC   D2A 6750  14.479   4.052   6.295 -0.1190 -0.1195 -0.0715
    1DIPC   D3A 6751  14.682   4.117   6.023 -0.1383  0.0429  0.0740
    1DIPC   C4A 6752  14.957   4.483   5.887 -0.0823  0.2029 -0.0852
    1DIPC   C1B 6753  14.049   4.390   6.876 -0.0913  0.1740  0.1682
    1DIPC   D2B 6754  13.817   4.420   6.489 -0.0838 -0.1711 -0.1705
    1DIPC   D3B 6755  14.050   4.413   6.093  0.0402 -0.2415 -0.0138
    1DIPC   C4B 6756  14.245   4.410   5.660  0.1203  0.2210 -0.0578
    1DIPC   NC3 6757   1.196  17.433   5.844  0.2518 -0.2348 -0.1562
    1DIPC   PO4 6758   1.242  17.791   5.713 -0.0615 -0.3686  0.2555
    1DIPC   GL1 6759   1.562  17.696   5.495 -0.0564 -0.3275  0.1091
    1DIPC   GL2 6760   1.464  17.482   5.259 -0.0713  0.2822 -0.1018
    1DIPC   C1A 6761   1.737  17.934   5.118  0.0392  0.1876  0.0428
    1DIPC   D2A 6762   1.908  17.882   4.685 -0.1247 -0.0074 -0.0302
    1DIPC   D3A 6763   2.193  17.528   4.609  0.1195 -0.2148 -0.4940
    1DIPC   C4A 6764   2.155  17.251   4.198  0.1471 -0.1493  0.0233
    1DIPC   C1B 6765   1.209  17.897   5.117  0.0590  0.0796  0.0320
    1DIPC   D2B 6766   1.026  17.958   4.723 -0.1281 -0.1078 -0.1772
    1DIPC   D3B 6767   1.054  18.151   4.451  0.1087  0.2987  0.0808
    1DIPC   C4B 6768   0.754  17.900   4.236 -0.2533 -0.2667  0.1587
    1DIPC   NC3 6769  20.243  16.133   7.281  0.0307 -0.0147 -0.0245
    1DIPC   PO4 6770  20.143  16.522   7.540 -0.1792 -0.0177 -0.1980
    1DIPC   GL1 6771  20.291  16.720   7.087 -0.0181 -0.0978 -0.3510
    1DIPC   GL2 6772  20.565  16.690   6.811 -0.0361  0.0232 -0.0738
    1DIPC   C1A 6773  20.113  16.535   6.699  0.1547  0.0369 -0.0178
    1DIPC   D2A 6774  20.084  16.541   6.199 -0.2054  0.2081  0.0774
    1DIPC   D3A 6775  20.361  16.498   5.862 -0.1676 -0.2000 -0.1251
    1DIPC   C4A 6776  20.157  16.411   5.410 -0.0936 -0.0538  0.1902
    1DIPC   C1B 6777  20.720  16.314   6.725  0.1637  0.0934 -0.0432
    1DIPC   D2B 6778  20.716  15.981   6.541  0.0234  0.2911 -0.1090
    1DIPC   D3B 6779  20.394  16.193   6.287  0.0132 -0.1392 -0.1102
    1DIPC   C4B 6780  20.056  16.085   6.012  0.0995  0.2193  0.0447
    1DIPC   NC3 6781  19.538   3.569   6.679  0.2913 -0.0580  0.0070
    1DIPC   PO4 6782  19.216   3.868   6.699  0.0989 -0.2159  0.0416
    1DIPC   GL1 6783  18.992   3.787   6.292 -0.2893 -0.1293 -0.0323
    1DIPC   GL2 6784  18.728   3.853   6.175  0.2794 -0.0608  0.1899
    1DIPC   C1A 6785  19.196   3.739   5.958  0.2693 -0.0378 -0.2257
    1DIPC   D2A 6786  19.591   3.547   5.962 -0.3930  0.0226 -0.0432
    1DIPC   D3A 6787  19.903   3.241   5.894  0.0315 -0.1000  0.2039
    1DIPC   C4A 6788  20.229   3.337   5.588 -0.5368 -0.1141 -0.1254
    1DIPC   C1B 6789  18.753   3.824   5.755 -0.0056  0.2654 -0.0053
    1DIPC   D2B 6790  18.589   4.033   5.474 -0.1387  0.0174  0.1827
    1DIPC   D3B 6791  18.233   3.887   5.363  0.0305  0.2076 -0.1684
    1DIPC   C4B 6792  17.793   3.978   5.619 -0.1055 -0.0873  0.0327
    1DIPC   NC3 6793   6.878  28.508   7.316  0.0434  0.1693  0.2642
    1DIPC   PO4 6794   6.626  28.281   7.063  0.1264  0.1382 -0.5130
    1DIPC   GL1 6795   6.674  28.152   6.637  0.0109  0.1563 -0.0888
    1DIPC   GL2 6796   6.988  28.056   6.534 -0.0753 -0.1374 -0.1702
    1DIPC   C1A 6797   6.473  27.932   6.315  0.2274  0.1522 -0.0338
    1DIPC   D2A 6798   6.566  27.471   6.252  0.0570 -0.4331 -0.1223
    1DIPC   D3A 6799   6.248  27.198   6.302  0.1879 -0.0359 -0.1229
    1DIPC   C4A 6800   6.163  26.902   6.131  0.0315  0.2636 -0.0945
    1DIPC   C1B 6801   6.913  28.158   6.040  0.4239 -0.2707  0.4833
    1DIPC   D2B 6802   7.004  28.044   5.569 -0.0133  0.2555 -0.2079
    1DIPC   D3B 6803   7.413  27.979   5.388  0.1668 -0.1349 -0.0785
    1DIPC   C4B 6804   7.421  27.931   4.978  0.0894  0.0161  0.1410
    1DIPC   NC3 6805   8.131   1.448   7.663  0.2755  0.2858 -0.0517
    1DIPC   PO4 6806   7.707   1.288   7.533  0.3432 -0.0205  0.1926
    1DIPC   GL1 6807   8.134   1.149   7.299  0.5945 -0.1777 -0.1814
    1DIPC   GL2 6808   8.154   0.847   7.200 -0.1117  0.0770 -0.4980
    1DIPC   C1A 6809   8.379   1.319   6.919 -0.0081 -0.1371  0.2396
    1DIPC   D2A 6810   8.280   1.577   6.649 -0.0181  0.2199 -0.1920
    1DIPC   D3A 6811   7.938   1.843   6.621 -0.1629  0.1447  0.0239
    1DIPC   C4A 6812   7.707   1.951   6.312  0.1014  0.1904 -0.0885
    1DIPC   C1B 6813   7.926   1.118   6.802  0.1003 -0.0650  0.1495
    1DIPC   D2B 6814   7.758   1.435   6.439 -0.1259  0.3942 -0.1136
    1DIPC   D3B 6815   7.448   1.594   6.175  0.0315  0.0027  0.1588
    1DIPC   C4B 6816   7.541   1.677   5.794  0.0663  0.3269 -0.3478
    1DIPC   NC3 6817  22.502  23.175   6.812 -0.2186 -0.4221 -0.1593
    1DIPC   PO4 6818  22.890  23.488   6.821 -0.1926 -0.1581  0.0900
    1DIPC   GL1 6819  22.716  23.502   6.433  0.1601  0.0054  0.0921
    1DIPC   GL2 6820  22.404  23.665   6.382  0.3868 -0.0577 -0.1408
    1DIPC   C1A 6821  22.529  23.403   5.978 -0.0834  0.2883  0.1085
    1DIPC   D2A 6822  22.272  23.456   5.607  0.0362 -0.3126  0.0504
    1DIPC   D3A 6823  22.140  23.689   5.161 -0.1543  0.2134  0.0883
    1DIPC   C4A 6824  22.082  23.924   4.801  0.2115  0.2240  0.1324
    1DIPC   C1B 6825  22.735  23.959   6.204 -0.2140  0.0821  0.1087
    1DIPC   D2B 6826  22.922  24.167   5.910  0.0773 -0.3069  0.0858
    1DIPC   D3B 6827  22.663  23.918   5.672  0.1531  0.1616  0.0493
    1DIPC   C4B 6828  22.690  23.724   5.285  0.0304  0.1396  0.4401
    1DIPC   NC3 6829  16.416   3.268   7.294  0.0083  0.1520  0.1092
    1DIPC   PO4 6830  16.847   3.119   7.095  0.0740 -0.0945 -0.2397
    1DIPC   GL1 6831  16.621   3.187   6.745 -0.2507  0.1082  0.0770
    1DIPC   GL2 6832  16.714   3.016   6.547 -0.1459  0.0179 -0.0197
    1DIPC   C1A 6833  16.413   3.410   6.432 -0.0820  0.1213  0.2742
    1DIPC   D2A 6834  16.282   3.766   6.059  0.2036  0.1681 -0.0234
    1DIPC   D3A 6835  16.578   4.128   6.093  0.1294  0.0152  0.4912
    1DIPC   C4A 6836  16.893   4.040   6.246  0.1764  0.1423  0.0101
    1DIPC   C1B 6837  16.762   2.607   6.224  0.1553  0.2070 -0.0977
    1DIPC   D2B 6838  17.102   2.261   6.070  0.1014  0.1760  0.0188
    1DIPC   D3B 6839  16.797   2.029   6.225 -0.2975 -0.0037 -0.1962
    1DIPC   C4B 6840  16.439   2.278   6.065 -0.0773  0.1364 -0.0127
    1DIPC   NC3 6841   6.847   8.875   7.375 -0.1794  0.0828 -0.1823
    1DIPC   PO4 6842   6.979   8.813   6.978 -0.0446  0.1423 -0.0944
    1DIPC   GL1 6843   6.713   8.881   6.606 -0.2775  0.1171 -0.2431
    1DIPC   GL2 6844   6.387   8.921   6.656  0.1155 -0.0252  0.3317
    1DIPC   C1A 6845   6.543   8.779   6.212 -0.0111  0.0570  0.0156
    1DIPC   D2A 6846   6.621   8.573   5.849 -0.0992 -0.0732 -0.0912
    1DIPC   D3A 6847   6.934   8.863   5.649 -0.0483 -0.0474 -0.2307
    1DIPC   C4A 6848   7.105   9.155   5.382  0.3015 -0.0213 -0.2328
    1DIPC   C1B 6849   6.352   9.283   6.633 -0.0646 -0.2254  0.1066
    1DIPC   D2B 6850   6.696   9.537   6.520 -0.1765  0.0537  0.3264
    1DIPC   D3B 6851   6.775   9.193   6.266 -0.0528 -0.0636  0.0240
    1DIPC   C4B 6852   7.040   9.312   5.872 -0.1016  0.1776 -0.0007
    1DIPC   NC3 6853   9.356  27.482   6.933 -0.0978  0.0193 -0.0161
    1DIPC   PO4 6854   9.675  27.372   7.235  0.0967  0.0154 -0.2182
    1DIPC   GL1 6855   9.778  27.657   6.811  0.0992  0.0223 -0.4716
    1DIPC   GL2 6856   9.939  27.406   6.482 -0.1327 -0.1042  0.1835
    1DIPC   C1A 6857   9.683  28.024   6.541 -0.2597 -0.1923  0.3503
    1DIPC   D2A 6858   9.724  27.946   6.135 -0.1557 -0.1380 -0.1385
    1DIPC   D3A 6859   9.734  28.272   5.849 -0.2553  0.0738  0.1122
    1DIPC   C4A 6860   9.591  28.696   5.932  0.2378 -0.0319 -0.2339
    1DIPC   C1B 6861   9.868  27.451   6.063 -0.0532 -0.1267  0.1283
    1DIPC   D2B 6862   9.683  27.717   5.740  0.0024 -0.1160 -0.0598
    1DIPC   D3B 6863  10.036  28.008   5.573  0.0388  0.2599  0.0144
    1DIPC   C4B 6864  10.472  27.991   5.525  0.2172 -0.2988 -0.2727
    1DIPC   NC3 6865   4.716  18.312   5.478  0.1854  0.0987 -0.0840
    1DIPC   PO4 6866   4.295  18.498   5.546  0.0547 -0.1624 -0.0275
    1DIPC   GL1 6867   4.243  18.411   5.143  0.0315 -0.0723 -0.0621
    1DIPC   GL2 6868   4.472  18.528   4.894  0.0350 -0.0931 -0.1086
    1DIPC   C1A 6869   3.912  18.176   4.838  0.0977  0.2490 -0.1506
    1DIPC   D2A 6870   3.477  18.230   4.682  0.1399 -0.1080 -0.0017
    1DIPC   D3A 6871   3.510  18.095   4.261  0.0857 -0.0628 -0.0939
    1DIPC   C4A 6872   3.861  17.944   4.241  0.3182  0.0734  0.2729
    1DIPC   C1B 6873   4.434  18.521   4.440  0.1113  0.1975  0.0582
    1DIPC   D2B 6874   4.404  18.684   4.096 -0.0091 -0.1262  0.2143
    1DIPC   D3B 6875   4.041  18.970   4.238  0.2253  0.4752  0.0358
    1DIPC   C4B 6876   4.009  19.282   4.289  0.2372  0.1624 -0.1694
    1DIPC   NC3 6877  11.072   5.158   7.584  0.0544 -0.0254  0.2266
    1DIPC   PO4 6878  10.863   5.457   7.377 -0.1373  0.2155 -0.1551
    1DIPC   GL1 6879  11.181   5.347   7.097 -0.0230  0.0536 -0.1971
    1DIPC   GL2 6880  11.144   5.568   6.862 -0.1339 -0.0379 -0.0116
    1DIPC   C1A 6881  11.461   5.082   6.824 -0.1047  0.2272  0.3733
    1DIPC   D2A 6882  11.616   5.155   6.389 -0.2016  0.0379  0.0943
    1DIPC   D3A 6883  11.850   5.483   6.200 -0.0286 -0.1016  0.0583
    1DIPC   C4A 6884  12.089   5.484   5.750 -0.1643  0.0073 -0.0655
    1DIPC   C1B 6885  11.444   5.581   6.624 -0.2512 -0.4507 -0.1517
    1DIPC   D2B 6886  11.602   5.950   6.316 -0.0772 -0.0207  0.0703
    1DIPC   D3B 6887  11.737   5.875   5.908 -0.1527 -0.0137 -0.2827
    1DIPC   C4B 6888  12.133   5.945   5.908 -0.1306  0.0753 -0.1687
    1DIPC   NC3 6889   6.635   4.474   6.736 -0.0105 -0.2608 -0.1008
    1DIPC   PO4 6890   6.309   4.671   6.646 -0.1560  0.1242  0.3849
    1DIPC   GL1 6891   6.019   4.594   6.235  0.0406  0.1675  0.2395
    1DIPC   GL2 6892   6.367   4.829   6.089 -0.2541  0.2517  0.1199
    1DIPC   C1A 6893   5.901   4.861   5.973  0.2828  0.1139  0.2768
    1DIPC   D2A 6894   6.148   5.196   5.837  0.1991  0.1013  0.0523
    1DIPC   D3A 6895   6.116   5.068   5.474  0.2251 -0.2713 -0.0692
    1DIPC   C4A 6896   6.382   5.359   5.263 -0.1115 -0.1475 -0.1337
    1DIPC   C1B 6897   6.230   4.593   5.637  0.2309 -0.0227  0.1963
    1DIPC   D2B 6898   6.001   4.375   5.263 -0.1066  0.1010  0.2967
    1DIPC   D3B 6899   5.807   4.767   5.197 -0.0456 -0.1444 -0.1056
    1DIPC   C4B 6900   5.581   4.677   5.493  0.0513 -0.0893  0.0930
    1DIPC   NC3 6901  28.168  28.388   6.983  0.0032  0.2854  0.1551
    1DIPC   PO4 6902  27.952  28.053   7.164  0.2103 -0.0094 -0.1024
    1DIPC   GL1 6903  28.014  27.891   6.692  0.2255 -0.1694 -0.2523
    1DIPC   GL2 6904  27.697  27.813   6.580  0.1024 -0.2409 -0.1387
    1DIPC   C1A 6905  28.250  27.985   6.292  0.4966 -0.1235 -0.2076
    1DIPC   D2A 6906  27.926  27.942   5.850 -0.2749 -0.3030  0.1408
    1DIPC   D3A 6907  27.582  27.801   5.666 -0.0397  0.1835  0.3774
    1DIPC   C4A 6908  27.525  27.508   5.306 -0.0942 -0.1576  0.0868
    1DIPC   C1B 6909  27.786  27.530   6.191  0.0216 -0.2012 -0.0316
    1DIPC   D2B 6910  27.941  27.405   5.793 -0.0004 -0.0902 -0.1578
    1DIPC   D3B 6911  27.536  27.225   5.698 -0.1368  0.0834 -0.0696
    1DIPC   C4B 6912  27.292  27.053   5.918 -0.1031 -0.0130 -0.4411
    1DIPC   NC3 6913  11.451  22.527   6.632  0.1866 -0.1275  0.0053
    1DIPC   PO4 6914  11.746  22.287   6.715  0.2308 -0.1277  0.0127
    1DIPC   GL1 6915  11.706  22.231   6.238 -0.1045  0.1503  0.0814
    1DIPC   GL2 6916  11.489  22.385   6.111  0.2422  0.0844 -0.1809
    1DIPC   C1A 6917  11.755  22.290   5.751 -0.3116  0.2566  0.1042
    1DIPC   D2A 6918  11.814  22.103   5.298 -0.2503  0.0192  0.0240
    1DIPC   D3A 6919  11.964  21.796   4.954  0.0794  0.1131  0.0599
    1DIPC   C4A 6920  12.476  21.770   4.911 -0.1936  0.0382  0.0311
    1DIPC   C1B 6921  11.818  22.748   6.050  0.0558  0.0341 -0.0008
    1DIPC   D2B 6922  11.968  23.145   5.974 -0.1787 -0.0034 -0.0317
    1DIPC   D3B 6923  12.397  23.163   6.125  0.2416  0.0918 -0.0469
    1DIPC   C4B 6924  12.573  22.729   6.267  0.1348  0.3564  0.0569
    1DIPC   NC3 6925  12.728  26.601   7.239 -0.1127  0.1040 -0.3133
    1DIPC   PO4 6926  13.013  26.881   7.321 -0.3555 -0.1068  0.2043
    1DIPC   GL1 6927  13.079  27.167   6.949  0.1366 -0.1063  0.0983
    1DIPC   GL2 6928  13.237  27.045   6.563 -0.0557 -0.0603 -0.1906
    1DIPC   C1A 6929  12.647  27.446   6.798  0.0295  0.0992  0.0101
    1DIPC   D2A 6930  12.261  27.355   6.479 -0.1380  0.2906  0.2373
    1DIPC   D3A 6931  12.311  27.440   6.052 -0.1530 -0.2194  0.4172
    1DIPC   C4A 6932  12.167  27.172   5.719  0.0120 -0.2042 -0.1101
    1DIPC   C1B 6933  13.235  27.122   6.145  0.0389  0.0245  0.2357
    1DIPC   D2B 6934  13.215  27.525   5.997 -0.1867  0.4631 -0.0047
    1DIPC   D3B 6935  12.953  27.426   5.703  0.1658 -0.0286 -0.2359
    1DIPC   C4B 6936  12.844  27.791   5.458 -0.4173 -0.0795 -0.3354
    1DIPC   NC3 6937   3.952  26.050   6.434  0.2935 -0.0980 -0.3828
    1DIPC   PO4 6938   4.351  26.025   6.699  0.2737  0.1113 -0.1687
    1DIPC   GL1 6939   4.436  26.175   6.405  0.1285 -0.2214 -0.3179
    1DIPC   GL2 6940   4.368  26.045   6.128  0.3627 -0.2959 -0.0271
    1DIPC   C1A 6941   4.571  26.581   6.211 -0.0840 -0.1496 -0.0048
    1DIPC   D2A 6942   4.995  26.971   6.289 -0.0183  0.3301  0.0105
    1DIPC   D3A 6943   4.939  26.849   5.896  0.0051 -0.1621 -0.1727
    1DIPC   C4A 6944   5.247  26.804   5.492 -0.0653 -0.0141 -0.1382
    1DIPC   C1B 6945   4.071  26.322   5.842  0.1387 -0.1470  0.0550
    1DIPC   D2B 6946   4.071  26.707   5.611  0.1311  0.0203  0.1373
    1DIPC   D3B 6947   3.959  26.829   5.268  0.0043  0.0451 -0.2263
    1DIPC   C4B 6948   3.928  27.167   5.126  0.1274  0.1404  0.3519
    1DIPC   NC3 6949   4.572  19.708   5.503  0.2115 -0.1066  0.0481
    1DIPC   PO4 6950   4.409  19.288   5.422 -0.2509 -0.0117 -0.3378
    1DIPC   GL1 6951   4.190  19.594   5.106 -0.1634 -0.0170 -0.4099
    1DIPC   GL2 6952   3.996  19.676   4.835 -0.1010 -0.2080  0.2704
    1DIPC   C1A 6953   4.575  19.858   4.872  0.4367 -0.2879  0.1607
    1DIPC   D2A 6954   4.685  20.357   4.816 -0.2528  0.0587 -0.0085
    1DIPC   D3A 6955   4.523  20.447   4.350 -0.5441  0.1742 -0.0441
    1DIPC   C4A 6956   4.168  20.143   4.065  0.0397 -0.1745  0.0768
    1DIPC   C1B 6957   4.339  19.537   4.618 -0.1360  0.0365  0.2932
    1DIPC   D2B 6958   4.616  19.284   4.916  0.2784 -0.0267  0.0725
    1DIPC   D3B 6959   4.820  19.455   4.553 -0.1008 -0.0161 -0.3008
    1DIPC   C4B 6960   5.024  19.239   4.286  0.0436  0.0894 -0.0530
    1DIPC   NC3 6961  15.047  27.664   7.337 -0.2845  0.3816  0.1653
    1DIPC   PO4 6962  15.007  27.719   6.828  0.1587 -0.1268 -0.0090
    1DIPC   GL1 6963  15.118  27.639   6.488  0.2350 -0.3428 -0.1627
    1DIPC   GL2 6964  14.957  27.485   6.265 -0.1513 -0.1226  0.0239
    1DIPC   C1A 6965  15.399  27.876   6.189 -0.0137 -0.0206  0.0181
    1DIPC   D2A 6966  15.546  28.211   6.095 -0.1865  0.2069  0.0418
    1DIPC   D3A 6967  15.703  28.493   5.885 -0.2706 -0.2055 -0.2533
    1DIPC   C4A 6968  15.417  28.522   5.604 -0.0059  0.1413 -0.1087
    1DIPC   C1B 6969  14.953  27.986   6.086  0.2308 -0.1010 -0.4734
    1DIPC   D2B 6970  14.836  28.225   5.814 -0.0070 -0.2092 -0.0525
    1DIPC   D3B 6971  14.938  28.404   5.470  0.1234  0.0633 -0.1403
    1DIPC   C4B 6972  14.565  28.647   5.393  0.0250 -0.0996  0.2176
    1DIPC   NC3 6973  10.915  23.593   6.234 -0.2327  0.2931 -0.0436
    1DIPC   PO4 6974  10.533  23.432   6.187  0.0488  0.1010 -0.1266
    1DIPC   GL1 6975  10.443  23.204   5.819 -0.0933 -0.1293  0.0599
    1DIPC   GL2 6976  10.270  22.851   5.872 -0.0361 -0.1744 -0.0915
    1DIPC   C1A 6977  10.522  23.037   5.459 -0.3283  0.0583 -0.0239
    1DIPC   D2A 6978  10.406  22.905   5.050  0.3030  0.1991  0.1354
    1DIPC   D3A 6979  10.406  22.440   5.099  0.2450 -0.0699 -0.0201
    1DIPC   C4A 6980  10.286  22.422   5.532 -0.2201  0.0298  0.0798
    1DIPC   C1B 6981  10.044  22.812   5.359  0.1157  0.2209 -0.1578
    1DIPC   D2B 6982   9.850  22.433   5.169 -0.1178 -0.0620 -0.3190
    1DIPC   D3B 6983   9.495  22.412   5.104  0.0531 -0.2576  0.0467
    1DIPC   C4B 6984   9.143  22.219   4.859 -0.1374 -0.0458  0.0034
    1DIPC   NC3 6985   4.000   6.559   6.790 -0.1262  0.1585 -0.0725
    1DIPC   PO4 6986   4.500   6.718   6.761 -0.1539  0.2196 -0.0304
    1DIPC   GL1 6987   4.639   6.677   6.387 -0.0121 -0.0957  0.0453
    1DIPC   GL2 6988   4.310   6.586   6.257  0.3266 -0.4195  0.0115
    1DIPC   C1A 6989   4.992   6.647   6.095  0.1029  0.2210 -0.1930
    1DIPC   D2A 6990   5.330   6.822   5.820 -0.2683 -0.1870  0.0055
    1DIPC   D3A 6991   5.310   6.532   5.504  0.3282 -0.3358 -0.3379
    1DIPC   C4A 6992   5.175   6.102   5.615  0.2773  0.1989  0.0587
    1DIPC   C1B 6993   4.484   6.664   5.862 -0.1132  0.0917 -0.4215
    1DIPC   D2B 6994   4.880   6.776   5.576 -0.0021  0.2783 -0.1872
    1DIPC   D3B 6995   4.550   6.858   5.411  0.0310  0.1659  0.0449
    1DIPC   C4B 6996   4.129   6.593   5.403  0.1164  0.0606 -0.2075
    1DIPC   NC3 6997  24.743   3.294   6.037  0.0438 -0.4230  0.2363
    1DIPC   PO4 6998  24.335   3.193   6.223 -0.0698  0.2241  0.0220
    1DIPC   GL1 6999  24.047   3.092   5.934  0.1572  0.2620 -0.3575
    1DIPC   GL2 7000  24.024   2.737   5.773  0.4544 -0.1812  0.1559
    1DIPC   C1A 7001  24.215   3.068   5.456  0.1519 -0.2363 -0.1608
    1DIPC   D2A 7002  24.015   2.713   5.233  0.3466  0.2010 -0.2215
    1DIPC   D3A 7003  24.110   2.354   4.962 -0.0513  0.0638  0.0234
    1DIPC   C4A 7004  23.684   2.330   4.826 -0.1179 -0.2814  0.0853
    1DIPC   C1B 7005  23.676   2.434   5.649  0.0737 -0.0263  0.1050
    1DIPC   D2B 7006  23.233   2.282   5.530  0.1225  0.0175  0.2813
    1DIPC   D3B 7007  23.285   2.765   5.643  0.0010  0.3731  0.1475
    1DIPC   C4B 7008  22.898   3.063   5.772  0.3193 -0.0416 -0.0645
    1DIPC   NC3 7009  21.425  27.894   6.135  0.1347  0.0586 -0.0876
    1DIPC   PO4 7010  21.707  28.122   6.313 -0.3805 -0.2196  0.0597
    1DIPC   GL1 7011  21.704  28.269   5.974  0.1401 -0.0211  0.1414
    1DIPC   GL2 7012  21.807  28.021   5.754 -0.1577 -0.0354 -0.3940
    1DIPC   C1A 7013  21.839  28.583   5.613 -0.2758 -0.2084  0.4034
    1DIPC   D2A 7014  21.962  28.682   5.201 -0.0214  0.1663 -0.0376
    1DIPC   D3A 7015  22.085  28.975   4.926  0.0156  0.1068  0.2348
    1DIPC   C4A 7016  21.863  29.216   4.656  0.1368 -0.2464 -0.0771
    1DIPC   C1B 7017  21.438  28.212   5.558 -0.0185 -0.0054  0.1074
    1DIPC   D2B 7018  21.514  28.454   5.061 -0.0586  0.0310 -0.1177
    1DIPC   D3B 7019  21.873  28.210   5.247 -0.1657 -0.0871  0.0063
    1DIPC   C4B 7020  21.807  27.769   5.348  0.1187 -0.2627  0.0818
    1DIPC   NC3 7021   5.786   4.519   6.711  0.0030 -0.1674  0.0228
    1DIPC   PO4 7022   5.354   4.453   6.493 -0.2331  0.1510 -0.1449
    1DIPC   GL1 7023   5.136   4.236   6.200  0.1956  0.2225  0.2023
    1DIPC   GL2 7024   5.217   3.857   5.956  0.1008  0.3461  0.0576
    1DIPC   C1A 7025   5.258   4.362   5.804  0.2295  0.1567 -0.0341
    1DIPC   D2A 7026   5.313   4.089   5.425  0.3788 -0.0337 -0.0121
    1DIPC   D3A 7027   5.392   4.236   5.062  0.1803  0.3808 -0.0023
    1DIPC   C4A 7028   5.230   4.553   4.878  0.2234 -0.2386  0.0768
    1DIPC   C1B 7029   5.369   3.595   5.549 -0.1012  0.0657  0.2330
    1DIPC   D2B 7030   5.559   3.499   5.245  0.0098 -0.1636  0.0484
    1DIPC   D3B 7031   5.184   3.516   4.885 -0.2955  0.0483 -0.1390
    1DIPC   C4B 7032   4.713   3.476   4.853 -0.3225 -0.1226  0.2287
    1DIPC   NC3 7033   2.996   2.132   6.776 -0.0329 -0.1285 -0.0635
    1DIPC   PO4 7034   3.089   2.590   6.688 -0.1443 -0.0821 -0.0167
    1DIPC   GL1 7035   3.124   2.506   6.263  0.1110 -0.3910 -0.2101
    1DIPC   GL2 7036   2.994   2.740   6.073  0.1145  0.0601 -0.2642
    1DIPC   C1A 7037   2.985   2.249   5.983 -0.2960  0.1538  0.0868
    1DIPC   D2A 7038   2.777   1.944   5.685 -0.2873  0.3298 -0.1796
    1DIPC   D3A 7039   3.109   2.077   5.474  0.2765  0.4456 -0.0468
    1DIPC   C4A 7040   3.532   2.266   5.508  0.0477 -0.0591 -0.1083
    1DIPC   C1B 7041   3.186   2.692   5.659 -0.0779  0.1174 -0.0799
    1DIPC   D2B 7042   3.210   2.534   5.218 -0.0891 -0.0066 -0.1769
    1DIPC   D3B 7043   3.689   2.692   5.293 -0.0793 -0.0834 -0.1308
    1DIPC   C4B 7044   3.792   2.988   5.063 -0.0316  0.1811  0.1227
    1DIPC   NC3 7045   8.164   9.229   7.748 -0.1985  0.0020  0.0787
    1DIPC   PO4 7046   8.112   9.208   7.327  0.1738 -0.0418 -0.3189
    1DIPC   GL1 7047   8.181   9.148   6.923 -0.1068  0.1011 -0.3266
    1DIPC   GL2 7048   8.468   9.151   7.002 -0.1171  0.0774  0.0455
    1DIPC   C1A 7049   8.141   9.441   6.589  0.1141  0.0473 -0.0786
    1DIPC   D2A 7050   8.011   9.736   6.346  0.1768 -0.0831 -0.0396
    1DIPC   D3A 7051   7.614   9.991   6.222 -0.1327  0.1477  0.1542
    1DIPC   C4A 7052   7.627  10.429   6.053  0.3238 -0.0550  0.2179
    1DIPC   C1B 7053   8.910   9.055   6.884  0.0225  0.1513  0.1411
    1DIPC   D2B 7054   9.115   8.763   6.655  0.1653  0.1577 -0.0281
    1DIPC   D3B 7055   8.807   8.752   6.252 -0.1156  0.0452  0.0142
    1DIPC   C4B 7056   9.032   8.781   5.908  0.0461 -0.2873 -0.0907
    1DIPC   NC3 7057  16.491   4.461   7.255 -0.1922  0.2134  0.0841
    1DIPC   PO4 7058  16.410   4.038   7.310 -0.1719 -0.1813  0.0021
    1DIPC   GL1 7059  16.165   4.127   6.997 -0.1073 -0.2414 -0.2248
    1DIPC   GL2 7060  16.253   4.366   6.812  0.2018 -0.0219  0.1249
    1DIPC   C1A 7061  15.873   4.169   6.582 -0.1434 -0.1290  0.1150
    1DIPC   D2A 7062  16.080   4.240   6.137 -0.0210 -0.0946 -0.0284
    1DIPC   D3A 7063  16.108   4.116   5.689  0.0086  0.0626  0.3005
    1DIPC   C4A 7064  16.160   4.475   5.396  0.0770  0.1010  0.0548
    1DIPC   C1B 7065  16.171   4.814   6.829  0.2197 -0.1821  0.1479
    1DIPC   D2B 7066  16.281   5.327   6.702  0.2299 -0.0105  0.1412
    1DIPC   D3B 7067  15.899   5.206   6.422 -0.0572 -0.3191 -0.2599
    1DIPC   C4B 7068  15.741   5.084   6.020  0.2463 -0.0263  0.0158
    1DIPC   NC3 7069   3.846  22.323   5.752 -0.1577 -0.1485 -0.1568
    1DIPC   PO4 7070   4.324  22.420   5.877 -0.2036  0.1723  0.0302
    1DIPC   GL1 7071   4.470  22.352   5.482 -0.1485  0.1205 -0.0468
    1DIPC   GL2 7072   4.302  22.017   5.423 -0.0064 -0.0673  0.0595
    1DIPC   C1A 7073   4.494  22.453   5.023  0.0764  0.0149 -0.1441
    1DIPC   D2A 7074   4.442  22.448   4.543 -0.0983  0.0301 -0.0037
    1DIPC   D3A 7075   4.275  22.890   4.462  0.3825  0.1913 -0.1990
    1DIPC   C4A 7076   4.113  22.948   3.992  0.1347 -0.1134 -0.2576
    1DIPC   C1B 7077   4.432  21.897   4.944  0.1635  0.0933 -0.0616
    1DIPC   D2B 7078   4.454  21.669   4.619  0.2560  0.1745 -0.1463
    1DIPC   D3B 7079   4.684  21.615   4.137  0.1205 -0.0788 -0.1775
    1DIPC   C4B 7080   4.325  21.635   3.925  0.3373 -0.0668 -0.0287
    1DIPC   NC3 7081  25.547  20.012   6.434  0.2191  0.0831  0.1096
    1DIPC   PO4 7082  25.031  19.931   6.539  0.0964 -0.1572  0.0195
    1DIPC   GL1 7083  24.941  19.932   6.167  0.1754  0.0632 -0.2692
    1DIPC   GL2 7084  25.215  19.956   6.038 -0.2024 -0.0361  0.1713
    1DIPC   C1A 7085  24.762  20.143   5.807 -0.0813 -0.1798  0.0390
    1DIPC   D2A 7086  24.696  20.296   5.316 -0.1803 -0.3336  0.0829
    1DIPC   D3A 7087  24.385  20.399   5.041 -0.0366  0.1562 -0.0708
    1DIPC   C4A 7088  24.539  20.267   4.584  0.4846  0.1461  0.1658
    1DIPC   C1B 7089  25.191  19.909   5.609  0.0966  0.1417  0.0476
    1DIPC   D2B 7090  24.916  19.824   5.310 -0.1290 -0.0111  0.1281
    1DIPC   D3B 7091  25.357  20.029   5.161  0.0497 -0.0177  0.0700
    1DIPC   C4B 7092  25.409  20.309   4.861 -0.2716 -0.1280  0.1891
    1DIPC   NC3 7093  12.445  24.569   6.903  0.1874  0.3898  0.1550
    1DIPC   PO4 7094  12.173  24.462   6.700 -0.0960  0.1249 -0.1028
    1DIPC   GL1 7095  12.199  24.257   6.310  0.0017 -0.4077 -0.4624
    1DIPC   GL2 7096  12.117  24.567   6.213  0.2208  0.2884 -0.0711
    1DIPC   C1A 7097  12.193  24.097   5.905  0.1552 -0.0740  0.1756
    1DIPC   D2A 7098  12.497  24.159   5.646 -0.0208  0.1163  0.0809
    1DIPC   D3A 7099  12.755  24.210   6.073 -0.1737 -0.0211 -0.0865
    1DIPC   C4A 7100  13.086  24.294   5.947 -0.1516 -0.1378  0.2362
    1DIPC   C1B 7101  12.100  24.809   5.841  0.1896 -0.1150 -0.0733
    1DIPC   D2B 7102  11.873  25.118   5.772  0.1549  0.0780  0.3029
    1DIPC   D3B 7103  11.577  25.196   5.415 -0.0531 -0.1896 -0.0795
    1DIPC   C4B 7104  11.130  24.975   5.347  0.1560  0.0771 -0.1672
    1DIPC   NC3 7105  12.373  25.843   7.597 -0.0587  0.4652 -0.1881
    1DIPC   PO4 7106  12.550  25.654   7.157 -0.3380 -0.1755 -0.1159
    1DIPC   GL1 7107  12.867  25.861   6.932 -0.3915 -0.4679  0.2358
    1DIPC   GL2 7108  12.855  26.158   6.911 -0.2015 -0.2344  0.1326
    1DIPC   C1A 7109  13.052  25.856   6.446  0.2916 -0.1696 -0.2007
    1DIPC   D2A 7110  13.171  25.420   6.300 -0.0276 -0.1361  0.4161
    1DIPC   D3A 7111  13.335  25.349   5.934  0.0526 -0.1195  0.1385
    1DIPC   C4A 7112  13.563  25.618   5.796 -0.1265  0.2305  0.1678
    1DIPC   C1B 7113  12.759  26.243   6.510  0.0990  0.1052 -0.1087
    1DIPC   D2B 7114  12.640  26.595   6.283  0.0640 -0.4135  0.0314
    1DIPC   D3B 7115  12.869  26.677   5.886  0.5208  0.0714 -0.3174
    1DIPC   C4B 7116  13.156  26.977   5.674 -0.0082 -0.0716 -0.0637
    1DIPC   NC3 7117  20.234  26.936   6.473 -0.1125 -0.0296  0.0439
    1DIPC   PO4 7118  20.603  27.318   6.358 -0.0534 -0.0225  0.0034
    1DIPC   GL1 7119  20.260  27.519   6.046 -0.1878  0.2053  0.1076
    1DIPC   GL2 7120  20.045  27.243   6.002 -0.3279  0.0111  0.0352
    1DIPC   C1A 7121  20.146  27.566   5.587  0.1006 -0.0764 -0.0062
    1DIPC   D2A 7122  19.929  27.335   5.325  0.0324 -0.0469 -0.0884
    1DIPC   D3A 7123  20.200  27.071   5.526  0.0161 -0.0067  0.0079
    1DIPC   C4A 7124  20.596  26.868   5.351  0.3989 -0.0166  0.1434
    1DIPC   C1B 7125  19.709  27.079   5.684  0.1654 -0.0316  0.1577
    1DIPC   D2B 7126  19.806  26.895   5.247 -0.1992 -0.0525  0.3072
    1DIPC   D3B 7127  19.443  27.025   5.182  0.1433  0.0986  0.0320
    1DIPC   C4B 7128  19.192  27.364   5.348  0.0507 -0.0015 -0.1156
    1DIPC   NC3 7129  26.023  24.785   6.637  0.1597 -0.1972  0.2653
    1DIPC   PO4 7130  25.686  24.987   6.372 -0.2274  0.0236  0.2304
    1DIPC   GL1 7131  25.573  24.685   6.013  0.0444  0.0923 -0.1338
    1DIPC   GL2 7132  25.557  24.299   5.996 -0.2565  0.1414 -0.2330
    1DIPC   C1A 7133  25.546  24.644   5.588 -0.2447  0.0153 -0.1539
    1DIPC   D2A 7134  25.845  24.749   5.315  0.4395 -0.0534  0.0862
    1DIPC   D3A 7135  25.990  24.476   4.987  0.1329 -0.1818 -0.0730
    1DIPC   C4A 7136  25.787  24.350   4.609 -0.0675  0.1098 -0.4741
    1DIPC   C1B 7137  25.425  23.768   5.953  0.0693 -0.0038  0.1579
    1DIPC   D2B 7138  25.534  23.354   5.734  0.0513 -0.3658 -0.0835
    1DIPC   D3B 7139  25.748  23.140   5.486  0.2029  0.2290  0.0818
    1DIPC   C4B 7140  26.080  23.132   5.743 -0.1918 -0.1544  0.1034
    1DIPC   NC3 7141  25.299  14.989   5.853  0.2158 -0.0462 -0.1272
    1DIPC   PO4 7142  24.924  15.271   5.894 -0.2687 -0.1580 -0.3553
    1DIPC   GL1 7143  24.941  15.534   5.616 -0.2502 -0.1966 -0.1960
    1DIPC   GL2 7144  25.185  15.269   5.455 -0.1410  0.0947 -0.2885
    1DIPC   C1A 7145  25.059  15.577   5.141 -0.0141 -0.2150 -0.0519
    1DIPC   D2A 7146  25.200  15.574   4.796 -0.0935 -0.2407 -0.0875
    1DIPC   D3A 7147  25.531  15.874   4.820  0.3738  0.0289 -0.0295
    1DIPC   C4A 7148  25.656  15.972   4.436  0.1116 -0.2232  0.1985
    1DIPC   C1B 7149  25.251  15.075   4.993 -0.2662  0.0399  0.1585
    1DIPC   D2B 7150  25.526  15.247   4.704 -0.1979 -0.2376 -0.1989
    1DIPC   D3B 7151  25.153  15.240   4.404  0.3452 -0.2217  0.2657
    1DIPC   C4B 7152  25.074  14.886   4.180  0.0204 -0.0571 -0.2306
    1DIPC   NC3 7153  26.925   6.030   6.848  0.0106 -0.0317 -0.2315
    1DIPC   PO4 7154  26.806   6.446   6.738 -0.0700  0.0616 -0.2625
    1DIPC   GL1 7155  26.997   6.623   6.474 -0.1053  0.0602  0.1512
    1DIPC   GL2 7156  26.957   6.991   6.364 -0.3741 -0.0410 -0.1974
    1DIPC   C1A 7157  26.814   6.645   5.980 -0.2256  0.1219 -0.1420
    1DIPC   D2A 7158  26.696   6.231   5.808 -0.0262 -0.0948 -0.0244
    1DIPC   D3A 7159  27.066   6.134   5.619  0.0288  0.3928  0.0272
    1DIPC   C4A 7160  27.534   6.280   5.578  0.1714  0.0026 -0.1496
    1DIPC   C1B 7161  27.045   7.112   5.942 -0.1035  0.1078 -0.1664
    1DIPC   D2B 7162  26.926   7.471   5.732  0.1893 -0.1821 -0.5782
    1DIPC   D3B 7163  27.266   7.583   5.401  0.1767 -0.3145 -0.2971
    1DIPC   C4B 7164  27.185   7.359   5.036 -0.1038 -0.1069  0.4008
    1DIPC   NC3 7165  12.717  23.806   7.152  0.0182 -0.1445 -0.0353
    1DIPC   PO4 7166  12.944  23.459   6.934 -0.0616 -0.1099 -0.0668
    1DIPC   GL1 7167  13.021  23.727   6.542 -0.0003 -0.0799 -0.1362
    1DIPC   GL2 7168  13.074  24.129   6.458  0.0690  0.1656  0.1413
    1DIPC   C1A 7169  13.014  23.800   6.069  0.2151 -0.2464 -0.0985
    1DIPC   D2A 7170  13.028  23.852   5.683 -0.1734 -0.1936 -0.1294
    1DIPC   D3A 7171  13.250  23.566   5.345  0.0824 -0.1625  0.1190
    1DIPC   C4A 7172  13.627  23.676   5.267 -0.1611  0.2138 -0.1211
    1DIPC   C1B 7173  13.443  24.316   6.220 -0.2085  0.1797  0.2510
    1DIPC   D2B 7174  13.541  24.418   5.807 -0.0345  0.0978 -0.0246
    1DIPC   D3B 7175  13.440  24.113   5.487  0.0093 -0.0493 -0.0044
    1DIPC   C4B 7176  13.020  24.132   5.294  0.1630 -0.3534 -0.2589
    1DIPC   NC3 7177  21.479   7.638   6.939 -0.2385 -0.1157 -0.2256
    1DIPC   PO4 7178  21.518   7.259   6.603 -0.1395 -0.1949 -0.1948
    1DIPC   GL1 7179  21.381   7.277   6.156 -0.0612  0.0275 -0.2822
    1DIPC   GL2 7180  21.113   7.398   6.157  0.1747  0.2378  0.1820
    1DIPC   C1A 7181  21.251   7.408   5.719 -0.0653 -0.1114  0.2407
    1DIPC   D2A 7182  21.255   7.347   5.244  0.2644 -0.1401 -0.0355
    1DIPC   D3A 7183  20.940   7.088   5.477  0.1639 -0.0041  0.0195
    1DIPC   C4A 7184  20.754   7.397   5.747 -0.1787  0.0294  0.3378
    1DIPC   C1B 7185  21.066   6.928   5.947  0.0412  0.1807  0.2840
    1DIPC   D2B 7186  20.862   6.569   5.797  0.2119  0.2021 -0.0451
    1DIPC   D3B 7187  20.690   6.594   5.436 -0.0005  0.0891  0.1827
    1DIPC   C4B 7188  20.834   6.664   5.038  0.0396  0.2172  0.2803
    1DIPC   NC3 7189  13.092   0.068   7.116  0.0728  0.2321  0.1224
    1DIPC   PO4 7190  13.510  -0.197   7.058 -0.0566  0.1165  0.3129
    1DIPC   GL1 7191  13.420   0.166   6.718  0.0532  0.0544 -0.1638
    1DIPC   GL2 7192  13.270   0.450   6.599  0.1389  0.1030 -0.1973
    1DIPC   C1A 7193  13.725   0.405   6.329  0.0271 -0.1794  0.2725
    1DIPC   D2A 7194  13.667   0.498   5.905  0.0282 -0.1147 -0.0073
    1DIPC   D3A 7195  14.061   0.227   6.005  0.1022 -0.2384 -0.0305
    1DIPC   C4A 7196  14.231  -0.055   6.299  0.2296  0.2866 -0.3531
    1DIPC   C1B 7197  13.416   0.853   6.457 -0.2200 -0.0965  0.0634
    1DIPC   D2B 7198  13.798   0.882   6.532 -0.3436  0.2353  0.4261
    1DIPC   D3B 7199  13.909   1.336   6.370 -0.0311  0.0059  0.0908
    1DIPC   C4B 7200  14.193   1.436   6.133  0.0066 -0.0217  0.3460
    1DIPC   NC3 7201  10.444   0.145   8.005  0.2864 -0.0705  0.2117
    1DIPC   PO4 7202  10.328  -0.210   7.738 -0.1632 -0.1141 -0.3347
    1DIPC   GL1 7203  10.357  -0.179   7.308  0.2607  0.1650  0.0262
    1DIPC   GL2 7204  10.321  -0.479   7.167 -0.0488  0.0166  0.0856
    1DIPC   C1A 7205  10.482   0.016   6.928  0.1191 -0.0691  0.0041
    1DIPC   D2A 7206  10.753  -0.084   6.550  0.3196  0.1709  0.0717
    1DIPC   D3A 7207  10.436  -0.274   6.285  0.4019 -0.1760 -0.2541
    1DIPC   C4A 7208  10.028  -0.452   6.260 -0.0524 -0.0344 -0.1582
    1DIPC   C1B 7209  10.153  -0.321   6.753 -0.0981  0.2784 -0.1383
    1DIPC   D2B 7210  10.098   0.086   6.618  0.2747 -0.0475 -0.1959
    1DIPC   D3B 7211  10.094   0.020   6.169  0.2225  0.0078 -0.1072
    1DIPC   C4B 7212  10.247  -0.250   5.846 -0.0725  0.2469 -0.0054
    1DIPC   NC3 7213   9.635  22.126   5.833 -0.1716  0.0865  0.0712
    1DIPC   PO4 7214   9.350  22.432   5.725  0.0296  0.0861 -0.2948
    1DIPC   GL1 7215   9.327  22.070   5.405 -0.1708  0.0417  0.0155
    1DIPC   GL2 7216   9.457  21.735   5.473 -0.1177 -0.0411  0.0586
    1DIPC   C1A 7217   9.103  21.840   5.090  0.1499 -0.1936 -0.1360
    1DIPC   D2A 7218   9.192  21.594   4.721 -0.0938 -0.1528  0.2077
    1DIPC   D3A 7219   9.121  21.111   4.717  0.0145  0.1871 -0.0551
    1DIPC   C4A 7220   8.777  20.871   4.386  0.0928 -0.1369 -0.1258
    1DIPC   C1B 7221   9.616  21.842   5.047  0.2577  0.1880 -0.0093
    1DIPC   D2B 7222   9.630  21.998   4.686 -0.0851  0.2932 -0.3174
    1DIPC   D3B 7223   9.644  21.601   4.477  0.1073 -0.2580 -0.3620
    1DIPC   C4B 7224   9.680  21.312   4.878 -0.0141  0.3763  0.1173
    1DIPC   NC3 7225   7.860   1.932   7.505 -0.0529  0.0638  0.1027
    1DIPC   PO4 7226   8.380   1.873   7.469 -0.1518 -0.2219  0.0232
    1DIPC   GL1 7227   8.596   1.853   7.126 -0.0452  0.0383  0.3758
    1DIPC   GL2 7228   8.893   2.087   7.169  0.0680 -0.2060 -0.2177
    1DIPC   C1A 7229   8.762   1.844   6.714  0.0328 -0.1923  0.3387
    1DIPC   D2A 7230   8.817   1.627   6.329 -0.1721  0.1117  0.1374
    1DIPC   D3A 7231   9.180   1.654   6.094  0.2067  0.1006  0.2052
    1DIPC   C4A 7232   9.195   1.928   5.880 -0.0533  0.2539 -0.0465
    1DIPC   C1B 7233   9.084   2.260   6.761  0.1623  0.0639 -0.1619
    1DIPC   D2B 7234   9.089   2.050   6.390 -0.1883  0.1516  0.0913
    1DIPC   D3B 7235   9.265   1.707   6.597  0.1549 -0.2370  0.3922
    1DIPC   C4B 7236   9.599   1.668   6.391 -0.3065 -0.0728 -0.1366
    1DIPC   NC3 7237  22.796  10.830   7.142  0.2719 -0.1547 -0.0546
    1DIPC   PO4 7238  23.021  11.113   6.837 -0.1900 -0.1508 -0.1301
    1DIPC   GL1 7239  23.124  10.925   6.505  0.0808 -0.0442 -0.1801
    1DIPC   GL2 7240  23.210  10.624   6.571 -0.1885  0.0325 -0.0447
    1DIPC   C1A 7241  23.067  11.056   6.176 -0.0379  0.2526  0.0208
    1DIPC   D2A 7242  23.247  11.195   5.773  0.0579  0.3094 -0.2658
    1DIPC   D3A 7243  22.921  11.418   5.917  0.1529  0.1524  0.1166
    1DIPC   C4A 7244  22.424  11.573   5.679 -0.0266  0.1680 -0.1494
    1DIPC   C1B 7245  23.061  10.369   6.175 -0.1539  0.2578 -0.0768
    1DIPC   D2B 7246  23.102   9.945   5.964  0.0645  0.0531 -0.1355
    1DIPC   D3B 7247  23.405   9.955   5.613  0.0044 -0.0254  0.0597
    1DIPC   C4B 7248  23.341   9.833   5.180  0.2800  0.2519 -0.2397
    1DIPC   NC3 7249  13.509  26.929   7.236 -0.1887  0.1179  0.0649
    1DIPC   PO4 7250  13.926  26.834   7.078 -0.0296  0.1120 -0.0696
    1DIPC   GL1 7251  13.648  26.790   6.704 -0.1428 -0.3930  0.0384
    1DIPC   GL2 7252  13.915  27.024   6.543  0.2379  0.0371  0.2217
    1DIPC   C1A 7253  13.567  26.751   6.248  0.1759 -0.1683 -0.1170
    1DIPC   D2A 7254  13.796  26.918   5.938 -0.3020  0.1928  0.0165
    1DIPC   D3A 7255  13.981  26.602   5.750  0.0432  0.0910  0.4236
    1DIPC   C4A 7256  14.010  26.716   5.277 -0.2706 -0.0520 -0.1918
    1DIPC   C1B 7257  13.905  27.403   6.287  0.1355  0.3058 -0.2964
    1DIPC   D2B 7258  14.083  27.768   6.180 -0.1937 -0.0487 -0.0190
    1DIPC   D3B 7259  13.945  27.900   5.685 -0.1069  0.1226  0.2068
    1DIPC   C4B 7260  13.727  27.739   5.370 -0.4872 -0.1724 -0.3371
    1DIPC   NC3 7261  23.236   0.565   6.840 -0.1068 -0.1009  0.0303
    1DIPC   PO4 7262  23.747   0.517   6.633  0.1125 -0.0054 -0.1156
    1DIPC   GL1 7263  23.745   0.446   6.180  0.0087  0.1491 -0.0061
    1DIPC   GL2 7264  23.878   0.301   6.028 -0.0907 -0.1735 -0.1664
    1DIPC   C1A 7265  23.421   0.629   5.972  0.2414 -0.0489  0.0877
    1DIPC   D2A 7266  23.191   0.798   5.658 -0.0164 -0.1914  0.1884
    1DIPC   D3A 7267  23.158   0.513   5.363 -0.2100 -0.1875  0.3877
    1DIPC   C4A 7268  22.853   0.349   5.259 -0.2461  0.2039  0.0086
    1DIPC   C1B 7269  24.217   0.263   5.732  0.2151  0.1740  0.1096
    1DIPC   D2B 7270  24.419  -0.031   5.844  0.2098  0.0376 -0.1860
    1DIPC   D3B 7271  24.754  -0.094   6.106  0.2493  0.0550 -0.1038
    1DIPC   C4B 7272  25.158  -0.026   5.874  0.0309 -0.2493  0.1350
    1DIPC   NC3 7273   1.852  27.844   6.629 -0.1106  0.1167  0.1046
    1DIPC   PO4 7274   1.777  27.558   6.469 -0.0750 -0.0214 -0.0592
    1DIPC   GL1 7275   1.800  27.769   6.116  0.1539  0.3146 -0.6033
    1DIPC   GL2 7276   1.723  28.017   5.851  0.0627 -0.0165  0.1793
    1DIPC   C1A 7277   1.964  27.561   5.830  0.2394 -0.2192 -0.0179
    1DIPC   D2A 7278   1.980  27.271   5.577  0.0635 -0.0468  0.0402
    1DIPC   D3A 7279   1.546  27.260   5.548  0.0390 -0.1302 -0.2698
    1DIPC   C4A 7280   1.201  26.977   5.375  0.0380  0.4629 -0.0303
    1DIPC   C1B 7281   1.433  28.045   5.489  0.1395 -0.0306 -0.1069
    1DIPC   D2B 7282   1.204  27.929   5.115 -0.2228  0.1075  0.0847
    1DIPC   D3B 7283   0.831  27.857   5.420 -0.2049  0.2146 -0.1091
    1DIPC   C4B 7284   0.561  27.551   5.218 -0.0975 -0.1854 -0.2182
    1DIPC   NC3 7285   0.458   7.669   7.013 -0.0909  0.1152  0.0085
    1DIPC   PO4 7286   0.765   7.322   6.786  0.2557 -0.0774  0.3835
    1DIPC   GL1 7287   0.658   7.405   6.289 -0.0498 -0.2862 -0.1260
    1DIPC   GL2 7288   0.988   7.431   6.105 -0.2160  0.6290  0.2819
    1DIPC   C1A 7289   0.656   7.508   5.796 -0.1662  0.0942 -0.0847
    1DIPC   D2A 7290   0.670   7.702   5.512  0.3419  0.3871 -0.1042
    1DIPC   D3A 7291   0.543   8.077   5.780  0.1237 -0.2971  0.1216
    1DIPC   C4A 7292   0.482   8.337   5.479 -0.2153  0.3214  0.2550
    1DIPC   C1B 7293   1.063   7.204   5.600 -0.3655 -0.1493 -0.0109
    1DIPC   D2B 7294   1.325   7.254   5.196  0.6580  0.1363  0.0156
    1DIPC   D3B 7295   1.262   6.894   5.086  0.2947  0.1660 -0.0752
    1DIPC   C4B 7296   1.729   6.828   5.194  0.0717 -0.1314 -0.0067
    1DIPC   NC3 7297  24.231  25.579   6.281 -0.0828  0.0441  0.2793
    1DIPC   PO4 7298  24.567  25.444   6.104 -0.0787  0.0157  0.1659
    1DIPC   GL1 7299  24.535  25.243   5.672 -0.0274  0.1037  0.1101
    1DIPC   GL2 7300  24.707  25.472   5.557  0.1270  0.0386  0.1474
    1DIPC   C1A 7301  24.477  24.901   5.432 -0.1339  0.0353 -0.0148
    1DIPC   D2A 7302  24.347  24.828   5.075  0.1301  0.0705 -0.0698
    1DIPC   D3A 7303  24.396  25.178   4.883  0.1974  0.0970  0.0012
    1DIPC   C4A 7304  24.106  25.311   4.531  0.0201  0.0840  0.1190
    1DIPC   C1B 7305  24.831  25.312   5.206  0.0450 -0.0059  0.2100
    1DIPC   D2B 7306  24.847  25.377   4.763  0.1755 -0.0834  0.0807
    1DIPC   D3B 7307  25.144  25.578   4.917 -0.2279  0.0314 -0.1333
    1DIPC   C4B 7308  25.472  25.647   4.661  0.1464  0.3127 -0.1841
    1DIPC   NC3 7309   0.003  10.818   6.447 -0.4231  0.1221  0.0672
    1DIPC   PO4 7310  -0.188  10.442   6.141 -0.1192  0.1227  0.0768
    1DIPC   GL1 7311  -0.331  10.474   5.699 -0.2767  0.0120 -0.4174
    1DIPC   GL2 7312  -0.670  10.381   5.598 -0.1253  0.0751  0.1278
    1DIPC   C1A 7313  -0.023  10.522   5.422 -0.3278 -0.0337  0.2386
    1DIPC   D2A 7314   0.414  10.366   5.268  0.0092 -0.2467  0.0664
    1DIPC   D3A 7315   0.559  10.083   4.904  0.0248 -0.0486  0.1290
    1DIPC   C4A 7316   0.765   9.657   5.043 -0.0420 -0.1171 -0.0992
    1DIPC   C1B 7317  -0.554  10.415   5.131 -0.2991 -0.1485  0.2716
    1DIPC   D2B 7318  -0.591  10.126   4.702  0.1468 -0.1826 -0.0738
    1DIPC   D3B 7319  -1.133  10.118   4.640 -0.0810  0.0122 -0.1303
    1DIPC   C4B 7320  -1.487  10.389   4.872 -0.1763 -0.0582 -0.0254
    1DIPC   NC3 7321   5.057  15.304   6.494  0.0975  0.2022 -0.1109
    1DIPC   PO4 7322   4.503  15.270   6.384  0.2269  0.1588  0.1118
    1DIPC   GL1 7323   4.294  15.153   5.999  0.1075  0.0839 -0.3782
    1DIPC   GL2 7324   3.907  15.046   5.960 -0.2211  0.0373 -0.1343
    1DIPC   C1A 7325   4.485  14.923   5.677  0.0656 -0.2020 -0.2783
    1DIPC   D2A 7326   4.298  14.821   5.305  0.0297 -0.1992 -0.0924
    1DIPC   D3A 7327   4.130  14.516   4.997 -0.0070 -0.1320 -0.0001
    1DIPC   C4A 7328   4.449  14.444   4.722 -0.0689 -0.2292  0.0330
    1DIPC   C1B 7329   3.918  14.906   5.578 -0.0811 -0.2336  0.0889
    1DIPC   D2B 7330   3.746  14.714   5.253  0.2173 -0.0307 -0.0555
    1DIPC   D3B 7331   3.972  14.973   4.955 -0.4488  0.3393 -0.0519
    1DIPC   C4B 7332   4.048  14.768   4.547 -0.0452 -0.1012  0.2668
    1DIPC   NC3 7333  28.660  17.387   6.413 -0.1431 -0.0078 -0.2124
    1DIPC   PO4 7334  28.836  17.468   6.081  0.1382  0.1536  0.0103
    1DIPC   GL1 7335  28.921  17.275   5.663 -0.0267 -0.0420  0.1093
    1DIPC   GL2 7336  28.837  16.934   5.640  0.3479 -0.3404  0.1350
    1DIPC   C1A 7337  28.987  17.099   5.247 -0.1397  0.0617 -0.1231
    1DIPC   D2A 7338  29.325  17.176   5.040  0.1259 -0.2118 -0.0626
    1DIPC   D3A 7339  28.977  17.176   4.648  0.0162  0.2158  0.0164
    1DIPC   C4A 7340  28.644  17.041   4.848  0.1616  0.0396 -0.0128
    1DIPC   C1B 7341  28.538  16.775   5.360  0.4842 -0.0750 -0.0904
    1DIPC   D2B 7342  28.252  16.736   4.995  0.0531 -0.1737 -0.0422
    1DIPC   D3B 7343  28.422  16.534   4.668 -0.0620 -0.1661  0.2132
    1DIPC   C4B 7344  28.625  16.831   4.373 -0.1580  0.1462  0.1770
    1DIPC   NC3 7345   1.863  14.912   6.149  0.2213  0.0999 -0.0367
    1DIPC   PO4 7346   1.590  15.335   6.085  0.0114  0.2949 -0.1149
    1DIPC   GL1 7347   1.645  15.105   5.757 -0.1093  0.1339  0.1833
    1DIPC   GL2 7348   1.947  15.088   5.696  0.0078  0.0939  0.1036
    1DIPC   C1A 7349   1.522  14.789   5.525  0.0286 -0.2075 -0.0731
    1DIPC   D2A 7350   1.345  14.448   5.389 -0.1822 -0.1759  0.1123
    1DIPC   D3A 7351   1.048  14.721   5.078  0.0825 -0.2141 -0.2086
    1DIPC   C4A 7352   0.822  14.646   4.741  0.0454  0.0041  0.0635
    1DIPC   C1B 7353   1.875  15.015   5.195 -0.0949  0.0956 -0.1566
    1DIPC   D2B 7354   1.506  14.887   4.982  0.1520 -0.4350 -0.2192
    1DIPC   D3B 7355   1.330  14.760   4.616  0.1157  0.0424 -0.2002
    1DIPC   C4B 7356   1.230  15.142   4.392  0.0255 -0.1319  0.0958
    1DIPC   NC3 7357  28.280  27.318   6.895 -0.1358 -0.1771 -0.0575
    1DIPC   PO4 7358  27.955  27.504   7.120  0.1027 -0.0923 -0.2391
    1DIPC   GL1 7359  27.754  27.341   6.703  0.0410  0.1930 -0.0782
    1DIPC   GL2 7360  27.941  27.140   6.570  0.1647  0.2120 -0.0422
    1DIPC   C1A 7361  27.496  27.091   6.346  0.0534  0.0914 -0.1284
    1DIPC   D2A 7362  27.379  26.696   6.195 -0.2281 -0.2185 -0.1370
    1DIPC   D3A 7363  27.439  26.624   5.722 -0.1162  0.2342  0.0671
    1DIPC   C4A 7364  27.197  26.695   5.432  0.2729 -0.1159 -0.1346
    1DIPC   C1B 7365  27.980  27.009   6.143  0.1585  0.4941 -0.0503
    1DIPC   D2B 7366  27.850  26.853   5.758 -0.0194 -0.2550  0.2223
    1DIPC   D3B 7367  27.946  27.072   5.389 -0.1163  0.0091 -0.0565
    1DIPC   C4B 7368  28.368  27.048   5.223 -0.0739  0.0209  0.2276
    1DIPC   NC3 7369  11.808  22.232   7.249 -0.0512  0.0690 -0.0976
    1DIPC   PO4 7370  12.068  21.901   7.144 -0.1456  0.0999  0.0678
    1DIPC   GL1 7371  12.196  21.871   6.830  0.0219  0.2895 -0.0453
    1DIPC   GL2 7372  12.037  21.769   6.541 -0.3251  0.1422  0.0762
    1DIPC   C1A 7373  12.544  21.727   6.626 -0.0686 -0.1073  0.3430
    1DIPC   D2A 7374  12.682  21.686   6.237 -0.0490  0.1454 -0.1296
    1DIPC   D3A 7375  12.345  22.012   6.055 -0.4054 -0.1351 -0.0242
    1DIPC   C4A 7376  11.974  21.891   6.059  0.0581  0.1605  0.2286
    1DIPC   C1B 7377  12.213  21.469   6.197 -0.1535 -0.1600  0.1456
    1DIPC   D2B 7378  12.316  21.552   5.763  0.0746 -0.0871 -0.0189
    1DIPC   D3B 7379  12.341  21.180   5.462  0.1422  0.1104  0.2365
    1DIPC   C4B 7380  12.271  21.033   4.989  0.3477  0.3088 -0.1486
    1DIPC   NC3 7381  22.257   9.609   6.606  0.3530 -0.1152 -0.0181
    1DIPC   PO4 7382  22.663   9.721   6.784  0.1405 -0.3220  0.3006
    1DIPC   GL1 7383  22.721   9.660   6.347  0.2882  0.0548 -0.2397
    1DIPC   GL2 7384  22.687  10.041   6.266 -0.2729  0.0580 -0.1468
    1DIPC   C1A 7385  22.685   9.650   5.877 -0.1499 -0.2162  0.5182
    1DIPC   D2A 7386  22.832   9.861   5.561 -0.1139 -0.2019 -0.0862
    1DIPC   D3A 7387  22.749   9.899   5.149  0.1025 -0.0727 -0.0960
    1DIPC   C4A 7388  22.987  10.265   5.020 -0.5449  0.0251  0.0765
    1DIPC   C1B 7389  22.681  10.231   5.911  0.1853  0.1026 -0.2012
    1DIPC   D2B 7390  22.999  10.296   5.576  0.0727  0.0943 -0.0735
    1DIPC   D3B 7391  22.731  10.621   5.314  0.3052  0.0793  0.0387
    1DIPC   C4B 7392  22.346  10.451   5.012  0.1411  0.1228  0.2108
    1DIPC   NC3 7393  23.711  23.178   6.653  0.0389  0.0165  0.0356
    1DIPC   PO4 7394  24.177  23.276   6.558  0.1814  0.0661 -0.0202
    1DIPC   GL1 7395  24.485  22.967   6.327 -0.0693 -0.0446  0.0076
    1DIPC   GL2 7396  24.380  22.818   5.928 -0.0660  0.0107  0.1285
    1DIPC   C1A 7397  24.870  22.877   6.101  0.2758 -0.0838  0.0887
    1DIPC   D2A 7398  25.006  22.501   5.911  0.1296  0.1056  0.0435
    1DIPC   D3A 7399  24.665  22.341   5.560 -0.1978  0.0407  0.0347
    1DIPC   C4A 7400  24.921  22.480   5.154  0.5760  0.2978 -0.1955
    1DIPC   C1B 7401  24.634  22.892   5.545  0.0175  0.0077  0.0157
    1DIPC   D2B 7402  24.514  22.828   5.082  0.0977  0.1332 -0.0640
    1DIPC   D3B 7403  24.610  23.174   4.897 -0.2250 -0.1754  0.2496
    1DIPC   C4B 7404  24.419  23.336   4.530  0.1508  0.2982 -0.0019
    1DIPC   NC3 7405   3.090  22.792   5.390  0.1402 -0.1691 -0.4330
    1DIPC   PO4 7406   2.973  22.454   5.618 -0.2712  0.2778 -0.2841
    1DIPC   GL1 7407   2.929  22.340   5.191  0.2751  0.0821 -0.3144
    1DIPC   GL2 7408   2.754  22.306   4.944  0.5149  0.0226  0.1179
    1DIPC   C1A 7409   3.025  22.684   4.829 -0.0794  0.0734  0.2235
    1DIPC   D2A 7410   3.224  22.921   4.454  0.0418  0.1144  0.0474
    1DIPC   D3A 7411   3.435  22.645   4.088  0.0968 -0.2289  0.0332
    1DIPC   C4A 7412   3.229  22.560   3.657 -0.0946 -0.3387 -0.0182
    1DIPC   C1B 7413   3.064  21.924   4.929  0.2267 -0.0770  0.0920
    1DIPC   D2B 7414   3.075  21.528   4.672  0.1506  0.2582  0.0458
    1DIPC   D3B 7415   2.958  21.705   4.263  0.0267  0.2531 -0.1194
    1DIPC   C4B 7416   2.775  21.581   3.911 -0.0771 -0.2718 -0.2218
    1DIPC   NC3 7417  12.131   7.566   7.569 -0.0746 -0.1619  0.0613
    1DIPC   PO4 7418  12.599   7.423   7.578 -0.1266  0.0297  0.0353
    1DIPC   GL1 7419  12.427   7.313   7.195  0.3042 -0.0940  0.2993
    1DIPC   GL2 7420  12.113   7.114   7.298  0.0018  0.2251  0.3157
    1DIPC   C1A 7421  12.422   7.573   6.785  0.0512 -0.0991 -0.1238
    1DIPC   D2A 7422  12.444   7.462   6.407 -0.0621 -0.0727  0.2991
    1DIPC   D3A 7423  12.238   7.070   6.405  0.0496 -0.1276  0.0113
    1DIPC   C4A 7424  11.860   6.962   6.440  0.2193  0.0562 -0.1991
    1DIPC   C1B 7425  12.305   7.016   6.868 -0.2214  0.1166  0.0729
    1DIPC   D2B 7426  12.555   6.744   6.525 -0.1594  0.0579 -0.2490
    1DIPC   D3B 7427  12.302   6.609   6.278 -0.2155  0.1722 -0.0994
    1DIPC   C4B 7428  12.215   6.448   5.856 -0.1578 -0.0019  0.1874
    1DIPC   NC3 7429   6.393  27.238   6.721  0.0391  0.0682 -0.1599
    1DIPC   PO4 7430   6.737  27.060   6.414 -0.0638  0.2234  0.2203
    1DIPC   GL1 7431   6.742  26.944   5.985 -0.4228  0.0339  0.0031
    1DIPC   GL2 7432   6.844  27.164   5.911  0.1897  0.0696  0.3320
    1DIPC   C1A 7433   6.725  26.623   5.687 -0.2403  0.1621  0.0040
    1DIPC   D2A 7434   7.009  26.252   5.619 -0.2281 -0.0185  0.0936
    1DIPC   D3A 7435   6.798  26.183   5.999  0.2873 -0.1801 -0.1832
    1DIPC   C4A 7436   6.524  26.537   6.122  0.4018  0.3080 -0.2350
    1DIPC   C1B 7437   7.367  27.122   5.692 -0.2830 -0.0491  0.1151
    1DIPC   D2B 7438   7.682  27.071   5.353  0.1783  0.0522 -0.2826
    1DIPC   D3B 7439   7.504  26.828   4.957  0.3061 -0.0293  0.1617
    1DIPC   C4B 7440   7.559  26.312   4.941 -0.5060 -0.0899  0.1392
    1DIPC   NC3 7441   3.114   0.352   6.501  0.1630 -0.0903  0.0590
    1DIPC   PO4 7442   2.698   0.044   6.562  0.0660 -0.1447 -0.1155
    1DIPC   GL1 7443   2.594   0.000   6.096 -0.0270  0.2523  0.0255
    1DIPC   GL2 7444   2.419  -0.289   5.949 -0.0770 -0.0870  0.1755
    1DIPC   C1A 7445   2.299   0.353   5.908  0.1597 -0.1405 -0.0993
    1DIPC   D2A 7446   1.812   0.341   6.015 -0.1819  0.1352  0.2875
    1DIPC   D3A 7447   1.467   0.382   5.993 -0.1334  0.1994 -0.1503
    1DIPC   C4A 7448   1.079   0.322   5.893  0.0323  0.0880 -0.1680
    1DIPC   C1B 7449   2.617  -0.053   5.590 -0.0658 -0.0647 -0.3350
    1DIPC   D2B 7450   2.798   0.264   5.286  0.1353 -0.2356 -0.4367
    1DIPC   D3B 7451   3.255   0.168   5.134  0.4163  0.1924 -0.0800
    1DIPC   C4B 7452   3.261  -0.094   4.784 -0.1287 -0.0211 -0.1307
    1DIPC   NC3 7453  21.744  22.574   6.692 -0.1748  0.3388  0.0812
    1DIPC   PO4 7454  22.135  22.836   6.824 -0.1414  0.0185  0.1577
    1DIPC   GL1 7455  22.220  22.662   6.446 -0.0544  0.5257 -0.0460
    1DIPC   GL2 7456  22.490  22.491   6.420  0.3671 -0.0049 -0.1551
    1DIPC   C1A 7457  22.128  22.618   6.064  0.0094 -0.0687 -0.1410
    1DIPC   D2A 7458  22.228  22.552   5.603 -0.1566  0.0094  0.2958
    1DIPC   D3A 7459  22.254  22.320   5.254  0.4122  0.0559  0.3355
    1DIPC   C4A 7460  22.101  22.438   4.831 -0.0300 -0.0703  0.0232
    1DIPC   C1B 7461  22.762  22.119   6.227 -0.3531  0.1583 -0.1235
    1DIPC   D2B 7462  23.000  21.961   5.887 -0.0865 -0.0042  0.1652
    1DIPC   D3B 7463  23.219  22.351   5.751  0.1403 -0.1017 -0.1817
    1DIPC   C4B 7464  23.622  22.326   5.621 -0.0666  0.0421 -0.0002
    1DIPC   NC3 7465  22.935   0.126   6.724  0.2075  0.4032  0.1926
    1DIPC   PO4 7466  22.419   0.186   6.658 -0.1665  0.1282 -0.1058
    1DIPC   GL1 7467  22.520  -0.046   6.314 -0.2705  0.0352  0.2889
    1DIPC   GL2 7468  22.766  -0.081   6.327 -0.1931 -0.0452 -0.2642
    1DIPC   C1A 7469  22.470  -0.021   5.847 -0.2186  0.0537  0.2002
    1DIPC   D2A 7470  22.410   0.215   5.421  0.1721 -0.2298 -0.0494
    1DIPC   D3A 7471  22.278   0.512   5.534 -0.1013  0.3328 -0.3467
    1DIPC   C4A 7472  22.372   0.580   6.011 -0.1554 -0.1148  0.1674
    1DIPC   C1B 7473  22.983  -0.345   5.894  0.1657 -0.2609  0.2162
    1DIPC   D2B 7474  22.710  -0.315   5.566  0.1971 -0.3092 -0.0511
    1DIPC   D3B 7475  22.344  -0.394   5.427  0.1325 -0.0373 -0.0848
    1DIPC   C4B 7476  22.235  -0.766   5.534  0.3389  0.0923  0.0774
    1DIPC   NC3 7477  24.298   1.542   6.915 -0.0842  0.1734 -0.0594
    1DIPC   PO4 7478  24.236   1.734   6.502 -0.0353 -0.1989 -0.1111
    1DIPC   GL1 7479  24.194   1.509   6.063 -0.0327 -0.1376 -0.1957
    1DIPC   GL2 7480  23.885   1.315   6.065 -0.1900 -0.4327 -0.0606
    1DIPC   C1A 7481  24.273   1.299   5.720  0.0841 -0.0350 -0.2258
    1DIPC   D2A 7482  24.451   1.202   5.404  0.0411 -0.2391  0.2611
    1DIPC   D3A 7483  24.254   1.636   5.277 -0.0142 -0.0907 -0.2003
    1DIPC   C4A 7484  24.226   2.167   5.417 -0.1098 -0.1851 -0.2735
    1DIPC   C1B 7485  24.007   0.919   5.924 -0.0899  0.2134 -0.1066
    1DIPC   D2B 7486  23.764   0.554   5.664 -0.0866  0.2088  0.0075
    1DIPC   D3B 7487  23.672   0.651   5.293 -0.0926  0.1926  0.0513
    1DIPC   C4B 7488  23.295   0.895   5.118  0.0877  0.4200  0.1595
    1DIPC   NC3 7489  21.990  25.539   6.865  0.1242 -0.1118  0.0745
    1DIPC   PO4 7490  21.640  25.274   6.682 -0.1954 -0.2813  0.2774
    1DIPC   GL1 7491  21.677  25.323   6.317 -0.1454  0.0805 -0.1016
    1DIPC   GL2 7492  21.492  25.171   6.129 -0.1904  0.4108  0.1266
    1DIPC   C1A 7493  21.934  25.241   6.006  0.0419 -0.3646 -0.0820
    1DIPC   D2A 7494  21.786  25.225   5.543  0.2561  0.2754  0.1711
    1DIPC   D3A 7495  22.173  25.451   5.486  0.1142 -0.2737 -0.0861
    1DIPC   C4A 7496  22.616  25.496   5.660  0.1338 -0.0970 -0.2078
    1DIPC   C1B 7497  21.288  25.016   5.697 -0.1623 -0.2396  0.0230
    1DIPC   D2B 7498  20.995  24.758   5.583  0.0245 -0.1516 -0.0367
    1DIPC   D3B 7499  20.812  24.502   5.880  0.1456  0.1490 -0.0198
    1DIPC   C4B 7500  20.860  24.035   5.895 -0.1736 -0.1626 -0.1376
    1DIPC   NC3 7501  28.489  19.726   5.932  0.1546  0.0906 -0.2885
    1DIPC   PO4 7502  28.558  20.135   5.620 -0.1928 -0.1254 -0.2780
    1DIPC   GL1 7503  28.515  19.796   5.429 -0.0849 -0.3135  0.1326
    1DIPC   GL2 7504  28.213  19.567   5.500  0.0846  0.1999  0.1367
    1DIPC   C1A 7505  28.462  19.521   5.054 -0.0487  0.2062 -0.0693
    1DIPC   D2A 7506  28.406  19.399   4.602 -0.2292 -0.1246  0.0825
    1DIPC   D3A 7507  28.048  19.641   4.434  0.1137  0.4575  0.0352
    1DIPC   C4A 7508  27.593  19.628   4.496  0.1235 -0.4694 -0.0521
    1DIPC   C1B 7509  27.890  19.756   5.620  0.2763 -0.0075  0.2556
    1DIPC   D2B 7510  27.777  20.012   5.923 -0.1596  0.1020  0.1567
    1DIPC   D3B 7511  27.715  20.424   5.838  0.1898  0.2700  0.1040
    1DIPC   C4B 7512  27.733  20.809   6.058  0.2323 -0.1292 -0.2619
    1DIPC   NC3 7513  25.050   9.305   6.812  0.1009  0.1141 -0.2636
    1DIPC   PO4 7514  25.192   9.068   6.420 -0.0046  0.1691  0.4634
    1DIPC   GL1 7515  25.051   9.136   5.989 -0.1490  0.1076  0.2316
    1DIPC   GL2 7516  25.173   9.355   5.763  0.2208 -0.0096  0.3378
    1DIPC   C1A 7517  24.693   9.231   5.605 -0.0046  0.3061 -0.1397
    1DIPC   D2A 7518  24.537   9.258   5.200  0.0698 -0.2073  0.0076
    1DIPC   D3A 7519  24.173   9.410   5.151  0.1904  0.2261  0.3998
    1DIPC   C4A 7520  24.011   9.705   4.868 -0.2183 -0.0528  0.0480
    1DIPC   C1B 7521  25.035   9.499   5.328  0.0360 -0.2425 -0.2315
    1DIPC   D2B 7522  24.843   9.670   4.985  0.1109 -0.1159 -0.1143
    1DIPC   D3B 7523  24.482   9.789   4.946 -0.2194 -0.0663 -0.1319
    1DIPC   C4B 7524  24.288   9.914   5.239  0.0659  0.0364 -0.0540
    1DIPC   NC3 7525   6.655   9.699   7.833  0.1991  0.0603  0.2012
    1DIPC   PO4 7526   6.681   9.977   7.392  0.2331 -0.0980  0.2788
    1DIPC   GL1 7527   6.747   9.778   7.118 -0.3415 -0.0231 -0.0042
    1DIPC   GL2 7528   6.440   9.731   6.962  0.1106 -0.1698  0.0465
    1DIPC   C1A 7529   7.040   9.582   6.918 -0.0875  0.0600  0.0320
    1DIPC   D2A 7530   7.136   9.215   6.717 -0.0893  0.1809  0.0802
    1DIPC   D3A 7531   7.287   9.152   6.345  0.0219  0.0963 -0.2169
    1DIPC   C4A 7532   7.127   8.822   6.097 -0.1041 -0.3074  0.0178
    1DIPC   C1B 7533   6.497  10.088   6.735 -0.0214  0.1551 -0.0884
    1DIPC   D2B 7534   6.183  10.397   6.580  0.3362 -0.0129  0.0382
    1DIPC   D3B 7535   6.365  10.771   6.382 -0.1689  0.1278 -0.1413
    1DIPC   C4B 7536   6.101  11.067   6.262  0.0224  0.0059  0.0268
    1DIPC   NC3 7537  25.168  13.399   6.177  0.0156 -0.3971  0.0640
    1DIPC   PO4 7538  24.879  13.178   6.365 -0.0850 -0.3124  0.0175
    1DIPC   GL1 7539  24.641  12.931   5.992 -0.0620  0.2567  0.1204
    1DIPC   GL2 7540  24.584  13.167   5.872 -0.0078  0.1503 -0.0780
    1DIPC   C1A 7541  24.169  12.882   6.004  0.3185 -0.2097 -0.1849
    1DIPC   D2A 7542  23.705  12.684   5.938  0.2916 -0.1003  0.0553
    1DIPC   D3A 7543  23.843  12.414   5.575 -0.1960 -0.0281  0.0871
    1DIPC   C4A 7544  24.104  12.317   5.172 -0.2662  0.2798  0.0045
    1DIPC   C1B 7545  24.257  13.146   5.616 -0.2481  0.2064 -0.1795
    1DIPC   D2B 7546  24.259  12.830   5.381 -0.0665 -0.2606 -0.0617
    1DIPC   D3B 7547  24.160  12.785   5.139 -0.0330 -0.0622 -0.2366
    1DIPC   C4B 7548  23.829  12.883   4.877 -0.4083  0.1137  0.0874
    1DIPC   NC3 7549  22.264   7.916   6.887 -0.0717 -0.2997 -0.0445
    1DIPC   PO4 7550  21.814   8.055   6.877 -0.2500  0.0362  0.1653
    1DIPC   GL1 7551  21.908   7.875   6.522  0.5888 -0.0334 -0.1429
    1DIPC   GL2 7552  22.044   8.203   6.303 -0.1413 -0.2614 -0.2786
    1DIPC   C1A 7553  21.815   7.661   6.070  0.0620 -0.0966  0.2305
    1DIPC   D2A 7554  21.815   7.355   5.920  0.1263 -0.0531  0.0793
    1DIPC   D3A 7555  21.702   7.531   5.473 -0.0793 -0.1494  0.3175
    1DIPC   C4A 7556  22.059   7.587   5.286 -0.0296 -0.1704  0.0396
    1DIPC   C1B 7557  22.010   8.344   5.916 -0.0431 -0.0981 -0.1431
    1DIPC   D2B 7558  22.012   8.484   5.515 -0.0994  0.2936  0.0914
    1DIPC   D3B 7559  21.799   8.916   5.505 -0.0285 -0.0385  0.2090
    1DIPC   C4B 7560  22.032   9.131   5.170  0.0089 -0.0139  0.2804
    1DIPC   NC3 7561   7.551  25.897   7.268 -0.0504 -0.3223 -0.3148
    1DIPC   PO4 7562   7.541  26.008   6.802  0.1035 -0.4994 -0.1556
    1DIPC   GL1 7563   7.584  26.036   6.409 -0.1098 -0.2075  0.3090
    1DIPC   GL2 7564   7.782  25.883   6.184  0.0201  0.2173 -0.2422
    1DIPC   C1A 7565   7.398  26.246   6.090 -0.3589 -0.1992 -0.0942
    1DIPC   D2A 7566   7.725  26.461   5.846  0.1025  0.1525 -0.1486
    1DIPC   D3A 7567   7.713  26.732   6.215 -0.1497  0.2877  0.1375
    1DIPC   C4A 7568   7.690  27.169   6.119 -0.1441  0.2335 -0.2380
    1DIPC   C1B 7569   7.884  25.982   5.732 -0.0718  0.0192  0.0372
    1DIPC   D2B 7570   8.144  26.340   5.503 -0.2290  0.3510 -0.0908
    1DIPC   D3B 7571   8.372  26.121   5.298 -0.0085 -0.2601  0.0751
    1DIPC   C4B 7572   8.611  26.402   4.941 -0.1470 -0.2932 -0.3248
    1DIPC   NC3 7573  19.568   2.240   6.136 -0.0444  0.3451 -0.1928
    1DIPC   PO4 7574  19.983   2.096   6.134  0.1308  0.3193 -0.0641
    1DIPC   GL1 7575  19.756   1.916   5.777 -0.1707 -0.2232  0.3328
    1DIPC   GL2 7576  19.741   1.642   5.720  0.0804 -0.2162 -0.0263
    1DIPC   C1A 7577  19.481   1.865   5.329  0.0585  0.0170  0.2168
    1DIPC   D2A 7578  19.218   1.727   5.000 -0.0419 -0.0330  0.1393
    1DIPC   D3A 7579  19.170   1.215   5.002  0.2322 -0.2114 -0.0100
    1DIPC   C4A 7580  18.916   1.002   4.616 -0.1693 -0.1305 -0.2476
    1DIPC   C1B 7581  19.548   1.316   5.590 -0.0706  0.1380 -0.0442
    1DIPC   D2B 7582  19.208   1.037   5.471 -0.0780 -0.3055  0.1415
    1DIPC   D3B 7583  19.089   1.505   5.468  0.1151 -0.1203  0.1616
    1DIPC   C4B 7584  18.753   1.788   5.331 -0.3496 -0.0340 -0.1139
    1DIPC   NC3 7585   1.912  26.491   6.878  0.1726  0.2342 -0.0810
    1DIPC   PO4 7586   1.597  26.536   6.743  0.1365 -0.1234  0.3798
    1DIPC   GL1 7587   1.551  26.701   6.369  0.1628  0.0421 -0.0084
    1DIPC   GL2 7588   1.715  26.630   6.087  0.0610  0.1151 -0.5237
    1DIPC   C1A 7589   1.231  26.676   6.060 -0.0677 -0.0562  0.1932
    1DIPC   D2A 7590   0.828  26.679   5.718  0.0452  0.2410  0.2539
    1DIPC   D3A 7591   0.662  26.727   5.405 -0.0767 -0.1908 -0.3253
    1DIPC   C4A 7592   0.736  27.060   5.057 -0.1906  0.0886  0.1203
    1DIPC   C1B 7593   1.913  26.917   5.880 -0.2040 -0.2958  0.2615
    1DIPC   D2B 7594   2.277  27.199   6.035  0.2515  0.1133 -0.4672
    1DIPC   D3B 7595   2.460  27.200   5.681  0.0352 -0.1012  0.2032
    1DIPC   C4B 7596   2.341  27.526   5.447 -0.2262  0.1788  0.0560
    1DIPC   NC3 7597   1.220  25.246   6.147 -0.2183 -0.0564 -0.1966
    1DIPC   PO4 7598   1.372  25.625   6.335 -0.1752  0.0007 -0.1799
    1DIPC   GL1 7599   1.275  25.756   5.916  0.0327 -0.1869 -0.2703
    1DIPC   GL2 7600   1.571  25.687   5.747  0.0655 -0.0812 -0.3185
    1DIPC   C1A 7601   1.060  25.777   5.386 -0.1126 -0.2725 -0.1849
    1DIPC   D2A 7602   1.233  25.600   4.933  0.0106  0.0930  0.0466
    1DIPC   D3A 7603   0.945  25.191   4.755 -0.2341 -0.1352 -0.0191
    1DIPC   C4A 7604   0.939  24.847   4.490  0.0406 -0.0681 -0.1398
    1DIPC   C1B 7605   1.688  26.007   5.469 -0.0183  0.1719 -0.0263
    1DIPC   D2B 7606   1.697  26.351   5.198  0.0846 -0.0539 -0.0607
    1DIPC   D3B 7607   1.989  26.321   4.876  0.1620  0.2326  0.1636
    1DIPC   C4B 7608   2.188  25.954   4.670  0.1256  0.1626 -0.0441
    1DIPC   NC3 7609   7.974  23.731   6.180 -0.0180  0.4809 -0.1610
    1DIPC   PO4 7610   8.144  23.505   5.766 -0.3565 -0.0687 -0.1478
    1DIPC   GL1 7611   8.452  23.608   5.640  0.0640  0.1070 -0.3170
    1DIPC   GL2 7612   8.546  23.866   5.581  0.2772  0.0464 -0.0659
    1DIPC   C1A 7613   8.818  23.431   5.318  0.0342 -0.2200  0.3878
    1DIPC   D2A 7614   8.741  23.415   4.899  0.0732  0.0290 -0.1550
    1DIPC   D3A 7615   9.200  23.560   5.002  0.1539  0.0992 -0.0806
    1DIPC   C4A 7616   9.341  23.808   4.653 -0.0729 -0.0096  0.2065
    1DIPC   C1B 7617   8.870  23.954   5.333  0.0778  0.0281  0.4226
    1DIPC   D2B 7618   9.197  24.023   5.087  0.2641 -0.1255 -0.2219
    1DIPC   D3B 7619   9.179  24.263   4.810  0.1471 -0.0339 -0.2064
    1DIPC   C4B 7620   9.300  24.179   4.354  0.0405  0.1023  0.3085
    1DIPC   NC3 7621  11.305  22.041   6.521  0.0860 -0.2034 -0.0009
    1DIPC   PO4 7622  10.992  22.330   6.309  0.0817 -0.3341 -0.1964
    1DIPC   GL1 7623  11.179  22.078   5.993  0.2368  0.0183 -0.0357
    1DIPC   GL2 7624  11.175  22.282   5.764  0.1075 -0.1653 -0.4146
    1DIPC   C1A 7625  10.951  21.780   5.706 -0.1069  0.4231 -0.4745
    1DIPC   D2A 7626  10.694  21.631   5.410 -0.0714 -0.0310 -0.1706
    1DIPC   D3A 7627  10.368  21.733   5.197 -0.1073 -0.1288 -0.0492
    1DIPC   C4A 7628  10.126  22.011   5.302 -0.1546  0.2429  0.0712
    1DIPC   C1B 7629  11.289  22.043   5.446  0.0331 -0.2401 -0.2542
    1DIPC   D2B 7630  11.467  21.675   5.250 -0.1260  0.0750 -0.1467
    1DIPC   D3B 7631  11.098  21.480   5.091  0.0649  0.0965 -0.2477
    1DIPC   C4B 7632  10.936  21.565   4.701  0.2246 -0.0767  0.2595
    1DIPC   NC3 7633  26.110   4.175   6.210  0.1694 -0.0599 -0.2131
    1DIPC   PO4 7634  25.732   4.068   6.182  0.0652 -0.1277  0.0726
    1DIPC   GL1 7635  25.778   4.147   5.717  0.2168  0.0459  0.1023
    1DIPC   GL2 7636  25.707   3.813   5.589 -0.0916  0.2651 -0.2047
    1DIPC   C1A 7637  25.754   4.320   5.443 -0.0699  0.1074 -0.0019
    1DIPC   D2A 7638  25.613   4.627   5.199 -0.2730  0.1177  0.0044
    1DIPC   D3A 7639  25.367   5.065   5.154  0.1747 -0.0788  0.1174
    1DIPC   C4A 7640  25.659   5.485   5.047  0.0014 -0.1409  0.2342
    1DIPC   C1B 7641  25.370   3.704   5.443 -0.2664 -0.0394 -0.0893
    1DIPC   D2B 7642  25.132   3.580   5.070  0.0814 -0.0190 -0.1640
    1DIPC   D3B 7643  25.323   3.255   4.851  0.2802 -0.2050  0.3460
    1DIPC   C4B 7644  25.423   3.135   4.438  0.2539 -0.2307 -0.3524
    1DIPC   NC3 7645  15.192  27.188   7.254 -0.0960 -0.0380 -0.2117
    1DIPC   PO4 7646  15.527  27.132   6.919 -0.1493  0.2249  0.0356
    1DIPC   GL1 7647  15.566  27.163   6.535  0.1751 -0.4281  0.0501
    1DIPC   GL2 7648  15.327  27.029   6.452  0.0009 -0.0958 -0.2617
    1DIPC   C1A 7649  15.660  27.374   6.130 -0.0113 -0.0246 -0.1354
    1DIPC   D2A 7650  15.670  27.598   5.727  0.4572 -0.0040  0.0472
    1DIPC   D3A 7651  16.100  27.577   5.852 -0.1344  0.1096 -0.1394
    1DIPC   C4A 7652  16.299  27.891   5.688  0.3172  0.1652  0.2519
    1DIPC   C1B 7653  15.305  27.061   6.041  0.1466  0.5010  0.0905
    1DIPC   D2B 7654  15.289  26.715   5.677  0.0103 -0.2479 -0.2816
    1DIPC   D3B 7655  14.957  26.508   5.632 -0.0925  0.3970 -0.0905
    1DIPC   C4B 7656  14.860  26.256   5.339 -0.0200 -0.0686 -0.2038
    1DIPC   NC3 7657  24.717   6.255   6.119 -0.0969 -0.1437  0.0592
    1DIPC   PO4 7658  24.372   6.222   6.467 -0.2448  0.1444 -0.1318
    1DIPC   GL1 7659  24.210   6.227   6.084 -0.0833  0.0027  0.0029
    1DIPC   GL2 7660  24.007   5.987   5.968 -0.0969 -0.2138 -0.0961
    1DIPC   C1A 7661  24.128   6.301   5.625  0.0510  0.2941  0.0042
    1DIPC   D2A 7662  23.901   6.490   5.150  0.2160  0.0707  0.1533
    1DIPC   D3A 7663  23.783   6.410   4.694  0.0757  0.1380  0.0276
    1DIPC   C4A 7664  23.883   6.769   4.446  0.0157  0.2202 -0.2044
    1DIPC   C1B 7665  23.706   5.951   5.641 -0.3262 -0.1474 -0.0027
    1DIPC   D2B 7666  23.449   6.212   5.522  0.1603 -0.1214  0.1369
    1DIPC   D3B 7667  23.715   6.538   5.585 -0.1621  0.1764 -0.2032
    1DIPC   C4B 7668  23.733   6.928   5.408 -0.1359  0.0683 -0.0529
    1DIPC   NC3 7669   4.507  12.186   6.821 -0.3007  0.0684 -0.2629
    1DIPC   PO4 7670   4.441  11.975   6.434 -0.3366 -0.1825  0.0504
    1DIPC   GL1 7671   4.774  11.954   6.222 -0.0261 -0.0137 -0.0754
    1DIPC   GL2 7672   4.650  12.116   5.965  0.0745  0.1256  0.1377
    1DIPC   C1A 7673   5.206  12.090   5.882  0.2449 -0.2217 -0.0871
    1DIPC   D2A 7674   5.306  12.047   5.494  0.2533  0.0735 -0.2510
    1DIPC   D3A 7675   5.042  12.208   5.098 -0.0702  0.1153 -0.3270
    1DIPC   C4A 7676   5.296  12.363   4.722 -0.0330 -0.2434  0.1158
    1DIPC   C1B 7677   4.813  11.821   5.677  0.0675 -0.3347  0.0409
    1DIPC   D2B 7678   4.891  11.459   5.385 -0.0301  0.2065  0.1588
    1DIPC   D3B 7679   4.576  11.264   5.084  0.0357 -0.3187 -0.1123
    1DIPC   C4B 7680   4.216  11.121   5.284 -0.0017 -0.1434  0.0084
    1DIPC   NC3 7681   1.010  25.915   6.574  0.3334 -0.1436  0.0667
    1DIPC   PO4 7682   0.558  25.813   6.605 -0.1124 -0.2759 -0.2649
    1DIPC   GL1 7683   0.485  26.022   6.235 -0.0733  0.4109 -0.0158
    1DIPC   GL2 7684   0.405  26.287   6.218  0.2956  0.0482  0.0092
    1DIPC   C1A 7685   0.608  26.018   5.833 -0.0814 -0.3458  0.1498
    1DIPC   D2A 7686   0.640  26.235   5.430 -0.1811 -0.0131 -0.1977
    1DIPC   D3A 7687   0.360  25.941   5.275  0.0148 -0.0384 -0.0616
    1DIPC   C4A 7688   0.301  25.902   4.812  0.0190 -0.1698 -0.2697
    1DIPC   C1B 7689   0.348  26.429   5.797  0.3554  0.0925  0.0263
    1DIPC   D2B 7690   0.193  26.475   5.395 -0.0584  0.0156 -0.0725
    1DIPC   D3B 7691   0.398  26.430   5.030  0.1774 -0.0620 -0.2174
    1DIPC   C4B 7692   0.865  26.542   4.828 -0.0197  0.0561  0.2211
    1DIPC   NC3 7693   3.829   2.456   6.567  0.0706 -0.0531 -0.0036
    1DIPC   PO4 7694   3.510   2.185   6.566 -0.0414 -0.0763  0.0285
    1DIPC   GL1 7695   3.584   2.128   6.123  0.1528 -0.2082 -0.0179
    1DIPC   GL2 7696   3.633   2.379   6.111  0.0487 -0.1541 -0.3934
    1DIPC   C1A 7697   3.343   1.852   5.821 -0.0031 -0.4689 -0.0866
    1DIPC   D2A 7698   3.063   1.570   5.842 -0.1194  0.0246  0.0159
    1DIPC   D3A 7699   3.453   1.355   5.523  0.0590 -0.3082 -0.2213
    1DIPC   C4A 7700   3.923   1.255   5.471 -0.0347  0.1189  0.5268
    1DIPC   C1B 7701   3.613   2.756   5.875  0.1624 -0.1536 -0.1543
    1DIPC   D2B 7702   3.397   3.103   5.918  0.1887  0.2286  0.1041
    1DIPC   D3B 7703   2.990   3.199   5.710 -0.1411 -0.1155  0.0618
    1DIPC   C4B 7704   2.835   2.999   5.321 -0.4159  0.1922 -0.1722
    1DIPC   NC3 7705   4.509  21.149   5.532  0.2310 -0.1116  0.0688
    1DIPC   PO4 7706   4.629  21.607   5.510 -0.0859  0.0476  0.1594
    1DIPC   GL1 7707   4.940  21.865   5.380  0.1868 -0.4618  0.0679
    1DIPC   GL2 7708   4.854  22.147   5.217  0.0595 -0.2788 -0.0313
    1DIPC   C1A 7709   5.362  22.053   5.190 -0.0154 -0.0172 -0.4417
    1DIPC   D2A 7710   5.463  22.079   4.735 -0.3978 -0.2009 -0.0195
    1DIPC   D3A 7711   5.414  21.682   4.866  0.1876  0.1052  0.2540
    1DIPC   C4A 7712   5.048  21.602   5.022  0.3501  0.0651 -0.0594
    1DIPC   C1B 7713   4.910  22.113   4.831  0.2959  0.3401 -0.0128
    1DIPC   D2B 7714   4.928  21.773   4.538  0.1492  0.0695 -0.0334
    1DIPC   D3B 7715   5.119  21.880   4.148 -0.1768  0.0108  0.1907
    1DIPC   C4B 7716   5.110  21.567   3.816  0.1947 -0.1899 -0.1172
    1DIPC   NC3 7717  26.147  20.743   6.149 -0.1160  0.2480 -0.1122
    1DIPC   PO4 7718  26.411  21.042   6.113 -0.0856  0.1618  0.1806
    1DIPC   GL1 7719  26.594  21.130   5.774 -0.1119  0.0167  0.1571
    1DIPC   GL2 7720  26.777  20.917   5.625  0.0649  0.0838 -0.2220
    1DIPC   C1A 7721  26.563  21.305   5.357  0.5453  0.0774 -0.0721
    1DIPC   D2A 7722  26.734  21.205   4.909 -0.1285  0.0410  0.0534
    1DIPC   D3A 7723  27.102  21.195   4.810 -0.0487  0.1536 -0.1613
    1DIPC   C4A 7724  27.240  20.820   5.036 -0.4050 -0.1011 -0.0326
    1DIPC   C1B 7725  26.726  20.788   5.207  0.0207 -0.3335  0.0942
    1DIPC   D2B 7726  26.479  20.671   4.781  0.2846  0.0448 -0.0210
    1DIPC   D3B 7727  26.331  20.545   5.222  0.2366  0.2166 -0.0131
    1DIPC   C4B 7728  26.616  20.332   5.488 -0.3019  0.0023 -0.0619
    1DIPC   NC3 7729   5.567  19.448   5.607  0.1938  0.1811 -0.0254
    1DIPC   PO4 7730   5.458  18.976   5.390 -0.6175  0.2528  0.1723
    1DIPC   GL1 7731   5.369  18.963   4.940  0.1555  0.2760  0.1310
    1DIPC   GL2 7732   5.132  19.169   4.796  0.2203 -0.1218 -0.6978
    1DIPC   C1A 7733   5.352  18.847   4.523  0.2038  0.1780  0.1295
    1DIPC   D2A 7734   5.534  18.477   4.211  0.0337 -0.0836 -0.0083
    1DIPC   D3A 7735   5.248  18.180   3.898  0.3466 -0.2821  0.1383
    1DIPC   C4A 7736   5.385  17.923   3.599 -0.0114 -0.2521  0.1984
    1DIPC   C1B 7737   5.483  19.346   4.511 -0.0986 -0.0050 -0.0878
    1DIPC   D2B 7738   5.679  19.354   4.113 -0.1818 -0.3435 -0.1261
    1DIPC   D3B 7739   5.377  19.463   3.912 -0.3542 -0.3923 -0.1325
    1DIPC   C4B 7740   5.084  19.717   4.076 -0.1852  0.4593 -0.1488
    1DIPC   NC3 7741  27.147  14.674   5.649 -0.0252 -0.2227  0.0378
    1DIPC   PO4 7742  27.554  14.506   5.682  0.0157 -0.1287  0.1096
    1DIPC   GL1 7743  27.789  14.220   5.402 -0.1091 -0.3020 -0.0948
    1DIPC   GL2 7744  27.713  13.902   5.394  0.3376 -0.0940  0.1211
    1DIPC   C1A 7745  27.561  14.031   4.921 -0.0717  0.1979 -0.1258
    1DIPC   D2A 7746  27.273  14.090   4.575  0.1329 -0.0254 -0.1303
    1DIPC   D3A 7747  27.592  14.139   4.430 -0.0133 -0.0032 -0.0847
    1DIPC   C4A 7748  27.644  13.803   4.345 -0.1622  0.0208 -0.1340
    1DIPC   C1B 7749  27.964  13.517   5.256  0.1386 -0.0442  0.1238
    1DIPC   D2B 7750  28.006  13.072   5.374  0.0447  0.2206 -0.3343
    1DIPC   D3B 7751  27.658  12.956   5.178 -0.1820  0.1442 -0.3431
    1DIPC   C4B 7752  27.606  12.683   4.991 -0.0364 -0.3391  0.3718
    1DIPC   NC3 7753   3.334  23.277   6.104 -0.2038  0.0519  0.0166
    1DIPC   PO4 7754   3.601  23.513   5.786 -0.0092  0.1026 -0.2267
    1DIPC   GL1 7755   3.566  23.636   5.392 -0.0323  0.2391 -0.1830
    1DIPC   GL2 7756   3.390  23.883   5.305 -0.0388  0.1457  0.2996
    1DIPC   C1A 7757   3.540  23.553   4.880  0.1440 -0.3151 -0.4105
    1DIPC   D2A 7758   3.385  23.394   4.486  0.4206 -0.1336 -0.0219
    1DIPC   D3A 7759   3.610  23.860   4.459 -0.0424 -0.0949 -0.0142
    1DIPC   C4A 7760   4.054  23.888   4.511 -0.0293  0.0394 -0.2761
    1DIPC   C1B 7761   3.859  23.903   5.069  0.1874  0.0002 -0.1023
    1DIPC   D2B 7762   4.209  24.069   5.139  0.1480 -0.0199 -0.2396
    1DIPC   D3B 7763   4.592  24.092   4.777  0.1719  0.5094 -0.0961
    1DIPC   C4B 7764   4.813  24.480   4.827 -0.0959  0.0345 -0.0463
    1DIPC   NC3 7765   5.033   7.898   6.664  0.3193 -0.1875 -0.1693
    1DIPC   PO4 7766   4.602   7.689   6.669 -0.1818  0.2567 -0.1238
    1DIPC   GL1 7767   4.456   7.639   6.320  0.0828 -0.0716 -0.0951
    1DIPC   GL2 7768   4.690   7.475   6.080  0.3742 -0.0083  0.1698
    1DIPC   C1A 7769   4.163   7.735   5.859 -0.0764  0.2640  0.2617
    1DIPC   D2A 7770   4.332   7.931   5.494 -0.0321 -0.0874 -0.0183
    1DIPC   D3A 7771   4.283   7.660   5.103 -0.1349 -0.1595 -0.1192
    1DIPC   C4A 7772   4.526   7.273   4.838  0.0227 -0.0540 -0.0779
    1DIPC   C1B 7773   4.817   7.127   5.855 -0.0423  0.0062  0.1220
    1DIPC   D2B 7774   5.143   7.161   5.552  0.0252 -0.0024 -0.1322
    1DIPC   D3B 7775   4.962   6.911   5.152  0.1575  0.1437 -0.0008
    1DIPC   C4B 7776   5.055   6.947   4.662 -0.0063 -0.0038 -0.1482
    1DIPC   NC3 7777  27.822   0.553   7.291 -0.0579  0.1625  0.2840
    1DIPC   PO4 7778  27.911   0.199   6.961  0.1367 -0.1379  0.1281
    1DIPC   GL1 7779  27.874   0.044   6.608 -0.1363 -0.1203 -0.2601
    1DIPC   GL2 7780  27.619   0.042   6.602  0.3169 -0.0333  0.0254
    1DIPC   C1A 7781  27.783   0.114   6.145 -0.0503  0.1576 -0.0218
    1DIPC   D2A 7782  27.508   0.522   5.925 -0.1007 -0.0999  0.2197
    1DIPC   D3A 7783  27.369   0.610   5.482 -0.2131 -0.0420 -0.0656
    1DIPC   C4A 7784  27.628   0.862   5.281 -0.2351 -0.0917 -0.1851
    1DIPC   C1B 7785  27.137  -0.107   6.531  0.1475 -0.0119  0.0937
    1DIPC   D2B 7786  26.885  -0.329   6.595 -0.0847 -0.0238 -0.1459
    1DIPC   D3B 7787  26.940  -0.440   6.145 -0.0572 -0.0410  0.4516
    1DIPC   C4B 7788  26.962  -0.129   5.799  0.1149  0.1611  0.0391
    1DIPC   NC3 7789   6.506  24.413   6.304 -0.1432  0.2596  0.1109
    1DIPC   PO4 7790   6.374  24.162   5.859 -0.0725 -0.1841 -0.0996
    1DIPC   GL1 7791   6.348  24.375   5.436  0.1454 -0.1329 -0.1759
    1DIPC   GL2 7792   6.227  24.182   5.284 -0.4580  0.0907 -0.1806
    1DIPC   C1A 7793   6.018  24.613   5.252 -0.1796 -0.1202 -0.3598
    1DIPC   D2A 7794   5.766  24.890   5.007  0.1966  0.2256  0.2924
    1DIPC   D3A 7795   5.332  24.858   4.915 -0.0498 -0.0760  0.0397
    1DIPC   C4A 7796   5.169  24.746   4.544 -0.0656  0.0270  0.0027
    1DIPC   C1B 7797   6.525  24.376   4.933  0.2363 -0.0672  0.0679
    1DIPC   D2B 7798   6.419  24.406   4.508  0.0230  0.0348  0.0951
    1DIPC   D3B 7799   6.591  24.043   4.449  0.5315  0.0753 -0.0366
    1DIPC   C4B 7800   6.634  23.879   4.059 -0.0921 -0.2971 -0.1725
    1DIPC   NC3 7801  18.806  20.076   7.588 -0.0051 -0.6177  0.0505
    1DIPC   PO4 7802  18.556  20.317   7.322 -0.2742 -0.1558 -0.0489
    1DIPC   GL1 7803  18.502  20.003   7.100 -0.1296  0.1223  0.1125
    1DIPC   GL2 7804  18.602  20.091   6.782  0.1907 -0.0112 -0.1470
    1DIPC   C1A 7805  18.515  19.602   6.847  0.4091 -0.2556  0.1108
    1DIPC   D2A 7806  18.750  19.353   6.651  0.4057 -0.1713 -0.2298
    1DIPC   D3A 7807  18.548  19.614   6.319  0.1752  0.0836  0.0929
    1DIPC   C4A 7808  18.761  19.520   5.836  0.0497  0.0099  0.0374
    1DIPC   C1B 7809  18.648  20.347   6.483 -0.3265  0.2369  0.2660
    1DIPC   D2B 7810  18.432  20.669   6.421 -0.3094 -0.2198 -0.2928
    1DIPC   D3B 7811  18.557  20.492   6.010  0.0312 -0.1433 -0.1451
    1DIPC   C4B 7812  18.246  20.169   5.834 -0.4078 -0.0224  0.1545
    1DIPC   NC3 7813  25.047  16.470   6.089  0.1832  0.0917  0.0838
    1DIPC   PO4 7814  24.578  16.378   6.039 -0.0557  0.1604  0.1680
    1DIPC   GL1 7815  24.481  16.298   5.640 -0.5334 -0.1758  0.0071
    1DIPC   GL2 7816  24.443  16.679   5.542 -0.1701  0.2354  0.2165
    1DIPC   C1A 7817  24.550  16.186   5.283 -0.0785  0.1805  0.0457
    1DIPC   D2A 7818  24.785  15.943   4.905  0.3007  0.0080  0.2005
    1DIPC   D3A 7819  24.723  16.233   4.515  0.0023 -0.1097 -0.2719
    1DIPC   C4A 7820  24.561  15.997   4.244  0.0350  0.1000 -0.1586
    1DIPC   C1B 7821  24.840  16.735   5.282 -0.0394  0.0383  0.2046
    1DIPC   D2B 7822  24.764  16.604   4.819  0.0070  0.0374  0.1982
    1DIPC   D3B 7823  25.138  16.769   4.519 -0.1379 -0.0557 -0.2624
    1DIPC   C4B 7824  25.520  16.987   4.655 -0.1044 -0.0377 -0.1694
    1DIPC   NC3 7825  14.873   4.371   7.896 -0.0066  0.1477 -0.3634
    1DIPC   PO4 7826  14.971   4.829   7.681  0.1209 -0.4268 -0.4425
    1DIPC   GL1 7827  14.877   4.889   7.201  0.2125 -0.1346 -0.0821
    1DIPC   GL2 7828  15.048   4.656   7.185 -0.2819  0.3038  0.3401
    1DIPC   C1A 7829  14.856   4.972   6.795 -0.0243  0.3127 -0.1110
    1DIPC   D2A 7830  14.848   5.231   6.315  0.0654 -0.1403 -0.1416
    1DIPC   D3A 7831  14.964   5.084   5.890 -0.2978 -0.2696  0.1655
    1DIPC   C4A 7832  14.600   4.851   5.648 -0.2981  0.1861  0.0516
    1DIPC   C1B 7833  15.338   4.768   6.942  0.0773 -0.0321 -0.0143
    1DIPC   D2B 7834  15.558   5.103   6.844  0.0025  0.3553  0.1338
    1DIPC   D3B 7835  15.238   4.951   6.513  0.0548  0.2258 -0.0240
    1DIPC   C4B 7836  15.299   4.792   6.121  0.1821 -0.1639 -0.1095
    1DIPC   NC3 7837  24.948   7.890   6.251 -0.1408 -0.0021 -0.2223
    1DIPC   PO4 7838  24.551   7.604   6.169 -0.3799 -0.2129  0.2533
    1DIPC   GL1 7839  24.287   7.540   5.736  0.3717  0.2037  0.0810
    1DIPC   GL2 7840  24.186   7.223   5.675  0.7001  0.2030 -0.2413
    1DIPC   C1A 7841  24.474   7.492   5.334 -0.0701  0.1635 -0.1702
    1DIPC   D2A 7842  24.389   7.473   4.924  0.1420 -0.0236  0.1086
    1DIPC   D3A 7843  24.248   7.201   4.567  0.0202  0.1564 -0.1921
    1DIPC   C4A 7844  24.417   6.919   4.242 -0.0294  0.0335  0.2181
    1DIPC   C1B 7845  24.111   7.077   5.147  0.0265  0.1197 -0.0334
    1DIPC   D2B 7846  23.834   7.077   4.940  0.0811 -0.0592  0.0455
    1DIPC   D3B 7847  23.502   6.992   4.768 -0.0955  0.1440  0.0513
    1DIPC   C4B 7848  23.476   7.036   4.403 -0.0414  0.0615 -0.2420
    1DIPC   NC3 7849  11.829   8.466   6.860  0.1003 -0.2609 -0.0463
    1DIPC   PO4 7850  11.509   8.624   7.244  0.1467 -0.0873  0.0467
    1DIPC   GL1 7851  11.421   8.833   6.873  0.0137  0.1107 -0.1014
    1DIPC   GL2 7852  11.255   8.611   6.714  0.0954 -0.4461  0.1799
    1DIPC   C1A 7853  11.331   9.209   6.608  0.1518 -0.0966 -0.1854
    1DIPC   D2A 7854  11.347   9.692   6.662  0.1345  0.1433  0.1422
    1DIPC   D3A 7855  11.466   9.594   6.257  0.0175 -0.1468 -0.1870
    1DIPC   C4A 7856  11.347   9.195   5.989  0.1019  0.1210 -0.0060
    1DIPC   C1B 7857  11.480   8.684   6.333  0.1095  0.2199 -0.2486
    1DIPC   D2B 7858  11.893   8.712   6.171  0.0578 -0.2550  0.2262
    1DIPC   D3B 7859  11.868   8.423   5.789 -0.0975  0.4170 -0.0818
    1DIPC   C4B 7860  12.201   8.523   5.460  0.2440  0.2228 -0.0622
    1DIPC   NC3 7861   4.804  17.688   6.287 -0.2431 -0.0565 -0.0446
    1DIPC   PO4 7862   4.846  17.404   5.968  0.0744  0.1584  0.0501
    1DIPC   GL1 7863   4.787  17.118   5.698 -0.1205 -0.1272 -0.2225
    1DIPC   GL2 7864   5.071  17.193   5.475  0.0566  0.1080 -0.0474
    1DIPC   C1A 7865   4.515  17.012   5.383 -0.3071  0.1945 -0.2297
    1DIPC   D2A 7866   4.466  16.983   4.957  0.2124  0.2030  0.0524
    1DIPC   D3A 7867   4.586  16.476   4.821 -0.1356  0.1707  0.0153
    1DIPC   C4A 7868   4.839  16.273   5.147 -0.4853 -0.2676  0.1747
    1DIPC   C1B 7869   5.424  17.224   5.347  0.0122  0.1744  0.0285
    1DIPC   D2B 7870   5.805  16.994   5.238  0.0556 -0.0728  0.2752
    1DIPC   D3B 7871   5.520  16.904   4.817 -0.0110  0.0878 -0.0217
    1DIPC   C4B 7872   5.672  16.778   4.429 -0.2136  0.1112 -0.0139
    1DIPC   NC3 7873  23.395   5.987   6.299 -0.3020  0.3650 -0.1329
    1DIPC   PO4 7874  23.217   6.458   6.240 -0.4427  0.0184 -0.1138
    1DIPC   GL1 7875  23.055   6.297   5.866  0.2273  0.1764  0.0888
    1DIPC   GL2 7876  23.096   5.901   5.765  0.2742  0.0185 -0.2724
    1DIPC   C1A 7877  22.985   6.455   5.417 -0.3951 -0.0854 -0.1505
    1DIPC   D2A 7878  22.817   6.575   4.999  0.3773 -0.0425  0.1680
    1DIPC   D3A 7879  22.937   7.030   4.984 -0.0287  0.0267  0.1547
    1DIPC   C4A 7880  22.908   7.242   5.268  0.0823  0.0837 -0.1400
    1DIPC   C1B 7881  23.099   5.920   5.348 -0.1442 -0.0516  0.2766
    1DIPC   D2B 7882  23.079   6.162   4.940  0.0436 -0.0544  0.0589
    1DIPC   D3B 7883  23.368   6.579   5.042  0.3141  0.2682 -0.0160
    1DIPC   C4B 7884  23.245   6.879   5.324  0.1498 -0.1461  0.2254
    1DIPC   NC3 7885  25.628  21.490   6.134 -0.0004  0.1407 -0.1306
    1DIPC   PO4 7886  25.329  21.751   6.070  0.0648 -0.0401 -0.3634
    1DIPC   GL1 7887  25.473  21.893   5.763 -0.0873  0.0322  0.0924
    1DIPC   GL2 7888  25.691  21.599   5.641  0.1177  0.3798  0.2445
    1DIPC   C1A 7889  25.903  22.131   5.813  0.0222  0.1790 -0.0997
    1DIPC   D2A 7890  26.362  22.301   5.567 -0.1201  0.3984  0.1747
    1DIPC   D3A 7891  26.330  22.734   5.716 -0.0347 -0.0707  0.2296
    1DIPC   C4A 7892  26.419  22.983   6.049 -0.0587  0.0013  0.2042
    1DIPC   C1B 7893  25.246  21.571   5.436  0.2458 -0.2578 -0.0896
    1DIPC   D2B 7894  24.811  21.476   5.576 -0.3618  0.0275 -0.0356
    1DIPC   D3B 7895  24.893  21.014   5.490  0.3790  0.2329  0.2918
    1DIPC   C4B 7896  24.822  20.656   5.646  0.4783 -0.4380  0.0270
    1DIPC   NC3 7897   6.878  10.274   7.760 -0.3294 -0.1807 -0.0691
    1DIPC   PO4 7898   6.789  10.506   7.357  0.1344 -0.1696  0.1042
    1DIPC   GL1 7899   6.901  10.328   6.975  0.2486 -0.0003 -0.1923
    1DIPC   GL2 7900   7.083  10.089   6.958 -0.3632 -0.2016 -0.2005
    1DIPC   C1A 7901   6.799  10.456   6.555 -0.1380  0.1309  0.2120
    1DIPC   D2A 7902   6.711  10.398   6.177  0.3960 -0.1189 -0.2151
    1DIPC   D3A 7903   6.522  10.644   5.821 -0.1496  0.3683 -0.1803
    1DIPC   C4A 7904   6.211  10.893   5.820  0.2989  0.1754 -0.2526
    1DIPC   C1B 7905   6.896   9.964   6.493 -0.2122  0.1690  0.2689
    1DIPC   D2B 7906   6.566   9.906   6.250  0.2098 -0.1060 -0.0995
    1DIPC   D3B 7907   6.658   9.577   5.995 -0.0941  0.1778  0.0958
    1DIPC   C4B 7908   6.729   9.495   5.520 -0.5023  0.0614  0.2523
    1DIPC   NC3 7909   3.035  21.111   5.434  0.0128  0.3367  0.0923
    1DIPC   PO4 7910   3.207  21.564   5.369  0.0280  0.2825 -0.1017
    1DIPC   GL1 7911   3.359  21.283   5.127  0.2855 -0.2352  0.1098
    1DIPC   GL2 7912   3.792  21.203   5.145  0.0514 -0.2375  0.0648
    1DIPC   C1A 7913   3.359  20.986   4.909 -0.2037  0.0009  0.1421
    1DIPC   D2A 7914   3.507  20.531   4.656 -0.2259  0.2107 -0.1730
    1DIPC   D3A 7915   3.031  20.531   4.565 -0.0121 -0.3420  0.1531
    1DIPC   C4A 7916   2.852  20.774   4.141  0.0834 -0.0403  0.0280
    1DIPC   C1B 7917   3.662  21.392   4.741 -0.0969  0.3636 -0.0684
    1DIPC   D2B 7918   3.438  21.586   4.338 -0.2737  0.0062 -0.0736
    1DIPC   D3B 7919   3.665  22.013   4.193  0.2138 -0.0958 -0.1718
    1DIPC   C4B 7920   3.553  22.245   3.771 -0.0287  0.3071  0.0684
    1DIPC   NC3 7921  17.722  24.603   7.371  0.0206 -0.0568 -0.2923
    1DIPC   PO4 7922  17.517  24.985   7.174 -0.1106  0.1554  0.1106
    1DIPC   GL1 7923  17.707  25.017   6.591 -0.1756 -0.0622 -0.0900
    1DIPC   GL2 7924  17.628  24.757   6.362  0.1370 -0.1045 -0.0942
    1DIPC   C1A 7925  18.084  24.959   6.300  0.1284 -0.1563 -0.0454
    1DIPC   D2A 7926  18.437  24.637   6.043 -0.1092 -0.3512 -0.2928
    1DIPC   D3A 7927  18.678  24.835   5.619 -0.1894 -0.2699 -0.0675
    1DIPC   C4A 7928  18.705  25.263   5.530 -0.1767  0.0765  0.1700
    1DIPC   C1B 7929  17.605  24.323   6.344 -0.0916 -0.0689  0.1107
    1DIPC   D2B 7930  17.867  23.989   6.260 -0.0694 -0.2073  0.3981
    1DIPC   D3B 7931  18.028  24.139   5.870 -0.1474 -0.3630  0.1502
    1DIPC   C4B 7932  18.405  23.979   5.629  0.2635  0.0791  0.1458
    1DIPC   NC3 7933  17.128   0.154   7.625  0.1522 -0.0948 -0.0039
    1DIPC   PO4 7934  17.234   0.221   7.285  0.0514 -0.1050  0.0275
    1DIPC   GL1 7935  17.256   0.576   7.027  0.0051  0.2499  0.2858
    1DIPC   GL2 7936  17.170   0.389   6.754  0.1265 -0.1045 -0.0601
    1DIPC   C1A 7937  17.048   0.859   6.691 -0.1603 -0.0618  0.1220
    1DIPC   D2A 7938  16.973   1.240   6.447  0.1998 -0.1143 -0.2875
    1DIPC   D3A 7939  17.430   1.426   6.390 -0.0689 -0.1123  0.1482
    1DIPC   C4A 7940  17.737   1.365   6.055 -0.0705 -0.1565  0.1086
    1DIPC   C1B 7941  17.187   0.020   6.675  0.0123  0.0347 -0.2139
    1DIPC   D2B 7942  17.331  -0.138   6.321 -0.3769  0.0051  0.3345
    1DIPC   D3B 7943  17.117  -0.395   6.053  0.1227  0.1518  0.1526
    1DIPC   C4B 7944  16.627  -0.556   6.095 -0.0223  0.3213 -0.0435
    1DIPC   NC3 7945  24.349   5.739   6.261  0.1990 -0.0904  0.0368
    1DIPC   PO4 7946  24.793   5.650   6.127  0.2904  0.0180  0.0441
    1DIPC   GL1 7947  24.647   5.714   5.758  0.1557 -0.4191 -0.2498
    1DIPC   GL2 7948  24.804   5.806   5.525 -0.0832  0.1460  0.1085
    1DIPC   C1A 7949  24.301   5.818   5.591  0.1457  0.1801 -0.1956
    1DIPC   D2A 7950  24.047   5.845   5.229 -0.0610  0.1233 -0.2634
    1DIPC   D3A 7951  24.264   6.216   5.003 -0.0142 -0.0641  0.2738
    1DIPC   C4A 7952  24.242   6.663   4.775 -0.0296 -0.1922  0.0016
    1DIPC   C1B 7953  24.726   6.171   5.425 -0.1382 -0.1425  0.0501
    1DIPC   D2B 7954  24.835   6.623   5.302 -0.2646  0.0381  0.0055
    1DIPC   D3B 7955  24.465   6.567   5.235 -0.2603 -0.0773 -0.0894
    1DIPC   C4B 7956  24.362   6.805   5.603  0.2529  0.4019 -0.3385
    1DIPC   NC3 7957   1.668  19.984   6.035 -0.1654 -0.4318 -0.0524
    1DIPC   PO4 7958   1.359  20.248   5.778  0.0508  0.2598  0.2856
    1DIPC   GL1 7959   1.065  20.418   5.454 -0.0029 -0.0173 -0.2560
    1DIPC   GL2 7960   0.795  20.738   5.456  0.0095 -0.4430 -0.0089
    1DIPC   C1A 7961   0.804  20.360   5.176  0.3065  0.1951  0.1743
    1DIPC   D2A 7962   0.647  20.523   4.867  0.0041 -0.0296 -0.1949
    1DIPC   D3A 7963   0.151  20.649   4.764  0.1018 -0.3319 -0.0818
    1DIPC   C4A 7964   0.089  21.131   4.685 -0.2053 -0.0552 -0.2198
    1DIPC   C1B 7965   1.125  20.739   5.147  0.0963 -0.2374  0.3402
    1DIPC   D2B 7966   1.493  20.824   5.195 -0.2751  0.0778  0.0023
    1DIPC   D3B 7967   1.367  21.134   4.958 -0.3073  0.2308  0.0835
    1DIPC   C4B 7968   1.722  21.358   4.834 -0.1936 -0.1209  0.4892
    1DIPC   NC3 7969   2.518  22.424   5.914  0.3381 -0.3876 -0.1916
    1DIPC   PO4 7970   2.235  22.704   5.818 -0.3137  0.0569 -0.2822
    1DIPC   GL1 7971   2.036  22.812   5.468 -0.2799  0.1314 -0.2554
    1DIPC   GL2 7972   2.144  23.197   5.535 -0.2685  0.0292  0.0330
    1DIPC   C1A 7973   1.870  22.902   5.002 -0.2969  0.1373  0.3182
    1DIPC   D2A 7974   1.794  22.912   4.546 -0.0390  0.2272 -0.3210
    1DIPC   D3A 7975   2.133  23.189   4.646  0.0020 -0.0614  0.1222
    1DIPC   C4A 7976   2.369  23.472   4.405 -0.0690 -0.0376 -0.2168
    1DIPC   C1B 7977   2.353  23.019   5.139  0.0797  0.0484 -0.0113
    1DIPC   D2B 7978   2.427  22.754   4.808 -0.4480 -0.0619 -0.0130
    1DIPC   D3B 7979   2.252  22.430   4.966 -0.1213 -0.1367 -0.0699
    1DIPC   C4B 7980   1.791  22.321   5.046  0.2150 -0.1055 -0.2058
    1DIPC   NC3 7981   2.914  20.181   5.959  0.0812  0.0356 -0.1203
    1DIPC   PO4 7982   2.569  20.155   5.591  0.0255  0.0928 -0.2207
    1DIPC   GL1 7983   2.636  20.351   5.173  0.1344  0.0650 -0.0321
    1DIPC   GL2 7984   2.830  20.071   5.131  0.0032 -0.0163  0.1542
    1DIPC   C1A 7985   2.541  20.268   4.814  0.0963 -0.2671  0.2004
    1DIPC   D2A 7986   2.545  20.374   4.393 -0.0773 -0.1741  0.1727
    1DIPC   D3A 7987   2.632  19.999   4.203 -0.2152  0.1131  0.1679
    1DIPC   C4A 7988   2.913  19.769   4.032 -0.1243  0.0730 -0.0020
    1DIPC   C1B 7989   2.531  19.769   5.100 -0.0604 -0.2365 -0.0753
    1DIPC   D2B 7990   2.318  19.522   4.984  0.1059 -0.1812  0.2342
    1DIPC   D3B 7991   2.464  19.651   4.593 -0.2808 -0.0211  0.2786
    1DIPC   C4B 7992   2.760  19.514   4.445 -0.1644  0.0557  0.0340
    1DIPC   NC3 7993  11.433   5.971   7.926  0.2248 -0.2032  0.4374
    1DIPC   PO4 7994  11.624   6.104   7.479 -0.0503 -0.3029 -0.1934
    1DIPC   GL1 7995  11.614   6.116   7.098  0.1046  0.2612  0.0797
    1DIPC   GL2 7996  11.330   5.994   6.842  0.0218  0.2225 -0.1173
    1DIPC   C1A 7997  11.739   6.279   6.702 -0.2321  0.0159 -0.0989
    1DIPC   D2A 7998  12.034   6.205   6.418 -0.2329 -0.0215 -0.0112
    1DIPC   D3A 7999  11.715   6.441   6.112  0.0102  0.0265  0.0050
    1DIPC   C4A 8000  11.701   6.861   5.982  0.2247 -0.2351  0.1648
    1DIPC   C1B 8001  11.095   5.899   6.415 -0.1494 -0.1774  0.2527
    1DIPC   D2B 8002  11.265   6.198   6.092 -0.0145  0.2565  0.2471
    1DIPC   D3B 8003  11.060   5.989   5.817  0.0894 -0.0543  0.0630
    1DIPC   C4B 8004  11.005   6.036   5.436 -0.3154  0.0240 -0.1010
    1DIPC   NC3 8005   0.575  10.443   5.856  0.3083 -0.1234  0.1030
    1DIPC   PO4 8006   0.574  10.075   5.597  0.2880 -0.0009  0.1497
    1DIPC   GL1 8007   0.324   9.838   5.270 -0.0600  0.2480  0.0236
    1DIPC   GL2 8008   0.081   9.950   5.378 -0.0823 -0.5709  0.0420
    1DIPC   C1A 8009   0.171   9.713   4.889  0.2233  0.2578  0.3541
    1DIPC   D2A 8010   0.106   9.562   4.492  0.0210  0.0164  0.0088
    1DIPC   D3A 8011   0.500   9.417   4.633 -0.1359  0.1127 -0.2755
    1DIPC   C4A 8012   0.896   9.623   4.540  0.2769  0.1156  0.4398
    1DIPC   C1B 8013   0.037  10.189   4.983  0.2353  0.1349  0.2290
    1DIPC   D2B 8014  -0.072  10.166   4.455 -0.2240  0.0487 -0.1211
    1DIPC   D3B 8015  -0.387   9.836   4.349 -0.0900  0.1247  0.1511
    1DIPC   C4B 8016  -0.312   9.472   4.062  0.0949  0.0592  0.0235
    1DIPC   NC3 8017   9.068   9.703   7.571  0.0892 -0.3161 -0.1877
    1DIPC   PO4 8018   9.492   9.633   7.554 -0.0698 -0.0841 -0.0810
    1DIPC   GL1 8019   9.551   9.695   7.133 -0.4482 -0.0871 -0.0994
    1DIPC   GL2 8020   9.651  10.029   7.008  0.0083  0.1417  0.0411
    1DIPC   C1A 8021   9.801   9.593   6.776 -0.1769 -0.0225  0.1781
    1DIPC   D2A 8022   9.611   9.283   6.552  0.0682  0.0390  0.2154
    1DIPC   D3A 8023   9.575   9.180   6.150  0.1208  0.2970  0.1327
    1DIPC   C4A 8024   9.498   9.046   5.736 -0.3013  0.0459 -0.0751
    1DIPC   C1B 8025   9.364   9.879   6.729  0.1420 -0.1469  0.0926
    1DIPC   D2B 8026   9.223   9.468   6.791 -0.3181 -0.2645 -0.1115
    1DIPC   D3B 8027   9.117   9.267   6.427  0.1443 -0.1331  0.1122
    1DIPC   C4B 8028   8.636   9.111   6.522  0.1811  0.0246  0.2362
    1DIPC   NC3 8029   3.793  19.677   5.588 -0.3505 -0.1315  0.0430
    1DIPC   PO4 8030   3.622  20.142   5.510  0.2557  0.3594  0.0265
    1DIPC   GL1 8031   3.653  20.211   5.099  0.1137  0.0617  0.1466
    1DIPC   GL2 8032   3.275  20.217   4.977  0.1163 -0.0175 -0.1306
    1DIPC   C1A 8033   3.762  20.108   4.628  0.0470  0.1163 -0.1038
    1DIPC   D2A 8034   3.959  20.463   4.421  0.0682  0.5712 -0.0802
    1DIPC   D3A 8035   3.639  20.297   4.157 -0.1603  0.0395  0.1323
    1DIPC   C4A 8036   3.271  20.167   4.394  0.0425  0.1576  0.0480
    1DIPC   C1B 8037   3.311  19.846   4.762  0.1607  0.0795  0.1362
    1DIPC   D2B 8038   3.276  19.660   4.390  0.3601  0.0087  0.2205
    1DIPC   D3B 8039   3.410  19.826   3.956 -0.0490 -0.2613 -0.1814
    1DIPC   C4B 8040   3.554  19.629   3.649  0.1270 -0.0444 -0.2349
    1DIPC   NC3 8041  23.981   3.515   6.314  0.3335 -0.2301 -0.1954
    1DIPC   PO4 8042  23.730   3.262   6.563 -0.0498 -0.1122  0.0820
    1DIPC   GL1 8043  23.586   3.026   6.136  0.0289  0.0073 -0.0891
    1DIPC   GL2 8044  23.557   3.373   6.020 -0.1287 -0.0055 -0.2470
    1DIPC   C1A 8045  23.641   3.107   5.633 -0.0935  0.3579  0.0695
    1DIPC   D2A 8046  23.678   3.027   5.180  0.0948 -0.4930  0.1509
    1DIPC   D3A 8047  23.447   2.544   5.204  0.2662 -0.3178 -0.3930
    1DIPC   C4A 8048  23.181   2.501   4.818  0.0390 -0.2192  0.0233
    1DIPC   C1B 8049  23.428   3.539   5.561  0.3073  0.4022  0.1614
    1DIPC   D2B 8050  23.581   3.541   5.191  0.0376 -0.1595 -0.2146
    1DIPC   D3B 8051  23.150   3.262   5.302  0.1612 -0.0398 -0.1443
    1DIPC   C4B 8052  23.078   2.985   5.070  0.0448 -0.1251 -0.0548
    1DIPC   NC3 8053  16.884  27.031   7.399 -0.1168  0.0117  0.1249
    1DIPC   PO4 8054  17.264  26.940   7.186  0.2086 -0.1120  0.0210
    1DIPC   GL1 8055  17.165  26.805   6.673 -0.0031  0.3213 -0.1191
    1DIPC   GL2 8056  17.261  27.055   6.464 -0.5008 -0.1084  0.0646
    1DIPC   C1A 8057  17.237  26.628   6.219 -0.1551 -0.1353 -0.1249
    1DIPC   D2A 8058  17.533  26.442   5.862 -0.0859  0.0281 -0.0794
    1DIPC   D3A 8059  17.696  26.651   5.632 -0.1207  0.4677 -0.5144
    1DIPC   C4A 8060  17.428  26.906   5.456 -0.0404  0.0213 -0.2065
    1DIPC   C1B 8061  16.912  27.415   6.441 -0.2439  0.0305  0.0695
    1DIPC   D2B 8062  16.522  27.257   6.494  0.0547  0.1681  0.0702
    1DIPC   D3B 8063  16.706  26.800   6.450 -0.0213  0.0023  0.0759
    1DIPC   C4B 8064  16.625  26.646   6.059  0.0204  0.0586  0.0673
    1DIPC   NC3 8065  12.703  28.163   7.631  0.1692  0.1332 -0.1626
    1DIPC   PO4 8066  12.525  28.271   7.218 -0.0173  0.0598 -0.2308
    1DIPC   GL1 8067  12.583  28.539   6.883  0.1356 -0.1797 -0.2909
    1DIPC   GL2 8068  12.916  28.377   6.835 -0.1536 -0.1040 -0.1353
    1DIPC   C1A 8069  12.335  29.009   6.837  0.0118  0.2815  0.1368
    1DIPC   D2A 8070  12.439  29.291   6.588  0.0825  0.0203 -0.0426
    1DIPC   D3A 8071  12.005  29.526   6.780 -0.0994 -0.2379 -0.1012
    1DIPC   C4A 8072  11.823  29.904   6.678  0.0698  0.0248  0.2269
    1DIPC   C1B 8073  13.158  28.501   6.490  0.1563  0.1871  0.0585
    1DIPC   D2B 8074  13.520  28.319   6.502  0.0049 -0.0287  0.3974
    1DIPC   D3B 8075  13.621  28.613   6.239  0.1423 -0.3390 -0.0365
    1DIPC   C4B 8076  13.467  28.719   5.760 -0.1124 -0.0191 -0.0558
    1DIPC   NC3 8077  26.616  22.462   6.621 -0.0187 -0.1170  0.3387
    1DIPC   PO4 8078  26.141  22.299   6.569  0.4288 -0.3069  0.3013
    1DIPC   GL1 8079  26.278  22.072   6.308  0.1060 -0.0351 -0.2352
    1DIPC   GL2 8080  26.364  22.355   6.082 -0.2611 -0.1120 -0.1122
    1DIPC   C1A 8081  26.377  21.846   5.948 -0.2319 -0.3427  0.0423
    1DIPC   D2A 8082  26.280  21.523   5.720  0.1075 -0.1215  0.0810
    1DIPC   D3A 8083  26.076  21.812   5.472  0.0490  0.1202 -0.0849
    1DIPC   C4A 8084  26.180  21.986   5.060  0.2160 -0.0992 -0.0304
    1DIPC   C1B 8085  26.812  22.109   5.758 -0.0781  0.0840 -0.0816
    1DIPC   D2B 8086  26.987  22.182   5.394 -0.1498 -0.2040 -0.1931
    1DIPC   D3B 8087  26.627  22.243   5.174 -0.1133 -0.0916  0.0258
    1DIPC   C4B 8088  26.257  22.617   5.188 -0.1167  0.0920  0.2112
    1DIPC   NC3 8089  20.675  26.101   7.243  0.0595  0.1638 -0.2354
    1DIPC   PO4 8090  20.531  26.227   6.884 -0.0096  0.3741  0.1686
    1DIPC   GL1 8091  20.743  26.169   6.474 -0.1118  0.1982 -0.0014
    1DIPC   GL2 8092  20.765  26.288   6.111 -0.1444  0.0141  0.1518
    1DIPC   C1A 8093  20.925  25.829   6.098 -0.2634  0.2081  0.0351
    1DIPC   D2A 8094  20.950  25.397   5.816  0.1182  0.0227  0.1419
    1DIPC   D3A 8095  20.721  25.138   5.995  0.3228  0.1217 -0.3294
    1DIPC   C4A 8096  20.307  25.167   6.019  0.0196 -0.0265 -0.0512
    1DIPC   C1B 8097  20.630  26.137   5.753  0.0994 -0.3243  0.2101
    1DIPC   D2B 8098  20.505  26.333   5.465  0.0315  0.4490 -0.1207
    1DIPC   D3B 8099  20.472  26.023   5.212 -0.0636 -0.2278 -0.0673
    1DIPC   C4B 8100  20.845  25.931   4.907  0.1933  0.0804  0.0602
    1DIPC   NC3 8101   2.251  17.395   6.372  0.2868  0.0669  0.1793
    1DIPC   PO4 8102   2.437  17.517   5.924  0.0033  0.2565  0.0346
    1DIPC   GL1 8103   2.201  17.264   5.556 -0.1212 -0.1319 -0.3150
    1DIPC   GL2 8104   1.968  17.133   5.344 -0.1270  0.0183  0.1451
    1DIPC   C1A 8105   2.039  17.595   5.284  0.2709 -0.2392 -0.3275
    1DIPC   D2A 8106   2.307  17.857   5.025 -0.1166  0.2211  0.1164
    1DIPC   D3A 8107   2.135  18.267   5.019  0.0885  0.0665 -0.0114
    1DIPC   C4A 8108   2.090  18.611   4.953  0.2119 -0.2217 -0.2803
    1DIPC   C1B 8109   1.727  16.738   5.357 -0.0544  0.0044  0.0570
    1DIPC   D2B 8110   1.453  16.437   5.162 -0.5441 -0.1970  0.1241
    1DIPC   D3B 8111   1.787  16.421   4.927 -0.0582 -0.0560  0.0288
    1DIPC   C4B 8112   2.181  16.691   4.881  0.3677  0.3372 -0.2071
    1DIPC   NC3 8113   5.892  19.039   5.612  0.1081  0.0819  0.2009
    1DIPC   PO4 8114   6.195  18.754   5.695 -0.0628 -0.4040 -0.0124
    1DIPC   GL1 8115   6.308  18.528   5.308 -0.0472 -0.0628  0.0834
    1DIPC   GL2 8116   6.475  18.304   5.626  0.1162  0.1900 -0.2137
    1DIPC   C1A 8117   6.312  18.413   4.946 -0.1739  0.2181  0.1397
    1DIPC   D2A 8118   6.136  18.233   4.628 -0.4274 -0.3518  0.0868
    1DIPC   D3A 8119   6.083  18.376   4.194 -0.2068  0.1626  0.0891
    1DIPC   C4A 8120   6.083  18.048   3.939  0.1259 -0.1112 -0.0959
    1DIPC   C1B 8121   6.733  18.165   5.343  0.1908  0.0065  0.0444
    1DIPC   D2B 8122   6.583  18.010   5.039 -0.0691  0.1819  0.0336
    1DIPC   D3B 8123   6.668  18.246   4.589 -0.0347 -0.1167  0.0340
    1DIPC   C4B 8124   6.549  18.095   4.199 -0.0716 -0.3154 -0.0650
    1DIPC   NC3 8125   4.146  21.297   5.859  0.0572  0.1986 -0.1868
    1DIPC   PO4 8126   4.133  21.452   5.480 -0.2874  0.0571  0.0055
    1DIPC   GL1 8127   4.259  21.474   5.071 -0.0565  0.1814  0.2115
    1DIPC   GL2 8128   4.550  21.371   5.087  0.2246  0.1525  0.0836
    1DIPC   C1A 8129   4.194  21.269   4.713 -0.2042 -0.2083  0.2510
    1DIPC   D2A 8130   4.287  20.848   4.529  0.1571 -0.0258 -0.0874
    1DIPC   D3A 8131   4.230  20.748   4.083  0.0037 -0.0152 -0.2411
    1DIPC   C4A 8132   4.280  21.118   3.879 -0.0074  0.0686 -0.0796
    1DIPC   C1B 8133   4.757  21.288   4.757  0.3682 -0.0066  0.1429
    1DIPC   D2B 8134   4.577  21.175   4.284 -0.1889 -0.0042  0.0333
    1DIPC   D3B 8135   5.006  21.192   4.249  0.2359  0.2120  0.1912
    1DIPC   C4B 8136   5.250  21.228   4.660 -0.1807 -0.0155  0.1554
    1DIPC   NC3 8137  14.470   1.641   7.794 -0.1748  0.1928 -0.1834
    1DIPC   PO4 8138  14.324   1.526   7.394 -0.0805 -0.0374 -0.1414
    1DIPC   GL1 8139  14.434   1.247   7.026  0.1901  0.1827  0.1881
    1DIPC   GL2 8140  14.728   1.246   6.961  0.1435  0.1504  0.1218
    1DIPC   C1A 8141  14.336   1.095   6.584 -0.0282 -0.0459  0.0032
    1DIPC   D2A 8142  14.225   0.960   6.235  0.1881 -0.0095 -0.4582
    1DIPC   D3A 8143  14.359   0.594   6.422  0.1436  0.0036 -0.0240
    1DIPC   C4A 8144  14.651   0.315   6.303 -0.3081 -0.0375 -0.1373
    1DIPC   C1B 8145  14.803   1.471   6.603  0.1294 -0.1599  0.2032
    1DIPC   D2B 8146  14.575   1.617   6.276  0.1856 -0.0188 -0.3024
    1DIPC   D3B 8147  14.748   2.027   6.159  0.1399  0.0947  0.2275
    1DIPC   C4B 8148  14.677   2.174   5.738 -0.1477 -0.4677  0.1215
    1DIPC   NC3 8149  10.513   3.927   7.140  0.1854 -0.1415 -0.1072
    1DIPC   PO4 8150  10.518   4.215   6.805  0.3666  0.0054  0.2999
    1DIPC   GL1 8151  10.669   4.542   6.446 -0.1896 -0.0135  0.1807
    1DIPC   GL2 8152  10.885   4.425   6.378 -0.1968  0.2720 -0.1263
    1DIPC   C1A 8153  10.808   4.664   5.972 -0.1693  0.1853 -0.0389
    1DIPC   D2A 8154  10.826   4.676   5.574 -0.2803 -0.2559  0.2187
    1DIPC   D3A 8155  11.121   4.955   5.737 -0.2312 -0.1099 -0.0591
    1DIPC   C4A 8156  11.035   5.169   6.125  0.2756 -0.0746  0.3492
    1DIPC   C1B 8157  10.895   4.117   6.110  0.1682  0.0390  0.0254
    1DIPC   D2B 8158  10.810   3.877   5.757  0.0268  0.0218 -0.0657
    1DIPC   D3B 8159  10.896   3.537   6.009  0.0646  0.0518  0.1674
    1DIPC   C4B 8160  10.599   3.260   5.959  0.1806 -0.1235 -0.1229
    1DIPC   NC3 8161   4.141   1.607   6.860 -0.0400 -0.1756 -0.0719
    1DIPC   PO4 8162   4.545   1.637   6.952  0.1836 -0.1384  0.1037
    1DIPC   GL1 8163   4.654   1.358   6.562 -0.0508 -0.0885  0.0101
    1DIPC   GL2 8164   4.964   1.518   6.428  0.2941 -0.1608 -0.0227
    1DIPC   C1A 8165   4.520   1.116   6.193  0.1091  0.0801  0.1428
    1DIPC   D2A 8166   4.206   0.834   6.322  0.0789  0.1138  0.2311
    1DIPC   D3A 8167   4.464   0.519   6.082  0.0699 -0.0572  0.4820
    1DIPC   C4A 8168   4.388   0.449   5.666 -0.0646  0.2908 -0.0630
    1DIPC   C1B 8169   4.897   1.438   6.017  0.0925 -0.1632  0.1558
    1DIPC   D2B 8170   4.755   1.416   5.606 -0.4354 -0.3892 -0.0487
    1DIPC   D3B 8171   4.767   1.695   5.228 -0.1335  0.3884 -0.1298
    1DIPC   C4B 8172   4.807   1.646   4.815 -0.3619  0.1192  0.1213
    1DIPC   NC3 8173  26.360   4.618   6.585 -0.1856  0.0383  0.1258
    1DIPC   PO4 8174  26.595   4.328   6.301 -0.1083  0.2995 -0.2770
    1DIPC   GL1 8175  26.653   4.381   5.795  0.0354 -0.0090 -0.0871
    1DIPC   GL2 8176  26.579   4.054   5.748  0.0280 -0.2658 -0.0770
    1DIPC   C1A 8177  27.030   4.573   5.585  0.1458  0.0734 -0.0983
    1DIPC   D2A 8178  27.278   4.934   5.339  0.0322 -0.1315 -0.0070
    1DIPC   D3A 8179  27.506   5.237   5.197 -0.0777 -0.0395 -0.1762
    1DIPC   C4A 8180  27.920   5.188   4.998  0.0558 -0.1508  0.1712
    1DIPC   C1B 8181  26.525   4.260   5.279 -0.0494  0.1705  0.5424
    1DIPC   D2B 8182  26.551   4.626   4.974 -0.2025 -0.1044  0.0735
    1DIPC   D3B 8183  26.799   4.476   4.570  0.0780 -0.4290 -0.1898
    1DIPC   C4B 8184  27.264   4.307   4.798 -0.1535 -0.0718  0.1147
    1DIPC   NC3 8185   2.567  13.175   6.499 -0.0327 -0.0302 -0.5193
    1DIPC   PO4 8186   2.490  12.765   6.200  0.1174  0.1227  0.0615
    1DIPC   GL1 8187   2.581  12.799   5.784  0.1518 -0.0358 -0.1631
    1DIPC   GL2 8188   2.930  12.773   5.843 -0.1521  0.0504  0.3273
    1DIPC   C1A 8189   2.602  12.750   5.368  0.0983 -0.1064  0.3544
    1DIPC   D2A 8190   2.587  12.551   5.005 -0.1692  0.2405  0.1963
    1DIPC   D3A 8191   2.387  12.907   4.900 -0.1012 -0.1416 -0.1756
    1DIPC   C4A 8192   2.171  12.980   4.572  0.0703 -0.1862  0.0679
    1DIPC   C1B 8193   3.002  12.985   5.501  0.1304  0.0254  0.1162
    1DIPC   D2B 8194   3.129  13.131   5.109 -0.0119  0.2985  0.2535
    1DIPC   D3B 8195   2.979  12.897   4.816 -0.1371 -0.4033 -0.0889
    1DIPC   C4B 8196   2.705  13.229   4.681 -0.1399 -0.2569 -0.1073
    1DIPC   NC3 8197  10.433  10.454   7.536  0.1098 -0.5382 -0.2565
    1DIPC   PO4 8198  10.867  10.256   7.278  0.0270  0.2383  0.0908
    1DIPC   GL1 8199  10.644  10.546   7.032 -0.0425  0.0175  0.0361
    1DIPC   GL2 8200  10.795  10.460   6.750 -0.0139 -0.4158 -0.2513
    1DIPC   C1A 8201  10.312  10.454   6.695 -0.3189 -0.1599 -0.1290
    1DIPC   D2A 8202  10.189  10.503   6.285 -0.2695 -0.0711 -0.2397
    1DIPC   D3A 8203  10.177  10.141   5.951 -0.1668 -0.0692 -0.1089
    1DIPC   C4A 8204   9.757   9.969   5.890 -0.0937  0.0522 -0.1573
    1DIPC   C1B 8205  10.685  10.707   6.403 -0.0112  0.1994  0.3126
    1DIPC   D2B 8206  10.481  10.778   5.988 -0.3921 -0.2119 -0.2414
    1DIPC   D3B 8207  10.791  11.202   5.906  0.1812  0.0501 -0.0200
    1DIPC   C4B 8208  10.750  11.597   5.758  0.0302  0.0187 -0.1045
    1DIPC   NC3 8209   9.450   4.966   7.051 -0.3028 -0.0574  0.1233
    1DIPC   PO4 8210   9.138   5.381   6.981 -0.2195  0.1163 -0.0981
    1DIPC   GL1 8211   9.224   5.212   6.558  0.0279  0.0615 -0.1206
    1DIPC   GL2 8212   9.050   5.315   6.286  0.0766 -0.0993 -0.0491
    1DIPC   C1A 8213   9.186   4.761   6.324 -0.1851 -0.3778 -0.4168
    1DIPC   D2A 8214   9.238   4.690   5.935  0.2731 -0.2874 -0.2091
    1DIPC   D3A 8215   8.831   4.567   5.878 -0.3064  0.1767 -0.1913
    1DIPC   C4A 8216   8.892   4.128   5.657 -0.0043  0.1254 -0.0654
    1DIPC   C1B 8217   9.003   5.127   5.966 -0.4717 -0.0811 -0.3263
    1DIPC   D2B 8218   9.349   5.116   5.658  0.0925 -0.2061  0.1170
    1DIPC   D3B 8219   9.184   4.795   5.399  0.0037 -0.3405 -0.2945
    1DIPC   C4B 8220   9.258   4.460   5.498 -0.0320 -0.1453  0.2777
    1DIPC   NC3 8221  12.275  22.347   7.069 -0.0527 -0.0376 -0.3805
    1DIPC   PO4 8222  12.768  22.431   6.887 -0.0035  0.1023 -0.1421
    1DIPC   GL1 8223  12.630  22.223   6.573  0.0258 -0.0039 -0.1000
    1DIPC   GL2 8224  12.286  22.302   6.552 -0.3924  0.0640  0.2265
    1DIPC   C1A 8225  12.748  22.257   6.218 -0.1743  0.0862  0.0809
    1DIPC   D2A 8226  12.633  22.344   5.800 -0.2094  0.0480  0.1765
    1DIPC   D3A 8227  12.862  22.604   5.838  0.2320  0.0293  0.1568
    1DIPC   C4A 8228  12.937  22.691   5.434  0.0520  0.2397  0.1437
    1DIPC   C1B 8229  12.190  22.442   6.093 -0.2885 -0.0224  0.3083
    1DIPC   D2B 8230  12.281  22.774   5.818  0.2025 -0.0464  0.0099
    1DIPC   D3B 8231  12.139  22.522   5.541 -0.0896  0.3759 -0.2267
    1DIPC   C4B 8232  11.833  22.866   5.523 -0.0379  0.0394 -0.1611
    1DIPC   NC3 8233  15.550   5.749   8.298  0.2090  0.1955 -0.1255
    1DIPC   PO4 8234  15.231   5.739   8.028  0.5846  0.2155 -0.1466
    1DIPC   GL1 8235  15.301   5.692   7.529  0.0452  0.0889  0.1321
    1DIPC   GL2 8236  15.369   6.075   7.472 -0.0436 -0.0308 -0.2528
    1DIPC   C1A 8237  15.340   5.528   7.038  0.2219 -0.3351 -0.2958
    1DIPC   D2A 8238  15.157   5.470   6.664 -0.1776  0.0314  0.2357
    1DIPC   D3A 8239  15.422   5.376   6.291  0.0242  0.1237  0.2521
    1DIPC   C4A 8240  15.344   5.388   5.843 -0.2838  0.0452  0.0378
    1DIPC   C1B 8241  15.373   6.335   7.069 -0.0252  0.0140 -0.0255
    1DIPC   D2B 8242  15.542   6.164   6.630 -0.0730 -0.1191  0.0968
    1DIPC   D3B 8243  15.442   5.831   6.471 -0.0018 -0.1493  0.2076
    1DIPC   C4B 8244  14.983   5.730   6.256  0.0830 -0.0379  0.0899
    1DIPC   NC3 8245  24.036   8.503   6.446  0.0617  0.1699  0.0828
    1DIPC   PO4 8246  24.360   8.559   6.096 -0.2173 -0.3528  0.1750
    1DIPC   GL1 8247  24.339   8.402   5.668 -0.0742  0.1027  0.1464
    1DIPC   GL2 8248  24.329   7.987   5.511 -0.0028  0.1211 -0.0453
    1DIPC   C1A 8249  24.028   8.342   5.422  0.1273 -0.0623 -0.3271
    1DIPC   D2A 8250  23.963   8.027   5.197  0.0650 -0.0836 -0.1958
    1DIPC   D3A 8251  23.525   8.053   5.000  0.0566 -0.4295  0.0008
    1DIPC   C4A 8252  23.543   7.975   4.637 -0.0726 -0.0301  0.1058
    1DIPC   C1B 8253  24.467   7.975   5.052  0.0169 -0.0682  0.0655
    1DIPC   D2B 8254  24.716   8.057   4.662  0.0670 -0.0658 -0.1901
    1DIPC   D3B 8255  24.929   8.435   4.782  0.0914  0.3443  0.0328
    1DIPC   C4B 8256  24.687   8.756   4.780  0.0952 -0.0611 -0.1658
    1DIPC   NC3 8257   7.353   6.084   7.217  0.0431 -0.0596  0.0213
    1DIPC   PO4 8258   7.125   6.325   6.972 -0.2538  0.1115  0.1647
    1DIPC   GL1 8259   7.261   6.472   6.540  0.0423  0.0169 -0.1611
    1DIPC   GL2 8260   7.298   6.772   6.515 -0.2434 -0.1158  0.2310
    1DIPC   C1A 8261   7.224   6.478   6.069 -0.2087  0.0220  0.1297
    1DIPC   D2A 8262   7.440   6.708   5.672 -0.2713 -0.0485  0.2440
    1DIPC   D3A 8263   7.136   7.174   5.682  0.0839 -0.1193  0.1903
    1DIPC   C4A 8264   6.829   7.057   5.373 -0.1135  0.4202  0.2218
    1DIPC   C1B 8265   7.565   6.770   6.164  0.0294 -0.2117  0.0329
    1DIPC   D2B 8266   7.902   6.810   5.998 -0.0545  0.3259  0.1207
    1DIPC   D3B 8267   7.893   6.898   5.612  0.0138  0.1530  0.0436
    1DIPC   C4B 8268   7.712   6.681   5.168 -0.2878  0.1671  0.1834
    1DIPC   NC3 8269   4.218  24.374   5.756  0.0380 -0.4225 -0.1578
    1DIPC   PO4 8270   4.519  24.505   5.967 -0.4035  0.1821 -0.0202
    1DIPC   GL1 8271   4.750  24.635   5.620 -0.2755  0.2515 -0.0932
    1DIPC   GL2 8272   4.539  24.850   5.534 -0.0374 -0.3558  0.0752
    1DIPC   C1A 8273   4.911  24.776   5.225 -0.0085 -0.0051 -0.2103
    1DIPC   D2A 8274   4.932  25.217   5.037  0.0707 -0.0283  0.1324
    1DIPC   D3A 8275   4.520  25.339   5.179 -0.0693  0.3080 -0.2050
    1DIPC   C4A 8276   4.309  25.833   5.109 -0.1554  0.4544 -0.0680
    1DIPC   C1B 8277   4.374  24.743   5.151  0.1981  0.0771 -0.1562
    1DIPC   D2B 8278   4.127  24.469   4.850 -0.0819 -0.1903 -0.2562
    1DIPC   D3B 8279   4.332  24.421   4.444  0.1041  0.2023  0.1682
    1DIPC   C4B 8280   4.738  24.422   4.331 -0.2805  0.1246 -0.0115
    1DIPC   NC3 8281  22.899  16.301   6.461  0.0772 -0.4340 -0.1862
    1DIPC   PO4 8282  22.571  16.535   6.671  0.0133  0.0410  0.2021
    1DIPC   GL1 8283  22.548  16.605   6.201 -0.7412  0.2357 -0.0037
    1DIPC   GL2 8284  22.798  16.790   6.116 -0.2361  0.0502 -0.0244
    1DIPC   C1A 8285  22.412  16.510   5.809  0.0202 -0.1206 -0.2292
    1DIPC   D2A 8286  22.085  16.515   5.608 -0.0252 -0.2986 -0.2387
    1DIPC   D3A 8287  22.135  16.385   5.168  0.0159  0.0360  0.1887
    1DIPC   C4A 8288  21.835  16.485   4.860  0.0894  0.1671  0.1544
    1DIPC   C1B 8289  22.837  16.788   5.648  0.0304  0.1045 -0.1334
    1DIPC   D2B 8290  22.777  16.869   5.196 -0.3580  0.0902 -0.0320
    1DIPC   D3B 8291  22.679  16.496   5.237 -0.0862  0.1627 -0.1047
    1DIPC   C4B 8292  22.592  16.301   4.924 -0.0449 -0.1386  0.3144
    1DIPC   NC3 8293  19.823  23.749   7.247 -0.1440 -0.0047  0.2810
    1DIPC   PO4 8294  19.878  23.810   6.770 -0.1303 -0.3254 -0.0088
    1DIPC   GL1 8295  19.985  24.035   6.386  0.2867  0.0636  0.2076
    1DIPC   GL2 8296  20.011  24.385   6.271 -0.0238  0.1385 -0.3232
    1DIPC   C1A 8297  20.069  23.748   6.051  0.2570  0.1547  0.3184
    1DIPC   D2A 8298  20.031  23.569   5.552  0.1373 -0.0657 -0.2404
    1DIPC   D3A 8299  19.688  23.713   5.294 -0.1748 -0.5083 -0.1639
    1DIPC   C4A 8300  19.261  23.789   5.400  0.0841 -0.1044 -0.0160
    1DIPC   C1B 8301  20.095  24.734   5.913  0.1879  0.1177  0.1907
    1DIPC   D2B 8302  20.424  24.811   5.650  0.2348  0.2600  0.0197
    1DIPC   D3B 8303  20.567  25.155   5.525  0.0910 -0.1002 -0.3300
    1DIPC   C4B 8304  20.629  25.220   5.066  0.0388  0.1951 -0.0393
    1DIPC   NC3 8305   4.794   6.299   6.721  0.0074 -0.1748 -0.2178
    1DIPC   PO4 8306   4.328   6.169   6.762 -0.2601  0.0757 -0.2260
    1DIPC   GL1 8307   4.385   5.787   6.400 -0.1517 -0.0769 -0.0134
    1DIPC   GL2 8308   4.631   6.088   6.289 -0.0783  0.0883 -0.0191
    1DIPC   C1A 8309   4.486   5.783   5.933  0.0319 -0.2144  0.1582
    1DIPC   D2A 8310   4.804   5.810   5.561 -0.0733  0.2517 -0.1696
    1DIPC   D3A 8311   4.842   5.962   5.169  0.0753  0.2614 -0.3349
    1DIPC   C4A 8312   4.458   5.927   5.072  0.0460  0.3497 -0.0818
    1DIPC   C1B 8313   4.775   6.234   5.925 -0.1939  0.0173  0.0062
    1DIPC   D2B 8314   4.702   6.263   5.522 -0.0748 -0.0581 -0.0777
    1DIPC   D3B 8315   4.548   6.411   5.109  0.0217 -0.0297 -0.0188
    1DIPC   C4B 8316   4.272   6.806   5.006  0.1838 -0.0525 -0.3737
    1DIPC   NC3 8317   9.065   7.370   7.299 -0.3305  0.2721  0.2787
    1DIPC   PO4 8318   8.566   7.461   7.510 -0.0717 -0.0423 -0.2253
    1DIPC   GL1 8319   8.640   7.325   7.029  0.2453 -0.0403 -0.1584
    1DIPC   GL2 8320   8.427   7.100   6.798 -0.1074  0.2766  0.1884
    1DIPC   C1A 8321   8.856   7.127   6.581 -0.0144  0.1681  0.3313
    1DIPC   D2A 8322   8.638   6.745   6.208 -0.1379 -0.1883 -0.3664
    1DIPC   D3A 8323   8.889   6.877   5.891  0.3248 -0.0015  0.0071
    1DIPC   C4A 8324   9.356   6.839   5.853  0.0726  0.2360 -0.0133
    1DIPC   C1B 8325   8.285   7.110   6.414  0.0920  0.1773 -0.3462
    1DIPC   D2B 8326   8.381   7.096   5.961  0.0858 -0.0073  0.2603
    1DIPC   D3B 8327   8.671   7.327   5.697  0.1291 -0.2598 -0.1655
    1DIPC   C4B 8328   8.883   7.578   5.379  0.1973  0.0321 -0.1061
    1DIPC   NC3 8329  18.705   1.523   7.401 -0.1424 -0.1883  0.1507
    1DIPC   PO4 8330  18.635   1.125   7.424 -0.0418  0.0865 -0.2419
    1DIPC   GL1 8331  18.583   1.175   7.050 -0.0023 -0.3312  0.5389
    1DIPC   GL2 8332  18.802   1.300   6.863 -0.0026  0.2041 -0.0511
    1DIPC   C1A 8333  18.329   1.284   6.614 -0.0573  0.0290  0.1043
    1DIPC   D2A 8334  18.022   1.679   6.631 -0.0548  0.1870  0.0423
    1DIPC   D3A 8335  17.751   1.865   6.318 -0.0017 -0.1258 -0.0894
    1DIPC   C4A 8336  17.326   1.874   6.315  0.0963  0.0482 -0.1235
    1DIPC   C1B 8337  18.763   1.002   6.540 -0.1147  0.0212 -0.1037
    1DIPC   D2B 8338  18.467   0.751   6.250  0.0351 -0.1142  0.2066
    1DIPC   D3B 8339  18.436   0.702   5.751  0.1294 -0.2643 -0.0737
    1DIPC   C4B 8340  18.138   0.940   5.589 -0.0626 -0.2729 -0.0478
    1DIPC   NC3 8341  19.905  20.087   7.246 -0.2686 -0.0161 -0.2639
    1DIPC   PO4 8342  19.776  19.676   7.427  0.0673 -0.2749 -0.4034
    1DIPC   GL1 8343  19.643  19.736   6.992 -0.1034 -0.3007  0.0718
    1DIPC   GL2 8344  19.620  19.482   6.912  0.1608  0.1649  0.1857
    1DIPC   C1A 8345  19.540  19.703   6.515  0.1714 -0.3052  0.1707
    1DIPC   D2A 8346  19.790  19.438   6.223  0.0577  0.2900 -0.0960
    1DIPC   D3A 8347  19.672  19.119   5.976  0.2577  0.0581  0.2893
    1DIPC   C4A 8348  19.932  18.802   5.751 -0.2964 -0.0838 -0.2932
    1DIPC   C1B 8349  19.581  19.206   6.563  0.1592  0.1256 -0.0302
    1DIPC   D2B 8350  19.342  18.846   6.507  0.1049 -0.0259 -0.1893
    1DIPC   D3B 8351  19.462  18.799   6.953  0.0755 -0.0737 -0.0235
    1DIPC   C4B 8352  19.732  18.424   7.095 -0.0595  0.1864  0.2661
    1DIPC   NC3 8353   8.237   0.360   7.960 -0.0002  0.3797 -0.1299
    1DIPC   PO4 8354   8.306   0.527   7.572  0.0267 -0.0933  0.0772
    1DIPC   GL1 8355   8.286   0.343   7.189  0.1659 -0.2365  0.1194
    1DIPC   GL2 8356   8.146   0.145   7.150  0.0765  0.0484 -0.3142
    1DIPC   C1A 8357   8.385   0.534   6.853  0.0055  0.4325  0.1221
    1DIPC   D2A 8358   8.291   0.837   6.615  0.0705 -0.2417 -0.0163
    1DIPC   D3A 8359   8.161   1.151   6.385 -0.0905 -0.0928  0.0449
    1DIPC   C4A 8360   8.312   0.971   6.024  0.1650  0.2849  0.0137
    1DIPC   C1B 8361   8.186   0.110   6.651  0.0483  0.0268  0.1478
    1DIPC   D2B 8362   8.010   0.083   6.261  0.0748 -0.3076 -0.2337
    1DIPC   D3B 8363   7.613  -0.042   6.068  0.1286 -0.0651  0.0450
    1DIPC   C4B 8364   7.838   0.198   5.749 -0.0906 -0.2071 -0.4728
    1DIPC   NC3 8365  28.599  24.823   6.504 -0.0918  0.3305  0.0232
    1DIPC   PO4 8366  28.998  24.603   6.499 -0.1735  0.0063 -0.1375
    1DIPC   GL1 8367  29.222  24.732   6.059  0.1224  0.1994  0.1746
    1DIPC   GL2 8368  29.492  24.633   5.946  0.3387 -0.0346  0.0282
    1DIPC   C1A 8369  29.299  24.918   5.618  0.2384  0.1311 -0.2542
    1DIPC   D2A 8370  29.418  24.975   5.157 -0.2184  0.6689  0.1642
    1DIPC   D3A 8371  28.989  24.850   4.871 -0.2686  0.2472 -0.0423
    1DIPC   C4A 8372  28.875  24.743   4.459 -0.3455  0.2341  0.0704
    1DIPC   C1B 8373  29.769  24.893   5.670 -0.0075 -0.0156 -0.0324
    1DIPC   D2B 8374  29.958  25.044   5.184 -0.3261 -0.1561 -0.2524
    1DIPC   D3B 8375  30.032  25.387   5.397  0.0489  0.0074  0.1370
    1DIPC   C4B 8376  30.505  25.529   5.341 -0.0525 -0.1626 -0.0470
    1DIPC   NC3 8377   1.975   5.047   6.483 -0.1436 -0.4095  0.0603
    1DIPC   PO4 8378   1.969   4.566   6.471 -0.0261 -0.4428  0.1163
    1DIPC   GL1 8379   2.184   4.593   6.145  0.1599 -0.1125 -0.4015
    1DIPC   GL2 8380   2.350   4.348   6.197  0.3267 -0.1674 -0.0186
    1DIPC   C1A 8381   2.320   4.717   5.765  0.3061 -0.1720 -0.1383
    1DIPC   D2A 8382   2.290   4.657   5.348  0.2464  0.0788 -0.4527
    1DIPC   D3A 8383   2.178   5.027   5.388 -0.2171 -0.1567 -0.1644
    1DIPC   C4A 8384   2.235   5.224   5.746 -0.0039  0.1926  0.1732
    1DIPC   C1B 8385   2.684   4.394   5.915 -0.0431  0.0910 -0.1581
    1DIPC   D2B 8386   2.736   4.608   5.523  0.0230 -0.2393  0.1134
    1DIPC   D3B 8387   2.709   5.056   5.561 -0.2330 -0.0987  0.1634
    1DIPC   C4B 8388   2.597   5.106   5.141  0.2361  0.0680  0.2853
    1DIPC   NC3 8389   0.027  17.942   6.308  0.0708 -0.2361 -0.3953
    1DIPC   PO4 8390  -0.362  18.207   6.131  0.1572 -0.2402  0.0539
    1DIPC   GL1 8391  -0.341  18.151   5.659  0.1784  0.0228 -0.2635
    1DIPC   GL2 8392  -0.177  18.320   5.482  0.3541  0.1286 -0.1716
    1DIPC   C1A 8393  -0.688  18.133   5.386  0.0971  0.1294 -0.0750
    1DIPC   D2A 8394  -0.807  17.918   5.074  0.1130 -0.0732 -0.2177
    1DIPC   D3A 8395  -1.031  18.224   4.985 -0.1625  0.4715 -0.2020
    1DIPC   C4A 8396  -1.273  18.297   4.565 -0.2438 -0.1310 -0.2487
    1DIPC   C1B 8397  -0.295  18.092   5.038 -0.0384  0.1370  0.0142
    1DIPC   D2B 8398  -0.290  17.912   4.566 -0.1951 -0.5395 -0.0728
    1DIPC   D3B 8399  -0.472  17.608   4.222 -0.0157  0.2277  0.0546
    1DIPC   C4B 8400  -0.323  17.241   4.078 -0.1006 -0.0706 -0.1895
    1DIPC   NC3 8401  25.126  20.885   6.630 -0.0026 -0.2900 -0.1297
    1DIPC   PO4 8402  25.232  20.840   6.224 -0.2630 -0.2323  0.1980
    1DIPC   GL1 8403  25.339  20.695   5.819  0.3807  0.2727 -0.1270
    1DIPC   GL2 8404  25.266  20.405   5.814 -0.1256  0.0124 -0.0447
    1DIPC   C1A 8405  25.743  20.583   5.694  0.2506  0.1201 -0.0246
    1DIPC   D2A 8406  26.143  20.333   5.828 -0.0093 -0.2193  0.1924
    1DIPC   D3A 8407  26.009  20.177   5.445 -0.1424  0.0284 -0.1402
    1DIPC   C4A 8408  25.741  20.349   5.233  0.1772  0.2572 -0.2462
    1DIPC   C1B 8409  25.154  20.378   5.406 -0.0388 -0.2441  0.1414
    1DIPC   D2B 8410  24.961  20.632   5.078 -0.0906  0.0395  0.0694
    1DIPC   D3B 8411  24.919  20.226   4.889  0.2824  0.1425 -0.2743
    1DIPC   C4B 8412  24.605  19.913   4.908 -0.1649  0.0559  0.0468
    1DIPC   NC3 8413  23.474   2.261   6.529  0.0939  0.0831  0.1308
    1DIPC   PO4 8414  23.086   2.352   6.447 -0.0150  0.2600  0.1183
    1DIPC   GL1 8415  22.957   2.253   6.011 -0.2688 -0.2412  0.0379
    1DIPC   GL2 8416  22.631   2.116   6.088  0.1163  0.1718  0.1788
    1DIPC   C1A 8417  22.861   2.529   5.714  0.2998  0.1826  0.0630
    1DIPC   D2A 8418  22.782   2.557   5.231  0.1757 -0.1834 -0.0214
    1DIPC   D3A 8419  22.541   2.907   5.353 -0.1018 -0.1175 -0.2424
    1DIPC   C4A 8420  22.439   3.176   5.601  0.0858  0.2033  0.1929
    1DIPC   C1B 8421  22.302   1.885   5.781 -0.0794  0.2793  0.0726
    1DIPC   D2B 8422  22.538   1.433   5.676 -0.1041 -0.0025 -0.1547
    1DIPC   D3B 8423  22.308   1.150   5.910 -0.2005  0.2526 -0.1240
    1DIPC   C4B 8424  22.035   1.335   5.785 -0.1296 -0.2765  0.0824
    1DIPC   NC3 8425   5.018  10.713   6.661 -0.1168  0.0286  0.0413
    1DIPC   PO4 8426   4.600  10.851   6.667 -0.1094 -0.0535 -0.1267
    1DIPC   GL1 8427   4.603  10.573   6.382 -0.5035 -0.2907 -0.0613
    1DIPC   GL2 8428   4.796  10.361   6.288 -0.1101 -0.0484  0.4126
    1DIPC   C1A 8429   4.631  10.718   5.887 -0.0633 -0.1074 -0.3446
    1DIPC   D2A 8430   4.442  10.448   5.499 -0.2159  0.1804 -0.0580
    1DIPC   D3A 8431   4.114  10.647   5.338  0.1909 -0.2822  0.2004
    1DIPC   C4A 8432   4.009  10.551   4.905  0.3274 -0.0495 -0.0935
    1DIPC   C1B 8433   4.548  10.192   5.915  0.3742  0.2194  0.0969
    1DIPC   D2B 8434   4.383   9.920   5.526 -0.1424 -0.1849 -0.1597
    1DIPC   D3B 8435   4.076  10.144   5.192 -0.1946 -0.0560  0.1845
    1DIPC   C4B 8436   3.771  10.058   4.965 -0.1646 -0.5036 -0.1490
    1DIPC   NC3 8437   4.093  10.726   6.600 -0.2423  0.3943  0.1881
    1DIPC   PO4 8438   4.162  10.343   6.808  0.0068  0.1592  0.7076
    1DIPC   GL1 8439   4.122  10.133   6.370 -0.1395  0.0957 -0.0344
    1DIPC   GL2 8440   4.458  10.025   6.345  0.1089  0.1333 -0.0089
    1DIPC   C1A 8441   4.077  10.422   6.021 -0.0629 -0.0027 -0.0944
    1DIPC   D2A 8442   3.962  10.289   5.680  0.2540 -0.1325  0.2166
    1DIPC   D3A 8443   3.652  10.538   5.448  0.0521  0.0911  0.0631
    1DIPC   C4A 8444   3.417  10.444   5.130 -0.2913  0.0903  0.0475
    1DIPC   C1B 8445   4.246   9.600   6.345  0.0966  0.1204 -0.0371
    1DIPC   D2B 8446   3.985   9.341   6.095 -0.0136  0.3287  0.1969
    1DIPC   D3B 8447   4.234   9.025   5.885  0.0689 -0.0501 -0.0046
    1DIPC   C4B 8448   3.936   8.693   5.841 -0.2369  0.2383 -0.1858
    1DIPC   NC3 8449  22.294   2.758   6.573 -0.2117  0.1467  0.1359
    1DIPC   PO4 8450  21.843   2.780   6.514  0.0629 -0.1320 -0.0030
    1DIPC   GL1 8451  21.788   2.640   6.030 -0.1194  0.0252  0.1076
    1DIPC   GL2 8452  21.926   2.287   6.021 -0.4099 -0.0726 -0.0804
    1DIPC   C1A 8453  21.898   2.801   5.636 -0.2051  0.0669 -0.2142
    1DIPC   D2A 8454  21.942   2.992   5.252  0.0695  0.2851  0.0972
    1DIPC   D3A 8455  21.748   2.784   4.907  0.2041 -0.0868 -0.0236
    1DIPC   C4A 8456  21.566   3.147   4.755  0.0729  0.0178 -0.0486
    1DIPC   C1B 8457  21.961   2.281   5.639  0.0804  0.1030 -0.2739
    1DIPC   D2B 8458  21.953   2.410   5.309 -0.3041 -0.1122  0.0757
    1DIPC   D3B 8459  22.261   2.638   5.048 -0.0438 -0.0558 -0.0238
    1DIPC   C4B 8460  22.547   2.940   4.877 -0.3022 -0.0456 -0.0015
    1DIPC   NC3 8461  23.597  16.224   6.026 -0.5107  0.1081 -0.0358
    1DIPC   PO4 8462  23.172  16.015   6.183 -0.1032 -0.1397 -0.3046
    1DIPC   GL1 8463  23.280  16.015   5.693 -0.0084 -0.0693 -0.1989
    1DIPC   GL2 8464  23.582  16.104   5.503  0.1054  0.4298 -0.1347
    1DIPC   C1A 8465  23.242  15.762   5.280  0.0168  0.1921 -0.1164
    1DIPC   D2A 8466  23.148  15.861   4.855 -0.0562  0.0712  0.1760
    1DIPC   D3A 8467  22.998  15.423   4.835  0.1341  0.2863 -0.1319
    1DIPC   C4A 8468  23.254  15.169   4.968  0.0704 -0.0271  0.0315
    1DIPC   C1B 8469  23.601  16.040   5.094 -0.0553  0.1931 -0.1111
    1DIPC   D2B 8470  23.577  15.695   4.865 -0.2895 -0.3019  0.0277
    1DIPC   D3B 8471  23.908  15.800   4.600  0.0237 -0.0507  0.3574
    1DIPC   C4B 8472  24.316  15.925   4.656  0.2747  0.1867 -0.0428
    1DIPC   NC3 8473   2.953   5.546   6.761  0.0010 -0.0772  0.0356
    1DIPC   PO4 8474   2.857   5.607   6.366  0.1633 -0.0981 -0.0356
    1DIPC   GL1 8475   3.005   5.842   6.071  0.2325 -0.3313 -0.1466
    1DIPC   GL2 8476   3.281   5.771   6.088  0.2166  0.5621 -0.1206
    1DIPC   C1A 8477   3.216   6.085   5.741 -0.1912 -0.1590 -0.3662
    1DIPC   D2A 8478   3.336   5.917   5.248 -0.0833 -0.1269  0.0275
    1DIPC   D3A 8479   3.119   5.841   4.911  0.1547 -0.2387  0.4467
    1DIPC   C4A 8480   2.992   5.746   4.464 -0.0990  0.2332 -0.0828
    1DIPC   C1B 8481   3.729   6.015   6.032 -0.0639  0.0438  0.1495
    1DIPC   D2B 8482   4.169   6.212   5.931  0.0830  0.0642  0.2620
    1DIPC   D3B 8483   4.189   6.076   5.479  0.0984  0.1250  0.1064
    1DIPC   C4B 8484   4.309   5.678   5.474  0.0671  0.1249 -0.0447
    1DIPC   NC3 8485   0.889  20.448   6.009  0.1066 -0.2072  0.3234
    1DIPC   PO4 8486   0.425  20.308   5.738  0.0363 -0.0014  0.0504
    1DIPC   GL1 8487   0.150  20.408   5.332 -0.2138 -0.2602 -0.1017
    1DIPC   GL2 8488   0.221  20.078   5.299 -0.0549  0.0149  0.3482
    1DIPC   C1A 8489  -0.087  20.906   5.118  0.2146 -0.0887 -0.1412
    1DIPC   D2A 8490  -0.337  20.892   4.778 -0.0537  0.2269 -0.0483
    1DIPC   D3A 8491  -0.527  21.120   4.467 -0.1405  0.3323 -0.0780
    1DIPC   C4A 8492  -0.217  21.377   4.244  0.0313 -0.0828  0.2909
    1DIPC   C1B 8493  -0.092  20.070   4.978 -0.1479 -0.1479 -0.0121
    1DIPC   D2B 8494  -0.085  20.078   4.482  0.0827 -0.0879 -0.1724
    1DIPC   D3B 8495   0.125  20.433   4.249 -0.3742 -0.0373  0.0121
    1DIPC   C4B 8496  -0.081  20.420   3.900 -0.0609 -0.1783 -0.0689
    1DIPC   NC3 8497  10.190  24.687   6.528  0.2619  0.0849 -0.0706
    1DIPC   PO4 8498   9.919  24.955   6.199  0.0927  0.0008 -0.0233
    1DIPC   GL1 8499   9.608  25.047   5.840  0.2281 -0.1172 -0.0294
    1DIPC   GL2 8500   9.295  25.260   5.918 -0.2678  0.0954  0.0316
    1DIPC   C1A 8501   9.473  24.791   5.552 -0.1796  0.1294  0.1033
    1DIPC   D2A 8502   9.491  24.431   5.196 -0.1362 -0.1704  0.0578
    1DIPC   D3A 8503   9.776  24.314   4.883 -0.0485  0.0707 -0.0657
    1DIPC   C4A 8504  10.198  24.502   4.839 -0.3274 -0.3838  0.4186
    1DIPC   C1B 8505   8.903  25.465   5.865 -0.4300  0.2020 -0.2693
    1DIPC   D2B 8506   8.740  25.683   5.490 -0.2060  0.1417  0.1748
    1DIPC   D3B 8507   9.166  25.747   5.603  0.1746 -0.0721 -0.2902
    1DIPC   C4B 8508   9.425  25.920   5.260 -0.0697 -0.2568  0.0714
    1DIPC   NC3 8509  23.548  13.682   6.570  0.2384 -0.2203 -0.3209
    1DIPC   PO4 8510  23.337  14.121   6.572 -0.1486  0.1294 -0.0326
    1DIPC   GL1 8511  23.363  14.040   6.143 -0.3468 -0.1718 -0.0865
    1DIPC   GL2 8512  23.476  14.251   6.003  0.0109 -0.3995 -0.1338
    1DIPC   C1A 8513  23.457  13.812   5.704 -0.0607  0.2929  0.1099
    1DIPC   D2A 8514  23.497  13.804   5.226  0.1998 -0.2514 -0.0372
    1DIPC   D3A 8515  23.585  13.482   5.039 -0.3398  0.2794  0.1612
    1DIPC   C4A 8516  23.465  13.153   5.000  0.2142  0.0890 -0.0876
    1DIPC   C1B 8517  23.540  14.284   5.571  0.1901 -0.2750  0.1528
    1DIPC   D2B 8518  23.817  14.165   5.173 -0.0574  0.1081  0.2503
    1DIPC   D3B 8519  23.739  13.907   4.787 -0.1789  0.0672 -0.2121
    1DIPC   C4B 8520  23.607  14.075   4.418  0.1400 -0.1063 -0.1127
    1DIPC   NC3 8521  17.123   3.489   6.936  0.1252  0.1619  0.0857
    1DIPC   PO4 8522  17.486   3.162   6.986  0.3239 -0.2252 -0.0229
    1DIPC   GL1 8523  17.246   3.223   6.540 -0.1087 -0.1549 -0.4514
    1DIPC   GL2 8524  16.993   3.469   6.418  0.2897 -0.0939 -0.0734
    1DIPC   C1A 8525  17.431   3.322   6.149  0.1051  0.0007 -0.3018
    1DIPC   D2A 8526  17.255   3.423   5.719 -0.1856  0.2826 -0.1667
    1DIPC   D3A 8527  17.312   3.145   5.320 -0.0793  0.2116 -0.0179
    1DIPC   C4A 8528  17.558   3.200   4.905 -0.3293  0.1431 -0.2007
    1DIPC   C1B 8529  16.941   3.201   6.063 -0.1263  0.2097  0.0235
    1DIPC   D2B 8530  16.826   2.940   5.676 -0.1328 -0.1941  0.1240
    1DIPC   D3B 8531  16.806   3.343   5.390 -0.1576  0.0371 -0.1079
    1DIPC   C4B 8532  17.029   3.290   4.960 -0.4421  0.0449 -0.1100
    1DIPC   NC3 8533  14.099  27.340   6.984 -0.0203 -0.0672  0.1072
    1DIPC   PO4 8534  14.365  26.998   6.781 -0.3665 -0.1061  0.1591
    1DIPC   GL1 8535  14.314  26.729   6.467  0.1395 -0.3454  0.2271
    1DIPC   GL2 8536  14.096  26.429   6.307  0.0204  0.1133 -0.1497
    1DIPC   C1A 8537  14.412  26.843   6.051 -0.1769 -0.0358 -0.0452
    1DIPC   D2A 8538  14.346  26.981   5.576  0.0278  0.1372 -0.0736
    1DIPC   D3A 8539  14.509  26.614   5.428 -0.0733  0.2978  0.0483
    1DIPC   C4A 8540  14.499  26.363   5.794  0.0493  0.0560 -0.1848
    1DIPC   C1B 8541  14.112  26.090   6.006 -0.1201 -0.1473  0.1485
    1DIPC   D2B 8542  13.931  25.800   6.148 -0.2026 -0.0185 -0.0468
    1DIPC   D3B 8543  14.018  25.773   5.594  0.0184  0.3121 -0.1572
    1DIPC   C4B 8544  13.998  26.089   5.304 -0.1438 -0.0578  0.0688
    1DIPC   NC3 8545  21.826  13.435   7.307 -0.1848  0.0986 -0.0532
    1DIPC   PO4 8546  22.018  12.978   7.426 -0.3693  0.1485  0.0814
    1DIPC   GL1 8547  21.911  12.793   7.041 -0.2888 -0.1536 -0.1214
    1DIPC   GL2 8548  21.660  12.527   7.041 -0.2026  0.0957 -0.1699
    1DIPC   C1A 8549  22.093  12.923   6.610 -0.0259 -0.1334  0.1072
    1DIPC   D2A 8550  22.488  12.826   6.683  0.0648  0.0091 -0.0443
    1DIPC   D3A 8551  22.451  13.044   6.358  0.2669 -0.1764 -0.2953
    1DIPC   C4A 8552  22.141  12.887   6.036 -0.5965 -0.2459 -0.0310
    1DIPC   C1B 8553  21.654  12.660   6.631 -0.2305 -0.1817 -0.0893
    1DIPC   D2B 8554  21.630  12.924   6.242  0.3473  0.1770 -0.0271
    1DIPC   D3B 8555  21.339  13.300   6.115  0.0225 -0.0884  0.0186
    1DIPC   C4B 8556  21.225  13.335   5.665 -0.0067  0.1682 -0.0828
    1DIPC   NC3 8557  21.638  23.536   6.921 -0.1353 -0.0943 -0.1807
    1DIPC   PO4 8558  22.100  23.483   6.862 -0.1080 -0.1259  0.1067
    1DIPC   GL1 8559  22.186  23.201   6.458  0.0337 -0.0741  0.2795
    1DIPC   GL2 8560  22.465  23.064   6.348  0.1675  0.0597  0.1065
    1DIPC   C1A 8561  22.030  23.180   5.982  0.0334  0.0443 -0.0642
    1DIPC   D2A 8562  22.088  23.021   5.571 -0.0070  0.0287 -0.0961
    1DIPC   D3A 8563  21.743  22.813   5.773  0.2405 -0.0656 -0.0990
    1DIPC   C4A 8564  21.503  23.099   6.021 -0.1552 -0.0570  0.1394
    1DIPC   C1B 8565  22.941  23.193   6.174 -0.0040 -0.2681 -0.1672
    1DIPC   D2B 8566  23.079  23.605   6.044  0.3878  0.2755 -0.0168
    1DIPC   D3B 8567  22.990  23.516   5.624  0.2897 -0.1678 -0.1227
    1DIPC   C4B 8568  23.039  23.243   5.319  0.0852 -0.0047  0.2573
    1DIPC   NC3 8569  21.571  18.157   7.137  0.2546 -0.0479  0.2587
    1DIPC   PO4 8570  21.878  17.940   7.094 -0.2563 -0.1704  0.1386
    1DIPC   GL1 8571  21.692  17.869   6.724  0.2228 -0.1109 -0.5694
    1DIPC   GL2 8572  21.356  17.865   6.694  0.0678 -0.3329 -0.1344
    1DIPC   C1A 8573  21.579  17.496   6.441  0.3011 -0.0062 -0.1185
    1DIPC   D2A 8574  21.397  17.139   6.284 -0.2412 -0.0799  0.0691
    1DIPC   D3A 8575  21.111  16.806   6.524  0.0107  0.2673  0.0874
    1DIPC   C4A 8576  20.702  16.620   6.315 -0.0278 -0.2232  0.1435
    1DIPC   C1B 8577  20.901  17.975   6.428  0.0221 -0.0222 -0.2098
    1DIPC   D2B 8578  20.653  18.225   6.626 -0.0507 -0.0978  0.0672
    1DIPC   D3B 8579  20.619  18.288   6.153  0.0260 -0.0388 -0.4553
    1DIPC   C4B 8580  20.861  18.627   5.852  0.1136  0.0726  0.3354
    1DIPC   NC3 8581   3.398   4.191   6.817  0.0182  0.0355 -0.3578
    1DIPC   PO4 8582   3.487   3.798   6.699 -0.1243  0.3757 -0.0510
    1DIPC   GL1 8583   3.695   4.029   6.327  0.4010 -0.2821  0.1209
    1DIPC   GL2 8584   3.712   3.702   6.118 -0.2140 -0.0534 -0.0654
    1DIPC   C1A 8585   3.613   4.143   5.994 -0.2179  0.2471  0.1198
    1DIPC   D2A 8586   3.277   4.456   5.877 -0.1093  0.2213 -0.0685
    1DIPC   D3A 8587   3.531   4.596   5.571 -0.1029  0.1436 -0.1417
    1DIPC   C4A 8588   3.919   4.323   5.710  0.0677  0.0531  0.0970
    1DIPC   C1B 8589   3.907   3.837   5.709 -0.1417  0.1206  0.1247
    1DIPC   D2B 8590   3.901   3.760   5.292 -0.0382  0.1202 -0.2319
    1DIPC   D3B 8591   4.172   3.523   5.113 -0.2567 -0.1480 -0.1855
    1DIPC   C4B 8592   4.179   3.490   4.709  0.2838  0.0263 -0.0575
    1DIPC   NC3 8593   2.255   7.974   6.644 -0.0654 -0.0924  0.1589
    1DIPC   PO4 8594   1.919   8.292   6.705 -0.0205  0.1699 -0.1717
    1DIPC   GL1 8595   1.968   8.230   6.285 -0.1992  0.0883  0.0274
    1DIPC   GL2 8596   2.323   8.319   6.135 -0.2410  0.2480  0.1882
    1DIPC   C1A 8597   1.797   7.972   5.907  0.1682 -0.3284 -0.2183
    1DIPC   D2A 8598   2.004   7.796   5.584 -0.0136  0.3158  0.0612
    1DIPC   D3A 8599   2.334   7.628   5.209 -0.0599 -0.1115  0.2326
    1DIPC   C4A 8600   2.753   7.645   5.222  0.1787 -0.0462 -0.0987
    1DIPC   C1B 8601   2.656   8.118   5.923 -0.0164 -0.0401  0.0439
    1DIPC   D2B 8602   2.883   8.066   5.505 -0.3296 -0.1287  0.3204
    1DIPC   D3B 8603   2.485   8.189   5.348 -0.0189 -0.2552 -0.1075
    1DIPC   C4B 8604   2.168   8.234   5.686 -0.3868 -0.1642  0.1304
    1DIPC   NC3 8605  15.883  19.247   7.487 -0.0722  0.0192 -0.1045
    1DIPC   PO4 8606  16.330  19.191   7.415  0.0007 -0.0047  0.3555
    1DIPC   GL1 8607  16.297  19.326   7.017  0.0476 -0.1260  0.0353
    1DIPC   GL2 8608  16.546  19.405   6.967 -0.1801  0.1049 -0.0744
    1DIPC   C1A 8609  16.223  19.464   6.603 -0.3880  0.1807  0.1126
    1DIPC   D2A 8610  16.307  19.511   6.179  0.0269 -0.0903  0.1353
    1DIPC   D3A 8611  16.528  19.735   5.936 -0.0584 -0.1004  0.0615
    1DIPC   C4A 8612  16.418  20.107   6.007 -0.2773  0.0079  0.0477
    1DIPC   C1B 8613  16.396  19.826   6.947 -0.0433 -0.2052 -0.1510
    1DIPC   D2B 8614  16.347  19.988   6.441  0.1243  0.0497 -0.1641
    1DIPC   D3B 8615  16.436  20.443   6.537  0.0495 -0.0030 -0.0687
    1DIPC   C4B 8616  16.580  20.518   6.933 -0.0037  0.0946 -0.1115
    1DIPC   NC3 8617   5.845  24.055   5.587 -0.0315 -0.1129  0.0257
    1DIPC   PO4 8618   5.919  24.226   6.048 -0.0397 -0.0490  0.2058
    1DIPC   GL1 8619   6.158  24.612   5.933  0.3102  0.1682 -0.0353
    1DIPC   GL2 8620   6.191  24.865   6.158 -0.1486  0.0125  0.0737
    1DIPC   C1A 8621   6.255  24.851   5.660 -0.0122 -0.2218  0.0444
    1DIPC   D2A 8622   6.340  25.173   5.280  0.2743  0.2806  0.0842
    1DIPC   D3A 8623   6.883  25.203   5.145 -0.0941  0.2458 -0.3521
    1DIPC   C4A 8624   6.927  25.163   4.684  0.0587 -0.2358 -0.2818
    1DIPC   C1B 8625   5.934  25.228   5.895 -0.0724 -0.3023  0.0858
    1DIPC   D2B 8626   5.763  25.522   5.622  0.1833 -0.0972 -0.5878
    1DIPC   D3B 8627   5.827  25.922   5.675 -0.1198  0.0232 -0.0819
    1DIPC   C4B 8628   5.938  26.269   5.388  0.0421 -0.2301 -0.1164
    1DIPC   NC3 8629  16.906   4.739   7.808  0.0418 -0.1301 -0.3590
    1DIPC   PO4 8630  16.809   4.825   7.352 -0.0025  0.1031 -0.2177
    1DIPC   GL1 8631  16.953   4.638   6.945 -0.0333 -0.0999 -0.1220
    1DIPC   GL2 8632  16.656   4.682   6.794  0.3306 -0.1430  0.1423
    1DIPC   C1A 8633  17.029   4.484   6.543  0.2300  0.1029  0.2359
    1DIPC   D2A 8634  16.877   4.552   6.057  0.0700 -0.0884 -0.2938
    1DIPC   D3A 8635  17.102   4.761   5.715  0.0151 -0.0769 -0.1524
    1DIPC   C4A 8636  16.933   5.043   5.449  0.0391 -0.1880 -0.0162
    1DIPC   C1B 8637  16.503   4.527   6.369 -0.2296 -0.1158  0.2661
    1DIPC   D2B 8638  16.382   4.548   5.864 -0.3780  0.0711 -0.1398
    1DIPC   D3B 8639  16.623   4.303   5.640  0.0351 -0.0302  0.1491
    1DIPC   C4B 8640  17.063   4.268   5.717  0.2748 -0.1250  0.0518
    1DIPC   NC3 8641   0.451   1.006   7.105 -0.0367 -0.1637 -0.1191
    1DIPC   PO4 8642   0.089   0.885   6.817  0.0080  0.0640  0.0522
    1DIPC   GL1 8643   0.009   1.004   6.375 -0.3011  0.0822 -0.0071
    1DIPC   GL2 8644   0.106   1.357   6.287 -0.0442  0.0803  0.1389
    1DIPC   C1A 8645  -0.007   0.940   5.894 -0.1279  0.3243 -0.2082
    1DIPC   D2A 8646  -0.077   0.938   5.430 -0.2856 -0.0954  0.1543
    1DIPC   D3A 8647  -0.497   1.106   5.270  0.0453  0.0618 -0.0390
    1DIPC   C4A 8648  -0.538   1.238   4.824 -0.1480 -0.0388 -0.0055
    1DIPC   C1B 8649   0.154   1.434   5.801 -0.0854  0.0443  0.0321
    1DIPC   D2B 8650   0.242   1.332   5.328  0.2126 -0.0343  0.0193
    1DIPC   D3B 8651   0.518   1.106   5.212  0.3090 -0.0559  0.0703
    1DIPC   C4B 8652   0.234   0.659   5.059  0.1639 -0.1806 -0.0371
    1DIPC   NC3 8653  22.334  11.779   7.273 -0.0612  0.1585  0.0381
    1DIPC   PO4 8654  22.286  12.096   7.401  0.3109 -0.2032 -0.0689
    1DIPC   GL1 8655  22.044  12.154   7.107  0.1283 -0.1605  0.2393
    1DIPC   GL2 8656  22.192  12.040   6.839 -0.4810 -0.1145  0.3922
    1DIPC   C1A 8657  21.672  12.104   6.749 -0.0811 -0.0817 -0.2847
    1DIPC   D2A 8658  21.478  11.860   6.511 -0.0574  0.1823  0.1078
    1DIPC   D3A 8659  21.738  11.982   6.222  0.0109  0.0175 -0.1319
    1DIPC   C4A 8660  21.804  12.436   6.148 -0.0243  0.0036  0.0186
    1DIPC   C1B 8661  22.142  12.376   6.574 -0.0565  0.4223 -0.2181
    1DIPC   D2B 8662  22.391  12.547   6.275  0.3259  0.1021  0.4930
    1DIPC   D3B 8663  22.252  12.076   6.149  0.1370  0.0942  0.2845
    1DIPC   C4B 8664  22.328  12.043   5.738  0.0992  0.4369  0.2285
    1DIPC   NC3 8665  17.861   3.025   7.276 -0.1423  0.1873  0.3568
    1DIPC   PO4 8666  18.117   2.676   7.086  0.1897  0.0930  0.1807
    1DIPC   GL1 8667  17.975   2.805   6.583 -0.2393  0.0104  0.2147
    1DIPC   GL2 8668  17.664   2.835   6.499 -0.1665 -0.0315  0.0926
    1DIPC   C1A 8669  17.885   3.011   6.078 -0.2925  0.3748  0.0984
    1DIPC   D2A 8670  17.616   2.841   5.764  0.2976 -0.1385  0.1650
    1DIPC   D3A 8671  17.593   2.713   5.427 -0.0423 -0.1221  0.1491
    1DIPC   C4A 8672  17.880   2.508   5.122  0.0373  0.0009 -0.1886
    1DIPC   C1B 8673  17.390   2.841   6.258  0.0622  0.0595  0.1011
    1DIPC   D2B 8674  17.179   2.686   5.854 -0.3369  0.0184 -0.2111
    1DIPC   D3B 8675  17.205   2.336   5.628 -0.2811 -0.1794 -0.2629
    1DIPC   C4B 8676  17.037   1.953   5.703  0.2432  0.0866 -0.0874
    1DIPC   NC3 8677  27.878  14.222   5.909 -0.2083 -0.1101  0.2389
    1DIPC   PO4 8678  28.021  13.793   6.017 -0.0367 -0.1410  0.2001
    1DIPC   GL1 8679  28.204  13.863   5.558 -0.0458  0.0285 -0.1928
    1DIPC   GL2 8680  28.393  13.644   5.424  0.0708 -0.1135 -0.1779
    1DIPC   C1A 8681  28.251  14.137   5.115 -0.0258 -0.3322  0.1544
    1DIPC   D2A 8682  28.480  14.210   4.723  0.3061 -0.1243 -0.0550
    1DIPC   D3A 8683  28.551  13.986   4.307  0.2564 -0.0602 -0.1984
    1DIPC   C4A 8684  28.344  13.639   4.347  0.1122 -0.2430  0.1449
    1DIPC   C1B 8685  28.643  13.919   5.314  0.0851  0.1143 -0.0333
    1DIPC   D2B 8686  28.826  14.043   5.019  0.3175 -0.0091 -0.0033
    1DIPC   D3B 8687  28.971  14.101   4.672  0.2450 -0.1025  0.0894
    1DIPC   C4B 8688  29.395  14.171   4.736  0.0927 -0.0096  0.3450
    1DIPC   NC3 8689  26.075   7.254   6.460  0.0023 -0.1930 -0.3358
    1DIPC   PO4 8690  26.291   7.714   6.419 -0.2553  0.0632  0.2412
    1DIPC   GL1 8691  26.456   7.836   5.959 -0.1267  0.0167 -0.1914
    1DIPC   GL2 8692  26.379   7.738   5.735 -0.1321  0.1566 -0.0706
    1DIPC   C1A 8693  26.827   7.908   5.526 -0.2018 -0.1268 -0.1049
    1DIPC   D2A 8694  26.819   7.757   5.050 -0.1130  0.1269  0.0496
    1DIPC   D3A 8695  26.712   7.430   5.254 -0.0752  0.0928 -0.2526
    1DIPC   C4A 8696  27.009   7.086   5.413  0.0133 -0.1964 -0.1617
    1DIPC   C1B 8697  26.204   7.421   5.435 -0.0004 -0.0999 -0.0412
    1DIPC   D2B 8698  25.789   7.229   5.303  0.0850  0.4094 -0.0983
    1DIPC   D3B 8699  25.645   7.226   4.888 -0.1248  0.1825 -0.0354
    1DIPC   C4B 8700  25.189   7.342   4.790  0.1097 -0.1642  0.2558
    1DIPC   NC3 8701  28.409  11.559   6.129 -0.3960 -0.5834 -0.2503
    1DIPC   PO4 8702  28.462  10.997   6.106 -0.1561 -0.3271  0.1448
    1DIPC   GL1 8703  28.401  10.975   5.708  0.0741 -0.0554  0.1943
    1DIPC   GL2 8704  28.249  10.854   5.416  0.2048  0.1905  0.0263
    1DIPC   C1A 8705  28.684  10.993   5.418 -0.4497  0.0002 -0.2571
    1DIPC   D2A 8706  28.954  10.807   5.047 -0.2427  0.1644  0.1089
    1DIPC   D3A 8707  29.032  10.513   4.611  0.0050  0.1094 -0.0788
    1DIPC   C4A 8708  29.461  10.372   4.527 -0.1314 -0.1083 -0.1162
    1DIPC   C1B 8709  28.435  10.801   5.019 -0.0625 -0.0565 -0.0919
    1DIPC   D2B 8710  28.429  10.618   4.694 -0.3127  0.3472  0.0297
    1DIPC   D3B 8711  28.608  10.649   4.227  0.1646  0.1062 -0.1600
    1DIPC   C4B 8712  28.955  10.883   4.175 -0.1109 -0.3490  0.3204
    1DIPC   NC3 8713  24.967  24.050   6.598 -0.2145  0.2062  0.3488
    1DIPC   PO4 8714  24.506  24.079   6.593 -0.0064 -0.0888 -0.0187
    1DIPC   GL1 8715  24.372  24.006   6.270  0.3203 -0.1515  0.0447
    1DIPC   GL2 8716  24.111  23.753   6.122  0.0658 -0.1468  0.2481
    1DIPC   C1A 8717  24.265  24.051   5.719 -0.1267  0.1134  0.1968
    1DIPC   D2A 8718  24.587  23.907   5.398 -0.0121  0.0512  0.1087
    1DIPC   D3A 8719  25.061  24.086   5.262  0.4062  0.1863 -0.2797
    1DIPC   C4A 8720  25.193  23.766   5.099 -0.2051  0.2905 -0.0763
    1DIPC   C1B 8721  23.984  23.577   5.697  0.1469  0.0701  0.2826
    1DIPC   D2B 8722  24.195  23.158   5.491  0.1312 -0.1094  0.1962
    1DIPC   D3B 8723  23.882  22.933   5.698  0.3203 -0.0864  0.0226
    1DIPC   C4B 8724  23.602  22.905   5.441  0.0715  0.0682 -0.2275
    1DIPC   NC3 8725  24.478  14.002   6.019 -0.0795 -0.1871 -0.0395
    1DIPC   PO4 8726  24.732  13.631   5.765  0.0158  0.0375  0.2943
    1DIPC   GL1 8727  24.422  13.691   5.492  0.0022  0.1055  0.3613
    1DIPC   GL2 8728  24.154  13.886   5.605 -0.2894 -0.0945  0.0695
    1DIPC   C1A 8729  24.119  13.786   5.072 -0.0223 -0.0590 -0.2278
    1DIPC   D2A 8730  24.367  13.702   4.747 -0.3869 -0.0327  0.0393
    1DIPC   D3A 8731  24.306  13.521   4.334  0.2207 -0.1895 -0.0857
    1DIPC   C4A 8732  24.331  13.157   4.137  0.2064  0.2520  0.0576
    1DIPC   C1B 8733  23.864  13.645   5.508  0.0911  0.1751  0.0661
    1DIPC   D2B 8734  23.959  13.278   5.241  0.0404 -0.0148 -0.3951
    1DIPC   D3B 8735  24.411  13.267   5.119  0.1206 -0.0269 -0.2546
    1DIPC   C4B 8736  24.517  13.175   4.610 -0.0140  0.2152 -0.4705
    1DIPC   NC3 8737  20.587  19.723   7.266  0.1884  0.0633 -0.3153
    1DIPC   PO4 8738  20.384  20.091   7.101 -0.2562  0.2903  0.0687
    1DIPC   GL1 8739  20.213  20.124   6.794  0.0846 -0.0207 -0.0933
    1DIPC   GL2 8740  19.890  20.030   6.723 -0.1296 -0.1777  0.1010
    1DIPC   C1A 8741  20.402  19.906   6.330 -0.1396 -0.0914  0.0317
    1DIPC   D2A 8742  20.756  19.673   6.153  0.1054  0.0484  0.1154
    1DIPC   D3A 8743  21.017  19.672   5.834  0.2406  0.0826  0.1292
    1DIPC   C4A 8744  21.395  19.461   5.897 -0.0827  0.0607 -0.0984
    1DIPC   C1B 8745  20.036  19.704   6.552  0.1855  0.2811  0.2409
    1DIPC   D2B 8746  20.134  19.321   6.670 -0.3622 -0.2959 -0.1932
    1DIPC   D3B 8747  20.096  19.009   6.418  0.2649 -0.1726  0.0344
    1DIPC   C4B 8748  20.426  18.836   6.201  0.0605 -0.0494  0.0488
    1DIPC   NC3 8749  16.384   0.215   7.769  0.2185 -0.3143 -0.0267
    1DIPC   PO4 8750  16.237  -0.189   7.481  0.0778  0.1684  0.1373
    1DIPC   GL1 8751  16.254  -0.070   7.115  0.3480  0.0191 -0.0856
    1DIPC   GL2 8752  16.207  -0.344   6.942  0.0047 -0.0364 -0.1742
    1DIPC   C1A 8753  16.545  -0.038   6.711 -0.0986 -0.2269 -0.2587
    1DIPC   D2A 8754  16.806  -0.102   6.389  0.1209  0.2064  0.0388
    1DIPC   D3A 8755  16.991  -0.409   6.632 -0.0782  0.1357 -0.1355
    1DIPC   C4A 8756  17.433  -0.556   6.488 -0.1069 -0.1480  0.0195
    1DIPC   C1B 8757  16.010  -0.029   6.618 -0.4065 -0.1831 -0.1690
    1DIPC   D2B 8758  15.676   0.292   6.337  0.2510 -0.0142 -0.1602
    1DIPC   D3B 8759  15.572  -0.155   6.473  0.1304 -0.1544  0.1292
    1DIPC   C4B 8760  15.826  -0.486   6.491  0.1675 -0.1495 -0.2250
    1DIPC   NC3 8761  25.302   5.541   5.962 -0.0093  0.1564 -0.1798
    1DIPC   PO4 8762  25.607   5.389   5.810 -0.4057  0.1816  0.0705
    1DIPC   GL1 8763  25.376   5.452   5.467 -0.2350 -0.3067 -0.0684
    1DIPC   GL2 8764  25.371   5.785   5.578  0.1652 -0.3032 -0.2222
    1DIPC   C1A 8765  25.138   5.677   5.117  0.0354 -0.1159 -0.1287
    1DIPC   D2A 8766  24.741   5.643   5.047 -0.0613 -0.0477  0.1742
    1DIPC   D3A 8767  24.866   5.691   4.488 -0.2671  0.1846  0.1459
    1DIPC   C4A 8768  24.652   5.962   4.269 -0.0494  0.0081 -0.0880
    1DIPC   C1B 8769  25.759   5.935   5.399 -0.1517 -0.0949  0.0794
    1DIPC   D2B 8770  26.290   5.903   5.257  0.1832  0.1061 -0.1177
    1DIPC   D3B 8771  26.703   6.121   5.265  0.1326 -0.1318 -0.3885
    1DIPC   C4B 8772  26.756   6.422   4.987 -0.0926 -0.2195 -0.0979
    1DIPC   NC3 8773   1.327  22.596   6.365  0.1581  0.0077  0.3536
    1DIPC   PO4 8774   1.464  22.711   5.964 -0.2435  0.1539 -0.0576
    1DIPC   GL1 8775   1.346  23.053   5.774 -0.3777 -0.0015 -0.3491
    1DIPC   GL2 8776   1.591  23.006   5.521 -0.3878 -0.1060  0.0430
    1DIPC   C1A 8777   1.339  23.404   5.415 -0.1091  0.0323  0.0092
    1DIPC   D2A 8778   1.424  23.749   5.350 -0.0277  0.1295  0.3648
    1DIPC   D3A 8779   1.231  23.728   4.923  0.1059  0.3110 -0.1381
    1DIPC   C4A 8780   0.801  23.496   4.805 -0.1664 -0.0944 -0.0454
    1DIPC   C1B 8781   1.429  22.671   5.205  0.0195  0.1086  0.0917
    1DIPC   D2B 8782   1.406  22.591   4.711 -0.0267  0.2291  0.0893
    1DIPC   D3B 8783   1.364  23.036   4.765  0.0709 -0.0974  0.1985
    1DIPC   C4B 8784   1.089  23.147   5.006 -0.0867 -0.2456 -0.0206
    1DIPC   NC3 8785  18.963  24.057   7.193  0.1375  0.1024 -0.0597
    1DIPC   PO4 8786  18.706  24.415   7.095  0.0192 -0.1344  0.0983
    1DIPC   GL1 8787  18.374  24.538   6.727  0.2598  0.1056 -0.0876
    1DIPC   GL2 8788  18.479  24.846   6.559  0.3136  0.1296 -0.0209
    1DIPC   C1A 8789  18.076  24.489   6.330  0.1142  0.0436 -0.0697
    1DIPC   D2A 8790  17.786  24.556   5.897 -0.2723  0.1059  0.0918
    1DIPC   D3A 8791  17.455  24.421   5.914  0.1649  0.1143  0.1390
    1DIPC   C4A 8792  17.534  24.015   5.828 -0.0570 -0.1253  0.1625
    1DIPC   C1B 8793  18.565  25.152   6.264 -0.3124  0.0506 -0.3002
    1DIPC   D2B 8794  18.432  25.216   5.899 -0.1642 -0.0951 -0.1162
    1DIPC   D3B 8795  18.948  25.133   5.958 -0.0373  0.2521 -0.0059
    1DIPC   C4B 8796  19.178  24.747   5.646 -0.1563  0.1865 -0.0690
    1DIPC   NC3 8797   3.565   8.300   6.787 -0.0435  0.1537 -0.0515
    1DIPC   PO4 8798   3.704   8.003   6.570 -0.2629 -0.1925  0.4816
    1DIPC   GL1 8799   3.513   7.892   6.192  0.0502 -0.2787 -0.0463
    1DIPC   GL2 8800   3.285   7.993   6.162  0.2727  0.2449 -0.0972
    1DIPC   C1A 8801   3.686   7.678   5.832 -0.3699 -0.1491 -0.2433
    1DIPC   D2A 8802   3.827   7.584   5.437  0.0697  0.0644 -0.1308
    1DIPC   D3A 8803   3.736   7.780   5.116  0.1053  0.0975  0.1886
    1DIPC   C4A 8804   4.008   7.910   4.696 -0.1364  0.0843  0.2139
    1DIPC   C1B 8805   3.292   7.997   5.706  0.0726 -0.2491  0.1201
    1DIPC   D2B 8806   3.292   7.957   5.214 -0.1591 -0.1145  0.0435
    1DIPC   D3B 8807   3.119   7.745   4.848 -0.0603 -0.0468 -0.1198
    1DIPC   C4B 8808   2.704   7.613   4.627 -0.0275 -0.2405 -0.3321
    1DIPC   NC3 8809  21.918  10.365   7.788  0.0054  0.0793 -0.1084
    1DIPC   PO4 8810  22.141  10.376   7.351 -0.1631  0.2016 -0.1635
    1DIPC   GL1 8811  22.335  10.542   6.904 -0.1845 -0.0287 -0.0346
    1DIPC   GL2 8812  22.054  10.627   6.577 -0.4583 -0.2031  0.1845
    1DIPC   C1A 8813  22.618  10.486   6.572 -0.0883 -0.0460  0.0293
    1DIPC   D2A 8814  22.615  10.657   6.162 -0.0563  0.2213  0.0688
    1DIPC   D3A 8815  22.297  10.306   6.219 -0.0130 -0.2394  0.0719
    1DIPC   C4A 8816  22.100  10.278   5.863  0.0597 -0.0992  0.1692
    1DIPC   C1B 8817  22.127  10.744   6.095 -0.0449  0.2166 -0.3231
    1DIPC   D2B 8818  22.423  10.588   5.737  0.0792 -0.0566 -0.1507
    1DIPC   D3B 8819  22.423  10.223   5.457  0.3944 -0.2042 -0.2304
    1DIPC   C4B 8820  22.284   9.931   5.499  0.0440 -0.0999 -0.2260
    1DIPC   NC3 8821  27.467  10.035   6.692 -0.2756 -0.0039 -0.3267
    1DIPC   PO4 8822  27.460  10.089   6.277 -0.0054  0.0724  0.0461
    1DIPC   GL1 8823  27.568   9.943   5.750 -0.0980  0.1266  0.0816
    1DIPC   GL2 8824  27.858   9.784   5.566  0.2003  0.0186  0.1062
    1DIPC   C1A 8825  27.454   9.916   5.283  0.0098 -0.0047 -0.0688
    1DIPC   D2A 8826  27.133   9.876   4.910 -0.0855  0.1599  0.0857
    1DIPC   D3A 8827  26.600   9.862   4.975  0.2972  0.0097 -0.0571
    1DIPC   C4A 8828  26.253   9.526   4.840 -0.1218 -0.5654 -0.0697
    1DIPC   C1B 8829  28.043   9.933   5.176 -0.0531  0.2246 -0.0764
    1DIPC   D2B 8830  28.282   9.639   4.815 -0.0526  0.1154 -0.1589
    1DIPC   D3B 8831  28.009   9.369   4.568 -0.3927 -0.0551  0.0835
    1DIPC   C4B 8832  27.873   9.540   4.265 -0.0291 -0.1796  0.2637
    1DIPC   NC3 8833  17.372  26.098   7.294 -0.2680  0.2352 -0.2532
    1DIPC   PO4 8834  17.276  26.445   7.061 -0.0907  0.0803  0.0227
    1DIPC   GL1 8835  17.499  26.409   6.578  0.0656 -0.2582 -0.1416
    1DIPC   GL2 8836  17.680  26.763   6.414  0.0272 -0.2204  0.4775
    1DIPC   C1A 8837  17.429  26.119   6.196  0.0053 -0.4159 -0.0469
    1DIPC   D2A 8838  17.174  26.059   5.912 -0.0310  0.0742 -0.0658
    1DIPC   D3A 8839  16.882  26.249   6.144  0.1230  0.3309  0.0359
    1DIPC   C4A 8840  16.476  26.111   5.865 -0.3773 -0.0580 -0.2778
    1DIPC   C1B 8841  17.952  26.849   6.003 -0.2611 -0.0093  0.0604
    1DIPC   D2B 8842  17.954  27.124   5.632 -0.1293  0.4405  0.1883
    1DIPC   D3B 8843  18.234  27.307   5.466 -0.0230  0.1691 -0.0835
    1DIPC   C4B 8844  18.277  27.380   5.039  0.0733  0.2264  0.0131
    1DIPC   NC3 8845  27.810   7.409   6.497 -0.1728 -0.1286  0.2358
    1DIPC   PO4 8846  28.140   7.161   6.412  0.2017  0.5116  0.1618
    1DIPC   GL1 8847  28.140   7.390   5.996 -0.0756 -0.2608 -0.2507
    1DIPC   GL2 8848  28.465   7.497   5.867 -0.1472  0.3211  0.1090
    1DIPC   C1A 8849  28.091   7.174   5.601 -0.1313  0.1567 -0.3178
    1DIPC   D2A 8850  28.146   7.068   5.207  0.1372 -0.1575 -0.1333
    1DIPC   D3A 8851  28.497   7.340   5.318  0.3335 -0.1177  0.0847
    1DIPC   C4A 8852  28.626   7.596   5.058 -0.0750 -0.3602 -0.2286
    1DIPC   C1B 8853  28.242   7.843   5.776 -0.0546  0.1880  0.3322
    1DIPC   D2B 8854  28.145   8.083   5.473  0.1524 -0.1128 -0.0016
    1DIPC   D3B 8855  28.145   7.953   4.936  0.0077  0.1853 -0.0180
    1DIPC   C4B 8856  28.094   7.485   4.816 -0.0786 -0.2472  0.0247
    1DIPC   NC3 8857  17.411  27.427   7.396 -0.3635  0.1899  0.0653
    1DIPC   PO4 8858  17.803  27.670   7.275 -0.1045  0.2891  0.0363
    1DIPC   GL1 8859  17.647  27.702   6.973  0.1744 -0.1121 -0.1809
    1DIPC   GL2 8860  17.854  27.852   6.695  0.0634 -0.0562 -0.1324
    1DIPC   C1A 8861  17.406  27.653   6.513 -0.0770  0.3348  0.0979
    1DIPC   D2A 8862  17.002  27.860   6.280 -0.0817 -0.3582 -0.0767
    1DIPC   D3A 8863  17.126  27.485   5.962  0.1842 -0.0947 -0.1098
    1DIPC   C4A 8864  16.920  27.054   6.046  0.2852 -0.0111 -0.1443
    1DIPC   C1B 8865  17.723  27.922   6.208 -0.2132 -0.0191 -0.0382
    1DIPC   D2B 8866  17.414  27.885   5.988  0.0340  0.0770  0.0989
    1DIPC   D3B 8867  17.630  28.281   5.858  0.0372 -0.0072  0.0266
    1DIPC   C4B 8868  17.756  28.495   5.478 -0.2585  0.0873 -0.0140
    1DIPC   NC3 8869  14.594   0.388   7.677  0.2466  0.0631 -0.1285
    1DIPC   PO4 8870  14.933   0.653   7.347 -0.1421  0.2488  0.0042
    1DIPC   GL1 8871  15.401   0.741   7.140 -0.1960 -0.0775  0.2774
    1DIPC   GL2 8872  15.456   1.006   6.965 -0.1051 -0.0392  0.1139
    1DIPC   C1A 8873  15.435   0.601   6.688 -0.2094 -0.0862  0.0855
    1DIPC   D2A 8874  15.190   0.358   6.407 -0.1378  0.1211  0.0457
    1DIPC   D3A 8875  15.006   0.507   6.003  0.3179  0.2958  0.2907
    1DIPC   C4A 8876  15.098   0.682   5.620  0.0554 -0.0023 -0.3764
    1DIPC   C1B 8877  15.271   1.097   6.560 -0.0335 -0.3462 -0.1708
    1DIPC   D2B 8878  15.352   1.257   6.134  0.1095 -0.3286  0.0277
    1DIPC   D3B 8879  15.092   1.668   6.009 -0.3646  0.1976 -0.1592
    1DIPC   C4B 8880  15.186   2.058   5.635 -0.0739  0.0500  0.2837
    1DIPC   NC3 8881   7.638   5.764   6.903  0.3332  0.2017  0.0136
    1DIPC   PO4 8882   7.779   6.172   6.901  0.0617  0.0967  0.0514
    1DIPC   GL1 8883   7.970   5.956   6.577 -0.2995  0.2863  0.3015
    1DIPC   GL2 8884   8.291   6.080   6.515 -0.2045  0.0265 -0.0405
    1DIPC   C1A 8885   7.948   5.713   6.217  0.0613  0.3431 -0.1426
    1DIPC   D2A 8886   8.173   5.613   5.802 -0.0528 -0.0404 -0.1331
    1DIPC   D3A 8887   8.075   5.238   5.883  0.1694  0.1817 -0.2609
    1DIPC   C4A 8888   8.227   5.099   6.288 -0.0960  0.1115 -0.1184
    1DIPC   C1B 8889   8.241   6.364   6.160 -0.4761 -0.0452  0.0508
    1DIPC   D2B 8890   8.083   6.457   5.764  0.1882  0.4117 -0.2278
    1DIPC   D3B 8891   8.206   6.197   5.409 -0.0569  0.3368  0.0447
    1DIPC   C4B 8892   8.175   6.223   4.991 -0.1620  0.4890 -0.1907
    1DIPC   NC3 8893  21.318  20.884   6.774 -0.1531 -0.0791  0.0628
    1DIPC   PO4 8894  21.678  20.786   6.570  0.1983  0.0140  0.1533
    1DIPC   GL1 8895  21.953  20.830   6.218 -0.1656 -0.2763 -0.2123
    1DIPC   GL2 8896  22.197  20.746   6.252 -0.1686 -0.2488 -0.0660
    1DIPC   C1A 8897  22.236  21.028   5.836 -0.3773 -0.1616  0.0366
    1DIPC   D2A 8898  22.672  21.023   5.824 -0.0907 -0.1322  0.0096
    1DIPC   D3A 8899  22.633  21.157   5.465 -0.2745  0.0449 -0.0370
    1DIPC   C4A 8900  22.275  21.245   5.292 -0.0067 -0.1834 -0.2118
    1DIPC   C1B 8901  22.365  20.464   5.891 -0.2667 -0.2954 -0.2753
    1DIPC   D2B 8902  22.164  20.262   5.560  0.0229  0.0383 -0.0784
    1DIPC   D3B 8903  22.159  20.231   5.175 -0.0103 -0.2472  0.1035
    1DIPC   C4B 8904  22.625  20.139   5.326  0.0339 -0.0668 -0.0844
    1DIPC   NC3 8905   1.501  19.816   5.577  0.0102 -0.0653 -0.1274
    1DIPC   PO4 8906   1.493  19.429   5.419 -0.5591 -0.3550  0.2100
    1DIPC   GL1 8907   1.252  19.348   5.113  0.1902 -0.2987  0.3028
    1DIPC   GL2 8908   1.375  19.023   4.974  0.1793 -0.1952  0.0923
    1DIPC   C1A 8909   1.070  19.567   4.777  0.2119 -0.2635  0.2838
    1DIPC   D2A 8910   1.050  19.621   4.373  0.0218 -0.3249  0.0006
    1DIPC   D3A 8911   0.960  19.201   4.404  0.1551  0.0203 -0.0996
    1DIPC   C4A 8912   0.810  18.900   4.036  0.1400  0.3968  0.0182
    1DIPC   C1B 8913   1.419  19.293   4.575  0.0311 -0.0558 -0.0854
    1DIPC   D2B 8914   1.363  19.137   4.191  0.0835 -0.1792 -0.0065
    1DIPC   D3B 8915   1.510  18.701   3.993 -0.1933 -0.0062  0.0797
    1DIPC   C4B 8916   1.980  18.700   4.060  0.2636  0.1185  0.0091
    1DIPC   NC3 8917  28.658   3.278   6.069 -0.0715  0.4035  0.0772
    1DIPC   PO4 8918  28.162   3.124   6.082  0.1344 -0.2006 -0.2886
    1DIPC   GL1 8919  27.924   3.290   5.734 -0.0536  0.1586  0.0129
    1DIPC   GL2 8920  28.076   3.455   5.543 -0.0580  0.2477 -0.1522
    1DIPC   C1A 8921  27.621   3.230   5.353 -0.0359  0.0515  0.0678
    1DIPC   D2A 8922  27.227   3.049   5.154  0.0785 -0.0963  0.1835
    1DIPC   D3A 8923  27.329   3.281   4.804  0.2362 -0.0487 -0.2377
    1DIPC   C4A 8924  27.773   3.515   4.952  0.0466  0.1268  0.0533
    1DIPC   C1B 8925  27.676   3.729   5.445  0.0798 -0.0829 -0.5114
    1DIPC   D2B 8926  27.509   3.874   5.098 -0.2710 -0.0615 -0.1532
    1DIPC   D3B 8927  27.876   3.997   4.968 -0.0606 -0.2235 -0.0315
    1DIPC   C4B 8928  28.087   3.866   4.610  0.0094 -0.0766 -0.4353
    1DIPC   NC3 8929  13.654   4.959   7.543  0.2351 -0.2508  0.4623
    1DIPC   PO4 8930  13.663   4.525   7.558  0.3358  0.0918  0.2287
    1DIPC   GL1 8931  13.673   4.397   7.209 -0.1256  0.0573  0.1092
    1DIPC   GL2 8932  13.590   4.694   7.003 -0.4551 -0.0405  0.0698
    1DIPC   C1A 8933  13.594   4.112   6.908 -0.0515  0.1702  0.0958
    1DIPC   D2A 8934  13.541   4.039   6.464  0.1805 -0.1590 -0.1054
    1DIPC   D3A 8935  13.577   4.086   6.031  0.0821  0.0701  0.0644
    1DIPC   C4A 8936  13.503   3.774   5.824 -0.1274 -0.1344 -0.1390
    1DIPC   C1B 8937  13.966   4.908   6.830  0.3712 -0.1502 -0.0847
    1DIPC   D2B 8938  14.390   5.038   6.913  0.4597  0.0087 -0.0157
    1DIPC   D3B 8939  14.369   4.924   6.497 -0.1309  0.2343  0.3026
    1DIPC   C4B 8940  14.375   4.521   6.534  0.2592 -0.2923 -0.0921
    1DIPC   NC3 8941   3.267  17.772   5.868 -0.3585 -0.0109 -0.0638
    1DIPC   PO4 8942   3.456  18.128   5.591 -0.3923 -0.1490 -0.0065
    1DIPC   GL1 8943   3.377  18.159   5.232  0.1183 -0.0555  0.0223
    1DIPC   GL2 8944   3.682  17.915   5.156  0.3016  0.3055  0.1245
    1DIPC   C1A 8945   3.054  17.954   4.977 -0.0836 -0.0548  0.1572
    1DIPC   D2A 8946   2.725  17.831   4.792 -0.1161  0.0249  0.0596
    1DIPC   D3A 8947   2.716  17.523   5.105 -0.0274  0.0383  0.0691
    1DIPC   C4A 8948   2.332  17.218   5.019  0.0592 -0.0711  0.2129
    1DIPC   C1B 8949   3.678  17.755   4.733  0.3474  0.2446  0.1539
    1DIPC   D2B 8950   3.460  17.556   4.323  0.0196 -0.1603  0.0731
    1DIPC   D3B 8951   3.636  17.190   4.293 -0.0207 -0.0128 -0.4899
    1DIPC   C4B 8952   3.583  16.835   3.991  0.0375 -0.1107 -0.1786
    1DIPC   NC3 8953   0.219   1.362   6.773  0.3883 -0.0005 -0.0745
    1DIPC   PO4 8954   0.118   1.763   6.675 -0.3628  0.2568 -0.0840
    1DIPC   GL1 8955   0.454   1.722   6.361 -0.0821  0.1270  0.2290
    1DIPC   GL2 8956   0.717   1.424   6.323  0.2134 -0.2522  0.0314
    1DIPC   C1A 8957   0.588   1.856   6.036 -0.1248  0.1761 -0.2569
    1DIPC   D2A 8958   0.700   1.961   5.643  0.3111  0.0509 -0.0542
    1DIPC   D3A 8959   1.135   1.746   5.760  0.3253  0.0195 -0.0328
    1DIPC   C4A 8960   1.570   1.623   5.710  0.3755  0.0042 -0.2856
    1DIPC   C1B 8961   0.805   1.293   5.969 -0.3470 -0.2134 -0.1048
    1DIPC   D2B 8962   0.617   1.492   5.630 -0.1035 -0.2036  0.1327
    1DIPC   D3B 8963   0.833   1.676   5.264 -0.1383  0.1352 -0.2651
    1DIPC   C4B 8964   0.697   1.551   4.917  0.2147 -0.2241  0.1260
    1DIPC   NC3 8965  28.234   0.917   6.319 -0.1490 -0.1347  0.0073
    1DIPC   PO4 8966  28.112   1.341   6.333 -0.1412 -0.0513  0.0086
    1DIPC   GL1 8967  28.364   1.308   6.020 -0.1159 -0.0329 -0.3013
    1DIPC   GL2 8968  28.279   1.244   5.773 -0.1822  0.0252 -0.0820
    1DIPC   C1A 8969  28.402   1.698   5.708 -0.0904 -0.2625  0.0612
    1DIPC   D2A 8970  28.491   1.554   5.291  0.0282  0.2102 -0.0567
    1DIPC   D3A 8971  28.257   1.892   5.099  0.3198  0.3009 -0.1613
    1DIPC   C4A 8972  27.813   1.945   4.885  0.1823  0.1156  0.3445
    1DIPC   C1B 8973  27.996   1.438   5.480 -0.2518 -0.2166 -0.1273
    1DIPC   D2B 8974  27.855   1.825   5.394  0.1278 -0.3257 -0.0142
    1DIPC   D3B 8975  28.134   2.130   5.544  0.1504  0.0036  0.1073
    1DIPC   C4B 8976  28.535   2.121   5.470 -0.1815  0.3106  0.0300
    1DIPC   NC3 8977   2.160   2.182   6.741  0.1428 -0.0667 -0.0907
    1DIPC   PO4 8978   1.791   2.222   6.437 -0.3276 -0.0033 -0.1034
    1DIPC   GL1 8979   2.123   2.092   6.226  0.0771  0.4135 -0.2504
    1DIPC   GL2 8980   1.994   1.895   5.963 -0.0856  0.3143  0.3248
    1DIPC   C1A 8981   2.412   2.244   5.951  0.1366 -0.2261  0.2129
    1DIPC   D2A 8982   2.700   2.581   5.771 -0.0425  0.0461  0.0217
    1DIPC   D3A 8983   2.747   2.417   5.330  0.0246 -0.0928  0.1113
    1DIPC   C4A 8984   2.422   2.440   5.045  0.2443 -0.0402 -0.2170
    1DIPC   C1B 8985   2.291   1.763   5.687 -0.2433 -0.3688  0.2674
    1DIPC   D2B 8986   2.533   1.526   5.386 -0.1175 -0.0565 -0.0219
    1DIPC   D3B 8987   2.927   1.628   5.348 -0.0561  0.2386  0.1589
    1DIPC   C4B 8988   3.133   1.361   4.932  0.0189  0.2840  0.1513
    1DIPC   NC3 8989   1.638   5.930   6.190 -0.2768  0.3092 -0.1425
    1DIPC   PO4 8990   1.219   6.000   6.187 -0.0459  0.0756 -0.0676
    1DIPC   GL1 8991   1.024   6.254   5.907  0.1637  0.1877  0.0546
    1DIPC   GL2 8992   1.162   6.242   5.713  0.2379 -0.0004 -0.0787
    1DIPC   C1A 8993   0.853   6.622   5.871 -0.2824 -0.3069  0.2038
    1DIPC   D2A 8994   0.651   6.976   5.985 -0.1997 -0.4335  0.2083
    1DIPC   D3A 8995   0.483   6.887   5.577 -0.1887  0.3851 -0.2724
    1DIPC   C4A 8996   0.660   7.114   5.355  0.0134  0.0843 -0.1158
    1DIPC   C1B 8997   1.088   5.921   5.387  0.4338 -0.0040  0.1736
    1DIPC   D2B 8998   1.086   5.467   5.472 -0.1065 -0.2055  0.2888
    1DIPC   D3B 8999   0.861   5.168   5.441  0.1754  0.0515  0.1170
    1DIPC   C4B 9000   0.920   4.713   5.314 -0.0434 -0.2104  0.1657
    1DIPC   NC3 9001  23.684  18.877   7.118  0.1430  0.1667  0.1670
    1DIPC   PO4 9002  23.640  18.805   6.705  0.0802  0.4025 -0.1108
    1DIPC   GL1 9003  23.661  18.666   6.290  0.0669  0.2240 -0.0868
    1DIPC   GL2 9004  24.012  18.543   6.166 -0.0142  0.0554  0.1905
    1DIPC   C1A 9005  23.570  18.486   5.854 -0.3802  0.2726 -0.2351
    1DIPC   D2A 9006  23.724  18.316   5.509  0.0249  0.0621 -0.1159
    1DIPC   D3A 9007  23.430  18.719   5.395  0.3590  0.2199 -0.2233
    1DIPC   C4A 9008  23.385  18.974   5.671  0.0146 -0.1089  0.1053
    1DIPC   C1B 9009  24.141  18.450   5.810  0.1022  0.0517 -0.2047
    1DIPC   D2B 9010  24.256  18.460   5.350 -0.4054  0.1081  0.2808
    1DIPC   D3B 9011  23.904  18.404   5.012  0.1258 -0.0022 -0.4380
    1DIPC   C4B 9012  24.099  18.255   4.696  0.3367 -0.1163  0.3056
    1DIPC   NC3 9013   4.581  12.472   6.462 -0.0597 -0.0020  0.1454
    1DIPC   PO4 9014   4.338  12.921   6.487  0.2045  0.0342 -0.1567
    1DIPC   GL1 9015   4.367  12.784   6.041 -0.0388 -0.1260  0.1292
    1DIPC   GL2 9016   4.458  13.007   5.818 -0.2639 -0.1335 -0.0374
    1DIPC   C1A 9017   4.412  12.551   5.702 -0.0443  0.1038 -0.1655
    1DIPC   D2A 9018   4.604  12.332   5.397 -0.3843  0.1672 -0.1750
    1DIPC   D3A 9019   4.951  12.397   5.525  0.2944 -0.2716  0.1488
    1DIPC   C4A 9020   4.881  12.567   5.912  0.1774 -0.2984 -0.1483
    1DIPC   C1B 9021   4.458  12.903   5.404  0.1900 -0.0928  0.1533
    1DIPC   D2B 9022   4.765  12.715   5.084 -0.0266  0.0760  0.3819
    1DIPC   D3B 9023   4.608  12.330   4.879  0.3974 -0.3075 -0.1477
    1DIPC   C4B 9024   4.524  12.266   4.481 -0.2032 -0.0292 -0.2834
    1DIPC   NC3 9025  17.811   4.608   7.222 -0.3053 -0.0234 -0.2670
    1DIPC   PO4 9026  17.906   5.045   7.149  0.0940 -0.0776 -0.0703
    1DIPC   GL1 9027  17.495   4.944   6.991 -0.3188 -0.0651  0.1254
    1DIPC   GL2 9028  17.436   4.691   6.877  0.0481  0.1975 -0.0799
    1DIPC   C1A 9029  17.106   5.074   6.715 -0.0773 -0.2803  0.2197
    1DIPC   D2A 9030  16.748   5.151   6.809  0.1419  0.0647 -0.1228
    1DIPC   D3A 9031  16.653   5.046   6.392  0.0497 -0.2469  0.1573
    1DIPC   C4A 9032  16.277   4.965   6.245 -0.0533 -0.0052  0.0647
    1DIPC   C1B 9033  17.517   4.931   6.463  0.1195  0.1750  0.1270
    1DIPC   D2B 9034  17.146   5.002   6.177 -0.0314 -0.1396 -0.2677
    1DIPC   D3B 9035  17.239   5.375   5.866  0.0499  0.1358  0.4839
    1DIPC   C4B 9036  17.200   5.774   5.983  0.1706 -0.0739 -0.2716
    1DIPC   NC3 9037   3.296  15.698   5.927 -0.0496  0.0691 -0.2454
    1DIPC   PO4 9038   3.680  15.909   5.963  0.1183  0.1589 -0.2529
    1DIPC   GL1 9039   3.569  16.057   5.543  0.1350  0.2399 -0.1158
    1DIPC   GL2 9040   3.614  16.404   5.630  0.2434 -0.2464 -0.1990
    1DIPC   C1A 9041   3.833  16.215   5.199 -0.2677  0.3515 -0.0219
    1DIPC   D2A 9042   4.061  16.158   4.848  0.0019  0.2161  0.1560
    1DIPC   D3A 9043   3.677  16.236   4.625 -0.1062  0.0909  0.0622
    1DIPC   C4A 9044   3.590  15.805   4.620  0.1950 -0.0787 -0.3482
    1DIPC   C1B 9045   3.520  16.647   5.277 -0.1673 -0.1503  0.0982
    1DIPC   D2B 9046   3.432  17.067   5.199 -0.0801 -0.4780 -0.0122
    1DIPC   D3B 9047   3.455  17.114   4.770  0.1824  0.1587  0.1980
    1DIPC   C4B 9048   3.573  16.760   4.537 -0.1975 -0.0907  0.1068
    1DIPC   NC3 9049  23.944   7.653   6.219 -0.2271  0.1729  0.0687
    1DIPC   PO4 9050  24.043   7.919   5.936 -0.1400 -0.0927 -0.2537
    1DIPC   GL1 9051  23.753   7.951   5.623 -0.0382  0.0367  0.0600
    1DIPC   GL2 9052  23.546   8.217   5.680  0.0190  0.0299  0.0139
    1DIPC   C1A 9053  23.381   7.742   5.440 -0.0456  0.1229  0.1734
    1DIPC   D2A 9054  23.386   7.336   5.142 -0.1589  0.0433  0.1445
    1DIPC   D3A 9055  23.346   7.481   4.756 -0.1952  0.1188  0.1850
    1DIPC   C4A 9056  23.723   7.477   4.515 -0.0824  0.0498 -0.3878
    1DIPC   C1B 9057  23.521   8.583   5.428 -0.0570 -0.2663  0.0766
    1DIPC   D2B 9058  23.751   8.780   5.134 -0.2103  0.2054  0.0344
    1DIPC   D3B 9059  24.094   8.947   5.396  0.1975  0.0337  0.1407
    1DIPC   C4B 9060  24.495   8.831   5.444 -0.1624 -0.1797 -0.0996
    1DIPC   NC3 9061   2.371  19.667   5.727  0.0796 -0.1117 -0.0954
    1DIPC   PO4 9062   1.990  19.973   5.679  0.0377 -0.2058  0.0269
    1DIPC   GL1 9063   2.122  20.054   5.316 -0.0032 -0.0991  0.0787
    1DIPC   GL2 9064   1.748  19.878   5.140  0.0664 -0.0325 -0.2273
    1DIPC   C1A 9065   2.136  19.925   4.843  0.2041 -0.0737 -0.2170
    1DIPC   D2A 9066   2.127  19.986   4.401 -0.0568 -0.0801  0.0375
    1DIPC   D3A 9067   2.085  20.417   4.670  0.3070  0.2160  0.0018
    1DIPC   C4A 9068   2.103  20.466   5.093  0.0596 -0.1984  0.0086
    1DIPC   C1B 9069   1.539  19.710   4.840 -0.0441  0.1381 -0.1674
    1DIPC   D2B 9070   1.565  19.780   4.364 -0.3336 -0.1993  0.0052
    1DIPC   D3B 9071   1.294  20.116   4.202 -0.2169 -0.3697  0.0798
    1DIPC   C4B 9072   1.290  20.205   3.795  0.0708  0.2350 -0.2128
    1DIPC   NC3 9073   8.595   2.806   7.448 -0.0591  0.3471 -0.0887
    1DIPC   PO4 9074   8.493   2.377   7.287 -0.1914 -0.0072  0.5334
    1DIPC   GL1 9075   8.565   2.391   6.886 -0.1377 -0.1074 -0.0273
    1DIPC   GL2 9076   8.371   2.119   6.697  0.0792  0.1561 -0.0282
    1DIPC   C1A 9077   8.703   2.376   6.456 -0.0809  0.1340  0.0633
    1DIPC   D2A 9078   8.800   2.173   5.980  0.0568 -0.0150  0.0807
    1DIPC   D3A 9079   8.781   2.620   5.752 -0.0127  0.0584 -0.5296
    1DIPC   C4A 9080   9.133   2.924   5.710  0.1269 -0.3875 -0.0326
    1DIPC   C1B 9081   8.423   1.984   6.268  0.1017  0.2424 -0.0579
    1DIPC   D2B 9082   8.482   1.831   5.770  0.0466 -0.2518  0.1172
    1DIPC   D3B 9083   8.020   1.866   5.650  0.0708 -0.2249 -0.0010
    1DIPC   C4B 9084   7.804   1.707   5.284 -0.1934  0.0734  0.0398
    1DIPC   NC3 9085  24.808  11.477   6.886  0.2201  0.1052 -0.0794
    1DIPC   PO4 9086  24.806  11.125   6.584  0.0473 -0.1260  0.0262
    1DIPC   GL1 9087  24.576  11.209   6.166 -0.4395  0.0213 -0.0930
    1DIPC   GL2 9088  24.168  11.303   6.163  0.4105  0.0268 -0.1266
    1DIPC   C1A 9089  24.577  11.486   5.687 -0.0116 -0.0801 -0.3210
    1DIPC   D2A 9090  24.394  11.599   5.267 -0.3344  0.2001  0.3781
    1DIPC   D3A 9091  24.481  11.222   5.251 -0.1018 -0.0557  0.0769
    1DIPC   C4A 9092  24.557  10.988   5.625  0.0647  0.1070 -0.1104
    1DIPC   C1B 9093  24.130  11.196   5.683 -0.0056  0.0008 -0.1426
    1DIPC   D2B 9094  24.159  10.782   5.433  0.0860 -0.0371 -0.1718
    1DIPC   D3B 9095  24.451  10.466   5.387  0.1937 -0.2561  0.2629
    1DIPC   C4B 9096  24.324  10.171   5.689 -0.0895 -0.2073 -0.0742
    1DIPC   NC3 9097  13.072   1.548   7.447 -0.1208 -0.1249 -0.0265
    1DIPC   PO4 9098  12.807   1.896   7.388 -0.1483  0.2355 -0.1024
    1DIPC   GL1 9099  12.562   1.914   7.065  0.0727 -0.4300  0.0523
    1DIPC   GL2 9100  12.429   1.653   6.958  0.1115  0.3433 -0.0120
    1DIPC   C1A 9101  12.178   2.051   6.779  0.0131 -0.0269  0.1622
    1DIPC   D2A 9102  12.227   2.192   6.337 -0.2292  0.2173 -0.0187
    1DIPC   D3A 9103  11.993   1.866   6.141  0.1036 -0.2112 -0.0921
    1DIPC   C4A 9104  11.603   1.643   6.102  0.0598  0.0047  0.0192
    1DIPC   C1B 9105  12.631   1.844   6.574 -0.3006  0.1486 -0.0430
    1DIPC   D2B 9106  12.733   2.267   6.528  0.2117  0.0909  0.3706
    1DIPC   D3B 9107  12.748   2.370   6.053 -0.1139  0.2779 -0.3597
    1DIPC   C4B 9108  12.825   2.208   5.682  0.1665 -0.0646 -0.3371
    1DIPC   NC3 9109   0.357  15.728   5.990 -0.0190  0.1859 -0.0922
    1DIPC   PO4 9110   0.584  16.078   5.864  0.0644  0.1991  0.1314
    1DIPC   GL1 9111   0.581  16.003   5.492  0.1939 -0.1135  0.0548
    1DIPC   GL2 9112   0.832  16.004   5.313  0.2402 -0.1466 -0.0496
    1DIPC   C1A 9113   0.352  16.175   5.064 -0.1247 -0.0137 -0.2075
    1DIPC   D2A 9114   0.173  16.301   4.722  0.0282 -0.1420  0.1621
    1DIPC   D3A 9115  -0.015  16.320   4.349  0.1076  0.1100  0.2314
    1DIPC   C4A 9116   0.051  16.411   4.056  0.1703 -0.2131  0.0722
    1DIPC   C1B 9117   1.151  16.056   5.285  0.0571 -0.1757  0.0203
    1DIPC   D2B 9118   1.605  15.894   5.248  0.3310  0.1943 -0.1500
    1DIPC   D3B 9119   1.978  16.046   5.417  0.0657  0.1591 -0.0528
    1DIPC   C4B 9120   2.395  15.819   5.231  0.0562  0.0669  0.3074
    1DIPC   NC3 9121  23.209   3.289   6.508 -0.1718 -0.1305  0.0880
    1DIPC   PO4 9122  22.925   3.698   6.480 -0.1618  0.0079 -0.1936
    1DIPC   GL1 9123  23.014   3.961   6.172 -0.1094 -0.2397 -0.0436
    1DIPC   GL2 9124  22.736   4.208   6.103  0.3042 -0.1513  0.0802
    1DIPC   C1A 9125  22.932   3.847   5.825 -0.0535 -0.1518 -0.2128
    1DIPC   D2A 9126  22.849   3.606   5.565 -0.1841  0.1031  0.2958
    1DIPC   D3A 9127  23.056   3.892   5.322 -0.1126  0.2276  0.0568
    1DIPC   C4A 9128  22.997   3.970   4.961  0.0389 -0.1402 -0.0830
    1DIPC   C1B 9129  22.790   4.313   5.651  0.2463  0.0626  0.0693
    1DIPC   D2B 9130  22.675   4.244   5.234  0.1421  0.4044  0.0670
    1DIPC   D3B 9131  22.507   3.832   5.167 -0.1641  0.1092 -0.2256
    1DIPC   C4B 9132  22.170   3.718   4.910  0.1272  0.1759 -0.1578
    1DIPC   NC3 9133  24.051  14.919   5.921  0.1043 -0.0421  0.3176
    1DIPC   PO4 9134  23.691  15.149   6.121 -0.0323  0.1807 -0.0808
    1DIPC   GL1 9135  23.565  14.961   5.721  0.2044  0.0669 -0.0068
    1DIPC   GL2 9136  23.436  14.722   5.751  0.0610  0.1810 -0.1246
    1DIPC   C1A 9137  23.767  14.990   5.354  0.0683 -0.2459 -0.0364
    1DIPC   D2A 9138  23.923  14.666   5.047 -0.2012  0.2507 -0.0914
    1DIPC   D3A 9139  23.790  14.524   4.669 -0.2305  0.1022  0.2603
    1DIPC   C4A 9140  23.859  14.862   4.382  0.4881 -0.1429  0.0379
    1DIPC   C1B 9141  23.267  14.743   5.365  0.0270  0.3431 -0.3132
    1DIPC   D2B 9142  23.424  14.585   5.019 -0.1121 -0.1973 -0.1936
    1DIPC   D3B 9143  23.252  14.583   4.639  0.0572  0.0037  0.2665
    1DIPC   C4B 9144  23.103  14.172   4.430 -0.1576  0.0746 -0.1940
    1DIPC   NC3 9145   1.121   0.910   7.441  0.0921  0.3168 -0.1110
    1DIPC   PO4 9146   0.944   0.929   6.962 -0.3165 -0.1482  0.0495
    1DIPC   GL1 9147   0.586   0.947   6.580  0.1180 -0.2976  0.0844
    1DIPC   GL2 9148   0.713   0.694   6.407 -0.3517 -0.0454  0.1179
    1DIPC   C1A 9149   0.426   0.988   6.154  0.3348  0.0953 -0.1454
    1DIPC   D2A 9150   0.424   0.986   5.677  0.3056  0.0336  0.0670
    1DIPC   D3A 9151   0.297   0.648   5.569  0.1021  0.0882  0.3045
    1DIPC   C4A 9152   0.287   0.453   5.873  0.0554  0.4035  0.1510
    1DIPC   C1B 9153   0.766   0.727   5.985 -0.4251 -0.1723 -0.1311
    1DIPC   D2B 9154   1.186   0.927   5.894  0.2304 -0.0066 -0.2137
    1DIPC   D3B 9155   0.959   0.989   5.514  0.2742 -0.1284 -0.3370
    1DIPC   C4B 9156   1.011   1.213   5.161 -0.2329  0.0061 -0.2833
    1DIPC   NC3 9157  10.833   1.082   7.634  0.1364  0.0742 -0.0811
    1DIPC   PO4 9158  11.252   1.025   7.505  0.1442  0.1251 -0.0483
    1DIPC   GL1 9159  11.246   1.129   6.985 -0.1622  0.2989 -0.0436
    1DIPC   GL2 9160  11.340   0.865   6.839  0.0500 -0.0682  0.0077
    1DIPC   C1A 9161  11.333   1.205   6.495 -0.0297  0.1081  0.1336
    1DIPC   D2A 9162  11.163   1.637   6.339  0.1587  0.1039 -0.0078
    1DIPC   D3A 9163  10.884   1.555   6.068  0.0935 -0.1641  0.3985
    1DIPC   C4A 9164  10.840   1.050   5.914  0.2782 -0.2263 -0.0412
    1DIPC   C1B 9165  11.558   0.693   6.532 -0.3088  0.2758 -0.2428
    1DIPC   D2B 9166  11.267   0.779   6.150  0.0277 -0.1364  0.1083
    1DIPC   D3B 9167  11.277   1.236   5.975  0.0937 -0.0669  0.1859
    1DIPC   C4B 9168  11.091   1.293   5.549 -0.3900 -0.0234 -0.0871
    1DIPC   NC3 9169  25.810  10.621   6.156 -0.0766  0.1075  0.1288
    1DIPC   PO4 9170  25.414  10.761   6.093  0.1039 -0.0914  0.0117
    1DIPC   GL1 9171  25.227  10.782   5.748 -0.2575  0.0881  0.0486
    1DIPC   GL2 9172  25.094  10.970   5.735 -0.2109  0.0152 -0.2762
    1DIPC   C1A 9173  25.310  10.917   5.313 -0.1012 -0.0761 -0.0242
    1DIPC   D2A 9174  25.396  10.986   4.833 -0.0215  0.3541  0.0834
    1DIPC   D3A 9175  25.745  10.629   4.825  0.0960  0.0799 -0.0695
    1DIPC   C4A 9176  26.016  10.440   4.488  0.0201  0.0738 -0.2158
    1DIPC   C1B 9177  24.991  11.317   5.490  0.2397  0.0474  0.0047
    1DIPC   D2B 9178  24.870  11.521   5.184 -0.2779 -0.0790  0.2017
    1DIPC   D3B 9179  25.097  11.954   5.082 -0.2571  0.0981  0.0968
    1DIPC   C4B 9180  25.507  12.025   5.115 -0.2705 -0.0323  0.0700
    1DIPC   NC3 9181  11.308  11.248   7.377  0.0978  0.0132  0.0680
    1DIPC   PO4 9182  11.250  10.780   7.349  0.0169 -0.3316  0.1559
    1DIPC   GL1 9183  11.077  10.910   7.024  0.0702 -0.0115 -0.0011
    1DIPC   GL2 9184  10.840  11.089   7.054 -0.1725  0.2012  0.1473
    1DIPC   C1A 9185  11.117  10.829   6.622  0.0778 -0.1921 -0.1279
    1DIPC   D2A 9186  11.144  10.859   6.206  0.0938 -0.1555  0.0592
    1DIPC   D3A 9187  10.956  10.719   5.834  0.1663  0.0147  0.2857
    1DIPC   C4A 9188  11.273  10.355   5.648 -0.0452 -0.2668  0.1069
    1DIPC   C1B 9189  10.825  11.252   6.669 -0.1951 -0.1631  0.0884
    1DIPC   D2B 9190  10.753  11.398   6.332 -0.2030  0.3505 -0.0749
    1DIPC   D3B 9191  10.901  11.773   6.202 -0.2749 -0.2403  0.1961
    1DIPC   C4B 9192  10.899  12.194   6.175 -0.1040 -0.0179 -0.0207
    1DIPC   NC3 9193   3.409  18.651   6.350 -0.0895  0.0653  0.2023
    1DIPC   PO4 9194   3.281  18.433   5.951  0.0579 -0.0525  0.3682
    1DIPC   GL1 9195   3.278  18.645   5.509 -0.0125 -0.0813  0.1966
    1DIPC   GL2 9196   3.487  18.930   5.482 -0.0594 -0.0675  0.1557
    1DIPC   C1A 9197   3.090  18.605   5.079 -0.0540  0.0321  0.0448
    1DIPC   D2A 9198   3.154  18.640   4.544 -0.1948 -0.0371  0.1740
    1DIPC   D3A 9199   3.051  18.140   4.375 -0.1411 -0.1270  0.2042
    1DIPC   C4A 9200   3.020  18.164   3.956 -0.5028 -0.0059 -0.0932
    1DIPC   C1B 9201   3.229  19.081   5.128  0.3535  0.1013 -0.0699
    1DIPC   D2B 9202   3.197  19.349   4.769  0.0298 -0.3443 -0.0700
    1DIPC   D3B 9203   2.941  19.618   4.962 -0.0610 -0.1222  0.1082
    1DIPC   C4B 9204   2.850  19.939   4.639 -0.1006 -0.0581 -0.1334
    1DIPC   NC3 9205   5.423  14.417   6.455 -0.0065  0.1128  0.2115
    1DIPC   PO4 9206   5.592  14.019   6.699 -0.3373  0.2264  0.3422
    1DIPC   GL1 9207   5.700  13.914   6.230  0.3721 -0.0329 -0.3771
    1DIPC   GL2 9208   5.884  13.673   6.079  0.2637 -0.0587  0.0734
    1DIPC   C1A 9209   5.632  13.964   5.783  0.2761 -0.1444 -0.0996
    1DIPC   D2A 9210   5.674  14.174   5.480  0.1950 -0.2651  0.2931
    1DIPC   D3A 9211   5.420  14.053   5.100 -0.1268  0.2182  0.3126
    1DIPC   C4A 9212   5.623  14.117   4.710 -0.5052  0.1316  0.1394
    1DIPC   C1B 9213   6.299  13.751   6.048  0.0466  0.0487 -0.1185
    1DIPC   D2B 9214   6.764  13.825   5.876 -0.1179 -0.0190  0.2752
    1DIPC   D3B 9215   6.559  13.633   5.615  0.2056 -0.1018 -0.0555
    1DIPC   C4B 9216   6.715  13.338   5.326 -0.1565  0.0249  0.1130
    1DIPC   NC3 9217  26.693   5.091   5.969 -0.1088  0.1600 -0.1815
    1DIPC   PO4 9218  26.311   5.485   6.052 -0.2045  0.0122 -0.1646
    1DIPC   GL1 9219  26.096   5.549   5.584  0.1036 -0.4736 -0.2517
    1DIPC   GL2 9220  25.881   5.190   5.420  0.0668 -0.2194  0.0039
    1DIPC   C1A 9221  26.157   5.467   5.206 -0.5236 -0.2541 -0.3782
    1DIPC   D2A 9222  26.271   5.570   4.807 -0.1668 -0.2663 -0.1010
    1DIPC   D3A 9223  26.404   5.124   4.939 -0.0952  0.0106 -0.3053
    1DIPC   C4A 9224  26.232   4.737   4.653 -0.1913 -0.0751 -0.0797
    1DIPC   C1B 9225  26.060   4.840   5.249 -0.0166 -0.1441  0.1689
    1DIPC   D2B 9226  26.117   4.474   5.110 -0.1111  0.1672 -0.0554
    1DIPC   D3B 9227  26.323   4.200   4.753  0.0135 -0.0525 -0.0119
    1DIPC   C4B 9228  26.265   4.073   4.223 -0.1478  0.0298 -0.0033
    1DIPC   NC3 9229   3.624   3.071   6.820  0.1433 -0.3233  0.1586
    1DIPC   PO4 9230   3.901   2.974   6.560 -0.1195 -0.3511 -0.1294
    1DIPC   GL1 9231   4.060   2.711   6.176 -0.1482 -0.2938  0.0605
    1DIPC   GL2 9232   4.152   2.386   6.188 -0.1625 -0.1221 -0.1128
    1DIPC   C1A 9233   4.032   2.553   5.722 -0.1576  0.2520 -0.2452
    1DIPC   D2A 9234   4.186   2.238   5.458 -0.1986  0.0093 -0.2366
    1DIPC   D3A 9235   4.354   2.158   4.966  0.0603  0.1830  0.0713
    1DIPC   C4A 9236   3.993   2.121   4.635  0.0174 -0.3584 -0.0071
    1DIPC   C1B 9237   4.013   2.039   5.927 -0.2642 -0.0294 -0.0480
    1DIPC   D2B 9238   3.898   1.755   5.504  0.2523 -0.2421 -0.2770
    1DIPC   D3B 9239   4.229   1.736   5.234 -0.2149  0.0029 -0.2639
    1DIPC   C4B 9240   4.316   1.405   5.114  0.1810 -0.0656  0.0691
    1DIPC   NC3 9241   0.471  15.403   6.720 -0.0458 -0.0740  0.0520
    1DIPC   PO4 9242   0.177  15.393   6.355  0.0586 -0.2139  0.1392
    1DIPC   GL1 9243   0.174  15.289   5.835  0.0204 -0.2653 -0.1734
    1DIPC   GL2 9244  -0.099  15.467   5.668 -0.1179  0.3277 -0.0178
    1DIPC   C1A 9245   0.217  15.216   5.388  0.0062 -0.0662 -0.1774
    1DIPC   D2A 9246   0.099  15.196   4.933  0.0291 -0.0109  0.1329
    1DIPC   D3A 9247   0.456  15.101   4.791 -0.0787  0.0173 -0.2831
    1DIPC   C4A 9248   0.618  15.003   4.488  0.1280 -0.2188  0.0527
    1DIPC   C1B 9249  -0.489  15.588   5.434  0.2359 -0.0607 -0.0587
    1DIPC   D2B 9250  -0.815  15.955   5.524 -0.2862 -0.0510 -0.3095
    1DIPC   D3B 9251  -1.029  15.982   5.188  0.2091  0.1913  0.2666
    1DIPC   C4B 9252  -1.497  15.955   5.098  0.0298 -0.1733  0.1121
    1DIPC   NC3 9253   0.142  27.972   6.996  0.1894 -0.0106 -0.2226
    1DIPC   PO4 9254   0.181  27.886   6.686  0.0036  0.0530 -0.1653
    1DIPC   GL1 9255   0.488  27.762   6.398 -0.2401  0.3228  0.3969
    1DIPC   GL2 9256   0.866  27.902   6.445  0.1155  0.2453  0.2400
    1DIPC   C1A 9257   0.763  27.432   6.255  0.1388  0.1581 -0.0926
    1DIPC   D2A 9258   0.686  27.135   6.029 -0.0193  0.0257 -0.2385
    1DIPC   D3A 9259   0.756  27.188   5.570 -0.3762  0.0788  0.0242
    1DIPC   C4A 9260   1.038  27.479   5.199 -0.0630  0.0318 -0.0827
    1DIPC   C1B 9261   0.789  27.930   5.969  0.0007  0.1008 -0.0544
    1DIPC   D2B 9262   0.598  27.633   5.798  0.1838 -0.0758 -0.1756
    1DIPC   D3B 9263   1.100  27.546   5.736  0.2339 -0.1742  0.0992
    1DIPC   C4B 9264   1.169  27.174   5.940 -0.1348 -0.0075 -0.0325
    1DIPC   NC3 9265  12.886   5.514   7.710  0.0800  0.0062  0.1925
    1DIPC   PO4 9266  13.306   5.235   7.854 -0.2262 -0.0748  0.0528
    1DIPC   GL1 9267  13.207   5.281   7.417 -0.1122  0.0267 -0.0431
    1DIPC   GL2 9268  13.333   5.049   7.151  0.1467  0.2110 -0.1587
    1DIPC   C1A 9269  13.105   5.516   7.098  0.2549 -0.0067  0.2883
    1DIPC   D2A 9270  13.071   5.360   6.670  0.2165 -0.0157  0.3622
    1DIPC   D3A 9271  12.885   5.674   6.373 -0.2001  0.2870 -0.0694
    1DIPC   C4A 9272  12.552   5.633   6.037  0.2084 -0.1625  0.1460
    1DIPC   C1B 9273  13.369   4.966   6.674 -0.0192 -0.2226  0.4029
    1DIPC   D2B 9274  13.694   4.922   6.372 -0.2188 -0.2802 -0.0710
    1DIPC   D3B 9275  13.484   4.556   6.060  0.2613  0.2468  0.0487
    1DIPC   C4B 9276  13.246   4.676   5.762  0.0989 -0.0225  0.0217
    1DIPC   NC3 9277  22.483   7.324   6.629  0.1485  0.3186  0.0973
    1DIPC   PO4 9278  22.436   7.696   6.515  0.1750  0.2509 -0.2752
    1DIPC   GL1 9279  22.362   7.839   6.079  0.4341  0.1839  0.0750
    1DIPC   GL2 9280  22.668   7.770   5.981 -0.2192  0.0689  0.0471
    1DIPC   C1A 9281  22.307   8.027   5.635 -0.1466 -0.0638 -0.0206
    1DIPC   D2A 9282  22.619   8.139   5.378 -0.0268 -0.2199 -0.0585
    1DIPC   D3A 9283  22.558   7.855   5.101 -0.2132  0.0579 -0.1140
    1DIPC   C4A 9284  22.593   7.902   4.607 -0.1924 -0.3108  0.3035
    1DIPC   C1B 9285  22.636   8.342   5.884  0.3039  0.0579  0.1359
    1DIPC   D2B 9286  22.724   8.705   5.895  0.1948  0.0089  0.1306
    1DIPC   D3B 9287  22.305   8.824   5.767  0.0462 -0.0507 -0.2575
    1DIPC   C4B 9288  22.340   8.694   5.249  0.1099  0.1033  0.0747
    1DIPC   NC3 9289   5.031   8.410   6.647  0.2105 -0.3084  0.5875
    1DIPC   PO4 9290   4.911   8.872   6.406  0.3293  0.0300 -0.1348
    1DIPC   GL1 9291   4.759   9.114   6.051 -0.1021 -0.2921 -0.2841
    1DIPC   GL2 9292   4.796   9.518   6.116  0.3200 -0.0319 -0.0613
    1DIPC   C1A 9293   4.759   9.251   5.645 -0.0252 -0.1261  0.0792
    1DIPC   D2A 9294   4.499   9.439   5.424 -0.1693 -0.3472 -0.1021
    1DIPC   D3A 9295   4.459   9.152   5.060 -0.0691  0.1408 -0.2003
    1DIPC   C4A 9296   4.856   8.963   4.976  0.2751  0.1645 -0.0328
    1DIPC   C1B 9297   4.384   9.578   5.876 -0.0979  0.0300 -0.0641
    1DIPC   D2B 9298   4.019   9.827   5.960 -0.2739  0.0699 -0.0987
    1DIPC   D3B 9299   3.615  10.061   6.142 -0.2387  0.0039  0.2429
    1DIPC   C4B 9300   3.409  10.385   5.885  0.0040 -0.2534  0.1764
    1DIPC   NC3 9301   3.191   7.981   6.670 -0.2023 -0.0397 -0.0947
    1DIPC   PO4 9302   3.182   8.358   6.577  0.3012  0.0365 -0.0221
    1DIPC   GL1 9303   3.373   8.547   6.231 -0.0910  0.0535 -0.2091
    1DIPC   GL2 9304   3.115   8.453   6.075 -0.1540  0.1570  0.2425
    1DIPC   C1A 9305   3.592   8.368   5.957  0.4192  0.0365  0.2242
    1DIPC   D2A 9306   3.989   8.174   5.907  0.1532 -0.2680 -0.0514
    1DIPC   D3A 9307   3.866   8.137   5.486  0.1425 -0.2035  0.2247
    1DIPC   C4A 9308   3.555   8.353   5.422 -0.0716  0.1661 -0.2938
    1DIPC   C1B 9309   3.113   8.507   5.654 -0.0797 -0.0783  0.4049
    1DIPC   D2B 9310   3.175   8.583   5.189 -0.0189  0.1450 -0.1010
    1DIPC   D3B 9311   2.983   8.274   5.016  0.1320 -0.1013  0.1164
    1DIPC   C4B 9312   2.638   7.997   4.933  0.0731 -0.3208 -0.0986
    1DIPC   NC3 9313   8.697  26.376   7.168  0.1755 -0.1715  0.1184
    1DIPC   PO4 9314   8.569  26.765   7.043 -0.2415  0.2045 -0.0552
    1DIPC   GL1 9315   8.560  26.998   6.675 -0.2017  0.0059 -0.0790
    1DIPC   GL2 9316   8.781  26.914   6.417  0.1316  0.1884  0.0680
    1DIPC   C1A 9317   8.646  27.324   6.330  0.0640 -0.0170  0.3582
    1DIPC   D2A 9318   8.799  27.475   6.035 -0.2315  0.1036 -0.0219
    1DIPC   D3A 9319   8.775  27.712   5.637  0.2811  0.0167 -0.0347
    1DIPC   C4A 9320   8.376  27.766   5.446 -0.1173 -0.0012  0.0227
    1DIPC   C1B 9321   9.110  26.958   6.132 -0.2511  0.0077 -0.0239
    1DIPC   D2B 9322   9.360  27.387   6.098  0.1263 -0.0207 -0.1782
    1DIPC   D3B 9323   9.315  27.383   5.749  0.0174  0.4870 -0.2598
    1DIPC   C4B 9324   8.990  27.113   5.643  0.4011 -0.0973  0.0512
    1DIPC   NC3 9325  21.967  24.472   7.010 -0.0915 -0.1701 -0.1502
    1DIPC   PO4 9326  22.064  24.717   6.628  0.3352 -0.3837 -0.4858
    1DIPC   GL1 9327  22.322  24.668   6.380 -0.0128  0.0506 -0.1713
    1DIPC   GL2 9328  22.113  24.811   6.141 -0.0923  0.1968  0.0635
    1DIPC   C1A 9329  22.638  24.899   6.137  0.0176  0.2491  0.3161
    1DIPC   D2A 9330  22.872  25.170   6.047  0.0245  0.1194  0.1938
    1DIPC   D3A 9331  23.366  25.285   5.948  0.0888  0.2881  0.1585
    1DIPC   C4A 9332  23.588  25.609   5.681  0.0057 -0.1757  0.1663
    1DIPC   C1B 9333  21.814  24.784   5.826 -0.0525 -0.1808  0.1488
    1DIPC   D2B 9334  21.511  24.548   5.411 -0.0135 -0.0109  0.0373
    1DIPC   D3B 9335  21.527  24.708   5.017  0.1164  0.2407 -0.3557
    1DIPC   C4B 9336  21.723  24.343   4.653 -0.0402 -0.3364 -0.0646
    1DIPC   NC3 9337  15.159   6.154   8.404  0.0284 -0.0032 -0.0549
    1DIPC   PO4 9338  15.162   6.250   8.010  0.2194 -0.1671  0.0665
    1DIPC   GL1 9339  15.027   6.457   7.590 -0.1940 -0.2507 -0.1344
    1DIPC   GL2 9340  14.696   6.378   7.558 -0.0095  0.0652  0.0208
    1DIPC   C1A 9341  14.903   6.763   7.236 -0.1094  0.2954 -0.1989
    1DIPC   D2A 9342  15.157   6.885   6.951 -0.0416  0.4544  0.1651
    1DIPC   D3A 9343  15.513   6.780   6.797 -0.2301 -0.3187 -0.0182
    1DIPC   C4A 9344  15.584   6.622   6.404 -0.0793  0.1391 -0.2924
    1DIPC   C1B 9345  14.883   6.139   7.190  0.1600 -0.1632 -0.2479
    1DIPC   D2B 9346  15.130   5.927   6.876  0.3074 -0.0297 -0.1166
    1DIPC   D3B 9347  14.736   6.005   6.636  0.1134  0.0459  0.2153
    1DIPC   C4B 9348  14.811   6.187   6.234  0.1985 -0.2756 -0.0861
    1DIPC   NC3 9349   7.820  19.570   6.302 -0.0116  0.0897  0.0849
    1DIPC   PO4 9350   7.841  19.126   6.161  0.2316 -0.2704  0.0845
    1DIPC   GL1 9351   7.854  19.054   5.756  0.0551  0.1696 -0.0490
    1DIPC   GL2 9352   8.218  18.817   5.711  0.1997 -0.1690 -0.0518
    1DIPC   C1A 9353   7.941  19.101   5.291 -0.3485 -0.0668 -0.3086
    1DIPC   D2A 9354   8.230  19.081   4.984  0.0679 -0.2321  0.1181
    1DIPC   D3A 9355   7.867  19.095   4.780  0.2617  0.1391 -0.1789
    1DIPC   C4A 9356   7.821  19.356   4.355  0.3135 -0.0268  0.0645
    1DIPC   C1B 9357   8.468  18.830   5.362 -0.1927 -0.0247  0.2346
    1DIPC   D2B 9358   8.396  18.503   4.968  0.1527 -0.1151 -0.0017
    1DIPC   D3B 9359   8.234  18.156   5.087 -0.0650 -0.0958  0.2677
    1DIPC   C4B 9360   7.926  17.937   4.879 -0.0182  0.2401  0.1827
    1DIPC   NC3 9361   5.696  24.688   6.178  0.1336 -0.2528  0.2657
    1DIPC   PO4 9362   5.362  24.993   6.289 -0.0733 -0.1465 -0.0404
    1DIPC   GL1 9363   5.434  25.061   5.871  0.1041  0.2387  0.2578
    1DIPC   GL2 9364   5.253  24.798   5.750 -0.0933  0.4253 -0.3304
    1DIPC   C1A 9365   5.606  25.115   5.416  0.1467  0.2137  0.1317
    1DIPC   D2A 9366   5.927  25.415   5.142  0.0156 -0.1372  0.1292
    1DIPC   D3A 9367   5.469  25.433   4.971 -0.0676 -0.0640  0.3535
    1DIPC   C4A 9368   5.476  25.252   4.569 -0.1017  0.0849 -0.0826
    1DIPC   C1B 9369   5.388  24.660   5.425 -0.0202  0.1176 -0.0078
    1DIPC   D2B 9370   5.578  24.300   5.226 -0.2045  0.0775 -0.0685
    1DIPC   D3B 9371   5.858  24.304   4.921 -0.1599  0.0294 -0.2501
    1DIPC   C4B 9372   6.111  24.007   4.744  0.2388 -0.2712  0.0684
    1DIPC   NC3 9373   1.230  13.458   6.239 -0.0397  0.0026 -0.1242
    1DIPC   PO4 9374   0.718  13.417   6.167 -0.1389  0.1185  0.2293
    1DIPC   GL1 9375   0.613  13.460   5.796  0.0429  0.1582 -0.1453
    1DIPC   GL2 9376   0.587  13.194   5.593 -0.1018 -0.2384  0.2351
    1DIPC   C1A 9377   0.911  13.710   5.511  0.4267 -0.2241 -0.0387
    1DIPC   D2A 9378   0.828  14.219   5.335 -0.2157  0.0134  0.1869
    1DIPC   D3A 9379   0.774  14.613   5.556  0.0104 -0.0729 -0.1443
    1DIPC   C4A 9380   0.604  14.936   5.217  0.1308 -0.2749 -0.1908
    1DIPC   C1B 9381   0.677  13.123   5.263 -0.1392  0.0528 -0.1416
    1DIPC   D2B 9382   0.639  13.285   4.849  0.0435 -0.0671  0.0857
    1DIPC   D3B 9383   0.995  13.331   4.628 -0.0366 -0.1001  0.2414
    1DIPC   C4B 9384   1.379  13.472   4.638 -0.1027  0.5047  0.0010
    1DIPC   NC3 9385  11.043  24.467   6.282  0.1058 -0.1429 -0.4624
    1DIPC   PO4 9386  10.647  24.800   6.110  0.0920  0.0024 -0.0644
    1DIPC   GL1 9387  10.522  24.887   5.648 -0.0526  0.1076 -0.0150
    1DIPC   GL2 9388  10.107  24.906   5.656 -0.1473  0.2444  0.0207
    1DIPC   C1A 9389  10.634  24.554   5.408 -0.1139 -0.2414  0.0930
    1DIPC   D2A 9390  10.704  24.074   5.429  0.1475 -0.3014 -0.0553
    1DIPC   D3A 9391  10.677  24.227   4.975 -0.0996 -0.1359 -0.1145
    1DIPC   C4A 9392  10.678  23.826   4.780 -0.1600  0.0990 -0.0708
    1DIPC   C1B 9393  10.037  24.540   5.354 -0.4311 -0.2096  0.2233
    1DIPC   D2B 9394  10.223  24.205   5.336 -0.4102  0.1555 -0.0314
    1DIPC   D3B 9395  10.183  23.980   4.936  0.1530 -0.5695  0.3441
    1DIPC   C4B 9396  10.288  24.038   4.521  0.2025 -0.0914 -0.0281
    1DIPC   NC3 9397  21.105  25.159   6.385  0.3791 -0.0227  0.0971
    1DIPC   PO4 9398  21.060  24.786   6.293  0.0379  0.1909  0.0801
    1DIPC   GL1 9399  21.378  24.575   5.998 -0.2626 -0.0981  0.1631
    1DIPC   GL2 9400  21.626  24.448   6.160  0.1626 -0.2998 -0.1652
    1DIPC   C1A 9401  21.341  24.153   5.834  0.2254 -0.0479  0.0692
    1DIPC   D2A 9402  21.161  23.914   5.506  0.1500 -0.2352  0.1013
    1DIPC   D3A 9403  21.625  23.994   5.462 -0.0385  0.0293  0.2190
    1DIPC   C4A 9404  21.746  24.198   5.130  0.2172 -0.1594  0.1299
    1DIPC   C1B 9405  21.883  24.292   5.769  0.1867  0.0003 -0.0847
    1DIPC   D2B 9406  22.136  24.058   5.595 -0.1757 -0.3234 -0.3267
    1DIPC   D3B 9407  22.281  23.927   6.011  0.0493 -0.2323  0.2186
    1DIPC   C4B 9408  22.148  24.291   6.177  0.0953 -0.2607  0.0321
    1DIPC   NC3 9409  21.888  19.580   6.425  0.0384 -0.4016 -0.0265
    1DIPC   PO4 9410  22.197  19.875   6.547  0.1697 -0.3725  0.1982
    1DIPC   GL1 9411  22.166  20.026   6.115 -0.1620  0.0148 -0.1043
    1DIPC   GL2 9412  21.797  20.049   6.200  0.1097 -0.0602 -0.0002
    1DIPC   C1A 9413  22.420  19.836   5.723 -0.0666  0.0282  0.1201
    1DIPC   D2A 9414  22.914  19.816   5.561 -0.1787  0.2173  0.0644
    1DIPC   D3A 9415  23.037  19.874   5.978  0.3543  0.1075 -0.2146
    1DIPC   C4A 9416  23.321  19.629   6.284  0.2210  0.0211 -0.0381
    1DIPC   C1B 9417  21.876  19.824   5.786 -0.1974  0.0342 -0.0927
    1DIPC   D2B 9418  21.944  19.640   5.234 -0.0375  0.2194  0.3340
    1DIPC   D3B 9419  22.296  19.761   5.174 -0.0927 -0.0049  0.0521
    1DIPC   C4B 9420  22.419  19.499   4.830  0.0938  0.2083  0.4327
    1DIPC   NC3 9421  25.991   2.090   6.374  0.0511 -0.1073 -0.0453
    1DIPC   PO4 9422  26.123   1.702   6.334 -0.0125 -0.0053  0.2038
    1DIPC   GL1 9423  25.961   1.472   6.021 -0.1849 -0.2264 -0.0041
    1DIPC   GL2 9424  25.596   1.383   5.856 -0.0040  0.3152  0.4022
    1DIPC   C1A 9425  26.004   1.379   5.529 -0.0853  0.1643 -0.0064
    1DIPC   D2A 9426  26.166   1.417   5.144 -0.1580  0.1781 -0.0213
    1DIPC   D3A 9427  25.972   1.176   4.854 -0.0951  0.0927 -0.1151
    1DIPC   C4A 9428  25.999   1.230   4.382  0.1950  0.0120 -0.3065
    1DIPC   C1B 9429  25.495   0.988   5.693  0.0860  0.0532  0.0677
    1DIPC   D2B 9430  25.279   0.472   5.685 -0.0916  0.0646  0.2691
    1DIPC   D3B 9431  25.350   0.767   5.284  0.3389 -0.4229  0.0934
    1DIPC   C4B 9432  25.601   1.167   5.239 -0.2133 -0.2146  0.1469
    1DIPC   NC3 9433  26.036   5.141   5.994  0.0572  0.5037  0.1512
    1DIPC   PO4 9434  25.858   4.801   6.313  0.0169 -0.0070 -0.0547
    1DIPC   GL1 9435  25.882   4.579   5.931  0.0254 -0.0254  0.3059
    1DIPC   GL2 9436  25.790   4.756   5.702  0.2082 -0.0826 -0.0017
    1DIPC   C1A 9437  26.214   4.476   5.611  0.0485  0.0941 -0.1548
    1DIPC   D2A 9438  26.490   4.721   5.459 -0.1342  0.0520 -0.1533
    1DIPC   D3A 9439  26.807   5.038   5.475  0.1116  0.1702 -0.3167
    1DIPC   C4A 9440  26.922   5.243   5.123  0.0557  0.2752 -0.1223
    1DIPC   C1B 9441  25.299   4.831   5.580 -0.1573 -0.0404  0.0940
    1DIPC   D2B 9442  24.972   4.715   5.267 -0.3891 -0.1906 -0.2018
    1DIPC   D3B 9443  25.200   4.505   4.953 -0.0125  0.2047 -0.2668
    1DIPC   C4B 9444  25.401   4.073   5.083 -0.0902 -0.1956  0.2139
    1DIPC   NC3 9445   7.741   8.925   7.117 -0.0687  0.0270  0.0504
    1DIPC   PO4 9446   7.489   8.889   6.800 -0.4243 -0.2571  0.0704
    1DIPC   GL1 9447   7.650   8.882   6.460 -0.0315 -0.1691  0.0195
    1DIPC   GL2 9448   7.808   9.145   6.459  0.1270  0.3445  0.1667
    1DIPC   C1A 9449   7.941   8.828   6.034 -0.1017  0.0364  0.0241
    1DIPC   D2A 9450   8.176   9.050   5.742  0.0618 -0.2534  0.1370
    1DIPC   D3A 9451   8.129   9.419   5.982  0.2921  0.1441  0.0911
    1DIPC   C4A 9452   8.378   9.746   5.902  0.0811  0.0447  0.2902
    1DIPC   C1B 9453   7.625   9.546   6.484  0.0798 -0.0858  0.1189
    1DIPC   D2B 9454   7.338   9.750   6.562 -0.1458 -0.1014  0.0000
    1DIPC   D3B 9455   7.143   9.737   6.150  0.2626  0.3058 -0.3277
    1DIPC   C4B 9456   7.376   9.963   5.777 -0.2204  0.1676  0.2218
    1DIPC   NC3 9457   5.884   6.988   6.661  0.2621  0.0836  0.1425
    1DIPC   PO4 9458   5.411   6.742   6.836  0.3874  0.0985 -0.1358
    1DIPC   GL1 9459   5.255   6.410   6.554  0.1856 -0.1618 -0.3243
    1DIPC   GL2 9460   5.519   6.550   6.342  0.1048 -0.1816 -0.4708
    1DIPC   C1A 9461   5.164   6.060   6.224  0.1805 -0.0696 -0.0438
    1DIPC   D2A 9462   5.038   5.737   6.024  0.1823  0.3675  0.2197
    1DIPC   D3A 9463   5.218   5.533   5.610 -0.1365  0.1747  0.1388
    1DIPC   C4A 9464   4.826   5.342   5.306 -0.0946  0.0928  0.0929
    1DIPC   C1B 9465   5.506   6.372   5.934  0.2479 -0.2852 -0.1520
    1DIPC   D2B 9466   5.907   6.097   5.788  0.0884  0.0637  0.0945
    1DIPC   D3B 9467   5.879   6.345   5.455  0.1283  0.3121  0.0258
    1DIPC   C4B 9468   5.810   6.701   5.444  0.1656 -0.0401  0.0511
    1DIPC   NC3 9469  28.397   9.926   5.692 -0.2623  0.1427  0.0338
    1DIPC   PO4 9470  28.614   9.717   5.963  0.0969 -0.1070  0.1756
    1DIPC   GL1 9471  28.672   9.450   5.508 -0.1966  0.0130  0.0896
    1DIPC   GL2 9472  28.498   9.590   5.237 -0.0537 -0.0179  0.1182
    1DIPC   C1A 9473  28.632   9.064   5.337  0.3005  0.0888 -0.2307
    1DIPC   D2A 9474  28.381   8.651   5.164  0.0416 -0.2997  0.0272
    1DIPC   D3A 9475  28.466   8.808   4.755 -0.0688  0.3024  0.0203
    1DIPC   C4A 9476  28.132   8.841   4.510  0.0194 -0.1738 -0.2087
    1DIPC   C1B 9477  28.668   9.296   4.921 -0.0909  0.2115  0.2876
    1DIPC   D2B 9478  28.533   9.188   4.482 -0.2858 -0.0635 -0.2873
    1DIPC   D3B 9479  28.857   9.126   4.230  0.2569  0.0661 -0.5190
    1DIPC   C4B 9480  28.883   8.703   4.165 -0.2674 -0.0152  0.2662
    1DIPC   NC3 9481   4.056  13.960   7.085 -0.1769 -0.3378 -0.0017
    1DIPC   PO4 9482   4.166  13.950   6.668  0.0214 -0.1141  0.1148
    1DIPC   GL1 9483   4.099  14.127   6.234  0.0009 -0.1737  0.0860
    1DIPC   GL2 9484   4.420  14.211   5.945 -0.0084  0.0382  0.1020
    1DIPC   C1A 9485   3.985  14.014   5.854 -0.0622 -0.3397  0.0136
    1DIPC   D2A 9486   3.760  14.007   5.541  0.2187 -0.0910 -0.2725
    1DIPC   D3A 9487   3.896  14.151   5.190 -0.3594 -0.1649  0.2551
    1DIPC   C4A 9488   4.308  13.950   5.102 -0.0540  0.0934  0.0893
    1DIPC   C1B 9489   4.826  14.312   5.668 -0.0361  0.2513  0.1616
    1DIPC   D2B 9490   5.181  14.319   5.440 -0.1745 -0.1481  0.0814
    1DIPC   D3B 9491   5.148  13.830   5.476  0.1637  0.0223  0.0525
    1DIPC   C4B 9492   5.257  13.482   5.000  0.0496  0.0330 -0.6550
    1DIPC   NC3 9493   3.704  11.668   6.161 -0.2324 -0.0744 -0.1621
    1DIPC   PO4 9494   3.642  12.036   5.942  0.0518 -0.2028 -0.0561
    1DIPC   GL1 9495   3.785  11.881   5.515 -0.0536 -0.2135 -0.0349
    1DIPC   GL2 9496   3.944  11.660   5.677 -0.0755  0.3142  0.0741
    1DIPC   C1A 9497   3.977  11.852   5.177  0.1696 -0.1372 -0.0327
    1DIPC   D2A 9498   4.296  11.950   4.806  0.2327 -0.2084 -0.1682
    1DIPC   D3A 9499   4.277  11.602   4.912  0.0353 -0.1628 -0.1849
    1DIPC   C4A 9500   4.149  11.383   4.640  0.3815 -0.0358  0.0092
    1DIPC   C1B 9501   4.345  11.618   5.410 -0.0159  0.1656 -0.3198
    1DIPC   D2B 9502   4.685  11.840   5.119  0.1584 -0.0814 -0.4247
    1DIPC   D3B 9503   4.785  11.677   4.756 -0.2497  0.0532 -0.1473
    1DIPC   C4B 9504   4.491  11.734   4.389  0.4241  0.0923  0.0072
    1DIPC   NC3 9505   3.204  11.013   6.459 -0.1345 -0.1201  0.0000
    1DIPC   PO4 9506   3.274  11.392   6.354 -0.4474 -0.0279  0.1567
    1DIPC   GL1 9507   3.223  11.214   5.840  0.0871 -0.0369 -0.1495
    1DIPC   GL2 9508   3.480  11.365   5.845  0.0404 -0.0222 -0.0212
    1DIPC   C1A 9509   3.275  10.852   5.531  0.4272  0.0328 -0.0215
    1DIPC   D2A 9510   3.070  10.466   5.550  0.1802  0.1419  0.0593
    1DIPC   D3A 9511   2.729  10.295   5.718 -0.0051  0.1820  0.0559
    1DIPC   C4A 9512   2.617  10.439   6.096 -0.3501 -0.2841  0.0664
    1DIPC   C1B 9513   3.423  11.517   5.542 -0.0962 -0.0561  0.0186
    1DIPC   D2B 9514   3.471  11.687   5.161 -0.0148  0.2044  0.0716
    1DIPC   D3B 9515   3.162  11.708   4.833 -0.0763 -0.1059  0.1292
    1DIPC   C4B 9516   2.898  11.385   4.572 -0.0932  0.1572 -0.0627
    1DIPC   NC3 9517   7.119  17.485   6.152 -0.0270 -0.0353 -0.1377
    1DIPC   PO4 9518   7.360  17.750   6.455  0.1942 -0.0909  0.2622
    1DIPC   GL1 9519   7.603  17.646   6.058 -0.2878 -0.1020 -0.1477
    1DIPC   GL2 9520   7.419  17.894   5.916  0.0260 -0.1023  0.2294
    1DIPC   C1A 9521   7.716  17.552   5.637 -0.2080 -0.0305 -0.0999
    1DIPC   D2A 9522   7.970  17.603   5.348 -0.2121 -0.0171  0.0170
    1DIPC   D3A 9523   7.889  17.968   5.395 -0.0579 -0.1005 -0.0310
    1DIPC   C4A 9524   8.183  17.945   5.716 -0.3528  0.2863  0.2601
    1DIPC   C1B 9525   7.348  17.923   5.510 -0.0702 -0.0205  0.1484
    1DIPC   D2B 9526   7.548  17.684   5.089  0.1334  0.2268  0.0126
    1DIPC   D3B 9527   7.233  17.671   4.736 -0.0894 -0.2059  0.0191
    1DIPC   C4B 9528   6.792  17.790   4.661  0.1516  0.3262 -0.0946
    1DIPC   NC3 9529   9.671   9.165   7.558 -0.1968  0.0520  0.1503
    1DIPC   PO4 9530   9.257   8.884   7.440  0.1017  0.5454  0.2295
    1DIPC   GL1 9531   9.348   8.479   7.256 -0.1143  0.0077  0.1219
    1DIPC   GL2 9532   9.438   8.574   7.002  0.5414 -0.2068 -0.1068
    1DIPC   C1A 9533   9.067   8.258   6.886  0.0604 -0.1207 -0.3111
    1DIPC   D2A 9534   9.141   8.207   6.434  0.2317 -0.1883 -0.0760
    1DIPC   D3A 9535   8.686   8.354   6.589  0.1212  0.0153 -0.0412
    1DIPC   C4A 9536   8.592   8.662   6.820 -0.1616 -0.0028 -0.3347
    1DIPC   C1B 9537   9.572   8.562   6.565  0.0210  0.1429 -0.1420
    1DIPC   D2B 9538   9.446   8.743   6.157  0.1412 -0.1658 -0.0816
    1DIPC   D3B 9539   9.320   8.367   5.798 -0.3554 -0.0217 -0.1185
    1DIPC   C4B 9540   9.081   8.470   5.355 -0.2795  0.2863 -0.0713
    1DIPC   NC3 9541  21.662  18.789   7.139  0.3591 -0.1596  0.1468
    1DIPC   PO4 9542  21.576  19.175   6.800  0.1228  0.3148  0.4218
    1DIPC   GL1 9543  21.317  19.441   6.633 -0.1624  0.3738  0.0024
    1DIPC   GL2 9544  21.120  19.405   6.390 -0.0238  0.0912 -0.1613
    1DIPC   C1A 9545  21.305  19.806   6.303 -0.0756 -0.1177  0.2560
    1DIPC   D2A 9546  21.408  20.017   5.874  0.2211  0.0601  0.2580
    1DIPC   D3A 9547  21.251  19.899   5.460 -0.1581 -0.0893  0.0657
    1DIPC   C4A 9548  21.173  20.332   5.314  0.1946 -0.1824  0.1167
    1DIPC   C1B 9549  20.651  19.292   6.453  0.0945  0.0028 -0.0756
    1DIPC   D2B 9550  20.299  19.440   6.157  0.0211  0.3698 -0.2037
    1DIPC   D3B 9551  20.210  19.198   5.803  0.2361  0.0833  0.1067
    1DIPC   C4B 9552  20.383  18.876   5.615  0.2709 -0.0092 -0.1791
    1DIPC   NC3 9553  26.308   8.718   5.852  0.2250  0.2374 -0.0418
    1DIPC   PO4 9554  26.487   9.093   5.587  0.0087  0.2359  0.0968
    1DIPC   GL1 9555  26.665   9.276   5.227  0.1522 -0.4075 -0.0501
    1DIPC   GL2 9556  26.458   9.138   5.034 -0.4152 -0.0288 -0.3601
    1DIPC   C1A 9557  26.820   9.500   4.761  0.0111  0.0556  0.1859
    1DIPC   D2A 9558  26.908   9.781   4.337 -0.3791 -0.2131  0.0698
    1DIPC   D3A 9559  27.158  10.132   4.403 -0.2259  0.0561  0.1285
    1DIPC   C4A 9560  27.187  10.465   4.041 -0.3023 -0.1394 -0.1449
    1DIPC   C1B 9561  26.600   9.082   4.570  0.1442 -0.2706 -0.2134
    1DIPC   D2B 9562  26.982   9.215   4.388  0.2171 -0.0740  0.0485
    1DIPC   D3B 9563  26.955   9.465   3.956 -0.1024  0.1247 -0.0976
    1DIPC   C4B 9564  26.771   9.531   3.655 -0.3964 -0.0166  0.2208
    1DIPC   NC3 9565   0.526  18.515   5.595 -0.1029 -0.0027  0.0859
    1DIPC   PO4 9566   0.898  18.707   5.748  0.1098  0.3256  0.2862
    1DIPC   GL1 9567   0.786  19.011   5.524  0.1536  0.1745 -0.3471
    1DIPC   GL2 9568   0.950  18.960   5.221 -0.1571  0.1290 -0.2339
    1DIPC   C1A 9569   0.434  19.053   5.197 -0.2650 -0.0473  0.0487
    1DIPC   D2A 9570   0.486  18.603   4.954  0.0206  0.0523 -0.1581
    1DIPC   D3A 9571   0.222  18.785   4.648 -0.0186 -0.1445 -0.3569
    1DIPC   C4A 9572   0.447  19.087   4.445  0.0936  0.0241 -0.1159
    1DIPC   C1B 9573   0.848  18.877   4.752 -0.3128  0.1499 -0.1485
    1DIPC   D2B 9574   0.838  18.637   4.465 -0.0282  0.0763 -0.0722
    1DIPC   D3B 9575   1.121  18.490   4.146 -0.4489  0.1572 -0.3901
    1DIPC   C4B 9576   1.127  18.381   3.659 -0.2722 -0.0757  0.0898
    1DIPC   NC3 9577   6.555  19.738   6.479  0.0088 -0.3729 -0.1944
    1DIPC   PO4 9578   6.323  19.335   6.353 -0.1176  0.2053  0.0890
    1DIPC   GL1 9579   6.441  19.472   6.001  0.0611 -0.0699  0.2574
    1DIPC   GL2 9580   6.781  19.408   5.894 -0.6796 -0.0771  0.1548
    1DIPC   C1A 9581   6.423  19.762   5.655 -0.3419  0.0543 -0.1036
    1DIPC   D2A 9582   6.459  19.896   5.202 -0.0050  0.3463 -0.0568
    1DIPC   D3A 9583   6.739  19.924   4.830 -0.1793  0.1054 -0.1264
    1DIPC   C4A 9584   7.182  19.963   5.044 -0.0114  0.2604 -0.1264
    1DIPC   C1B 9585   6.668  19.272   5.549  0.1488  0.1761  0.0231
    1DIPC   D2B 9586   6.329  19.106   5.341 -0.2685 -0.1411 -0.1223
    1DIPC   D3B 9587   6.628  18.963   5.067 -0.2097 -0.2945 -0.2413
    1DIPC   C4B 9588   6.730  18.605   4.989 -0.3847 -0.0000  0.1283
    1DIPC   NC3 9589  17.859   2.233   7.137 -0.1807 -0.0493 -0.0056
    1DIPC   PO4 9590  18.221   2.114   6.887  0.0273  0.0820  0.1304
    1DIPC   GL1 9591  18.357   2.005   6.439  0.3479  0.3849 -0.2645
    1DIPC   GL2 9592  18.117   2.149   6.322  0.0619 -0.0118  0.1882
    1DIPC   C1A 9593  18.359   1.996   5.975  0.1259  0.0317  0.2367
    1DIPC   D2A 9594  18.346   1.827   5.625  0.0890 -0.0081  0.1318
    1DIPC   D3A 9595  17.965   1.857   5.509 -0.0273  0.0612  0.1478
    1DIPC   C4A 9596  17.889   1.890   5.094  0.2397 -0.0587 -0.0436
    1DIPC   C1B 9597  18.086   2.544   6.209 -0.0516 -0.0247 -0.2359
    1DIPC   D2B 9598  18.379   2.925   6.270 -0.3107  0.3192  0.2215
    1DIPC   D3B 9599  18.691   2.899   5.852  0.1879  0.0014 -0.0868
    1DIPC   C4B 9600  18.871   3.205   5.630  0.1898  0.0861  0.0716
    1DIPC   NC3 9601   0.836  28.358   7.159 -0.0921  0.1030  0.1541
    1DIPC   PO4 9602   0.615  28.077   6.861 -0.2026 -0.2020  0.0576
    1DIPC   GL1 9603   0.358  28.266   6.501  0.0912 -0.0308 -0.0380
    1DIPC   GL2 9604   0.551  28.314   6.242 -0.1081  0.0041  0.0053
    1DIPC   C1A 9605   0.024  28.273   6.226 -0.0452 -0.2833 -0.0193
    1DIPC   D2A 9606  -0.184  28.181   5.863 -0.0755  0.1664  0.1378
    1DIPC   D3A 9607  -0.066  27.959   5.548  0.1581  0.1215 -0.0936
    1DIPC   C4A 9608   0.274  27.977   5.343 -0.1464  0.3169 -0.2772
    1DIPC   C1B 9609   0.948  28.471   6.000  0.2699 -0.0066  0.3404
    1DIPC   D2B 9610   1.383  28.452   5.720 -0.0632  0.0772 -0.1229
    1DIPC   D3B 9611   1.403  28.836   5.513 -0.3453 -0.1675 -0.0102
    1DIPC   C4B 9612   1.292  28.580   5.131 -0.0429  0.2361 -0.1434
    1DIPC   NC3 9613  24.666  14.757   6.129 -0.2120 -0.0196 -0.2766
    1DIPC   PO4 9614  24.446  14.567   5.914 -0.0472  0.0163 -0.1441
    1DIPC   GL1 9615  24.412  14.365   5.582 -0.0501  0.0166  0.2352
    1DIPC   GL2 9616  24.692  14.165   5.625 -0.1775  0.0753 -0.3906
    1DIPC   C1A 9617  24.363  14.204   5.262  0.3046  0.1282 -0.0777
    1DIPC   D2A 9618  24.195  14.261   4.822 -0.0322 -0.1955  0.1529
    1DIPC   D3A 9619  24.231  14.467   4.443 -0.1911 -0.0268  0.2717
    1DIPC   C4A 9620  23.979  14.408   4.082  0.1123 -0.2268  0.0919
    1DIPC   C1B 9621  24.922  14.444   5.290  0.2498  0.1166 -0.0274
    1DIPC   D2B 9622  25.091  14.571   4.964 -0.0026  0.4620 -0.0271
    1DIPC   D3B 9623  25.496  14.462   4.928 -0.1735 -0.1673  0.0253
    1DIPC   C4B 9624  25.413  14.034   5.078 -0.1496  0.0997  0.4613
    1DIPC   NC3 9625  24.733  23.147   6.680  0.0175 -0.0259  0.0205
    1DIPC   PO4 9626  24.972  23.511   6.665  0.1921 -0.0935 -0.0377
    1DIPC   GL1 9627  25.168  23.522   6.351  0.1677 -0.1440 -0.1410
    1DIPC   GL2 9628  24.971  23.355   6.230 -0.1551  0.0775  0.2191
    1DIPC   C1A 9629  25.484  23.275   6.264 -0.0558 -0.0307  0.0698
    1DIPC   D2A 9630  25.786  22.984   6.086  0.3640 -0.0540 -0.0431
    1DIPC   D3A 9631  25.890  23.495   6.080  0.4198  0.0500 -0.2148
    1DIPC   C4A 9632  26.347  23.585   5.977 -0.0214 -0.1390  0.0790
    1DIPC   C1B 9633  24.993  23.273   5.865  0.0200 -0.0325  0.0788
    1DIPC   D2B 9634  25.088  23.512   5.492 -0.2254  0.0448  0.2564
    1DIPC   D3B 9635  24.732  23.332   5.348  0.4263 -0.0006 -0.0983
    1DIPC   C4B 9636  24.294  23.545   5.161  0.2504  0.0891  0.4596
    1DIPC   NC3 9637  25.795  10.448   5.653  0.0990 -0.1218  0.0725
    1DIPC   PO4 9638  25.824  10.885   5.688  0.3950 -0.0152  0.1226
    1DIPC   GL1 9639  25.850  10.916   5.251  0.0393 -0.0483  0.0470
    1DIPC   GL2 9640  25.742  11.280   5.156  0.0871 -0.2031  0.0368
    1DIPC   C1A 9641  25.911  11.056   4.767  0.1639  0.0347  0.3767
    1DIPC   D2A 9642  25.901  11.055   4.356  0.3093 -0.3116  0.1429
    1DIPC   D3A 9643  26.098  11.447   4.235 -0.1098 -0.0237 -0.1008
    1DIPC   C4A 9644  26.421  11.279   3.928 -0.1080  0.2254  0.1856
    1DIPC   C1B 9645  25.388  11.522   5.155  0.0514  0.4005 -0.2453
    1DIPC   D2B 9646  25.136  11.486   4.769 -0.2031  0.1913  0.0894
    1DIPC   D3B 9647  24.853  11.139   4.902  0.0284  0.0741  0.1270
    1DIPC   C4B 9648  24.810  10.862   5.202  0.2268 -0.4283  0.1456
    1DIPC   NC3 9649   2.643   9.406   7.066  0.0367  0.0268 -0.2136
    1DIPC   PO4 9650   2.398   9.626   6.742 -0.5113  0.0296  0.1045
    1DIPC   GL1 9651   2.169   9.502   6.365 -0.0074  0.1499 -0.3904
    1DIPC   GL2 9652   2.167   9.138   6.393  0.0315 -0.0226 -0.0261
    1DIPC   C1A 9653   2.087   9.516   6.006  0.3804  0.0209  0.2167
    1DIPC   D2A 9654   2.133   9.457   5.589  0.2997  0.1073  0.0945
    1DIPC   D3A 9655   1.947   9.099   5.384 -0.2026  0.2372  0.0334
    1DIPC   C4A 9656   2.063   8.640   5.104 -0.0314 -0.1039 -0.1216
    1DIPC   C1B 9657   2.475   9.142   6.113  0.0632  0.0570 -0.1527
    1DIPC   D2B 9658   2.962   8.950   6.072  0.0467 -0.2806  0.1832
    1DIPC   D3B 9659   3.171   8.989   5.601  0.0322 -0.0010 -0.0436
    1DIPC   C4B 9660   3.583   8.835   5.520 -0.3772 -0.0058  0.1141
    1DIPC   NC3 9661  18.114  26.266   6.793 -0.0987 -0.3180  0.1724
    1DIPC   PO4 9662  18.109  25.884   6.608  0.0621  0.0169  0.0957
    1DIPC   GL1 9663  17.783  25.757   6.391 -0.0435 -0.2834 -0.0090
    1DIPC   GL2 9664  17.989  25.521   6.120  0.4264 -0.3816  0.0706
    1DIPC   C1A 9665  17.423  25.665   6.072 -0.3325  0.0804 -0.0610
    1DIPC   D2A 9666  17.516  25.936   5.598  0.0758 -0.2082  0.2622
    1DIPC   D3A 9667  17.827  26.173   5.401  0.0446  0.0132 -0.0734
    1DIPC   C4A 9668  18.248  26.091   5.474 -0.0190  0.2397 -0.0264
    1DIPC   C1B 9669  17.610  25.226   6.116  0.0347 -0.2018 -0.1465
    1DIPC   D2B 9670  17.461  24.914   5.905 -0.2714  0.1579  0.1091
    1DIPC   D3B 9671  17.191  24.842   5.564 -0.4691 -0.0494 -0.2310
    1DIPC   C4B 9672  17.186  25.028   5.287  0.0199 -0.0271 -0.0135
    1DIPC   NC3 9673  24.127  26.983   6.663 -0.1089  0.0977 -0.2104
    1DIPC   PO4 9674  24.574  26.717   6.629 -0.1700 -0.2714  0.2967
    1DIPC   GL1 9675  24.509  27.072   6.297 -0.1483  0.0119 -0.1249
    1DIPC   GL2 9676  24.215  27.194   6.217 -0.0261 -0.1103 -0.0011
    1DIPC   C1A 9677  24.626  27.307   5.901 -0.0456 -0.0824 -0.0660
    1DIPC   D2A 9678  24.796  27.358   5.478 -0.0317 -0.0076 -0.0639
    1DIPC   D3A 9679  24.575  27.589   5.093 -0.0418 -0.3155 -0.0442
    1DIPC   C4A 9680  24.191  27.888   5.125 -0.0111 -0.1632 -0.2178
    1DIPC   C1B 9681  24.199  26.883   5.919  0.1617 -0.1604  0.1801
    1DIPC   D2B 9682  24.151  26.421   5.866 -0.2507 -0.1187 -0.1042
    1DIPC   D3B 9683  24.117  26.204   5.451  0.4038 -0.0528 -0.0444
    1DIPC   C4B 9684  24.028  25.773   5.544  0.2793 -0.1573  0.3543
    1DIPC   NC3 9685   1.730  21.550   6.264  0.1047  0.3406  0.3793
    1DIPC   PO4 9686   1.896  21.835   5.910  0.1215  0.1610  0.0509
    1DIPC   GL1 9687   1.686  21.888   5.592  0.1407  0.1259  0.0308
    1DIPC   GL2 9688   1.721  21.700   5.313  0.0185 -0.0156 -0.0392
    1DIPC   C1A 9689   1.376  22.110   5.239 -0.0066 -0.1591 -0.3021
    1DIPC   D2A 9690   1.244  22.091   4.797 -0.0430 -0.0094  0.4552
    1DIPC   D3A 9691   1.701  22.241   4.471  0.1265  0.1467 -0.0860
    1DIPC   C4A 9692   2.021  22.491   4.567  0.1404 -0.1165 -0.0152
    1DIPC   C1B 9693   1.682  21.841   4.901 -0.1400  0.0971  0.1713
    1DIPC   D2B 9694   1.707  21.770   4.369 -0.0025  0.4353 -0.0140
    1DIPC   D3B 9695   1.360  21.602   4.639 -0.0879  0.1405 -0.1301
    1DIPC   C4B 9696   1.278  21.600   5.103 -0.3784  0.0407 -0.0146
    1DIPC   NC3 9697  23.633   5.765   6.678  0.1006 -0.0362 -0.2052
    1DIPC   PO4 9698  23.833   5.684   6.311  0.0928 -0.0344 -0.0672
    1DIPC   GL1 9699  23.816   5.516   5.858 -0.1904  0.0388 -0.2893
    1DIPC   GL2 9700  23.701   5.227   5.971 -0.1140  0.3035  0.0569
    1DIPC   C1A 9701  23.941   5.285   5.526 -0.2283 -0.1496 -0.0508
    1DIPC   D2A 9702  24.228   5.193   5.182 -0.1024  0.1538  0.2704
    1DIPC   D3A 9703  24.440   5.444   5.372  0.1241  0.1712  0.0859
    1DIPC   C4A 9704  24.800   5.290   5.447 -0.0269 -0.2913  0.0576
    1DIPC   C1B 9705  23.428   5.101   5.618  0.2106 -0.1078 -0.0698
    1DIPC   D2B 9706  23.056   5.338   5.290 -0.0474 -0.0897 -0.0671
    1DIPC   D3B 9707  22.812   5.543   4.981 -0.0643 -0.2467  0.2594
    1DIPC   C4B 9708  22.326   5.733   4.929  0.0242  0.1669 -0.2579
    1DIPC   NC3 9709   9.631  20.053   6.583 -0.0066  0.1244  0.0522
    1DIPC   PO4 9710   9.420  20.437   6.524  0.2091 -0.0648  0.0676
    1DIPC   GL1 9711   9.466  20.374   6.135 -0.1078 -0.0280 -0.1037
    1DIPC   GL2 9712   9.710  20.217   6.096 -0.3098 -0.2314  0.0279
    1DIPC   C1A 9713   9.129  20.104   5.961 -0.1334  0.2744  0.0591
    1DIPC   D2A 9714   8.631  20.155   5.878  0.1264  0.0651 -0.2484
    1DIPC   D3A 9715   8.307  20.349   5.610  0.2697  0.0451 -0.2756
    1DIPC   C4A 9716   7.973  20.639   5.797  0.0683 -0.0343 -0.3324
    1DIPC   C1B 9717   9.632  20.499   5.720 -0.1107  0.1960  0.1119
    1DIPC   D2B 9718   9.378  20.850   5.672 -0.0620  0.3382  0.0078
    1DIPC   D3B 9719   9.419  21.042   5.271  0.0558 -0.2199 -0.0982
    1DIPC   C4B 9720   9.131  21.392   5.202  0.0779 -0.2263  0.1105
    1DIPC   NC3 9721  16.323  24.493   7.295 -0.1568 -0.0389 -0.1125
    1DIPC   PO4 9722  15.991  24.271   7.207  0.0679  0.2933 -0.2605
    1DIPC   GL1 9723  16.194  24.273   6.855  0.0665 -0.1936 -0.1702
    1DIPC   GL2 9724  15.958  24.156   6.711  0.0876 -0.2444  0.0883
    1DIPC   C1A 9725  16.664  24.473   6.553  0.3999  0.1808 -0.1417
    1DIPC   D2A 9726  16.553  24.795   6.242 -0.0303 -0.1097 -0.1227
    1DIPC   D3A 9727  16.870  24.844   5.976 -0.5461 -0.0892  0.0597
    1DIPC   C4A 9728  17.122  24.478   6.196  0.1934  0.0004 -0.2856
    1DIPC   C1B 9729  15.661  24.435   6.515 -0.0171 -0.0338 -0.1383
    1DIPC   D2B 9730  15.679  24.674   6.202  0.0150 -0.1865 -0.1871
    1DIPC   D3B 9731  15.270  24.809   6.049  0.2405  0.2280  0.0923
    1DIPC   C4B 9732  14.941  24.647   5.845 -0.0957 -0.0297 -0.1449
    1DIPC   NC3 9733  24.908  12.615   6.380 -0.1840 -0.2580 -0.3955
    1DIPC   PO4 9734  24.587  12.323   6.168  0.1406 -0.1718  0.0859
    1DIPC   GL1 9735  24.987  12.456   5.908  0.0933 -0.0938  0.0514
    1DIPC   GL2 9736  25.076  12.716   5.826  0.1856  0.1552  0.0374
    1DIPC   C1A 9737  25.060  12.301   5.422 -0.5093 -0.1035  0.0982
    1DIPC   D2A 9738  25.278  12.435   5.027  0.1970  0.0727 -0.2140
    1DIPC   D3A 9739  25.065  12.428   4.600  0.2968 -0.0803 -0.0390
    1DIPC   C4A 9740  24.766  12.756   4.427 -0.2191 -0.1688  0.0274
    1DIPC   C1B 9741  25.247  12.878   5.373 -0.2419 -0.0030 -0.1205
    1DIPC   D2B 9742  25.403  13.004   5.075  0.2978  0.1190  0.3854
    1DIPC   D3B 9743  25.530  12.726   4.727  0.0468 -0.0014 -0.2305
    1DIPC   C4B 9744  25.888  12.634   4.653  0.0869  0.2059 -0.0126
    1DIPC   NC3 9745  12.830   6.341   7.887  0.2387  0.0754  0.0733
    1DIPC   PO4 9746  12.872   5.913   7.986  0.1402  0.0747  0.3048
    1DIPC   GL1 9747  13.146   6.014   7.635 -0.0647 -0.1486  0.2956
    1DIPC   GL2 9748  13.555   6.035   7.596 -0.2421  0.1271 -0.1352
    1DIPC   C1A 9749  13.245   6.241   7.196 -0.0124  0.0623 -0.2203
    1DIPC   D2A 9750  13.031   6.451   6.957 -0.7045 -0.2036  0.2611
    1DIPC   D3A 9751  13.226   6.742   6.713 -0.1070 -0.0604  0.0627
    1DIPC   C4A 9752  13.386   6.674   6.314 -0.0548 -0.0200 -0.1558
    1DIPC   C1B 9753  13.487   5.799   7.198 -0.0386 -0.0930 -0.1387
    1DIPC   D2B 9754  13.227   5.903   6.773  0.0893  0.0997  0.1068
    1DIPC   D3B 9755  12.893   6.084   6.653  0.0107  0.1048 -0.2084
    1DIPC   C4B 9756  12.939   6.433   6.452  0.1390 -0.0418 -0.1075
    1DIPC   NC3 9757   5.198  11.627   6.576  0.1153 -0.1074  0.1677
    1DIPC   PO4 9758   5.070  12.111   6.640 -0.3600  0.2628 -0.0407
    1DIPC   GL1 9759   5.467  12.154   6.479  0.0889  0.0772 -0.2409
    1DIPC   GL2 9760   5.572  11.941   6.238  0.2321  0.0908  0.1047
    1DIPC   C1A 9761   5.841  12.271   6.384  0.4335  0.1214  0.0916
    1DIPC   D2A 9762   6.127  12.167   6.081  0.1270 -0.1514  0.0344
    1DIPC   D3A 9763   5.818  12.557   5.929  0.4428  0.3436  0.0833
    1DIPC   C4A 9764   5.859  12.565   5.533 -0.0250 -0.0040 -0.1223
    1DIPC   C1B 9765   5.695  11.988   5.837 -0.1171  0.1432  0.0469
    1DIPC   D2B 9766   6.016  12.101   5.586 -0.1812 -0.2110 -0.4068
    1DIPC   D3B 9767   6.312  12.422   5.591 -0.0350  0.0567  0.1018
    1DIPC   C4B 9768   6.289  12.773   5.909  0.0203  0.2010  0.0924
    1DIPC   NC3 9769   4.157  18.212   5.948 -0.2891 -0.0082 -0.1224
    1DIPC   PO4 9770   4.399  17.986   5.681 -0.1249 -0.0320 -0.1473
    1DIPC   GL1 9771   4.341  17.892   5.263 -0.0001 -0.0022  0.0461
    1DIPC   GL2 9772   4.585  17.998   5.073  0.0599  0.0071  0.0889
    1DIPC   C1A 9773   4.216  17.794   4.843 -0.1798 -0.1665 -0.0674
    1DIPC   D2A 9774   4.258  17.953   4.488  0.1125 -0.1312 -0.0839
    1DIPC   D3A 9775   4.634  17.939   4.414 -0.1097  0.3705  0.2819
    1DIPC   C4A 9776   4.754  18.218   4.074 -0.2257 -0.0544  0.0905
    1DIPC   C1B 9777   4.876  18.219   4.761 -0.5292  0.1925  0.0264
    1DIPC   D2B 9778   5.132  18.292   4.430 -0.1042 -0.0214  0.0682
    1DIPC   D3B 9779   5.085  17.809   4.227 -0.0796 -0.2001 -0.1184
    1DIPC   C4B 9780   5.284  17.603   4.031 -0.1200  0.0320 -0.2888
    1DIPC   NC3 9781  15.845  25.367   6.823  0.0265 -0.0750 -0.1537
    1DIPC   PO4 9782  15.454  25.258   6.749  0.0604  0.2044 -0.1153
    1DIPC   GL1 9783  15.534  25.266   6.292  0.4099  0.0159  0.0377
    1DIPC   GL2 9784  15.226  25.332   6.297  0.1262  0.0588  0.2612
    1DIPC   C1A 9785  15.513  25.207   5.814 -0.0432 -0.0289  0.1673
    1DIPC   D2A 9786  15.584  24.858   5.605  0.2465 -0.1234  0.2380
    1DIPC   D3A 9787  15.523  25.183   5.289 -0.0180 -0.0124  0.2444
    1DIPC   C4A 9788  15.645  25.581   5.354  0.0690  0.1506 -0.0400
    1DIPC   C1B 9789  15.149  25.742   6.060 -0.3200  0.2914  0.2706
    1DIPC   D2B 9790  14.923  25.945   5.768 -0.0222 -0.1037  0.1661
    1DIPC   D3B 9791  14.543  25.831   5.679  0.3864  0.0425  0.2481
    1DIPC   C4B 9792  14.384  25.445   5.904  0.0395  0.0016  0.0519
    1DIPC   NC3 9793   1.852  22.371   5.825 -0.0921  0.0991  0.0707
    1DIPC   PO4 9794   2.194  22.284   5.484 -0.0401  0.0465  0.1905
    1DIPC   GL1 9795   2.145  21.964   5.151 -0.2296 -0.0480  0.0302
    1DIPC   GL2 9796   2.558  21.843   4.986 -0.0360 -0.0401  0.0793
    1DIPC   C1A 9797   2.173  21.940   4.671 -0.0676  0.1107  0.0802
    1DIPC   D2A 9798   2.140  22.109   4.260  0.3157  0.0370  0.1424
    1DIPC   D3A 9799   2.323  21.807   4.238  0.0227 -0.1543 -0.0417
    1DIPC   C4A 9800   2.656  22.010   4.068  0.0415  0.0381 -0.0346
    1DIPC   C1B 9801   2.656  21.987   4.561  0.2959 -0.2269  0.1909
    1DIPC   D2B 9802   2.489  22.343   4.434  0.3477 -0.0877 -0.0711
    1DIPC   D3B 9803   2.934  22.397   4.448 -0.0413 -0.0499 -0.0573
    1DIPC   C4B 9804   3.268  22.039   4.502  0.2468 -0.1090  0.2533
    1DIPC   NC3 9805  27.260  20.087   6.545 -0.3485 -0.0246  0.0767
    1DIPC   PO4 9806  26.872  20.152   6.329 -0.2548  0.2451  0.2679
    1DIPC   GL1 9807  26.967  20.172   5.929 -0.1661 -0.2334  0.1396
    1DIPC   GL2 9808  27.239  20.073   5.834  0.2493 -0.1013  0.1291
    1DIPC   C1A 9809  26.985  20.019   5.407  0.3329  0.2028 -0.1414
    1DIPC   D2A 9810  26.860  19.897   4.965  0.3758  0.2834 -0.1269
    1DIPC   D3A 9811  26.545  20.174   4.946  0.1243  0.2094  0.1575
    1DIPC   C4A 9812  26.074  19.964   4.897  0.0332 -0.0885 -0.0514
    1DIPC   C1B 9813  27.517  20.171   5.453  0.0851 -0.0045 -0.2058
    1DIPC   D2B 9814  27.766  20.342   5.072  0.0015 -0.0102  0.2563
    1DIPC   D3B 9815  27.728  20.687   5.390  0.3442 -0.1557  0.2141
    1DIPC   C4B 9816  27.882  20.986   5.609 -0.0316 -0.1672 -0.0670
    1DIPC   NC3 9817   2.750   2.881   6.928 -0.0066 -0.1464  0.0606
    1DIPC   PO4 9818   2.591   2.503   6.778 -0.1702  0.2447 -0.1210
    1DIPC   GL1 9819   2.574   2.696   6.397  0.1903 -0.0748  0.0207
    1DIPC   GL2 9820   2.740   3.144   6.501 -0.5222 -0.3351 -0.1462
    1DIPC   C1A 9821   2.286   2.664   6.115  0.3427  0.0965  0.0196
    1DIPC   D2A 9822   1.919   2.533   5.960 -0.2082  0.2532 -0.0594
    1DIPC   D3A 9823   1.906   2.988   6.073  0.0617 -0.0447  0.1063
    1DIPC   C4A 9824   1.931   3.339   5.825 -0.1742 -0.1388 -0.0756
    1DIPC   C1B 9825   3.057   3.403   6.232  0.0992 -0.2437 -0.1479
    1DIPC   D2B 9826   3.143   3.781   6.214  0.0974 -0.1561  0.1363
    1DIPC   D3B 9827   3.133   3.676   5.768 -0.1068  0.2992 -0.1922
    1DIPC   C4B 9828   3.399   3.517   5.560  0.0402  0.1472  0.5284
    1DIPC   NC3 9829  20.965  22.702   7.182 -0.0626  0.1864 -0.1363
    1DIPC   PO4 9830  21.172  22.554   6.762  0.0015 -0.3295  0.0987
    1DIPC   GL1 9831  21.134  22.516   6.308 -0.1474 -0.0177  0.0553
    1DIPC   GL2 9832  21.029  22.245   6.080 -0.0214 -0.0412  0.4804
    1DIPC   C1A 9833  21.433  22.441   5.965 -0.0212 -0.1734 -0.0286
    1DIPC   D2A 9834  21.288  22.347   5.450 -0.0285  0.2797 -0.0032
    1DIPC   D3A 9835  21.740  22.529   5.296  0.1567  0.0311  0.0010
    1DIPC   C4A 9836  22.066  22.804   5.138 -0.0276  0.0399  0.1248
    1DIPC   C1B 9837  20.787  22.502   5.822  0.1986  0.1869 -0.0283
    1DIPC   D2B 9838  20.738  22.801   5.608  0.1576  0.3633 -0.0327
    1DIPC   D3B 9839  20.426  22.814   5.893 -0.3347  0.1797  0.0612
    1DIPC   C4B 9840  20.060  23.030   5.768  0.0266  0.2622 -0.1245
    1DIPC   NC3 9841   3.175  21.969   5.705  0.2163  0.1956 -0.0844
    1DIPC   PO4 9842   3.636  21.867   5.761  0.1333 -0.0767  0.0042
    1DIPC   GL1 9843   3.815  21.950   5.356  0.0373  0.2260  0.2362
    1DIPC   GL2 9844   3.449  22.034   5.312  0.1870 -0.2323 -0.2450
    1DIPC   C1A 9845   3.978  22.263   5.088 -0.0874  0.0952 -0.4169
    1DIPC   D2A 9846   3.969  22.296   4.649  0.1847 -0.2246  0.0654
    1DIPC   D3A 9847   3.857  21.874   4.706 -0.1045  0.0043  0.2575
    1DIPC   C4A 9848   3.510  21.877   4.885  0.0593 -0.2767 -0.0624
    1DIPC   C1B 9849   3.389  22.346   4.989  0.0932  0.1558  0.0925
    1DIPC   D2B 9850   3.501  22.465   4.532 -0.0357  0.0481 -0.1335
    1DIPC   D3B 9851   3.780  22.836   4.427 -0.0199  0.3592 -0.2749
    1DIPC   C4B 9852   3.597  23.131   4.124 -0.1754 -0.0694  0.0969
    1DIPC   NC3 9853  11.875  11.880   7.704 -0.0931 -0.4204  0.0873
    1DIPC   PO4 9854  11.589  11.581   7.612 -0.5153  0.1962 -0.0622
    1DIPC   GL1 9855  11.529  11.722   7.222 -0.0085  0.0307 -0.0463
    1DIPC   GL2 9856  11.749  11.572   6.929  0.1052 -0.0620  0.3690
    1DIPC   C1A 9857  11.577  11.952   6.745  0.1166 -0.0606 -0.0628
    1DIPC   D2A 9858  11.333  12.001   6.335 -0.1104  0.0974 -0.4930
    1DIPC   D3A 9859  11.587  11.804   6.083 -0.0848  0.3812 -0.1974
    1DIPC   C4A 9860  11.571  11.738   5.607  0.1907  0.2261  0.2362
    1DIPC   C1B 9861  11.948  11.627   6.595 -0.1229 -0.0185  0.3047
    1DIPC   D2B 9862  11.929  11.400   6.207 -0.3699 -0.0147 -0.2271
    1DIPC   D3B 9863  12.023  11.578   5.877 -0.1256  0.1490  0.1988
    1DIPC   C4B 9864  11.871  11.276   5.626 -0.0597  0.0473  0.0064
    1DIPC   NC3 9865  25.399   4.610   6.515  0.1396  0.0381  0.2492
    1DIPC   PO4 9866  24.997   4.644   6.113 -0.2474  0.0170  0.1531
    1DIPC   GL1 9867  24.797   4.647   5.683  0.4080  0.1127  0.1467
    1DIPC   GL2 9868  24.526   4.415   5.698 -0.1689  0.0672 -0.0168
    1DIPC   C1A 9869  24.382   4.937   5.708 -0.2503 -0.0571  0.0506
    1DIPC   D2A 9870  23.961   4.785   5.469 -0.0881 -0.1042  0.2145
    1DIPC   D3A 9871  23.786   4.979   5.168  0.0485  0.0204 -0.3215
    1DIPC   C4A 9872  23.382   5.020   5.142 -0.1263  0.0117  0.0046
    1DIPC   C1B 9873  24.481   4.567   5.290  0.0871 -0.0946 -0.3320
    1DIPC   D2B 9874  24.460   4.727   4.902  0.2182  0.1248  0.2686
    1DIPC   D3B 9875  24.775   5.044   4.917  0.0247  0.1367 -0.1795
    1DIPC   C4B 9876  24.650   5.196   4.589 -0.2012 -0.0335 -0.2471
    1DIPC   NC3 9877   8.809   4.423   7.190 -0.2190  0.2614  0.1018
    1DIPC   PO4 9878   8.646   4.075   7.295  0.0865  0.0281  0.0911
    1DIPC   GL1 9879   8.672   4.033   6.852  0.3439  0.3144 -0.0249
    1DIPC   GL2 9880   8.913   4.231   6.752 -0.0345  0.1972  0.0374
    1DIPC   C1A 9881   8.444   3.983   6.537  0.0424  0.2269  0.2333
    1DIPC   D2A 9882   8.232   3.933   6.134 -0.0714  0.2377  0.1524
    1DIPC   D3A 9883   8.750   3.982   6.116  0.1100  0.0490 -0.0253
    1DIPC   C4A 9884   8.995   3.673   5.826 -0.0608  0.0196 -0.4555
    1DIPC   C1B 9885   8.789   4.454   6.424  0.1231 -0.3847 -0.0115
    1DIPC   D2B 9886   8.695   4.831   6.251  0.1689  0.1686 -0.3130
    1DIPC   D3B 9887   8.371   4.427   6.217  0.0612 -0.0850 -0.2519
    1DIPC   C4B 9888   8.397   4.314   5.813  0.2272  0.0505  0.3104
    1DIPC   NC3 9889   8.833  24.673   6.183  0.2375 -0.2342  0.2156
    1DIPC   PO4 9890   8.427  24.487   6.128 -0.2416  0.1117 -0.2449
    1DIPC   GL1 9891   8.395  24.737   5.731  0.2696 -0.0197 -0.5057
    1DIPC   GL2 9892   8.096  24.745   5.599  0.3073  0.0988 -0.1692
    1DIPC   C1A 9893   8.604  24.832   5.318 -0.4657 -0.2404 -0.1795
    1DIPC   D2A 9894   8.370  24.801   4.906 -0.0626 -0.0839  0.1072
    1DIPC   D3A 9895   8.407  24.550   4.502 -0.1268 -0.4198  0.0353
    1DIPC   C4A 9896   7.893  24.531   4.285  0.1542  0.0989 -0.1760
    1DIPC   C1B 9897   8.041  24.459   5.248 -0.0535 -0.0181 -0.1927
    1DIPC   D2B 9898   8.061  24.355   4.800 -0.0938 -0.4774  0.2403
    1DIPC   D3B 9899   7.686  24.662   4.793 -0.2477  0.1063 -0.0945
    1DIPC   C4B 9900   7.435  24.749   4.413  0.0553  0.0275 -0.1529
    1DIPC   NC3 9901  26.629  24.934   7.050 -0.0808  0.0926  0.0441
    1DIPC   PO4 9902  26.421  25.226   6.705 -0.4672 -0.0644  0.0251
    1DIPC   GL1 9903  26.614  25.314   6.253  0.1186  0.0987  0.3172
    1DIPC   GL2 9904  26.731  24.967   6.061 -0.1173 -0.1533 -0.2445
    1DIPC   C1A 9905  26.283  25.363   5.967 -0.1654  0.0502  0.1206
    1DIPC   D2A 9906  25.913  25.058   5.845 -0.0823  0.1461  0.1315
    1DIPC   D3A 9907  26.070  25.223   5.432 -0.1167  0.0485 -0.0653
    1DIPC   C4A 9908  26.241  25.662   5.536 -0.0601  0.2489  0.0628
    1DIPC   C1B 9909  26.913  25.377   5.780 -0.3133 -0.1020 -0.0568
    1DIPC   D2B 9910  27.051  25.476   5.412 -0.1277 -0.0734 -0.0139
    1DIPC   D3B 9911  27.431  25.355   5.180 -0.1459  0.0529 -0.0946
    1DIPC   C4B 9912  27.703  25.029   5.383 -0.0873 -0.0507 -0.0593
    1DIPC   NC3 9913  17.638  19.600   7.814  0.0973  0.2119  0.1929
    1DIPC   PO4 9914  17.187  19.512   7.620 -0.0031 -0.0263  0.2674
    1DIPC   GL1 9915  17.517  19.664   7.341  0.0288  0.1971 -0.2231
    1DIPC   GL2 9916  17.199  19.560   7.057 -0.0080  0.4218  0.2386
    1DIPC   C1A 9917  17.722  19.951   6.926  0.1278 -0.2197 -0.5283
    1DIPC   D2A 9918  18.106  20.128   6.790  0.2412  0.0092 -0.1055
    1DIPC   D3A 9919  18.210  20.069   6.312 -0.1439  0.2577  0.0227
    1DIPC   C4A 9920  17.981  19.753   6.164  0.2433  0.2327  0.1192
    1DIPC   C1B 9921  16.892  19.752   6.885  0.1667 -0.1254  0.1011
    1DIPC   D2B 9922  16.799  20.165   6.655  0.0044  0.1852  0.2292
    1DIPC   D3B 9923  16.895  20.193   6.223 -0.0937  0.0154  0.1339
    1DIPC   C4B 9924  17.048  19.922   5.884  0.1142 -0.1077  0.0493
    1DIPC   NC3 9925  19.773  26.466   6.257 -0.2567 -0.0444 -0.1805
    1DIPC   PO4 9926  19.804  26.902   6.285  0.0799  0.1900 -0.1176
    1DIPC   GL1 9927  20.151  26.748   6.023  0.4879 -0.1953  0.2361
    1DIPC   GL2 9928  20.132  26.437   5.936 -0.2273 -0.1836 -0.0505
    1DIPC   C1A 9929  20.518  26.755   5.792  0.1833  0.0588  0.0516
    1DIPC   D2A 9930  20.904  26.544   5.605 -0.0878 -0.2713 -0.2594
    1DIPC   D3A 9931  20.970  26.094   5.356 -0.0775 -0.0493  0.1991
    1DIPC   C4A 9932  21.079  25.855   5.623 -0.0252  0.2883  0.0237
    1DIPC   C1B 9933  20.082  26.591   5.556 -0.2391  0.1301  0.2294
    1DIPC   D2B 9934  20.229  26.461   5.074 -0.2991 -0.1186 -0.1083
    1DIPC   D3B 9935  20.060  26.384   4.654  0.3827 -0.0090  0.0663
    1DIPC   C4B 9936  19.740  26.238   4.612 -0.0950  0.0850  0.0421
    1DIPC   NC3 9937  22.129  20.900   6.816  0.0774  0.2106 -0.2193
    1DIPC   PO4 9938  21.755  21.215   6.859  0.0995  0.1361  0.0974
    1DIPC   GL1 9939  21.982  21.295   6.433  0.1619 -0.3770 -0.0022
    1DIPC   GL2 9940  21.910  21.645   6.364  0.3405  0.3284  0.3291
    1DIPC   C1A 9941  22.268  21.452   6.129 -0.2984 -0.1527 -0.0977
    1DIPC   D2A 9942  22.681  21.585   6.198 -0.2080  0.1340  0.2167
    1DIPC   D3A 9943  22.633  21.601   5.800 -0.1923  0.1553  0.5492
    1DIPC   C4A 9944  22.991  21.578   5.513 -0.1211  0.0299 -0.1374
    1DIPC   C1B 9945  21.607  21.777   6.049  0.0624 -0.0607  0.0346
    1DIPC   D2B 9946  21.350  21.957   5.778 -0.0721 -0.2812 -0.0228
    1DIPC   D3B 9947  21.567  21.773   5.452  0.1013  0.0916  0.0745
    1DIPC   C4B 9948  21.640  22.080   5.163  0.1183  0.1894  0.0696
    1DIPC   NC3 9949  17.264  18.312   7.269 -0.1948  0.0748 -0.0239
    1DIPC   PO4 9950  17.073  18.721   7.138 -0.0109  0.2135 -0.1417
    1DIPC   GL1 9951  17.227  19.021   6.901  0.1047  0.0117 -0.3044
    1DIPC   GL2 9952  17.034  19.213   6.736  0.1140 -0.1309 -0.0694
    1DIPC   C1A 9953  17.495  19.265   6.580 -0.2810 -0.2191  0.2489
    1DIPC   D2A 9954  17.763  19.287   6.226 -0.1254 -0.0872  0.0796
    1DIPC   D3A 9955  17.846  18.805   6.238  0.3238  0.0247  0.2504
    1DIPC   C4A 9956  18.245  18.581   6.405 -0.3061 -0.1629  0.1231
    1DIPC   C1B 9957  17.018  19.209   6.303 -0.2068  0.0833 -0.0165
    1DIPC   D2B 9958  17.022  19.377   5.885  0.0593 -0.1132  0.0574
    1DIPC   D3B 9959  16.534  19.221   5.871 -0.0536  0.0151 -0.0431
    1DIPC   C4B 9960  16.378  18.791   5.856 -0.0681  0.1276  0.2289
    1DIPC   NC3 9961   2.866  25.933   6.522  0.3170  0.2484 -0.0739
    1DIPC   PO4 9962   3.355  25.977   6.489 -0.2602  0.0389 -0.1958
    1DIPC   GL1 9963   3.574  26.214   6.122 -0.0405  0.0144 -0.1154
    1DIPC   GL2 9964   3.602  26.064   5.904  0.2089  0.0811  0.0873
    1DIPC   C1A 9965   3.630  26.581   5.848  0.0392  0.4951  0.5336
    1DIPC   D2A 9966   3.671  27.004   5.690 -0.1725 -0.2268  0.0050
    1DIPC   D3A 9967   3.918  27.010   6.004  0.0829  0.1815  0.5080
    1DIPC   C4A 9968   4.074  27.468   5.937 -0.0099  0.1714 -0.0964
    1DIPC   C1B 9969   3.655  25.900   5.518 -0.0004  0.0332 -0.2941
    1DIPC   D2B 9970   3.957  25.634   5.281 -0.1049 -0.2024 -0.3987
    1DIPC   D3B 9971   3.878  25.794   4.909 -0.0270  0.0748  0.1544
    1DIPC   C4B 9972   3.622  25.986   4.537  0.0605  0.1777 -0.0042
    1DIPC   NC3 9973   1.469   9.947   6.741  0.1479  0.3012 -0.2374
    1DIPC   PO4 9974   1.571  10.275   6.492  0.0495 -0.2892 -0.5062
    1DIPC   GL1 9975   1.750  10.255   6.144  0.0249  0.2140  0.1910
    1DIPC   GL2 9976   1.555  10.300   5.872  0.1256  0.2633 -0.0954
    1DIPC   C1A 9977   2.022  10.428   5.920  0.0824 -0.2317 -0.0768
    1DIPC   D2A 9978   2.214  10.426   5.570 -0.2814 -0.2505  0.0866
    1DIPC   D3A 9979   1.798  10.298   5.465 -0.1860 -0.1898  0.0228
    1DIPC   C4A 9980   1.574  10.605   5.281  0.1566 -0.0191  0.2014
    1DIPC   C1B 9981   1.549   9.884   5.843 -0.2002 -0.2589  0.1977
    1DIPC   D2B 9982   1.593   9.452   5.761  0.1047 -0.4998  0.1638
    1DIPC   D3B 9983   1.682   9.617   5.436 -0.0324  0.0412  0.1948
    1DIPC   C4B 9984   2.053   9.515   5.075  0.0866 -0.0364 -0.0574
    1DIPC   NC3 9985  24.889   1.326   6.540 -0.1749  0.1143 -0.0571
    1DIPC   PO4 9986  25.261   1.568   6.301 -0.0346  0.3301 -0.7202
    1DIPC   GL1 9987  25.188   1.700   5.940  0.0765  0.3557 -0.2656
    1DIPC   GL2 9988  24.984   1.870   5.819  0.1155 -0.2085  0.1233
    1DIPC   C1A 9989  25.215   1.396   5.555 -0.1300  0.0818 -0.0641
    1DIPC   D2A 9990  25.119   1.405   5.154  0.1572 -0.1321  0.2237
    1DIPC   D3A 9991  25.544   1.610   5.020 -0.1688  0.0188 -0.0388
    1DIPC   C4A 9992  25.661   1.491   4.615  0.0584 -0.2280 -0.2216
    1DIPC   C1B 9993  24.737   2.118   5.563  0.0373  0.0788  0.1737
    1DIPC   D2B 9994  24.600   2.033   5.101  0.0042 -0.0579  0.1943
    1DIPC   D3B 9995  24.913   1.771   4.831 -0.2030 -0.1320 -0.0336
    1DIPC   C4B 9996  25.087   1.901   4.410  0.0798 -0.1318 -0.0354
    1DIPC   NC3 9997  26.898  23.790   6.674 -0.1557 -0.0572 -0.1909
    1DIPC   PO4 9998  26.660  23.472   6.677  0.0054 -0.0714  0.0052
    1DIPC   GL1 9999  26.876  23.459   6.278 -0.1462  0.2843  0.3049
    1DIPC   GL210000  26.917  23.846   6.150  0.1830 -0.1728  0.4196
    1DIPC   C1A10001  27.191  23.404   5.969  0.0154  0.0306 -0.0794
    1DIPC   D2A10002  27.434  23.721   5.770 -0.1032  0.2009 -0.2183
    1DIPC   D3A10003  27.740  23.808   5.816  0.3451 -0.1238  0.1420
    1DIPC   C4A10004  28.088  23.561   5.686  0.0156 -0.0499  0.0196
    1DIPC   C1B10005  26.771  23.608   5.791 -0.2429 -0.1279  0.1079
    1DIPC   D2B10006  26.665  23.225   5.642 -0.3431 -0.1172 -0.0093
    1DIPC   D3B10007  26.975  22.993   5.876  0.2201  0.1876  0.0779
    1DIPC   C4B10008  27.439  22.913   5.894  0.1312  0.3526  0.0815
    1DIPC   NC310009   6.899  19.832   6.166  0.0997 -0.1726 -0.1545
    1DIPC   PO410010   7.308  19.719   6.168 -0.0517 -0.1108  0.0037
    1DIPC   GL110011   7.227  19.829   5.796  0.1781  0.0210  0.0791
    1DIPC   GL210012   6.931  19.974   5.724  0.2677  0.0159  0.2121
    1DIPC   C1A10013   7.503  19.907   5.430 -0.1208 -0.1874  0.1217
    1DIPC   D2A10014   7.867  19.656   5.172 -0.0166 -0.0276 -0.0205
    1DIPC   D3A10015   7.954  19.590   4.781  0.2542  0.1620 -0.0093
    1DIPC   C4A10016   8.024  19.843   4.541 -0.1103 -0.1010  0.1951
    1DIPC   C1B10017   6.882  19.728   5.388  0.0352  0.2783 -0.1305
    1DIPC   D2B10018   6.699  19.472   5.078  0.2909  0.2288  0.2691
    1DIPC   D3B10019   7.011  19.187   4.848  0.0384  0.1101  0.2088
    1DIPC   C4B10020   6.808  18.937   4.573 -0.3844  0.0552  0.3409
    1DIPC   NC310021  25.454  11.262   6.112  0.2915 -0.1354  0.3070
    1DIPC   PO410022  25.361  11.779   6.232  0.0863 -0.0594  0.2959
    1DIPC   GL110023  25.112  11.941   5.898  0.1949  0.0629  0.0427
    1DIPC   GL210024  25.299  11.767   5.689 -0.0549 -0.1467 -0.1310
    1DIPC   C1A10025  24.765  11.936   5.530  0.1505 -0.0084  0.0994
    1DIPC   D2A10026  24.520  12.109   5.317  0.0463 -0.0255 -0.1103
    1DIPC   D3A10027  24.412  12.034   4.912 -0.2509  0.1720  0.2832
    1DIPC   C4A10028  24.034  11.841   4.909  0.4765  0.3446 -0.0532
    1DIPC   C1B10029  25.783  11.755   5.467  0.0082  0.3319 -0.0347
    1DIPC   D2B10030  26.077  11.658   5.135  0.0572 -0.1047 -0.0817
    1DIPC   D3B10031  25.808  11.603   4.751 -0.2857  0.3219  0.1600
    1DIPC   C4B10032  25.400  11.838   4.645  0.1762 -0.0454  0.2158
    1CHOL   ROH10033  24.467   2.876   5.818 -0.0224  0.1005 -0.0177
    1CHOL    R110034  24.576   2.720   5.608 -0.0335  0.0376  0.0230
    1CHOL    R210035  24.423   2.623   5.399 -0.0088  0.1430 -0.0437
    1CHOL    R310036  24.609   2.750   5.247  0.1370  0.0289  0.0368
    1CHOL    R410037  24.520   2.524   5.083  0.0482  0.0952 -0.0114
    1CHOL    R510038  24.726   2.572   5.136  0.0624 -0.0447  0.0731
    1CHOL    C110039  24.752   2.584   4.756  0.2182 -0.0397  0.0829
    1CHOL    C210040  24.967   2.313   4.625  0.1993  0.1417 -0.2373
    1CHOL   ROH10041   7.273  22.589   5.382 -0.0059 -0.0520 -0.0918
    1CHOL    R110042   7.481  22.524   5.201 -0.0677  0.0113 -0.1882
    1CHOL    R210043   7.468  22.586   4.932 -0.0926  0.2476 -0.1403
    1CHOL    R310044   7.707  22.706   4.982 -0.0341  0.1041 -0.0748
    1CHOL    R410045   7.693  22.687   4.690 -0.0516  0.3022 -0.0793
    1CHOL    R510046   7.855  22.615   4.817 -0.0828  0.1461 -0.1357
    1CHOL    C110047   8.048  22.858   4.595  0.0271  0.1992  0.0179
    1CHOL    C210048   8.336  23.127   4.520  0.1248 -0.0070  0.1457
    1CHOL   ROH10049  12.215   2.687   4.757 -0.1477 -0.0532 -0.0665
    1CHOL    R110050  12.074   2.562   4.968 -0.1468 -0.0564 -0.0670
    1CHOL    R210051  12.132   2.609   5.234 -0.0792 -0.1362 -0.0649
    1CHOL    R310052  11.867   2.670   5.247 -0.0563 -0.0525 -0.0021
    1CHOL    R410053  11.920   2.517   5.492 -0.0611 -0.1154 -0.0433
    1CHOL    R510054  11.766   2.475   5.344 -0.1021 -0.0361 -0.0204
    1CHOL    C110055  11.549   2.521   5.655 -0.0290 -0.0247  0.0282
    1CHOL    C210056  11.159   2.346   5.737  0.1650  0.0407  0.1100
    1CHOL   ROH10057   8.268  14.408   6.545  0.2719 -0.2440 -0.0107
    1CHOL    R110058   8.265  14.481   6.271  0.0165 -0.1029  0.0261
    1CHOL    R210059   8.484  14.448   6.106 -0.0387  0.2420 -0.1313
    1CHOL    R310060   8.306  14.313   5.952  0.0228  0.1085 -0.0851
    1CHOL    R410061   8.504  14.419   5.762  0.0173  0.0546 -0.1123
    1CHOL    R510062   8.287  14.445   5.753  0.0152 -0.0100 -0.1609
    1CHOL    C110063   8.348  14.274   5.417  0.1077 -0.1798 -0.0580
    1CHOL    C210064   8.313  14.296   5.042  0.3760  0.1526 -0.1301
    1CHOL   ROH10065   3.939  23.313   5.037  0.0592  0.1548 -0.1191
    1CHOL    R110066   4.012  23.256   4.770  0.2439  0.0507 -0.0488
    1CHOL    R210067   3.907  23.394   4.555  0.1063 -0.2766 -0.1994
    1CHOL    R310068   4.170  23.435   4.495  0.0713  0.0776 -0.1317
    1CHOL    R410069   4.029  23.471   4.240  0.0926 -0.1946 -0.1849
    1CHOL    R510070   4.197  23.337   4.278  0.2739  0.0516 -0.0965
    1CHOL    C110071   4.345  23.553   4.001  0.0517  0.1856 -0.1129
    1CHOL    C210072   4.217  23.564   3.545  0.0983  0.0111 -0.3039
    1CHOL   ROH10073  18.053   9.063   6.512  0.0107 -0.2403  0.0537
    1CHOL    R110074  18.185   8.993   6.272 -0.0854 -0.2396  0.0012
    1CHOL    R210075  18.050   8.949   6.035 -0.1498  0.0962 -0.0225
    1CHOL    R310076  18.223   9.136   5.940  0.0845 -0.0536  0.0967
    1CHOL    R410077  18.112   9.010   5.700 -0.2050  0.3311  0.0069
    1CHOL    R510078  18.323   9.033   5.748 -0.1411 -0.0201 -0.0485
    1CHOL    C110079  18.311   9.220   5.416 -0.0173  0.3271  0.1360
    1CHOL    C210080  18.433   8.981   5.066 -0.1370 -0.1076 -0.0050
    1CHOL   ROH10081   6.684   0.520   4.215  0.0082  0.1792  0.0620
    1CHOL    R110082   6.683   0.389   4.466 -0.0309  0.0947  0.0183
    1CHOL    R210083   6.830   0.160   4.515 -0.0033  0.1019 -0.0221
    1CHOL    R310084   6.928   0.306   4.722 -0.0788  0.0510  0.0496
    1CHOL    R410085   6.913   0.032   4.825 -0.0678  0.0203 -0.0385
    1CHOL    R510086   6.826   0.210   4.916 -0.1158 -0.0214 -0.0071
    1CHOL    C110087   7.052   0.095   5.201 -0.1763 -0.0750  0.0193
    1CHOL    C210088   7.301  -0.003   5.532  0.2622 -0.1877 -0.3228
    1CHOL   ROH10089   7.295   0.871   5.960  0.1356  0.0218  0.1985
    1CHOL    R110090   7.422   1.092   5.838 -0.0177 -0.0581 -0.1151
    1CHOL    R210091   7.659   1.198   5.932 -0.1567  0.3183 -0.1824
    1CHOL    R310092   7.742   1.157   5.676 -0.0072 -0.0299 -0.0854
    1CHOL    R410093   7.965   1.298   5.805 -0.0880  0.1657 -0.1416
    1CHOL    R510094   7.863   1.356   5.621  0.0108 -0.0912 -0.2869
    1CHOL    C110095   8.220   1.318   5.491  0.0924 -0.2500 -0.0268
    1CHOL    C210096   8.580   1.226   5.285  0.3811  0.1279  0.0048
    1CHOL   ROH10097  11.051   7.714   3.618 -0.1245 -0.0448 -0.0870
    1CHOL    R110098  10.905   7.673   3.857  0.0002  0.1441  0.0224
    1CHOL    R210099  11.008   7.533   4.071 -0.0403 -0.0385 -0.0844
    1CHOL    R310100  10.944   7.758   4.209  0.4057  0.0409  0.0098
    1CHOL    R410101  10.920   7.540   4.406 -0.4924 -0.1002 -0.1939
    1CHOL    R510102  10.767   7.689   4.357 -0.0194  0.3945 -0.2967
    1CHOL    C110103  10.809   7.756   4.730 -0.3369 -0.0617 -0.1693
    1CHOL    C210104  10.707   7.938   4.993  0.1520 -0.4661 -0.1493
    1CHOL   ROH10105  11.226  14.506   3.266 -0.0595 -0.1443  0.1351
    1CHOL    R110106  11.250  14.584   3.537 -0.0237 -0.1311  0.1284
    1CHOL    R210107  11.083  14.772   3.654  0.0493 -0.0581  0.1177
    1CHOL    R310108  11.041  14.573   3.835 -0.0212 -0.0278  0.1342
    1CHOL    R410109  11.047  14.820   3.994  0.1269 -0.0215  0.1208
    1CHOL    R510110  11.167  14.641   4.027  0.0431 -0.0803  0.1107
    1CHOL    C110111  10.986  14.662   4.362  0.1059  0.0283  0.1380
    1CHOL    C210112  11.211  14.723   4.575  0.0399 -0.1288 -0.0318
    1CHOL   ROH10113  19.473   7.649   6.474 -0.0658 -0.0939 -0.0042
    1CHOL    R110114  19.505   7.759   6.215  0.0559 -0.0034  0.0483
    1CHOL    R210115  19.748   7.853   6.122  0.1286 -0.0867  0.1484
    1CHOL    R310116  19.698   7.682   5.917  0.0936  0.0207  0.0670
    1CHOL    R410117  19.930   7.839   5.829  0.3602 -0.2393  0.2960
    1CHOL    R510118  19.743   7.812   5.720  0.4160  0.0130  0.1318
    1CHOL    C110119  19.989   7.671   5.465  0.4622 -0.2274  0.3055
    1CHOL    C210120  20.375   7.531   5.381 -0.1622  0.1873  0.0549
    1CHOL   ROH10121   5.928  19.000   5.116 -0.0664  0.1649 -0.1886
    1CHOL    R110122   6.017  18.905   4.865  0.0627  0.0680 -0.1063
    1CHOL    R210123   6.132  19.070   4.675  0.0276  0.0198 -0.1623
    1CHOL    R310124   6.333  18.888   4.685  0.1277  0.1348 -0.0019
    1CHOL    R410125   6.276  18.919   4.400  0.1839 -0.0544 -0.0426
    1CHOL    R510126   6.281  18.732   4.512  0.2566  0.0067  0.0675
    1CHOL    C110127   6.549  18.659   4.249  0.3688  0.0106  0.1775
    1CHOL    C210128   6.731  18.801   3.950 -0.0760  0.0339  0.3759
    1CHOL   ROH10129  13.350  17.202   6.878 -0.0768 -0.0211 -0.1020
    1CHOL    R110130  13.282  17.336   6.638  0.0741  0.0825 -0.0881
    1CHOL    R210131  13.465  17.383   6.436  0.0813 -0.2983 -0.1751
    1CHOL    R310132  13.279  17.258   6.283 -0.2359  0.0366 -0.0790
    1CHOL    R410133  13.389  17.467   6.110  0.1498 -0.2271 -0.1730
    1CHOL    R510134  13.179  17.434   6.155  0.0838  0.2190 -0.0927
    1CHOL    C110135  13.171  17.398   5.776 -0.1080  0.1289 -0.0815
    1CHOL    C210136  12.995  17.383   5.440  0.2970  0.0207 -0.3225
    1CHOL   ROH10137  17.270  20.112   6.811 -0.0522 -0.1907 -0.0011
    1CHOL    R110138  17.327  20.223   6.557 -0.1369 -0.1092  0.0141
    1CHOL    R210139  17.575  20.201   6.438 -0.1230  0.0785 -0.0018
    1CHOL    R310140  17.431  20.097   6.232 -0.0645  0.0129 -0.0091
    1CHOL    R410141  17.698  20.144   6.120 -0.0873  0.1375  0.0016
    1CHOL    R510142  17.509  20.216   6.039 -0.1148  0.0481 -0.0045
    1CHOL    C110143  17.635  20.013   5.741 -0.0116  0.1104 -0.0031
    1CHOL    C210144  17.622  19.931   5.333  0.2606  0.1852 -0.2101
    1CHOL   ROH10145  10.238  14.966   3.352 -0.0291 -0.1953  0.0325
    1CHOL    R110146  10.226  15.045   3.624  0.1665 -0.1552  0.0317
    1CHOL    R210147  10.007  14.991   3.784  0.1381  0.1589  0.1060
    1CHOL    R310148  10.194  14.879   3.946  0.0379 -0.0907  0.0530
    1CHOL    R410149   9.956  14.906   4.115  0.0360 -0.0372  0.0411
    1CHOL    R510150  10.156  14.980   4.160  0.0847 -0.2124  0.1196
    1CHOL    C110151  10.102  14.750   4.460 -0.1177 -0.3856 -0.0465
    1CHOL    C210152  10.204  14.654   4.780 -0.2461  0.1942  0.1554
    1CHOL   ROH10153  18.599  16.036   3.231  0.0476  0.0049  0.0683
    1CHOL    R110154  18.466  16.010   3.480  0.0499 -0.1760  0.0521
    1CHOL    R210155  18.561  15.849   3.683  0.3613  0.1037  0.1370
    1CHOL    R310156  18.544  16.077   3.829 -0.1557  0.1381  0.0422
    1CHOL    R410157  18.504  15.863   4.023  0.5103  0.0970  0.1630
    1CHOL    R510158  18.373  16.033   3.990  0.0360 -0.2466  0.1548
    1CHOL    C110159  18.454  16.086   4.358  0.1117  0.1255  0.0891
    1CHOL    C210160  18.489  15.757   4.583  0.0344 -0.0360 -0.3341
    1CHOL   ROH10161   7.714  16.507   2.679  0.0825  0.0530  0.0793
    1CHOL    R110162   7.660  16.340   2.901 -0.0037  0.0291  0.0409
    1CHOL    R210163   7.791  16.365   3.143  0.0144 -0.0978  0.0471
    1CHOL    R310164   7.539  16.383   3.241  0.0241  0.0147  0.0522
    1CHOL    R410165   7.697  16.275   3.463 -0.0194 -0.0412  0.0529
    1CHOL    R510166   7.515  16.189   3.380 -0.0567  0.0329  0.0620
    1CHOL    C110167   7.405  16.239   3.742 -0.0299  0.0973  0.0611
    1CHOL    C210168   7.341  16.039   3.982  0.1288  0.2993 -0.2195
    1CHOL   ROH10169   9.944   1.460   4.413  0.2418  0.2243 -0.1779
    1CHOL    R110170   9.832   1.371   4.657  0.2291  0.0650 -0.2403
    1CHOL    R210171   9.986   1.312   4.879  0.2019  0.1348 -0.2006
    1CHOL    R310172   9.820   1.489   5.001  0.0095 -0.0349 -0.2122
    1CHOL    R410173   9.988   1.383   5.217  0.0614  0.0913 -0.1906
    1CHOL    R510174   9.770   1.387   5.212  0.0570 -0.1103 -0.2374
    1CHOL    C110175   9.833   1.591   5.529 -0.2011 -0.0933 -0.1956
    1CHOL    C210176   9.781   1.659   5.947 -0.2756 -0.0109 -0.0242
    1CHOL   ROH10177  11.489  15.307   3.294  0.0262  0.0614  0.0434
    1CHOL    R110178  11.347  15.370   3.531  0.1441  0.2262  0.0708
    1CHOL    R210179  11.294  15.181   3.726 -0.2986  0.2073 -0.0662
    1CHOL    R310180  11.414  15.363   3.889  0.1046 -0.1668  0.0770
    1CHOL    R410181  11.228  15.219   4.064 -0.4399  0.2710 -0.0985
    1CHOL    R510182  11.240  15.435   4.037  0.1801  0.2693 -0.0250
    1CHOL    C110183  11.303  15.411   4.413 -0.1437 -0.0433  0.0172
    1CHOL    C210184  11.263  15.534   4.807  0.1353  0.1051 -0.1594
    1CHOL   ROH10185   5.165  27.401   3.701  0.0790  0.0504 -0.0042
    1CHOL    R110186   5.230  27.361   3.974 -0.0512  0.0557  0.0276
    1CHOL    R210187   5.052  27.416   4.179 -0.2138 -0.1102 -0.0689
    1CHOL    R310188   5.103  27.159   4.248 -0.0612 -0.0841 -0.0779
    1CHOL    R410189   5.031  27.289   4.499 -0.1987 -0.1411 -0.0799
    1CHOL    R510190   5.211  27.174   4.461 -0.1124 -0.0248 -0.0528
    1CHOL    C110191   5.066  26.973   4.751 -0.0466 -0.1347 -0.0947
    1CHOL    C210192   5.096  26.677   5.047  0.0520  0.2572 -0.0742
    1CHOL   ROH10193  13.994   7.784   3.931 -0.1005  0.3988 -0.1304
    1CHOL    R110194  14.153   7.871   4.148 -0.0815  0.3458 -0.1236
    1CHOL    R210195  14.096   8.099   4.292 -0.1672  0.2174  0.0445
    1CHOL    R310196  14.105   7.929   4.505 -0.0011  0.0835 -0.0665
    1CHOL    R410197  14.108   8.198   4.623 -0.1237  0.0165  0.1046
    1CHOL    R510198  14.251   8.038   4.661 -0.0144  0.0731 -0.0433
    1CHOL    C110199  14.124   8.096   5.015  0.0574 -0.2264  0.0355
    1CHOL    C210200  14.155   8.232   5.418 -0.5388  0.0878  0.3752
    1CHOL   ROH10201   2.411  14.611   3.540  0.0363 -0.2066 -0.1012
    1CHOL    R110202   2.610  14.810   3.571 -0.1131 -0.0591 -0.0822
    1CHOL    R210203   2.626  14.971   3.794 -0.1426 -0.1771  0.0017
    1CHOL    R310204   2.882  14.879   3.803 -0.0571  0.0313 -0.1724
    1CHOL    R410205   2.873  15.096   4.001 -0.2159 -0.2337  0.1256
    1CHOL    R510206   3.014  15.076   3.836 -0.2245  0.1114  0.0659
    1CHOL    C110207   3.257  15.082   4.130 -0.1783 -0.0710  0.0343
    1CHOL    C210208   3.168  15.414   4.386  0.0966  0.0660  0.1886
    1CHOL   ROH10209  11.593  16.244   3.491  0.1404 -0.0621  0.1341
    1CHOL    R110210  11.513  16.214   3.761  0.1020 -0.0481  0.1229
    1CHOL    R210211  11.640  16.343   3.969 -0.0522  0.1148  0.1106
    1CHOL    R310212  11.389  16.432   4.025 -0.1380 -0.0713  0.0350
    1CHOL    R410213  11.510  16.382   4.287 -0.0067  0.4392  0.0942
    1CHOL    R510214  11.321  16.302   4.214  0.0526  0.1221  0.2488
    1CHOL    C110215  11.199  16.488   4.524 -0.0607  0.4534  0.0137
    1CHOL    C210216  11.248  16.406   4.802 -0.3369  0.0721  0.1744
    1CHOL   ROH10217  17.660  14.079   6.771  0.0966  0.0224 -0.2371
    1CHOL    R110218  17.797  14.152   6.534 -0.0275  0.1063 -0.2829
    1CHOL    R210219  17.896  13.966   6.355  0.1274  0.1649 -0.2516
    1CHOL    R310220  17.749  14.108   6.176 -0.0541 -0.0309 -0.2644
    1CHOL    R410221  17.939  13.957   6.013  0.2355  0.2824 -0.2430
    1CHOL    R510222  17.907  14.172   6.007 -0.1004  0.2427 -0.2147
    1CHOL    C110223  17.827  14.084   5.645  0.1280  0.1670 -0.2500
    1CHOL    C210224  17.605  13.955   5.399  0.1661  0.1768 -0.0190
    1CHOL   ROH10225  22.948  17.535   3.390 -0.0879  0.2520 -0.0032
    1CHOL    R110226  23.122  17.615   3.599 -0.0290  0.0532  0.0255
    1CHOL    R210227  23.277  17.436   3.741 -0.0228 -0.0877 -0.1604
    1CHOL    R310228  23.479  17.601   3.666 -0.0148 -0.0529 -0.0663
    1CHOL    R410229  23.570  17.481   3.918 -0.1034 -0.0556 -0.0323
    1CHOL    R510230  23.559  17.694   3.872 -0.1157 -0.0526 -0.0250
    1CHOL    C110231  23.931  17.662   3.950 -0.1430 -0.0042  0.1307
    1CHOL    C210232  24.114  17.568   4.383 -0.0830 -0.2255  0.0127
    1CHOL   ROH10233   8.322  28.366   6.895 -0.0137 -0.0974 -0.1643
    1CHOL    R110234   8.135  28.260   6.711 -0.0106 -0.2222 -0.0971
    1CHOL    R210235   8.052  28.399   6.488 -0.1832 -0.2774 -0.0701
    1CHOL    R310236   8.133  28.174   6.357 -0.0795 -0.2256 -0.0952
    1CHOL    R410237   7.908  28.278   6.197 -0.0914 -0.2878 -0.1114
    1CHOL    R510238   7.929  28.076   6.277 -0.0276 -0.2913 -0.1428
    1CHOL    C110239   7.901  27.998   5.905  0.0594 -0.2452 -0.1590
    1CHOL    C210240   7.867  27.958   5.495  0.1179  0.0040  0.2366
    1CHOL   ROH10241  16.747  14.437   3.298 -0.0151  0.0295 -0.2330
    1CHOL    R110242  16.606  14.401   3.541  0.0443 -0.1200 -0.2193
    1CHOL    R210243  16.724  14.292   3.767  0.1690 -0.0421 -0.2413
    1CHOL    R310244  16.635  14.520   3.883 -0.0182 -0.1288 -0.2123
    1CHOL    R410245  16.663  14.331   4.104  0.0149 -0.1610 -0.2546
    1CHOL    R510246  16.485  14.446   4.054 -0.0351 -0.2615 -0.2886
    1CHOL    C110247  16.544  14.568   4.411 -0.2506 -0.3116 -0.2350
    1CHOL    C210248  16.434  14.523   4.789 -0.2613 -0.1340  0.2767
    1CHOL   ROH10249  13.776   5.322   7.103  0.1131  0.0484  0.0114
    1CHOL    R110250  13.634   5.316   6.858 -0.0383  0.1556  0.0952
    1CHOL    R210251  13.510   5.539   6.753  0.1829  0.2859  0.1027
    1CHOL    R310252  13.659   5.479   6.534 -0.0169  0.0287  0.0329
    1CHOL    R410253  13.429   5.629   6.429  0.2132  0.4738  0.1462
    1CHOL    R510254  13.497   5.433   6.363 -0.1803  0.3483  0.0940
    1CHOL    C110255  13.522   5.625   6.035  0.0431  0.3418  0.1061
    1CHOL    C210256  13.458   5.559   5.590 -0.0022 -0.0237  0.0879
    1CHOL   ROH10257  13.243  27.678   4.520 -0.0084 -0.0824  0.1167
    1CHOL    R110258  13.210  27.613   4.793  0.0026 -0.0102  0.1350
    1CHOL    R210259  13.273  27.365   4.896 -0.0553 -0.0030  0.1843
    1CHOL    R310260  13.424  27.510   5.069  0.0030 -0.0059  0.1368
    1CHOL    R410261  13.316  27.291   5.231  0.1647 -0.0871  0.1395
    1CHOL    R510262  13.301  27.504   5.275  0.1247 -0.1024  0.2087
    1CHOL    C110263  13.483  27.385   5.588  0.3474 -0.1386  0.0687
    1CHOL    C210264  13.627  27.371   5.805  0.2686 -0.0649  0.1512
    1CHOL   ROH10265  14.594  17.900   6.310  0.0603  0.0474  0.0996
    1CHOL    R110266  14.551  17.719   6.097  0.0846  0.1475  0.0114
    1CHOL    R210267  14.300  17.670   5.990  0.0765  0.0567  0.0930
    1CHOL    R310268  14.422  17.737   5.757 -0.0680  0.2641  0.0716
    1CHOL    R410269  14.203  17.559   5.678  0.2232 -0.1510  0.1178
    1CHOL    R510270  14.414  17.537   5.626  0.2720  0.2230  0.0911
    1CHOL    C110271  14.261  17.557   5.277  0.1730 -0.0773  0.1121
    1CHOL    C210272  13.908  17.546   5.108 -0.2299 -0.2648 -0.0105
    1CHOL   ROH10273  12.414  25.913   3.706  0.0735  0.0617  0.0295
    1CHOL    R110274  12.561  25.993   3.935  0.0094  0.1602  0.0361
    1CHOL    R210275  12.472  26.191   4.107 -0.1896  0.0203  0.0954
    1CHOL    R310276  12.507  25.998   4.295  0.0379  0.0068  0.0433
    1CHOL    R410277  12.519  26.250   4.444 -0.3280 -0.0152  0.1220
    1CHOL    R510278  12.668  26.091   4.446 -0.1101  0.1808  0.0986
    1CHOL    C110279  12.579  26.104   4.817 -0.1951 -0.0485  0.0885
    1CHOL    C210280  12.680  26.396   5.024 -0.1212 -0.0847  0.0538
    1CHOL   ROH10281  18.013  25.651   4.089 -0.0615  0.0872  0.0998
    1CHOL    R110282  18.096  25.757   4.338  0.0222  0.0827  0.0736
    1CHOL    R210283  18.270  25.624   4.506  0.0101  0.0418  0.0496
    1CHOL    R310284  18.411  25.856   4.491  0.0848 -0.0052  0.0045
    1CHOL    R410285  18.560  25.690   4.682 -0.0675  0.0465  0.1779
    1CHOL    R510286  18.487  25.893   4.715 -0.0296  0.0883  0.0312
    1CHOL    C110287  18.861  25.946   4.771 -0.0428  0.0052  0.2102
    1CHOL    C210288  19.254  26.167   4.682 -0.2638  0.0950 -0.2094
    1CHOL   ROH10289   7.358  21.472   2.847  0.1572 -0.0406 -0.0045
    1CHOL    R110290   7.384  21.667   3.050  0.0678 -0.0156 -0.0174
    1CHOL    R210291   7.195  21.701   3.249  0.0729 -0.1164  0.0017
    1CHOL    R310292   7.409  21.669   3.413  0.1105  0.0183 -0.0196
    1CHOL    R410293   7.191  21.756   3.590  0.0187 -0.2854  0.0296
    1CHOL    R510294   7.388  21.847   3.572 -0.0695 -0.0754  0.0683
    1CHOL    C110295   7.390  21.758   3.943  0.0224 -0.2573  0.0258
    1CHOL    C210296   7.314  21.979   4.288  0.2323 -0.1959 -0.2901
    1CHOL   ROH10297   3.750  18.523   5.250  0.1228 -0.1220  0.0034
    1CHOL    R110298   3.770  18.655   5.001  0.0972 -0.0172  0.0559
    1CHOL    R210299   3.549  18.752   4.865  0.0788  0.0029  0.0987
    1CHOL    R310300   3.689  18.985   4.869  0.0415  0.0240  0.1912
    1CHOL    R410301   3.509  19.010   4.639  0.2370 -0.0340  0.0275
    1CHOL    R510302   3.725  19.036   4.638  0.2364 -0.0017  0.2140
    1CHOL    C110303   3.616  19.379   4.511  0.2941 -0.0352  0.0730
    1CHOL    C210304   3.784  19.735   4.340 -0.1068 -0.3781 -0.0472
    1CHOL   ROH10305  28.442  10.223   3.906  0.0457  0.0433  0.1662
    1CHOL    R110306  28.222  10.402   3.919  0.0106  0.0221 -0.0845
    1CHOL    R210307  28.128  10.504   4.158 -0.2462  0.0465 -0.1942
    1CHOL    R310308  28.165  10.743   4.033 -0.1445  0.0331 -0.1909
    1CHOL    R410309  28.011  10.808   4.273 -0.0095  0.1124 -0.1223
    1CHOL    R510310  27.960  10.861   4.068 -0.0582  0.1601 -0.0995
    1CHOL    C110311  27.978  11.209   4.224  0.2235  0.1380 -0.0773
    1CHOL    C210312  27.778  11.478   4.059  0.0592 -0.0077 -0.0367
    1CHOL   ROH10313  22.655  18.432   3.518 -0.1645  0.1124  0.1461
    1CHOL    R110314  22.585  18.341   3.777  0.0541 -0.0449  0.1521
    1CHOL    R210315  22.771  18.244   3.957  0.2756  0.2893  0.1044
    1CHOL    R310316  22.664  18.433   4.120 -0.0522  0.0770  0.1465
    1CHOL    R410317  22.733  18.212   4.299  0.4932  0.2017  0.1226
    1CHOL    R510318  22.539  18.309   4.281  0.2702 -0.1952  0.2040
    1CHOL    C110319  22.611  18.371   4.651  0.3121 -0.0483  0.1727
    1CHOL    C210320  22.405  18.515   4.903  0.0518  0.2450  0.1716
    1CHOL   ROH10321  13.047  13.543   3.617 -0.1624  0.0871 -0.0372
    1CHOL    R110322  12.889  13.544   3.852 -0.0334 -0.0462  0.0518
    1CHOL    R210323  12.978  13.436   4.091  0.2079  0.0632  0.0158
    1CHOL    R310324  12.915  13.683   4.187  0.0181  0.0134  0.0230
    1CHOL    R410325  12.911  13.509   4.422  0.2417  0.0210  0.0317
    1CHOL    R510326  12.751  13.641   4.357  0.1047 -0.1228  0.0735
    1CHOL    C110327  12.814  13.783   4.705  0.0831 -0.0501  0.0478
    1CHOL    C210328  12.877  13.857   5.067 -0.1712  0.0740 -0.2072
    1CHOL   ROH10329  15.331   9.179   7.096 -0.0628 -0.0483 -0.0036
    1CHOL    R110330  15.271   9.288   6.842 -0.0611  0.0111  0.0221
    1CHOL    R210331  15.413   9.222   6.614 -0.0147  0.1186  0.0216
    1CHOL    R310332  15.166   9.161   6.517  0.0142  0.0798 -0.0299
    1CHOL    R410333  15.341   9.161   6.282  0.1018 -0.0896  0.0324
    1CHOL    R510334  15.156   9.273   6.306  0.1025 -0.0546 -0.1081
    1CHOL    C110335  15.068   9.068   5.997  0.1967 -0.2472 -0.0095
    1CHOL    C210336  14.945   9.182   5.641  0.1794  0.1006 -0.1927
    1CHOL   ROH10337  10.151  13.634   3.484  0.0561 -0.3095  0.0584
    1CHOL    R110338  10.050  13.587   3.744 -0.1445 -0.1201  0.0173
    1CHOL    R210339  10.206  13.609   3.971 -0.1690 -0.4913  0.0753
    1CHOL    R310340  10.009  13.779   4.050  0.1679 -0.0594  0.0245
    1CHOL    R410341  10.100  13.650   4.297 -0.3564 -0.4862  0.0151
    1CHOL    R510342   9.895  13.660   4.224 -0.2822  0.0751 -0.1633
    1CHOL    C110343   9.854  13.833   4.562 -0.1494 -0.0777 -0.0676
    1CHOL    C210344   9.528  13.836   4.825 -0.1289  0.1312  0.0815
    1CHOL   ROH10345   4.576  13.983   4.573  0.1555  0.1657 -0.3455
    1CHOL    R110346   4.576  13.707   4.638  0.0472  0.2088 -0.1508
    1CHOL    R210347   4.668  13.513   4.463 -0.1530  0.0329 -0.0714
    1CHOL    R310348   4.825  13.444   4.675 -0.0674  0.1064 -0.1109
    1CHOL    R410349   4.828  13.209   4.502 -0.0567  0.0839 -0.0704
    1CHOL    R510350   4.777  13.213   4.712  0.0102  0.1015 -0.0581
    1CHOL    C110351   5.068  12.968   4.722  0.0797  0.1827 -0.1069
    1CHOL    C210352   5.451  12.884   4.729 -0.0057  0.0685 -0.2040
    1CHOL   ROH10353  18.659  18.913   4.164  0.0175 -0.1172 -0.0621
    1CHOL    R110354  18.758  18.921   4.430  0.0566 -0.1273 -0.0763
    1CHOL    R210355  18.694  19.123   4.607  0.2008 -0.0550 -0.1052
    1CHOL    R310356  18.616  18.916   4.765  0.0965  0.0203 -0.0568
    1CHOL    R410357  18.634  19.145   4.946  0.1474  0.0693 -0.1223
    1CHOL    R510358  18.731  18.952   4.971  0.0726  0.0404 -0.0468
    1CHOL    C110359  18.526  18.964   5.292  0.0182  0.2126 -0.0868
    1CHOL    C210360  18.787  19.025   5.665  0.1115  0.1580  0.0416
    1CHOL   ROH10361  14.487  20.323   6.847  0.0633 -0.4028 -0.1054
    1CHOL    R110362  14.602  20.466   6.632  0.0270 -0.1884  0.0155
    1CHOL    R210363  14.630  20.358   6.379  0.2446 -0.0414 -0.0239
    1CHOL    R310364  14.495  20.582   6.304  0.0669 -0.1302  0.0221
    1CHOL    R410365  14.631  20.491   6.060  0.2862  0.1218  0.0425
    1CHOL    R510366  14.642  20.690   6.148  0.0484  0.0917  0.1526
    1CHOL    C110367  14.505  20.778   5.803  0.1437  0.1335  0.1243
    1CHOL    C210368  14.673  21.002   5.490 -0.2550 -0.0516 -0.2030
    1CHOL   ROH10369  14.997   9.014   3.755  0.3168  0.0301 -0.1786
    1CHOL    R110370  15.117   9.130   3.984  0.1382  0.0648 -0.1012
    1CHOL    R210371  14.969   9.243   4.188 -0.0260 -0.0012 -0.1824
    1CHOL    R310372  15.111   9.071   4.343 -0.0516  0.0456 -0.1061
    1CHOL    R410373  14.988   9.258   4.533 -0.0286  0.1439 -0.1877
    1CHOL    R510374  15.200   9.209   4.518 -0.0351  0.1085 -0.1635
    1CHOL    C110375  15.133   9.106   4.879 -0.0541  0.2722 -0.1192
    1CHOL    C210376  15.404   9.223   5.159  0.0097  0.0595  0.3578
    1CHOL   ROH10377   9.447  13.054   3.232 -0.0877  0.1638 -0.0790
    1CHOL    R110378   9.323  13.055   3.487 -0.0643  0.2713 -0.0674
    1CHOL    R210379   9.384  12.869   3.682 -0.3177  0.1204 -0.1276
    1CHOL    R310380   9.431  13.091   3.833  0.0246  0.0122 -0.0661
    1CHOL    R410381   9.414  12.871   4.027 -0.3568 -0.0158 -0.1229
    1CHOL    R510382   9.300  13.057   4.031 -0.0586  0.1736 -0.0918
    1CHOL    C110383   9.476  13.080   4.368 -0.0583 -0.1967 -0.0624
    1CHOL    C210384   9.406  13.077   4.722  0.1204  0.1438  0.1957
    1CHOL   ROH10385   6.980  26.897   5.393  0.3318  0.2220 -0.3378
    1CHOL    R110386   6.910  26.674   5.234  0.1082  0.1935 -0.2065
    1CHOL    R210387   6.993  26.647   4.971  0.0383 -0.0206 -0.2135
    1CHOL    R310388   7.087  26.408   5.060 -0.1511 -0.0530 -0.0981
    1CHOL    R410389   7.074  26.379   4.769  0.1249 -0.0759 -0.1050
    1CHOL    R510390   6.984  26.247   4.916 -0.0766 -0.0221 -0.1821
    1CHOL    C110391   7.209  25.998   4.734 -0.0024 -0.1387  0.0666
    1CHOL    C210392   7.480  25.698   4.823 -0.0002 -0.0204 -0.1137
    1CHOL   ROH10393  17.725  12.380   6.573 -0.1900 -0.1251 -0.0957
    1CHOL    R110394  17.694  12.524   6.331 -0.0420 -0.0750 -0.0868
    1CHOL    R210395  17.898  12.552   6.147  0.0628 -0.0652  0.0258
    1CHOL    R310396  17.714  12.451   5.975  0.1411 -0.0114 -0.0900
    1CHOL    R410397  17.949  12.505   5.809  0.2296 -0.0013  0.0416
    1CHOL    R510398  17.746  12.575   5.773  0.2563  0.0252 -0.0482
    1CHOL    C110399  17.806  12.381   5.450  0.4003  0.0864 -0.0581
    1CHOL    C210400  17.993  12.147   5.134  0.2675 -0.0021 -0.0651
    1CHOL   ROH10401   7.837  12.405   3.439  0.1024  0.0197 -0.0595
    1CHOL    R110402   7.831  12.419   3.721  0.0379  0.0373 -0.0605
    1CHOL    R210403   8.002  12.583   3.865  0.0690 -0.0176 -0.0244
    1CHOL    R310404   7.769  12.676   3.972  0.0755  0.0772 -0.0943
    1CHOL    R410405   7.965  12.698   4.189 -0.0034 -0.0454 -0.0233
    1CHOL    R510406   7.772  12.597   4.198 -0.0496  0.0480 -0.1074
    1CHOL    C110407   7.725  12.852   4.478 -0.0396  0.0274 -0.0883
    1CHOL    C210408   7.989  12.890   4.782 -0.1958  0.0079 -0.0057
    1CHOL   ROH10409  14.944   6.215   4.318 -0.0283 -0.0655 -0.0258
    1CHOL    R110410  14.967   6.397   4.534  0.0574  0.0989 -0.1733
    1CHOL    R210411  14.828   6.366   4.771  0.0283  0.3687 -0.1607
    1CHOL    R310412  15.076   6.383   4.881  0.0287  0.3286 -0.1513
    1CHOL    R410413  14.892   6.410   5.107  0.0136  0.0947 -0.1186
    1CHOL    R510414  15.053   6.547   5.054 -0.0120  0.1818 -0.0077
    1CHOL    C110415  15.162   6.451   5.407  0.0055 -0.1025 -0.0855
    1CHOL    C210416  15.402   6.347   5.737 -0.2348 -0.0523 -0.1309
    1CHOL   ROH10417  15.089  16.682   3.382 -0.0743 -0.2155 -0.0274
    1CHOL    R110418  15.187  16.718   3.645 -0.0046 -0.1448 -0.0628
    1CHOL    R210419  15.031  16.673   3.869  0.0050  0.0679 -0.0116
    1CHOL    R310420  15.237  16.509   3.939 -0.0865 -0.0296  0.0338
    1CHOL    R410421  15.099  16.568   4.192 -0.0411  0.1328  0.0199
    1CHOL    R510422  15.312  16.595   4.150 -0.0270 -0.0044  0.0022
    1CHOL    C110423  15.332  16.354   4.445 -0.1538  0.0792  0.0808
    1CHOL    C210424  15.319  16.342   4.857 -0.0055  0.1092  0.4092
    1CHOL   ROH10425  20.803  11.943   6.655 -0.0293 -0.2638  0.1702
    1CHOL    R110426  21.015  11.909   6.471 -0.0300 -0.2820  0.1728
    1CHOL    R210427  21.011  11.715   6.275 -0.1734 -0.0971 -0.0090
    1CHOL    R310428  21.057  11.926   6.110  0.0436  0.0171  0.1925
    1CHOL    R410429  21.193  11.700   5.982 -0.4234 -0.0830 -0.1687
    1CHOL    R510430  21.281  11.893   6.033 -0.0618 -0.2750 -0.0152
    1CHOL    C110431  21.343  11.890   5.657 -0.3653  0.0325 -0.0725
    1CHOL    C210432  21.557  11.962   5.378 -0.0484 -0.2225  0.1189
    1CHOL   ROH10433  17.183  12.223   3.275 -0.2959 -0.0152  0.1254
    1CHOL    R110434  17.317  12.322   3.503 -0.1486 -0.0870  0.0707
    1CHOL    R210435  17.191  12.473   3.697  0.0247  0.0275  0.0957
    1CHOL    R310436  17.289  12.283   3.864 -0.0590 -0.0256  0.0848
    1CHOL    R410437  17.251  12.518   4.034  0.1193  0.0082  0.0818
    1CHOL    R510438  17.434  12.402   4.012  0.0450 -0.1064  0.0504
    1CHOL    C110439  17.377  12.365   4.388  0.0959 -0.0529  0.0636
    1CHOL    C210440  17.519  12.298   4.751  0.0626  0.3136 -0.0256
    1CHOL   ROH10441  22.367  15.487   6.278  0.0755  0.2509 -0.0989
    1CHOL    R110442  22.392  15.614   6.026 -0.0417  0.2433 -0.1149
    1CHOL    R210443  22.467  15.478   5.798 -0.0002  0.2659 -0.1147
    1CHOL    R310444  22.237  15.584   5.699 -0.0803  0.1224 -0.0863
    1CHOL    R410445  22.343  15.420   5.480 -0.0435  0.1288 -0.0738
    1CHOL    R510446  22.287  15.630   5.469 -0.1573  0.0977 -0.1086
    1CHOL    C110447  22.055  15.487   5.202 -0.1437 -0.0856 -0.0234
    1CHOL    C210448  21.956  15.238   4.854 -0.2034 -0.0522  0.0730
    1CHOL   ROH10449  26.521  11.433   5.483  0.1759  0.2105  0.3107
    1CHOL    R110450  26.559  11.519   5.216  0.0150  0.1778  0.2763
    1CHOL    R210451  26.572  11.788   5.146  0.0744  0.1698  0.2496
    1CHOL    R310452  26.808  11.712   5.033 -0.0379  0.0637  0.0816
    1CHOL    R410453  26.711  11.926   4.861  0.0675  0.2923  0.3052
    1CHOL    R510454  26.770  11.727   4.798 -0.1284  0.2938  0.1099
    1CHOL    C110455  27.012  11.935   4.590 -0.0419  0.2641  0.1800
    1CHOL    C210456  27.059  11.896   4.208 -0.0946 -0.2643  0.0594
    1CHOL   ROH10457  19.032   5.207   6.598  0.3182  0.0239  0.0172
    1CHOL    R110458  18.989   5.021   6.389  0.1578 -0.0118  0.0791
    1CHOL    R210459  18.884   5.094   6.144  0.0876 -0.0294  0.0984
    1CHOL    R310460  19.108   4.974   6.049  0.0032 -0.1425  0.0432
    1CHOL    R410461  18.932   4.999   5.816  0.0057  0.0381  0.0674
    1CHOL    R510462  19.027   4.816   5.888 -0.1052 -0.0413  0.0022
    1CHOL    C110463  19.170   4.831   5.534 -0.1213 -0.0287 -0.0025
    1CHOL    C210464  19.296   4.642   5.185  0.0139  0.2234 -0.2157
    1CHOL   ROH10465  17.170  14.461   5.147 -0.1731  0.1002  0.0255
    1CHOL    R110466  17.183  14.243   4.967 -0.0984  0.0991  0.0314
    1CHOL    R210467  17.344  14.023   5.011 -0.0586  0.1338  0.0611
    1CHOL    R310468  17.111  13.886   4.979 -0.0249  0.0843  0.0271
    1CHOL    R410469  17.319  13.679   4.982  0.0259  0.1359 -0.0442
    1CHOL    R510470  17.167  13.708   4.829  0.0139  0.1447 -0.0295
    1CHOL    C110471  17.086  13.351   4.936  0.1067  0.0909 -0.1374
    1CHOL    C210472  17.238  12.941   4.962  0.1637  0.2670  0.0944
    1CHOL   ROH10473  11.274  11.397   6.734 -0.2486  0.2473 -0.1755
    1CHOL    R110474  11.310  11.503   6.474 -0.1521  0.1472 -0.2051
    1CHOL    R210475  11.446  11.368   6.275 -0.0990  0.0558 -0.1154
    1CHOL    R310476  11.216  11.409   6.135 -0.0525  0.0280 -0.1980
    1CHOL    R410477  11.400  11.286   5.942 -0.0683 -0.1926 -0.0596
    1CHOL    R510478  11.291  11.473   5.916  0.0096 -0.1773 -0.2335
    1CHOL    C110479  11.158  11.277   5.617 -0.0069 -0.3633 -0.1046
    1CHOL    C210480  11.380  11.455   5.240 -0.1521  0.1326  0.0875
    1CHOL   ROH10481   7.064  20.654   4.270  0.0496 -0.1923  0.0703
    1CHOL    R110482   7.128  20.910   4.168  0.1245 -0.1799  0.1465
    1CHOL    R210483   7.372  21.032   4.214  0.1913 -0.2989  0.1166
    1CHOL    R310484   7.378  21.049   3.942  0.1127 -0.2005  0.1208
    1CHOL    R410485   7.566  21.255   4.035  0.1585 -0.2513  0.1407
    1CHOL    R510486   7.398  21.284   3.898  0.1209 -0.1862  0.2007
    1CHOL    C110487   7.685  21.402   3.676  0.0657 -0.1312  0.1587
    1CHOL    C210488   8.039  21.464   3.525 -0.3389 -0.2453  0.2428
    1CHOL   ROH10489  10.392  19.482   3.535 -0.0365  0.0640 -0.0952
    1CHOL    R110490  10.177  19.433   3.712 -0.0169  0.2462 -0.0216
    1CHOL    R210491  10.194  19.253   3.920 -0.1213  0.1750 -0.0877
    1CHOL    R310492  10.114  19.466   4.069  0.1588  0.2146  0.0162
    1CHOL    R410493  10.043  19.233   4.231 -0.3540  0.1892 -0.1954
    1CHOL    R510494   9.910  19.395   4.171 -0.0442  0.4798 -0.1689
    1CHOL    C110495   9.881  19.421   4.551 -0.2264  0.2348 -0.1605
    1CHOL    C210496   9.659  19.355   4.863 -0.1429 -0.0007  0.2063
    1CHOL   ROH10497  22.636  17.286   3.214 -0.0004  0.2325  0.0264
    1CHOL    R110498  22.679  17.094   3.418 -0.0943  0.2294  0.0418
    1CHOL    R210499  22.923  17.062   3.543 -0.1562  0.2260  0.1479
    1CHOL    R310500  22.775  17.097   3.769 -0.2530  0.2176  0.0883
    1CHOL    R410501  22.958  16.878   3.834 -0.0803  0.3895  0.2445
    1CHOL    R510502  22.741  16.876   3.853 -0.0933  0.2216  0.1818
    1CHOL    C110503  22.840  16.805   4.215 -0.1270  0.4769  0.2449
    1CHOL    C210504  22.853  16.720   4.631  0.0959 -0.1273  0.1655
    1CHOL   ROH10505  11.993   7.449   6.634  0.0613 -0.2271 -0.0317
    1CHOL    R110506  11.864   7.490   6.385 -0.0289 -0.2465  0.0114
    1CHOL    R210507  12.001   7.493   6.145 -0.1000 -0.1603 -0.0299
    1CHOL    R310508  11.820   7.302   6.077 -0.0440 -0.2251  0.0013
    1CHOL    R410509  11.939   7.387   5.822 -0.1346 -0.1731 -0.0193
    1CHOL    R510510  11.726   7.381   5.870 -0.1197 -0.2544  0.0261
    1CHOL    C110511  11.732   7.146   5.570 -0.1022 -0.2415  0.0163
    1CHOL    C210512  11.539   7.281   5.292  0.2661 -0.2763 -0.2750
    1CHOL   ROH10513   9.786  16.743   3.084  0.0667 -0.1887 -0.0247
    1CHOL    R110514   9.867  16.584   3.303  0.1529 -0.0882  0.0180
    1CHOL    R210515   9.933  16.691   3.549  0.0862  0.0120 -0.0048
    1CHOL    R310516   9.747  16.515   3.640  0.1825 -0.0718  0.0315
    1CHOL    R410517   9.876  16.618   3.882 -0.0338  0.2269  0.0233
    1CHOL    R510518   9.852  16.408   3.827  0.1703  0.1616  0.1739
    1CHOL    C110519   9.669  16.411   4.161 -0.0132  0.2734  0.0736
    1CHOL    C210520   9.538  16.239   4.396 -0.0959  0.2953 -0.3100
    1CHOL   ROH10521  15.828   7.591   7.002  0.3141  0.0104 -0.0172
    1CHOL    R110522  15.724   7.396   6.825  0.3788 -0.1259  0.0924
    1CHOL    R210523  15.609   7.462   6.582  0.0625 -0.2740  0.1979
    1CHOL    R310524  15.791   7.285   6.485  0.1872 -0.0581  0.0299
    1CHOL    R410525  15.562   7.266   6.301  0.0757 -0.2408  0.1729
    1CHOL    R510526  15.658   7.101   6.407  0.3208 -0.1757  0.0667
    1CHOL    C110527  15.705   6.986   6.046  0.2004 -0.0186  0.0006
    1CHOL    C210528  15.213   6.768   6.103 -0.2507  0.0039 -0.1307
    1CHOL   ROH10529  11.907  13.541   3.434 -0.3072  0.1265 -0.0493
    1CHOL    R110530  11.881  13.736   3.638  0.1242  0.0637  0.0755
    1CHOL    R210531  11.672  13.735   3.818 -0.0643  0.5805 -0.1247
    1CHOL    R310532  11.872  13.738   4.002 -0.2012 -0.2039  0.0742
    1CHOL    R410533  11.630  13.812   4.152 -0.1012  0.7094 -0.1580
    1CHOL    R510534  11.818  13.923   4.144  0.3595  0.0103  0.0314
    1CHOL    C110535  11.794  13.860   4.520 -0.2513  0.0481  0.0092
    1CHOL    C210536  11.804  14.123   4.853 -0.1659 -0.1126  0.0436
    1CHOL   ROH10537   1.740  12.918   5.654  0.2793  0.0374  0.0876
    1CHOL    R110538   1.658  12.870   5.387  0.3255 -0.0298  0.0846
    1CHOL    R210539   1.512  13.054   5.242 -0.0280 -0.2390  0.1588
    1CHOL    R310540   1.714  13.024   5.062  0.0097  0.1745  0.1231
    1CHOL    R410541   1.471  13.043   4.899 -0.0370 -0.1319  0.1565
    1CHOL    R510542   1.621  12.884   4.891  0.2187  0.1091  0.0618
    1CHOL    C110543   1.637  13.008   4.530 -0.0069  0.3187  0.1215
    1CHOL    C210544   1.522  12.750   4.162  0.3715 -0.0100  0.1949
    1CHOL   ROH10545  10.280  17.537   6.270  0.2350 -0.0263  0.1141
    1CHOL    R110546  10.414  17.546   6.021  0.1490 -0.1590  0.0608
    1CHOL    R210547  10.416  17.333   5.845 -0.1072 -0.1767  0.0668
    1CHOL    R310548  10.322  17.519   5.670 -0.0151 -0.0988  0.1002
    1CHOL    R410549  10.471  17.330   5.504 -0.0426 -0.0814  0.0763
    1CHOL    R510550  10.498  17.545   5.510  0.0182 -0.0983  0.1447
    1CHOL    C110551  10.414  17.502   5.141  0.0816  0.0468  0.1133
    1CHOL    C210552  10.441  17.465   4.762  0.0061  0.2309 -0.0050
    1CHOL   ROH10553   4.893  14.409   3.386  0.0860  0.0299  0.1534
    1CHOL    R110554   4.787  14.614   3.550  0.1652  0.0479  0.1819
    1CHOL    R210555   4.547  14.741   3.495  0.3231  0.3046  0.0743
    1CHOL    R310556   4.486  14.665   3.749  0.0702  0.2329 -0.0048
    1CHOL    R410557   4.281  14.862   3.678  0.2764  0.4323 -0.0749
    1CHOL    R510558   4.409  14.866   3.854  0.1500  0.2479  0.0283
    1CHOL    C110559   4.068  14.861   4.024  0.0119  0.4392 -0.2360
    1CHOL    C210560   3.755  15.008   4.035  0.0120 -0.0349  0.0881
    1CHOL   ROH10561  10.215   8.969   3.887  0.2106 -0.1173 -0.1998
    1CHOL    R110562  10.178   8.916   4.163  0.0143  0.1970 -0.1594
    1CHOL    R210563  10.294   8.699   4.289 -0.4731  0.0482  0.0649
    1CHOL    R310564  10.390   8.890   4.458 -0.1178  0.0054 -0.0812
    1CHOL    R410565  10.322   8.663   4.632 -0.4084  0.2168  0.0776
    1CHOL    R510566  10.254   8.869   4.654 -0.0812  0.3374 -0.0196
    1CHOL    C110567  10.429   8.821   4.990 -0.0372  0.2747 -0.0520
    1CHOL    C210568  10.673   8.753   5.258 -0.2106 -0.2580  0.0132
    1CHOL   ROH10569   7.840   2.350   6.657 -0.0636  0.3126 -0.0989
    1CHOL    R110570   7.935   2.460   6.413  0.1606  0.3057 -0.0182
    1CHOL    R210571   8.204   2.482   6.355  0.2173 -0.0730  0.0566
    1CHOL    R310572   8.134   2.344   6.131  0.0510  0.1528 -0.0330
    1CHOL    R410573   8.383   2.478   6.059  0.2150 -0.1042  0.0566
    1CHOL    R510574   8.195   2.488   5.950  0.2266  0.1932  0.0592
    1CHOL    C110575   8.422   2.347   5.678  0.0575  0.0897 -0.0276
    1CHOL    C210576   8.395   2.548   5.419 -0.1390 -0.2802  0.2058
    1CHOL   ROH10577   8.778  17.333   3.128 -0.1376 -0.3886  0.1070
    1CHOL    R110578   8.626  17.243   3.349 -0.3016 -0.0566  0.1376
    1CHOL    R210579   8.700  17.293   3.610 -0.1071 -0.2559  0.1309
    1CHOL    R310580   8.448  17.395   3.628  0.1282  0.3482  0.2004
    1CHOL    R410581   8.523  17.332   3.905 -0.1477 -0.3656  0.1207
    1CHOL    R510582   8.344  17.266   3.800 -0.2790  0.2784 -0.0933
    1CHOL    C110583   8.184  17.451   4.093  0.0498  0.1374  0.1800
    1CHOL    C210584   8.271  17.629   4.474  0.5529  0.0893 -0.0937
    1CHOL   ROH10585   0.622  23.825   5.869  0.0010 -0.0288  0.0514
    1CHOL    R110586   0.569  23.735   5.606 -0.1023 -0.0196  0.0686
    1CHOL    R210587   0.320  23.757   5.488 -0.0997  0.1667  0.0951
    1CHOL    R310588   0.460  23.884   5.292 -0.0190  0.0306  0.0628
    1CHOL    R410589   0.286  23.695   5.150 -0.1880  0.1489  0.1069
    1CHOL    R510590   0.503  23.714   5.130 -0.1737 -0.0267  0.0797
    1CHOL    C110591   0.397  23.779   4.769 -0.1637  0.0109  0.0835
    1CHOL    C210592   0.300  23.784   4.437 -0.1234  0.0704  0.1100
    1CHOL   ROH10593  20.412  18.666   3.943  0.2095 -0.0058  0.0030
    1CHOL    R110594  20.538  18.657   4.197  0.0583 -0.1721  0.0740
    1CHOL    R210595  20.502  18.854   4.388  0.2725 -0.0793  0.0200
    1CHOL    R310596  20.431  18.643   4.545 -0.1592  0.0562  0.0201
    1CHOL    R410597  20.493  18.859   4.733  0.3891 -0.0847  0.0233
    1CHOL    R510598  20.577  18.658   4.733 -0.0595 -0.2876 -0.0214
    1CHOL    C110599  20.422  18.665   5.082  0.0519  0.0394  0.0254
    1CHOL    C210600  20.096  18.643   5.279 -0.1867 -0.0445  0.3296
    1CHOL   ROH10601  11.546  17.591   6.522  0.0854  0.1664  0.1254
    1CHOL    R110602  11.461  17.493   6.270  0.1454  0.0560  0.1479
    1CHOL    R210603  11.414  17.659   6.054 -0.1774  0.0042  0.1754
    1CHOL    R310604  11.590  17.493   5.930  0.0330  0.2735  0.1027
    1CHOL    R410605  11.431  17.608   5.713 -0.3410 -0.0696  0.1771
    1CHOL    R510606  11.464  17.396   5.750  0.0646 -0.0078  0.2246
    1CHOL    C110607  11.606  17.422   5.397 -0.2389  0.1401  0.1098
    1CHOL    C210608  11.697  17.626   5.037  0.0685  0.2510  0.0161
    1CHOL   ROH10609  25.828   9.653   5.017  0.1212 -0.0790  0.1297
    1CHOL    R110610  25.769   9.646   4.740  0.0700 -0.0213  0.1373
    1CHOL    R210611  25.877   9.826   4.560 -0.0070  0.0599  0.1557
    1CHOL    R310612  25.955   9.600   4.431  0.0280  0.1088  0.0958
    1CHOL    R410613  26.040   9.818   4.255  0.0849  0.1489  0.2032
    1CHOL    R510614  25.917   9.647   4.200  0.1060  0.1808  0.1062
    1CHOL    C110615  26.207   9.601   3.956  0.1714  0.2466  0.1746
    1CHOL    C210616  26.267   9.620   3.732 -0.2289 -0.0154 -0.2194
    1CHOL   ROH10617   7.602  24.568   5.422 -0.0756 -0.0762  0.0694
    1CHOL    R110618   7.661  24.791   5.258 -0.0775 -0.0571  0.0945
    1CHOL    R210619   7.798  25.012   5.351  0.0346 -0.1212  0.0861
    1CHOL    R310620   7.961  24.960   5.140 -0.0751 -0.1260  0.0014
    1CHOL    R410621   8.065  25.209   5.254 -0.0182 -0.1216 -0.0631
    1CHOL    R510622   8.008  25.176   5.046 -0.1268 -0.1294 -0.0318
    1CHOL    C110623   8.373  25.275   5.000 -0.1519 -0.1260 -0.2294
    1CHOL    C210624   8.613  25.309   5.134  0.0666  0.0123 -0.0055
    1CHOL   ROH10625   7.377  11.702   6.637  0.1352  0.0633 -0.1937
    1CHOL    R110626   7.202  11.816   6.447  0.0988  0.1313 -0.1201
    1CHOL    R210627   7.279  11.871   6.187 -0.0170  0.0105 -0.1818
    1CHOL    R310628   7.062  11.721   6.125 -0.1574  0.1395 -0.0136
    1CHOL    R410629   7.141  11.846   5.872 -0.2146  0.0143 -0.0962
    1CHOL    R510630   6.943  11.852   5.964 -0.1603  0.1753  0.0170
    1CHOL    C110631   6.856  11.690   5.630 -0.4614  0.1376  0.1115
    1CHOL    C210632   6.671  11.559   5.298  0.0285  0.0055  0.0879
    1CHOL   ROH10633  21.542   3.086   6.172 -0.2607 -0.1419 -0.0775
    1CHOL    R110634  21.484   3.143   5.901 -0.2593  0.1669 -0.0160
    1CHOL    R210635  21.469   3.401   5.803  0.2018  0.2732  0.1789
    1CHOL    R310636  21.652   3.309   5.624 -0.0423  0.0453  0.0387
    1CHOL    R410637  21.482   3.490   5.469 -0.0367  0.1479  0.1342
    1CHOL    R510638  21.529   3.283   5.421 -0.2639  0.0817  0.1605
    1CHOL    C110639  21.661   3.455   5.107 -0.4047 -0.1389 -0.0234
    1CHOL    C210640  21.703   3.654   4.810 -0.0032 -0.0089 -0.0471
    1CHOL   ROH10641  22.046  28.311   4.605 -0.0731  0.0198 -0.0484
    1CHOL    R110642  22.189  28.515   4.739 -0.0751  0.0603 -0.1082
    1CHOL    R210643  22.376  28.462   4.936 -0.1807  0.1258  0.0089
    1CHOL    R310644  22.538  28.612   4.778 -0.0638 -0.0165 -0.0089
    1CHOL    R410645  22.697  28.559   5.018 -0.1634  0.0190  0.0697
    1CHOL    R510646  22.655  28.754   4.931 -0.0502  0.0009 -0.0330
    1CHOL    C110647  23.037  28.756   4.918 -0.0434 -0.1771  0.0884
    1CHOL    C210648  23.013  29.080   4.768 -0.3112  0.0145  0.1539
    1CHOL   ROH10649  25.074  24.609   5.894 -0.1348 -0.0518 -0.0319
    1CHOL    R110650  25.080  24.332   5.840 -0.1457 -0.0443 -0.0718
    1CHOL    R210651  24.982  24.143   6.016 -0.0313 -0.0745 -0.0400
    1CHOL    R310652  24.836  24.064   5.801 -0.1490 -0.0568  0.0326
    1CHOL    R410653  24.791  23.855   6.002 -0.0018 -0.0975  0.0250
    1CHOL    R510654  24.860  23.826   5.797 -0.1190 -0.0532 -0.0218
    1CHOL    C110655  24.543  23.614   5.792 -0.0950 -0.0941  0.1309
    1CHOL    C210656  24.515  23.297   5.903 -0.0017  0.0169  0.0601
    1CHOL   ROH10657  14.480   7.151   7.331  0.3187 -0.0948  0.0315
    1CHOL    R110658  14.407   7.123   7.059  0.1183 -0.1482  0.0888
    1CHOL    R210659  14.585   7.037   6.867 -0.0183 -0.1704 -0.0286
    1CHOL    R310660  14.392   6.852   6.816 -0.0443 -0.1924  0.1473
    1CHOL    R410661  14.592   6.810   6.605 -0.2713 -0.1125 -0.0886
    1CHOL    R510662  14.378   6.844   6.577 -0.3114 -0.1428  0.1580
    1CHOL    C110663  14.415   6.505   6.406 -0.4430 -0.0995  0.0416
    1CHOL    C210664  14.375   6.469   6.086  0.1927  0.1261  0.0484
    1CHOL   ROH10665  17.949  11.175   6.589 -0.1071  0.2752 -0.0104
    1CHOL    R110666  17.883  11.298   6.343 -0.0856  0.1462 -0.0824
    1CHOL    R210667  17.900  11.165   6.101 -0.1449 -0.0102 -0.0083
    1CHOL    R310668  17.641  11.244   6.077 -0.1222  0.0561 -0.0289
    1CHOL    R410669  17.717  11.152   5.808 -0.2910 -0.4351  0.0940
    1CHOL    R510670  17.631  11.346   5.860 -0.1825 -0.3111 -0.2005
    1CHOL    C110671  17.368  11.219   5.614 -0.3547 -0.6202  0.1342
    1CHOL    C210672  17.587  11.228   5.192  0.0505 -0.0969 -0.3015
    1CHOL   ROH10673  15.754  18.825   3.506  0.0222  0.1942  0.0316
    1CHOL    R110674  15.824  18.730   3.764  0.1293  0.1545 -0.0121
    1CHOL    R210675  15.821  18.891   3.988 -0.1557  0.0260  0.0791
    1CHOL    R310676  15.660  18.695   4.087  0.1275 -0.2835 -0.0540
    1CHOL    R410677  15.788  18.813   4.323 -0.3220  0.0051  0.0593
    1CHOL    R510678  15.785  18.601   4.268  0.1451 -0.0164  0.0770
    1CHOL    C110679  15.618  18.583   4.611 -0.1529 -0.2975 -0.0771
    1CHOL    C210680  15.745  18.408   5.009  0.0587 -0.0369 -0.1229
    1CHOL   ROH10681   8.948   8.902   3.610  0.1595  0.1657 -0.1224
    1CHOL    R110682   8.967   8.780   3.865  0.0469  0.0417 -0.1726
    1CHOL    R210683   9.118   8.552   3.910  0.1050  0.0749 -0.1971
    1CHOL    R310684   9.232   8.706   4.103 -0.0725  0.0202 -0.0459
    1CHOL    R410685   9.211   8.439   4.222  0.0975 -0.0870 -0.2525
    1CHOL    R510686   9.136   8.625   4.307 -0.0731 -0.2076 -0.1338
    1CHOL    C110687   9.373   8.517   4.586 -0.0735 -0.2328 -0.1428
    1CHOL    C210688   9.293   8.455   4.860  0.1051 -0.1046 -0.1554
    1CHOL   ROH10689   9.907  13.151   3.334  0.2412 -0.0660  0.0296
    1CHOL    R110690   9.821  13.172   3.602  0.1096  0.0187 -0.0173
    1CHOL    R210691   9.897  12.991   3.797 -0.0244  0.0498  0.0693
    1CHOL    R310692   9.978  13.216   3.928 -0.0436  0.0670  0.0501
    1CHOL    R410693   9.865  13.044   4.137 -0.3211  0.2118  0.0188
    1CHOL    R510694   9.810  13.251   4.095 -0.1849  0.2184 -0.1222
    1CHOL    C110695   9.922  13.285   4.458 -0.5118  0.3223 -0.0286
    1CHOL    C210696   9.759  13.379   4.841 -0.0523 -0.1345 -0.0398
    1CHOL   ROH10697  25.165   4.300   5.508 -0.1936  0.0050  0.0684
    1CHOL    R110698  24.944   4.230   5.345 -0.1017 -0.0263 -0.0442
    1CHOL    R210699  24.864   3.969   5.307 -0.0542 -0.0389 -0.0754
    1CHOL    R310700  24.624   4.064   5.390 -0.1066 -0.0595 -0.2025
    1CHOL    R410701  24.561   3.809   5.258 -0.0060 -0.1100 -0.1426
    1CHOL    R510702  24.472   4.003   5.215 -0.0264 -0.1443 -0.2406
    1CHOL    C110703  24.159   3.806   5.308 -0.0275 -0.1707 -0.3011
    1CHOL    C210704  23.953   3.473   5.468 -0.5373 -0.0785 -0.2569
    1CHOL   ROH10705  12.749   7.484   3.708  0.0809  0.1609  0.0735
    1CHOL    R110706  12.648   7.578   3.956 -0.0228  0.0206  0.0846
    1CHOL    R210707  12.389   7.530   4.038 -0.0391 -0.0653 -0.0327
    1CHOL    R310708  12.512   7.430   4.259 -0.1059 -0.1506 -0.0323
    1CHOL    R410709  12.248   7.513   4.354  0.0135  0.2390  0.0112
    1CHOL    R510710  12.440   7.572   4.438  0.1246  0.0195 -0.0627
    1CHOL    C110711  12.282   7.409   4.744 -0.0184  0.3360  0.0370
    1CHOL    C210712  12.440   7.398   5.081  0.0096 -0.1801 -0.0110
    1CHOL   ROH10713   1.123  19.828   5.195  0.1339 -0.0056 -0.0516
    1CHOL    R110714   1.261  20.019   5.038  0.1685  0.0771  0.0787
    1CHOL    R210715   1.177  20.093   4.785  0.3631  0.0225 -0.0020
    1CHOL    R310716   1.187  20.343   4.890  0.1114  0.0317  0.0070
    1CHOL    R410717   1.154  20.385   4.602  0.1207  0.0086  0.0029
    1CHOL    R510718   1.309  20.471   4.728  0.0207  0.1513  0.0315
    1CHOL    C110719   1.149  20.791   4.595 -0.2568  0.0093  0.0142
    1CHOL    C210720   0.993  21.153   4.385  0.0969  0.3481 -0.2753
    1CHOL   ROH10721   8.229  14.881   3.317  0.0098  0.4442  0.1535
    1CHOL    R110722   8.083  14.868   3.559 -0.0438  0.2524  0.1125
    1CHOL    R210723   8.129  14.673   3.750 -0.0671  0.1167 -0.0177
    1CHOL    R310724   8.159  14.887   3.915 -0.1256  0.0012  0.1452
    1CHOL    R410725   8.330  14.679   4.031  0.2219  0.0754 -0.2197
    1CHOL    R510726   8.174  14.791   4.134  0.2058 -0.1829  0.0470
    1CHOL    C110727   8.476  14.884   4.349  0.3354 -0.0572 -0.1843
    1CHOL    C210728   8.516  14.724   4.654 -0.0057 -0.1481  0.0380
    1CHOL   ROH10729   7.847  19.951   2.945 -0.2127 -0.2830 -0.0428
    1CHOL    R110730   7.811  20.072   3.198 -0.1260 -0.2057 -0.0672
    1CHOL    R210731   7.644  19.967   3.391 -0.0470 -0.1562  0.0291
    1CHOL    R310732   7.867  19.981   3.546  0.0103 -0.0926 -0.0587
    1CHOL    R410733   7.646  20.019   3.733  0.0769 -0.0937  0.0196
    1CHOL    R510734   7.818  20.150   3.707  0.0463 -0.0713 -0.0704
    1CHOL    C110735   7.856  20.063   4.077  0.2028  0.0023 -0.0684
    1CHOL    C210736   7.740  20.239   4.338 -0.1125 -0.0112 -0.0456
    1CHOL   ROH10737  27.312  27.553   6.465 -0.1506 -0.0565 -0.0459
    1CHOL    R110738  27.241  27.690   6.228 -0.1287  0.0810  0.0258
    1CHOL    R210739  27.245  27.570   5.979 -0.0112  0.2517 -0.0587
    1CHOL    R310740  26.987  27.656   5.969 -0.0395  0.1659 -0.0730
    1CHOL    R410741  27.078  27.660   5.690  0.0300  0.3639 -0.0477
    1CHOL    R510742  26.988  27.826   5.799 -0.0569  0.2668  0.0278
    1CHOL    C110743  26.739  27.793   5.512  0.0276  0.3487 -0.0547
    1CHOL    C210744  26.357  27.821   5.574 -0.0457 -0.4381 -0.1177
    1CHOL   ROH10745  15.524  20.223   3.915 -0.3267 -0.0448  0.0389
    1CHOL    R110746  15.625  20.241   4.178 -0.0164 -0.1350 -0.0703
    1CHOL    R210747  15.462  20.271   4.399  0.2584  0.2133  0.0953
    1CHOL    R310748  15.596  20.051   4.487 -0.0200  0.0068  0.0178
    1CHOL    R410749  15.510  20.189   4.731  0.2272  0.0811  0.0678
    1CHOL    R510750  15.713  20.127   4.682  0.1345 -0.1905  0.0056
    1CHOL    C110751  15.663  19.935   5.007 -0.0525 -0.1895 -0.0210
    1CHOL    C210752  15.877  19.719   5.327  0.0965 -0.1318  0.0024
    1CHOL   ROH10753   8.679  10.241   3.859  0.0123 -0.2185  0.0152
    1CHOL    R110754   8.536  10.333   4.085 -0.0078 -0.1723 -0.0161
    1CHOL    R210755   8.651  10.357   4.334  0.0054  0.0001 -0.0369
    1CHOL    R310756   8.559  10.613   4.317 -0.1092 -0.0482 -0.1537
    1CHOL    R410757   8.519  10.539   4.598  0.0100  0.0945 -0.0992
    1CHOL    R510758   8.368  10.618   4.462 -0.0661 -0.0475 -0.0975
    1CHOL    C110759   8.357  10.884   4.734 -0.0950  0.1039 -0.2452
    1CHOL    C210760   8.271  10.746   5.062  0.3572 -0.0733 -0.2059
    1CHOL   ROH10761  25.335  22.705   6.213  0.0673 -0.0108  0.1264
    1CHOL    R110762  25.296  22.889   6.001 -0.1376 -0.0304  0.1515
    1CHOL    R210763  25.429  22.869   5.760 -0.1353  0.1392  0.1599
    1CHOL    R310764  25.178  22.875   5.658 -0.1410 -0.1030  0.1513
    1CHOL    R410765  25.353  22.902   5.425 -0.1336  0.3889  0.1782
    1CHOL    R510766  25.190  23.035   5.480 -0.3340  0.1150  0.3137
    1CHOL    C110767  25.073  22.928   5.133 -0.1381  0.3068  0.1807
    1CHOL    C210768  25.125  23.253   4.919  0.0520  0.0352  0.3682
    1CHOL   ROH10769   0.299  21.899   3.214  0.1497  0.2649  0.1214
    1CHOL    R110770   0.188  21.710   3.394  0.3483  0.2810  0.2633
    1CHOL    R210771   0.093  21.781   3.643  0.0457  0.4191  0.1116
    1CHOL    R310772  -0.133  21.658   3.557  0.3140 -0.0837  0.0900
    1CHOL    R410773  -0.183  21.716   3.840 -0.1088  0.4927 -0.0765
    1CHOL    R510774  -0.201  21.522   3.742  0.2784  0.2326  0.3218
    1CHOL    C110775  -0.556  21.561   3.874  0.0531  0.0633 -0.2063
    1CHOL    C210776  -0.982  21.525   3.848  0.2473  0.2178  0.0236
    1CHOL   ROH10777   6.630  16.042   5.627  0.2552 -0.1683  0.1277
    1CHOL    R110778   6.725  15.802   5.513  0.2856 -0.1038  0.0163
    1CHOL    R210779   6.639  15.710   5.267  0.1460 -0.1025  0.0640
    1CHOL    R310780   6.905  15.705   5.211  0.1089  0.0336 -0.1351
    1CHOL    R410781   6.783  15.536   5.005  0.0545 -0.1392  0.0375
    1CHOL    R510782   6.947  15.481   5.139  0.1900  0.0237 -0.0587
    1CHOL    C110783   7.117  15.430   4.801 -0.0336 -0.0330 -0.1649
    1CHOL    C210784   7.393  15.213   4.746 -0.1166 -0.4433 -0.0752
    1CHOL   ROH10785   9.349  13.976   3.276  0.0399  0.0021 -0.0464
    1CHOL    R110786   9.312  13.965   3.556 -0.0041  0.1446 -0.0462
    1CHOL    R210787   9.169  14.156   3.695 -0.1845  0.1153 -0.1926
    1CHOL    R310788   9.030  13.940   3.785 -0.0288  0.0574 -0.0846
    1CHOL    R410789   9.043  14.122   4.015 -0.2371  0.2283 -0.2000
    1CHOL    R510790   9.104  13.912   4.011 -0.0603  0.2716 -0.0440
    1CHOL    C110791   8.840  13.899   4.286 -0.1216  0.2397 -0.1030
    1CHOL    C210792   8.787  13.736   4.606 -0.0143 -0.2972  0.1111
    1CHOL   ROH10793  19.858  13.994   3.312  0.0942  0.0025  0.0246
    1CHOL    R110794  19.762  14.137   3.537  0.0466 -0.0485  0.0330
    1CHOL    R210795  19.599  14.021   3.729  0.3292 -0.1992  0.1657
    1CHOL    R310796  19.792  14.110   3.899  0.3095  0.1229  0.0317
    1CHOL    R410797  19.553  14.082   4.066  0.3808 -0.0648  0.1518
    1CHOL    R510798  19.677  14.259   4.046  0.1796  0.0841 -0.0077
    1CHOL    C110799  19.707  14.200   4.421  0.3926  0.3159  0.0180
    1CHOL    C210800  19.711  14.157   4.791 -0.1878  0.2313 -0.0856
    1CHOL   ROH10801   8.453  16.901   6.382  0.2396 -0.0029  0.0083
    1CHOL    R110802   8.431  16.755   6.141  0.1825 -0.1188  0.0825
    1CHOL    R210803   8.419  16.877   5.893  0.0103 -0.2318  0.0323
    1CHOL    R310804   8.629  16.713   5.838  0.0533 -0.1678  0.0042
    1CHOL    R410805   8.559  16.831   5.580  0.0053 -0.1653  0.0202
    1CHOL    R510806   8.577  16.619   5.625  0.0678 -0.1634 -0.0004
    1CHOL    C110807   8.836  16.650   5.347  0.0427 -0.0666 -0.0131
    1CHOL    C210808   8.822  16.528   4.959 -0.0474 -0.1539 -0.1639
    1CHOL   ROH10809  16.041  27.202   6.443 -0.1205 -0.1726  0.0156
    1CHOL    R110810  16.139  27.243   6.181 -0.1880 -0.1204 -0.0013
    1CHOL    R210811  16.368  27.119   6.086 -0.1181  0.0298 -0.0278
    1CHOL    R310812  16.202  27.038   5.887 -0.0925 -0.0947  0.0006
    1CHOL    R410813  16.472  26.993   5.781 -0.0784 -0.0368  0.0127
    1CHOL    R510814  16.312  27.107   5.686 -0.1186 -0.1241 -0.0241
    1CHOL    C110815  16.377  26.843   5.417 -0.0312 -0.1926  0.0629
    1CHOL    C210816  16.502  27.031   5.140  0.1268 -0.2410  0.1291
    1CHOL   ROH10817   3.787  24.360   5.320  0.2063  0.0427 -0.1269
    1CHOL    R110818   3.685  24.480   5.085 -0.0836  0.0240 -0.0153
    1CHOL    R210819   3.542  24.716   5.088  0.0311  0.0956  0.1311
    1CHOL    R310820   3.730  24.795   4.908 -0.1890 -0.0467 -0.1688
    1CHOL    R410821   3.583  25.040   4.976  0.1656  0.0843  0.1472
    1CHOL    R510822   3.618  24.961   4.776 -0.2511  0.0983  0.0613
    1CHOL    C110823   3.783  25.303   4.741  0.0373 -0.0557 -0.1249
    1CHOL    C210824   3.501  25.525   4.676  0.0046 -0.0347  0.0134
    1CHOL   ROH10825   3.838  17.033   5.503 -0.1760 -0.0559 -0.0457
    1CHOL    R110826   3.962  17.106   5.260 -0.1267 -0.0762 -0.0257
    1CHOL    R210827   3.874  17.013   5.015 -0.1635  0.0156 -0.0432
    1CHOL    R310828   3.864  17.278   4.955 -0.0201  0.0323 -0.0003
    1CHOL    R410829   3.949  17.148   4.706 -0.1843  0.0101 -0.0516
    1CHOL    R510830   4.050  17.313   4.808 -0.0454 -0.0644 -0.0599
    1CHOL    C110831   3.984  17.476   4.469 -0.0618  0.0224 -0.0163
    1CHOL    C210832   3.940  17.507   4.057  0.0224  0.2090  0.2515
    1CHOL   ROH10833  13.980  21.826   5.000  0.0402  0.0942 -0.1377
    1CHOL    R110834  14.117  21.586   4.938  0.0355  0.0854 -0.1083
    1CHOL    R210835  14.302  21.569   4.733  0.0132  0.0526 -0.1176
    1CHOL    R310836  14.463  21.474   4.930  0.0356  0.0817 -0.1199
    1CHOL    R410837  14.569  21.355   4.685  0.0540  0.1044 -0.1327
    1CHOL    R510838  14.510  21.249   4.866  0.0760  0.0880 -0.1285
    1CHOL    C110839  14.876  21.141   4.841  0.0987  0.1622 -0.1435
    1CHOL    C210840  14.991  20.840   5.144 -0.0747 -0.1633 -0.0725
    1CHOL   ROH10841  13.922  12.752   3.417  0.2265 -0.1856 -0.1631
    1CHOL    R110842  13.812  12.751   3.678  0.1151 -0.0674 -0.2079
    1CHOL    R210843  13.891  12.572   3.872 -0.0980 -0.1013 -0.1453
    1CHOL    R310844  13.935  12.798   4.017  0.0091 -0.1107 -0.1636
    1CHOL    R410845  13.919  12.583   4.217 -0.1765 -0.0734 -0.1406
    1CHOL    R510846  13.803  12.768   4.215 -0.0581 -0.0007 -0.1931
    1CHOL    C110847  13.975  12.802   4.553 -0.1215 -0.0659 -0.1551
    1CHOL    C210848  13.998  12.655   4.943 -0.0317  0.0218 -0.2247
    1CHOL   ROH10849   6.873   4.003   6.148  0.0015 -0.0543  0.0188
    1CHOL    R110850   6.898   4.053   5.870  0.0988  0.0834  0.0517
    1CHOL    R210851   7.135   4.138   5.755  0.2062 -0.0931  0.1448
    1CHOL    R310852   7.098   3.921   5.596  0.0092  0.0380  0.0069
    1CHOL    R410853   7.311   4.073   5.465  0.0375  0.0149  0.0155
    1CHOL    R510854   7.126   4.005   5.373 -0.0476  0.1833  0.0509
    1CHOL    C110855   7.379   3.832   5.147 -0.2458  0.2010 -0.1894
    1CHOL    C210856   7.302   3.560   4.908  0.0500 -0.1509  0.2466
    1CHOL   ROH10857   5.475  15.768   4.415 -0.1628 -0.0837 -0.0180
    1CHOL    R110858   5.194  15.806   4.420 -0.1450  0.0288  0.2402
    1CHOL    R210859   5.066  15.936   4.627  0.1486  0.4769  0.1531
    1CHOL    R310860   4.966  16.089   4.426 -0.0271  0.1329 -0.0324
    1CHOL    R410861   4.736  16.038   4.600  0.1334  0.4696  0.2946
    1CHOL    R510862   4.748  16.001   4.386 -0.0826  0.0827  0.3402
    1CHOL    C110863   4.452  16.241   4.395 -0.0405  0.1423  0.2029
    1CHOL    C210864   4.093  16.335   4.299  0.0066 -0.0902  0.0255
    1CHOL   ROH10865   0.825  10.712   5.471 -0.1080  0.0814  0.0609
    1CHOL    R110866   0.993  10.543   5.318 -0.0910  0.0649  0.0979
    1CHOL    R210867   0.914  10.292   5.233 -0.1271  0.1064  0.0101
    1CHOL    R310868   0.984  10.389   4.989  0.0077  0.1374  0.0606
    1CHOL    R410869   1.053  10.104   4.979 -0.2199  0.0818 -0.0226
    1CHOL    R510870   1.185  10.270   4.934 -0.0731 -0.0073  0.0676
    1CHOL    C110871   1.200  10.084   4.602 -0.1473  0.0966  0.0058
    1CHOL    C210872   1.428  10.131   4.511 -0.2071 -0.2551  0.3872
    1CHOL   ROH10873   9.207   7.472   3.896  0.3246  0.2646  0.1156
    1CHOL    R110874   9.164   7.380   4.161  0.3500  0.2067  0.1013
    1CHOL    R210875   9.229   7.531   4.384  0.0631  0.3033  0.1320
    1CHOL    R310876   8.970   7.486   4.449  0.0931 -0.0504  0.0258
    1CHOL    R410877   9.104   7.529   4.706 -0.0771  0.1513  0.0764
    1CHOL    R510878   8.980   7.359   4.651  0.1799 -0.0225  0.0349
    1CHOL    C110879   8.787   7.486   4.955 -0.1305 -0.2692 -0.0556
    1CHOL    C210880   8.471   7.377   5.051 -0.1018  0.1129  0.3032
    1CHOL   ROH10881  14.063   3.531   4.648  0.1096 -0.1379 -0.0734
    1CHOL    R110882  14.210   3.459   4.879  0.0367  0.0349  0.0294
    1CHOL    R210883  14.137   3.540   5.134 -0.1690  0.0468 -0.0287
    1CHOL    R310884  14.146   3.273   5.186  0.0051  0.0663  0.0412
    1CHOL    R410885  14.168   3.402   5.449 -0.0907  0.1462  0.0071
    1CHOL    R510886  14.304   3.254   5.365  0.0096  0.2153  0.0525
    1CHOL    C110887  14.195   3.071   5.681  0.1184  0.2224  0.0935
    1CHOL    C210888  14.318   3.109   6.071  0.0091  0.0872  0.0307
    1CHOL   ROH10889  19.446  13.626   3.157  0.1220  0.0874 -0.0498
    1CHOL    R110890  19.509  13.682   3.427  0.2592 -0.0065 -0.0600
    1CHOL    R210891  19.316  13.699   3.625  0.2970  0.4109 -0.0405
    1CHOL    R310892  19.472  13.513   3.748 -0.0644  0.0975 -0.0416
    1CHOL    R410893  19.339  13.655   3.967  0.1952  0.3290 -0.0447
    1CHOL    R510894  19.553  13.624   3.944  0.1369 -0.0803 -0.0284
    1CHOL    C110895  19.498  13.455   4.281 -0.2035 -0.0131 -0.0483
    1CHOL    C210896  19.521  13.737   4.574 -0.3028 -0.3593 -0.0210
    1CHOL   ROH10897  16.878  11.308   6.566 -0.0077  0.0978  0.0312
    1CHOL    R110898  16.922  11.430   6.314  0.1413  0.0230  0.0191
    1CHOL    R210899  17.024  11.291   6.098 -0.0020 -0.1204  0.0342
    1CHOL    R310900  16.801  11.383   5.973  0.1019  0.1188  0.0215
    1CHOL    R410901  16.932  11.212   5.774 -0.2097 -0.2305  0.1193
    1CHOL    R510902  16.870  11.420   5.747  0.0948 -0.1590 -0.0239
    1CHOL    C110903  16.668  11.253   5.469 -0.2330 -0.0700  0.1570
    1CHOL    C210904  16.619  11.293   5.142  0.0287 -0.1629 -0.0531
    1CHOL   ROH10905  16.204  10.515   6.703 -0.0953  0.1023 -0.0262
    1CHOL    R110906  16.114  10.516   6.435 -0.0942  0.0749 -0.0262
    1CHOL    R210907  16.276  10.590   6.224 -0.0958  0.0570 -0.0312
    1CHOL    R310908  16.204  10.348   6.125 -0.0915  0.0468 -0.0107
    1CHOL    R410909  16.254  10.512   5.888  0.0354 -0.0087 -0.0254
    1CHOL    R510910  16.073  10.399   5.931 -0.0019  0.0278 -0.0779
    1CHOL    C110911  16.173  10.238   5.600  0.1159 -0.0564 -0.0029
    1CHOL    C210912  15.987  10.117   5.331 -0.2190  0.0197  0.1953
    1CHOL   ROH10913  19.105   8.690   6.375  0.1589  0.0828 -0.0081
    1CHOL    R110914  19.144   8.777   6.108  0.2073 -0.0278 -0.0378
    1CHOL    R210915  19.289   8.631   5.923  0.0671 -0.2076 -0.0104
    1CHOL    R310916  19.062   8.654   5.776  0.0691 -0.0580  0.0073
    1CHOL    R410917  19.277   8.635   5.578  0.0512 -0.0280 -0.0091
    1CHOL    R510918  19.125   8.791   5.589  0.1041  0.0148  0.0743
    1CHOL    C110919  19.057   8.659   5.238  0.0440  0.2168  0.0083
    1CHOL    C210920  19.109   8.634   4.903  0.0404 -0.0436  0.1579
    1CHOL   ROH10921  11.848  10.529   3.673  0.1468  0.0692  0.0197
    1CHOL    R110922  11.951  10.427   3.917  0.1301 -0.0441 -0.0200
    1CHOL    R210923  12.118  10.574   4.080  0.1770 -0.1455  0.0257
    1CHOL    R310924  11.932  10.515   4.269  0.1679 -0.1620  0.0116
    1CHOL    R410925  12.155  10.632   4.419  0.0518  0.0643  0.0050
    1CHOL    R510926  12.059  10.440   4.458  0.1678  0.0242  0.0861
    1CHOL    C110927  12.002  10.612   4.793 -0.0297  0.1708 -0.0202
    1CHOL    C210928  12.011  10.600   5.131 -0.3480 -0.4941 -0.1204
    1CHOL   ROH10929   9.913  20.694   6.089  0.1619 -0.3288  0.1036
    1CHOL    R110930  10.071  20.639   5.861 -0.0790 -0.1275 -0.1152
    1CHOL    R210931  10.224  20.410   5.836  0.1656  0.0601 -0.3256
    1CHOL    R310932  10.085  20.381   5.604 -0.1128 -0.1001 -0.1472
    1CHOL    R410933  10.299  20.182   5.588  0.1185  0.1468 -0.4225
    1CHOL    R510934  10.253  20.335   5.440 -0.2614  0.1018 -0.3703
    1CHOL    C110935  10.213  20.022   5.226 -0.1702  0.0468 -0.3114
    1CHOL    C210936  10.329  19.789   5.049 -0.1066  0.0251 -0.1884
    1CHOL   ROH10937   8.413  13.484   6.838  0.2884  0.0188 -0.0803
    1CHOL    R110938   8.557  13.444   6.598  0.1843  0.1752 -0.1705
    1CHOL    R210939   8.529  13.216   6.444  0.4170  0.0898 -0.0879
    1CHOL    R310940   8.477  13.396   6.246  0.0084 -0.0349 -0.1049
    1CHOL    R410941   8.578  13.159   6.107  0.5334  0.1594 -0.0834
    1CHOL    R510942   8.654  13.362   6.088  0.0865  0.3363 -0.1079
    1CHOL    C110943   8.559  13.294   5.725  0.2175  0.0828 -0.0969
    1CHOL    C210944   8.489  13.238   5.462  0.4603  0.2235 -0.0590
    1CHOL   ROH10945  14.077  14.820   6.605  0.0224  0.1176  0.1160
    1CHOL    R110946  14.023  14.957   6.363  0.1364  0.2766  0.1772
    1CHOL    R210947  14.222  15.065   6.206  0.2485  0.0245  0.1324
    1CHOL    R310948  14.105  14.915   6.011 -0.0586  0.2525  0.1344
    1CHOL    R410949  14.217  15.147   5.870  0.4015  0.0341  0.1326
    1CHOL    R510950  14.011  15.075   5.861  0.2556  0.4432  0.1363
    1CHOL    C110951  14.104  15.053   5.492  0.2023  0.2537  0.1346
    1CHOL    C210952  13.892  15.025   5.088  0.3753  0.0368 -0.0172
    1CHOL   ROH10953  12.937  12.419   6.945 -0.0203 -0.0120  0.1105
    1CHOL    R110954  13.079  12.495   6.713  0.0143 -0.2410  0.0540
    1CHOL    R210955  13.104  12.330   6.493 -0.3579 -0.2788  0.0341
    1CHOL    R310956  13.002  12.545   6.361 -0.0538 -0.0955  0.0889
    1CHOL    R410957  13.046  12.343   6.152 -0.5090 -0.1775  0.0625
    1CHOL    R510958  13.121  12.548   6.153 -0.1495 -0.3019  0.0285
    1CHOL    C110959  12.918  12.553   5.830 -0.3114  0.0534  0.1303
    1CHOL    C210960  12.920  12.708   5.389  0.0731 -0.2577 -0.0775
    1CHOL   ROH10961  28.001  25.687   5.840 -0.1377 -0.1378 -0.0312
    1CHOL    R110962  27.908  25.947   5.780 -0.1057 -0.1333 -0.0698
    1CHOL    R210963  28.068  26.138   5.660 -0.0177 -0.1038  0.0706
    1CHOL    R310964  27.863  26.150   5.482  0.1154 -0.1043 -0.0818
    1CHOL    R410965  27.947  26.429   5.517 -0.2906 -0.0456  0.4064
    1CHOL    R510966  27.745  26.350   5.539 -0.2024 -0.3489  0.1210
    1CHOL    C110967  27.685  26.609   5.265 -0.3244 -0.0122  0.4589
    1CHOL    C210968  27.525  27.004   5.161  0.1310 -0.1303  0.0922
    1CHOL   ROH10969  17.380  16.056   6.600 -0.1035  0.0527  0.0959
    1CHOL    R110970  17.284  16.068   6.334 -0.1333 -0.1157  0.0991
    1CHOL    R210971  17.440  16.152   6.122 -0.2477  0.0332  0.0774
    1CHOL    R310972  17.368  15.913   6.015  0.0350 -0.0769  0.1227
    1CHOL    R410973  17.399  16.092   5.784 -0.2674 -0.0463  0.0933
    1CHOL    R510974  17.224  15.971   5.833 -0.0998 -0.2777  0.1581
    1CHOL    C110975  17.307  15.833   5.487 -0.0133 -0.1960  0.1451
    1CHOL    C210976  17.250  16.061   5.257  0.0321 -0.0268 -0.5138
    1CHOL   ROH10977  15.983  11.770   6.852 -0.3145  0.0558 -0.0966
    1CHOL    R110978  16.045  11.659   6.598 -0.2243  0.0869 -0.0890
    1CHOL    R210979  15.869  11.496   6.461 -0.1609  0.0732 -0.1556
    1CHOL    R310980  15.907  11.677   6.262 -0.1288  0.0968 -0.1278
    1CHOL    R410981  15.848  11.425   6.124  0.0473  0.0763 -0.1699
    1CHOL    R510982  16.021  11.554   6.091  0.0130  0.1490 -0.0726
    1CHOL    C110983  15.872  11.553   5.740  0.1987  0.1001 -0.1521
    1CHOL    C210984  15.674  11.640   5.454  0.2034 -0.0601  0.1869
    1CHOL   ROH10985  11.005  16.467   6.397  0.0738  0.0045 -0.0263
    1CHOL    R110986  11.116  16.446   6.137  0.0778 -0.0140 -0.0247
    1CHOL    R210987  11.015  16.274   5.946  0.1363 -0.1015  0.0098
    1CHOL    R310988  11.001  16.500   5.796  0.0458 -0.1352 -0.0305
    1CHOL    R410989  10.959  16.282   5.605  0.0112 -0.1582  0.0296
    1CHOL    R510990  11.107  16.441   5.589 -0.0268 -0.1458 -0.0557
    1CHOL    C110991  10.913  16.498   5.266 -0.1465 -0.2226  0.0032
    1CHOL    C210992  10.809  16.606   4.905  0.2263 -0.1605 -0.1370
    1CHOL   ROH10993  19.022  17.000   3.409  0.0287  0.1944  0.0552
    1CHOL    R110994  18.891  16.895   3.637  0.0904 -0.1090 -0.0424
    1CHOL    R210995  19.022  16.747   3.830  0.2436  0.0053 -0.0494
    1CHOL    R310996  18.918  16.933   3.998 -0.1149 -0.2192 -0.0158
    1CHOL    R410997  19.059  16.745   4.174  0.4525  0.1472 -0.0693
    1CHOL    R510998  18.850  16.808   4.191  0.3030 -0.3572  0.0445
    1CHOL    C110999  18.981  16.919   4.532  0.2374  0.0193 -0.0494
    1CHOL    C211000  19.041  16.870   4.937  0.2127  0.1516 -0.3539
    1CHOL   ROH11001   9.812  22.521   4.462 -0.0850 -0.0804 -0.2002
    1CHOL    R111002   9.751  22.611   4.724  0.0722 -0.0741 -0.1648
    1CHOL    R211003   9.912  22.790   4.860  0.1531 -0.0663 -0.2659
    1CHOL    R311004   9.680  22.931   4.883  0.1638 -0.0709 -0.1309
    1CHOL    R411005   9.879  23.091   5.028  0.1773 -0.2108  0.0020
    1CHOL    R511006   9.688  23.021   5.105  0.1781 -0.2666 -0.0515
    1CHOL    C111007   9.643  23.397   5.148  0.2014 -0.2992  0.2848
    1CHOL    C211008   9.613  23.746   5.237 -0.1568 -0.0589 -0.0273
    1CHOL   ROH11009   8.286  11.349   6.803  0.0571 -0.1767  0.1960
    1CHOL    R111010   8.294  11.248   6.539 -0.0015 -0.1698  0.1918
    1CHOL    R211011   8.068  11.165   6.404 -0.0515 -0.0184  0.1836
    1CHOL    R311012   8.154  11.341   6.216  0.0650 -0.0653  0.1918
    1CHOL    R411013   7.953  11.177   6.078  0.0715 -0.0346  0.1391
    1CHOL    R511014   8.158  11.214   6.013  0.1076 -0.0960  0.2101
    1CHOL    C111015   7.968  11.349   5.712  0.2524 -0.0882  0.1209
    1CHOL    C211016   7.844  11.505   5.325  0.0379  0.2356  0.0823
    1CHOL   ROH11017   8.758   9.084   4.016  0.0471 -0.1972 -0.0561
    1CHOL    R111018   8.903   9.004   4.245  0.0176 -0.0908 -0.0004
    1CHOL    R211019   8.927   9.164   4.469 -0.0124  0.0122 -0.0722
    1CHOL    R311020   8.830   8.945   4.597 -0.0267  0.0704  0.0189
    1CHOL    R411021   8.957   9.105   4.808 -0.0570  0.1749 -0.0385
    1CHOL    R511022   8.996   8.895   4.762 -0.0469  0.1520  0.0660
    1CHOL    C111023   8.884   8.864   5.126 -0.0961  0.3244  0.0668
    1CHOL    C211024   8.814   8.924   5.424  0.0968  0.3268 -0.0095
    1CHOL   ROH11025   0.799  16.438   5.533 -0.0198  0.0482  0.0386
    1CHOL    R111026   0.735  16.464   5.259  0.0471  0.1399  0.0309
    1CHOL    R211027   0.899  16.595   5.079  0.2196 -0.0252  0.0617
    1CHOL    R311028   0.881  16.361   4.942 -0.0190  0.0010  0.0459
    1CHOL    R411029   0.971  16.557   4.743  0.3220 -0.1095  0.0928
    1CHOL    R511030   0.798  16.425   4.726  0.1597  0.1128  0.0111
    1CHOL    C111031   0.995  16.315   4.419  0.1576 -0.1338  0.0961
    1CHOL    C211032   1.059  16.006   4.190  0.0088 -0.2213  0.0316
    1CHOL   ROH11033   6.400  23.331   2.702 -0.1273  0.1511 -0.0290
    1CHOL    R111034   6.257  23.242   2.929 -0.0817 -0.0094 -0.0614
    1CHOL    R211035   6.303  22.996   3.047  0.0702 -0.0181 -0.1326
    1CHOL    R311036   6.337  23.147   3.271 -0.0354 -0.0618 -0.0871
    1CHOL    R411037   6.199  22.905   3.364  0.0721 -0.1534 -0.1703
    1CHOL    R511038   6.136  23.111   3.397 -0.0343 -0.1943 -0.1230
    1CHOL    C111039   6.170  22.994   3.759 -0.0258 -0.2731 -0.1495
    1CHOL    C211040   5.826  22.954   3.996  0.4711 -0.4385  0.1038
    1CHOL   ROH11041  16.414  16.343   6.705 -0.0604  0.3239  0.0180
    1CHOL    R111042  16.394  16.542   6.505  0.0926  0.2491 -0.0741
    1CHOL    R211043  16.612  16.630   6.359  0.1592  0.0039 -0.1286
    1CHOL    R311044  16.455  16.565   6.147  0.0931  0.0309 -0.0881
    1CHOL    R411045  16.692  16.690   6.028  0.0840 -0.0238 -0.1520
    1CHOL    R511046  16.484  16.746   5.993  0.0897  0.0175 -0.1012
    1CHOL    C111047  16.591  16.664   5.636 -0.0218 -0.0143 -0.1275
    1CHOL    C211048  16.282  16.533   5.365  0.0570 -0.0371 -0.1768
    1CHOL   ROH11049  18.803  11.398   3.231  0.1404 -0.0251 -0.1532
    1CHOL    R111050  18.842  11.198   3.428 -0.0401 -0.0953 -0.1875
    1CHOL    R211051  18.973  11.247   3.666  0.0503 -0.2664 -0.2032
    1CHOL    R311052  18.745  11.146   3.775 -0.0411 -0.0426 -0.1792
    1CHOL    R411053  18.947  11.120   3.986 -0.0577 -0.1745 -0.1742
    1CHOL    R511054  18.820  10.961   3.907 -0.2008 -0.0824 -0.1394
    1CHOL    C111055  18.718  10.951   4.275 -0.2064  0.0891 -0.1348
    1CHOL    C211056  18.626  10.608   4.589 -0.0589  0.1894 -0.2113
    1CHOL   ROH11057  19.935   1.126   5.917 -0.2510 -0.1529  0.0953
    1CHOL    R111058  20.088   1.192   5.689 -0.2018 -0.2356  0.1043
    1CHOL    R211059  20.010   1.123   5.433 -0.3122 -0.0475  0.0859
    1CHOL    R311060  20.040   1.389   5.386 -0.0147 -0.0591  0.1874
    1CHOL    R411061  20.102   1.261   5.130 -0.5378 -0.0175  0.0283
    1CHOL    R511062  20.228   1.403   5.239 -0.1925 -0.2406 -0.0638
    1CHOL    C111063  20.184   1.592   4.910 -0.3899 -0.0110  0.0900
    1CHOL    C211064  20.437   1.625   4.595  0.0379  0.1893  0.0906
    1CHOL   ROH11065  13.456  12.582   3.328 -0.1143 -0.1069 -0.1253
    1CHOL    R111066  13.335  12.546   3.581 -0.0839 -0.1499 -0.1155
    1CHOL    R211067  13.476  12.459   3.802 -0.0376 -0.1176 -0.1243
    1CHOL    R311068  13.375  12.685   3.915 -0.0931 -0.1466 -0.1180
    1CHOL    R411069  13.410  12.498   4.139 -0.0608 -0.1329 -0.1277
    1CHOL    R511070  13.227  12.604   4.086 -0.0776 -0.1770 -0.1268
    1CHOL    C111071  13.277  12.733   4.442 -0.1265 -0.1689 -0.1238
    1CHOL    C211072  13.181  12.650   4.773  0.1798  0.1928  0.0160
    1CHOL   ROH11073   9.590  18.260   2.970 -0.0013  0.0714  0.2557
    1CHOL    R111074   9.657  18.101   3.194 -0.0566  0.1076  0.2989
    1CHOL    R211075   9.504  18.096   3.424 -0.2509 -0.0393  0.1724
    1CHOL    R311076   9.503  17.828   3.379  0.0110 -0.0377  0.1437
    1CHOL    R411077   9.546  17.855   3.668  0.1215 -0.0256  0.1262
    1CHOL    R511078   9.669  17.742   3.528  0.1749  0.1202  0.0544
    1CHOL    C111079   9.570  17.463   3.768  0.5842 -0.0161  0.0725
    1CHOL    C211080   9.669  17.503   4.056  0.4482  0.1868  0.0067
    1CHOL   ROH11081  15.220  11.936   3.532 -0.0080 -0.2071  0.0227
    1CHOL    R111082  15.174  12.074   3.774  0.1349 -0.0312 -0.0492
    1CHOL    R211083  15.045  11.958   3.990 -0.0363  0.2315 -0.0104
    1CHOL    R311084  15.269  12.036   4.123  0.0448  0.0185 -0.0175
    1CHOL    R411085  15.072  11.983   4.333 -0.0549  0.3395 -0.0158
    1CHOL    R511086  15.187  12.166   4.307  0.1726  0.1963 -0.0795
    1CHOL    C111087  15.297  12.070   4.659  0.0104  0.2024 -0.0256
    1CHOL    C211088  15.172  12.028   5.015  0.2874  0.2739  0.0231
    1CHOL   ROH11089  20.129   6.508   4.120 -0.0142 -0.0313 -0.0784
    1CHOL    R111090  20.205   6.581   4.383  0.0152 -0.1505 -0.0535
    1CHOL    R211091  20.103   6.457   4.608 -0.0014 -0.2150 -0.0965
    1CHOL    R311092  20.365   6.418   4.666 -0.0070 -0.2968 -0.1242
    1CHOL    R411093  20.222   6.337   4.909  0.0161  0.1676  0.0542
    1CHOL    R511094  20.385   6.481   4.896  0.1083  0.0461 -0.2227
    1CHOL    C111095  20.538   6.231   5.140  0.0209  0.3136  0.1159
    1CHOL    C211096  20.678   6.117   5.509  0.4295 -0.1905 -0.0912
    1CHOL   ROH11097  13.185   1.839   6.951  0.2351  0.0353 -0.0813
    1CHOL    R111098  13.151   1.946   6.692  0.1322  0.0196 -0.0747
    1CHOL    R211099  13.304   1.865   6.476  0.0417  0.0011 -0.1317
    1CHOL    R311100  13.061   1.819   6.363 -0.0063  0.0014 -0.0306
    1CHOL    R411101  13.246   1.840   6.136 -0.0623 -0.2176 -0.0999
    1CHOL    R511102  13.061   1.953   6.164 -0.0175 -0.1363 -0.1255
    1CHOL    C111103  12.984   1.782   5.832 -0.1679 -0.3446  0.0136
    1CHOL    C211104  13.028   1.389   5.631 -0.0857 -0.1601  0.0986
    1CHOL   ROH11105  21.560  27.258   4.104 -0.1542 -0.3673 -0.2885
    1CHOL    R111106  21.424  27.234   4.351 -0.0684 -0.0846 -0.2100
    1CHOL    R211107  21.224  27.048   4.393 -0.0555 -0.0367  0.0727
    1CHOL    R311108  21.380  26.977   4.604  0.0158  0.2020  0.1044
    1CHOL    R411109  21.110  27.003   4.716 -0.0862 -0.3366  0.0222
    1CHOL    R511110  21.290  27.101   4.788 -0.2879 -0.0074  0.1081
    1CHOL    C111111  21.189  26.909   5.102 -0.0372 -0.2871  0.0226
    1CHOL    C211112  21.308  26.656   5.353 -0.0805  0.1744 -0.0593
    1CHOL   ROH11113  10.015  15.354   6.737  0.0220  0.2569 -0.0088
    1CHOL    R111114  10.149  15.340   6.488  0.0062  0.0814 -0.0086
    1CHOL    R211115  10.165  15.107   6.340 -0.1886  0.0295  0.0525
    1CHOL    R311116  10.061  15.263   6.144 -0.0637  0.0642  0.0124
    1CHOL    R411117  10.166  15.028   6.004  0.0669  0.1047  0.0328
    1CHOL    R511118  10.212  15.236   5.960  0.0766  0.1227  0.1150
    1CHOL    C111119  10.068  15.128   5.623  0.3329  0.1811 -0.0163
    1CHOL    C211120  10.099  15.128   5.324 -0.1055  0.0716 -0.0144
    1CHOL   ROH11121  27.881  11.237   5.466  0.3301  0.0840 -0.2170
    1CHOL    R111122  27.863  11.158   5.195  0.1680 -0.1162 -0.1506
    1CHOL    R211123  27.729  10.930   5.115 -0.1768  0.0064  0.0629
    1CHOL    R311124  27.598  11.104   4.952  0.0422  0.0643 -0.0564
    1CHOL    R411125  27.498  10.840   4.874 -0.3190  0.1306  0.1508
    1CHOL    R511126  27.584  10.990   4.742 -0.1247 -0.0794  0.0285
    1CHOL    C111127  27.240  10.951   4.582 -0.1961  0.2573  0.0900
    1CHOL    C211128  27.028  10.630   4.478  0.2091  0.1668 -0.0016
    1CHOL   ROH11129   2.541   8.728   6.266  0.0199  0.1129 -0.0647
    1CHOL    R111130   2.601   8.643   6.003  0.1574  0.1170 -0.0357
    1CHOL    R211131   2.422   8.668   5.794  0.1781 -0.0905 -0.0804
    1CHOL    R311132   2.629   8.797   5.675  0.0844  0.0805 -0.0596
    1CHOL    R411133   2.477   8.678   5.453  0.2196 -0.0766 -0.0728
    1CHOL    R511134   2.691   8.655   5.493  0.2372  0.1143 -0.0365
    1CHOL    C111135   2.704   8.806   5.143  0.1558  0.0920 -0.0489
    1CHOL    C211136   2.496   8.496   4.926 -0.1975 -0.2426 -0.1411
    1CHOL   ROH11137  19.176  16.034   6.684 -0.0392  0.1113  0.0589
    1CHOL    R111138  19.057  16.084   6.432  0.0424 -0.0368 -0.0099
    1CHOL    R211139  19.206  16.153   6.208  0.1119 -0.1349  0.0055
    1CHOL    R311140  19.077  15.940   6.098  0.1788 -0.2105  0.0712
    1CHOL    R411141  19.108  16.129   5.878  0.0926 -0.2572  0.0191
    1CHOL    R511142  18.923  16.037   5.943  0.1309 -0.3065  0.0579
    1CHOL    C111143  18.931  15.916   5.582  0.1443 -0.3991  0.0886
    1CHOL    C211144  18.743  15.971   5.349  0.2739 -0.2448 -0.1594
    1CHOL   ROH11145  11.701  18.849   3.434 -0.0797  0.1701 -0.1182
    1CHOL    R111146  11.801  18.969   3.670  0.0413 -0.0908 -0.0344
    1CHOL    R211147  11.639  19.106   3.847  0.1929  0.0128  0.0141
    1CHOL    R311148  11.746  18.934   4.028 -0.0508 -0.2235 -0.0585
    1CHOL    R411149  11.641  19.155   4.189  0.2728 -0.1148  0.0337
    1CHOL    R511150  11.844  19.076   4.194  0.1675 -0.4210 -0.0048
    1CHOL    C111151  11.743  19.022   4.558  0.0906 -0.4111 -0.0231
    1CHOL    C211152  11.586  19.002   4.922 -0.2283 -0.0618  0.0041
    1CHOL   ROH11153  15.167  12.959   6.919 -0.2551  0.0115 -0.0265
    1CHOL    R111154  15.105  13.040   6.655 -0.2806 -0.1381 -0.0667
    1CHOL    R211155  15.282  13.013   6.445 -0.1204  0.1678  0.0290
    1CHOL    R311156  15.075  12.881   6.329  0.1785 -0.2418 -0.0672
    1CHOL    R411157  15.194  13.038   6.112 -0.3294  0.4432  0.1005
    1CHOL    R511158  14.985  13.038   6.173 -0.3279 -0.2270  0.2106
    1CHOL    C111159  14.948  12.928   5.809 -0.1706  0.2191  0.0518
    1CHOL    C211160  14.953  12.811   5.513 -0.0955  0.0279 -0.1995
    1CHOL   ROH11161  11.189  10.529   3.807  0.1614  0.0092  0.0192
    1CHOL    R111162  11.192  10.666   4.054  0.2233  0.1022 -0.0330
    1CHOL    R211163  11.068  10.568   4.280  0.0244  0.3311 -0.0425
    1CHOL    R311164  11.314  10.600   4.391  0.0216  0.0937  0.0406
    1CHOL    R411165  11.133  10.560   4.620 -0.0996  0.2492 -0.0195
    1CHOL    R511166  11.272  10.726   4.591  0.0697  0.1240  0.0346
    1CHOL    C111167  11.402  10.586   4.921 -0.1745 -0.0215  0.0720
    1CHOL    C211168  11.193  10.567   5.225  0.0350  0.0563  0.1552
    1CHOL   ROH11169   9.600   7.676   3.628 -0.1040  0.3615  0.0574
    1CHOL    R111170   9.675   7.563   3.877 -0.1658  0.1211 -0.0302
    1CHOL    R211171   9.806   7.707   4.073  0.0825 -0.1555  0.0162
    1CHOL    R311172   9.599   7.623   4.228  0.0214  0.0159  0.0289
    1CHOL    R411173   9.821   7.661   4.415  0.0335 -0.0770  0.0288
    1CHOL    R511174   9.701   7.481   4.392 -0.0788 -0.0058  0.0705
    1CHOL    C111175   9.635   7.556   4.760 -0.0521  0.1296  0.0480
    1CHOL    C211176   9.353   7.539   5.163  0.5730 -0.0608  0.3165
    1CHOL   ROH11177   9.237   0.391   4.297 -0.0960  0.0122  0.0483
    1CHOL    R111178   9.139   0.411   4.562 -0.0183 -0.0192  0.0804
    1CHOL    R211179   9.195   0.223   4.756  0.0160 -0.0590  0.0367
    1CHOL    R311180   9.282   0.439   4.895  0.0821 -0.0901  0.0427
    1CHOL    R411181   9.223   0.236   5.100  0.1855 -0.1303  0.0261
    1CHOL    R511182   9.146   0.441   5.093  0.1812 -0.1322  0.1093
    1CHOL    C111183   9.321   0.447   5.431  0.3461 -0.2011  0.0256
    1CHOL    C211184   9.211   0.438   5.731 -0.3776  0.0792 -0.1546
    1CHOL   ROH11185  22.457  17.508   6.148  0.0333 -0.0571  0.1277
    1CHOL    R111186  22.613  17.519   5.912  0.0396  0.0160  0.1354
    1CHOL    R211187  22.663  17.296   5.756  0.0795  0.0568  0.0916
    1CHOL    R311188  22.561  17.452   5.558  0.0629  0.0818  0.1191
    1CHOL    R411189  22.763  17.285   5.426 -0.1788 -0.1375  0.0160
    1CHOL    R511190  22.750  17.502   5.420  0.0056 -0.1260 -0.0417
    1CHOL    C111191  22.726  17.425   5.047 -0.3446 -0.2273 -0.0022
    1CHOL    C211192  22.782  17.212   4.709  0.0568  0.2701 -0.2595
    1CHOL   ROH11193   9.903  18.475   3.258  0.0777  0.2224 -0.2044
    1CHOL    R111194   9.731  18.597   3.447  0.0608  0.0609 -0.1142
    1CHOL    R211195   9.462  18.538   3.461  0.0697  0.0108 -0.1551
    1CHOL    R311196   9.520  18.486   3.722  0.0779 -0.1700 -0.1916
    1CHOL    R411197   9.239  18.570   3.724  0.1439  0.0561 -0.0968
    1CHOL    R511198   9.400  18.654   3.844  0.2351 -0.1348 -0.0827
    1CHOL    C111199   9.164  18.540   4.121  0.1948 -0.0875 -0.0971
    1CHOL    C211200   9.251  18.516   4.404 -0.0805  0.3047 -0.2409
    1CHOL   ROH11201  11.792  24.445   5.671  0.0913  0.1091  0.0233
    1CHOL    R111202  11.692  24.638   5.490  0.0282  0.0333 -0.0249
    1CHOL    R211203  11.845  24.741   5.283  0.0013  0.0451 -0.0436
    1CHOL    R311204  11.635  24.660   5.131  0.0382 -0.0693 -0.0320
    1CHOL    R411205  11.782  24.846   4.960  0.0285 -0.1380 -0.1086
    1CHOL    R511206  11.570  24.855   5.009  0.0228 -0.1473 -0.1455
    1CHOL    C111207  11.549  24.830   4.629  0.0790 -0.3521 -0.1355
    1CHOL    C211208  11.208  24.811   4.367 -0.2526 -0.1148  0.2915
    1CHOL   ROH11209   8.931  24.897   5.747  0.0494 -0.1166 -0.0493
    1CHOL    R111210   9.041  24.957   5.493  0.0487  0.0449 -0.0127
    1CHOL    R211211   9.025  25.209   5.380  0.0633  0.1233  0.1538
    1CHOL    R311212   9.295  25.182   5.362  0.0612  0.1161  0.1326
    1CHOL    R411213   9.226  25.378   5.155  0.0506  0.1051  0.1287
    1CHOL    R511214   9.341  25.195   5.127  0.0433  0.1020  0.1293
    1CHOL    C111215   9.596  25.452   5.007  0.0411  0.0880  0.0942
    1CHOL    C211216   9.868  25.342   4.672 -0.0032  0.1481 -0.0959
    1CHOL   ROH11217  13.725  18.437   3.378 -0.1962  0.0953  0.0062
    1CHOL    R111218  13.837  18.329   3.614  0.0747  0.1745 -0.0825
    1CHOL    R211219  13.992  18.478   3.787 -0.1924  0.3945 -0.0248
    1CHOL    R311220  13.812  18.393   3.972  0.0091 -0.0921 -0.0374
    1CHOL    R411221  14.054  18.455   4.126 -0.0513  0.1983 -0.0618
    1CHOL    R511222  13.943  18.267   4.128  0.2802 -0.0054 -0.1894
    1CHOL    C111223  13.920  18.361   4.497  0.2200 -0.3729 -0.0952
    1CHOL    C211224  13.631  18.409   4.783  0.0341 -0.1069 -0.1411
    1CHOL   ROH11225   8.745  19.700   6.033 -0.0722 -0.2865 -0.2012
    1CHOL    R111226   8.821  19.661   5.764 -0.0704 -0.2781 -0.2013
    1CHOL    R211227   8.674  19.759   5.552  0.0363 -0.1020 -0.1922
    1CHOL    R311228   8.911  19.872   5.481  0.1386 -0.2764 -0.1368
    1CHOL    R411229   8.765  19.843   5.229  0.0213  0.1515 -0.1334
    1CHOL    R511230   8.966  19.770   5.272 -0.0372 -0.1136 -0.2689
    1CHOL    C111231   9.040  19.998   4.974  0.1084  0.1351 -0.0472
    1CHOL    C211232   9.392  20.155   4.756  0.0276  0.1069 -0.2821
    1CHOL   ROH11233  22.252  28.595   3.562 -0.0619  0.1291  0.0385
    1CHOL    R111234  22.330  28.695   3.816  0.1153  0.1307 -0.0150
    1CHOL    R211235  22.343  28.536   4.041 -0.0567  0.2012  0.0459
    1CHOL    R311236  22.597  28.632   4.055  0.0770 -0.1268 -0.0378
    1CHOL    R411237  22.550  28.510   4.317 -0.1326  0.2554  0.1087
    1CHOL    R511238  22.618  28.714   4.279  0.1523  0.1214 -0.1324
    1CHOL    C111239  22.908  28.586   4.490 -0.0512 -0.0212  0.0666
    1CHOL    C211240  23.189  28.306   4.772  0.0620  0.1464 -0.0086
    1CHOL   ROH11241  20.394  11.656   6.760 -0.0398 -0.1278  0.0802
    1CHOL    R111242  20.369  11.692   6.480  0.2357  0.1445  0.0853
    1CHOL    R211243  20.587  11.687   6.310  0.3499 -0.3202  0.2291
    1CHOL    R311244  20.441  11.496   6.182 -0.0946  0.1514 -0.0029
    1CHOL    R411245  20.655  11.566   5.993  0.2092 -0.2558  0.1737
    1CHOL    R511246  20.441  11.566   5.953  0.2155  0.3413  0.0480
    1CHOL    C111247  20.558  11.317   5.689 -0.2902  0.2245 -0.0765
    1CHOL    C211248  20.733  11.241   5.367 -0.0935 -0.0999  0.4661
    1CHOL   ROH11249  11.258  10.281   6.936  0.1555 -0.0295  0.0822
    1CHOL    R111250  11.265  10.302   6.654  0.0347 -0.0510  0.0782
    1CHOL    R211251  11.145  10.116   6.488 -0.1265 -0.0020  0.1487
    1CHOL    R311252  11.022  10.336   6.386 -0.0719  0.0460  0.1831
    1CHOL    R411253  10.926  10.114   6.220  0.0003  0.1015  0.0423
    1CHOL    R511254  11.019  10.297   6.149  0.0429  0.1361  0.1602
    1CHOL    C111255  10.684  10.319   5.968  0.1252  0.2068  0.0126
    1CHOL    C211256  10.627  10.417   5.590  0.2617 -0.2199  0.4157
    1CHOL   ROH11257   2.085  17.691   3.346 -0.1494  0.1916  0.1246
    1CHOL    R111258   1.929  17.580   3.555 -0.1328  0.0601  0.0669
    1CHOL    R211259   1.800  17.336   3.531 -0.0811  0.0478 -0.0548
    1CHOL    R311260   1.936  17.279   3.759 -0.0793 -0.0370 -0.0750
    1CHOL    R411261   1.736  17.068   3.739  0.0328 -0.1310 -0.2449
    1CHOL    R511262   1.770  17.197   3.910 -0.0572 -0.2282 -0.1496
    1CHOL    C111263   1.828  16.858   4.075  0.1008 -0.3148 -0.3744
    1CHOL    C211264   1.888  16.861   4.488  0.0892 -0.0993  0.1745
    1CHOL   ROH11265  12.541  17.718   6.756 -0.0802  0.0899  0.0946
    1CHOL    R111266  12.451  17.849   6.521  0.1318  0.0870  0.0093
    1CHOL    R211267  12.621  17.913   6.313  0.2538 -0.2603 -0.0068
    1CHOL    R311268  12.439  17.775   6.165  0.0808 -0.0951  0.0485
    1CHOL    R411269  12.559  17.964   5.976  0.3137 -0.3136 -0.0258
    1CHOL    R511270  12.346  17.938   6.016  0.2797 -0.0370 -0.0132
    1CHOL    C111271  12.352  17.864   5.642  0.1862 -0.1898  0.0150
    1CHOL    C211272  12.331  18.225   5.486  0.1158  0.2690  0.0831
    1CHOL   ROH11273  16.952   8.763   6.782  0.1721  0.3452  0.0065
    1CHOL    R111274  16.960   8.810   6.503 -0.0364  0.2116 -0.0242
    1CHOL    R211275  17.154   8.701   6.340 -0.0833  0.2372 -0.0968
    1CHOL    R311276  16.940   8.608   6.201 -0.1255  0.0495  0.0879
    1CHOL    R411277  17.170   8.470   6.083 -0.1370  0.0352  0.0791
    1CHOL    R511278  17.020   8.586   5.976 -0.2340 -0.1024  0.0621
    1CHOL    C111279  16.979   8.248   5.803 -0.2077 -0.2587  0.3548
    1CHOL    C211280  17.097   8.051   5.463 -0.2679  0.2957  0.2053
    1CHOL   ROH11281  18.688  16.890   7.028  0.1700 -0.0707 -0.0971
    1CHOL    R111282  18.581  16.858   6.768  0.0379  0.0864 -0.0640
    1CHOL    R211283  18.598  17.055   6.575  0.2387  0.0783 -0.0575
    1CHOL    R311284  18.710  16.857   6.428 -0.0757 -0.0682 -0.1073
    1CHOL    R411285  18.692  17.085   6.244  0.3152  0.0244 -0.0409
    1CHOL    R511286  18.615  16.884   6.209 -0.0173  0.1565 -0.1076
    1CHOL    C111287  18.852  16.915   5.912  0.0646 -0.1449 -0.0779
    1CHOL    C211288  18.807  17.254   5.740  0.0788  0.3469  0.1041
    1CHOL   ROH11289  20.658  17.565   3.501 -0.0843  0.1266  0.1645
    1CHOL    R111290  20.730  17.566   3.775 -0.1928  0.1514  0.1933
    1CHOL    R211291  20.605  17.406   3.963 -0.1995  0.0940  0.1383
    1CHOL    R311292  20.859  17.324   4.015 -0.1841  0.2003  0.2385
    1CHOL    R411293  20.726  17.326   4.276 -0.2910  0.1359  0.1852
    1CHOL    R511294  20.912  17.427   4.225 -0.3120  0.2175  0.2639
    1CHOL    C111295  21.034  17.202   4.508 -0.3298  0.2601  0.3065
    1CHOL    C211296  21.020  17.249   4.863  0.2193 -0.1177  0.1266
    1CHOL   ROH11297  13.033  16.108   7.014  0.0678 -0.2667  0.0373
    1CHOL    R111298  13.008  15.983   6.762 -0.0041 -0.1042 -0.0366
    1CHOL    R211299  12.854  16.089   6.558  0.0688  0.1107  0.0218
    1CHOL    R311300  13.085  16.067   6.416  0.0582  0.0472  0.0125
    1CHOL    R411301  12.875  16.086   6.213  0.0812  0.5054  0.0139
    1CHOL    R511302  13.027  15.931   6.228 -0.0731  0.3268 -0.1595
    1CHOL    C111303  13.104  16.064   5.879  0.0784  0.6752  0.0008
    1CHOL    C211304  12.929  15.951   5.579 -0.1716 -0.2033 -0.1704
    1CHOL   ROH11305  10.983   7.455   6.801 -0.0857  0.1924  0.0026
    1CHOL    R111306  10.933   7.371   6.535  0.1405 -0.0447  0.0331
    1CHOL    R211307  10.696   7.426   6.404  0.1139 -0.4749 -0.0889
    1CHOL    R311308  10.861   7.532   6.217  0.0252 -0.3457 -0.0996
    1CHOL    R411309  10.598   7.525   6.088 -0.1502  0.1600  0.1726
    1CHOL    R511310  10.782   7.440   6.010 -0.3181  0.0730 -0.1773
    1CHOL    C111311  10.696   7.682   5.728 -0.3872  0.6509  0.3149
    1CHOL    C211312  10.939   7.841   5.440  0.1740  0.3691  0.4107
    1CHOL   ROH11313  21.531   9.022   6.333  0.1497  0.1123  0.0486
    1CHOL    R111314  21.460   8.939   6.072  0.0604 -0.0110  0.1113
    1CHOL    R211315  21.613   8.762   5.925 -0.0066 -0.1041  0.1563
    1CHOL    R311316  21.379   8.625   5.907 -0.0309 -0.0856  0.2931
    1CHOL    R411317  21.550   8.510   5.698 -0.1797 -0.0536  0.1467
    1CHOL    R511318  21.349   8.591   5.672 -0.1970 -0.0340  0.3037
    1CHOL    C111319  21.293   8.234   5.548 -0.3036 -0.0070  0.2696
    1CHOL    C211320  21.267   7.839   5.383 -0.1111 -0.0744 -0.1933
    1CHOL   ROH11321  17.264  22.770   4.009  0.1448  0.0113  0.0122
    1CHOL    R111322  17.150  22.600   4.203  0.0260  0.0525 -0.0214
    1CHOL    R211323  17.275  22.542   4.443 -0.0112 -0.0860 -0.0362
    1CHOL    R311324  17.041  22.630   4.550  0.0519  0.0584 -0.0135
    1CHOL    R411325  17.145  22.437   4.745 -0.0519 -0.0153 -0.0286
    1CHOL    R511326  16.947  22.435   4.653 -0.0622  0.1124 -0.0125
    1CHOL    C111327  16.849  22.458   5.021 -0.0166  0.1616 -0.0028
    1CHOL    C211328  16.478  22.244   5.081 -0.1450 -0.0958 -0.1728
    1CHOL   ROH11329  22.012  12.699   3.509 -0.0678  0.0469  0.0507
    1CHOL    R111330  22.077  12.803   3.764 -0.0550  0.0201  0.0595
    1CHOL    R211331  21.885  12.882   3.946 -0.0467  0.1977 -0.0000
    1CHOL    R311332  22.016  12.711   4.111 -0.2330  0.1018  0.0499
    1CHOL    R411333  21.929  12.930   4.285  0.1541  0.3312 -0.0444
    1CHOL    R511334  22.133  12.854   4.264  0.0350  0.0225 -0.0782
    1CHOL    C111335  22.079  12.797   4.638  0.0960  0.3188 -0.0234
    1CHOL    C211336  21.827  12.904   4.964 -0.0972 -0.0307 -0.1389
    1CHOL   ROH11337  12.508  17.276   3.249  0.0523 -0.0553 -0.0144
    1CHOL    R111338  12.343  17.312   3.476  0.0725  0.0381 -0.0142
    1CHOL    R211339  12.299  17.110   3.660 -0.0897  0.0444 -0.0486
    1CHOL    R311340  12.385  17.297   3.838  0.0498 -0.0506 -0.0143
    1CHOL    R411341  12.270  17.085   4.004  0.0901 -0.1000 -0.0427
    1CHOL    R511342  12.220  17.296   4.010  0.1407 -0.0883  0.0762
    1CHOL    C111343  12.335  17.246   4.370  0.3258 -0.2734 -0.0069
    1CHOL    C211344  12.396  17.313   4.772 -0.1611  0.0574  0.0026
    1CHOL   ROH11345   9.300  18.652   6.197  0.3493  0.0051  0.0316
    1CHOL    R111346   9.415  18.664   5.939  0.1168 -0.0035 -0.0738
    1CHOL    R211347   9.295  18.552   5.716 -0.1432  0.1006  0.0196
    1CHOL    R311348   9.324  18.802   5.614 -0.1114  0.1032  0.0310
    1CHOL    R411349   9.357  18.624   5.384 -0.0733  0.0909  0.0296
    1CHOL    R511350   9.496  18.780   5.449 -0.0736  0.0892  0.0631
    1CHOL    C111351   9.421  18.901   5.095 -0.0028  0.0876  0.0460
    1CHOL    C211352   9.249  18.748   4.807 -0.1112  0.1657 -0.0874
    1CHOL   ROH11353  13.494   7.110   4.206  0.0197  0.0760  0.0232
    1CHOL    R111354  13.430   7.188   4.471  0.0713  0.0637  0.0393
    1CHOL    R211355  13.615   7.180   4.676  0.1390  0.1485 -0.0177
    1CHOL    R311356  13.543   7.440   4.707  0.0436  0.1214 -0.0089
    1CHOL    R411357  13.601   7.347   4.979  0.1614  0.1549 -0.0204
    1CHOL    R511358  13.418   7.444   4.911  0.1016  0.0792  0.0284
    1CHOL    C111359  13.525   7.689   5.183  0.0848  0.1333 -0.0136
    1CHOL    C211360  13.870   7.621   5.426  0.2069  0.0489 -0.3492
    1CHOL   ROH11361   7.999   9.645   4.070 -0.0177  0.2879 -0.1120
    1CHOL    R111362   8.066   9.749   4.325 -0.0616  0.2460 -0.0825
    1CHOL    R211363   7.875   9.801   4.519 -0.0835  0.0910 -0.0568
    1CHOL    R311364   8.034   9.640   4.671  0.0051  0.1240 -0.1151
    1CHOL    R411365   7.880   9.797   4.865 -0.0735 -0.0295 -0.0583
    1CHOL    R511366   8.096   9.778   4.857 -0.0654  0.0903 -0.0690
    1CHOL    C111367   8.031   9.645   5.208  0.0156 -0.0688 -0.1140
    1CHOL    C211368   7.893   9.611   5.603  0.2161  0.2826 -0.0475
    1CHOL   ROH11369  18.738   9.916   6.510 -0.0022  0.2286 -0.0098
    1CHOL    R111370  18.662   9.894   6.238  0.0438  0.1944 -0.0192
    1CHOL    R211371  18.416   9.979   6.145  0.1081  0.2913 -0.0904
    1CHOL    R311372  18.567  10.123   5.971  0.2123  0.1702 -0.1031
    1CHOL    R411373  18.308  10.095   5.837  0.1503  0.4206 -0.0576
    1CHOL    R511374  18.503  10.043   5.755  0.0931  0.2465 -0.1007
    1CHOL    C111375  18.387  10.298   5.496  0.2725  0.3824 -0.0504
    1CHOL    C211376  18.251  10.009   5.276  0.1637 -0.0472 -0.1361
    1CHOL   ROH11377   7.694  12.610   6.664 -0.0539 -0.3553  0.0261
    1CHOL    R111378   7.729  12.693   6.396 -0.0637 -0.1971  0.0739
    1CHOL    R211379   7.900  12.564   6.222 -0.0811 -0.0989 -0.0078
    1CHOL    R311380   7.678  12.549   6.066 -0.0857  0.0045 -0.0139
    1CHOL    R411381   7.903  12.531   5.878 -0.0756 -0.1249 -0.0061
    1CHOL    R511382   7.736  12.672   5.868 -0.0083 -0.0348 -0.0217
    1CHOL    C111383   7.695  12.498   5.531 -0.0767 -0.0429 -0.0109
    1CHOL    C211384   7.550  12.242   5.324  0.1154  0.0318  0.2834
    1CHOL   ROH11385  21.384  18.929   6.335 -0.2749 -0.0528  0.1645
    1CHOL    R111386  21.194  18.939   6.126 -0.1870  0.0074  0.0860
    1CHOL    R211387  20.935  19.027   6.164 -0.2215 -0.0526  0.0139
    1CHOL    R311388  20.996  19.196   5.961 -0.1580  0.0482  0.1162
    1CHOL    R411389  20.703  19.184   5.963 -0.1528 -0.0350 -0.0510
    1CHOL    R511390  20.833  19.147   5.792 -0.0496  0.0728  0.0061
    1CHOL    C111391  20.625  19.435   5.654 -0.0531  0.0699  0.0072
    1CHOL    C211392  20.661  19.582   5.418  0.4778  0.2743  0.1554
    1CHOL   ROH11393   8.367  27.569   3.851 -0.0065 -0.1075 -0.0210
    1CHOL    R111394   8.259  27.522   4.109 -0.0849 -0.1955 -0.0693
    1CHOL    R211395   8.386  27.363   4.296 -0.0100 -0.0478  0.0060
    1CHOL    R311396   8.360  27.584   4.453 -0.3166 -0.0577 -0.0237
    1CHOL    R411397   8.415  27.365   4.641 -0.1991  0.0076  0.0229
    1CHOL    R511398   8.247  27.504   4.649 -0.3466 -0.1565 -0.0792
    1CHOL    C111399   8.407  27.572   4.989 -0.5972  0.0307  0.0047
    1CHOL    C211400   8.763  27.510   5.098 -0.1455 -0.0039 -0.0686
    1CHOL   ROH11401  21.044   2.574   3.582  0.1208 -0.1009 -0.0853
    1CHOL    R111402  21.154   2.665   3.826 -0.0732 -0.0350 -0.0188
    1CHOL    R211403  21.245   2.493   4.021 -0.1204  0.0141  0.0567
    1CHOL    R311404  21.474   2.638   3.998 -0.1704  0.1118  0.1836
    1CHOL    R411405  21.494   2.505   4.260 -0.0653 -0.1938  0.0110
    1CHOL    R511406  21.514   2.720   4.221 -0.1403 -0.1443  0.2688
    1CHOL    C111407  21.854   2.649   4.379 -0.0801 -0.2231  0.1037
    1CHOL    C211408  22.221   2.651   4.510 -0.0097  0.1911 -0.1605
    1CHOL   ROH11409  13.723  10.151   7.453  0.0211 -0.2143  0.0026
    1CHOL    R111410  13.627  10.017   7.223 -0.2265 -0.0455  0.0052
    1CHOL    R211411  13.418  10.115   7.071  0.0082  0.3910 -0.0496
    1CHOL    R311412  13.597  10.091   6.868  0.0046 -0.0312 -0.0136
    1CHOL    R411413  13.336  10.095   6.735  0.0225  0.5398 -0.0632
    1CHOL    R511414  13.491   9.945   6.711 -0.3004  0.1813 -0.0181
    1CHOL    C111415  13.457  10.062   6.350  0.0274  0.2302 -0.0372
    1CHOL    C211416  13.265   9.894   6.012 -0.0066  0.0681 -0.2471
    1CHOL   ROH11417  16.782  21.004   6.907 -0.1397  0.0990  0.2188
    1CHOL    R111418  16.547  21.049   6.756 -0.1179 -0.0752  0.1304
    1CHOL    R211419  16.542  21.211   6.532 -0.1498 -0.0927  0.1206
    1CHOL    R311420  16.436  20.991   6.414  0.0458 -0.1747  0.0931
    1CHOL    R411421  16.432  21.196   6.205 -0.2241 -0.1202  0.1463
    1CHOL    R511422  16.263  21.076   6.273 -0.0842 -0.3151  0.1630
    1CHOL    C111423  16.268  20.980   5.904 -0.0839 -0.2128  0.1354
    1CHOL    C211424  16.198  20.971   5.632 -0.0325  0.2402  0.1955
    1CHOL   ROH11425  24.723   7.223   5.671 -0.2298  0.1400 -0.0304
    1CHOL    R111426  24.788   7.096   5.427  0.1950  0.2065  0.0381
    1CHOL    R211427  24.596   7.026   5.240  0.4355 -0.3228 -0.0360
    1CHOL    R311428  24.753   7.172   5.072  0.1732  0.0130 -0.0009
    1CHOL    R411429  24.639   6.962   4.903  0.3601  0.0078 -0.1122
    1CHOL    R511430  24.850   7.009   4.926  0.3108  0.2554 -0.1811
    1CHOL    C111431  24.812   7.060   4.550  0.0701  0.5156 -0.1237
    1CHOL    C211432  25.054   7.248   4.226 -0.2863 -0.1764  0.1159
    1CHOL   ROH11433   7.177  13.317   6.521  0.0352 -0.0145  0.1158
    1CHOL    R111434   7.042  13.320   6.273  0.1381  0.2021  0.0603
    1CHOL    R211435   7.121  13.481   6.062  0.5549 -0.0006  0.0540
    1CHOL    R311436   7.125  13.246   5.926  0.1334 -0.0493  0.1106
    1CHOL    R411437   7.160  13.451   5.720  0.5271 -0.1508  0.0630
    1CHOL    R511438   7.010  13.293   5.722  0.2303  0.1176  0.0907
    1CHOL    C111439   7.186  13.212   5.393  0.1153 -0.2840  0.1215
    1CHOL    C211440   7.148  13.050   4.965  0.0673  0.1587 -0.1616
    1CHOL   ROH11441  16.439  22.785   6.847  0.1460 -0.2459  0.2449
    1CHOL    R111442  16.498  22.565   6.678  0.0537 -0.1249  0.0507
    1CHOL    R211443  16.453  22.571   6.406  0.0650  0.1371  0.0521
    1CHOL    R311444  16.716  22.501   6.394  0.0347  0.0293 -0.0001
    1CHOL    R411445  16.621  22.482   6.117 -0.0564 -0.0356  0.0328
    1CHOL    R511446  16.724  22.326   6.230 -0.0841 -0.0354  0.0605
    1CHOL    C111447  16.965  22.366   5.937 -0.1556 -0.2371 -0.0275
    1CHOL    C211448  16.854  22.271   5.578 -0.0292 -0.0362  0.0462
    1CHOL   ROH11449  10.170  16.253   6.460  0.0681  0.0363 -0.0399
    1CHOL    R111450  10.025  16.243   6.217  0.0834 -0.0480 -0.0459
    1CHOL    R211451  10.078  16.411   6.004 -0.0283  0.0086 -0.0310
    1CHOL    R311452  10.099  16.178   5.867  0.1440  0.0328 -0.0480
    1CHOL    R411453  10.039  16.378   5.663 -0.0033 -0.0005 -0.0331
    1CHOL    R511454   9.931  16.193   5.698  0.1339 -0.0817 -0.0468
    1CHOL    C111455  10.035  16.140   5.335  0.1729  0.0168 -0.0503
    1CHOL    C211456  10.005  15.961   5.013  0.1753  0.1041  0.0466
    1CHOL   ROH11457   7.730  17.663   4.492  0.0120  0.0399 -0.0160
    1CHOL    R111458   7.795  17.414   4.609  0.0902  0.0700  0.0052
    1CHOL    R211459   7.877  17.389   4.872 -0.0916  0.0973  0.0642
    1CHOL    R311460   7.672  17.212   4.885  0.0157 -0.0427 -0.1087
    1CHOL    R411461   7.865  17.115   5.082 -0.2080  0.2688  0.2858
    1CHOL    R511462   7.777  17.000   4.919  0.1286  0.0609  0.2383
    1CHOL    C111463   7.665  16.789   5.216 -0.1751  0.2371  0.2526
    1CHOL    C211464   7.376  16.604   5.223  0.1694 -0.2436 -0.1268
    1CHOL   ROH11465  21.418  15.052   6.421 -0.1561 -0.0440  0.2709
    1CHOL    R111466  21.414  15.228   6.200 -0.1431  0.0423  0.3392
    1CHOL    R211467  21.514  15.159   5.952  0.0410  0.2045  0.3658
    1CHOL    R311468  21.266  15.232   5.868  0.0403  0.0811  0.2565
    1CHOL    R411469  21.414  15.180   5.621  0.1464  0.0632  0.3236
    1CHOL    R511470  21.305  15.361   5.671  0.0572  0.0358  0.2301
    1CHOL    C111471  21.123  15.262   5.351  0.2068 -0.1348  0.1966
    1CHOL    C211472  21.046  15.185   4.981  0.0232  0.1059  0.1756
    1CHOL   ROH11473  13.868  19.653   6.811  0.1829 -0.1396 -0.0837
    1CHOL    R111474  13.747  19.724   6.565  0.0835 -0.0830 -0.0202
    1CHOL    R211475  13.802  19.963   6.436 -0.0256 -0.0153  0.0467
    1CHOL    R311476  13.860  19.800   6.228 -0.0423  0.0742 -0.0270
    1CHOL    R411477  13.773  20.050   6.103 -0.1879  0.0705  0.0830
    1CHOL    R511478  13.694  19.851   6.063 -0.1224  0.0559  0.0530
    1CHOL    C111479  13.811  19.947   5.713 -0.2980  0.2045  0.0350
    1CHOL    C211480  13.856  20.049   5.274  0.4305  0.0196 -0.2367
    1CHOL   ROH11481  11.464  17.878   3.087  0.0721  0.0298  0.0600
    1CHOL    R111482  11.557  17.777   3.335  0.0597  0.0751  0.0830
    1CHOL    R211483  11.676  17.938   3.525 -0.0009  0.1197  0.0819
    1CHOL    R311484  11.485  17.833   3.687  0.0001  0.0958  0.0679
    1CHOL    R411485  11.677  17.956   3.870 -0.0584  0.1744  0.0796
    1CHOL    R511486  11.606  17.751   3.877 -0.0072  0.1559  0.1000
    1CHOL    C111487  11.498  17.868   4.223 -0.0909  0.1837  0.0652
    1CHOL    C211488  11.498  17.730   4.576 -0.0499 -0.1167 -0.0700
    1CHOL   ROH11489  12.811  16.087   3.358  0.0284 -0.1187  0.1298
    1CHOL    R111490  12.636  16.093   3.581 -0.0041 -0.0315  0.1023
    1CHOL    R211491  12.612  15.881   3.756 -0.0955  0.0036  0.1305
    1CHOL    R311492  12.668  16.070   3.942 -0.0677  0.0144  0.1114
    1CHOL    R411493  12.636  15.821   4.095 -0.0891  0.0281  0.1344
    1CHOL    R511494  12.533  16.010   4.131 -0.0680  0.0439  0.1220
    1CHOL    C111495  12.704  15.965   4.468 -0.0592  0.0524  0.1188
    1CHOL    C211496  12.766  15.984   4.829 -0.0234 -0.2833 -0.0717
    1CHOL   ROH11497   9.453   1.347   6.931 -0.2072  0.0690  0.0697
    1CHOL    R111498   9.633   1.217   6.755 -0.2045  0.0125  0.1151
    1CHOL    R211499   9.553   1.015   6.584 -0.2351  0.0720  0.0648
    1CHOL    R311500   9.665   1.175   6.395 -0.0973  0.0431  0.1199
    1CHOL    R411501   9.686   0.903   6.285 -0.4163  0.0622 -0.0145
    1CHOL    R511502   9.849   1.046   6.310 -0.2506 -0.1231  0.0244
    1CHOL    C111503   9.869   0.988   5.934 -0.3926  0.0293 -0.0089
    1CHOL    C211504   9.903   1.132   5.635  0.0636  0.0738 -0.1293
    1CHOL   ROH11505  17.564  20.593   6.703 -0.1286 -0.0262  0.0786
    1CHOL    R111506  17.457  20.718   6.472 -0.0396 -0.0424  0.0283
    1CHOL    R211507  17.539  20.652   6.217  0.0393 -0.0808  0.0628
    1CHOL    R311508  17.273  20.612   6.176  0.0483 -0.0593 -0.0205
    1CHOL    R411509  17.372  20.720   5.922  0.1214 -0.0009  0.0338
    1CHOL    R511510  17.206  20.797   6.040  0.0930 -0.0232  0.0070
    1CHOL    C111511  17.024  20.722   5.713  0.1777  0.0659 -0.0611
    1CHOL    C211512  16.836  20.450   5.436  0.1839 -0.1412  0.0551
    1CHOL   ROH11513   8.221  21.123   3.141  0.0994  0.1886 -0.0808
    1CHOL    R111514   8.229  21.017   3.403  0.3037  0.0478 -0.1402
    1CHOL    R211515   8.457  21.023   3.559  0.3056  0.3947 -0.1382
    1CHOL    R311516   8.293  21.145   3.738  0.0634 -0.0158 -0.0703
    1CHOL    R411517   8.538  21.085   3.890  0.0574  0.1224 -0.0231
    1CHOL    R511518   8.334  21.029   3.944  0.1029 -0.1976 -0.1838
    1CHOL    C111519   8.430  21.235   4.250 -0.3144 -0.4215  0.1077
    1CHOL    C211520   8.225  21.169   4.566  0.0934 -0.3053 -0.2027
    1CHOL   ROH11521  17.211  16.049   3.258 -0.0721  0.1226  0.0062
    1CHOL    R111522  17.235  16.086   3.538  0.0829  0.0886 -0.0022
    1CHOL    R211523  17.078  15.951   3.720  0.0066  0.2566  0.0562
    1CHOL    R311524  17.318  15.879   3.826 -0.0267 -0.0121 -0.0417
    1CHOL    R411525  17.142  15.918   4.058  0.1650  0.4246  0.0443
    1CHOL    R511526  17.336  16.011   4.025  0.2879  0.1200 -0.1508
    1CHOL    C111527  17.404  15.831   4.354  0.2260  0.2703 -0.0544
    1CHOL    C211528  17.452  15.758   4.786 -0.2874  0.0023 -0.1766
    1CHOL   ROH11529  19.192  18.249   3.764 -0.1045 -0.0612  0.2048
    1CHOL    R111530  19.239  18.323   4.034 -0.1682 -0.1706  0.2450
    1CHOL    R211531  19.144  18.176   4.247  0.1392 -0.4911  0.1597
    1CHOL    R311532  19.406  18.177   4.323  0.1609 -0.0902  0.1037
    1CHOL    R411533  19.256  18.172   4.574  0.2000 -0.5444  0.1399
    1CHOL    R511534  19.410  18.315   4.518 -0.0516 -0.2200  0.2113
    1CHOL    C111535  19.566  18.171   4.835  0.2559 -0.1989  0.0758
    1CHOL    C211536  19.652  18.262   5.074  0.0485 -0.0514 -0.1685
    1CHOL   ROH11537  26.892  15.755   5.358  0.1785 -0.0510  0.1892
    1CHOL    R111538  26.707  15.797   5.148  0.2105  0.0561  0.1804
    1CHOL    R211539  26.785  15.878   4.895  0.2762 -0.0501  0.1606
    1CHOL    R311540  26.646  15.657   4.817  0.1045  0.0409  0.2075
    1CHOL    R411541  26.659  15.825   4.578  0.0426  0.0696  0.2321
    1CHOL    R511542  26.479  15.741   4.668  0.0561  0.1548  0.3292
    1CHOL    C111543  26.456  15.588   4.320 -0.2547  0.2247  0.3177
    1CHOL    C211544  26.410  15.466   3.954 -0.0675 -0.1238  0.0210
    1CHOL   ROH11545  20.623  13.648   3.426 -0.1282 -0.1212 -0.2350
    1CHOL    R111546  20.455  13.607   3.650 -0.1355 -0.0473 -0.2268
    1CHOL    R211547  20.362  13.357   3.723 -0.0478 -0.0391 -0.0826
    1CHOL    R311548  20.473  13.422   3.963 -0.0963  0.1506 -0.1100
    1CHOL    R411549  20.275  13.215   4.026 -0.0660  0.1552  0.0043
    1CHOL    R511550  20.290  13.412   4.117 -0.1182  0.2233 -0.1307
    1CHOL    C111551  20.328  13.194   4.427 -0.1220  0.4463  0.0292
    1CHOL    C211552  20.430  13.056   4.717 -0.0015  0.2487  0.1081
    1CHOL   ROH11553   1.693   7.604   5.283  0.1660 -0.0040  0.0251
    1CHOL    R111554   1.638   7.795   5.081  0.1837  0.0188  0.0421
    1CHOL    R211555   1.407   7.790   4.931  0.2239  0.0022 -0.0170
    1CHOL    R311556   1.383   8.046   5.018  0.1556 -0.0152  0.0168
    1CHOL    R411557   1.146   8.002   4.851  0.2293 -0.0198 -0.0941
    1CHOL    R511558   1.290   8.164   4.831  0.2196  0.0032 -0.0056
    1CHOL    C111559   0.971   8.366   4.887  0.1682 -0.0491 -0.1072
    1CHOL    C211560   0.621   8.422   4.900 -0.2775 -0.1585  0.1357
    1CHOL   ROH11561  15.304   7.171   4.165  0.0843 -0.2233 -0.0657
    1CHOL    R111562  15.424   7.183   4.421  0.0985 -0.1630 -0.0773
    1CHOL    R211563  15.415   7.409   4.580 -0.0754 -0.2020 -0.0480
    1CHOL    R311564  15.313   7.236   4.763  0.0913 -0.3108 -0.0529
    1CHOL    R411565  15.434   7.450   4.922 -0.0319 -0.2222 -0.0463
    1CHOL    R511566  15.474   7.237   4.941  0.1387 -0.2068 -0.0844
    1CHOL    C111567  15.350   7.312   5.294  0.1498 -0.3360 -0.0499
    1CHOL    C211568  15.018   7.497   5.502 -0.1587 -0.0967  0.0939
    1CHOL   ROH11569  10.026  11.360   3.648 -0.0092  0.1570 -0.0345
    1CHOL    R111570  10.060  11.564   3.841  0.0798  0.1037  0.0073
    1CHOL    R211571   9.970  11.540   4.101  0.0315  0.1072 -0.0082
    1CHOL    R311572  10.228  11.599   4.162  0.0571 -0.0488  0.0363
    1CHOL    R411573  10.078  11.663   4.406  0.0149  0.2690 -0.0671
    1CHOL    R511574  10.213  11.795   4.299  0.1609  0.0757 -0.1277
    1CHOL    C111575  10.383  11.789   4.640  0.0295  0.2167 -0.0595
    1CHOL    C211576  10.434  12.015   4.884  0.3811  0.0900  0.0212
    1CHOL   ROH11577  14.980  12.294   3.379  0.0317 -0.0795 -0.0387
    1CHOL    R111578  14.841  12.398   3.603  0.1186  0.0499 -0.0442
    1CHOL    R211579  14.720  12.236   3.792  0.0061  0.1620 -0.0222
    1CHOL    R311580  14.872  12.380   3.965  0.1194  0.0685 -0.0424
    1CHOL    R411581  14.686  12.231   4.136 -0.1740  0.4188 -0.0328
    1CHOL    R511582  14.719  12.446   4.138  0.1166  0.3834 -0.1552
    1CHOL    C111583  14.809  12.362   4.499 -0.1725  0.4804 -0.0579
    1CHOL    C211584  14.853  12.370   4.927 -0.1798  0.1839 -0.0735
    1CHOL   ROH11585  19.664  17.829   7.060  0.1370  0.0857 -0.0729
    1CHOL    R111586  19.602  17.967   6.821  0.1433  0.0813 -0.0760
    1CHOL    R211587  19.794  18.088   6.664  0.1476  0.0502 -0.0860
    1CHOL    R311588  19.685  17.936   6.468  0.1236  0.0582 -0.0802
    1CHOL    R411589  19.814  18.158   6.326  0.3264 -0.0577 -0.0999
    1CHOL    R511590  19.606  18.094   6.306  0.2866  0.0676 -0.1587
    1CHOL    C111591  19.722  18.056   5.945  0.4080 -0.1130 -0.1026
    1CHOL    C211592  19.898  18.267   5.604  0.4047 -0.2822 -0.1460
    1CHOL   ROH11593  13.017  14.382   3.344 -0.3993  0.2209  0.0217
    1CHOL    R111594  13.188  14.437   3.562 -0.2642 -0.0338 -0.0145
    1CHOL    R211595  13.150  14.654   3.730  0.0674  0.0032  0.0263
    1CHOL    R311596  13.156  14.463   3.924 -0.1386 -0.0355 -0.0042
    1CHOL    R411597  13.141  14.717   4.070  0.0888 -0.0522  0.0368
    1CHOL    R511598  13.289  14.560   4.098 -0.0679 -0.1974  0.0284
    1CHOL    C111599  13.141  14.575   4.449 -0.0921 -0.1209  0.0142
    1CHOL    C211600  13.027  14.686   4.683 -0.5196 -0.2484 -0.0482
    1CHOL   ROH11601   0.608   2.597   5.786  0.1188 -0.2021  0.2279
    1CHOL    R111602   0.622   2.421   5.565  0.1786 -0.1320  0.1742
    1CHOL    R211603   0.692   2.505   5.311  0.0773 -0.0167  0.1796
    1CHOL    R311604   0.878   2.307   5.332  0.1999  0.0885  0.0897
    1CHOL    R411605   0.813   2.318   5.047  0.1751  0.1539  0.1032
    1CHOL    R511606   0.807   2.142   5.175  0.2932  0.1039  0.0353
    1CHOL    C111607   1.059   2.024   4.913  0.3473  0.3520 -0.0258
    1CHOL    C211608   1.352   1.958   4.749 -0.0540 -0.0511  0.0858
    1CHOL   ROH11609   9.397  16.466   3.206 -0.1223  0.0020  0.0756
    1CHOL    R111610   9.328  16.572   3.459 -0.1603 -0.0092  0.0692
    1CHOL    R211611   9.117  16.474   3.609 -0.0994 -0.1005  0.0887
    1CHOL    R311612   9.307  16.448   3.801 -0.0776  0.0151  0.0845
    1CHOL    R411613   9.075  16.561   3.941 -0.1784 -0.1893  0.1029
    1CHOL    R511614   9.278  16.641   3.940 -0.2356 -0.0264  0.1173
    1CHOL    C111615   9.230  16.587   4.315 -0.2039 -0.1325  0.1071
    1CHOL    C211616   9.053  16.784   4.471  0.3258  0.1095 -0.2175
    1CHOL   ROH11617  20.415  19.587   4.040 -0.0719 -0.0935  0.1473
    1CHOL    R111618  20.632  19.762   4.088 -0.0900 -0.0969  0.2408
    1CHOL    R211619  20.776  19.759   4.324  0.0678 -0.3812  0.1428
    1CHOL    R311620  20.988  19.729   4.156 -0.0320 -0.0918 -0.0437
    1CHOL    R411621  21.106  19.732   4.425  0.1254 -0.5964 -0.0911
    1CHOL    R511622  21.162  19.859   4.256  0.0357 -0.2856  0.1008
    1CHOL    C111623  21.496  19.688   4.326  0.0652 -0.4502 -0.4022
    1CHOL    C211624  21.621  19.482   4.633 -0.1775  0.0452  0.0029
    1CHOL   ROH11625  10.871   5.484   6.410 -0.1901 -0.1834  0.1074
    1CHOL    R111626  10.681   5.532   6.206 -0.2094 -0.0442  0.1563
    1CHOL    R211627  10.712   5.732   6.017 -0.0764 -0.1100  0.1051
    1CHOL    R311628  10.677   5.527   5.842 -0.3246 -0.1160  0.1582
    1CHOL    R411629  10.655   5.770   5.679 -0.0306 -0.1306  0.0953
    1CHOL    R511630  10.511   5.607   5.690 -0.2289  0.0463  0.1379
    1CHOL    C111631  10.590   5.600   5.317 -0.2370 -0.1482  0.1395
    1CHOL    C211632  10.621   5.715   5.019 -0.1628 -0.0462 -0.0089
    1CHOL   ROH11633  26.845  23.773   3.635  0.4764  0.3428  0.0400
    1CHOL    R111634  26.746  23.704   3.891  0.2522  0.0916 -0.1087
    1CHOL    R211635  26.880  23.768   4.124 -0.0020 -0.0389  0.0788
    1CHOL    R311636  26.642  23.882   4.191 -0.1183 -0.1951 -0.0598
    1CHOL    R411637  26.797  23.881   4.440 -0.1367  0.2102 -0.0424
    1CHOL    R511638  26.597  23.800   4.411 -0.0571 -0.0125  0.0222
    1CHOL    C111639  26.525  24.053   4.687 -0.3241  0.2083 -0.2431
    1CHOL    C211640  26.408  24.156   5.072  0.3996  0.1076  0.1435
    1CHOL   ROH11641  10.659  14.176   7.198 -0.0990  0.0394 -0.0477
    1CHOL    R111642  10.790  14.132   6.951 -0.0735  0.4223 -0.1096
    1CHOL    R211643  10.744  13.908   6.796  0.6124  0.1822 -0.0149
    1CHOL    R311644  10.692  14.093   6.603 -0.1571 -0.0280 -0.0388
    1CHOL    R411645  10.720  13.839   6.458  0.6063  0.0165  0.0196
    1CHOL    R511646  10.828  14.025   6.417 -0.0460  0.3862 -0.1119
    1CHOL    C111647  10.658  13.972   6.080 -0.1199 -0.2773  0.0172
    1CHOL    C211648  10.747  13.959   5.675  0.3362  0.0803 -0.4221
    1CHOL   ROH11649   2.171  15.533   5.544 -0.1655 -0.4584  0.1112
    1CHOL    R111650   2.108  15.395   5.305 -0.2187 -0.2420 -0.0031
    1CHOL    R211651   2.007  15.523   5.081 -0.0845 -0.0059  0.0649
    1CHOL    R311652   2.218  15.403   4.958 -0.1438 -0.0684  0.0245
    1CHOL    R411653   2.005  15.403   4.757 -0.1454  0.0875  0.0310
    1CHOL    R511654   2.119  15.231   4.825 -0.2248  0.0163 -0.0228
    1CHOL    C111655   2.201  15.222   4.452 -0.2366  0.0830 -0.0266
    1CHOL    C211656   2.208  14.961   4.165  0.2717  0.0627 -0.1016
    1CHOL   ROH11657  15.434   4.193   7.080 -0.1899  0.0301  0.0428
    1CHOL    R111658  15.273   4.197   6.847 -0.2200  0.0541  0.0633
    1CHOL    R211659  15.016   4.298   6.845 -0.1957  0.1229  0.0888
    1CHOL    R311660  15.112   4.450   6.641 -0.1794  0.0810  0.0660
    1CHOL    R411661  14.824   4.499   6.640 -0.1563  0.1950  0.1224
    1CHOL    R511662  14.945   4.434   6.471 -0.2180  0.1449  0.1007
    1CHOL    C111663  14.802   4.758   6.328 -0.1180  0.1975  0.1205
    1CHOL    C211664  14.532   4.642   6.078  0.0006 -0.0525  0.0022
    1CHOL   ROH11665  24.457  22.139   3.730 -0.0756  0.0797  0.0227
    1CHOL    R111666  24.468  22.017   3.985 -0.0002  0.0508  0.0055
    1CHOL    R211667  24.704  21.992   4.128  0.0203  0.1417 -0.0162
    1CHOL    R311668  24.561  22.117   4.322 -0.0229  0.0477  0.0134
    1CHOL    R411669  24.685  21.889   4.457  0.0739  0.0648 -0.0367
    1CHOL    R511670  24.473  21.939   4.456  0.0514 -0.0170 -0.0200
    1CHOL    C111671  24.540  21.947   4.832  0.0647 -0.0682 -0.0210
    1CHOL    C211672  24.645  21.737   5.030  0.0385 -0.1473 -0.2762
    1CHOL   ROH11673  17.278  13.675   3.088 -0.1779 -0.0060  0.0375
    1CHOL    R111674  17.230  13.714   3.364 -0.1588 -0.0554  0.0482
    1CHOL    R211675  17.262  13.512   3.550 -0.2069 -0.1078  0.0051
    1CHOL    R311676  17.424  13.694   3.671 -0.1538 -0.1778  0.0356
    1CHOL    R411677  17.374  13.491   3.877 -0.2552 -0.1587  0.0182
    1CHOL    R511678  17.343  13.706   3.896 -0.1737 -0.1532  0.0230
    1CHOL    C111679  17.590  13.649   4.180 -0.2335 -0.2540  0.0545
    1CHOL    C211680  17.599  13.725   4.527  0.0077  0.0579  0.0624
    1CHOL   ROH11681  18.073  13.044   3.252 -0.1938 -0.0679  0.0225
    1CHOL    R111682  18.055  12.917   3.504  0.0324 -0.2638 -0.0553
    1CHOL    R211683  18.269  12.785   3.620  0.3033  0.1121 -0.1026
    1CHOL    R311684  18.215  12.950   3.829 -0.0855 -0.1160 -0.0119
    1CHOL    R411685  18.381  12.737   3.943  0.3548  0.1597 -0.1141
    1CHOL    R511686  18.186  12.803   4.016  0.1950 -0.2934 -0.1030
    1CHOL    C111687  18.396  12.865   4.328  0.0200 -0.0265 -0.0356
    1CHOL    C211688  18.296  12.990   4.681 -0.0479 -0.1259  0.0393
    1CHOL   ROH11689  15.425  17.698   3.499  0.2101  0.1223  0.0806
    1CHOL    R111690  15.528  17.774   3.751  0.1608  0.0093  0.1357
    1CHOL    R211691  15.367  17.856   3.959  0.1257  0.0037  0.1143
    1CHOL    R311692  15.495  17.659   4.095  0.0151 -0.0851  0.0904
    1CHOL    R411693  15.421  17.855   4.301  0.3766  0.0693  0.0759
    1CHOL    R511694  15.621  17.775   4.263  0.2643 -0.1579 -0.0427
    1CHOL    C111695  15.574  17.669   4.627  0.4187  0.0244  0.0311
    1CHOL    C211696  15.705  17.783   4.922 -0.1680  0.0083  0.2341
    1CHOL   ROH11697   2.696  18.328   5.236 -0.1526 -0.1099 -0.0303
    1CHOL    R111698   2.603  18.334   4.969 -0.0025 -0.1925 -0.0852
    1CHOL    R211699   2.599  18.565   4.817 -0.2722 -0.1579 -0.0273
    1CHOL    R311700   2.742  18.413   4.642  0.0734  0.1043  0.0148
    1CHOL    R411701   2.636  18.635   4.481 -0.4749 -0.1822 -0.0557
    1CHOL    R511702   2.614  18.422   4.439  0.0199 -0.2651  0.0224
    1CHOL    C111703   2.791  18.534   4.120 -0.2684  0.0498 -0.0328
    1CHOL    C211704   2.892  18.615   3.713  0.1630 -0.1067  0.0075
    1CHOL   ROH11705   9.025  11.915   6.861  0.0140 -0.1907  0.0716
    1CHOL    R111706   9.132  11.955   6.603 -0.0141 -0.1124  0.0720
    1CHOL    R211707   9.185  11.746   6.430  0.0203 -0.0637  0.0255
    1CHOL    R311708   9.028  11.890   6.260 -0.0239 -0.0640  0.0653
    1CHOL    R411709   9.151  11.683   6.091 -0.0483 -0.0527  0.0299
    1CHOL    R511710   9.154  11.899   6.056 -0.0665 -0.0497  0.0382
    1CHOL    C111711   8.984  11.782   5.735 -0.1296 -0.0466  0.0698
    1CHOL    C211712   8.817  11.695   5.394  0.0449 -0.0907 -0.1063
    1CHOL   ROH11713   2.416  24.497   5.838 -0.0284 -0.2650  0.0901
    1CHOL    R111714   2.327  24.653   5.619  0.0851 -0.2364  0.0643
    1CHOL    R211715   2.161  24.872   5.650  0.0865 -0.2305  0.0094
    1CHOL    R311716   2.358  25.000   5.512  0.1589 -0.2270  0.1127
    1CHOL    R411717   2.130  25.184   5.505  0.0862 -0.3182 -0.1827
    1CHOL    R511718   2.243  25.110   5.334  0.2671 -0.3667 -0.0488
    1CHOL    C111719   2.296  25.485   5.290  0.1539 -0.3657 -0.1977
    1CHOL    C211720   2.146  25.550   4.978  0.0059 -0.2231  0.2232
    1CHOL   ROH11721  19.220  13.285   3.408  0.4593 -0.1713 -0.0640
    1CHOL    R111722  19.156  13.199   3.670  0.2556 -0.0574 -0.0732
    1CHOL    R211723  19.250  12.962   3.776  0.1229 -0.0467  0.0835
    1CHOL    R311724  19.339  13.123   3.976  0.0279  0.0080  0.0806
    1CHOL    R411725  19.324  12.857   4.097  0.0029  0.0411  0.1394
    1CHOL    R511726  19.231  13.039   4.172 -0.0417  0.0491  0.0572
    1CHOL    C111727  19.450  12.948   4.471 -0.1559  0.1435  0.1692
    1CHOL    C211728  19.618  12.807   4.836  0.0917  0.0344  0.3044
    1CHOL   ROH11729  16.432  15.685   3.105 -0.0120 -0.0869  0.0103
    1CHOL    R111730  16.251  15.798   3.290  0.0179  0.0888 -0.0660
    1CHOL    R211731  16.166  15.664   3.517 -0.2033  0.1712 -0.0996
    1CHOL    R311732  16.255  15.887   3.643 -0.0429  0.0900 -0.0648
    1CHOL    R411733  16.134  15.726   3.855 -0.1561  0.1378 -0.0885
    1CHOL    R511734  16.088  15.934   3.808 -0.0113  0.1808 -0.0554
    1CHOL    C111735  16.198  15.973   4.171  0.0215  0.0420 -0.0494
    1CHOL    C211736  16.231  16.000   4.559  0.3510 -0.0581 -0.1163
    1CHOL   ROH11737   5.066   6.046   4.201  0.2684  0.0620  0.1107
    1CHOL    R111738   5.177   5.825   4.338  0.2349  0.0353  0.0958
    1CHOL    R211739   5.354   5.854   4.548  0.1624 -0.0044  0.1655
    1CHOL    R311740   5.175   5.698   4.679  0.1250 -0.0460  0.0648
    1CHOL    R411741   5.423   5.668   4.832  0.0492 -0.0029  0.1942
    1CHOL    R511742   5.302   5.507   4.750  0.1250 -0.0229  0.1237
    1CHOL    C111743   5.295   5.414   5.119 -0.0517 -0.0410  0.1163
    1CHOL    C211744   5.280   5.025   5.168 -0.1116  0.0562 -0.0828
    1CHOL   ROH11745  19.076  11.159   6.798  0.0063 -0.3723  0.0678
    1CHOL    R111746  19.112  11.173   6.518  0.0710 -0.3453  0.0770
    1CHOL    R211747  19.126  10.947   6.358 -0.1747 -0.3254  0.0230
    1CHOL    R311748  18.926  11.071   6.222 -0.0044 -0.0473  0.0192
    1CHOL    R411749  19.096  10.953   6.014 -0.1938 -0.3374  0.0246
    1CHOL    R511750  19.034  11.162   6.028  0.1170 -0.2383 -0.0045
    1CHOL    C111751  18.891  11.073   5.686 -0.0450 -0.0834  0.0220
    1CHOL    C211752  19.108  11.048   5.402  0.0381  0.0509 -0.1404
    1CHOL   ROH11753  25.763  20.462   3.556  0.0983  0.0335  0.3424
    1CHOL    R111754  25.700  20.298   3.779  0.0058 -0.0818  0.2342
    1CHOL    R211755  25.641  20.403   4.028  0.0325 -0.2132  0.3012
    1CHOL    R311756  25.416  20.253   4.001 -0.0333 -0.0927  0.1802
    1CHOL    R411757  25.406  20.353   4.276 -0.1253 -0.1063  0.1742
    1CHOL    R511758  25.390  20.145   4.213 -0.2028 -0.0905  0.1581
    1CHOL    C111759  25.058  20.184   4.396 -0.2789  0.0690 -0.0132
    1CHOL    C211760  25.117  19.831   4.683  0.0505 -0.1559 -0.0790
    1CHOL   ROH11761  14.472  17.635   3.424  0.0434 -0.3105 -0.0547
    1CHOL    R111762  14.415  17.661   3.700  0.1233 -0.0614 -0.0590
    1CHOL    R211763  14.462  17.458   3.881 -0.1037 -0.0112  0.0621
    1CHOL    R311764  14.603  17.651   4.011  0.1677 -0.1043 -0.0876
    1CHOL    R411765  14.505  17.475   4.224 -0.1130  0.2149  0.0536
    1CHOL    R511766  14.479  17.691   4.212  0.2040  0.2478 -0.1299
    1CHOL    C111767  14.663  17.665   4.545  0.1362  0.2587 -0.0919
    1CHOL    C211768  14.617  17.621   4.910  0.1489 -0.1568  0.0632
    1CHOL   ROH11769  16.643  14.125   6.743  0.0858 -0.1511 -0.1072
    1CHOL    R111770  16.655  14.273   6.501 -0.1427 -0.0720 -0.0707
    1CHOL    R211771  16.824  14.205   6.293 -0.0068  0.2637 -0.0628
    1CHOL    R311772  16.594  14.208   6.148  0.0006 -0.0907 -0.0963
    1CHOL    R411773  16.805  14.157   5.952  0.1865  0.5552 -0.1189
    1CHOL    R511774  16.655  14.315   5.943 -0.1692  0.2576  0.0146
    1CHOL    C111775  16.579  14.133   5.617  0.3061  0.3925 -0.1830
    1CHOL    C211776  16.748  14.195   5.301 -0.1274  0.0533 -0.1568
    1CHOL   ROH11777  13.233  10.074   3.850  0.1151  0.2294  0.0168
    1CHOL    R111778  13.162   9.986   4.110 -0.0651  0.2078 -0.0374
    1CHOL    R211779  13.339   9.851   4.274 -0.2387  0.0162  0.0007
    1CHOL    R311780  13.276  10.048   4.450 -0.1554  0.0182  0.0279
    1CHOL    R411781  13.415   9.847   4.611 -0.1332  0.0003 -0.0233
    1CHOL    R511782  13.219   9.932   4.652 -0.1058  0.0238  0.0424
    1CHOL    C111783  13.400  10.030   4.973  0.0065 -0.0071 -0.0116
    1CHOL    C211784  13.299  10.051   5.370  0.1269 -0.4301 -0.0135
    1CHOL   ROH11785   1.887   4.953   5.991 -0.3360  0.0180  0.1428
    1CHOL    R111786   1.776   4.745   5.833 -0.1210 -0.0240  0.0432
    1CHOL    R211787   1.778   4.751   5.557 -0.0029  0.0442  0.0450
    1CHOL    R311788   1.897   4.508   5.585  0.1567  0.1195  0.0375
    1CHOL    R411789   1.774   4.500   5.319 -0.0644 -0.0497  0.1434
    1CHOL    R511790   1.746   4.355   5.479  0.1513 -0.0060  0.2232
    1CHOL    C111791   1.884   4.126   5.208  0.0496 -0.0336  0.1938
    1CHOL    C211792   1.756   3.761   5.137  0.0807 -0.1202  0.0124
    1CHOL   ROH11793   5.108   2.884   6.161 -0.0298  0.0177  0.0204
    1CHOL    R111794   5.136   2.839   5.883 -0.0744  0.0262  0.0147
    1CHOL    R211795   4.939   2.720   5.731 -0.0775 -0.0157  0.0533
    1CHOL    R311796   4.965   2.944   5.579 -0.1567 -0.0090  0.0484
    1CHOL    R411797   4.887   2.734   5.389  0.1817 -0.1038  0.0079
    1CHOL    R511798   5.061   2.866   5.374  0.0789  0.0501  0.1322
    1CHOL    C111799   4.882   2.954   5.048  0.2583 -0.1488 -0.0230
    1CHOL    C211800   5.022   2.835   4.760 -0.0953  0.2851  0.0439
    1CHOL   ROH11801  18.085  15.511   6.887  0.0345  0.1630  0.0869
    1CHOL    R111802  18.158  15.596   6.627  0.2051 -0.0597  0.0605
    1CHOL    R211803  18.275  15.427   6.443 -0.1732 -0.3687  0.0963
    1CHOL    R311804  18.069  15.508   6.285 -0.0138  0.0452  0.0876
    1CHOL    R411805  18.275  15.414   6.098 -0.2292 -0.5034  0.0997
    1CHOL    R511806  18.176  15.609   6.096  0.2090 -0.2655  0.0363
    1CHOL    C111807  18.081  15.484   5.749 -0.1117 -0.1932  0.0934
    1CHOL    C211808  18.006  15.414   5.411 -0.0622 -0.0207  0.2917
    1CHOL   ROH11809   9.225  15.678   6.312 -0.0146 -0.1759  0.0121
    1CHOL    R111810   9.110  15.663   6.053  0.0257 -0.2767 -0.0004
    1CHOL    R211811   9.177  15.838   5.850 -0.1874 -0.1431  0.0406
    1CHOL    R311812   9.229  15.608   5.714  0.1302 -0.0512 -0.0014
    1CHOL    R411813   9.098  15.784   5.518 -0.2591 -0.2503  0.0743
    1CHOL    R511814   9.039  15.580   5.570  0.1036 -0.3577  0.0883
    1CHOL    C111815   9.101  15.537   5.196 -0.0026 -0.2264  0.0544
    1CHOL    C211816   8.812  15.456   4.937 -0.0832  0.0830 -0.0868
    1CHOL   ROH11817   9.719  10.947   3.525  0.2845 -0.0309 -0.0902
    1CHOL    R111818   9.893  10.872   3.735  0.2123 -0.0060 -0.0210
    1CHOL    R211819   9.942  11.034   3.953  0.1532  0.0287 -0.0349
    1CHOL    R311820   9.867  10.813   4.093  0.0943  0.0585 -0.0183
    1CHOL    R411821   9.939  11.010   4.298 -0.1299  0.1533 -0.0250
    1CHOL    R511822  10.017  10.807   4.279 -0.0588  0.1656  0.1124
    1CHOL    C111823   9.867  10.788   4.630 -0.3501  0.2537 -0.0038
    1CHOL    C211824   9.905  10.769   5.071  0.0310 -0.2310  0.4481
    1CHOL   ROH11825  10.545  17.228   3.076 -0.1174  0.0427 -0.0022
    1CHOL    R111826  10.565  17.237   3.359 -0.1304  0.0177 -0.0005
    1CHOL    R211827  10.710  17.431   3.491  0.0524 -0.1257  0.0140
    1CHOL    R311828  10.475  17.471   3.623  0.0784  0.1037 -0.0039
    1CHOL    R411829  10.683  17.519   3.824  0.1111 -0.2969  0.0648
    1CHOL    R511830  10.514  17.381   3.842 -0.0769 -0.0870 -0.0516
    1CHOL    C111831  10.447  17.606   4.142  0.1695 -0.1814  0.0776
    1CHOL    C211832  10.467  17.862   4.383  0.0452  0.0758  0.2850
    1CHOL   ROH11833  16.282  17.588   3.469  0.2389 -0.1221 -0.1877
    1CHOL    R111834  16.308  17.463   3.722  0.0285 -0.0247 -0.1147
    1CHOL    R211835  16.538  17.330   3.800 -0.1138 -0.1961  0.0412
    1CHOL    R311836  16.522  17.498   4.014 -0.0518 -0.0728 -0.0514
    1CHOL    R411837  16.673  17.268   4.112 -0.0375 -0.0118  0.0450
    1CHOL    R511838  16.495  17.353   4.202 -0.0062  0.0438  0.0407
    1CHOL    C111839  16.738  17.389   4.493  0.0653  0.2111 -0.0398
    1CHOL    C211840  16.622  17.365   4.889  0.0319  0.1926 -0.1386
    1CHOL   ROH11841  15.311  17.539   7.233 -0.1160 -0.0790  0.1243
    1CHOL    R111842  15.365  17.485   6.960 -0.1485  0.0563  0.0904
    1CHOL    R211843  15.474  17.246   6.874  0.1586  0.2237 -0.0039
    1CHOL    R311844  15.256  17.243   6.712  0.0926 -0.0489  0.0846
    1CHOL    R411845  15.485  17.216   6.530  0.0598  0.3125 -0.0154
    1CHOL    R511846  15.325  17.364   6.517 -0.1575  0.0926  0.0802
    1CHOL    C111847  15.287  17.196   6.177 -0.0596  0.1083  0.0610
    1CHOL    C211848  15.290  17.365   5.854  0.1699  0.1745 -0.0086
    1CHOL   ROH11849  14.931   3.841   5.660 -0.0584  0.1298 -0.0153
    1CHOL    R111850  15.194   3.910   5.738 -0.1225  0.0960  0.2394
    1CHOL    R211851  15.368   4.047   5.572  0.1863 -0.2612  0.2554
    1CHOL    R311852  15.384   4.216   5.784 -0.0108  0.0612  0.0211
    1CHOL    R411853  15.627   4.268   5.628  0.0603 -0.0674  0.0850
    1CHOL    R511854  15.617   4.219   5.840 -0.0431  0.2394  0.1572
    1CHOL    C111855  15.793   4.557   5.859 -0.1980  0.3482 -0.2341
    1CHOL    C211856  15.973   4.876   5.626 -0.2220  0.1520 -0.1385
    1DPPC   NC311857  17.012  17.634   2.797  0.2374  0.4872 -0.4617
    1DPPC   PO411858  16.744  17.493   3.142 -0.0369  0.3004 -0.0995
    1DPPC   GL111859  16.888  17.581   3.566 -0.1702 -0.0340 -0.1833
    1DPPC   GL211860  17.005  17.280   3.710  0.0723  0.0975  0.2429
    1DPPC   C1A11861  17.019  17.768   3.890 -0.0087 -0.2064 -0.2651
    1DPPC   C2A11862  16.977  17.787   4.258 -0.4744 -0.3877 -0.2057
    1DPPC   C3A11863  17.026  17.765   4.705  0.2810  0.0308  0.3819
    1DPPC   C4A11864  17.066  17.620   4.967 -0.0634 -0.0180  0.1343
    1DPPC   C1B11865  17.181  17.290   4.105 -0.1066  0.0181 -0.0779
    1DPPC   C2B11866  17.175  17.301   4.560  0.0569  0.3455 -0.0566
    1DPPC   C3B11867  17.058  17.082   4.952  0.1362  0.2109 -0.4028
    1DPPC   C4B11868  17.029  16.951   5.420 -0.1200  0.0083 -0.0634
    1DPPC   NC311869  14.200  10.129   2.898  0.2357 -0.2349  0.0296
    1DPPC   PO411870  14.444   9.842   3.194 -0.2428  0.0460 -0.0537
    1DPPC   GL111871  14.516   9.848   3.670 -0.1418 -0.1218 -0.1814
    1DPPC   GL211872  14.828   9.979   3.726 -0.5010  0.0020 -0.0190
    1DPPC   C1A11873  14.263   9.543   3.975  0.0951 -0.1063  0.1866
    1DPPC   C2A11874  14.477   9.492   4.447 -0.2052  0.0270 -0.0475
    1DPPC   C3A11875  14.335   9.574   4.892 -0.1112  0.2085 -0.1982
    1DPPC   C4A11876  14.292   9.781   5.278  0.1584 -0.1630  0.0837
    1DPPC   C1B11877  14.789   9.714   4.098 -0.0697  0.2305  0.0637
    1DPPC   C2B11878  14.905   9.722   4.408 -0.0139 -0.0328  0.0185
    1DPPC   C3B11879  14.741   9.849   4.783  0.0815  0.1151  0.1361
    1DPPC   C4B11880  14.818   9.849   5.280 -0.0699  0.1002  0.1748
    1DPPC   NC311881   2.303  17.649   2.853  0.1238 -0.1819  0.0139
    1DPPC   PO411882   1.866  17.545   2.891  0.1753 -0.0302  0.4792
    1DPPC   GL111883   1.516  17.566   3.176  0.1416 -0.0580  0.0897
    1DPPC   GL211884   1.208  17.520   3.452 -0.2114 -0.0497 -0.1247
    1DPPC   C1A11885   1.422  17.939   3.464  0.1830  0.1258 -0.0843
    1DPPC   C2A11886   1.201  17.890   3.894 -0.1076 -0.2095  0.1736
    1DPPC   C3A11887   1.158  17.644   4.336  0.0049 -0.0141 -0.2841
    1DPPC   C4A11888   1.446  17.655   4.773  0.0251  0.1320 -0.0928
    1DPPC   C1B11889   1.383  17.451   3.831 -0.2464  0.1981 -0.1339
    1DPPC   C2B11890   1.744  17.711   3.979  0.2296 -0.0990 -0.0599
    1DPPC   C3B11891   2.005  17.769   4.238  0.1075 -0.0169 -0.0136
    1DPPC   C4B11892   2.339  18.030   4.537  0.5261  0.1367 -0.3166
    1DPPC   NC311893  16.366  18.001   3.113 -0.2102  0.2785 -0.0841
    1DPPC   PO411894  15.930  17.744   3.190  0.0033 -0.2493 -0.0680
    1DPPC   GL111895  15.974  18.007   3.538  0.3004  0.2244 -0.0634
    1DPPC   GL211896  15.720  18.318   3.494 -0.2151  0.0847  0.2671
    1DPPC   C1A11897  16.076  17.827   4.027  0.3628  0.2360 -0.2162
    1DPPC   C2A11898  16.124  17.647   4.307  0.2377  0.0564 -0.0865
    1DPPC   C3A11899  16.148  17.549   4.748  0.1940  0.0003  0.3438
    1DPPC   C4A11900  16.205  17.439   5.134 -0.0113  0.0718  0.0428
    1DPPC   C1B11901  15.692  18.199   4.028  0.0148 -0.1807  0.0368
    1DPPC   C2B11902  15.846  18.112   4.552  0.1711  0.1773  0.1535
    1DPPC   C3B11903  16.142  18.065   4.881 -0.0747 -0.0119  0.0730
    1DPPC   C4B11904  16.193  17.971   5.355  0.1520  0.4694 -0.1517
    1DPPC   NC311905  10.887  11.979   3.166 -0.1959 -0.1013 -0.0636
    1DPPC   PO411906  10.693  11.599   3.112  0.1281  0.1048  0.3712
    1DPPC   GL111907  10.582  11.317   3.422 -0.1788  0.0325  0.1584
    1DPPC   GL211908  10.359  11.037   3.450  0.2239  0.3056  0.3897
    1DPPC   C1A11909  10.520  11.332   3.902 -0.3013 -0.1896 -0.1911
    1DPPC   C2A11910  10.417  11.175   4.298  0.1130  0.0157 -0.0132
    1DPPC   C3A11911  10.237  11.254   4.667  0.0707 -0.0626  0.2070
    1DPPC   C4A11912  10.388  11.048   5.064 -0.1514  0.0893 -0.0386
    1DPPC   C1B11913  10.397  10.869   3.885 -0.2778  0.2715 -0.0076
    1DPPC   C2B11914  10.485  10.691   4.215 -0.1878  0.0130 -0.0986
    1DPPC   C3B11915  10.382  10.748   4.605  0.0808 -0.2386  0.4794
    1DPPC   C4B11916  10.375  10.551   5.098  0.0442 -0.1251 -0.1146
    1DPPC   NC311917  19.724  18.762   3.202 -0.0671  0.3336  0.0434
    1DPPC   PO411918  19.603  18.232   2.986  0.1109 -0.1372  0.0344
    1DPPC   GL111919  19.595  18.192   3.405 -0.0050  0.0560  0.3225
    1DPPC   GL211920  19.644  18.501   3.629 -0.0202  0.1461 -0.2379
    1DPPC   C1A11921  19.947  18.076   3.764 -0.0830 -0.0763  0.5472
    1DPPC   C2A11922  19.856  18.019   4.124 -0.0031  0.1304  0.1110
    1DPPC   C3A11923  19.887  18.362   4.454 -0.0490 -0.1281 -0.1041
    1DPPC   C4A11924  19.999  18.528   4.806 -0.0915 -0.0690  0.0844
    1DPPC   C1B11925  19.621  18.635   4.059  0.0134  0.0104 -0.0434
    1DPPC   C2B11926  19.588  18.767   4.474 -0.0382  0.2881  0.2868
    1DPPC   C3B11927  19.523  18.707   4.855  0.5002 -0.1197  0.3958
    1DPPC   C4B11928  19.664  18.844   5.250  0.0348  0.0061  0.1173
    1DPPC   NC311929  14.513   9.343   3.021 -0.1744  0.1275 -0.1329
    1DPPC   PO411930  14.321   9.051   3.170  0.1441  0.0281  0.2595
    1DPPC   GL111931  14.376   8.988   3.608 -0.3411 -0.2046  0.0179
    1DPPC   GL211932  14.578   8.699   3.713  0.2674 -0.1660  0.2560
    1DPPC   C1A11933  14.503   9.076   3.969  0.1593 -0.0927 -0.0571
    1DPPC   C2A11934  14.581   8.999   4.386  0.1676 -0.0289 -0.0565
    1DPPC   C3A11935  14.593   9.056   4.757  0.1626  0.0566  0.1897
    1DPPC   C4A11936  14.741   9.351   5.095  0.1935  0.2158 -0.0634
    1DPPC   C1B11937  14.788   8.655   4.074 -0.1154  0.2835  0.0898
    1DPPC   C2B11938  14.607   8.331   4.349  0.3749  0.1837 -0.1687
    1DPPC   C3B11939  14.704   8.235   4.742 -0.1391 -0.0212  0.2600
    1DPPC   C4B11940  14.715   8.067   5.118  0.1074 -0.1817  0.3449
    1DPPC   NC311941  17.431  20.743   3.071  0.1283 -0.0194 -0.2458
    1DPPC   PO411942  17.778  20.587   3.076  0.1417  0.1141 -0.1189
    1DPPC   GL111943  17.757  20.724   3.486  0.1043  0.0562 -0.1037
    1DPPC   GL211944  17.961  20.549   3.742 -0.1339 -0.1181  0.4902
    1DPPC   C1A11945  17.800  21.094   3.769  0.2647  0.1046 -0.0578
    1DPPC   C2A11946  17.944  21.453   4.113  0.0801 -0.0164 -0.2573
    1DPPC   C3A11947  18.064  21.502   4.568  0.2751  0.3387  0.3424
    1DPPC   C4A11948  17.813  21.752   4.920  0.0859 -0.1850 -0.0105
    1DPPC   C1B11949  18.146  20.462   4.159  0.1783 -0.1069 -0.1330
    1DPPC   C2B11950  18.364  20.268   4.552  0.0449  0.0694  0.1653
    1DPPC   C3B11951  18.269  20.010   4.929  0.1083 -0.0504  0.1587
    1DPPC   C4B11952  18.101  20.129   5.352  0.0142 -0.1539 -0.1507
    1DPPC   NC311953  21.369  17.101   2.272 -0.1833  0.1181  0.0946
    1DPPC   PO411954  21.475  17.256   2.683 -0.3134  0.0604 -0.2064
    1DPPC   GL111955  21.528  17.023   3.071 -0.0286  0.3300  0.1026
    1DPPC   GL211956  21.671  17.348   3.283 -0.2598 -0.0911 -0.2513
    1DPPC   C1A11957  21.703  16.893   3.432 -0.2276  0.1788  0.0205
    1DPPC   C2A11958  21.778  16.786   3.909 -0.3018  0.1930  0.4161
    1DPPC   C3A11959  21.793  17.106   4.267  0.0747  0.0010  0.0086
    1DPPC   C4A11960  21.972  17.545   4.405 -0.2517  0.2939  0.1614
    1DPPC   C1B11961  21.792  17.288   3.787 -0.2186  0.3579  0.1631
    1DPPC   C2B11962  22.191  17.424   3.983  0.0454  0.0336  0.0706
    1DPPC   C3B11963  22.447  17.312   4.250  0.1765 -0.0532  0.0582
    1DPPC   C4B11964  22.903  17.307   4.199 -0.1991 -0.1232 -0.1743
    1DPPC   NC311965  12.859  14.319   2.447  0.0958 -0.1100  0.1649
    1DPPC   PO411966  13.121  14.110   2.836  0.0422  0.0539  0.1834
    1DPPC   GL111967  13.192  13.935   3.328  0.3124 -0.1433  0.0388
    1DPPC   GL211968  12.786  13.938   3.489  0.1761  0.0368 -0.2107
    1DPPC   C1A11969  13.177  13.979   3.790 -0.0018 -0.2680  0.0693
    1DPPC   C2A11970  13.231  14.055   4.220  0.0492 -0.0272 -0.0919
    1DPPC   C3A11971  13.180  14.115   4.572 -0.0178 -0.0217 -0.2312
    1DPPC   C4A11972  13.235  14.264   4.941 -0.0061 -0.1030  0.1406
    1DPPC   C1B11973  12.742  14.063   3.922  0.1993 -0.4333 -0.1917
    1DPPC   C2B11974  12.764  14.132   4.350  0.1610 -0.1237  0.1980
    1DPPC   C3B11975  12.628  14.304   4.743  0.0421  0.1027  0.0891
    1DPPC   C4B11976  12.743  14.492   5.091  0.0740 -0.2705  0.0886
    1DPPC   NC311977  21.280  11.400   2.771  0.1278 -0.0156  0.0927
    1DPPC   PO411978  21.508  11.386   3.154 -0.0535 -0.2507 -0.2342
    1DPPC   GL111979  21.361  11.313   3.717  0.0440  0.1341  0.3284
    1DPPC   GL211980  21.534  10.902   3.809 -0.1647 -0.2732  0.0251
    1DPPC   C1A11981  21.556  11.319   4.069  0.1566  0.1089 -0.0224
    1DPPC   C2A11982  21.583  11.389   4.430  0.0462  0.0041  0.0543
    1DPPC   C3A11983  21.601  11.709   4.616  0.1328 -0.0357 -0.0217
    1DPPC   C4A11984  21.797  11.888   4.921  0.1650 -0.1988 -0.1012
    1DPPC   C1B11985  21.573  10.855   4.256 -0.1656 -0.0593  0.0700
    1DPPC   C2B11986  21.632  10.936   4.598 -0.0039 -0.0342 -0.0388
    1DPPC   C3B11987  21.709  11.235   4.885  0.3349  0.0971  0.1901
    1DPPC   C4B11988  21.802  11.431   5.303  0.1810 -0.0359 -0.0285
    1DPPC   NC311989  11.244  19.852   2.808  0.1490  0.0955 -0.3975
    1DPPC   PO411990  10.914  19.658   2.582  0.1207  0.2429 -0.0479
    1DPPC   GL111991  10.924  19.528   3.006  0.0482 -0.0397  0.0896
    1DPPC   GL211992  10.631  19.379   3.115  0.3456  0.0846 -0.2251
    1DPPC   C1A11993  10.920  19.810   3.367 -0.0389 -0.0185 -0.0330
    1DPPC   C2A11994  10.602  19.876   3.742 -0.1704  0.1426 -0.3098
    1DPPC   C3A11995  10.446  19.838   4.064  0.0714 -0.0794 -0.1752
    1DPPC   C4A11996  10.382  19.637   4.432  0.0924 -0.1042  0.0201
    1DPPC   C1B11997  10.833  19.354   3.553 -0.0456  0.3838  0.0062
    1DPPC   C2B11998  10.667  19.407   3.939  0.0582  0.1817  0.2334
    1DPPC   C3B11999  10.565  19.221   4.334  0.1146  0.3374  0.2074
    1DPPC   C4B12000  10.737  19.123   4.745 -0.1851 -0.0973 -0.0279
    1DPPC   NC312001  13.715   8.372   3.229 -0.1137  0.1290  0.4550
    1DPPC   PO412002  13.487   8.570   3.479 -0.0961 -0.0720  0.2634
    1DPPC   GL112003  13.642   8.350   3.825 -0.1469 -0.0703 -0.0534
    1DPPC   GL212004  13.587   8.133   3.936 -0.1341  0.0711 -0.2278
    1DPPC   C1A12005  13.723   8.564   4.203  0.0797  0.3672  0.2813
    1DPPC   C2A12006  13.695   8.485   4.620 -0.3164 -0.0683  0.1696
    1DPPC   C3A12007  13.858   8.600   4.971  0.1914  0.2821 -0.2630
    1DPPC   C4A12008  13.941   8.813   5.388 -0.1407  0.1458  0.3017
    1DPPC   C1B12009  13.592   8.037   4.322 -0.3097 -0.2792  0.1413
    1DPPC   C2B12010  13.580   7.990   4.710  0.1898 -0.1066 -0.0336
    1DPPC   C3B12011  13.647   8.155   5.035 -0.0712 -0.0611  0.1147
    1DPPC   C4B12012  13.682   8.306   5.456  0.0507  0.0109 -0.0228
    1DPPC   NC312013  12.039  11.596   2.593 -0.1666 -0.1137 -0.0682
    1DPPC   PO412014  12.390  11.443   2.959 -0.1478  0.0082  0.0729
    1DPPC   GL112015  12.528  11.244   3.315  0.0739  0.2937  0.3506
    1DPPC   GL212016  12.312  11.474   3.440 -0.1747  0.1394 -0.1557
    1DPPC   C1A12017  12.616  11.291   3.788  0.0477 -0.2772 -0.0266
    1DPPC   C2A12018  12.599  11.371   4.208  0.0257  0.1995 -0.0669
    1DPPC   C3A12019  12.681  11.304   4.585 -0.0773  0.0928 -0.0775
    1DPPC   C4A12020  12.736  11.142   5.039 -0.0220  0.2937  0.2071
    1DPPC   C1B12021  12.133  11.567   3.853 -0.0770  0.0078  0.1248
    1DPPC   C2B12022  12.176  11.677   4.246 -0.0924  0.0708 -0.0021
    1DPPC   C3B12023  12.155  11.769   4.707 -0.1010 -0.0588 -0.0168
    1DPPC   C4B12024  12.500  11.604   5.067  0.0730 -0.1343  0.1314
    1DPPC   NC312025  18.780  17.802   2.976 -0.0351 -0.1194 -0.1763
    1DPPC   PO412026  18.438  17.444   3.082 -0.1932  0.1953 -0.0969
    1DPPC   GL112027  18.557  17.422   3.437 -0.2538  0.0255 -0.1029
    1DPPC   GL212028  18.850  17.586   3.420 -0.2075  0.0645 -0.2012
    1DPPC   C1A12029  18.382  17.494   3.950 -0.0712 -0.1712  0.2507
    1DPPC   C2A12030  18.304  17.678   4.285 -0.3466 -0.0183 -0.2627
    1DPPC   C3A12031  18.351  17.707   4.682 -0.2735 -0.0800 -0.2642
    1DPPC   C4A12032  18.623  17.687   5.045 -0.1337 -0.2698 -0.2334
    1DPPC   C1B12033  18.859  17.392   3.859 -0.0219 -0.1674  0.2893
    1DPPC   C2B12034  18.771  17.346   4.304  0.1035  0.0921 -0.3137
    1DPPC   C3B12035  18.913  17.378   4.775 -0.4132  0.1479  0.0462
    1DPPC   C4B12036  18.938  17.244   5.226  0.3565 -0.0085 -0.1011
    1DPPC   NC312037  17.825  18.736   3.647  0.1200 -0.2498  0.1917
    1DPPC   PO412038  17.886  19.107   3.654  0.1820 -0.0389 -0.0017
    1DPPC   GL112039  18.159  19.054   4.063 -0.0238 -0.1752 -0.0159
    1DPPC   GL212040  18.305  19.284   4.235  0.0394 -0.2170 -0.1288
    1DPPC   C1A12041  18.265  18.786   4.492  0.0026  0.2364  0.1309
    1DPPC   C2A12042  18.185  18.800   4.841  0.0939 -0.1025  0.1527
    1DPPC   C3A12043  18.148  18.617   5.245  0.0268  0.0215  0.0702
    1DPPC   C4A12044  18.473  18.388   5.487 -0.1234  0.0948 -0.2835
    1DPPC   C1B12045  18.176  19.258   4.697 -0.1084  0.1228  0.2575
    1DPPC   C2B12046  18.118  19.214   5.050  0.0492  0.0863 -0.0943
    1DPPC   C3B12047  17.809  19.029   5.411  0.1993 -0.0928  0.3138
    1DPPC   C4B12048  17.796  19.200   5.782 -0.3444 -0.0989 -0.1336
    1DPPC   NC312049   8.574   8.125   3.195  0.0201 -0.0328 -0.0738
    1DPPC   PO412050   8.692   8.582   3.313  0.0716 -0.0559  0.2785
    1DPPC   GL112051   8.498   8.755   3.670 -0.2448  0.1872 -0.4377
    1DPPC   GL212052   8.221   8.864   3.676  0.0389  0.1967  0.0292
    1DPPC   C1A12053   8.649   8.589   4.161  0.2247 -0.2430  0.0817
    1DPPC   C2A12054   8.725   8.387   4.446 -0.1641 -0.1289 -0.1221
    1DPPC   C3A12055   8.769   8.439   4.890 -0.1077 -0.0155  0.0447
    1DPPC   C4A12056   8.534   8.494   5.265  0.3579  0.1018 -0.2138
    1DPPC   C1B12057   8.134   8.815   4.159  0.1606 -0.2800 -0.0088
    1DPPC   C2B12058   8.393   8.795   4.509 -0.1193 -0.0329 -0.2949
    1DPPC   C3B12059   8.436   8.828   4.894  0.2400 -0.0617 -0.2031
    1DPPC   C4B12060   8.325   8.937   5.284  0.3665 -0.2014 -0.0518
    1DPPC   NC312061  20.826  18.715   2.974 -0.0027 -0.3195  0.0844
    1DPPC   PO412062  21.091  18.971   3.317  0.2044 -0.0268 -0.0904
    1DPPC   GL112063  21.237  18.795   3.688  0.0802 -0.0019  0.0388
    1DPPC   GL212064  21.019  18.862   3.862  0.2668 -0.2239 -0.0321
    1DPPC   C1A12065  21.465  18.856   4.033  0.0234  0.0701  0.3092
    1DPPC   C2A12066  21.736  18.836   4.345 -0.1713  0.1497  0.1743
    1DPPC   C3A12067  21.906  18.908   4.792 -0.1119 -0.1732  0.2166
    1DPPC   C4A12068  21.932  19.209   5.106 -0.1730 -0.2277 -0.0424
    1DPPC   C1B12069  20.939  18.466   4.013 -0.4280 -0.0799  0.1486
    1DPPC   C2B12070  20.813  18.300   4.426 -0.1139 -0.2844 -0.1002
    1DPPC   C3B12071  20.993  18.421   4.833 -0.0185  0.0456 -0.4021
    1DPPC   C4B12072  21.326  18.570   5.036 -0.4025  0.2374 -0.0695
    1DPPC   NC312073  11.965  11.253   3.190 -0.3099 -0.0612 -0.0643
    1DPPC   PO412074  11.450  10.951   3.124  0.2156  0.0582  0.0348
    1DPPC   GL112075  11.705  11.028   3.547 -0.0313 -0.2153 -0.0746
    1DPPC   GL212076  11.668  11.369   3.664  0.0470  0.0225 -0.1140
    1DPPC   C1A12077  11.635  10.836   3.959 -0.3946  0.1332  0.0005
    1DPPC   C2A12078  11.711  10.957   4.432 -0.1054 -0.1550 -0.0537
    1DPPC   C3A12079  11.665  10.949   4.846  0.3710 -0.0428  0.0478
    1DPPC   C4A12080  11.727  11.013   5.240  0.1121  0.1876  0.1428
    1DPPC   C1B12081  11.689  11.427   4.075 -0.3550  0.0176  0.1174
    1DPPC   C2B12082  11.771  11.463   4.499 -0.1240 -0.2270 -0.1068
    1DPPC   C3B12083  11.794  11.503   4.921 -0.0224  0.1409  0.1099
    1DPPC   C4B12084  12.032  11.681   5.270  0.0841  0.2495  0.3931
    1DPPC   NC312085  19.462   6.280   3.476  0.2879  0.1084 -0.0365
    1DPPC   PO412086  19.674   5.891   3.669 -0.1500  0.1506  0.3122
    1DPPC   GL112087  19.768   5.707   4.077  0.3959  0.3592 -0.0900
    1DPPC   GL212088  19.443   5.630   4.118  0.0869  0.0246  0.1627
    1DPPC   C1A12089  20.004   5.604   4.422  0.1752 -0.0112 -0.2927
    1DPPC   C2A12090  20.115   5.206   4.700 -0.2456  0.0614 -0.5601
    1DPPC   C3A12091  20.135   4.942   5.080 -0.0976 -0.1619 -0.0938
    1DPPC   C4A12092  20.411   4.732   5.323 -0.3826  0.2216  0.0234
    1DPPC   C1B12093  19.540   5.842   4.468 -0.0727 -0.0123 -0.0380
    1DPPC   C2B12094  19.902   5.999   4.717 -0.0528 -0.1102 -0.0501
    1DPPC   C3B12095  20.128   5.678   5.008 -0.2339  0.0514 -0.1288
    1DPPC   C4B12096  20.373   5.309   5.254  0.1329  0.1502  0.0813
    1DPPC   NC312097   3.417  22.563   2.046  0.0838 -0.1053 -0.1490
    1DPPC   PO412098   3.530  22.177   2.008  0.0013  0.0068 -0.2662
    1DPPC   GL112099   3.619  22.377   2.467 -0.0446  0.0872 -0.1930
    1DPPC   GL212100   3.662  21.972   2.542 -0.1923 -0.0550  0.1517
    1DPPC   C1A12101   3.435  22.281   2.860  0.0650  0.2107  0.2475
    1DPPC   C2A12102   3.287  22.155   3.313  0.0051  0.2059 -0.1789
    1DPPC   C3A12103   3.031  22.128   3.623 -0.1206 -0.0120 -0.2033
    1DPPC   C4A12104   3.159  22.183   4.088  0.1226 -0.0906  0.2053
    1DPPC   C1B12105   3.567  21.735   2.830 -0.0503 -0.0321 -0.0835
    1DPPC   C2B12106   3.627  21.790   3.183  0.0226  0.0832 -0.4110
    1DPPC   C3B12107   3.464  21.780   3.582 -0.0013 -0.0621 -0.0907
    1DPPC   C4B12108   3.290  21.772   3.876 -0.0484 -0.1902 -0.2512
    1DPPC   NC312109  23.173  18.522   2.563  0.1733  0.1937 -0.1589
    1DPPC   PO412110  22.887  18.695   2.702  0.0242 -0.2704 -0.0514
    1DPPC   GL112111  22.925  18.972   3.086  0.1250  0.0047 -0.1068
    1DPPC   GL212112  22.707  18.848   3.254  0.7871  0.1826  0.2353
    1DPPC   C1A12113  22.995  19.257   3.359 -0.0440  0.0849  0.0738
    1DPPC   C2A12114  22.740  19.285   3.689  0.2155 -0.1084 -0.4167
    1DPPC   C3A12115  22.437  19.425   4.004 -0.0265 -0.1488 -0.0166
    1DPPC   C4A12116  22.548  19.288   4.416  0.2717  0.0836  0.0381
    1DPPC   C1B12117  23.028  18.809   3.530 -0.2411  0.0469  0.1396
    1DPPC   C2B12118  23.108  18.602   3.985 -0.1497  0.1043  0.0882
    1DPPC   C3B12119  23.118  18.585   4.463 -0.0513  0.0550  0.0686
    1DPPC   C4B12120  23.350  18.398   4.869  0.1097 -0.1928 -0.1114
    1DPPC   NC312121   8.356  16.722   2.479  0.1173  0.2213  0.2330
    1DPPC   PO412122   8.362  16.421   2.692  0.0001  0.0798 -0.3238
    1DPPC   GL112123   8.310  16.332   3.072  0.0008 -0.1882  0.1260
    1DPPC   GL212124   8.369  16.035   3.078 -0.0763 -0.2733  0.0989
    1DPPC   C1A12125   8.149  16.330   3.474 -0.1430 -0.1239 -0.3698
    1DPPC   C2A12126   7.942  16.237   3.887  0.1843 -0.1474  0.0678
    1DPPC   C3A12127   7.959  16.102   4.215 -0.4237 -0.0575  0.3548
    1DPPC   C4A12128   8.035  16.090   4.678 -0.0129 -0.2141  0.0223
    1DPPC   C1B12129   8.661  15.798   3.325 -0.3303  0.0124 -0.2057
    1DPPC   C2B12130   8.723  15.712   3.752  0.1335  0.0232  0.0358
    1DPPC   C3B12131   8.779  15.710   4.172 -0.2107  0.3494  0.0894
    1DPPC   C4B12132   8.774  15.849   4.489  0.1745 -0.0620 -0.1611
    1DPPC   NC312133  15.887  13.903   2.185 -0.0735  0.0363 -0.1728
    1DPPC   PO412134  16.129  14.146   2.554  0.1628  0.0906 -0.1374
    1DPPC   GL112135  15.996  14.302   2.986  0.0863  0.2546 -0.1069
    1DPPC   GL212136  16.137  14.563   3.280  0.1296 -0.2450 -0.0342
    1DPPC   C1A12137  15.940  14.120   3.317  0.0842  0.0482 -0.0885
    1DPPC   C2A12138  15.789  13.961   3.615  0.1953  0.0009 -0.1189
    1DPPC   C3A12139  15.914  13.681   3.955 -0.0395 -0.1220  0.0794
    1DPPC   C4A12140  15.897  13.791   4.474 -0.0072  0.0894  0.3167
    1DPPC   C1B12141  16.079  14.391   3.717 -0.1566  0.0669 -0.1018
    1DPPC   C2B12142  15.979  14.186   4.028 -0.1201 -0.1076 -0.1151
    1DPPC   C3B12143  16.231  14.178   4.399  0.0648  0.0443  0.1672
    1DPPC   C4B12144  16.370  13.972   4.783  0.1779  0.1616  0.0750
    1DPPC   NC312145  14.718  18.410   2.579  0.1053  0.1991  0.1014
    1DPPC   PO412146  14.470  18.499   2.951  0.3599  0.0326 -0.0642
    1DPPC   GL112147  14.331  18.474   3.365 -0.0190  0.0547  0.1021
    1DPPC   GL212148  14.309  18.157   3.592  0.2702 -0.0351  0.1855
    1DPPC   C1A12149  14.489  18.565   3.761  0.0405  0.0830  0.0159
    1DPPC   C2A12150  14.741  18.510   4.054  0.4778  0.1840 -0.0754
    1DPPC   C3A12151  14.911  18.667   4.384  0.0720  0.1535  0.1427
    1DPPC   C4A12152  14.984  18.508   4.734 -0.2401  0.1361 -0.2176
    1DPPC   C1B12153  14.423  18.129   4.032 -0.1518 -0.4248 -0.0334
    1DPPC   C2B12154  14.377  18.200   4.472 -0.0691  0.2203 -0.3382
    1DPPC   C3B12155  14.510  18.470   4.924  0.0874 -0.1564 -0.1866
    1DPPC   C4B12156  14.684  18.927   5.063 -0.0772  0.0705 -0.2151
    1DPPC   NC312157  12.305   9.995   3.251 -0.0586  0.0469 -0.1542
    1DPPC   PO412158  12.249  10.428   3.336  0.0883 -0.0973 -0.1193
    1DPPC   GL112159  12.393  10.306   3.708  0.1628 -0.3061  0.3342
    1DPPC   GL212160  12.726  10.349   3.578  0.0730 -0.2126 -0.0539
    1DPPC   C1A12161  12.475  10.205   4.122 -0.3876  0.1041 -0.0065
    1DPPC   C2A12162  12.522  10.272   4.555 -0.0708 -0.3758  0.1241
    1DPPC   C3A12163  12.384  10.262   5.074  0.1025 -0.2195  0.0881
    1DPPC   C4A12164  12.530  10.338   5.475  0.0264 -0.0496 -0.0249
    1DPPC   C1B12165  12.869  10.396   3.941 -0.1907 -0.3567 -0.0005
    1DPPC   C2B12166  12.970  10.423   4.316 -0.2846  0.1994  0.3317
    1DPPC   C3B12167  12.947  10.516   4.803  0.0800  0.0789  0.0531
    1DPPC   C4B12168  12.979  10.403   5.184  0.1419  0.1304  0.0175
    1DPPC   NC312169  12.741  18.673   2.798 -0.0855  0.0702 -0.0025
    1DPPC   PO412170  12.734  18.285   2.851  0.0574 -0.2084  0.0715
    1DPPC   GL112171  12.601  18.131   3.216 -0.1342 -0.0788  0.2254
    1DPPC   GL212172  12.603  17.790   3.321 -0.0767  0.0627  0.1166
    1DPPC   C1A12173  12.720  18.259   3.643  0.1382  0.0701 -0.3023
    1DPPC   C2A12174  12.631  18.190   4.134  0.0820 -0.1031  0.0626
    1DPPC   C3A12175  12.491  18.144   4.506  0.0499 -0.1044  0.6794
    1DPPC   C4A12176  12.238  18.205   4.945 -0.1900  0.0307 -0.3714
    1DPPC   C1B12177  12.523  17.811   3.798 -0.1670  0.2478  0.0428
    1DPPC   C2B12178  12.491  17.683   4.233 -0.0555 -0.3522  0.2179
    1DPPC   C3B12179  12.625  17.728   4.762 -0.0412  0.1479 -0.0486
    1DPPC   C4B12180  12.624  17.985   5.220  0.0430 -0.0284  0.1664
    1DPPC   NC312181  21.344  13.755   2.488 -0.1721  0.0617  0.2197
    1DPPC   PO412182  21.485  14.058   2.752  0.0607  0.0386  0.2351
    1DPPC   GL112183  21.644  13.973   3.117 -0.1819 -0.4392 -0.2022
    1DPPC   GL212184  21.801  14.242   3.178  0.0578  0.1328  0.1751
    1DPPC   C1A12185  21.629  13.801   3.435 -0.0411 -0.2929 -0.2038
    1DPPC   C2A12186  21.492  14.147   3.800 -0.0020  0.0845  0.3499
    1DPPC   C3A12187  21.442  14.185   4.153  0.1215  0.2171 -0.1160
    1DPPC   C4A12188  21.387  14.474   4.510 -0.0799 -0.1223  0.0960
    1DPPC   C1B12189  21.898  14.317   3.643 -0.0299 -0.2208 -0.1455
    1DPPC   C2B12190  21.865  14.485   4.139  0.3399  0.1775  0.1289
    1DPPC   C3B12191  21.938  14.460   4.635 -0.1333 -0.0736 -0.1845
    1DPPC   C4B12192  21.862  14.669   4.972 -0.2830  0.0059 -0.0486
    1DPPC   NC312193  15.010  19.318   2.841 -0.0725  0.0772 -0.3045
    1DPPC   PO412194  14.940  19.146   3.254 -0.0227 -0.0963 -0.0418
    1DPPC   GL112195  14.726  19.205   3.630 -0.1633 -0.0884 -0.0389
    1DPPC   GL212196  14.724  18.965   3.737 -0.1299 -0.0958  0.0881
    1DPPC   C1A12197  14.425  19.374   3.866  0.3192 -0.0022 -0.0544
    1DPPC   C2A12198  14.316  19.353   4.258  0.1137 -0.0576 -0.1954
    1DPPC   C3A12199  14.133  19.391   4.565 -0.0500  0.1340  0.2315
    1DPPC   C4A12200  13.905  19.277   4.917 -0.1840 -0.3421  0.1644
    1DPPC   C1B12201  14.492  18.902   4.068 -0.0991 -0.2937  0.1532
    1DPPC   C2B12202  14.388  18.704   4.445 -0.1540 -0.1090  0.1763
    1DPPC   C3B12203  14.176  18.905   4.750 -0.1392 -0.2158 -0.0570
    1DPPC   C4B12204  14.033  18.592   5.028  0.1292  0.1402 -0.0997
    1DPPC   NC312205  28.338   7.915   3.122 -0.0269 -0.0623  0.2987
    1DPPC   PO412206  28.432   8.383   3.082 -0.3850  0.1118 -0.0932
    1DPPC   GL112207  28.297   8.246   3.487 -0.3344  0.1226 -0.1743
    1DPPC   GL212208  28.472   8.006   3.582 -0.1318  0.1757 -0.0902
    1DPPC   C1A12209  28.212   8.335   3.878 -0.1150  0.3916 -0.1141
    1DPPC   C2A12210  27.940   8.535   4.162 -0.1410 -0.0275  0.0490
    1DPPC   C3A12211  27.513   8.491   4.241  0.1761 -0.0653  0.0105
    1DPPC   C4A12212  27.399   8.383   4.548  0.3006  0.0176 -0.1653
    1DPPC   C1B12213  28.081   7.799   3.783  0.1949 -0.2460  0.1077
    1DPPC   C2B12214  27.780   7.731   4.072  0.1767  0.0142 -0.2714
    1DPPC   C3B12215  27.452   7.380   4.219 -0.0028 -0.2365  0.1143
    1DPPC   C4B12216  27.244   7.057   4.429  0.0129 -0.1235 -0.4250
    1DPPC   NC312217  13.724   9.532   3.277 -0.0064  0.0093 -0.0383
    1DPPC   PO412218  13.364   9.191   3.139 -0.2098  0.1233  0.1067
    1DPPC   GL112219  13.398   9.273   3.568 -0.0160  0.1752  0.0897
    1DPPC   GL212220  13.052   9.117   3.684 -0.1614 -0.2352 -0.1703
    1DPPC   C1A12221  13.416   9.394   3.992 -0.2286 -0.0344 -0.0021
    1DPPC   C2A12222  13.530   9.354   4.434 -0.1674  0.0343  0.1774
    1DPPC   C3A12223  13.512   9.409   4.873 -0.0629  0.0014 -0.1432
    1DPPC   C4A12224  13.583   9.572   5.271 -0.1291  0.0745  0.2451
    1DPPC   C1B12225  13.164   8.995   4.060 -0.0275 -0.2138 -0.3049
    1DPPC   C2B12226  13.397   8.920   4.354 -0.0304  0.0947 -0.0475
    1DPPC   C3B12227  13.463   8.892   4.749 -0.0237 -0.0909  0.6260
    1DPPC   C4B12228  13.589   9.031   5.149 -0.0637  0.0854 -0.0928
    1DPPC   NC312229  13.340  16.998   2.649 -0.0350 -0.1285 -0.1139
    1DPPC   PO412230  13.177  17.370   2.797 -0.2560 -0.2505 -0.0698
    1DPPC   GL112231  12.983  17.443   3.190 -0.2100  0.1005 -0.1490
    1DPPC   GL212232  13.152  17.722   3.325  0.0263 -0.0008  0.0154
    1DPPC   C1A12233  12.900  17.377   3.591 -0.1477  0.0873 -0.3043
    1DPPC   C2A12234  12.840  17.312   4.064 -0.1474 -0.0750 -0.2405
    1DPPC   C3A12235  12.915  17.292   4.515  0.2410  0.0581 -0.3231
    1DPPC   C4A12236  12.948  17.167   4.953  0.3206  0.5372  0.1040
    1DPPC   C1B12237  13.054  17.822   3.704  0.0078 -0.0619 -0.2691
    1DPPC   C2B12238  13.137  17.815   4.195  0.0584  0.2197 -0.0540
    1DPPC   C3B12239  13.058  17.804   4.585  0.3069 -0.1018  0.0310
    1DPPC   C4B12240  13.079  17.717   5.061 -0.1238 -0.1295  0.3802
    1DPPC   NC312241   7.252  19.722   2.277  0.0856  0.1491 -0.1819
    1DPPC   PO412242   7.715  19.676   2.315  0.1174  0.0265 -0.2638
    1DPPC   GL112243   7.555  19.643   2.684  0.0629  0.0504 -0.0139
    1DPPC   GL212244   7.770  19.420   2.807 -0.0770  0.1979 -0.1354
    1DPPC   C1A12245   7.281  19.773   3.075 -0.1672 -0.0121 -0.2071
    1DPPC   C2A12246   7.128  19.774   3.468 -0.2631  0.1558 -0.1661
    1DPPC   C3A12247   7.264  19.743   3.961  0.0996  0.0725  0.0423
    1DPPC   C4A12248   7.550  19.765   4.280  0.1045  0.2595 -0.0654
    1DPPC   C1B12249   7.844  19.526   3.195  0.1694 -0.2676 -0.5625
    1DPPC   C2B12250   7.975  19.350   3.530 -0.1047 -0.1521  0.1637
    1DPPC   C3B12251   8.277  19.335   3.768 -0.1495 -0.0095 -0.0338
    1DPPC   C4B12252   8.235  19.639   4.171  0.0117  0.0993  0.1934
    1DPPC   NC312253  18.949  13.154   2.469 -0.1321  0.3598 -0.0791
    1DPPC   PO412254  18.575  13.288   2.775 -0.2709 -0.0838  0.3053
    1DPPC   GL112255  18.574  13.063   3.156  0.1640 -0.0916  0.1456
    1DPPC   GL212256  18.444  12.705   3.206 -0.1509  0.2116  0.0776
    1DPPC   C1A12257  18.665  13.108   3.565 -0.0881  0.1830  0.1083
    1DPPC   C2A12258  18.692  13.073   4.025  0.3364 -0.1167  0.1779
    1DPPC   C3A12259  18.806  13.059   4.512  0.0370  0.0285  0.0446
    1DPPC   C4A12260  19.059  12.890   4.818  0.1670 -0.0993 -0.0347
    1DPPC   C1B12261  18.468  12.343   3.529  0.1117  0.0209  0.0040
    1DPPC   C2B12262  18.599  12.226   3.925  0.2216  0.0574  0.1641
    1DPPC   C3B12263  18.937  12.088   4.208 -0.0808 -0.2838  0.0633
    1DPPC   C4B12264  19.058  12.163   4.713  0.1891  0.1390 -0.0060
    1DPPC   NC312265  10.965   6.778   3.113  0.1471 -0.0927  0.0127
    1DPPC   PO412266  10.614   7.033   3.389  0.2638 -0.1890  0.0550
    1DPPC   GL112267  10.531   7.374   3.600  0.1483  0.2317 -0.0029
    1DPPC   GL212268  10.282   7.556   3.397 -0.2848 -0.0974  0.0982
    1DPPC   C1A12269  10.559   7.291   4.005  0.3727  0.2814  0.1479
    1DPPC   C2A12270  10.594   7.174   4.401  0.0587 -0.2675  0.2604
    1DPPC   C3A12271  10.733   7.223   4.820  0.0841  0.2005 -0.1616
    1DPPC   C4A12272  10.721   6.955   5.164  0.1414 -0.0081  0.0226
    1DPPC   C1B12273  10.066   7.348   3.732  0.1907  0.1676  0.1412
    1DPPC   C2B12274   9.988   7.220   4.061 -0.1454  0.1417 -0.2396
    1DPPC   C3B12275  10.122   7.234   4.538  0.2440  0.3301  0.2879
    1DPPC   C4B12276  10.210   6.852   4.687  0.0307 -0.1074 -0.1336
    1DPPC   NC312277  19.058  13.461   2.803 -0.1352  0.3223 -0.2889
    1DPPC   PO412278  19.056  13.120   2.958  0.2623 -0.0920 -0.0763
    1DPPC   GL112279  18.975  12.804   3.325  0.3726 -0.1568 -0.0696
    1DPPC   GL212280  19.040  12.503   3.251 -0.1042  0.1316  0.0409
    1DPPC   C1A12281  18.818  12.663   3.720 -0.1047 -0.0165  0.0102
    1DPPC   C2A12282  18.841  12.656   4.194  0.0306  0.0867  0.0536
    1DPPC   C3A12283  18.684  12.603   4.651 -0.1393 -0.1007 -0.2626
    1DPPC   C4A12284  18.575  12.182   4.766  0.0840 -0.2452  0.1046
    1DPPC   C1B12285  19.091  12.270   3.580  0.1364  0.0084  0.0976
    1DPPC   C2B12286  19.253  12.399   3.956 -0.0332 -0.0965 -0.1947
    1DPPC   C3B12287  19.303  12.435   4.350 -0.2981  0.0886 -0.0829
    1DPPC   C4B12288  19.595  12.385   4.610 -0.1725  0.1463  0.0475
    1DPPC   NC312289  17.902  10.327   2.401 -0.2207 -0.1353 -0.0787
    1DPPC   PO412290  17.966  10.186   2.763 -0.0053  0.1725  0.0758
    1DPPC   GL112291  18.083  10.028   3.086 -0.0359 -0.1543  0.1773
    1DPPC   GL212292  18.167  10.344   3.221  0.1478 -0.2935  0.1929
    1DPPC   C1A12293  17.923  10.049   3.508  0.0164 -0.0298  0.3220
    1DPPC   C2A12294  17.866  10.077   3.963 -0.2908  0.2601 -0.3199
    1DPPC   C3A12295  17.917   9.941   4.352 -0.0669  0.0876 -0.2045
    1DPPC   C4A12296  17.880   9.989   4.850  0.0793  0.1224 -0.3130
    1DPPC   C1B12297  17.836  10.541   3.434  0.2343  0.2984  0.0885
    1DPPC   C2B12298  17.873  10.620   3.836  0.1556 -0.1088 -0.4611
    1DPPC   C3B12299  18.101  10.418   4.320 -0.0106 -0.0567  0.0275
    1DPPC   C4B12300  18.302  10.253   4.659  0.1202  0.1774 -0.2930
    1DPPC   NC312301  19.223   9.712   2.270 -0.0482  0.1281  0.0454
    1DPPC   PO412302  19.300   9.712   2.809  0.0533  0.0736  0.4600
    1DPPC   GL112303  19.358  10.097   3.123  0.0750  0.1914  0.2590
    1DPPC   GL212304  19.400  10.367   3.175 -0.3706  0.1917 -0.3422
    1DPPC   C1A12305  19.341  10.081   3.593  0.0029 -0.1199  0.1757
    1DPPC   C2A12306  19.099  10.133   3.951  0.0778 -0.0295 -0.1676
    1DPPC   C3A12307  19.255   9.872   4.356 -0.2552  0.1936  0.0367
    1DPPC   C4A12308  19.474   9.653   4.691 -0.3958 -0.2099  0.0573
    1DPPC   C1B12309  19.549  10.541   3.509  0.1198  0.0496  0.1556
    1DPPC   C2B12310  19.531  10.490   3.870  0.0273 -0.0640  0.0238
    1DPPC   C3B12311  19.681  10.670   4.219 -0.0674  0.0407  0.0396
    1DPPC   C4B12312  19.821  10.891   4.526 -0.1276 -0.2270 -0.2524
    1DPPC   NC312313  17.309  13.241   2.947 -0.1145  0.3899 -0.2464
    1DPPC   PO412314  17.654  13.010   2.837 -0.3640  0.1045  0.1161
    1DPPC   GL112315  17.743  12.696   3.077  0.1762 -0.1971 -0.0205
    1DPPC   GL212316  17.546  12.647   3.283 -0.3937 -0.1459 -0.2347
    1DPPC   C1A12317  17.945  12.349   3.428  0.0024 -0.0367 -0.2852
    1DPPC   C2A12318  18.087  12.361   3.873  0.0394 -0.2014 -0.0405
    1DPPC   C3A12319  18.240  12.386   4.334 -0.2828 -0.0957 -0.0137
    1DPPC   C4A12320  18.152  12.541   4.752 -0.2372  0.2530 -0.0517
    1DPPC   C1B12321  17.694  12.655   3.680  0.0287  0.2612 -0.3102
    1DPPC   C2B12322  17.684  12.797   4.068  0.1190 -0.0709  0.1041
    1DPPC   C3B12323  17.761  12.734   4.506  0.1970 -0.2265 -0.2204
    1DPPC   C4B12324  17.765  12.724   4.957 -0.1514  0.0319 -0.2355
    1DPPC   NC312325  13.250  11.213   2.966  0.1242  0.0177 -0.3453
    1DPPC   PO412326  12.952  11.524   2.673 -0.0723 -0.0307  0.0751
    1DPPC   GL112327  12.848  11.639   3.133 -0.2762  0.1335  0.2421
    1DPPC   GL212328  13.179  11.727   3.199 -0.0499  0.1201  0.2007
    1DPPC   C1A12329  12.769  11.679   3.566 -0.0623  0.0271 -0.0219
    1DPPC   C2A12330  12.612  11.784   3.924 -0.0888 -0.1196 -0.0434
    1DPPC   C3A12331  12.678  11.892   4.268 -0.0213  0.0322 -0.2869
    1DPPC   C4A12332  12.658  11.945   4.732  0.1046 -0.4647 -0.1216
    1DPPC   C1B12333  13.303  12.033   3.536  0.0103 -0.1655  0.0935
    1DPPC   C2B12334  13.228  12.095   3.941  0.0177  0.1977 -0.0829
    1DPPC   C3B12335  13.207  12.110   4.350 -0.0209  0.1869  0.1759
    1DPPC   C4B12336  13.108  12.084   4.761 -0.1642  0.0796 -0.2541
    1DPPC   NC312337   3.982  21.961   2.162 -0.1906 -0.1235 -0.0274
    1DPPC   PO412338   4.316  22.331   2.222 -0.1493  0.0224 -0.2557
    1DPPC   GL112339   4.083  22.233   2.633 -0.0377  0.0858 -0.1396
    1DPPC   GL212340   4.280  22.287   2.723  0.0545  0.2247  0.3335
    1DPPC   C1A12341   3.885  22.185   3.013  0.1844 -0.2739  0.2851
    1DPPC   C2A12342   3.935  22.196   3.455 -0.1547  0.2039  0.2985
    1DPPC   C3A12343   4.065  22.081   3.929 -0.0659 -0.1285  0.2263
    1DPPC   C4A12344   4.243  21.968   4.311  0.0098  0.0387 -0.0544
    1DPPC   C1B12345   4.378  22.400   3.083  0.0870 -0.2180  0.0584
    1DPPC   C2B12346   4.475  22.530   3.467  0.1519 -0.1091 -0.2101
    1DPPC   C3B12347   4.370  22.543   3.894  0.1649 -0.1433  0.0636
    1DPPC   C4B12348   4.024  22.490   4.189  0.1349 -0.0201 -0.2155
    1DPPC   NC312349  12.428   8.135   3.259 -0.0592  0.3316 -0.0705
    1DPPC   PO412350  12.769   8.336   3.388 -0.3622 -0.0800 -0.1828
    1DPPC   GL112351  12.599   8.231   3.717  0.2794 -0.0239  0.1818
    1DPPC   GL212352  12.832   8.024   3.839  0.0216  0.2312  0.0418
    1DPPC   C1A12353  12.301   8.031   4.122 -0.0164 -0.0287  0.0670
    1DPPC   C2A12354  12.172   8.069   4.483  0.2701  0.1423  0.1819
    1DPPC   C3A12355  12.082   7.910   4.855  0.0536 -0.0715 -0.0197
    1DPPC   C4A12356  11.949   7.570   5.159 -0.0320 -0.1359  0.0270
    1DPPC   C1B12357  12.779   7.932   4.301  0.0190 -0.1456 -0.0330
    1DPPC   C2B12358  12.616   7.906   4.806 -0.1442 -0.0587  0.1361
    1DPPC   C3B12359  12.482   7.846   5.215  0.0085  0.1617  0.2261
    1DPPC   C4B12360  12.225   7.828   5.538  0.3213  0.0245  0.1332
    1DPPC   NC312361  26.385  21.940   2.679  0.0008  0.3772  0.1532
    1DPPC   PO412362  26.140  21.999   2.976 -0.0077 -0.1677  0.0772
    1DPPC   GL112363  25.962  22.024   3.398 -0.1392  0.1048 -0.2150
    1DPPC   GL212364  25.754  22.252   3.593 -0.0025 -0.0595 -0.1189
    1DPPC   C1A12365  26.153  21.907   3.845 -0.1409 -0.3234  0.2256
    1DPPC   C2A12366  26.146  21.538   4.127 -0.0236  0.0802  0.3220
    1DPPC   C3A12367  26.126  21.140   4.253  0.1795  0.1531  0.3245
    1DPPC   C4A12368  26.118  20.984   4.627  0.3152 -0.0396  0.0336
    1DPPC   C1B12369  25.842  22.416   3.924 -0.1099  0.0366 -0.0829
    1DPPC   C2B12370  26.026  22.365   4.241  0.1993 -0.2231 -0.0824
    1DPPC   C3B12371  26.261  22.013   4.337 -0.0153 -0.1740  0.1495
    1DPPC   C4B12372  26.118  21.672   4.600 -0.0906 -0.0081 -0.2353
    1DPPC   NC312373   2.726   2.298   2.730 -0.2258 -0.2908 -0.1811
    1DPPC   PO412374   2.574   2.174   3.180 -0.0776 -0.0469 -0.4824
    1DPPC   GL112375   2.620   2.130   3.596  0.1921 -0.3567 -0.0635
    1DPPC   GL212376   2.962   1.946   3.501 -0.1602 -0.1155 -0.0689
    1DPPC   C1A12377   2.466   1.918   3.928  0.1608 -0.3146 -0.1860
    1DPPC   C2A12378   2.465   1.703   4.254 -0.0474  0.1504 -0.0966
    1DPPC   C3A12379   2.624   1.304   4.214 -0.0793  0.2033  0.0481
    1DPPC   C4A12380   2.617   0.901   4.196  0.3992 -0.0383 -0.1020
    1DPPC   C1B12381   2.988   2.127   3.945  0.4992  0.0609 -0.0276
    1DPPC   C2B12382   2.861   2.047   4.378  0.2538  0.2480  0.0540
    1DPPC   C3B12383   2.786   1.642   4.567 -0.2148  0.2649  0.2248
    1DPPC   C4B12384   2.599   1.460   4.889  0.1848  0.2545  0.2183
    1DPPC   NC312385  14.426   8.138   2.792  0.0380 -0.0688 -0.0901
    1DPPC   PO412386  14.123   8.068   3.170  0.0638 -0.1175  0.0106
    1DPPC   GL112387  14.332   8.131   3.636 -0.2102 -0.1020 -0.1105
    1DPPC   GL212388  14.523   7.935   3.836 -0.1724  0.2989 -0.1004
    1DPPC   C1A12389  14.274   8.376   3.943  0.1979  0.0353  0.2763
    1DPPC   C2A12390  14.230   8.666   4.252  0.0289  0.0031 -0.4559
    1DPPC   C3A12391  14.309   8.677   4.694  0.1748  0.0327 -0.1100
    1DPPC   C4A12392  14.344   8.601   5.097  0.0468  0.1186 -0.1598
    1DPPC   C1B12393  14.670   7.831   4.204  0.4128 -0.0982  0.0131
    1DPPC   C2B12394  14.617   7.749   4.705  0.2160 -0.0615 -0.1292
    1DPPC   C3B12395  14.326   7.652   4.966  0.3161  0.0078  0.0027
    1DPPC   C4B12396  13.900   7.701   4.867  0.0753 -0.1188  0.0491
    1DPPC   NC312397   5.544  15.209   2.119 -0.1115  0.1174  0.1299
    1DPPC   PO412398   5.451  15.015   2.523 -0.0524  0.1830 -0.1491
    1DPPC   GL112399   5.189  14.937   2.883  0.0742  0.0801 -0.1518
    1DPPC   GL212400   5.005  15.238   3.053  0.3093 -0.0834 -0.0721
    1DPPC   C1A12401   5.213  14.877   3.312  0.0709  0.0556 -0.1712
    1DPPC   C2A12402   5.345  14.647   3.734  0.0351 -0.0415  0.0278
    1DPPC   C3A12403   5.457  14.523   4.251 -0.0989  0.1081  0.1848
    1DPPC   C4A12404   5.218  14.191   4.400  0.0138  0.1552 -0.1121
    1DPPC   C1B12405   4.846  15.431   3.463  0.4457 -0.4273  0.3629
    1DPPC   C2B12406   4.848  15.124   3.692  0.3099  0.1394 -0.1315
    1DPPC   C3B12407   4.939  14.913   3.959  0.0707 -0.0688 -0.1607
    1DPPC   C4B12408   4.991  14.965   4.375 -0.2278  0.0475  0.0787
    1DPPC   NC312409  20.007  12.283   2.394 -0.1132  0.1090 -0.4125
    1DPPC   PO412410  19.688  12.318   2.724 -0.0860  0.1763 -0.5195
    1DPPC   GL112411  19.612  12.579   3.077 -0.1283  0.0218  0.3273
    1DPPC   GL212412  19.424  12.800   3.110  0.3512 -0.0815 -0.4355
    1DPPC   C1A12413  19.484  12.516   3.464  0.1939  0.1412 -0.2520
    1DPPC   C2A12414  19.670  12.726   3.766  0.0304  0.1985  0.0454
    1DPPC   C3A12415  19.749  12.568   4.108  0.0873  0.1029  0.0853
    1DPPC   C4A12416  20.003  12.739   4.521 -0.0020  0.0476  0.2542
    1DPPC   C1B12417  19.674  13.142   3.348 -0.0904  0.0247  0.0451
    1DPPC   C2B12418  19.864  13.203   3.795 -0.2873 -0.0003 -0.0466
    1DPPC   C3B12419  19.803  13.071   4.136  0.5077 -0.0206 -0.2401
    1DPPC   C4B12420  19.852  13.229   4.613 -0.1277 -0.1823  0.2199
    1DPPC   NC312421  11.444  10.578   3.399  0.0104  0.2994  0.2936
    1DPPC   PO412422  11.232  10.312   3.330  0.1172  0.3936 -0.0990
    1DPPC   GL112423  11.424  10.124   3.696  0.0632 -0.1421 -0.1706
    1DPPC   GL212424  11.433   9.777   3.801 -0.0422 -0.1906  0.0751
    1DPPC   C1A12425  11.501  10.270   4.099 -0.0956 -0.1317 -0.0785
    1DPPC   C2A12426  11.548  10.201   4.568  0.1763  0.0529  0.0095
    1DPPC   C3A12427  11.776  10.173   4.979  0.2490 -0.4394  0.0804
    1DPPC   C4A12428  11.636  10.340   5.323 -0.0237 -0.3009  0.0113
    1DPPC   C1B12429  11.445   9.735   4.204  0.2086 -0.0814  0.1256
    1DPPC   C2B12430  11.602   9.714   4.568 -0.1156  0.3910 -0.1446
    1DPPC   C3B12431  11.579   9.667   4.948 -0.0318 -0.1863 -0.1286
    1DPPC   C4B12432  11.838   9.594   5.267  0.2342  0.1524  0.4061
    1DPPC   NC312433  10.795  17.543   2.667 -0.0010 -0.2639  0.0305
    1DPPC   PO412434  10.375  17.580   2.443 -0.1759 -0.1623 -0.3287
    1DPPC   GL112435  10.265  17.611   2.913  0.0883  0.3095  0.1849
    1DPPC   GL212436  10.590  17.715   3.085  0.0008 -0.1313 -0.1503
    1DPPC   C1A12437  10.154  17.686   3.365  0.0703 -0.0180  0.1618
    1DPPC   C2A12438  10.098  17.697   3.829  0.0350  0.0094  0.3084
    1DPPC   C3A12439   9.987  17.823   4.258 -0.0739 -0.0728 -0.1149
    1DPPC   C4A12440   9.658  17.649   4.535 -0.1389 -0.2472  0.2714
    1DPPC   C1B12441  10.549  17.938   3.541  0.0925 -0.1406  0.1125
    1DPPC   C2B12442  10.556  17.993   3.878  0.1618 -0.3099  0.0543
    1DPPC   C3B12443  10.303  18.266   4.114  0.0741 -0.0503 -0.3387
    1DPPC   C4B12444  10.174  18.340   4.502  0.1693 -0.0264 -0.0813
    1DPPC   NC312445  21.647  17.649   2.922  0.3183 -0.1530 -0.1051
    1DPPC   PO412446  21.827  17.840   3.197  0.0762  0.0486  0.0645
    1DPPC   GL112447  22.241  17.615   3.296 -0.2901 -0.0677 -0.0991
    1DPPC   GL212448  22.172  17.379   3.399 -0.1079 -0.2648  0.0545
    1DPPC   C1A12449  22.538  17.516   3.662 -0.0868  0.2095  0.0534
    1DPPC   C2A12450  22.764  17.714   3.955  0.1292 -0.0352 -0.2212
    1DPPC   C3A12451  23.118  17.726   4.220 -0.1600 -0.5508  0.1074
    1DPPC   C4A12452  23.240  18.034   4.456  0.0375 -0.4055  0.0540
    1DPPC   C1B12453  22.216  17.047   3.637  0.1132 -0.0873 -0.5266
    1DPPC   C2B12454  22.236  16.853   4.144  0.2235  0.2544  0.0715
    1DPPC   C3B12455  22.292  17.003   4.591  0.1195 -0.0677 -0.1494
    1DPPC   C4B12456  22.337  16.760   4.895  0.0673  0.0466 -0.1479
    1DPPC   NC312457  15.997  15.816   2.523 -0.1278 -0.1196 -0.2395
    1DPPC   PO412458  15.683  15.859   2.860 -0.2356 -0.0770  0.1019
    1DPPC   GL112459  15.729  15.904   3.258 -0.2131 -0.0471 -0.0947
    1DPPC   GL212460  15.817  16.118   3.426 -0.1152  0.2919 -0.1783
    1DPPC   C1A12461  15.633  15.779   3.706  0.2474 -0.0831 -0.0562
    1DPPC   C2A12462  15.723  15.707   4.165 -0.4571  0.0529  0.0543
    1DPPC   C3A12463  15.751  15.682   4.579 -0.2558 -0.0398  0.1508
    1DPPC   C4A12464  15.970  15.481   4.804  0.1590  0.0475  0.2582
    1DPPC   C1B12465  15.724  16.288   3.858 -0.2215  0.0133  0.0347
    1DPPC   C2B12466  15.795  16.190   4.316 -0.0107  0.3522  0.2865
    1DPPC   C3B12467  15.773  16.182   4.749  0.0090 -0.0503 -0.0187
    1DPPC   C4B12468  15.794  16.445   5.113 -0.1970  0.0861 -0.1414
    1DPPC   NC312469  19.193  16.604   2.674 -0.1363 -0.2799 -0.0312
    1DPPC   PO412470  18.820  16.270   2.830 -0.2503 -0.0722 -0.1189
    1DPPC   GL112471  18.945  15.812   2.895 -0.0337  0.0694 -0.3000
    1DPPC   GL212472  19.088  15.798   3.237 -0.0289 -0.5385 -0.5062
    1DPPC   C1A12473  18.703  15.540   3.320  0.0325  0.2318  0.3342
    1DPPC   C2A12474  18.679  15.406   3.850 -0.1887  0.1425 -0.1768
    1DPPC   C3A12475  18.665  15.413   4.280  0.1811  0.0541 -0.1199
    1DPPC   C4A12476  18.925  15.403   4.542  0.2878  0.0621 -0.0609
    1DPPC   C1B12477  19.058  15.823   3.719  0.0644 -0.0903  0.4138
    1DPPC   C2B12478  19.006  15.815   4.168  0.0517  0.2453  0.0047
    1DPPC   C3B12479  18.970  15.905   4.519 -0.3108  0.1886  0.0637
    1DPPC   C4B12480  18.841  16.015   4.878 -0.0870 -0.0161  0.0073
    1DPPC   NC312481  20.745  16.729   2.848  0.0529  0.2029  0.0540
    1DPPC   PO412482  20.980  16.971   3.092  0.2240  0.0881  0.2501
    1DPPC   GL112483  21.226  16.917   3.482  0.1756 -0.1847 -0.0010
    1DPPC   GL212484  20.897  17.126   3.556 -0.1143 -0.3894 -0.5219
    1DPPC   C1A12485  21.305  17.079   3.928 -0.0111  0.3290  0.0527
    1DPPC   C2A12486  21.380  16.911   4.222  0.1161 -0.1448 -0.0659
    1DPPC   C3A12487  21.286  16.674   4.549 -0.1070  0.0030  0.5935
    1DPPC   C4A12488  21.418  16.687   4.989  0.1084 -0.1144 -0.2002
    1DPPC   C1B12489  20.779  16.853   3.842  0.1259  0.1432  0.1072
    1DPPC   C2B12490  20.749  16.805   4.217 -0.2407 -0.0497 -0.1409
    1DPPC   C3B12491  20.762  16.805   4.665 -0.1721 -0.1349  0.5254
    1DPPC   C4B12492  20.915  16.788   4.995  0.2350 -0.0604 -0.0129
    1DPPC   NC312493  22.534  12.102   3.312 -0.2241 -0.1238  0.0565
    1DPPC   PO412494  22.132  12.336   3.196 -0.0546  0.1817  0.0089
    1DPPC   GL112495  22.105  12.170   3.561  0.1075 -0.0813 -0.0007
    1DPPC   GL212496  22.218  12.294   3.744  0.2048  0.0973 -0.1686
    1DPPC   C1A12497  22.170  11.961   4.064 -0.1636  0.0633 -0.1780
    1DPPC   C2A12498  22.268  11.948   4.401  0.0211 -0.1931  0.2326
    1DPPC   C3A12499  22.243  11.957   4.803  0.1745  0.0568 -0.0039
    1DPPC   C4A12500  22.165  12.251   5.101  0.1224 -0.1091  0.2649
    1DPPC   C1B12501  21.800  12.285   3.890 -0.0076  0.0799  0.1705
    1DPPC   C2B12502  21.573  12.532   4.154  0.2231  0.2879  0.3242
    1DPPC   C3B12503  21.438  12.750   4.617  0.0607 -0.0982 -0.0338
    1DPPC   C4B12504  21.353  12.725   5.000  0.0429 -0.1420  0.0053
    1DPPC   NC312505  10.552  18.927   2.882  0.4242  0.3111  0.1206
    1DPPC   PO412506  10.483  18.528   2.769  0.1625 -0.1230  0.2761
    1DPPC   GL112507  10.397  18.503   3.097 -0.0416  0.0873 -0.2284
    1DPPC   GL212508  10.283  18.187   3.170 -0.0384 -0.1062  0.0721
    1DPPC   C1A12509  10.400  18.481   3.597 -0.2959  0.2074  0.3053
    1DPPC   C2A12510  10.061  18.634   3.793  0.2400  0.0919 -0.0506
    1DPPC   C3A12511  10.277  18.770   4.089  0.2244 -0.1805 -0.3664
    1DPPC   C4A12512  10.364  18.821   4.550 -0.2426 -0.0257  0.1748
    1DPPC   C1B12513  10.029  18.131   3.572  0.0047 -0.0319  0.1512
    1DPPC   C2B12514   9.830  18.150   3.905  0.1161 -0.2555 -0.0874
    1DPPC   C3B12515   9.790  18.520   4.181  0.1323 -0.2243 -0.0647
    1DPPC   C4B12516   9.837  18.869   4.459 -0.1130  0.0278  0.0301
    1DPPC   NC312517  11.792  12.873   3.136 -0.2445  0.0564  0.0318
    1DPPC   PO412518  12.101  12.563   3.063  0.2204  0.1067  0.2836
    1DPPC   GL112519  12.022  12.134   3.354  0.1732 -0.1385 -0.3165
    1DPPC   GL212520  12.247  12.055   3.478 -0.0891 -0.1687  0.0323
    1DPPC   C1A12521  11.786  11.974   3.673 -0.1039 -0.0768  0.2800
    1DPPC   C2A12522  11.745  11.946   4.099  0.0977  0.2310 -0.1997
    1DPPC   C3A12523  11.746  11.982   4.508  0.0783  0.0404 -0.0762
    1DPPC   C4A12524  11.790  12.093   4.859  0.0774  0.0765 -0.2519
    1DPPC   C1B12525  12.211  12.150   3.962 -0.0308 -0.1754  0.3067
    1DPPC   C2B12526  12.258  12.182   4.463  0.4421 -0.3220  0.0480
    1DPPC   C3B12527  12.251  12.259   4.930 -0.0498  0.1302  0.0812
    1DPPC   C4B12528  12.365  12.030   5.210  0.1628 -0.1371 -0.0731
    1DPPC   NC312529  20.775   4.941   3.106  0.0223 -0.1456  0.0783
    1DPPC   PO412530  20.901   5.347   3.227  0.0610 -0.1312 -0.0849
    1DPPC   GL112531  20.788   5.015   3.627 -0.1685 -0.0923  0.1287
    1DPPC   GL212532  20.682   4.703   3.594 -0.1111 -0.2521 -0.1659
    1DPPC   C1A12533  21.026   4.920   4.013 -0.1432  0.2075  0.1364
    1DPPC   C2A12534  20.970   4.701   4.338  0.1938 -0.3480  0.2561
    1DPPC   C3A12535  20.658   4.468   4.708  0.0483  0.1027  0.1769
    1DPPC   C4A12536  20.475   4.254   5.201 -0.2630 -0.1631  0.2847
    1DPPC   C1B12537  20.620   4.512   4.033 -0.2703 -0.1741  0.0481
    1DPPC   C2B12538  20.294   4.305   4.344 -0.1783  0.2565 -0.0451
    1DPPC   C3B12539  20.163   4.488   4.784 -0.1911  0.1147 -0.2877
    1DPPC   C4B12540  19.911   4.523   5.182 -0.1865  0.0043 -0.0043
    1DPPC   NC312541   8.465  12.042   2.896 -0.1601 -0.0182 -0.3837
    1DPPC   PO412542   8.165  11.984   3.210 -0.2003 -0.0652 -0.0421
    1DPPC   GL112543   8.516  12.039   3.428 -0.1441 -0.0718  0.2274
    1DPPC   GL212544   8.455  12.344   3.614  0.0741 -0.0720 -0.0115
    1DPPC   C1A12545   8.402  11.768   3.836 -0.1860 -0.0429 -0.1615
    1DPPC   C2A12546   8.484  11.510   4.218 -0.0526  0.2643 -0.5172
    1DPPC   C3A12547   8.552  11.098   4.292  0.1737 -0.2271 -0.1202
    1DPPC   C4A12548   8.712  10.880   3.897  0.0138 -0.0383  0.1180
    1DPPC   C1B12549   8.376  12.314   4.059  0.1740  0.2356  0.1271
    1DPPC   C2B12550   8.179  12.398   4.491  0.0196  0.1539  0.3821
    1DPPC   C3B12551   8.269  12.486   4.850  0.0979  0.1417  0.0682
    1DPPC   C4B12552   7.998  12.338   5.143  0.1644  0.2301  0.0652
    1DPPC   NC312553  17.226  17.536   3.215  0.0398  0.4236  0.2433
    1DPPC   PO412554  17.696  17.561   3.199  0.1703  0.0471  0.1732
    1DPPC   GL112555  17.480  17.380   3.636  0.1308 -0.2446  0.0427
    1DPPC   GL212556  17.573  17.064   3.628 -0.2048 -0.0678 -0.1489
    1DPPC   C1A12557  17.510  17.646   3.983 -0.2692  0.1214 -0.1062
    1DPPC   C2A12558  17.538  17.653   4.419 -0.1624 -0.0327  0.0827
    1DPPC   C3A12559  17.515  17.745   4.793 -0.2904  0.0562 -0.0249
    1DPPC   C4A12560  17.498  17.275   5.018  0.0594  0.2463  0.1261
    1DPPC   C1B12561  17.512  16.904   3.980 -0.0803 -0.0895 -0.0414
    1DPPC   C2B12562  17.471  16.789   4.362  0.4481 -0.0723  0.0138
    1DPPC   C3B12563  17.605  16.764   4.796  0.3369  0.1792 -0.1933
    1DPPC   C4B12564  17.530  16.766   5.178  0.2283 -0.0159 -0.1198
    1DPPC   NC312565  19.431   6.989   3.569  0.0281 -0.3007  0.2696
    1DPPC   PO412566  19.148   7.081   3.702 -0.1200  0.0886 -0.1598
    1DPPC   GL112567  18.759   7.041   4.120  0.2499 -0.1119  0.0265
    1DPPC   GL212568  18.719   6.696   4.118 -0.0873 -0.0620 -0.0575
    1DPPC   C1A12569  18.951   6.944   4.513 -0.0987  0.3207  0.0382
    1DPPC   C2A12570  19.380   6.847   4.716  0.0328 -0.0398  0.1874
    1DPPC   C3A12571  19.913   6.885   4.751 -0.0799 -0.0366  0.1537
    1DPPC   C4A12572  20.370   6.952   4.687  0.1235  0.1403 -0.2578
    1DPPC   C1B12573  18.631   6.532   4.465  0.2824 -0.0517  0.3495
    1DPPC   C2B12574  18.258   6.256   4.581  0.1382 -0.2233 -0.1139
    1DPPC   C3B12575  18.042   5.917   4.691  0.1136  0.0332  0.1608
    1DPPC   C4B12576  18.148   5.401   4.901  0.4215  0.1211 -0.0092
    1DPPC   NC312577  16.408  13.648   2.922 -0.2571 -0.0537  0.1119
    1DPPC   PO412578  16.774  13.827   2.785 -0.2391  0.2156  0.0166
    1DPPC   GL112579  16.717  13.898   3.209 -0.0787 -0.0079 -0.1091
    1DPPC   GL212580  16.382  13.848   3.403  0.0366 -0.0546 -0.2524
    1DPPC   C1A12581  16.850  13.780   3.609  0.0558  0.0065 -0.1820
    1DPPC   C2A12582  16.901  13.607   3.996  0.1856 -0.0865 -0.3428
    1DPPC   C3A12583  17.130  13.602   4.328  0.0129 -0.0302  0.1955
    1DPPC   C4A12584  17.356  13.292   4.474 -0.0043  0.2273  0.4555
    1DPPC   C1B12585  16.350  13.951   3.755 -0.2324 -0.1380  0.2821
    1DPPC   C2B12586  16.523  13.852   4.149  0.1344 -0.0245  0.0841
    1DPPC   C3B12587  16.696  13.870   4.405 -0.0893 -0.1303 -0.1138
    1DPPC   C4B12588  16.813  14.208   4.606 -0.3810 -0.0079 -0.3612
    1DPPC   NC312589  20.685  11.667   3.192 -0.4760 -0.0814  0.2220
    1DPPC   PO412590  20.265  11.683   3.157 -0.0979  0.0107 -0.0974
    1DPPC   GL112591  20.241  11.786   3.591 -0.1398 -0.0327 -0.2227
    1DPPC   GL212592  20.262  12.109   3.553 -0.0945 -0.2985 -0.2220
    1DPPC   C1A12593  20.235  11.761   4.015  0.0017 -0.1535 -0.1047
    1DPPC   C2A12594  20.249  11.784   4.438 -0.4254 -0.1841 -0.3405
    1DPPC   C3A12595  20.193  11.627   4.875 -0.2862  0.0613  0.2546
    1DPPC   C4A12596  19.919  11.831   5.159  0.0734  0.1610 -0.0541
    1DPPC   C1B12597  20.118  12.297   3.972  0.2917 -0.1256 -0.1198
    1DPPC   C2B12598  20.114  12.266   4.352 -0.1561  0.0177  0.0106
    1DPPC   C3B12599  20.190  12.232   4.753 -0.0514  0.1538 -0.0643
    1DPPC   C4B12600  20.412  12.068   5.137  0.1225 -0.0050  0.0278
    1DPPC   NC312601  20.087  15.244   2.504 -0.0163 -0.1615  0.0264
    1DPPC   PO412602  20.052  15.003   2.895 -0.2333 -0.0544  0.1817
    1DPPC   GL112603  19.752  15.281   3.146 -0.0165 -0.1325  0.2571
    1DPPC   GL212604  19.371  15.373   3.106 -0.1306 -0.0625  0.0452
    1DPPC   C1A12605  19.625  15.252   3.572  0.1218  0.0118  0.0483
    1DPPC   C2A12606  19.819  15.241   4.009 -0.1777  0.0868 -0.0678
    1DPPC   C3A12607  19.951  15.100   4.495 -0.2627 -0.0061  0.0671
    1DPPC   C4A12608  20.185  15.060   4.876  0.2054 -0.3698 -0.1196
    1DPPC   C1B12609  19.122  15.374   3.514  0.0863 -0.3421  0.0148
    1DPPC   C2B12610  19.200  15.352   3.974  0.0442 -0.0947  0.1636
    1DPPC   C3B12611  19.402  15.120   4.257 -0.2158  0.0143  0.1596
    1DPPC   C4B12612  19.498  15.103   4.628  0.0067 -0.0920  0.0358
    1DPPC   NC312613  18.332  14.145   2.661 -0.0804 -0.0787 -0.0273
    1DPPC   PO412614  18.760  14.155   2.704 -0.1557 -0.1406  0.0132
    1DPPC   GL112615  18.676  13.794   2.922 -0.3630  0.0156  0.3407
    1DPPC   GL212616  18.394  13.668   3.089  0.3472 -0.0458  0.0398
    1DPPC   C1A12617  18.840  13.651   3.387  0.1873  0.0512 -0.1086
    1DPPC   C2A12618  18.871  13.504   3.858 -0.0394 -0.2167  0.1428
    1DPPC   C3A12619  18.916  13.464   4.275  0.3324  0.0475 -0.0910
    1DPPC   C4A12620  19.089  13.500   4.643 -0.0405 -0.0858 -0.2527
    1DPPC   C1B12621  18.390  13.472   3.500  0.0513  0.1912  0.3247
    1DPPC   C2B12622  18.368  13.446   3.944 -0.0518 -0.1698 -0.0284
    1DPPC   C3B12623  18.429  13.385   4.398 -0.1714  0.1742  0.1497
    1DPPC   C4B12624  18.571  13.417   4.803 -0.0301 -0.1410  0.1155
    1DPPC   NC312625  20.987  14.182   2.708  0.1068  0.1509 -0.0598
    1DPPC   PO412626  20.549  14.182   2.692 -0.3730 -0.3038 -0.3010
    1DPPC   GL112627  20.660  14.115   3.161  0.0288  0.0040  0.0581
    1DPPC   GL212628  20.348  14.098   3.267  0.1568 -0.1050  0.2834
    1DPPC   C1A12629  20.704  14.106   3.587 -0.1488  0.1401  0.0839
    1DPPC   C2A12630  20.945  14.062   4.002 -0.2075  0.0382  0.1880
    1DPPC   C3A12631  21.000  14.174   4.412 -0.1029 -0.5145 -0.1860
    1DPPC   C4A12632  20.779  14.070   4.717 -0.3514 -0.0094  0.5882
    1DPPC   C1B12633  20.245  14.121   3.722  0.4126 -0.1984  0.0460
    1DPPC   C2B12634  20.418  13.947   4.014  0.0332 -0.0495 -0.0974
    1DPPC   C3B12635  20.599  13.770   4.349 -0.1748 -0.0016 -0.0360
    1DPPC   C4B12636  20.809  13.381   4.486  0.0956 -0.1837  0.0671
    1DPPC   NC312637  18.031  19.574   3.701  0.2114  0.0513 -0.2636
    1DPPC   PO412638  17.902  19.962   3.506 -0.0236  0.1542  0.1501
    1DPPC   GL112639  17.890  20.020   3.976 -0.1482  0.0666 -0.1847
    1DPPC   GL212640  18.214  19.884   4.019  0.1527 -0.0307  0.1137
    1DPPC   C1A12641  17.926  20.043   4.410  0.2050  0.1439  0.0472
    1DPPC   C2A12642  17.763  20.110   4.794 -0.0994  0.0361 -0.0118
    1DPPC   C3A12643  17.631  20.424   5.120  0.2978  0.1246  0.0521
    1DPPC   C4A12644  17.547  20.817   5.508 -0.0707 -0.2107  0.1144
    1DPPC   C1B12645  18.461  19.764   4.441  0.3287 -0.0376 -0.0069
    1DPPC   C2B12646  18.552  19.592   4.790  0.4325 -0.0917 -0.4747
    1DPPC   C3B12647  18.505  19.505   5.235  0.0988  0.0490 -0.1878
    1DPPC   C4B12648  18.420  19.773   5.593 -0.2765 -0.0493 -0.0130
    1DPPC   NC312649  17.290  12.595   2.837  0.0259  0.2200  0.0181
    1DPPC   PO412650  16.988  12.932   2.803  0.0012  0.1483  0.0885
    1DPPC   GL112651  17.120  12.897   3.249 -0.1235 -0.0370 -0.0169
    1DPPC   GL212652  16.910  12.673   3.258 -0.1275 -0.0580 -0.1088
    1DPPC   C1A12653  17.268  12.943   3.654  0.0261  0.1799 -0.1521
    1DPPC   C2A12654  17.221  13.057   4.097 -0.3567  0.0007  0.0228
    1DPPC   C3A12655  17.189  12.811   4.467  0.0711  0.0480 -0.1661
    1DPPC   C4A12656  16.977  12.504   4.686 -0.1389 -0.0399  0.1975
    1DPPC   C1B12657  16.751  12.673   3.666  0.2130 -0.0751 -0.1532
    1DPPC   C2B12658  16.787  12.632   4.143 -0.0961  0.3362 -0.2003
    1DPPC   C3B12659  16.618  12.806   4.511 -0.1089  0.1635 -0.0081
    1DPPC   C4B12660  16.668  13.064   4.890 -0.0880 -0.0313  0.0187
    1DPPC   NC312661  18.621  11.716   2.906 -0.1257 -0.0594 -0.1623
    1DPPC   PO412662  18.653  11.282   2.741 -0.1561  0.1693  0.2420
    1DPPC   GL112663  18.560  10.882   3.008  0.0790  0.1529 -0.2400
    1DPPC   GL212664  18.254  10.961   2.889 -0.1763 -0.0925 -0.2407
    1DPPC   C1A12665  18.499  10.832   3.365  0.4222  0.2901  0.1292
    1DPPC   C2A12666  18.290  10.877   3.716 -0.0454 -0.1717  0.1012
    1DPPC   C3A12667  18.346  10.746   4.100 -0.3187 -0.1508 -0.1006
    1DPPC   C4A12668  18.196  10.881   4.485 -0.1231  0.0646 -0.0448
    1DPPC   C1B12669  18.033  11.006   3.249 -0.1381 -0.1830  0.1057
    1DPPC   C2B12670  17.805  11.112   3.693  0.0331  0.1778 -0.0084
    1DPPC   C3B12671  17.878  11.108   4.088 -0.4266  0.1447  0.0249
    1DPPC   C4B12672  17.730  10.773   4.312  0.0422 -0.0274  0.1321
    1DPPC   NC312673  14.416  15.154   2.326  0.1529 -0.2098  0.2942
    1DPPC   PO412674  14.205  15.323   2.654  0.2265 -0.2034  0.3724
    1DPPC   GL112675  14.179  15.357   3.106  0.4257 -0.0104 -0.1340
    1DPPC   GL212676  14.390  15.331   3.404  0.0633 -0.1222  0.1508
    1DPPC   C1A12677  13.933  15.072   3.355  0.0829 -0.1589  0.0866
    1DPPC   C2A12678  13.798  15.102   3.826  0.0488 -0.2346 -0.0138
    1DPPC   C3A12679  13.933  15.100   4.267 -0.1893 -0.1484  0.2669
    1DPPC   C4A12680  14.090  14.993   4.645 -0.0265  0.0216 -0.1668
    1DPPC   C1B12681  14.573  15.407   3.863  0.0785  0.0893  0.2539
    1DPPC   C2B12682  14.482  15.338   4.277 -0.2225 -0.3135  0.0629
    1DPPC   C3B12683  14.446  15.385   4.761 -0.0018  0.0747 -0.0825
    1DPPC   C4B12684  14.378  15.169   5.096 -0.0248  0.1553  0.1379
    1DPPC   NC312685   9.806   1.448   3.591  0.0888  0.0901 -0.0577
    1DPPC   PO412686   9.531   1.367   4.085 -0.1013 -0.3275  0.4542
    1DPPC   GL112687   9.539   1.089   4.316 -0.0443  0.0093 -0.1643
    1DPPC   GL212688   9.250   0.901   4.372  0.0237 -0.0682 -0.1676
    1DPPC   C1A12689   9.501   1.038   4.835 -0.0879 -0.3845  0.0888
    1DPPC   C2A12690   9.507   0.853   5.266  0.2856  0.1267 -0.2786
    1DPPC   C3A12691   9.415   1.021   5.637  0.0685 -0.2252 -0.3008
    1DPPC   C4A12692   9.493   1.294   5.922 -0.0929 -0.1728 -0.2511
    1DPPC   C1B12693   9.014   0.902   4.700 -0.0026  0.0561  0.0884
    1DPPC   C2B12694   8.734   0.691   4.961 -0.0948  0.1967 -0.0194
    1DPPC   C3B12695   8.697   0.441   5.405  0.2406  0.0191 -0.4618
    1DPPC   C4B12696   8.551   0.052   5.700  0.1205 -0.2738 -0.1135
    1DPPC   NC312697  15.662  13.244   2.992 -0.1728 -0.0438 -0.2036
    1DPPC   PO412698  16.131  13.205   2.767  0.4382  0.0194  0.0501
    1DPPC   GL112699  16.088  13.209   3.180 -0.3546 -0.2258 -0.0643
    1DPPC   GL212700  16.007  12.920   3.203  0.1581  0.0405  0.2350
    1DPPC   C1A12701  15.851  13.245   3.623 -0.0367  0.2166 -0.2919
    1DPPC   C2A12702  15.734  13.239   4.082  0.2059 -0.1744 -0.0760
    1DPPC   C3A12703  15.758  13.302   4.540 -0.1466  0.0085 -0.1431
    1DPPC   C4A12704  15.844  13.468   4.944 -0.1885 -0.0880 -0.0382
    1DPPC   C1B12705  15.779  12.683   3.635 -0.2343 -0.1302 -0.1317
    1DPPC   C2B12706  15.666  12.728   4.019  0.1427  0.2316 -0.2458
    1DPPC   C3B12707  15.639  12.843   4.409 -0.0514 -0.1494 -0.2922
    1DPPC   C4B12708  15.685  12.896   4.871  0.4576 -0.0789  0.2439
    1DPPC   NC312709  16.711  20.464   3.511 -0.0947  0.2121 -0.0572
    1DPPC   PO412710  16.560  20.058   3.639  0.0590 -0.0065 -0.4986
    1DPPC   GL112711  16.853  20.075   3.948  0.0631 -0.0478 -0.0265
    1DPPC   GL212712  17.043  20.380   3.916 -0.1814 -0.2377  0.0115
    1DPPC   C1A12713  16.856  19.978   4.347 -0.1931  0.0108 -0.0168
    1DPPC   C2A12714  16.862  19.995   4.728 -0.2540 -0.0602 -0.1760
    1DPPC   C3A12715  16.673  20.104   5.082 -0.2410 -0.0775 -0.1999
    1DPPC   C4A12716  16.663  20.035   5.611  0.2969  0.0485  0.0549
    1DPPC   C1B12717  17.227  20.302   4.310  0.1138 -0.1804  0.0975
    1DPPC   C2B12718  17.305  20.342   4.715 -0.5297  0.1202 -0.1096
    1DPPC   C3B12719  17.158  20.231   5.088 -0.0302 -0.2194  0.1132
    1DPPC   C4B12720  17.235  20.261   5.561 -0.0190 -0.0288 -0.1130
    1DPPC   NC312721  22.226  14.201   2.805  0.1297  0.0550 -0.1317
    1DPPC   PO412722  22.346  14.555   2.558 -0.1987  0.0124  0.1325
    1DPPC   GL112723  22.363  14.823   2.918  0.0542  0.2842  0.1050
    1DPPC   GL212724  22.243  14.678   3.102 -0.2274  0.0959 -0.1924
    1DPPC   C1A12725  22.633  14.874   3.318  0.4869  0.1675  0.1552
    1DPPC   C2A12726  22.838  15.011   3.682  0.2262  0.2143 -0.1853
    1DPPC   C3A12727  22.997  15.391   3.904 -0.0437  0.0699 -0.0115
    1DPPC   C4A12728  23.119  15.783   4.262 -0.1887 -0.1632 -0.2065
    1DPPC   C1B12729  22.224  14.686   3.591 -0.1451 -0.2077  0.2597
    1DPPC   C2B12730  22.477  14.775   3.934  0.0132 -0.1873  0.1263
    1DPPC   C3B12731  22.606  15.086   4.093 -0.0653 -0.0746 -0.0931
    1DPPC   C4B12732  22.793  15.393   4.339  0.2124  0.3142  0.2016
    1DPPC   NC312733  20.511  18.007   3.149  0.1886 -0.2093  0.0956
    1DPPC   PO412734  20.899  17.903   3.184 -0.0042  0.0798  0.3875
    1DPPC   GL112735  21.151  17.969   3.474  0.1344 -0.2760 -0.0393
    1DPPC   GL212736  21.349  17.776   3.385 -0.2151  0.1001 -0.2471
    1DPPC   C1A12737  21.250  17.931   3.899  0.1121 -0.1122 -0.1296
    1DPPC   C2A12738  21.126  17.918   4.321  0.3650 -0.2931 -0.0896
    1DPPC   C3A12739  21.222  17.700   4.704  0.1579  0.1035 -0.1312
    1DPPC   C4A12740  21.281  17.665   5.113 -0.3766  0.0072 -0.1164
    1DPPC   C1B12741  21.272  17.504   3.703 -0.0474 -0.2823 -0.0485
    1DPPC   C2B12742  21.418  17.485   4.208  0.2201  0.0163 -0.0788
    1DPPC   C3B12743  21.507  17.298   4.623  0.1947 -0.1303  0.0374
    1DPPC   C4B12744  21.831  16.978   4.719  0.0434  0.1031  0.1147
    1DPPC   NC312745  10.420  19.834   2.906 -0.1262  0.2024 -0.0108
    1DPPC   PO412746  10.150  19.518   3.032 -0.0017  0.2317  0.1666
    1DPPC   GL112747   9.871  19.567   3.323  0.2309 -0.0590 -0.4445
    1DPPC   GL212748   9.515  19.775   3.265  0.2455 -0.0028  0.0097
    1DPPC   C1A12749   9.693  19.477   3.730  0.2512 -0.1335 -0.2861
    1DPPC   C2A12750   9.408  19.541   4.098  0.0195  0.1496  0.0615
    1DPPC   C3A12751   9.006  19.510   4.273 -0.0275 -0.1783 -0.0832
    1DPPC   C4A12752   8.617  19.264   4.523 -0.0039 -0.1768  0.1280
    1DPPC   C1B12753   9.373  19.897   3.710 -0.0299  0.1274  0.0907
    1DPPC   C2B12754   9.282  19.987   4.203  0.3139 -0.1338 -0.1445
    1DPPC   C3B12755   9.034  20.348   4.455 -0.1657 -0.2009 -0.0280
    1DPPC   C4B12756   9.271  20.745   4.522 -0.0010 -0.0991 -0.2987
    1DPPC   NC312757  14.925  13.151   2.448 -0.0177 -0.0051  0.2531
    1DPPC   PO412758  15.168  13.139   2.943  0.0674  0.1714  0.1180
    1DPPC   GL112759  15.348  12.995   3.330  0.4089 -0.1222  0.3010
    1DPPC   GL212760  15.356  12.688   3.313  0.1090  0.1530  0.1458
    1DPPC   C1A12761  15.333  13.118   3.801 -0.0224 -0.0129 -0.4161
    1DPPC   C2A12762  15.276  13.136   4.316  0.3293  0.0535  0.1669
    1DPPC   C3A12763  15.292  13.238   4.783  0.0367 -0.3487  0.1113
    1DPPC   C4A12764  15.305  13.491   5.056  0.1493 -0.2347 -0.0593
    1DPPC   C1B12765  15.223  12.601   3.749 -0.2704 -0.0750 -0.0407
    1DPPC   C2B12766  15.224  12.646   4.219 -0.3205  0.2958 -0.0895
    1DPPC   C3B12767  15.257  12.571   4.620 -0.3683 -0.0819 -0.2667
    1DPPC   C4B12768  15.311  12.502   5.016 -0.0156  0.2019 -0.0794
    1DPPC   NC312769  12.969  14.672   2.985  0.0991  0.0574  0.0795
    1DPPC   PO412770  12.811  14.930   2.738 -0.3861 -0.2117  0.3258
    1DPPC   GL112771  12.889  15.098   3.254  0.3087 -0.0404 -0.2845
    1DPPC   GL212772  12.629  14.867   3.298  0.2128  0.0633  0.0435
    1DPPC   C1A12773  12.813  15.033   3.763  0.1897  0.2549  0.2309
    1DPPC   C2A12774  12.784  15.064   4.217 -0.1465  0.0342  0.1777
    1DPPC   C3A12775  12.903  15.149   4.555  0.5029  0.0298  0.2123
    1DPPC   C4A12776  12.936  15.087   5.001 -0.1230  0.0283 -0.1464
    1DPPC   C1B12777  12.398  15.158   3.566  0.2705  0.1920  0.3909
    1DPPC   C2B12778  12.449  15.364   3.983  0.1281  0.2533  0.0444
    1DPPC   C3B12779  12.452  15.400   4.420  0.2567  0.0912 -0.0523
    1DPPC   C4B12780  12.563  15.522   4.785 -0.1445 -0.0572 -0.1119
    1DPPC   NC312781  11.384  16.887   2.650  0.3833  0.2373 -0.2004
    1DPPC   PO412782  11.325  17.380   2.662 -0.2126  0.1461 -0.0808
    1DPPC   GL112783  11.578  17.254   2.984 -0.1451 -0.4301  0.3990
    1DPPC   GL212784  11.747  16.976   3.053  0.0644 -0.2978 -0.0065
    1DPPC   C1A12785  11.431  16.968   3.415 -0.0390 -0.0299 -0.2005
    1DPPC   C2A12786  11.317  16.851   3.755  0.2505  0.0571 -0.1850
    1DPPC   C3A12787  11.458  16.898   4.208 -0.2491  0.0383  0.2679
    1DPPC   C4A12788  11.633  16.730   4.664  0.0063 -0.0758 -0.0599
    1DPPC   C1B12789  11.900  17.269   3.352 -0.2217  0.0255  0.0013
    1DPPC   C2B12790  11.755  17.242   3.810  0.1199 -0.1761  0.0127
    1DPPC   C3B12791  11.865  17.185   4.335 -0.1327  0.2192 -0.0630
    1DPPC   C4B12792  11.815  17.306   4.706 -0.1046 -0.0737  0.1711
    1DPPC   NC312793  17.148  15.975   2.488 -0.0173  0.0079 -0.2161
    1DPPC   PO412794  17.677  15.823   2.611  0.1768 -0.3046  0.1249
    1DPPC   GL112795  17.498  15.639   3.011  0.0906 -0.0860  0.1483
    1DPPC   GL212796  17.694  15.474   3.189  0.0373 -0.0946 -0.0814
    1DPPC   C1A12797  17.214  15.586   3.363  0.0851 -0.0817  0.1587
    1DPPC   C2A12798  17.079  15.345   3.722 -0.0484 -0.0935  0.1657
    1DPPC   C3A12799  17.092  15.415   4.089 -0.2700 -0.0282 -0.4146
    1DPPC   C4A12800  17.126  15.487   4.585 -0.1134 -0.0195 -0.0319
    1DPPC   C1B12801  17.637  15.462   3.649 -0.0725  0.1012 -0.0855
    1DPPC   C2B12802  17.662  15.452   4.090  0.0045  0.0758  0.0291
    1DPPC   C3B12803  17.691  15.468   4.500  0.0976  0.3674 -0.0736
    1DPPC   C4B12804  17.831  15.353   4.901  0.1406 -0.1199 -0.2032
    1DPPC   NC312805  13.059  10.188   3.229 -0.0489 -0.2119  0.0721
    1DPPC   PO412806  13.501  10.069   3.432  0.1365  0.0904 -0.1368
    1DPPC   GL112807  13.649   9.829   3.810 -0.0920 -0.0193  0.2658
    1DPPC   GL212808  13.757  10.188   3.862 -0.0554  0.1879  0.0145
    1DPPC   C1A12809  13.795   9.668   4.144  0.1926 -0.0797  0.1031
    1DPPC   C2A12810  13.935   9.705   4.540  0.1661  0.0295  0.0535
    1DPPC   C3A12811  13.901   9.905   4.987  0.1605  0.2016 -0.0630
    1DPPC   C4A12812  13.862  10.109   5.443 -0.3713  0.2952 -0.1020
    1DPPC   C1B12813  13.695  10.140   4.243 -0.3307 -0.0302  0.1014
    1DPPC   C2B12814  13.781  10.229   4.632 -0.1301 -0.1310  0.1794
    1DPPC   C3B12815  13.960  10.366   5.013 -0.0112 -0.0151  0.2786
    1DPPC   C4B12816  14.009  10.705   5.262  0.0016 -0.1347 -0.1285
    1DPPC   NC312817   7.860  13.596   2.291 -0.0046 -0.0006 -0.0087
    1DPPC   PO412818   8.124  13.958   2.445 -0.1434  0.2364 -0.0007
    1DPPC   GL112819   8.151  13.810   2.909 -0.0607  0.2025 -0.2360
    1DPPC   GL212820   8.407  13.780   3.086  0.0520  0.1658  0.0886
    1DPPC   C1A12821   7.825  13.794   3.269  0.2174 -0.0987 -0.1230
    1DPPC   C2A12822   7.733  13.847   3.716 -0.1443 -0.1096  0.2276
    1DPPC   C3A12823   7.789  13.759   4.214 -0.0066 -0.0599 -0.2120
    1DPPC   C4A12824   7.997  13.861   4.694  0.2900 -0.1510  0.1857
    1DPPC   C1B12825   8.209  13.923   3.498  0.3274  0.0335  0.1385
    1DPPC   C2B12826   8.066  14.186   3.711  0.3225  0.0052 -0.2178
    1DPPC   C3B12827   7.944  14.321   4.061  0.1487  0.2814  0.1175
    1DPPC   C4B12828   8.114  14.375   4.422  0.1533  0.0187 -0.2553
    1DPPC   NC312829   8.657  20.885   2.467  0.0375  0.3293 -0.0682
    1DPPC   PO412830   8.800  20.508   2.638 -0.1020 -0.0333 -0.0212
    1DPPC   GL112831   8.440  20.675   2.935  0.0470 -0.0847 -0.3156
    1DPPC   GL212832   8.521  20.712   3.198  0.1592  0.2381  0.2671
    1DPPC   C1A12833   8.002  20.709   3.090  0.2579  0.3103 -0.3764
    1DPPC   C2A12834   7.721  20.564   3.382 -0.1083 -0.0514 -0.0338
    1DPPC   C3A12835   7.372  20.810   3.512  0.1283 -0.1770 -0.1230
    1DPPC   C4A12836   7.076  20.743   3.658  0.5340 -0.1069 -0.0367
    1DPPC   C1B12837   8.915  20.830   3.490 -0.1845 -0.3318  0.2252
    1DPPC   C2B12838   9.035  21.005   3.933  0.1445  0.4293  0.2524
    1DPPC   C3B12839   9.341  21.288   4.116 -0.1406  0.2152 -0.0357
    1DPPC   C4B12840   9.702  21.574   4.008  0.1487 -0.1797  0.1148
    1DPPC   NC312841  19.621  11.575   2.869  0.1168  0.0821 -0.0315
    1DPPC   PO412842  19.615  11.119   2.885 -0.4343  0.2640 -0.2271
    1DPPC   GL112843  19.434  10.953   3.250 -0.1484 -0.1140 -0.0247
    1DPPC   GL212844  19.196  10.866   3.158 -0.3252  0.1148 -0.0766
    1DPPC   C1A12845  19.331  10.950   3.741 -0.0794  0.2037 -0.0818
    1DPPC   C2A12846  19.182  10.680   4.176  0.2829  0.0391  0.2525
    1DPPC   C3A12847  19.192  10.385   4.472  0.1791  0.0573  0.2642
    1DPPC   C4A12848  18.813  10.097   4.566 -0.0387 -0.3105 -0.1828
    1DPPC   C1B12849  18.989  10.659   3.541 -0.0065 -0.0316  0.0054
    1DPPC   C2B12850  18.669  10.511   3.749 -0.1136 -0.2577 -0.0150
    1DPPC   C3B12851  18.605  10.298   4.135  0.2684 -0.0125  0.0706
    1DPPC   C4B12852  18.393   9.949   4.277 -0.0904  0.1801 -0.0802
    1DPPC   NC312853  15.541  17.435   3.121  0.1758 -0.0203 -0.1368
    1DPPC   PO412854  15.431  16.926   3.035 -0.4409  0.2696 -0.0359
    1DPPC   GL112855  15.613  17.072   3.426  0.3309  0.1950  0.1385
    1DPPC   GL212856  15.778  17.362   3.545  0.0675 -0.4079  0.1781
    1DPPC   C1A12857  15.641  16.814   3.818 -0.1609  0.3035 -0.2022
    1DPPC   C2A12858  15.793  16.834   4.276  0.3595 -0.1156 -0.1281
    1DPPC   C3A12859  15.725  16.806   4.718 -0.1626 -0.0581  0.1596
    1DPPC   C4A12860  15.313  16.826   5.031 -0.2115 -0.0114 -0.2855
    1DPPC   C1B12861  15.789  17.313   3.951 -0.2931  0.0028 -0.0106
    1DPPC   C2B12862  15.779  17.259   4.447 -0.3651 -0.1502 -0.0465
    1DPPC   C3B12863  15.665  17.285   4.931 -0.2062  0.0203  0.4327
    1DPPC   C4B12864  15.411  17.380   5.239  0.4547  0.2837 -0.1213
    1DPPC   NC312865  25.733  28.581   3.401  0.2236  0.0955 -0.1321
    1DPPC   PO412866  26.015  28.373   3.601  0.0545  0.1361 -0.0936
    1DPPC   GL112867  25.968  28.205   3.981  0.1985  0.1863 -0.0132
    1DPPC   GL212868  25.895  28.440   4.135 -0.1730 -0.0740  0.1516
    1DPPC   C1A12869  26.324  28.111   4.301 -0.0677 -0.0682 -0.0140
    1DPPC   C2A12870  26.607  28.332   4.733 -0.1030 -0.0659 -0.0727
    1DPPC   C3A12871  26.522  28.538   5.248 -0.1921  0.1642 -0.1287
    1DPPC   C4A12872  26.612  28.303   5.610 -0.1039  0.4374  0.0664
    1DPPC   C1B12873  25.890  28.164   4.514 -0.2450  0.1856  0.0222
    1DPPC   C2B12874  25.556  28.073   4.934 -0.1687 -0.1233 -0.2310
    1DPPC   C3B12875  25.615  27.912   5.259  0.2277 -0.0270 -0.0861
    1DPPC   C4B12876  25.847  27.676   5.452 -0.2093 -0.0424 -0.3036
    1DPPC   NC312877  15.312   9.057   2.860  0.1477  0.3909 -0.1382
    1DPPC   PO412878  15.067   9.335   3.162  0.0789  0.0086  0.0659
    1DPPC   GL112879  15.271   9.447   3.471 -0.1368 -0.0684 -0.3775
    1DPPC   GL212880  15.205   9.607   3.798 -0.1503 -0.0019  0.2450
    1DPPC   C1A12881  15.550   9.256   3.836  0.1132 -0.1097 -0.1137
    1DPPC   C2A12882  15.655   9.161   4.250  0.1245 -0.0036  0.1848
    1DPPC   C3A12883  15.672   9.234   4.714  0.1198  0.0061 -0.0896
    1DPPC   C4A12884  15.953   9.575   4.885  0.0194  0.2158  0.0412
    1DPPC   C1B12885  15.340   9.589   4.208 -0.3064  0.0239 -0.2124
    1DPPC   C2B12886  15.451   9.662   4.644 -0.1078 -0.0232 -0.2593
    1DPPC   C3B12887  15.246   9.607   4.939  0.1545  0.2264 -0.0069
    1DPPC   C4B12888  15.218   9.575   5.402 -0.0113 -0.4813 -0.0258
    1DPPC   NC312889  12.318  19.458   2.543  0.2399  0.3058 -0.2319
    1DPPC   PO412890  12.316  18.898   2.672  0.1216  0.1204  0.0436
    1DPPC   GL112891  12.431  19.086   3.072  0.2045 -0.0831 -0.0928
    1DPPC   GL212892  12.701  19.080   3.157  0.3019  0.0379 -0.0501
    1DPPC   C1A12893  12.189  19.108   3.406  0.3177  0.2455 -0.1030
    1DPPC   C2A12894  12.148  19.244   3.850  0.1653 -0.0739 -0.2602
    1DPPC   C3A12895  12.087  19.484   4.326 -0.1165 -0.1543 -0.1306
    1DPPC   C4A12896  12.084  19.422   4.750 -0.1373  0.1989  0.0551
    1DPPC   C1B12897  12.661  19.155   3.584 -0.2483 -0.1159  0.0051
    1DPPC   C2B12898  12.569  19.098   3.910  0.0031 -0.1156 -0.1050
    1DPPC   C3B12899  12.531  19.106   4.307 -0.1374 -0.2646 -0.0440
    1DPPC   C4B12900  12.403  19.019   4.659 -0.1317  0.1552  0.1018
    1DPPC   NC312901  14.008  16.768   2.625  0.0170 -0.2145  0.1620
    1DPPC   PO412902  13.686  16.631   2.742  0.0120  0.0435 -0.1166
    1DPPC   GL112903  13.321  16.682   3.121 -0.1699 -0.3109  0.1960
    1DPPC   GL212904  13.219  16.947   3.237  0.0112 -0.2570 -0.2146
    1DPPC   C1A12905  13.069  16.487   3.441 -0.2174 -0.2550  0.0248
    1DPPC   C2A12906  12.929  16.486   3.852  0.1463  0.2577 -0.1349
    1DPPC   C3A12907  13.010  16.464   4.307  0.1859 -0.0253  0.1663
    1DPPC   C4A12908  13.004  16.448   4.814 -0.0659 -0.3450  0.2480
    1DPPC   C1B12909  13.230  16.883   3.726  0.0430 -0.1238  0.1756
    1DPPC   C2B12910  13.179  16.907   4.143 -0.0016  0.1589 -0.1803
    1DPPC   C3B12911  13.239  16.834   4.581  0.1195  0.1738  0.2005
    1DPPC   C4B12912  13.397  16.777   5.030 -0.1428 -0.1207  0.2100
    1DPPC   NC312913  13.753  15.259   2.739  0.0745 -0.1495  0.0451
    1DPPC   PO412914  13.300  15.013   2.733  0.2807 -0.2717 -0.0951
    1DPPC   GL112915  13.441  15.107   3.116  0.0608 -0.2707 -0.0524
    1DPPC   GL212916  13.342  14.793   3.292  0.4184  0.1027  0.1159
    1DPPC   C1A12917  13.299  15.210   3.510  0.0195  0.0262 -0.0838
    1DPPC   C2A12918  13.285  15.150   3.994 -0.0954  0.0146  0.0431
    1DPPC   C3A12919  13.369  15.103   4.431 -0.2148 -0.1958 -0.0822
    1DPPC   C4A12920  13.408  15.021   4.873  0.1546 -0.0429  0.3737
    1DPPC   C1B12921  13.640  14.674   3.699  0.3171  0.0133  0.0685
    1DPPC   C2B12922  13.774  14.672   4.107  0.1307 -0.0437  0.0864
    1DPPC   C3B12923  13.675  14.709   4.515  0.2206 -0.3015 -0.1227
    1DPPC   C4B12924  13.659  14.576   4.963 -0.0905  0.0489  0.0159
    1DPPC   NC312925  12.903   9.143   3.017 -0.0313  0.0948  0.3280
    1DPPC   PO412926  12.651   9.009   3.385 -0.1165 -0.0550 -0.0204
    1DPPC   GL112927  12.539   9.173   3.710  0.0895 -0.0240 -0.0688
    1DPPC   GL212928  12.229   9.117   3.767  0.0825  0.1857 -0.0210
    1DPPC   C1A12929  12.665   9.067   4.160 -0.1041 -0.0649  0.3068
    1DPPC   C2A12930  12.921   8.960   4.566  0.0180 -0.0772 -0.3637
    1DPPC   C3A12931  12.951   8.972   5.049 -0.0000  0.1662  0.2114
    1DPPC   C4A12932  13.171   9.216   5.315  0.1742  0.0711  0.3111
    1DPPC   C1B12933  12.193   9.023   4.164 -0.0784 -0.0212 -0.1840
    1DPPC   C2B12934  12.260   8.969   4.550  0.2571 -0.1943 -0.4397
    1DPPC   C3B12935  12.386   8.855   4.972  0.0517 -0.1201  0.0463
    1DPPC   C4B12936  12.661   8.715   5.387  0.1765 -0.2323 -0.0900
    1DPPC   NC312937  15.647  12.747   2.321 -0.1327 -0.3311  0.1095
    1DPPC   PO412938  15.628  12.330   2.596 -0.1441 -0.2410 -0.1310
    1DPPC   GL112939  15.756  12.404   3.074  0.0022 -0.1598 -0.0593
    1DPPC   GL212940  16.022  12.368   3.258 -0.0618  0.0530 -0.1088
    1DPPC   C1A12941  15.566  12.272   3.439  0.1005 -0.2021 -0.1027
    1DPPC   C2A12942  15.635  12.247   3.894 -0.0123  0.0037  0.1290
    1DPPC   C3A12943  15.671  12.295   4.384  0.0408  0.2006  0.2934
    1DPPC   C4A12944  15.736  12.391   4.762 -0.4364 -0.0416  0.2193
    1DPPC   C1B12945  16.186  12.280   3.600 -0.0295 -0.0502 -0.3574
    1DPPC   C2B12946  16.397  12.347   3.960  0.1709 -0.0321  0.2439
    1DPPC   C3B12947  16.401  12.280   4.364 -0.1458 -0.0632  0.1375
    1DPPC   C4B12948  16.484  12.325   4.763 -0.1150  0.0710 -0.0260
    1DPPC   NC312949  15.178  14.996   2.548 -0.1115  0.0491 -0.2665
    1DPPC   PO412950  14.917  15.320   2.439  0.1033 -0.3071  0.0172
    1DPPC   GL112951  15.057  15.325   2.942  0.1307 -0.0519  0.3722
    1DPPC   GL212952  15.345  15.444   2.919 -0.1406  0.0027 -0.1340
    1DPPC   C1A12953  14.873  15.267   3.415 -0.0706  0.0087  0.0156
    1DPPC   C2A12954  14.972  15.141   3.856  0.2210 -0.0996  0.0427
    1DPPC   C3A12955  14.862  15.045   4.280  0.0482  0.1292 -0.0112
    1DPPC   C4A12956  15.051  14.887   4.665 -0.1380  0.0071  0.1086
    1DPPC   C1B12957  15.335  15.513   3.391  0.2450 -0.2840  0.0876
    1DPPC   C2B12958  15.372  15.391   3.781  0.0242 -0.1145 -0.0720
    1DPPC   C3B12959  15.414  15.331   4.224  0.2950 -0.1744  0.1052
    1DPPC   C4B12960  15.196  15.328   4.601  0.1342  0.5027  0.1064
    1DPPC   NC312961  13.307  20.233   2.907  0.2022 -0.6086  0.2256
    1DPPC   PO412962  13.744  20.434   3.045 -0.1789  0.2405  0.2000
    1DPPC   GL112963  13.575  20.425   3.404 -0.0356  0.1919  0.2509
    1DPPC   GL212964  13.350  20.147   3.431 -0.1234 -0.0583  0.2078
    1DPPC   C1A12965  13.582  20.680   3.866 -0.0309  0.0605  0.0461
    1DPPC   C2A12966  13.527  20.815   4.336  0.1071  0.2071 -0.1236
    1DPPC   C3A12967  13.634  20.862   4.721  0.0363 -0.0966  0.0974
    1DPPC   C4A12968  13.521  21.143   4.973  0.2324  0.0962  0.3356
    1DPPC   C1B12969  13.254  20.334   3.813  0.0630  0.3948 -0.2294
    1DPPC   C2B12970  13.150  20.340   4.194 -0.0649 -0.1599 -0.0981
    1DPPC   C3B12971  13.066  20.558   4.503  0.2159  0.0229  0.0237
    1DPPC   C4B12972  13.245  20.679   4.929 -0.1130  0.1000 -0.0871
    1DPPC   NC312973  12.603  17.546   2.886  0.0058 -0.0597  0.0191
    1DPPC   PO412974  12.235  17.786   2.907 -0.0195 -0.0235  0.0496
    1DPPC   GL112975  12.049  17.793   3.205  0.0605  0.1548  0.1403
    1DPPC   GL212976  12.039  18.182   3.212 -0.2013  0.2449  0.1883
    1DPPC   C1A12977  12.076  17.661   3.718 -0.0211  0.0255  0.1886
    1DPPC   C2A12978  11.981  17.652   4.273  0.0060  0.0459 -0.1382
    1DPPC   C3A12979  12.117  17.750   4.674 -0.1413  0.0997 -0.0913
    1DPPC   C4A12980  12.193  17.750   5.161  0.2236 -0.0492  0.1647
    1DPPC   C1B12981  12.204  18.138   3.596 -0.0763  0.3483 -0.2407
    1DPPC   C2B12982  12.144  18.065   4.073  0.0310 -0.1554  0.0022
    1DPPC   C3B12983  11.906  18.147   4.410  0.0579 -0.0101  0.1865
    1DPPC   C4B12984  11.732  18.080   4.835 -0.0632  0.0096  0.2569
    1DPPC   NC312985  10.033  14.143   2.831  0.4687  0.0720  0.3784
    1DPPC   PO412986   9.794  14.480   2.860  0.0600 -0.1746 -0.3766
    1DPPC   GL112987   9.755  14.318   3.238 -0.0178 -0.1981 -0.1738
    1DPPC   GL212988   9.904  14.034   3.307  0.0228 -0.1540  0.1439
    1DPPC   C1A12989   9.483  14.482   3.541  0.0797  0.1378 -0.0584
    1DPPC   C2A12990   9.594  14.579   3.963 -0.1378 -0.0595 -0.0096
    1DPPC   C3A12991   9.277  14.519   4.248 -0.2342  0.1683  0.1590
    1DPPC   C4A12992   8.795  14.481   4.291  0.0142 -0.0980 -0.0175
    1DPPC   C1B12993   9.804  14.034   3.666 -0.0597 -0.0371 -0.1018
    1DPPC   C2B12994   9.601  14.038   3.976 -0.1543  0.0448  0.1791
    1DPPC   C3B12995   9.423  14.032   4.381  0.1467 -0.3839 -0.1784
    1DPPC   C4B12996   9.099  14.173   4.635  0.1645  0.1302 -0.0245
    1DPPC   NC312997  20.695  15.885   2.879 -0.0670  0.3258  0.1779
    1DPPC   PO412998  20.814  15.418   2.808  0.3387 -0.1803 -0.0406
    1DPPC   GL112999  20.692  15.219   3.279  0.2383  0.0650  0.2747
    1DPPC   GL213000  20.510  14.852   3.207 -0.0400  0.1662 -0.1568
    1DPPC   C1A13001  20.832  14.922   3.566 -0.0646 -0.0267  0.2660
    1DPPC   C2A13002  20.876  14.992   3.893 -0.3827 -0.1100  0.2759
    1DPPC   C3A13003  20.906  14.961   4.345  0.2650  0.2623 -0.0126
    1DPPC   C4A13004  20.820  14.702   4.760  0.0638 -0.0457  0.0535
    1DPPC   C1B13005  20.500  14.528   3.512 -0.2427  0.3089 -0.1142
    1DPPC   C2B13006  20.564  14.446   3.935  0.2593  0.0649 -0.2309
    1DPPC   C3B13007  20.601  14.514   4.348 -0.0528  0.0592 -0.4445
    1DPPC   C4B13008  20.357  14.630   4.730  0.2227 -0.1588 -0.0013
    1DPPC   NC313009  17.968  17.241   2.829 -0.0270  0.4197  0.0708
    1DPPC   PO413010  18.054  16.817   3.028 -0.2843 -0.2088 -0.3918
    1DPPC   GL113011  18.075  16.671   3.480 -0.1146  0.0472  0.2680
    1DPPC   GL213012  18.070  16.275   3.691 -0.0146 -0.0628 -0.0522
    1DPPC   C1A13013  17.950  16.734   3.876 -0.0144  0.1579  0.2427
    1DPPC   C2A13014  17.970  16.834   4.373  0.2135  0.0599  0.2719
    1DPPC   C3A13015  18.118  16.831   4.758  0.0142  0.0035 -0.0562
    1DPPC   C4A13016  18.033  16.901   5.230  0.2170  0.0851 -0.2468
    1DPPC   C1B13017  18.017  16.324   4.114  0.0363 -0.1630 -0.0689
    1DPPC   C2B13018  18.080  16.343   4.601 -0.0301  0.0166  0.1875
    1DPPC   C3B13019  17.937  16.465   5.050  0.2149 -0.0487  0.1826
    1DPPC   C4B13020  17.668  16.305   5.405 -0.0336  0.0322  0.0786
    1DPPC   NC313021  20.201  16.635   2.958 -0.1375 -0.1000 -0.1471
    1DPPC   PO413022  20.376  16.304   2.895 -0.0534 -0.1963  0.0884
    1DPPC   GL113023  20.435  16.069   3.279 -0.1381 -0.1732  0.1670
    1DPPC   GL213024  20.530  15.683   3.311  0.3876 -0.0990 -0.0741
    1DPPC   C1A13025  20.458  16.033   3.688 -0.1108 -0.1894  0.3408
    1DPPC   C2A13026  20.432  15.870   4.128  0.1995 -0.1113 -0.4484
    1DPPC   C3A13027  20.637  15.795   4.459  0.0462 -0.0060 -0.1796
    1DPPC   C4A13028  20.669  15.682   4.894 -0.0890 -0.0001 -0.0951
    1DPPC   C1B13029  20.499  15.513   3.744  0.1206  0.1513 -0.0934
    1DPPC   C2B13030  20.745  15.425   4.110 -0.3436  0.1537  0.0418
    1DPPC   C3B13031  21.049  15.405   4.504  0.0899  0.0500  0.0803
    1DPPC   C4B13032  21.450  15.289   4.689 -0.0386 -0.2278 -0.1073
    1DPPC   NC313033  14.950  16.867   2.875  0.1843 -0.2397  0.1954
    1DPPC   PO413034  14.589  16.960   2.652  0.2776  0.0168 -0.3488
    1DPPC   GL113035  14.458  16.838   3.091  0.0163 -0.0890 -0.0822
    1DPPC   GL213036  14.118  16.804   3.152  0.2488 -0.0264 -0.3324
    1DPPC   C1A13037  14.600  16.701   3.466 -0.0581 -0.0806 -0.0227
    1DPPC   C2A13038  14.555  16.586   3.859 -0.3659  0.1743  0.0145
    1DPPC   C3A13039  14.613  16.502   4.279  0.0193  0.0432  0.0530
    1DPPC   C4A13040  14.552  16.377   4.635 -0.0369  0.0349 -0.1819
    1DPPC   C1B13041  13.870  16.928   3.613  0.0081  0.1110  0.1336
    1DPPC   C2B13042  13.691  16.963   3.964 -0.0830 -0.0868  0.0159
    1DPPC   C3B13043  13.786  16.903   4.375  0.1521  0.1986  0.1919
    1DPPC   C4B13044  13.824  16.925   4.790  0.0933 -0.2358 -0.0436
    1DPPC   NC313045  20.311  11.083   2.571 -0.0875 -0.3136 -0.1648
    1DPPC   PO413046  20.526  11.164   2.963 -0.0847 -0.2594  0.1310
    1DPPC   GL113047  20.529  11.188   3.370 -0.2787  0.2746 -0.0474
    1DPPC   GL213048  20.649  11.414   3.625  0.0332  0.1177  0.0014
    1DPPC   C1A13049  20.452  10.905   3.797  0.1833 -0.1148  0.1924
    1DPPC   C2A13050  20.273  10.952   4.199  0.1080  0.3980  0.1334
    1DPPC   C3A13051  20.267  11.161   4.535 -0.2240  0.2418  0.1814
    1DPPC   C4A13052  20.589  11.225   4.866 -0.1388 -0.1247  0.2230
    1DPPC   C1B13053  21.032  11.604   3.857  0.0671  0.0884 -0.0679
    1DPPC   C2B13054  21.150  11.674   4.345  0.0881 -0.2231  0.0097
    1DPPC   C3B13055  21.141  11.746   4.788 -0.3024  0.1729 -0.0800
    1DPPC   C4B13056  21.304  11.551   5.218  0.0109 -0.0852 -0.1655
    1DPPC   NC313057  14.303   6.893   3.965 -0.0867 -0.0186  0.0149
    1DPPC   PO413058  14.221   6.429   3.793 -0.0603 -0.4672  0.1674
    1DPPC   GL113059  13.998   6.412   4.082  0.1777 -0.1558 -0.0785
    1DPPC   GL213060  13.725   6.658   4.092 -0.0195 -0.2644 -0.3244
    1DPPC   C1A13061  14.002   6.336   4.454  0.2083  0.1235 -0.2478
    1DPPC   C2A13062  14.011   6.488   4.883  0.0020  0.2029 -0.2179
    1DPPC   C3A13063  14.204   6.686   5.362 -0.0656  0.1470  0.3680
    1DPPC   C4A13064  14.275   6.851   5.775 -0.0803 -0.0290 -0.1582
    1DPPC   C1B13065  13.871   6.815   4.515  0.0214  0.2537 -0.0196
    1DPPC   C2B13066  14.052   6.950   4.898  0.0080  0.1689 -0.1002
    1DPPC   C3B13067  14.073   7.145   5.270 -0.0850 -0.0076  0.0529
    1DPPC   C4B13068  14.220   7.348   5.679  0.0382 -0.1345  0.0957
    1DPPC   NC313069  10.223  19.263   2.623 -0.0118  0.0428 -0.1171
    1DPPC   PO413070  10.030  18.990   2.841  0.1478  0.1399 -0.3322
    1DPPC   GL113071  10.056  19.017   3.234 -0.0486  0.0624 -0.0396
    1DPPC   GL213072  10.385  18.951   3.358 -0.0221  0.0992 -0.0373
    1DPPC   C1A13073   9.882  19.068   3.536  0.0083  0.2394 -0.0215
    1DPPC   C2A13074   9.700  19.025   3.952  0.0108 -0.1103 -0.3039
    1DPPC   C3A13075   9.196  19.150   3.918  0.1989  0.1556  0.2490
    1DPPC   C4A13076   9.186  19.463   3.553  0.0774  0.1437 -0.1792
    1DPPC   C1B13077  10.599  18.921   3.747 -0.0583 -0.2993  0.2540
    1DPPC   C2B13078  10.807  18.784   4.164  0.1568 -0.0091  0.0111
    1DPPC   C3B13079  10.785  18.625   4.601  0.0422 -0.0867 -0.1067
    1DPPC   C4B13080  10.999  18.492   4.882 -0.0994 -0.0885 -0.0158
    1DPPC   NC313081  24.222  17.235   2.331  0.0901 -0.1037  0.1688
    1DPPC   PO413082  24.160  17.451   2.752 -0.0381 -0.1331  0.0421
    1DPPC   GL113083  24.138  17.296   3.175 -0.0953  0.3214 -0.0861
    1DPPC   GL213084  23.862  17.354   3.338 -0.2077 -0.0718 -0.1619
    1DPPC   C1A13085  24.271  17.449   3.564  0.0380 -0.0478  0.1106
    1DPPC   C2A13086  24.364  17.413   3.956  0.2179 -0.1277  0.0454
    1DPPC   C3A13087  24.261  16.995   4.180 -0.0464 -0.0139  0.1662
    1DPPC   C4A13088  24.248  16.699   4.623  0.1417  0.0890  0.2341
    1DPPC   C1B13089  23.877  17.783   3.421 -0.0291 -0.0481  0.1934
    1DPPC   C2B13090  23.847  18.122   3.770 -0.0218  0.0537 -0.0011
    1DPPC   C3B13091  24.050  18.251   4.149  0.1827 -0.0250  0.0823
    1DPPC   C4B13092  23.807  17.964   4.435 -0.0600  0.0068  0.1310
    1DPPC   NC313093  16.406  18.492   2.685  0.0494  0.0314  0.1665
    1DPPC   PO413094  16.686  18.390   3.078  0.1149 -0.0516 -0.0854
    1DPPC   GL113095  16.447  18.333   3.519  0.0768  0.1969  0.0876
    1DPPC   GL213096  16.532  17.986   3.707 -0.0250  0.0168  0.1122
    1DPPC   C1A13097  16.157  18.382   3.889 -0.0521 -0.0761 -0.0169
    1DPPC   C2A13098  16.182  18.310   4.260 -0.3118  0.1055 -0.4255
    1DPPC   C3A13099  16.144  18.511   4.562  0.0174 -0.0590  0.0487
    1DPPC   C4A13100  15.984  18.865   4.797 -0.0775  0.4183 -0.2899
    1DPPC   C1B13101  16.531  17.957   4.165  0.2686  0.0603 -0.0831
    1DPPC   C2B13102  16.519  17.805   4.604  0.0868 -0.1146 -0.1859
    1DPPC   C3B13103  16.587  17.786   5.053  0.0068  0.0660 -0.0341
    1DPPC   C4B13104  16.667  17.715   5.445 -0.1445 -0.2483 -0.0150
    1DPPC   NC313105  14.530  10.992   2.803 -0.0614 -0.3957  0.1066
    1DPPC   PO413106  14.288  10.711   3.084 -0.0326 -0.1866 -0.2564
    1DPPC   GL113107  14.246  10.794   3.533  0.0524 -0.1517 -0.2511
    1DPPC   GL213108  14.588  10.734   3.589  0.1859  0.2846 -0.1118
    1DPPC   C1A13109  14.314  10.806   4.062  0.0056 -0.2904  0.0060
    1DPPC   C2A13110  14.365  10.712   4.496 -0.1632  0.0752 -0.2987
    1DPPC   C3A13111  14.343  10.645   4.885 -0.0562  0.1030 -0.1877
    1DPPC   C4A13112  14.501  10.750   5.216  0.1306  0.1008  0.1460
    1DPPC   C1B13113  14.748  10.443   3.950  0.1361  0.2216 -0.0997
    1DPPC   C2B13114  14.828  10.247   4.366  0.0604  0.1823 -0.2140
    1DPPC   C3B13115  14.817  10.464   4.777  0.1207 -0.4193  0.0117
    1DPPC   C4B13116  14.956  10.515   5.174  0.0150 -0.1845 -0.5648
    1DPPC   NC313117  19.623  14.844   2.267 -0.1405 -0.0532 -0.1880
    1DPPC   PO413118  19.748  14.541   2.604  0.1859 -0.0680 -0.2320
    1DPPC   GL113119  19.833  14.535   3.136 -0.2119 -0.0163 -0.1406
    1DPPC   GL213120  20.074  14.653   3.321  0.0619  0.1360  0.1455
    1DPPC   C1A13121  19.618  14.707   3.462 -0.1276  0.2050  0.1339
    1DPPC   C2A13122  19.576  14.815   3.930 -0.1018  0.1992  0.0252
    1DPPC   C3A13123  19.795  14.691   4.352  0.4256 -0.0910  0.1734
    1DPPC   C4A13124  19.896  14.638   4.840 -0.1335  0.4311 -0.3089
    1DPPC   C1B13125  19.988  14.556   3.757 -0.1016 -0.1676  0.0813
    1DPPC   C2B13126  20.122  14.457   4.149 -0.1146 -0.1341  0.2843
    1DPPC   C3B13127  20.242  14.155   4.481  0.1739  0.0275 -0.0498
    1DPPC   C4B13128  20.213  14.115   4.878  0.4890  0.3811 -0.0505
    1DPPC   NC313129  18.415  12.421   2.584  0.0073 -0.0171 -0.3140
    1DPPC   PO413130  18.648  12.301   2.925  0.0709 -0.1609  0.1117
    1DPPC   GL113131  18.411  11.994   3.236 -0.3591  0.1458 -0.3884
    1DPPC   GL213132  18.713  11.840   3.438 -0.0057  0.1147 -0.1583
    1DPPC   C1A13133  18.236  11.932   3.635  0.1836  0.1201  0.0920
    1DPPC   C2A13134  18.255  11.896   4.113 -0.2557 -0.1676 -0.0987
    1DPPC   C3A13135  18.526  11.821   4.434 -0.1261 -0.2934 -0.2972
    1DPPC   C4A13136  18.742  11.727   4.799 -0.0973  0.0482 -0.1469
    1DPPC   C1B13137  18.892  11.765   3.865 -0.0612 -0.1594  0.0251
    1DPPC   C2B13138  18.842  11.568   4.247 -0.1690 -0.0180  0.1234
    1DPPC   C3B13139  18.943  11.292   4.517 -0.0252  0.1327 -0.0233
    1DPPC   C4B13140  19.161  10.939   4.607 -0.0123 -0.2544 -0.1097
    1DPPC   NC313141   9.044   9.397   3.212  0.0071  0.1908 -0.1219
    1DPPC   PO413142   8.766   9.452   3.578 -0.0843 -0.1250  0.1843
    1DPPC   GL113143   8.847   9.675   3.885 -0.0179  0.1733 -0.3092
    1DPPC   GL213144   8.558   9.841   4.209 -0.1716 -0.0989 -0.1862
    1DPPC   C1A13145   9.036   9.662   4.301  0.1511 -0.0525 -0.0837
    1DPPC   C2A13146   8.972   9.692   4.790 -0.2486  0.1413 -0.0505
    1DPPC   C3A13147   8.876   9.486   5.160 -0.1177  0.1388 -0.0367
    1DPPC   C4A13148   8.553   9.407   5.531  0.1591 -0.0531  0.0342
    1DPPC   C1B13149   8.580   9.954   4.661 -0.0120 -0.0051  0.0642
    1DPPC   C2B13150   8.614  10.282   4.984  0.0185  0.2149 -0.1076
    1DPPC   C3B13151   8.708  10.467   5.387 -0.0312  0.0769  0.2574
    1DPPC   C4B13152   8.708  10.913   5.598 -0.4203  0.0219  0.0378
    1DPPC   NC313153  17.841   8.671   2.655  0.0888 -0.4757 -0.1524
    1DPPC   PO413154  18.298   8.741   2.723 -0.0474  0.0339  0.2482
    1DPPC   GL113155  18.043   8.820   3.067  0.0076  0.0564 -0.2826
    1DPPC   GL213156  17.729   8.640   3.177  0.0603  0.1971  0.1316
    1DPPC   C1A13157  18.071   9.033   3.462 -0.3874  0.1784 -0.2046
    1DPPC   C2A13158  18.119   8.924   3.901  0.1653 -0.0032  0.0102
    1DPPC   C3A13159  17.864   9.001   4.347  0.0956 -0.0448  0.3289
    1DPPC   C4A13160  17.823   8.887   4.812 -0.1807  0.2717 -0.2639
    1DPPC   C1B13161  17.916   8.570   3.590  0.1828 -0.1596  0.0316
    1DPPC   C2B13162  17.929   8.390   3.941  0.1071  0.0035  0.0557
    1DPPC   C3B13163  17.981   8.480   4.379  0.0773  0.1196 -0.0922
    1DPPC   C4B13164  18.175   8.466   4.816  0.0675  0.0069  0.0646
    1DPPC   NC313165  19.148  14.432   2.846  0.1423  0.2595 -0.2380
    1DPPC   PO413166  19.573  14.174   2.912 -0.1060  0.0041 -0.1873
    1DPPC   GL113167  19.411  14.188   3.263 -0.4252 -0.0486 -0.1022
    1DPPC   GL213168  19.147  14.006   3.150  0.0404 -0.2456 -0.2745
    1DPPC   C1A13169  19.280  14.468   3.694 -0.1146  0.1678 -0.1217
    1DPPC   C2A13170  19.204  14.558   4.113 -0.0659  0.0250  0.1543
    1DPPC   C3A13171  19.367  14.563   4.527 -0.1056  0.0614  0.0883
    1DPPC   C4A13172  19.474  14.619   4.978 -0.0620 -0.1051  0.0226
    1DPPC   C1B13173  19.013  14.061   3.576  0.3616 -0.3017 -0.0367
    1DPPC   C2B13174  19.074  14.081   3.934 -0.2706  0.1940 -0.0930
    1DPPC   C3B13175  19.134  13.984   4.297  0.0428 -0.0027  0.0696
    1DPPC   C4B13176  19.199  14.087   4.720 -0.1136  0.0634  0.2261
    1DPPC   NC313177  14.534  15.663   2.357  0.0644  0.2275  0.1484
    1DPPC   PO413178  14.410  16.016   2.547 -0.1771 -0.0538  0.2396
    1DPPC   GL113179  14.635  16.100   2.993  0.1410 -0.0977  0.1798
    1DPPC   GL213180  14.766  16.460   3.046 -0.2007 -0.0583 -0.2563
    1DPPC   C1A13181  14.336  16.329   3.335 -0.0599 -0.0473  0.1847
    1DPPC   C2A13182  14.098  16.497   3.631 -0.3159  0.0124 -0.2629
    1DPPC   C3A13183  14.062  16.559   4.093 -0.2837  0.1112  0.2224
    1DPPC   C4A13184  14.081  16.435   4.388  0.0409 -0.2961  0.1066
    1DPPC   C1B13185  14.815  16.187   3.440 -0.3169 -0.2451 -0.0716
    1DPPC   C2B13186  14.881  16.206   3.931 -0.0094 -0.0121  0.1665
    1DPPC   C3B13187  14.884  16.121   4.367 -0.1174 -0.0653  0.0634
    1DPPC   C4B13188  14.896  16.050   4.846 -0.0265  0.0807  0.2099
    1DPPC   NC313189   8.486  25.665   2.591 -0.0616  0.0801 -0.0409
    1DPPC   PO413190   8.448  25.274   2.630  0.1379 -0.0346  0.0598
    1DPPC   GL113191   8.373  25.298   3.046 -0.0267 -0.0920  0.1385
    1DPPC   GL213192   8.471  25.673   3.155 -0.1495  0.0779 -0.1200
    1DPPC   C1A13193   8.286  25.273   3.522 -0.1892 -0.0258 -0.0603
    1DPPC   C2A13194   8.329  24.969   3.824  0.0501  0.1746 -0.0023
    1DPPC   C3A13195   8.274  24.974   4.267  0.1120  0.0358 -0.0169
    1DPPC   C4A13196   8.021  24.922   4.587 -0.0827 -0.2095 -0.0419
    1DPPC   C1B13197   8.727  25.308   3.368 -0.1737 -0.2468 -0.3323
    1DPPC   C2B13198   8.836  25.043   3.760 -0.3364 -0.1551  0.1303
    1DPPC   C3B13199   9.258  24.875   3.747 -0.1690 -0.0330  0.1413
    1DPPC   C4B13200   9.694  25.045   3.713  0.2704 -0.1890 -0.3622
    1DPPC   NC313201  14.299  13.895   2.572  0.0613  0.0041 -0.2476
    1DPPC   PO413202  14.632  14.029   2.782 -0.1503  0.0566  0.0439
    1DPPC   GL113203  14.578  14.050   3.222  0.3681  0.0498  0.0858
    1DPPC   GL213204  14.233  13.988   3.221 -0.2448  0.0116 -0.1579
    1DPPC   C1A13205  14.514  14.355   3.575 -0.2415 -0.1360 -0.0555
    1DPPC   C2A13206  14.535  14.339   4.015  0.3848  0.2226  0.0874
    1DPPC   C3A13207  14.549  14.224   4.522 -0.1990 -0.0271 -0.0684
    1DPPC   C4A13208  14.215  14.072   4.808 -0.2526 -0.1391  0.1189
    1DPPC   C1B13209  13.999  13.883   3.628  0.1268 -0.0674 -0.1499
    1DPPC   C2B13210  13.941  13.767   4.006  0.0753 -0.0137 -0.2996
    1DPPC   C3B13211  13.944  13.760   4.441 -0.1633  0.2340  0.2325
    1DPPC   C4B13212  13.863  13.569   4.828 -0.0210  0.1839  0.0414
    1DPPC   NC313213   4.133  13.882   3.032  0.1089 -0.3192  0.1269
    1DPPC   PO413214   4.575  14.132   3.016  0.0324  0.0684  0.1438
    1DPPC   GL113215   4.330  14.310   3.166 -0.2260 -0.0260 -0.0167
    1DPPC   GL213216   4.398  14.150   3.497  0.2865 -0.0377 -0.1002
    1DPPC   C1A13217   4.071  14.490   3.373 -0.0589 -0.1717  0.0783
    1DPPC   C2A13218   3.804  14.657   3.646 -0.3147  0.2539  0.1310
    1DPPC   C3A13219   3.519  15.056   3.625  0.0349 -0.0510  0.0431
    1DPPC   C4A13220   3.421  15.484   3.829 -0.0080 -0.0300  0.0417
    1DPPC   C1B13221   4.610  14.175   3.846  0.0960 -0.3111 -0.1902
    1DPPC   C2B13222   4.789  14.466   4.218  0.1075  0.0968 -0.0760
    1DPPC   C3B13223   4.483  14.783   4.366 -0.5415 -0.0016  0.1301
    1DPPC   C4B13224   4.309  15.198   4.590 -0.3159 -0.1689  0.0352
    1DPPC   NC313225  19.223  19.451   3.325  0.3536 -0.0535 -0.1539
    1DPPC   PO413226  19.626  19.170   3.469  0.0182  0.2012  0.2077
    1DPPC   GL113227  19.942  19.232   3.739  0.1545 -0.0232  0.0585
    1DPPC   GL213228  19.909  19.527   3.974 -0.0755 -0.1165 -0.2280
    1DPPC   C1A13229  20.003  18.922   4.113 -0.0206  0.0456  0.1272
    1DPPC   C2A13230  20.007  18.954   4.499 -0.1649 -0.0948  0.1650
    1DPPC   C3A13231  19.987  18.996   4.888 -0.0069 -0.2230 -0.1249
    1DPPC   C4A13232  20.256  19.157   5.274  0.0167 -0.0716 -0.2222
    1DPPC   C1B13233  19.861  19.385   4.386 -0.1648  0.1590  0.1308
    1DPPC   C2B13234  19.586  19.319   4.641  0.0661  0.4520 -0.2029
    1DPPC   C3B13235  19.639  19.317   5.054 -0.1726 -0.1260  0.0578
    1DPPC   C4B13236  19.651  19.394   5.545  0.4223 -0.1634 -0.1628
    1DPPC   NC313237   9.889  15.769   2.747 -0.0230 -0.1274 -0.0062
    1DPPC   PO413238   9.718  15.324   2.732  0.0905  0.0873  0.3720
    1DPPC   GL113239   9.690  15.188   3.159  0.4816  0.0748 -0.1567
    1DPPC   GL213240   9.756  14.861   3.310 -0.4219 -0.1221  0.1560
    1DPPC   C1A13241   9.874  15.394   3.569 -0.0985 -0.1531  0.4316
    1DPPC   C2A13242   9.769  15.485   3.920 -0.0444 -0.0830 -0.1205
    1DPPC   C3A13243   9.765  15.364   4.270  0.0232  0.0884 -0.1404
    1DPPC   C4A13244   9.851  15.141   4.645  0.1693  0.0360  0.1643
    1DPPC   C1B13245   9.498  15.057   3.642  0.0010  0.2656  0.0805
    1DPPC   C2B13246   9.424  15.020   4.108 -0.0011  0.2016  0.2811
    1DPPC   C3B13247   9.226  15.023   4.429 -0.0397 -0.1636 -0.0406
    1DPPC   C4B13248   8.996  14.858   4.714 -0.0041 -0.4150  0.1778
    1DPPC   NC313249   8.814  11.283   3.049  0.1620  0.0854  0.1380
    1DPPC   PO413250   8.977  10.940   3.100 -0.0953  0.0230  0.0801
    1DPPC   GL113251   9.223  11.124   3.364  0.0441 -0.2457 -0.4653
    1DPPC   GL213252   9.213  10.929   3.677 -0.0372 -0.0695  0.2023
    1DPPC   C1A13253   9.437  11.426   3.797 -0.4933  0.1425 -0.0552
    1DPPC   C2A13254   9.558  11.429   4.263  0.5269  0.0355  0.1510
    1DPPC   C3A13255   9.621  11.685   4.555  0.1574 -0.1174  0.2304
    1DPPC   C4A13256   9.923  11.801   4.896 -0.2903  0.2625 -0.2551
    1DPPC   C1B13257   9.334  10.983   4.098 -0.3939 -0.2631  0.1614
    1DPPC   C2B13258   9.411  11.012   4.550 -0.2200 -0.0990  0.0561
    1DPPC   C3B13259   9.699  11.198   4.731 -0.0669  0.1336  0.0483
    1DPPC   C4B13260   9.790  11.276   5.049  0.1394  0.1319  0.1104
    1DPPC   NC313261  16.573  11.093   2.577  0.2838 -0.0465 -0.4138
    1DPPC   PO413262  16.276  11.130   2.955  0.1467  0.1573  0.1763
    1DPPC   GL113263  16.586  11.277   3.224  0.1699 -0.0304 -0.0558
    1DPPC   GL213264  16.616  10.932   3.322  0.1222  0.1927  0.0233
    1DPPC   C1A13265  16.640  11.480   3.599  0.0453 -0.0170 -0.1175
    1DPPC   C2A13266  16.545  11.357   3.984  0.2773  0.0526 -0.1813
    1DPPC   C3A13267  16.405  11.104   4.326 -0.1584  0.2608  0.2275
    1DPPC   C4A13268  16.243  11.034   4.805 -0.0010  0.0115  0.0285
    1DPPC   C1B13269  16.375  10.947   3.713 -0.0336  0.1079  0.4063
    1DPPC   C2B13270  16.287  10.654   4.109 -0.2078  0.0532  0.2974
    1DPPC   C3B13271  16.186  10.495   4.620  0.4326  0.0591 -0.3988
    1DPPC   C4B13272  16.140  10.533   5.033 -0.0960  0.0901  0.4582
    1DPPC   NC313273  23.065  11.497   2.829  0.0638 -0.0238  0.2157
    1DPPC   PO413274  22.870  11.771   3.187  0.0518 -0.0381 -0.2743
    1DPPC   GL113275  23.129  11.743   3.597  0.0856 -0.1279  0.1700
    1DPPC   GL213276  23.091  12.130   3.488 -0.2318  0.0108 -0.0827
    1DPPC   C1A13277  23.306  11.908   3.961  0.4514 -0.0002 -0.1051
    1DPPC   C2A13278  23.281  12.161   4.289  0.0152  0.0054 -0.3300
    1DPPC   C3A13279  23.375  12.209   4.737 -0.1134 -0.4517  0.0975
    1DPPC   C4A13280  23.590  12.403   5.118 -0.1832  0.1924 -0.1581
    1DPPC   C1B13281  22.912  12.337   3.830  0.1173 -0.1930 -0.0340
    1DPPC   C2B13282  22.924  12.576   4.193 -0.1179 -0.0147 -0.2845
    1DPPC   C3B13283  23.044  12.508   4.568 -0.0112  0.2220 -0.0495
    1DPPC   C4B13284  23.095  12.764   5.003  0.0606  0.2522 -0.0732
    1DPPC   NC313285   9.397   8.202   2.752  0.0650  0.1827  0.0719
    1DPPC   PO413286   9.392   7.992   3.221 -0.2011 -0.1058  0.3097
    1DPPC   GL113287   9.223   8.032   3.658 -0.2820  0.0474  0.0337
    1DPPC   GL213288   8.942   8.242   3.529 -0.2209 -0.1591 -0.0544
    1DPPC   C1A13289   9.149   7.920   4.003 -0.3603 -0.0454 -0.0866
    1DPPC   C2A13290   9.016   7.995   4.326 -0.0659  0.0331 -0.0977
    1DPPC   C3A13291   8.777   7.933   4.633 -0.1064 -0.1148 -0.0921
    1DPPC   C4A13292   8.626   7.958   5.160  0.2574  0.2905  0.0935
    1DPPC   C1B13293   8.720   8.190   3.897 -0.1130  0.0245  0.1054
    1DPPC   C2B13294   8.567   7.821   4.129  0.1897  0.0083  0.1406
    1DPPC   C3B13295   8.479   7.496   4.482  0.0235 -0.0763 -0.2195
    1DPPC   C4B13296   8.493   7.063   4.673 -0.1801 -0.2025  0.1020
    1DPPC   NC313297  10.093   9.045   3.248 -0.2694 -0.0351  0.0382
    1DPPC   PO413298  10.479   9.260   3.515  0.0314 -0.0231 -0.1137
    1DPPC   GL113299  10.480   9.446   3.863 -0.1399  0.0113  0.2315
    1DPPC   GL213300  10.567   9.692   3.867  0.0218  0.3477 -0.1474
    1DPPC   C1A13301  10.406   9.402   4.255  0.1732  0.2428 -0.3314
    1DPPC   C2A13302  10.383   9.358   4.652  0.0275  0.0369  0.0245
    1DPPC   C3A13303  10.340   9.463   4.981 -0.0078 -0.2024  0.3395
    1DPPC   C4A13304  10.222   9.579   5.426  0.1506  0.1393  0.3284
    1DPPC   C1B13305  10.515   9.877   4.256  0.2428  0.0809  0.0390
    1DPPC   C2B13306  10.465   9.896   4.673 -0.0751  0.2644 -0.0357
    1DPPC   C3B13307  10.389  10.039   5.142 -0.0013 -0.2463  0.2870
    1DPPC   C4B13308  10.370  10.010   5.515  0.0390 -0.2133 -0.0940
    1DPPC   NC313309  11.763   8.702   3.386 -0.2257  0.1231 -0.1755
    1DPPC   PO413310  11.335   8.810   3.139  0.1500  0.2376  0.2016
    1DPPC   GL113311  11.259   8.565   3.492 -0.1627  0.1182 -0.1098
    1DPPC   GL213312  11.170   8.300   3.554  0.1441 -0.1960  0.1558
    1DPPC   C1A13313  11.298   8.842   3.877  0.2132 -0.0067  0.0326
    1DPPC   C2A13314  11.264   8.646   4.308  0.1268 -0.0327  0.1277
    1DPPC   C3A13315  11.278   8.689   4.707  0.0080  0.0005  0.1140
    1DPPC   C4A13316  11.144   8.758   5.062  0.0628 -0.1492 -0.1559
    1DPPC   C1B13317  11.396   7.944   3.904  0.2295  0.0636 -0.3320
    1DPPC   C2B13318  11.388   7.851   4.319 -0.0583 -0.2190 -0.1443
    1DPPC   C3B13319  11.335   7.732   4.660  0.0680  0.1740  0.0534
    1DPPC   C4B13320  11.214   7.590   5.053  0.1580 -0.0318 -0.0555
    1DPPC   NC313321  14.240  12.831   2.935  0.1687 -0.1317  0.0550
    1DPPC   PO413322  14.005  13.155   2.947  0.3581  0.0803  0.0829
    1DPPC   GL113323  14.107  13.202   3.334  0.2677 -0.0310  0.1307
    1DPPC   GL213324  14.048  13.508   3.334  0.1197  0.2017 -0.3475
    1DPPC   C1A13325  14.387  13.127   3.644 -0.1288 -0.0072 -0.2939
    1DPPC   C2A13326  14.339  13.092   4.066 -0.2414 -0.1219  0.3030
    1DPPC   C3A13327  14.373  13.138   4.457 -0.1849  0.2226  0.2338
    1DPPC   C4A13328  14.183  13.194   4.837 -0.2195 -0.0399 -0.1158
    1DPPC   C1B13329  13.874  13.314   3.741  0.1775  0.1502  0.1252
    1DPPC   C2B13330  13.943  13.310   4.200 -0.0385 -0.3864  0.0054
    1DPPC   C3B13331  13.702  13.203   4.559  0.2234  0.0549  0.0636
    1DPPC   C4B13332  13.568  12.962   4.850  0.1946 -0.1893 -0.0342
    1DPPC   NC313333  20.844  12.912   2.688  0.0988  0.1318 -0.0085
    1DPPC   PO413334  21.125  12.898   2.979 -0.1483 -0.2945 -0.0961
    1DPPC   GL113335  20.897  13.038   3.352  0.1497  0.0750  0.2450
    1DPPC   GL213336  20.996  13.345   3.584  0.1899 -0.0485  0.3540
    1DPPC   C1A13337  20.684  13.004   3.714  0.0022 -0.0805 -0.0202
    1DPPC   C2A13338  20.807  13.077   4.117 -0.0448 -0.0592 -0.0083
    1DPPC   C3A13339  20.896  12.923   4.503 -0.0508  0.0781 -0.1189
    1DPPC   C4A13340  20.889  12.912   4.927 -0.0509 -0.0901  0.1596
    1DPPC   C1B13341  20.943  13.587   3.943 -0.0363  0.2296 -0.0313
    1DPPC   C2B13342  21.192  13.727   4.348  0.1472  0.0234 -0.1039
    1DPPC   C3B13343  21.041  13.592   4.844  0.0025 -0.0181 -0.2206
    1DPPC   C4B13344  20.943  13.354   5.149 -0.2067  0.0412  0.0795
    1DPPC   NC313345  18.213  12.865   2.815  0.1451  0.2031  0.0999
    1DPPC   PO413346  18.071  13.372   2.810  0.2850 -0.0819  0.1792
    1DPPC   GL113347  17.804  13.499   3.080  0.3347 -0.0268 -0.0971
    1DPPC   GL213348  17.620  13.184   3.356  0.0055 -0.0074  0.0837
    1DPPC   C1A13349  17.906  13.599   3.469 -0.0305  0.0379 -0.0077
    1DPPC   C2A13350  17.896  13.670   3.837  0.1067 -0.0272  0.2528
    1DPPC   C3A13351  18.077  13.656   4.280  0.0027 -0.1158 -0.0403
    1DPPC   C4A13352  18.065  13.635   4.690  0.2577 -0.1714  0.0197
    1DPPC   C1B13353  17.733  13.186   3.780  0.0159 -0.2143  0.0976
    1DPPC   C2B13354  17.913  13.199   4.213  0.2645  0.0551 -0.0099
    1DPPC   C3B13355  17.868  13.242   4.567  0.3059 -0.1512  0.1642
    1DPPC   C4B13356  17.645  13.189   4.877 -0.1629  0.2686  0.0762
    1DPPC   NC313357  15.972  25.342   3.489  0.3248 -0.3204  0.0053
    1DPPC   PO413358  15.877  25.069   3.746  0.0409  0.1764  0.0141
    1DPPC   GL113359  15.796  25.118   4.075  0.1074 -0.0364 -0.1443
    1DPPC   GL213360  15.889  24.919   4.320 -0.0130 -0.1699  0.0220
    1DPPC   C1A13361  15.453  24.975   4.457  0.3002 -0.1056  0.1176
    1DPPC   C2A13362  15.125  24.802   4.633  0.0065 -0.1391 -0.4003
    1DPPC   C3A13363  14.997  24.459   4.846 -0.1339  0.2576 -0.1213
    1DPPC   C4A13364  14.708  24.418   5.148 -0.2779 -0.1517 -0.2168
    1DPPC   C1B13365  15.792  24.870   4.850 -0.2057 -0.0801  0.0819
    1DPPC   C2B13366  15.439  24.737   5.105 -0.4037 -0.4351 -0.1257
    1DPPC   C3B13367  15.145  24.611   5.382 -0.0243  0.1826 -0.2650
    1DPPC   C4B13368  14.929  24.244   5.574  0.0065  0.0035  0.0005
    1DPPC   NC313369  17.045  11.255   2.123 -0.2076 -0.1239  0.1928
    1DPPC   PO413370  17.121  11.199   2.550 -0.1060  0.0094 -0.1131
    1DPPC   GL113371  17.254  11.436   3.000 -0.1019  0.1163  0.1903
    1DPPC   GL213372  17.229  11.779   3.073 -0.2687 -0.0831 -0.3132
    1DPPC   C1A13373  17.469  11.365   3.342  0.1393  0.0854 -0.3294
    1DPPC   C2A13374  17.424  11.442   3.787  0.2066  0.1389  0.1337
    1DPPC   C3A13375  17.408  11.830   4.126  0.1265  0.2510 -0.1023
    1DPPC   C4A13376  17.344  11.890   4.505  0.1943  0.4662 -0.2231
    1DPPC   C1B13377  17.049  11.708   3.547 -0.0445  0.0281  0.0771
    1DPPC   C2B13378  16.967  11.542   3.976 -0.0001 -0.2183  0.2647
    1DPPC   C3B13379  16.972  11.427   4.390 -0.1951  0.2018  0.4411
    1DPPC   C4B13380  16.846  11.100   4.631 -0.1652 -0.1216 -0.0964
    1DPPC   NC313381   5.149  20.113   1.946 -0.0679  0.1287 -0.1868
    1DPPC   PO413382   5.023  19.690   2.226  0.0000  0.0048  0.0538
    1DPPC   GL113383   5.086  19.588   2.636 -0.1981 -0.0816  0.0234
    1DPPC   GL213384   5.196  19.244   2.574  0.3918 -0.3368 -0.1487
    1DPPC   C1A13385   4.927  19.726   2.973 -0.1130  0.2069 -0.1237
    1DPPC   C2A13386   5.010  19.878   3.361  0.1512  0.2371 -0.0720
    1DPPC   C3A13387   5.026  20.220   3.585 -0.1027  0.1240 -0.0799
    1DPPC   C4A13388   5.174  20.588   3.835  0.0245 -0.3025  0.0182
    1DPPC   C1B13389   4.995  19.176   3.004 -0.1326 -0.0324  0.2340
    1DPPC   C2B13390   4.626  19.154   3.050  0.1511  0.5412  0.2063
    1DPPC   C3B13391   4.433  19.124   3.469  0.1864  0.1129 -0.0899
    1DPPC   C4B13392   4.108  19.215   3.717  0.1447  0.1303 -0.1946
    1DPPC   NC313393  12.570  20.408   2.465  0.0440  0.3084  0.1335
    1DPPC   PO413394  12.921  20.543   2.768 -0.3715 -0.0013  0.1126
    1DPPC   GL113395  13.133  20.645   3.168  0.1011 -0.1060 -0.0377
    1DPPC   GL213396  12.883  20.394   3.356 -0.0034  0.0196 -0.2368
    1DPPC   C1A13397  13.136  20.791   3.644 -0.0790  0.0684 -0.3557
    1DPPC   C2A13398  13.098  20.819   4.084  0.0481 -0.1201  0.0112
    1DPPC   C3A13399  13.122  21.100   4.438 -0.0825 -0.0807  0.0256
    1DPPC   C4A13400  13.090  21.300   4.798 -0.2819  0.0671  0.0606
    1DPPC   C1B13401  12.790  20.466   3.759 -0.0195  0.0586 -0.2431
    1DPPC   C2B13402  12.652  20.522   4.186  0.1030  0.0710 -0.0919
    1DPPC   C3B13403  12.543  20.313   4.671 -0.2570  0.1154 -0.2114
    1DPPC   C4B13404  12.376  20.120   5.021 -0.2579  0.2074 -0.2999
    1DPPC   NC313405  18.882  17.247   2.972 -0.4071  0.0416  0.2094
    1DPPC   PO413406  19.229  17.431   3.209  0.2018  0.1593 -0.2209
    1DPPC   GL113407  19.406  17.710   3.605 -0.0957 -0.3927 -0.3941
    1DPPC   GL213408  19.662  17.670   3.674 -0.2488  0.2417 -0.1038
    1DPPC   C1A13409  19.254  17.784   3.956  0.1967 -0.0256  0.1407
    1DPPC   C2A13410  19.188  17.704   4.353  0.3360  0.1882 -0.0787
    1DPPC   C3A13411  19.256  17.741   4.776 -0.2541  0.4072 -0.0799
    1DPPC   C4A13412  19.125  17.780   5.097 -0.1092  0.2398 -0.0973
    1DPPC   C1B13413  19.613  17.530   4.094  0.0413  0.2309 -0.3528
    1DPPC   C2B13414  19.688  17.768   4.494 -0.0313 -0.2144 -0.2488
    1DPPC   C3B13415  19.981  17.945   4.821 -0.0370 -0.0357 -0.1157
    1DPPC   C4B13416  20.253  17.629   5.112  0.0525 -0.3197 -0.3005
    1DPPC   NC313417  13.813  13.704   2.922  0.0859  0.1997 -0.0913
    1DPPC   PO413418  13.599  14.031   2.722 -0.1782 -0.1793  0.0825
    1DPPC   GL113419  13.609  14.234   3.132 -0.0909  0.0783  0.3315
    1DPPC   GL213420  13.710  14.541   3.060 -0.1309  0.3244 -0.0909
    1DPPC   C1A13421  13.598  14.151   3.552  0.0571  0.1894 -0.1519
    1DPPC   C2A13422  13.627  14.169   3.962 -0.1403 -0.4299 -0.0438
    1DPPC   C3A13423  13.644  14.196   4.443 -0.1301 -0.1451  0.2166
    1DPPC   C4A13424  13.611  14.011   4.912 -0.0291  0.1102 -0.0488
    1DPPC   C1B13425  13.971  14.482   3.351  0.2454  0.3860  0.1726
    1DPPC   C2B13426  14.047  14.350   3.778  0.3049  0.0255 -0.1254
    1DPPC   C3B13427  14.105  14.277   4.256  0.0091  0.1968 -0.2958
    1DPPC   C4B13428  14.071  14.468   4.582  0.1973 -0.0662 -0.0877
    1DPPC   NC313429  12.863  16.138   2.497 -0.0632 -0.0441 -0.0647
    1DPPC   PO413430  12.621  15.955   2.873  0.2158  0.0227 -0.0420
    1DPPC   GL113431  12.655  15.630   3.089 -0.1762 -0.0994  0.2516
    1DPPC   GL213432  12.499  15.420   3.073 -0.2815 -0.0465 -0.1210
    1DPPC   C1A13433  12.866  15.499   3.548 -0.1029 -0.2270  0.1196
    1DPPC   C2A13434  13.032  15.604   3.865  0.0444 -0.0000  0.1696
    1DPPC   C3A13435  13.080  15.584   4.305 -0.0789 -0.0762 -0.0486
    1DPPC   C4A13436  13.122  15.619   4.734  0.2219 -0.0339  0.1412
    1DPPC   C1B13437  12.260  15.619   3.432  0.2345  0.0693  0.0383
    1DPPC   C2B13438  12.121  15.760   3.878  0.1196  0.0042  0.2611
    1DPPC   C3B13439  12.130  15.773   4.423  0.2489 -0.2008 -0.0047
    1DPPC   C4B13440  12.287  15.947   4.735 -0.3131  0.0453  0.1944
    1DPPC   NC313441  28.675  11.019   2.474  0.4191 -0.0668  0.0195
    1DPPC   PO413442  28.541  11.329   2.535 -0.4073  0.0859  0.1856
    1DPPC   GL113443  28.531  11.260   3.016  0.0796  0.0560  0.0468
    1DPPC   GL213444  28.767  11.314   3.058 -0.2197 -0.0190 -0.2118
    1DPPC   C1A13445  28.307  10.931   3.356  0.5185  0.2364  0.0138
    1DPPC   C2A13446  27.914  10.675   3.583 -0.2411 -0.5336 -0.1618
    1DPPC   C3A13447  27.569  10.825   3.774  0.1180  0.1390  0.2422
    1DPPC   C4A13448  27.441  10.957   4.127  0.0601  0.1861 -0.0334
    1DPPC   C1B13449  28.851  10.993   3.447  0.0460  0.1696 -0.2182
    1DPPC   C2B13450  28.835  10.663   3.710 -0.1789  0.3669 -0.0507
    1DPPC   C3B13451  29.103  10.306   4.037  0.0015 -0.0015  0.0741
    1DPPC   C4B13452  29.154   9.996   4.397  0.0674 -0.1445 -0.0046
    1DPPC   NC313453  15.749   5.891   3.689 -0.0373 -0.2889  0.2519
    1DPPC   PO413454  15.602   6.256   3.917 -0.2274  0.3105 -0.2341
    1DPPC   GL113455  15.451   6.200   4.365  0.0698  0.0035  0.1316
    1DPPC   GL213456  15.749   6.268   4.432 -0.1913 -0.1020  0.3112
    1DPPC   C1A13457  15.399   5.892   4.710 -0.2070 -0.0454  0.2068
    1DPPC   C2A13458  15.260   6.006   5.090  0.2285 -0.2353  0.1246
    1DPPC   C3A13459  15.277   5.979   5.456  0.1448 -0.1668  0.0875
    1DPPC   C4A13460  15.247   5.874   5.874 -0.2419 -0.0072 -0.0318
    1DPPC   C1B13461  15.593   6.324   4.897 -0.1131 -0.1186  0.0237
    1DPPC   C2B13462  15.637   6.323   5.305 -0.0667  0.3545  0.0029
    1DPPC   C3B13463  15.843   6.124   5.641 -0.0679  0.0675  0.1449
    1DPPC   C4B13464  15.700   5.726   5.786 -0.0551  0.2558 -0.1747
    1DPPC   NC313465  11.707  13.853   2.989 -0.0167  0.1269  0.0153
    1DPPC   PO413466  12.231  13.768   3.064  0.2212  0.3318  0.0477
    1DPPC   GL113467  12.396  13.647   3.487 -0.1280  0.2250  0.0467
    1DPPC   GL213468  12.472  13.440   3.536 -0.0694  0.0779  0.0696
    1DPPC   C1A13469  12.356  13.705   3.922  0.0652 -0.4134  0.1086
    1DPPC   C2A13470  12.291  13.820   4.357 -0.1973  0.2461  0.1460
    1DPPC   C3A13471  12.235  13.976   4.709  0.0469  0.1166  0.5222
    1DPPC   C4A13472  12.397  13.907   5.034  0.0445 -0.1998  0.0844
    1DPPC   C1B13473  12.538  13.131   3.705 -0.1223  0.0990 -0.1020
    1DPPC   C2B13474  12.505  13.230   4.105 -0.0611 -0.0737  0.1709
    1DPPC   C3B13475  12.498  13.248   4.446  0.1846  0.2448  0.1290
    1DPPC   C4B13476  12.609  13.385   4.872 -0.2531 -0.1731  0.0213
    1DPPC   NC313477  16.157  15.007   2.877  0.2070  0.2624  0.0344
    1DPPC   PO413478  15.726  15.086   2.837  0.3216  0.1245 -0.0045
    1DPPC   GL113479  15.784  14.971   3.244  0.0188 -0.1273  0.0361
    1DPPC   GL213480  15.766  15.300   3.391  0.1333 -0.3070  0.3002
    1DPPC   C1A13481  15.844  14.862   3.610  0.2149 -0.0244 -0.1204
    1DPPC   C2A13482  15.833  14.742   4.015 -0.0090  0.1938 -0.0187
    1DPPC   C3A13483  15.928  14.558   4.392 -0.0906 -0.1081  0.3493
    1DPPC   C4A13484  15.975  14.412   4.830  0.2606  0.0100 -0.0032
    1DPPC   C1B13485  15.928  15.280   3.855 -0.1528 -0.1818  0.0410
    1DPPC   C2B13486  15.882  15.221   4.236 -0.0425 -0.2419 -0.0146
    1DPPC   C3B13487  15.663  15.100   4.664 -0.1702 -0.0152  0.0136
    1DPPC   C4B13488  15.839  14.873   4.962 -0.0155 -0.0202  0.0079
    1DPPC   NC313489  10.854  12.844   2.713  0.0901 -0.1610  0.1458
    1DPPC   PO413490  10.451  12.915   2.885  0.0563  0.1227 -0.2428
    1DPPC   GL113491  10.396  12.965   3.265  0.1296  0.0575  0.1262
    1DPPC   GL213492  10.422  13.286   3.246  0.1660  0.2908 -0.3052
    1DPPC   C1A13493  10.283  12.754   3.644 -0.1405 -0.0291 -0.2728
    1DPPC   C2A13494  10.313  12.735   4.040 -0.1768 -0.1748  0.1011
    1DPPC   C3A13495  10.218  12.777   4.485  0.2824 -0.1399 -0.0773
    1DPPC   C4A13496  10.426  12.789   4.869 -0.2275 -0.2058  0.1594
    1DPPC   C1B13497  10.428  13.202   3.709  0.1258 -0.2588  0.1223
    1DPPC   C2B13498  10.395  13.215   4.174 -0.0394 -0.0949 -0.0032
    1DPPC   C3B13499  10.410  13.245   4.496 -0.0660  0.2414 -0.1492
    1DPPC   C4B13500  10.344  13.349   4.930  0.2680  0.0737  0.2040
    1DPPC   NC313501  13.812  19.951   3.288  0.0673  0.4243 -0.0704
    1DPPC   PO413502  13.516  19.772   3.087 -0.1895  0.0023 -0.3577
    1DPPC   GL113503  13.455  19.585   3.497  0.0508 -0.2604 -0.2539
    1DPPC   GL213504  13.663  19.384   3.601 -0.2452 -0.0500 -0.1972
    1DPPC   C1A13505  13.502  19.745   3.881 -0.0575 -0.3306 -0.1285
    1DPPC   C2A13506  13.200  19.796   4.150  0.3538 -0.3035 -0.0915
    1DPPC   C3A13507  13.049  19.972   4.467  0.0064  0.0016 -0.3264
    1DPPC   C4A13508  13.157  20.164   4.904  0.1048 -0.1404  0.1054
    1DPPC   C1B13509  13.678  19.266   4.003  0.0908 -0.0122  0.1213
    1DPPC   C2B13510  13.543  19.341   4.404 -0.0441  0.0148  0.0390
    1DPPC   C3B13511  13.221  19.565   4.642  0.2052  0.0081  0.0212
    1DPPC   C4B13512  13.055  19.468   5.103  0.0626 -0.4283  0.1603
    1DPPC   NC313513  13.112  19.424   2.970 -0.1885  0.0965 -0.1062
    1DPPC   PO413514  13.152  18.921   2.931  0.0345 -0.2143 -0.2990
    1DPPC   GL113515  13.302  18.699   3.322  0.0592 -0.0862 -0.0784
    1DPPC   GL213516  12.948  18.558   3.278 -0.1572  0.2625 -0.0681
    1DPPC   C1A13517  13.317  18.289   3.577 -0.2377 -0.0302 -0.1999
    1DPPC   C2A13518  13.185  18.277   4.005  0.3545 -0.0032  0.4827
    1DPPC   C3A13519  13.123  18.270   4.398 -0.0787 -0.0751 -0.2880
    1DPPC   C4A13520  13.084  18.305   4.887 -0.0318  0.2409 -0.1165
    1DPPC   C1B13521  12.959  18.714   3.719 -0.1264 -0.2039  0.0566
    1DPPC   C2B13522  12.803  18.731   4.128  0.0087 -0.2227 -0.2387
    1DPPC   C3B13523  12.682  18.654   4.497 -0.0027  0.1954 -0.0064
    1DPPC   C4B13524  12.627  18.470   4.809 -0.1682  0.1856 -0.0278
    1DPPC   NC313525  14.943  20.702   3.244  0.0388  0.0158  0.2843
    1DPPC   PO413526  14.568  20.707   3.122 -0.2124 -0.0869 -0.0897
    1DPPC   GL113527  14.460  20.636   3.598 -0.0960  0.1190  0.2107
    1DPPC   GL213528  14.780  20.552   3.696  0.3093 -0.0924 -0.0028
    1DPPC   C1A13529  14.116  20.550   3.889 -0.1511  0.0299 -0.2765
    1DPPC   C2A13530  14.185  20.571   4.310  0.1308  0.1502 -0.1680
    1DPPC   C3A13531  14.062  20.513   4.709 -0.0777 -0.2001 -0.0380
    1DPPC   C4A13532  14.183  20.375   5.074 -0.0467 -0.0497 -0.1995
    1DPPC   C1B13533  14.547  20.383   4.058  0.1064 -0.2618 -0.2204
    1DPPC   C2B13534  14.521  20.225   4.486 -0.0618 -0.1780  0.2691
    1DPPC   C3B13535  14.547  20.005   4.851 -0.4456  0.0435 -0.0051
    1DPPC   C4B13536  14.443  19.833   5.223 -0.0549  0.2336  0.0474
    1DPPC   NC313537  17.970  14.590   2.859 -0.0383 -0.0489  0.1726
    1DPPC   PO413538  17.869  14.261   2.650  0.2097  0.0025 -0.1552
    1DPPC   GL113539  18.053  14.231   3.100  0.0794  0.0931 -0.0192
    1DPPC   GL213540  18.355  14.284   3.182  0.1036  0.1106  0.0104
    1DPPC   C1A13541  18.073  14.173   3.555 -0.0306 -0.2373 -0.1256
    1DPPC   C2A13542  18.186  14.089   4.012  0.3700 -0.1543  0.1405
    1DPPC   C3A13543  18.322  14.126   4.477  0.1068 -0.1876  0.1598
    1DPPC   C4A13544  18.442  13.952   4.960 -0.0604 -0.0669  0.1600
    1DPPC   C1B13545  18.518  14.000   3.405 -0.1267  0.1768 -0.1351
    1DPPC   C2B13546  18.545  13.855   3.781 -0.0146 -0.3089 -0.1383
    1DPPC   C3B13547  18.659  13.897   4.170  0.0791  0.1207  0.1473
    1DPPC   C4B13548  18.742  13.867   4.561  0.1036  0.0548 -0.0413
    1DPPC   NC313549  10.682  11.926   2.529  0.0401 -0.1011  0.0482
    1DPPC   PO413550  10.362  11.978   2.902  0.1578  0.0264  0.0043
    1DPPC   GL113551  10.489  11.913   3.401  0.1370 -0.0521 -0.0898
    1DPPC   GL213552  10.242  11.847   3.449  0.1604  0.1032  0.1729
    1DPPC   C1A13553  10.679  11.907   3.769  0.4841 -0.3487  0.0645
    1DPPC   C2A13554  10.785  11.956   4.203 -0.1118 -0.0892 -0.0051
    1DPPC   C3A13555  10.895  11.956   4.566  0.1464 -0.1065 -0.1420
    1DPPC   C4A13556  10.897  11.923   5.045 -0.1859  0.2043  0.1335
    1DPPC   C1B13557  10.185  12.167   3.752  0.3985 -0.2567  0.1713
    1DPPC   C2B13558  10.272  12.248   4.193  0.1479 -0.0275 -0.0535
    1DPPC   C3B13559  10.474  12.298   4.520 -0.1191  0.3358 -0.2796
    1DPPC   C4B13560  10.799  12.345   4.897  0.1783  0.1316  0.2213
    1DPPC   NC313561  12.916  12.022   2.791 -0.0771  0.1288  0.1058
    1DPPC   PO413562  13.117  12.449   2.929 -0.0206 -0.1341 -0.0588
    1DPPC   GL113563  12.884  12.345   3.256  0.0208  0.1505 -0.1045
    1DPPC   GL213564  12.915  12.720   3.368 -0.0861  0.3813 -0.1683
    1DPPC   C1A13565  12.878  12.328   3.662  0.1922 -0.1023 -0.0173
    1DPPC   C2A13566  12.807  12.384   4.118  0.1075  0.0450 -0.0686
    1DPPC   C3A13567  12.681  12.383   4.554 -0.1952 -0.2432  0.5113
    1DPPC   C4A13568  12.749  12.461   4.928  0.1172 -0.3139  0.1136
    1DPPC   C1B13569  12.971  12.905   3.794 -0.3086  0.3512  0.1513
    1DPPC   C2B13570  12.895  12.947   4.233 -0.0279 -0.1435 -0.0039
    1DPPC   C3B13571  12.786  12.904   4.690 -0.0409 -0.0764  0.0680
    1DPPC   C4B13572  12.588  12.951   5.152 -0.0339  0.1370 -0.1076
    1DPPC   NC313573   9.363  10.668   3.277 -0.0830  0.1975  0.2911
    1DPPC   PO413574   9.824  10.444   3.160 -0.0080 -0.1997 -0.1284
    1DPPC   GL113575   9.685  10.364   3.580 -0.2486 -0.3298  0.0286
    1DPPC   GL213576   9.510  10.581   3.823 -0.3925  0.0053  0.1177
    1DPPC   C1A13577   9.644  10.128   3.972  0.0761 -0.0695 -0.1112
    1DPPC   C2A13578   9.629  10.024   4.398 -0.1988  0.1479  0.2007
    1DPPC   C3A13579   9.383   9.951   4.745  0.1547  0.2242  0.3646
    1DPPC   C4A13580   9.406  10.240   5.158  0.0474  0.0783  0.1073
    1DPPC   C1B13581   9.507  10.509   4.250  0.1186  0.1111 -0.2471
    1DPPC   C2B13582   9.515  10.517   4.695 -0.0612  0.0602 -0.1622
    1DPPC   C3B13583   9.378  10.778   5.006 -0.1572  0.1372  0.1562
    1DPPC   C4B13584   9.149  10.729   5.389 -0.0233  0.1943 -0.0577
    1DPPC   NC313585  14.985  15.845   2.313 -0.1198 -0.3584 -0.2445
    1DPPC   PO413586  15.251  15.932   2.649 -0.1873  0.1523  0.2701
    1DPPC   GL113587  15.048  15.862   2.972 -0.1683 -0.0495 -0.1483
    1DPPC   GL213588  15.191  16.154   3.103 -0.2522 -0.0308  0.1158
    1DPPC   C1A13589  14.851  15.702   3.299 -0.0393 -0.0148  0.3557
    1DPPC   C2A13590  15.012  15.707   3.757 -0.0324  0.0810 -0.2102
    1DPPC   C3A13591  14.953  15.586   4.163  0.0172  0.0333 -0.3051
    1DPPC   C4A13592  14.807  15.636   4.516 -0.2773 -0.2055  0.2782
    1DPPC   C1B13593  15.272  16.081   3.528 -0.2364  0.0608 -0.1147
    1DPPC   C2B13594  15.306  15.983   4.033 -0.0626 -0.3762  0.1884
    1DPPC   C3B13595  15.300  15.861   4.484 -0.1076 -0.1518 -0.3149
    1DPPC   C4B13596  15.360  15.774   4.916  0.0465 -0.3060 -0.1383
    1DPPC   NC313597  15.143  12.388   2.952 -0.0822  0.0457 -0.2701
    1DPPC   PO413598  14.906  12.010   2.966  0.0991  0.0387 -0.0235
    1DPPC   GL113599  14.723  11.849   3.236 -0.3143 -0.1002  0.1971
    1DPPC   GL213600  14.472  12.177   3.330 -0.2210  0.1623  0.0736
    1DPPC   C1A13601  14.749  11.792   3.599 -0.0117 -0.2972  0.0986
    1DPPC   C2A13602  14.475  11.802   3.878 -0.2338  0.0728 -0.1000
    1DPPC   C3A13603  14.619  11.750   4.256 -0.2089  0.0935 -0.2491
    1DPPC   C4A13604  14.712  11.895   4.680 -0.1955  0.0988 -0.0002
    1DPPC   C1B13605  14.235  12.207   3.728  0.0463  0.3600  0.2628
    1DPPC   C2B13606  14.192  12.182   4.132  0.0756 -0.2900  0.1044
    1DPPC   C3B13607  14.168  12.211   4.563  0.1783  0.0413  0.1257
    1DPPC   C4B13608  14.339  12.267   4.918  0.0192  0.2291  0.0941
    1DPPC   NC313609  17.812  18.058   3.214  0.3457 -0.0779  0.2170
    1DPPC   PO413610  17.433  17.954   3.417 -0.3489 -0.0335  0.0450
    1DPPC   GL113611  17.519  18.317   3.681  0.2607  0.1363  0.1096
    1DPPC   GL213612  17.776  18.200   3.671 -0.0207  0.1945 -0.0579
    1DPPC   C1A13613  17.309  18.226   4.137  0.1793 -0.0713 -0.0950
    1DPPC   C2A13614  17.396  18.169   4.554 -0.0021  0.1188 -0.0794
    1DPPC   C3A13615  17.218  18.231   4.897  0.0585  0.2176  0.1574
    1DPPC   C4A13616  17.225  18.021   5.246 -0.0731  0.0406 -0.1051
    1DPPC   C1B13617  17.804  18.064   4.095  0.1946  0.0824  0.1562
    1DPPC   C2B13618  17.856  18.022   4.493  0.0410 -0.1012  0.1699
    1DPPC   C3B13619  17.734  18.120   4.971  0.0746  0.1647  0.2111
    1DPPC   C4B13620  17.717  18.375   5.337  0.1870  0.1240 -0.0625
    1DPPC   NC313621   8.881  16.538   2.784  0.0628 -0.1999 -0.1354
    1DPPC   PO413622   9.194  16.726   2.837 -0.0114  0.1528 -0.1664
    1DPPC   GL113623   9.119  16.961   3.173  0.0321 -0.1270  0.0590
    1DPPC   GL213624   8.838  16.749   3.222  0.4944 -0.2056 -0.0318
    1DPPC   C1A13625   9.133  16.988   3.567  0.0105 -0.0684 -0.2142
    1DPPC   C2A13626   9.081  17.120   4.040 -0.0224 -0.2835  0.1234
    1DPPC   C3A13627   9.296  17.226   4.462  0.0357  0.0236  0.2320
    1DPPC   C4A13628   9.297  17.270   4.948 -0.1158 -0.0318  0.0512
    1DPPC   C1B13629   8.724  16.803   3.681 -0.0049  0.1194 -0.0082
    1DPPC   C2B13630   8.688  16.830   4.113 -0.0573 -0.0937 -0.1997
    1DPPC   C3B13631   8.645  17.167   4.336  0.1324 -0.0894 -0.2861
    1DPPC   C4B13632   8.723  17.658   4.286 -0.1959  0.1030 -0.2150
    1DPPC   NC313633  10.445  18.018   2.625 -0.1737  0.0371 -0.0737
    1DPPC   PO413634  10.838  18.195   2.706  0.0230 -0.1343  0.2243
    1DPPC   GL113635  10.976  18.061   3.104  0.3011  0.1522  0.0934
    1DPPC   GL213636  10.808  18.374   3.310  0.0998  0.2400 -0.1650
    1DPPC   C1A13637  11.009  17.846   3.454 -0.0885 -0.0524 -0.0818
    1DPPC   C2A13638  11.021  17.912   3.827  0.1828  0.0068  0.0384
    1DPPC   C3A13639  10.935  17.778   4.210 -0.2573 -0.1174  0.2203
    1DPPC   C4A13640  10.951  17.686   4.613 -0.2561  0.0627  0.1290
    1DPPC   C1B13641  10.825  18.362   3.804  0.0055  0.2792  0.2499
    1DPPC   C2B13642  10.800  18.243   4.207  0.0061 -0.1166  0.0741
    1DPPC   C3B13643  10.719  18.119   4.692  0.2103 -0.1518 -0.0669
    1DPPC   C4B13644  10.780  17.817   5.069  0.2328 -0.2374  0.0950
    1DPPC   NC313645  10.026  14.934   2.851 -0.0998  0.0429 -0.0955
    1DPPC   PO413646  10.188  15.346   2.844 -0.0656  0.0042  0.1477
    1DPPC   GL113647  10.111  15.511   3.150 -0.2482 -0.1709 -0.2200
    1DPPC   GL213648  10.431  15.476   3.259  0.0245 -0.0117  0.1469
    1DPPC   C1A13649  10.097  15.884   3.370  0.0087 -0.0006 -0.0147
    1DPPC   C2A13650  10.024  15.922   3.800  0.1602 -0.2105 -0.0008
    1DPPC   C3A13651   9.879  15.968   4.237  0.0629  0.4352 -0.1861
    1DPPC   C4A13652   9.834  15.719   4.614 -0.1550  0.2553  0.2652
    1DPPC   C1B13653  10.382  15.552   3.621 -0.1231  0.1263  0.1922
    1DPPC   C2B13654  10.266  15.470   3.990 -0.1967 -0.2195 -0.2148
    1DPPC   C3B13655  10.282  15.405   4.354 -0.1419  0.0259  0.0593
    1DPPC   C4B13656  10.383  15.094   4.607 -0.0088  0.0159  0.2786
    1DPPC   NC313657  15.101  11.638   2.734  0.1697  0.3383  0.1580
    1DPPC   PO413658  14.763  11.452   2.932  0.1619  0.1492 -0.1048
    1DPPC   GL113659  15.020  11.491   3.292  0.0096 -0.4641  0.1065
    1DPPC   GL213660  15.093  11.182   3.316  0.3617  0.0209 -0.0442
    1DPPC   C1A13661  15.029  11.439   3.798  0.0850  0.0168 -0.0150
    1DPPC   C2A13662  15.083  11.484   4.252 -0.1145  0.1320 -0.1999
    1DPPC   C3A13663  15.065  11.502   4.639 -0.1086 -0.2028 -0.3828
    1DPPC   C4A13664  15.113  11.540   5.034 -0.2130 -0.2533 -0.2224
    1DPPC   C1B13665  15.087  10.939   3.678 -0.0115 -0.2085  0.3731
    1DPPC   C2B13666  14.951  10.976   4.105 -0.3301 -0.0200  0.1915
    1DPPC   C3B13667  14.966  10.973   4.492 -0.1845 -0.1002 -0.0445
    1DPPC   C4B13668  14.841  10.967   4.855  0.1678  0.0617 -0.1725
    1DPPC   NC313669  14.673  13.166   3.034 -0.0229  0.1076 -0.0351
    1DPPC   PO413670  14.734  12.747   2.737  0.1360  0.3171 -0.0497
    1DPPC   GL113671  14.821  12.721   3.164  0.2702  0.0847 -0.0373
    1DPPC   GL213672  14.534  12.711   3.303  0.0410 -0.4229  0.1858
    1DPPC   C1A13673  14.866  12.917   3.606  0.0914 -0.0036 -0.2844
    1DPPC   C2A13674  14.846  12.904   4.011  0.0504 -0.0648 -0.4050
    1DPPC   C3A13675  14.867  12.905   4.438 -0.0804 -0.1910 -0.1451
    1DPPC   C4A13676  14.940  12.879   4.958  0.0135  0.0268 -0.2025
    1DPPC   C1B13677  14.450  12.652   3.795  0.0610  0.1228  0.1613
    1DPPC   C2B13678  14.386  12.659   4.342  0.2498  0.0915 -0.3010
    1DPPC   C3B13679  14.499  12.758   4.763 -0.0203 -0.1641  0.0480
    1DPPC   C4B13680  14.519  12.851   5.169  0.0538 -0.3350  0.1769
    1DPPC   NC313681  16.911  10.992   2.928  0.1630 -0.0051  0.1258
    1DPPC   PO413682  16.559  10.654   2.898  0.1175  0.0953  0.1380
    1DPPC   GL113683  16.355  10.533   3.297 -0.0995  0.3422 -0.2280
    1DPPC   GL213684  16.129  10.659   3.293  0.1474  0.0903 -0.0578
    1DPPC   C1A13685  16.378  10.347   3.639  0.2822 -0.2212 -0.1163
    1DPPC   C2A13686  16.478  10.185   3.936  0.2241 -0.1784 -0.2250
    1DPPC   C3A13687  16.455  10.152   4.380  0.0469  0.0079  0.1512
    1DPPC   C4A13688  16.611  10.308   4.870  0.1208 -0.0655  0.0949
    1DPPC   C1B13689  15.934  10.748   3.609  0.0703  0.2549  0.1463
    1DPPC   C2B13690  15.853  10.847   4.090  0.0291 -0.1590 -0.0103
    1DPPC   C3B13691  15.902  10.955   4.484 -0.1872  0.0270 -0.1042
    1DPPC   C4B13692  15.701  10.811   4.872 -0.0324  0.0491  0.0955
    1DPPC   NC313693  11.325  18.368   2.670 -0.2006  0.0295 -0.0748
    1DPPC   PO413694  11.389  18.780   2.876 -0.2232  0.0019 -0.2627
    1DPPC   GL113695  11.492  19.123   3.095  0.2685  0.0556  0.1296
    1DPPC   GL213696  11.452  19.442   2.989 -0.0650 -0.1357 -0.0479
    1DPPC   C1A13697  11.313  19.235   3.447  0.2421 -0.3760 -0.0232
    1DPPC   C2A13698  11.235  19.331   3.807  0.0628 -0.1121  0.1676
    1DPPC   C3A13699  11.095  19.269   4.175 -0.0148  0.0663  0.2523
    1DPPC   C4A13700  11.174  19.271   4.581 -0.0553  0.0520 -0.1202
    1DPPC   C1B13701  11.801  19.394   3.360 -0.2068  0.3053 -0.1330
    1DPPC   C2B13702  11.815  19.582   3.789 -0.1462 -0.0733  0.0999
    1DPPC   C3B13703  11.560  19.647   4.046 -0.3976  0.2341  0.1342
    1DPPC   C4B13704  11.601  19.531   4.506 -0.1047  0.3301  0.4075
    1DPPC   NC313705  18.414  16.550   2.774 -0.4834 -0.0478 -0.1412
    1DPPC   PO413706  18.825  16.769   2.910  0.0246 -0.1390  0.3726
    1DPPC   GL113707  18.642  16.690   3.274 -0.3075 -0.0120 -0.0872
    1DPPC   GL213708  18.479  16.923   3.327  0.2641  0.0379  0.0252
    1DPPC   C1A13709  18.562  16.510   3.667 -0.0722 -0.1567 -0.1802
    1DPPC   C2A13710  18.439  16.512   4.105 -0.1817 -0.2571  0.2317
    1DPPC   C3A13711  18.478  16.664   4.467  0.2025  0.1939  0.0161
    1DPPC   C4A13712  18.619  16.633   4.881 -0.1038 -0.0194 -0.0447
    1DPPC   C1B13713  18.409  17.024   3.724 -0.0284  0.0261 -0.0411
    1DPPC   C2B13714  18.373  17.018   4.163 -0.1244 -0.3497  0.3212
    1DPPC   C3B13715  18.424  17.182   4.556 -0.2376  0.1512 -0.0853
    1DPPC   C4B13716  18.490  17.134   4.947  0.0469  0.0081 -0.4357
    1DPPC   NC313717  12.270  14.639   2.974  0.0884 -0.1357 -0.1021
    1DPPC   PO413718  11.875  14.362   3.053 -0.6557  0.2000  0.1478
    1DPPC   GL113719  11.761  14.205   3.420  0.2161  0.1590 -0.0262
    1DPPC   GL213720  11.392  13.992   3.409 -0.0722  0.0258 -0.0982
    1DPPC   C1A13721  11.862  14.259   3.751 -0.1459  0.0952 -0.2270
    1DPPC   C2A13722  11.781  14.417   4.115  0.1213 -0.1542 -0.1277
    1DPPC   C3A13723  11.715  14.521   4.535 -0.0864 -0.0304 -0.2155
    1DPPC   C4A13724  11.700  14.645   4.892  0.1424 -0.1847 -0.0497
    1DPPC   C1B13725  11.322  14.180   3.833  0.0854  0.1779  0.0456
    1DPPC   C2B13726  11.367  14.269   4.316 -0.0086 -0.3515 -0.5743
    1DPPC   C3B13727  11.286  14.254   4.724  0.0587 -0.1597 -0.2514
    1DPPC   C4B13728  11.032  14.090   5.102  0.0249 -0.4050  0.2730
    1DPPC   NC313729  17.679  11.686   2.652  0.1354  0.0428 -0.0988
    1DPPC   PO413730  18.014  11.883   2.804 -0.1692  0.1580  0.3761
    1DPPC   GL113731  17.886  11.807   3.151  0.4418 -0.1587  0.1578
    1DPPC   GL213732  17.634  11.987   3.338 -0.1301 -0.2412  0.1103
    1DPPC   C1A13733  17.835  11.642   3.530 -0.0986 -0.2214 -0.1968
    1DPPC   C2A13734  17.856  11.587   3.951 -0.0467  0.0065 -0.0745
    1DPPC   C3A13735  17.802  11.584   4.380  0.0181  0.1499  0.2147
    1DPPC   C4A13736  17.840  11.255   4.651  0.0749  0.0426 -0.3561
    1DPPC   C1B13737  17.724  12.027   3.823 -0.0118 -0.4699 -0.0741
    1DPPC   C2B13738  17.834  12.103   4.240 -0.0865 -0.2568  0.3509
    1DPPC   C3B13739  17.954  12.026   4.611  0.0444 -0.3226 -0.3528
    1DPPC   C4B13740  17.978  11.677   4.936  0.0184  0.3345  0.0431
    1DPPC   NC313741  19.102  11.085   2.660  0.1566  0.1090  0.4123
    1DPPC   PO413742  19.152  11.472   2.901 -0.2117 -0.0662  0.1630
    1DPPC   GL113743  19.326  11.406   3.287 -0.0799 -0.2953 -0.0876
    1DPPC   GL213744  19.236  11.675   3.493 -0.0135 -0.0813  0.0503
    1DPPC   C1A13745  19.684  11.317   3.573 -0.2246 -0.1831  0.2114
    1DPPC   C2A13746  20.152  11.313   3.761 -0.0804  0.0536 -0.0551
    1DPPC   C3A13747  20.523  11.369   4.113 -0.3847 -0.3928  0.2307
    1DPPC   C4A13748  20.693  11.571   4.512  0.2964 -0.0303 -0.1577
    1DPPC   C1B13749  19.288  11.552   3.943  0.0141  0.2546  0.2619
    1DPPC   C2B13750  19.337  11.255   4.222 -0.3572 -0.0493  0.1245
    1DPPC   C3B13751  19.458  11.295   4.634  0.1898 -0.0330 -0.1679
    1DPPC   C4B13752  19.841  11.297   4.805 -0.1081  0.0125 -0.0443
    1DPPC   NC313753  10.621  16.841   2.731 -0.1026  0.0582 -0.0023
    1DPPC   PO413754  10.946  17.111   2.508 -0.0753  0.0692 -0.0053
    1DPPC   GL113755  11.049  17.119   2.998  0.1241 -0.0902  0.0464
    1DPPC   GL213756  11.133  17.497   3.130 -0.0651  0.2914 -0.1680
    1DPPC   C1A13757  10.927  16.896   3.407  0.0451 -0.0016  0.3393
    1DPPC   C2A13758  10.896  17.085   3.802  0.0603 -0.2217 -0.0397
    1DPPC   C3A13759  10.815  17.237   4.282 -0.1566  0.0657  0.1043
    1DPPC   C4A13760  10.752  17.071   4.693 -0.0359  0.0123  0.0557
    1DPPC   C1B13761  11.237  17.409   3.529 -0.1021  0.2163 -0.1365
    1DPPC   C2B13762  11.233  17.454   3.948  0.2944  0.1549  0.0830
    1DPPC   C3B13763  11.290  17.391   4.371 -0.3623  0.3050 -0.3126
    1DPPC   C4B13764  11.198  16.992   4.593  0.2529 -0.0568 -0.1106
    1DPPC   NC313765  26.877  27.850   3.577 -0.4003  0.0559 -0.0146
    1DPPC   PO413766  26.586  27.711   3.454  0.0974 -0.0094 -0.2232
    1DPPC   GL113767  26.595  27.513   3.906 -0.0364 -0.1216 -0.1078
    1DPPC   GL213768  26.731  27.226   3.974 -0.0306  0.0985 -0.1309
    1DPPC   C1A13769  26.805  27.574   4.337  0.0970  0.2629  0.2042
    1DPPC   C2A13770  27.093  27.470   4.627  0.1161  0.0340  0.2036
    1DPPC   C3A13771  27.091  27.209   4.997 -0.2330  0.0933 -0.1088
    1DPPC   C4A13772  27.086  27.193   5.464  0.1966 -0.0317  0.1762
    1DPPC   C1B13773  26.794  27.095   4.431 -0.0618 -0.0208  0.0325
    1DPPC   C2B13774  27.009  26.865   4.617 -0.1482 -0.1543 -0.3644
    1DPPC   C3B13775  27.242  26.698   4.934  0.0073  0.1332  0.2693
    1DPPC   C4B13776  27.322  26.305   5.105 -0.0304  0.0008 -0.4892
    1DPPC   NC313777  15.107  14.056   2.748 -0.0545 -0.3536  0.0279
    1DPPC   PO413778  15.270  13.656   2.665 -0.0018  0.2278  0.0313
    1DPPC   GL113779  15.411  13.756   2.999  0.0847  0.3369 -0.1755
    1DPPC   GL213780  15.479  14.016   3.103 -0.1721 -0.1018  0.2875
    1DPPC   C1A13781  15.497  13.608   3.449  0.1255  0.2220 -0.1820
    1DPPC   C2A13782  15.417  13.780   3.888 -0.0949 -0.1847 -0.1321
    1DPPC   C3A13783  15.431  13.601   4.223 -0.2858 -0.1469 -0.1614
    1DPPC   C4A13784  15.428  13.660   4.592  0.0113 -0.2268 -0.0587
    1DPPC   C1B13785  15.132  13.924   3.383  0.0825 -0.2347  0.0663
    1DPPC   C2B13786  14.884  14.018   3.733  0.0213 -0.0964  0.2084
    1DPPC   C3B13787  14.905  14.053   4.131  0.0658 -0.1951 -0.1908
    1DPPC   C4B13788  15.046  13.992   4.562  0.1684  0.1754  0.0290
    1DPPC   NC313789  12.270  12.854   2.717  0.0512  0.1543 -0.0775
    1DPPC   PO413790  12.518  12.925   3.106 -0.1241  0.0147  0.2142
    1DPPC   GL113791  12.166  13.002   3.410 -0.0470 -0.0836 -0.0142
    1DPPC   GL213792  11.917  12.926   3.594 -0.0212 -0.2119  0.1425
    1DPPC   C1A13793  12.069  13.282   3.835  0.0764 -0.0623 -0.0754
    1DPPC   C2A13794  11.998  13.391   4.287 -0.1664  0.0152 -0.0154
    1DPPC   C3A13795  12.092  13.506   4.721  0.2970 -0.0722  0.0996
    1DPPC   C4A13796  12.090  13.340   5.134 -0.1663 -0.2295 -0.0236
    1DPPC   C1B13797  11.794  12.905   4.065 -0.0045  0.1077 -0.2640
    1DPPC   C2B13798  11.772  12.997   4.504  0.1062  0.1510  0.0948
    1DPPC   C3B13799  11.615  12.993   4.910  0.2615 -0.0257  0.0569
    1DPPC   C4B13800  11.295  13.272   5.018  0.2285 -0.2007 -0.0661
    1DPPC   NC313801  11.082  16.157   2.544 -0.2066 -0.2393  0.2934
    1DPPC   PO413802  11.500  16.347   2.704 -0.0600 -0.2101  0.3425
    1DPPC   GL113803  11.533  16.496   3.084  0.1164  0.2408  0.1869
    1DPPC   GL213804  11.835  16.481   3.127 -0.2422 -0.1626  0.1913
    1DPPC   C1A13805  11.239  16.496   3.352  0.3595  0.0093  0.1106
    1DPPC   C2A13806  10.839  16.393   3.558  0.1265  0.1223 -0.0039
    1DPPC   C3A13807  10.825  16.498   3.939  0.1447 -0.0369 -0.4213
    1DPPC   C4A13808  10.904  16.746   4.256 -0.1004 -0.1233  0.3226
    1DPPC   C1B13809  11.901  16.704   3.616  0.2854 -0.3328 -0.0817
    1DPPC   C2B13810  11.896  16.771   4.066  0.1414  0.1041 -0.0638
    1DPPC   C3B13811  12.167  16.751   4.369 -0.2981  0.0060 -0.0492
    1DPPC   C4B13812  12.102  16.896   4.812 -0.0626  0.2616  0.0263
    1DPPC   NC313813  14.104  18.172   3.054  0.0764  0.0051 -0.3487
    1DPPC   PO413814  14.107  17.698   3.097 -0.1567 -0.2549  0.3473
    1DPPC   GL113815  13.991  17.376   3.331  0.2202 -0.0232 -0.0013
    1DPPC   GL213816  14.303  17.132   3.504 -0.0727  0.0360 -0.0228
    1DPPC   C1A13817  13.939  17.375   3.784 -0.0513 -0.3145 -0.2154
    1DPPC   C2A13818  14.020  17.322   4.147 -0.1444 -0.0870 -0.1244
    1DPPC   C3A13819  14.166  17.289   4.574 -0.0564 -0.4723 -0.0511
    1DPPC   C4A13820  14.319  17.252   4.941  0.1111  0.0331 -0.2743
    1DPPC   C1B13821  14.305  16.978   3.944 -0.0609  0.1156  0.1232
    1DPPC   C2B13822  14.348  16.897   4.310  0.1772 -0.0050 -0.1492
    1DPPC   C3B13823  14.332  16.863   4.686 -0.1379  0.0429  0.4276
    1DPPC   C4B13824  14.086  16.462   4.849  0.1363 -0.3126 -0.2157
    1DPPC   NC313825  15.691  10.470   3.049 -0.2038  0.1669  0.0015
    1DPPC   PO413826  15.624  10.019   3.012  0.0066 -0.1104  0.2028
    1DPPC   GL113827  15.444   9.851   3.345 -0.1456 -0.3234  0.2012
    1DPPC   GL213828  15.343  10.065   3.456  0.3093 -0.2195 -0.2798
    1DPPC   C1A13829  15.686   9.750   3.654  0.4861 -0.0476  0.2269
    1DPPC   C2A13830  15.782   9.780   4.015  0.2510 -0.2230  0.1985
    1DPPC   C3A13831  15.910   9.755   4.399  0.2618  0.2734 -0.0718
    1DPPC   C4A13832  16.007  10.083   4.823 -0.0473 -0.1732  0.0768
    1DPPC   C1B13833  15.330  10.137   3.843 -0.1714  0.2167 -0.0434
    1DPPC   C2B13834  15.296  10.047   4.273  0.0842 -0.0785  0.1155
    1DPPC   C3B13835  15.211  10.156   4.696 -0.0169 -0.1335  0.1332
    1DPPC   C4B13836  15.163  10.089   5.100  0.1687  0.0716  0.0279
    1DPPC   NC313837  13.080   7.274   3.347 -0.0488  0.0564 -0.2079
    1DPPC   PO413838  12.899   6.927   3.586 -0.3097  0.0270  0.0320
    1DPPC   GL113839  12.897   6.976   4.041 -0.0870  0.1218 -0.3065
    1DPPC   GL213840  12.763   6.840   4.211  0.2313  0.2768  0.0878
    1DPPC   C1A13841  13.029   7.334   4.288  0.0061  0.2828  0.0758
    1DPPC   C2A13842  12.878   7.387   4.734  0.0448  0.1405 -0.4283
    1DPPC   C3A13843  12.965   7.496   5.175 -0.0695 -0.0884  0.2411
    1DPPC   C4A13844  12.884   7.797   5.540  0.0754  0.3785  0.1556
    1DPPC   C1B13845  12.559   6.976   4.548  0.1498 -0.0692 -0.0159
    1DPPC   C2B13846  12.591   6.951   5.026  0.1797 -0.2187  0.3808
    1DPPC   C3B13847  12.767   7.090   5.361  0.0439 -0.4164  0.2365
    1DPPC   C4B13848  12.962   7.206   5.727 -0.0943 -0.2684 -0.1936
    1DPPC   NC313849   7.927  11.580   3.044 -0.1970  0.0673  0.0129
    1DPPC   PO413850   8.360  11.475   3.181  0.1527  0.1444 -0.1015
    1DPPC   GL113851   8.014  11.535   3.561 -0.4683 -0.0793 -0.0306
    1DPPC   GL213852   7.905  11.954   3.643 -0.0338 -0.0259  0.0103
    1DPPC   C1A13853   8.030  11.455   3.927 -0.4219  0.1689 -0.2968
    1DPPC   C2A13854   8.076  11.597   4.414  0.1886  0.1949  0.2609
    1DPPC   C3A13855   8.272  11.476   4.786  0.3783  0.3331  0.3447
    1DPPC   C4A13856   8.304  11.614   5.271 -0.0770 -0.1618 -0.0539
    1DPPC   C1B13857   7.945  11.967   4.069  0.0068 -0.2275 -0.3170
    1DPPC   C2B13858   7.716  12.123   4.484 -0.3161 -0.1899 -0.1236
    1DPPC   C3B13859   7.716  12.364   4.722 -0.0866 -0.0986 -0.1496
    1DPPC   C4B13860   7.637  12.680   5.036 -0.2991  0.0816 -0.1180
    1DPPC   NC313861   8.567  14.776   2.669  0.2123  0.0480 -0.3623
    1DPPC   PO413862   8.223  14.861   2.774 -0.3041 -0.2710 -0.0179
    1DPPC   GL113863   7.912  15.202   2.960 -0.4191 -0.2363 -0.0024
    1DPPC   GL213864   7.769  14.931   3.043  0.3529  0.1223  0.0217
    1DPPC   C1A13865   7.829  15.331   3.453  0.0971 -0.0265 -0.1367
    1DPPC   C2A13866   7.979  15.339   3.859  0.2557 -0.0910  0.2390
    1DPPC   C3A13867   7.751  15.630   4.291 -0.2620  0.0995  0.0359
    1DPPC   C4A13868   7.560  15.856   4.682 -0.1098  0.0418  0.0412
    1DPPC   C1B13869   7.548  14.850   3.399 -0.1402 -0.2998  0.0694
    1DPPC   C2B13870   7.633  14.971   3.826 -0.0089  0.1088 -0.2775
    1DPPC   C3B13871   7.729  15.117   4.238  0.0495  0.2608  0.0395
    1DPPC   C4B13872   8.094  15.265   4.313  0.0591  0.0879  0.3509
    1DPPC   NC313873  10.913  14.658   2.572 -0.1675  0.0803 -0.1258
    1DPPC   PO413874  11.109  14.870   2.917 -0.2563  0.0302  0.0397
    1DPPC   GL113875  10.995  15.014   3.255 -0.1222  0.0713  0.1283
    1DPPC   GL213876  10.933  15.421   3.260  0.2144 -0.0328 -0.1030
    1DPPC   C1A13877  10.703  15.112   3.517 -0.1862 -0.1313  0.4521
    1DPPC   C2A13878  10.623  15.151   3.927 -0.0485  0.0593  0.1815
    1DPPC   C3A13879  10.769  15.129   4.335 -0.1224  0.2400 -0.3858
    1DPPC   C4A13880  10.893  15.154   4.638 -0.0006 -0.0641 -0.1331
    1DPPC   C1B13881  10.899  15.505   3.704 -0.0741 -0.0761 -0.1664
    1DPPC   C2B13882  10.746  15.600   4.096  0.0470  0.1353 -0.0717
    1DPPC   C3B13883  10.841  15.646   4.529 -0.0404 -0.1941 -0.3706
    1DPPC   C4B13884  10.750  15.527   4.968 -0.0689 -0.1851  0.0358
    1DPPC   NC313885  16.653  12.700   2.534 -0.0280 -0.2241 -0.0014
    1DPPC   PO413886  16.775  12.485   2.809 -0.0206  0.2252  0.0791
    1DPPC   GL113887  16.541  12.227   3.078  0.0549 -0.0595 -0.1179
    1DPPC   GL213888  16.505  12.407   3.289  0.1600  0.2505  0.0118
    1DPPC   C1A13889  16.439  11.877   3.408 -0.0023  0.1251 -0.1446
    1DPPC   C2A13890  16.328  11.783   3.821  0.0036 -0.0157 -0.1091
    1DPPC   C3A13891  16.526  11.808   4.203  0.0886  0.0350 -0.1415
    1DPPC   C4A13892  16.522  11.556   4.571  0.2864 -0.0002 -0.0065
    1DPPC   C1B13893  16.798  12.213   3.503 -0.1118 -0.2294  0.1165
    1DPPC   C2B13894  16.830  12.080   3.861  0.2501 -0.0027 -0.0392
    1DPPC   C3B13895  17.001  12.076   4.201  0.0269  0.3115  0.1620
    1DPPC   C4B13896  16.829  11.979   4.586  0.1959 -0.1710  0.0002
    1DPPC   NC313897  16.627  19.694   3.292  0.0518 -0.0372 -0.0099
    1DPPC   PO413898  17.029  19.664   3.189  0.0899  0.0731 -0.0435
    1DPPC   GL113899  16.938  19.479   3.620  0.2293  0.0349 -0.0666
    1DPPC   GL213900  16.892  19.127   3.746 -0.1869  0.0382 -0.0554
    1DPPC   C1A13901  16.975  19.545   4.133 -0.0213  0.0061  0.1552
    1DPPC   C2A13902  16.752  19.478   4.529  0.0085 -0.1197  0.0072
    1DPPC   C3A13903  16.560  19.602   4.933  0.1825  0.0432 -0.0071
    1DPPC   C4A13904  16.612  19.636   5.314  0.2271  0.1683  0.1392
    1DPPC   C1B13905  16.859  19.046   4.142  0.1206 -0.1015 -0.3561
    1DPPC   C2B13906  16.690  18.961   4.500  0.1384 -0.2032 -0.1212
    1DPPC   C3B13907  16.459  18.731   4.819  0.0326  0.1255  0.1146
    1DPPC   C4B13908  16.268  18.502   5.145  0.1224  0.2852  0.2197
    1DPPC   NC313909  15.003   1.121   3.669  0.1125 -0.0534  0.2819
    1DPPC   PO413910  14.861   0.798   3.992 -0.3022  0.2662  0.2450
    1DPPC   GL113911  14.874   0.598   4.321  0.0215 -0.1155 -0.4217
    1DPPC   GL213912  14.919   0.875   4.510  0.0046 -0.1593 -0.1171
    1DPPC   C1A13913  14.665   0.137   4.550  0.1479 -0.0052  0.1475
    1DPPC   C2A13914  14.639  -0.096   4.895 -0.0480  0.2136  0.1195
    1DPPC   C3A13915  14.645  -0.505   5.018  0.0447  0.1444  0.1213
    1DPPC   C4A13916  14.665  -0.748   5.416  0.1614  0.1503 -0.1543
    1DPPC   C1B13917  14.987   1.037   4.753 -0.0920 -0.0760 -0.1803
    1DPPC   C2B13918  15.126   0.941   5.200 -0.1006 -0.0745 -0.0537
    1DPPC   C3B13919  15.229   1.162   5.517  0.2948 -0.1443  0.2898
    1DPPC   C4B13920  15.459   1.539   5.667  0.0555 -0.1315 -0.1497
    1DPPC   NC313921  10.726   8.497   3.375  0.1335  0.2062  0.4140
    1DPPC   PO413922  10.395   8.729   3.449  0.1553 -0.1327  0.1223
    1DPPC   GL113923  10.603   8.630   3.896 -0.0171 -0.1601 -0.3128
    1DPPC   GL213924  10.890   8.616   3.801  0.0804  0.0656 -0.0917
    1DPPC   C1A13925  10.746   8.547   4.345 -0.1388 -0.0205 -0.0904
    1DPPC   C2A13926  10.817   8.531   4.801  0.2968  0.0493 -0.0665
    1DPPC   C3A13927  10.907   8.344   5.209  0.3340  0.0041 -0.0591
    1DPPC   C4A13928  10.881   8.312   5.622 -0.0366 -0.0376 -0.2155
    1DPPC   C1B13929  11.084   8.282   4.047 -0.1415 -0.3823 -0.0954
    1DPPC   C2B13930  11.059   8.146   4.521 -0.2333 -0.0974 -0.0760
    1DPPC   C3B13931  11.216   8.105   4.974  0.1456  0.2990  0.1242
    1DPPC   C4B13932  11.597   7.870   5.050  0.3283  0.3526 -0.0061
    1DPPC   NC313933  11.063  11.256   3.132 -0.1255  0.0986 -0.0452
    1DPPC   PO413934  11.408  11.538   3.202 -0.3148  0.0855 -0.0438
    1DPPC   GL113935  11.222  11.750   3.499 -0.0405  0.1459 -0.2584
    1DPPC   GL213936  10.986  11.523   3.562 -0.1319 -0.0011 -0.0567
    1DPPC   C1A13937  11.324  11.709   3.885  0.3785 -0.2043 -0.2292
    1DPPC   C2A13938  11.292  11.679   4.309  0.4078 -0.2293 -0.1388
    1DPPC   C3A13939  11.358  11.725   4.738 -0.1038  0.0355  0.1498
    1DPPC   C4A13940  11.379  12.028   5.123  0.1037  0.0970 -0.0475
    1DPPC   C1B13941  10.940  11.468   4.015  0.0274  0.3008  0.2553
    1DPPC   C2B13942  10.803  11.429   4.371  0.1262 -0.0405 -0.1990
    1DPPC   C3B13943  10.755  11.378   4.827  0.1572 -0.1170 -0.0967
    1DPPC   C4B13944  10.848  11.405   5.252  0.2514 -0.1947  0.2254
    1DPPC   NC313945  21.814  11.815   3.277 -0.1905  0.4618 -0.1501
    1DPPC   PO413946  22.246  11.693   3.426 -0.0736 -0.0460  0.3269
    1DPPC   GL113947  22.288  11.514   3.851  0.1785 -0.0530 -0.3019
    1DPPC   GL213948  22.361  11.280   3.824 -0.1739  0.1818  0.0866
    1DPPC   C1A13949  22.056  11.495   4.194  0.0175  0.1461 -0.0726
    1DPPC   C2A13950  22.045  11.539   4.568  0.0145 -0.0610 -0.1662
    1DPPC   C3A13951  22.212  11.474   4.965  0.0448 -0.1120 -0.0425
    1DPPC   C4A13952  22.185  11.752   5.251 -0.1993 -0.1018 -0.4190
    1DPPC   C1B13953  22.583  11.372   4.248 -0.1578  0.0252 -0.0199
    1DPPC   C2B13954  22.548  11.540   4.637 -0.1620  0.2751 -0.3001
    1DPPC   C3B13955  22.653  11.734   5.047  0.3849  0.0600  0.1410
    1DPPC   C4B13956  22.668  12.195   5.343  0.6162 -0.1418  0.0634
    1DPPC   NC313957  22.988  17.463   2.705 -0.2524 -0.0790  0.0326
    1DPPC   PO413958  23.220  17.206   2.920 -0.2330 -0.3581  0.0774
    1DPPC   GL113959  23.359  17.353   3.246 -0.0890  0.0388  0.1064
    1DPPC   GL213960  23.511  17.652   3.176 -0.0846  0.2785 -0.0183
    1DPPC   C1A13961  23.558  17.050   3.620  0.1341 -0.0474 -0.1218
    1DPPC   C2A13962  23.899  17.115   3.789 -0.0846  0.0905 -0.0575
    1DPPC   C3A13963  24.386  16.940   3.592 -0.4167 -0.0143 -0.4304
    1DPPC   C4A13964  24.782  16.786   3.665  0.0678  0.0227 -0.3685
    1DPPC   C1B13965  23.475  17.996   3.346 -0.1482  0.1304  0.1535
    1DPPC   C2B13966  23.523  18.405   3.442 -0.0493  0.0083 -0.3053
    1DPPC   C3B13967  23.637  18.604   3.693 -0.2013  0.1124 -0.0763
    1DPPC   C4B13968  23.658  18.833   4.101 -0.0185 -0.1775  0.3505
    1DPPC   NC313969  10.471  10.599   2.981  0.0720 -0.5272  0.0191
    1DPPC   PO413970  10.886  10.720   3.183  0.0410  0.1114  0.0669
    1DPPC   GL113971  11.043  10.891   3.460 -0.4429 -0.2188 -0.1980
    1DPPC   GL213972  10.807  10.957   3.669  0.0206 -0.1596 -0.3464
    1DPPC   C1A13973  11.246  11.145   3.763 -0.2880 -0.1199 -0.0188
    1DPPC   C2A13974  11.273  11.159   4.154  0.2427 -0.2491 -0.0791
    1DPPC   C3A13975  11.206  11.199   4.606 -0.0254  0.0760  0.0812
    1DPPC   C4A13976  11.172  11.088   4.949 -0.3409  0.0891 -0.1444
    1DPPC   C1B13977  10.842  10.996   4.066  0.2029 -0.1710  0.0152
    1DPPC   C2B13978  10.822  10.958   4.502 -0.0042  0.1221 -0.2117
    1DPPC   C3B13979  10.806  10.779   4.932 -0.2127  0.0376 -0.1060
    1DPPC   C4B13980  10.784  10.876   5.411 -0.2886  0.0761  0.0921
    1DPPC   NC313981  20.499  19.585   3.152  0.2797  0.3048 -0.2390
    1DPPC   PO413982  20.795  19.482   3.443  0.0554  0.1033 -0.0787
    1DPPC   GL113983  20.947  19.330   3.709 -0.1554  0.0788  0.3883
    1DPPC   GL213984  21.218  19.387   3.840 -0.3860  0.0829  0.1455
    1DPPC   C1A13985  20.775  19.247   4.110  0.0494 -0.0560 -0.3434
    1DPPC   C2A13986  20.866  19.304   4.527  0.1914 -0.1113 -0.0608
    1DPPC   C3A13987  21.102  19.416   4.908  0.1211 -0.0468 -0.1469
    1DPPC   C4A13988  21.076  19.395   5.363  0.1230  0.1404  0.1866
    1DPPC   C1B13989  21.262  19.281   4.149  0.0248 -0.0781 -0.2035
    1DPPC   C2B13990  21.341  19.114   4.523  0.3524  0.1751  0.1242
    1DPPC   C3B13991  21.488  19.038   4.975  0.0800 -0.3236  0.0652
    1DPPC   C4B13992  21.663  18.827   5.256 -0.0993  0.1534 -0.1397
    1DPPC   NC313993  16.923  15.034   2.582 -0.0066 -0.0205 -0.2122
    1DPPC   PO413994  17.218  15.369   2.604 -0.0357 -0.1967  0.3289
    1DPPC   GL113995  17.139  15.155   3.007  0.0780 -0.0658  0.0061
    1DPPC   GL213996  17.080  14.805   3.122 -0.1860  0.1105  0.0424
    1DPPC   C1A13997  16.815  15.311   3.313  0.1749 -0.2358  0.2234
    1DPPC   C2A13998  16.511  15.358   3.684 -0.0839  0.1702  0.0097
    1DPPC   C3A13999  16.436  15.368   4.047 -0.0255 -0.0559 -0.3695
    1DPPC   C4A14000  16.216  15.546   4.369 -0.1809 -0.1390  0.0205
    1DPPC   C1B14001  17.157  14.596   3.504 -0.0323 -0.1110 -0.2819
    1DPPC   C2B14002  17.192  14.535   3.993  0.0515 -0.2964  0.1046
    1DPPC   C3B14003  17.053  14.628   4.350  0.2437 -0.0577  0.2594
    1DPPC   C4B14004  16.889  14.778   4.740  0.0033 -0.0924  0.3030
    1DPPC   NC314005  21.625  19.143   3.081 -0.2707  0.0940 -0.1570
    1DPPC   PO414006  21.852  18.769   3.251  0.2402  0.1824 -0.1262
    1DPPC   GL114007  21.727  18.709   3.580 -0.0086 -0.0818 -0.0526
    1DPPC   GL214008  21.884  18.716   3.762  0.0391 -0.0303  0.1013
    1DPPC   C1A14009  21.496  18.367   3.974  0.0299  0.0556  0.0282
    1DPPC   C2A14010  21.324  18.437   4.300  0.0108 -0.1232  0.0431
    1DPPC   C3A14011  21.063  18.717   4.428  0.1196 -0.2189 -0.1871
    1DPPC   C4A14012  20.958  18.933   4.860 -0.0570 -0.0368 -0.2225
    1DPPC   C1B14013  22.179  18.821   4.102 -0.1649 -0.1437  0.2163
    1DPPC   C2B14014  22.410  18.813   4.479 -0.0930 -0.2417  0.0952
    1DPPC   C3B14015  22.818  18.829   4.766 -0.0802  0.1764  0.0737
    1DPPC   C4B14016  23.173  18.928   5.067  0.0122 -0.5439  0.0781
    1DPPC   NC314017  10.219  16.139   2.414  0.3181 -0.0319 -0.3467
    1DPPC   PO414018  10.631  16.271   2.694  0.0323 -0.0188 -0.0343
    1DPPC   GL114019  10.581  16.360   3.071 -0.1393 -0.0224  0.0573
    1DPPC   GL214020  10.350  16.580   3.069  0.0384 -0.3721 -0.2425
    1DPPC   C1A14021  10.284  16.293   3.452 -0.3841 -0.0430  0.1674
    1DPPC   C2A14022  10.355  16.430   3.813 -0.0536  0.2515  0.1601
    1DPPC   C3A14023  10.197  16.385   4.203 -0.0234 -0.1703  0.2007
    1DPPC   C4A14024  10.016  16.221   4.599  0.0529 -0.2334  0.0795
    1DPPC   C1B14025  10.391  16.809   3.389  0.1313  0.0304 -0.0208
    1DPPC   C2B14026  10.415  16.910   3.778 -0.0027  0.2059  0.0397
    1DPPC   C3B14027  10.399  16.943   4.159 -0.0027 -0.2555  0.1148
    1DPPC   C4B14028  10.369  16.762   4.564  0.1850 -0.0140 -0.0110
    1DPPC   NC314029   7.652   9.673   2.680 -0.1198 -0.4865  0.1445
    1DPPC   PO414030   7.755   9.846   3.185  0.1811  0.1236  0.1299
    1DPPC   GL114031   7.883   9.900   3.566  0.2546 -0.2731  0.0687
    1DPPC   GL214032   7.611  10.053   3.673 -0.1199  0.0263 -0.1911
    1DPPC   C1A14033   8.047  10.183   3.829 -0.1608  0.0164  0.2207
    1DPPC   C2A14034   8.127  10.249   4.262 -0.0093  0.0681 -0.2193
    1DPPC   C3A14035   8.071  10.252   4.738 -0.0351 -0.0346  0.0345
    1DPPC   C4A14036   8.124  10.231   5.104  0.2059 -0.2762  0.3671
    1DPPC   C1B14037   7.642  10.004   4.138  0.1012  0.0297  0.2277
    1DPPC   C2B14038   7.524  10.161   4.518 -0.1544  0.0301 -0.0870
    1DPPC   C3B14039   7.593  10.168   4.910 -0.2604 -0.0189  0.1418
    1DPPC   C4B14040   7.638   9.984   5.317  0.1173 -0.0918  0.0326
    1DPPC   NC314041  26.888  23.209   2.878 -0.0559 -0.0744 -0.1825
    1DPPC   PO414042  26.932  23.517   3.118  0.3202  0.2374 -0.0520
    1DPPC   GL114043  26.905  23.295   3.418 -0.0904  0.0197 -0.1146
    1DPPC   GL214044  27.079  23.048   3.309  0.1006  0.0034 -0.0428
    1DPPC   C1A14045  26.787  23.165   3.856  0.3771  0.3998  0.1456
    1DPPC   C2A14046  26.662  23.066   4.189  0.0875  0.0455 -0.1983
    1DPPC   C3A14047  26.797  23.358   4.608  0.4289 -0.0952 -0.0770
    1DPPC   C4A14048  27.091  23.543   4.885 -0.1531  0.0245 -0.2744
    1DPPC   C1B14049  27.235  22.991   3.626 -0.0206 -0.0827 -0.1860
    1DPPC   C2B14050  27.226  22.986   4.021 -0.0485  0.1586  0.1415
    1DPPC   C3B14051  27.026  22.743   4.258  0.1182 -0.3181  0.0278
    1DPPC   C4B14052  26.813  22.733   4.677 -0.0267  0.2017 -0.0917
    1DPPC   NC314053  10.762  10.418   3.547  0.2585 -0.0686 -0.0627
    1DPPC   PO414054  10.397  10.060   3.552  0.3646  0.0196 -0.2429
    1DPPC   GL114055  10.069   9.853   3.816  0.3714 -0.0312 -0.1124
    1DPPC   GL214056  10.026   9.607   3.758 -0.0478  0.1177  0.0396
    1DPPC   C1A14057   9.979   9.777   4.240 -0.0492  0.2532  0.1489
    1DPPC   C2A14058   9.992   9.711   4.652 -0.0114 -0.1508 -0.1175
    1DPPC   C3A14059   9.817   9.813   4.968  0.4934  0.1202 -0.2915
    1DPPC   C4A14060   9.757   9.858   5.437 -0.0479 -0.2286  0.2409
    1DPPC   C1B14061   9.930   9.344   4.079 -0.0284  0.0303  0.2035
    1DPPC   C2B14062   9.886   9.242   4.376  0.0235 -0.0764 -0.1299
    1DPPC   C3B14063   9.892   9.221   4.883  0.0251  0.0928 -0.3271
    1DPPC   C4B14064   9.842   9.275   5.257 -0.0606 -0.1610  0.1580
    1DPPC   NC314065  15.739  18.864   3.032 -0.1960 -0.2519 -0.1527
    1DPPC   PO414066  15.305  18.875   2.858  0.1585  0.2655 -0.1362
    1DPPC   GL114067  15.349  18.609   3.320 -0.1319 -0.0810 -0.0010
    1DPPC   GL214068  15.243  18.934   3.555 -0.2111  0.0310  0.0154
    1DPPC   C1A14069  15.258  18.422   3.807  0.1534  0.0464  0.1039
    1DPPC   C2A14070  15.296  18.367   4.258 -0.0815  0.0768  0.1579
    1DPPC   C3A14071  15.356  18.136   4.752  0.1062 -0.3107  0.2445
    1DPPC   C4A14072  15.227  18.201   5.222  0.0349 -0.0191 -0.0451
    1DPPC   C1B14073  15.121  18.845   3.984  0.1168 -0.1031 -0.2666
    1DPPC   C2B14074  15.302  18.925   4.409 -0.1067 -0.0995 -0.2402
    1DPPC   C3B14075  15.084  19.070   4.829 -0.1197 -0.0931 -0.1325
    1DPPC   C4B14076  15.098  18.942   5.280  0.2192 -0.0298  0.3353
    1DPPC   NC314077  19.311  16.242   2.046 -0.1340 -0.1183 -0.1825
    1DPPC   PO414078  19.383  16.150   2.522 -0.0641  0.3009 -0.0265
    1DPPC   GL114079  19.331  16.171   2.984 -0.1048  0.0353 -0.1283
    1DPPC   GL214080  19.143  16.503   3.166  0.0011 -0.0705 -0.0087
    1DPPC   C1A14081  19.432  16.241   3.436 -0.0186 -0.0370  0.0270
    1DPPC   C2A14082  19.347  16.261   3.845 -0.0694 -0.0200  0.0140
    1DPPC   C3A14083  19.292  16.196   4.336 -0.2492 -0.0777  0.2015
    1DPPC   C4A14084  19.472  16.124   4.709 -0.0321 -0.2236  0.1399
    1DPPC   C1B14085  18.971  16.286   3.560  0.1799 -0.4138 -0.1082
    1DPPC   C2B14086  18.893  16.274   4.032 -0.2188 -0.0384 -0.0687
    1DPPC   C3B14087  18.877  16.398   4.452  0.1521  0.0968 -0.1307
    1DPPC   C4B14088  19.032  16.415   4.779 -0.2994  0.0961 -0.2642
    1DPPC   NC314089  21.435  16.117   2.505 -0.1317  0.0671  0.1886
    1DPPC   PO414090  21.111  16.261   2.835 -0.1819 -0.2440  0.1693
    1DPPC   GL114091  21.005  16.400   3.167  0.0906 -0.1791  0.1900
    1DPPC   GL214092  21.412  16.425   3.246 -0.0912 -0.1277 -0.1802
    1DPPC   C1A14093  20.830  16.301   3.476  0.1227  0.0130  0.0296
    1DPPC   C2A14094  20.940  16.333   3.887  0.1370  0.1621 -0.0774
    1DPPC   C3A14095  20.969  16.307   4.403  0.1303 -0.0427 -0.1318
    1DPPC   C4A14096  20.736  16.313   4.775  0.1796  0.0695  0.1218
    1DPPC   C1B14097  21.373  16.522   3.654 -0.0100 -0.0398 -0.1425
    1DPPC   C2B14098  21.503  16.412   4.090 -0.1350  0.2637 -0.1344
    1DPPC   C3B14099  21.580  16.152   4.453  0.1180 -0.0900  0.1201
    1DPPC   C4B14100  21.323  16.219   4.816 -0.2327  0.1178 -0.0417
    1DPPC   NC314101  12.860  13.297   3.197  0.0346 -0.2413  0.0017
    1DPPC   PO414102  13.156  13.546   3.006 -0.0962 -0.1064  0.3608
    1DPPC   GL114103  13.527  13.419   3.249 -0.0169 -0.3300  0.2975
    1DPPC   GL214104  13.585  13.107   3.264  0.1020  0.2284 -0.0610
    1DPPC   C1A14105  13.522  13.644   3.635  0.0152  0.0098  0.0656
    1DPPC   C2A14106  13.456  13.647   4.031  0.0481 -0.2297  0.1808
    1DPPC   C3A14107  13.462  13.694   4.457  0.1898 -0.0040  0.1708
    1DPPC   C4A14108  13.271  13.640   4.797 -0.1727 -0.4927  0.0061
    1DPPC   C1B14109  13.400  13.125   3.698  0.2363 -0.2809  0.0249
    1DPPC   C2B14110  13.435  13.091   4.170  0.1810  0.1678 -0.0797
    1DPPC   C3B14111  13.194  13.188   4.599 -0.1721  0.2132 -0.0106
    1DPPC   C4B14112  13.127  13.145   5.017 -0.0344 -0.0105  0.2530
    1DPPC   NC314113  21.144  12.456   3.227 -0.0177 -0.0137 -0.2727
    1DPPC   PO414114  20.938  12.090   3.098 -0.2458 -0.2250  0.4565
    1DPPC   GL114115  21.220  12.129   3.550  0.0802  0.1010 -0.0744
    1DPPC   GL214116  21.496  11.885   3.646  0.2168 -0.1446  0.6069
    1DPPC   C1A14117  21.259  12.189   3.976  0.0981  0.0111  0.1958
    1DPPC   C2A14118  21.312  12.146   4.444  0.0729 -0.0251 -0.0742
    1DPPC   C3A14119  21.332  12.117   4.967  0.0153 -0.0390  0.1779
    1DPPC   C4A14120  21.038  12.058   5.177 -0.0917 -0.0583 -0.0383
    1DPPC   C1B14121  21.644  11.866   4.142 -0.0096  0.0901 -0.1269
    1DPPC   C2B14122  21.805  12.196   4.439 -0.1417  0.0886  0.3099
    1DPPC   C3B14123  21.713  12.402   4.782 -0.0840 -0.3217  0.0580
    1DPPC   C4B14124  21.737  12.493   5.245 -0.1674  0.2063  0.1253
    1DPPC   NC314125  12.821  19.616   2.351 -0.1169  0.1172  0.0414
    1DPPC   PO414126  12.719  19.617   2.831  0.1303 -0.0710 -0.1386
    1DPPC   GL114127  12.633  19.589   3.198  0.2170 -0.1509 -0.1325
    1DPPC   GL214128  12.904  19.546   3.394 -0.1470 -0.1047 -0.2342
    1DPPC   C1A14129  12.339  19.580   3.418 -0.3821  0.1313  0.2747
    1DPPC   C2A14130  12.577  19.612   3.882  0.2799  0.2355  0.2923
    1DPPC   C3A14131  12.612  19.598   4.358 -0.0210 -0.4671 -0.0594
    1DPPC   C4A14132  12.678  19.825   4.763 -0.0024  0.1276 -0.1512
    1DPPC   C1B14133  12.995  19.911   3.679  0.0679  0.2012  0.2224
    1DPPC   C2B14134  12.802  20.016   4.010  0.0682 -0.1651  0.2189
    1DPPC   C3B14135  12.446  20.087   4.250 -0.0030 -0.3464 -0.0519
    1DPPC   C4B14136  12.116  19.919   4.533 -0.1983  0.1873 -0.0258
    1DPPC   NC314137  15.870  21.061   3.302 -0.0191 -0.0965  0.0016
    1DPPC   PO414138  15.798  20.625   3.474 -0.0028  0.1637 -0.1045
    1DPPC   GL114139  15.724  20.787   3.833  0.0375  0.0593  0.0794
    1DPPC   GL214140  15.877  20.668   3.960  0.0961 -0.0893  0.2659
    1DPPC   C1A14141  15.558  20.749   4.332 -0.1124  0.1994 -0.0106
    1DPPC   C2A14142  15.813  20.706   4.693  0.2388 -0.1646  0.1929
    1DPPC   C3A14143  16.068  20.408   4.493 -0.0555 -0.0910 -0.0699
    1DPPC   C4A14144  16.057  20.072   4.334  0.0883  0.3229  0.1122
    1DPPC   C1B14145  16.218  20.822   4.222 -0.2822  0.3671  0.0084
    1DPPC   C2B14146  16.265  20.952   4.607 -0.0335  0.0299 -0.1185
    1DPPC   C3B14147  16.189  20.783   4.998 -0.0070  0.0428  0.1102
    1DPPC   C4B14148  16.324  20.603   5.301  0.1934 -0.0594  0.0388
    1DPPC   NC314149  13.659  16.089   2.829  0.1656 -0.1253 -0.0195
    1DPPC   PO414150  13.545  15.662   2.933  0.0584  0.0737 -0.0348
    1DPPC   GL114151  13.790  15.814   3.239  0.0910 -0.2089 -0.0732
    1DPPC   GL214152  13.779  15.530   3.396 -0.1255  0.1237 -0.0054
    1DPPC   C1A14153  13.990  16.024   3.540 -0.2342 -0.0371  0.0820
    1DPPC   C2A14154  13.895  15.999   4.008  0.0081  0.0295  0.2630
    1DPPC   C3A14155  13.750  15.999   4.401 -0.2632 -0.0768  0.0448
    1DPPC   C4A14156  13.767  16.047   4.843  0.1937  0.0043  0.2743
    1DPPC   C1B14157  14.048  15.545   3.777  0.1169  0.2298  0.1140
    1DPPC   C2B14158  14.041  15.626   4.240  0.0735 -0.0540 -0.2999
    1DPPC   C3B14159  14.008  15.568   4.674  0.1302  0.1447  0.0892
    1DPPC   C4B14160  14.129  15.619   5.128 -0.0456  0.0003  0.2000
    1DPPC   NC314161  14.552  19.469   3.212  0.2219 -0.1385  0.1151
    1DPPC   PO414162  14.743  19.836   3.130  0.1763  0.0729 -0.0966
    1DPPC   GL114163  14.833  19.818   3.516  0.0294 -0.0873 -0.6370
    1DPPC   GL214164  14.648  19.708   3.685  0.0887  0.1579 -0.0390
    1DPPC   C1A14165  14.959  20.083   3.927 -0.0613 -0.1604  0.0962
    1DPPC   C2A14166  14.978  19.971   4.300 -0.1572 -0.2060  0.1162
    1DPPC   C3A14167  15.045  20.106   4.797 -0.0199 -0.2935 -0.0173
    1DPPC   C4A14168  15.041  20.142   5.177 -0.2380  0.1201  0.2258
    1DPPC   C1B14169  14.568  19.794   4.110 -0.2348 -0.1420 -0.1307
    1DPPC   C2B14170  14.613  19.718   4.452  0.2301  0.0279 -0.2502
    1DPPC   C3B14171  14.960  19.636   4.781 -0.1499  0.0240  0.1808
    1DPPC   C4B14172  14.927  19.605   5.124  0.1980  0.3376 -0.3448
    1DPPC   NC314173  18.654  15.069   2.473  0.1396 -0.0621  0.5182
    1DPPC   PO414174  18.210  15.002   2.642 -0.0773 -0.0181  0.0609
    1DPPC   GL114175  18.088  15.052   3.109 -0.0079  0.4014 -0.1702
    1DPPC   GL214176  18.295  14.804   3.198  0.1339 -0.1808 -0.3055
    1DPPC   C1A14177  17.895  15.058   3.475  0.0284 -0.1368  0.1919
    1DPPC   C2A14178  17.918  15.087   3.932 -0.0784 -0.0304  0.0259
    1DPPC   C3A14179  17.913  15.045   4.374 -0.0734  0.1727 -0.0595
    1DPPC   C4A14180  18.009  14.847   4.814  0.5215  0.1605  0.1936
    1DPPC   C1B14181  18.196  14.674   3.512 -0.1092  0.0762 -0.1407
    1DPPC   C2B14182  18.115  14.619   3.935  0.2224 -0.4299  0.1646
    1DPPC   C3B14183  18.118  14.591   4.387 -0.0787  0.0649 -0.0895
    1DPPC   C4B14184  18.243  14.405   4.857 -0.0676 -0.1414  0.1868
    1DPPC   NC314185  19.412  15.708   2.761  0.2175  0.0399  0.1769
    1DPPC   PO414186  19.847  15.632   2.632  0.0371 -0.1694  0.0475
    1DPPC   GL114187  19.945  15.814   3.095 -0.0423  0.0787 -0.0205
    1DPPC   GL214188  19.610  15.821   3.250 -0.1608 -0.1045  0.0631
    1DPPC   C1A14189  20.090  15.652   3.474  0.2621 -0.2206 -0.0889
    1DPPC   C2A14190  20.034  15.657   3.907  0.0697 -0.1241  0.3633
    1DPPC   C3A14191  20.191  15.496   4.249 -0.1751 -0.1502 -0.0297
    1DPPC   C4A14192  20.209  15.494   4.635 -0.1598 -0.1010 -0.0284
    1DPPC   C1B14193  19.539  15.699   3.603 -0.1416 -0.0787 -0.2693
    1DPPC   C2B14194  19.505  15.799   4.068  0.1228 -0.1050  0.2389
    1DPPC   C3B14195  19.413  15.613   4.474 -0.0280 -0.0616  0.1146
    1DPPC   C4B14196  19.311  15.693   4.851 -0.1602  0.2842  0.1477
    1DPPC   NC314197   9.029  17.237   2.722  0.1419  0.4006  0.0116
    1DPPC   PO414198   8.894  17.616   2.680 -0.0213  0.2890  0.1842
    1DPPC   GL114199   8.808  17.823   2.969 -0.0580  0.3133 -0.0301
    1DPPC   GL214200   8.533  18.026   3.010  0.1253  0.0160  0.1352
    1DPPC   C1A14201   8.776  17.785   3.427 -0.3037  0.3462  0.2790
    1DPPC   C2A14202   8.615  17.839   3.808  0.1150  0.0750  0.1404
    1DPPC   C3A14203   8.302  17.977   4.103  0.1188 -0.0140  0.4895
    1DPPC   C4A14204   7.963  18.044   4.412  0.2179  0.2026  0.1434
    1DPPC   C1B14205   8.495  18.243   3.379 -0.0863 -0.0721 -0.1272
    1DPPC   C2B14206   8.539  18.373   3.802 -0.0672  0.3169  0.1155
    1DPPC   C3B14207   8.752  18.647   3.804  0.3285  0.1463  0.2179
    1DPPC   C4B14208   8.704  19.071   3.971  0.0462 -0.1869 -0.5074
    1DPPC   NC314209  15.444   7.008   3.299  0.2429  0.0048 -0.1018
    1DPPC   PO414210  15.326   6.797   3.775 -0.1560  0.0007  0.2461
    1DPPC   GL114211  15.377   6.650   4.228  0.1465  0.1219 -0.0455
    1DPPC   GL214212  15.728   6.705   4.200 -0.0172 -0.1656  0.2660
    1DPPC   C1A14213  15.351   6.720   4.689 -0.0699  0.0133 -0.3992
    1DPPC   C2A14214  15.472   6.798   5.148 -0.0035 -0.0864 -0.0466
    1DPPC   C3A14215  15.712   6.824   5.484 -0.1858 -0.0254  0.1711
    1DPPC   C4A14216  16.020   6.975   5.690  0.1242  0.1501  0.0033
    1DPPC   C1B14217  15.855   6.682   4.647  0.2284 -0.1016  0.0428
    1DPPC   C2B14218  15.961   6.782   5.050  0.0261 -0.1384 -0.0083
    1DPPC   C3B14219  16.295   7.020   5.158 -0.1966 -0.3360 -0.1506
    1DPPC   C4B14220  16.601   7.322   4.953 -0.4883  0.3477  0.1763
    1DPPC   NC314221  22.543  12.920   2.667  0.0804  0.0582  0.4466
    1DPPC   PO414222  22.793  12.788   3.002 -0.0034 -0.1479 -0.1438
    1DPPC   GL114223  22.684  12.842   3.428  0.0555  0.2307  0.1205
    1DPPC   GL214224  22.607  12.558   3.502 -0.3842 -0.0477 -0.2193
    1DPPC   C1A14225  22.968  12.884   3.812  0.1186 -0.1369  0.1586
    1DPPC   C2A14226  23.356  12.846   4.105  0.1507 -0.1356  0.3354
    1DPPC   C3A14227  23.584  12.549   4.462  0.1084 -0.0295  0.5272
    1DPPC   C4A14228  24.015  12.238   4.629  0.0959  0.1564  0.0497
    1DPPC   C1B14229  22.500  12.620   3.965  0.0002  0.1231  0.1567
    1DPPC   C2B14230  22.384  12.387   4.256 -0.0273  0.1591  0.1075
    1DPPC   C3B14231  22.557  12.419   4.652  0.0858  0.0667  0.1052
    1DPPC   C4B14232  22.560  12.700   4.979 -0.0243  0.2300 -0.0034
    1DPPC   NC314233  11.758   8.061   2.769  0.3766  0.1232 -0.1776
    1DPPC   PO414234  12.000   8.373   3.128 -0.2200 -0.1954 -0.2570
    1DPPC   GL114235  12.100   8.189   3.592  0.2693  0.1954  0.3357
    1DPPC   GL214236  11.869   7.900   3.672  0.0602 -0.1578 -0.2749
    1DPPC   C1A14237  12.122   8.462   3.949 -0.0875  0.2246  0.2952
    1DPPC   C2A14238  12.157   8.574   4.331  0.0448 -0.1687  0.0462
    1DPPC   C3A14239  12.150   8.467   4.773  0.0868  0.0186  0.3445
    1DPPC   C4A14240  12.346   8.293   5.093  0.1633 -0.0231 -0.2543
    1DPPC   C1B14241  11.827   7.753   4.096  0.1128  0.0253 -0.0724
    1DPPC   C2B14242  11.808   7.624   4.491 -0.1272  0.0782 -0.1587
    1DPPC   C3B14243  11.731   7.303   4.829 -0.0865  0.0414  0.3621
    1DPPC   C4B14244  11.677   6.881   4.948  0.0135  0.1729 -0.1126
    1DPPC   NC314245  18.629  19.027   3.105  0.3225 -0.0766  0.1770
    1DPPC   PO414246  18.730  18.700   3.316  0.1027  0.1844  0.0882
    1DPPC   GL114247  18.859  18.660   3.691 -0.1152 -0.0893  0.3506
    1DPPC   GL214248  19.168  18.762   3.733  0.1673 -0.1347 -0.3970
    1DPPC   C1A14249  18.719  18.414   4.053  0.1465 -0.0443 -0.1596
    1DPPC   C2A14250  18.771  18.467   4.446  0.1901 -0.0550 -0.1971
    1DPPC   C3A14251  19.026  18.598   4.749  0.5325  0.0290  0.0843
    1DPPC   C4A14252  19.088  18.264   5.031  0.1247 -0.3710  0.1293
    1DPPC   C1B14253  19.156  18.837   4.148  0.1036  0.0872 -0.0337
    1DPPC   C2B14254  19.205  19.130   4.428 -0.0040 -0.0641 -0.0607
    1DPPC   C3B14255  19.166  19.143   4.847  0.1526  0.2092  0.3118
    1DPPC   C4B14256  19.173  18.917   5.158 -0.1656  0.3323  0.0048
    1DPPC   NC314257  23.083  23.604   3.069 -0.1412 -0.1150  0.1831
    1DPPC   PO414258  22.712  23.436   3.277  0.3084  0.1293  0.0888
    1DPPC   GL114259  22.735  23.168   3.615  0.0723  0.1097 -0.0889
    1DPPC   GL214260  22.866  22.878   3.502  0.3849  0.0001 -0.1569
    1DPPC   C1A14261  22.822  23.064   3.978  0.0234  0.2214 -0.4119
    1DPPC   C2A14262  22.868  22.890   4.429  0.4107  0.3651 -0.0695
    1DPPC   C3A14263  22.584  23.107   4.683 -0.2068 -0.1476 -0.0577
    1DPPC   C4A14264  22.469  23.564   4.828  0.1987  0.1084  0.2368
    1DPPC   C1B14265  23.286  23.019   3.776  0.1147 -0.1950  0.0112
    1DPPC   C2B14266  23.632  22.816   3.848  0.1131  0.1062  0.1923
    1DPPC   C3B14267  23.884  22.613   4.139 -0.0060  0.0070  0.4201
    1DPPC   C4B14268  24.158  22.367   4.297  0.1141  0.2836 -0.3605
    1DPPC   NC314269   5.952  16.671   2.147  0.0142 -0.1199 -0.1732
    1DPPC   PO414270   5.678  16.491   2.490  0.0881 -0.1296  0.0545
    1DPPC   GL114271   5.873  16.501   2.840 -0.0450  0.0689  0.1435
    1DPPC   GL214272   5.759  16.342   3.038 -0.2902 -0.0754 -0.1281
    1DPPC   C1A14273   6.251  16.332   3.092 -0.1167  0.0512 -0.0447
    1DPPC   C2A14274   6.340  16.488   3.449  0.0540 -0.0224  0.0645
    1DPPC   C3A14275   6.124  16.658   3.787  0.0961  0.1337  0.1584
    1DPPC   C4A14276   6.150  16.622   4.166  0.2548 -0.1170 -0.0319
    1DPPC   C1B14277   5.667  16.035   3.263 -0.1895 -0.1187 -0.0671
    1DPPC   C2B14278   5.693  15.910   3.598  0.0344  0.1125 -0.4470
    1DPPC   C3B14279   6.006  15.762   3.879 -0.2733  0.1474  0.0306
    1DPPC   C4B14280   6.444  15.727   4.254 -0.1909 -0.1379  0.2984
    1DPPC   NC314281  20.682  18.819   3.462 -0.1181 -0.0325  0.0815
    1DPPC   PO414282  20.468  18.550   3.212 -0.2507  0.1875 -0.1440
    1DPPC   GL114283  20.410  18.272   3.624  0.3737 -0.1523 -0.0439
    1DPPC   GL214284  20.654  18.034   3.676 -0.2212 -0.2409  0.0288
    1DPPC   C1A14285  20.279  18.233   4.092 -0.0854  0.3652 -0.0163
    1DPPC   C2A14286  20.326  18.138   4.465 -0.2233 -0.0752  0.2079
    1DPPC   C3A14287  20.460  18.202   4.916  0.2439  0.2466 -0.0666
    1DPPC   C4A14288  20.230  18.148   5.241  0.1327 -0.2241  0.0534
    1DPPC   C1B14289  20.701  17.920   4.093  0.1569 -0.0755  0.0867
    1DPPC   C2B14290  20.729  17.766   4.549 -0.0639  0.2097 -0.1280
    1DPPC   C3B14291  20.777  17.863   4.973  0.1326  0.1669  0.1034
    1DPPC   C4B14292  20.642  17.914   5.360  0.0776 -0.0723 -0.1379
    1DPPC   NC314293  18.166   8.334   2.438 -0.1034  0.0106 -0.0919
    1DPPC   PO414294  18.622   8.235   2.666  0.1392 -0.4512  0.1207
    1DPPC   GL114295  18.611   8.531   3.013  0.3418  0.2098  0.1179
    1DPPC   GL214296  18.934   8.685   3.170  0.0800 -0.2236  0.0355
    1DPPC   C1A14297  18.542   8.674   3.410 -0.1184 -0.1581  0.0449
    1DPPC   C2A14298  18.621   8.950   3.811  0.1274 -0.6150  0.0593
    1DPPC   C3A14299  18.604   9.211   4.190  0.2418 -0.0242 -0.3005
    1DPPC   C4A14300  18.704   9.524   4.443  0.0770 -0.2214  0.0704
    1DPPC   C1B14301  18.995   9.068   3.307  0.1939 -0.0926 -0.1013
    1DPPC   C2B14302  19.009   9.358   3.528  0.2167 -0.1642 -0.1963
    1DPPC   C3B14303  19.186   9.588   3.713 -0.1618 -0.3111  0.0242
    1DPPC   C4B14304  19.445   9.489   3.935 -0.1065  0.0616 -0.1356
    1DPPC   NC314305  16.658  16.664   3.083  0.0960  0.2216 -0.0377
    1DPPC   PO414306  16.958  17.003   3.127  0.1897  0.0099  0.3069
    1DPPC   GL114307  17.149  16.804   3.538 -0.3971 -0.1316 -0.0552
    1DPPC   GL214308  16.972  16.512   3.456  0.2558 -0.2061  0.2732
    1DPPC   C1A14309  17.460  16.512   3.652  0.2236 -0.2541  0.0398
    1DPPC   C2A14310  17.574  16.433   4.066 -0.2083  0.0418 -0.1773
    1DPPC   C3A14311  17.599  16.280   4.430 -0.1019  0.1483 -0.0456
    1DPPC   C4A14312  17.539  16.246   4.873 -0.1443 -0.0397  0.0845
    1DPPC   C1B14313  17.071  16.450   3.905 -0.0969  0.2747  0.2789
    1DPPC   C2B14314  17.063  16.318   4.283 -0.2316 -0.1048 -0.3100
    1DPPC   C3B14315  17.174  16.506   4.670  0.1221 -0.2843 -0.0435
    1DPPC   C4B14316  17.073  16.513   5.083 -0.0366 -0.2393  0.0895
    1DPPC   NC314317  20.889  10.710   3.116  0.0639 -0.2162 -0.1105
    1DPPC   PO414318  21.243  10.455   3.109  0.0209 -0.0474  0.1585
    1DPPC   GL114319  21.112  10.559   3.570 -0.1565  0.0632  0.3690
    1DPPC   GL214320  21.073  10.187   3.782  0.4030 -0.1129  0.2918
    1DPPC   C1A14321  20.771  10.540   3.910  0.1131  0.0468 -0.1885
    1DPPC   C2A14322  20.731  10.716   4.320  0.0135 -0.0163 -0.0581
    1DPPC   C3A14323  20.859  10.814   4.735  0.2715  0.0196  0.0742
    1DPPC   C4A14324  20.842  10.439   4.986  0.1048 -0.0399  0.0093
    1DPPC   C1B14325  21.208  10.457   4.117  0.0148  0.0742 -0.2323
    1DPPC   C2B14326  21.206  10.479   4.545 -0.1970 -0.0601  0.3225
    1DPPC   C3B14327  21.374  10.696   4.917  0.0542 -0.4215 -0.0779
    1DPPC   C4B14328  21.484  10.515   5.339  0.1838 -0.1004 -0.0184
    1DPPC   NC314329  12.237  15.734   2.769  0.1636  0.2122 -0.1034
    1DPPC   PO414330  11.883  15.464   2.714 -0.0042  0.0212 -0.0448
    1DPPC   GL114331  11.831  15.620   3.103 -0.1029 -0.0676  0.0953
    1DPPC   GL214332  11.686  15.983   3.078  0.1154  0.1656  0.1279
    1DPPC   C1A14333  11.726  15.792   3.588  0.1569  0.0546  0.0357
    1DPPC   C2A14334  11.653  15.779   4.014  0.0995  0.1136  0.2225
    1DPPC   C3A14335  11.671  15.954   4.386 -0.3028  0.1294  0.2652
    1DPPC   C4A14336  11.762  15.998   4.808 -0.1264  0.0516  0.1546
    1DPPC   C1B14337  12.052  16.034   3.328  0.1266  0.0386 -0.0754
    1DPPC   C2B14338  12.096  16.227   3.748 -0.0541  0.0038 -0.0979
    1DPPC   C3B14339  12.090  16.227   4.135  0.0825 -0.1336 -0.0170
    1DPPC   C4B14340  11.966  16.326   4.528  0.0590 -0.1174  0.0578
    1DPPC   NC314341  10.173   1.145   3.483  0.3006  0.0261 -0.0495
    1DPPC   PO414342  10.268   1.392   3.897 -0.3619  0.4200  0.1025
    1DPPC   GL114343  10.427   1.409   4.303  0.2436  0.0947 -0.0444
    1DPPC   GL214344  10.735   1.330   4.301 -0.2101  0.2477  0.1525
    1DPPC   C1A14345  10.342   1.235   4.599 -0.1676 -0.2080 -0.0279
    1DPPC   C2A14346  10.471   1.102   5.081 -0.0379  0.1658 -0.2607
    1DPPC   C3A14347  10.828   0.917   5.256  0.1283 -0.4143  0.0241
    1DPPC   C4A14348  11.149   0.915   5.041 -0.0637 -0.2688  0.0368
    1DPPC   C1B14349  10.844   1.224   4.654  0.0005  0.1023 -0.2199
    1DPPC   C2B14350  11.144   1.524   4.956  0.1033 -0.1410  0.0869
    1DPPC   C3B14351  11.392   1.717   5.320  0.2204 -0.1076  0.0341
    1DPPC   C4B14352  11.426   2.135   5.365  0.0215 -0.2250  0.1082
    1DPPC   NC314353  21.909  14.987   2.469  0.4217  0.2945 -0.2349
    1DPPC   PO414354  21.483  15.012   2.772  0.2137  0.0583 -0.1217
    1DPPC   GL114355  21.542  15.315   3.009  0.2830  0.1336 -0.0674
    1DPPC   GL214356  21.196  15.412   3.213  0.1523 -0.1973  0.1270
    1DPPC   C1A14357  21.676  15.493   3.449  0.0777 -0.2755 -0.1510
    1DPPC   C2A14358  21.808  15.357   3.853 -0.2923 -0.0226 -0.0491
    1DPPC   C3A14359  22.119  15.235   4.104 -0.0247 -0.0440  0.0547
    1DPPC   C4A14360  22.250  14.806   4.326 -0.1515  0.0055 -0.0656
    1DPPC   C1B14361  20.985  15.452   3.577 -0.1322  0.1336 -0.2208
    1DPPC   C2B14362  20.875  15.793   3.766  0.2220 -0.2297 -0.2018
    1DPPC   C3B14363  21.034  15.853   4.158  0.0377 -0.2037 -0.2977
    1DPPC   C4B14364  21.194  15.888   4.527  0.0645 -0.1328 -0.1828
    1DPPC   NC314365  14.458  18.962   3.209 -0.3816  0.1771  0.0655
    1DPPC   PO414366  14.081  18.878   3.053  0.1862  0.2019  0.1918
    1DPPC   GL114367  13.938  18.889   3.440 -0.1183 -0.0718  0.1245
    1DPPC   GL214368  14.108  19.056   3.606  0.1639 -0.0014  0.0710
    1DPPC   C1A14369  13.566  18.852   3.705 -0.0848 -0.1730  0.0766
    1DPPC   C2A14370  13.371  18.734   4.061  0.0874 -0.0313 -0.2710
    1DPPC   C3A14371  13.200  18.731   4.575 -0.1932 -0.1421  0.0104
    1DPPC   C4A14372  12.970  18.886   4.975 -0.0502  0.0618  0.2367
    1DPPC   C1B14373  14.014  18.927   3.972  0.1740 -0.1563  0.1662
    1DPPC   C2B14374  13.912  18.893   4.336 -0.0775  0.0022 -0.1320
    1DPPC   C3B14375  13.657  18.895   4.683 -0.0431  0.0208 -0.0449
    1DPPC   C4B14376  13.404  19.183   4.870 -0.1881  0.0270 -0.0711
    1DPPC   NC314377   9.292   0.084   3.331  0.1315  0.0083  0.0404
    1DPPC   PO414378   9.416   0.234   3.799 -0.0009 -0.0032  0.1479
    1DPPC   GL114379   9.384  -0.073   4.094  0.2121  0.0599  0.1998
    1DPPC   GL214380   9.687  -0.250   4.133 -0.2801  0.0980  0.1810
    1DPPC   C1A14381   9.526  -0.024   4.543 -0.0282  0.0035  0.0859
    1DPPC   C2A14382   9.546  -0.155   4.983 -0.1101 -0.3381 -0.0657
    1DPPC   C3A14383   9.375  -0.146   5.490  0.0475  0.0887 -0.0538
    1DPPC   C4A14384   8.999   0.036   5.513 -0.0974 -0.4475 -0.4110
    1DPPC   C1B14385  10.023  -0.092   4.379 -0.0696  0.0470 -0.0187
    1DPPC   C2B14386  10.138   0.199   4.726  0.2697 -0.0355 -0.1734
    1DPPC   C3B14387  10.381   0.152   5.136 -0.1807  0.2473 -0.1601
    1DPPC   C4B14388  10.371  -0.295   5.361  0.3002 -0.0669  0.0718
    1DPPC   NC314389  27.764  21.398   2.892 -0.1578  0.2568  0.0788
    1DPPC   PO414390  27.824  21.859   2.660  0.1144 -0.2072  0.0570
    1DPPC   GL114391  27.987  21.962   3.029 -0.0502 -0.1659  0.1179
    1DPPC   GL214392  28.220  22.253   3.114  0.1935  0.0306 -0.0419
    1DPPC   C1A14393  28.018  21.821   3.464 -0.1694 -0.1282 -0.0054
    1DPPC   C2A14394  28.067  22.076   3.878 -0.0180  0.1775 -0.2996
    1DPPC   C3A14395  27.932  22.374   4.184 -0.3925 -0.1173 -0.2793
    1DPPC   C4A14396  27.956  22.559   4.598 -0.2795 -0.0375 -0.0356
    1DPPC   C1B14397  28.422  22.188   3.543 -0.1454 -0.2981 -0.1382
    1DPPC   C2B14398  28.563  22.179   4.009 -0.2173 -0.0371 -0.3533
    1DPPC   C3B14399  28.333  21.933   4.300  0.0871 -0.1536  0.1814
    1DPPC   C4B14400  28.072  21.580   4.366  0.1275 -0.1616  0.1440
    1DPPC   NC314401  11.934  15.036   2.281 -0.1054  0.3131  0.0371
    1DPPC   PO414402  11.924  14.717   2.632 -0.1821  0.1248 -0.2911
    1DPPC   GL114403  11.841  14.909   2.955  0.0074 -0.2410  0.0180
    1DPPC   GL214404  11.626  14.796   3.173  0.2000 -0.2008 -0.1113
    1DPPC   C1A14405  11.994  15.176   3.257 -0.3163 -0.0493  0.0907
    1DPPC   C2A14406  11.861  15.323   3.650 -0.0953 -0.0758  0.4904
    1DPPC   C3A14407  11.853  15.311   4.109  0.1147  0.0453  0.5198
    1DPPC   C4A14408  11.779  15.462   4.561 -0.0136  0.3655  0.1611
    1DPPC   C1B14409  11.657  14.899   3.582  0.1793  0.1647  0.1569
    1DPPC   C2B14410  11.618  14.867   3.912  0.1512  0.2475  0.1432
    1DPPC   C3B14411  11.582  15.003   4.407 -0.1766 -0.1015 -0.1389
    1DPPC   C4B14412  11.487  15.123   4.764  0.0624 -0.3467  0.3597
    1DPPC   NC314413  12.201  16.613   2.281 -0.4259  0.1333  0.2296
    1DPPC   PO414414  12.396  16.981   2.629  0.0130  0.1642  0.1166
    1DPPC   GL114415  12.414  16.799   3.012  0.1623 -0.0411  0.5010
    1DPPC   GL214416  12.188  16.842   3.247  0.1543 -0.1153  0.0838
    1DPPC   C1A14417  12.724  16.819   3.393  0.0051  0.0775  0.0560
    1DPPC   C2A14418  12.710  16.895   3.837 -0.2108 -0.4213 -0.2416
    1DPPC   C3A14419  12.693  16.889   4.215 -0.2135 -0.3267 -0.2180
    1DPPC   C4A14420  12.624  16.891   4.604  0.3705  0.0409 -0.4170
    1DPPC   C1B14421  12.356  16.538   3.527 -0.2067 -0.2190 -0.1122
    1DPPC   C2B14422  12.460  16.514   3.963 -0.1548 -0.1405  0.0660
    1DPPC   C3B14423  12.547  16.435   4.402 -0.1320 -0.0703 -0.0319
    1DPPC   C4B14424  12.440  16.466   4.805 -0.1198  0.0480 -0.0237
    1DPPC   NC314425  10.828  13.899   2.763 -0.1400  0.1258 -0.1839
    1DPPC   PO414426  10.457  14.211   2.709 -0.1346  0.0428 -0.0478
    1DPPC   GL114427  10.284  14.463   3.129 -0.3204 -0.1259 -0.2899
    1DPPC   GL214428  10.382  14.169   3.306 -0.0702  0.3911  0.1632
    1DPPC   C1A14429  10.043  14.510   3.570  0.0646 -0.1756  0.2006
    1DPPC   C2A14430  10.039  14.345   4.005  0.1604 -0.0730  0.0410
    1DPPC   C3A14431   9.852  14.323   4.429 -0.0315 -0.2015 -0.1798
    1DPPC   C4A14432   9.606  14.711   4.575  0.0328  0.2014  0.0082
    1DPPC   C1B14433  10.363  14.045   3.706  0.1921  0.1185 -0.0887
    1DPPC   C2B14434  10.418  14.035   4.158 -0.1810 -0.0552  0.2090
    1DPPC   C3B14435  10.282  14.079   4.524 -0.1410  0.1044 -0.2621
    1DPPC   C4B14436  10.121  13.925   4.970  0.0335  0.0838 -0.0008
    1DPPC   NC314437  17.077  19.128   3.219  0.0100 -0.1972  0.1287
    1DPPC   PO414438  17.355  18.813   3.420 -0.2570  0.2787  0.4357
    1DPPC   GL114439  17.300  18.760   3.939  0.3383  0.0506 -0.1737
    1DPPC   GL214440  17.608  18.921   4.045 -0.1021 -0.0704  0.1379
    1DPPC   C1A14441  17.169  18.643   4.360  0.1589 -0.0008 -0.2884
    1DPPC   C2A14442  17.003  18.642   4.708  0.0776 -0.0146  0.0144
    1DPPC   C3A14443  16.963  18.641   5.109  0.0528  0.1690 -0.0748
    1DPPC   C4A14444  17.179  18.423   5.490  0.0494  0.0439 -0.0898
    1DPPC   C1B14445  17.813  19.070   4.426  0.3292  0.0121  0.1849
    1DPPC   C2B14446  17.632  19.198   4.784 -0.1038 -0.0367  0.1415
    1DPPC   C3B14447  17.550  19.358   5.159  0.1505  0.0416  0.1918
    1DPPC   C4B14448  17.380  19.463   5.553 -0.0381  0.0317  0.6489
    1DPPC   NC314449  11.516   9.074   2.730 -0.0517  0.0561  0.3934
    1DPPC   PO414450  11.607   9.195   3.224 -0.0974  0.0651 -0.1248
    1DPPC   GL114451  11.639   9.138   3.619  0.0210  0.0002  0.2621
    1DPPC   GL214452  11.782   8.955   3.823  0.0752  0.1160 -0.0305
    1DPPC   C1A14453  11.413   9.306   3.972 -0.3730  0.0867  0.2681
    1DPPC   C2A14454  11.517   9.265   4.409 -0.1301  0.2743  0.0506
    1DPPC   C3A14455  11.394   9.205   4.871 -0.0932 -0.3917  0.3037
    1DPPC   C4A14456  11.548   9.151   5.264  0.0395 -0.2241 -0.1044
    1DPPC   C1B14457  11.731   8.860   4.220  0.2080  0.0047 -0.2771
    1DPPC   C2B14458  11.746   8.820   4.624 -0.2616 -0.2681  0.1936
    1DPPC   C3B14459  11.777   8.757   4.970 -0.1013 -0.0303 -0.0506
    1DPPC   C4B14460  11.592   8.641   5.300 -0.0238  0.1941 -0.1718
    1DPPC   NC314461   9.087   8.872   3.128 -0.1434 -0.2021 -0.1724
    1DPPC   PO414462   9.467   9.112   3.245 -0.2722 -0.1839 -0.0488
    1DPPC   GL114463   9.319   9.298   3.609  0.0312 -0.1204 -0.4451
    1DPPC   GL214464   9.404   9.604   3.587 -0.0750  0.1503 -0.1199
    1DPPC   C1A14465   9.373   9.240   4.034  0.1030  0.0163 -0.1051
    1DPPC   C2A14466   9.404   9.076   4.368 -0.0150  0.0460 -0.2097
    1DPPC   C3A14467   9.512   8.944   4.783  0.0592 -0.1056 -0.1488
    1DPPC   C4A14468   9.513   8.770   5.190  0.1101 -0.0702  0.0813
    1DPPC   C1B14469   9.555   9.668   3.961  0.0083 -0.0312 -0.3733
    1DPPC   C2B14470   9.495   9.563   4.394 -0.1416 -0.0339  0.0935
    1DPPC   C3B14471   9.392   9.443   4.832 -0.1187  0.0086 -0.3302
    1DPPC   C4B14472   9.312   9.686   5.249  0.1340 -0.1591 -0.2034
    1DPPC   NC314473  25.166  13.584   2.415 -0.1394  0.0194 -0.0868
    1DPPC   PO414474  25.186  13.173   2.271  0.5727 -0.2605 -0.3097
    1DPPC   GL114475  25.172  13.233   2.745  0.1917  0.0332  0.0457
    1DPPC   GL214476  24.937  13.475   2.914  0.1270  0.0149  0.0494
    1DPPC   C1A14477  25.486  13.202   3.128 -0.2765 -0.0567 -0.0731
    1DPPC   C2A14478  25.490  13.178   3.509  0.1216  0.0259  0.3212
    1DPPC   C3A14479  25.534  13.143   3.956 -0.3412 -0.1863  0.0182
    1DPPC   C4A14480  25.773  13.016   4.309 -0.2950 -0.0134 -0.4262
    1DPPC   C1B14481  25.158  13.485   3.320  0.1134  0.3090  0.1674
    1DPPC   C2B14482  25.035  13.287   3.686  0.2009 -0.2477 -0.2429
    1DPPC   C3B14483  25.180  12.913   3.770  0.0908  0.0813  0.1505
    1DPPC   C4B14484  24.938  12.543   3.982 -0.2866  0.4463  0.2558
    1DPPC   NC314485  17.767  15.365   2.315 -0.1347  0.1529 -0.2436
    1DPPC   PO414486  18.062  15.513   2.498 -0.0770  0.0643 -0.0327
    1DPPC   GL114487  18.092  15.768   2.880  0.0120 -0.0073 -0.1176
    1DPPC   GL214488  17.901  15.948   3.015 -0.3400  0.1329 -0.0778
    1DPPC   C1A14489  18.217  15.610   3.262 -0.0750 -0.1001 -0.0554
    1DPPC   C2A14490  18.174  15.558   3.683  0.0005  0.0922  0.2428
    1DPPC   C3A14491  18.167  15.526   4.105  0.1344  0.2943  0.1484
    1DPPC   C4A14492  18.225  15.352   4.577 -0.0364  0.0538 -0.1277
    1DPPC   C1B14493  17.871  15.914   3.401 -0.3434 -0.1289  0.2511
    1DPPC   C2B14494  17.826  15.872   3.877 -0.1034  0.0728  0.0479
    1DPPC   C3B14495  17.968  15.896   4.352 -0.0180 -0.0980  0.1698
    1DPPC   C4B14496  17.971  15.848   4.720 -0.1815 -0.1003  0.1132
    1DPPC   NC314497   9.251  17.800   2.300  0.3244  0.1120  0.2502
    1DPPC   PO414498   9.419  17.522   2.487  0.3378  0.0515  0.0971
    1DPPC   GL114499   9.452  17.768   2.836  0.0590  0.0536  0.1567
    1DPPC   GL214500   9.262  17.506   3.080  0.0034  0.1867  0.0254
    1DPPC   C1A14501   9.160  18.055   3.066 -0.0138  0.1306 -0.0928
    1DPPC   C2A14502   8.992  18.222   3.468 -0.1126 -0.2369 -0.1381
    1DPPC   C3A14503   9.125  18.080   3.866  0.1056  0.0947  0.0776
    1DPPC   C4A14504   9.373  18.078   4.187  0.0186  0.2000 -0.0204
    1DPPC   C1B14505   9.158  17.453   3.444  0.0847 -0.3598  0.0718
    1DPPC   C2B14506   9.035  17.609   3.832  0.1129  0.1159  0.0308
    1DPPC   C3B14507   9.206  17.643   4.260 -0.2510 -0.0415  0.0924
    1DPPC   C4B14508   9.093  17.783   4.660 -0.1993  0.0669 -0.0820
    1DPPC   NC314509  17.247  16.613   3.053 -0.2503 -0.0108  0.1819
    1DPPC   PO414510  16.969  16.339   2.864  0.1640  0.0580 -0.0939
    1DPPC   GL114511  16.688  16.119   3.174 -0.3538 -0.0307  0.0496
    1DPPC   GL214512  16.424  16.285   3.310  0.0030 -0.2219  0.1620
    1DPPC   C1A14513  16.729  15.777   3.492  0.0246 -0.0475 -0.0957
    1DPPC   C2A14514  16.658  15.819   3.899  0.2244  0.0921  0.2007
    1DPPC   C3A14515  16.725  15.803   4.371  0.2375  0.2181 -0.2902
    1DPPC   C4A14516  17.057  16.040   4.699 -0.0664  0.0018 -0.0446
    1DPPC   C1B14517  16.630  16.281   3.661 -0.2554  0.3082  0.0079
    1DPPC   C2B14518  16.622  16.262   4.131  0.0770  0.1500  0.1885
    1DPPC   C3B14519  16.638  16.313   4.538  0.2542 -0.0355 -0.0013
    1DPPC   C4B14520  16.581  15.984   4.924 -0.1126  0.0847  0.3656
    1DPPC   NC314521   8.250   9.955   3.257 -0.1882  0.0699 -0.2153
    1DPPC   PO414522   8.535  10.331   3.325 -0.0954  0.1583  0.1082
    1DPPC   GL114523   8.216  10.524   3.467 -0.0117  0.2878 -0.1976
    1DPPC   GL214524   7.843  10.365   3.374  0.2233 -0.1140  0.2250
    1DPPC   C1A14525   8.197  10.695   3.963  0.0101  0.2678  0.0298
    1DPPC   C2A14526   8.044  11.043   4.229  0.2300  0.1277  0.2560
    1DPPC   C3A14527   7.953  11.146   4.568 -0.1502 -0.0466  0.4556
    1DPPC   C4A14528   7.832  11.088   4.963 -0.2810 -0.1123 -0.3485
    1DPPC   C1B14529   7.724  10.543   3.782 -0.0709  0.1851  0.1084
    1DPPC   C2B14530   7.753  10.577   4.219  0.0017  0.2757  0.1246
    1DPPC   C3B14531   7.851  10.668   4.587  0.0505 -0.0630 -0.0296
    1DPPC   C4B14532   7.820  10.614   5.059  0.0084  0.2471  0.1331
    1DPPC   NC314533  20.052   9.865   2.693  0.0063 -0.0166 -0.1599
    1DPPC   PO414534  20.240   9.573   3.029 -0.2087  0.0935  0.0282
    1DPPC   GL114535  20.320   9.581   3.396 -0.6171  0.0947  0.1200
    1DPPC   GL214536  20.554   9.810   3.527 -0.3719 -0.1827 -0.0047
    1DPPC   C1A14537  20.175   9.748   3.871  0.0680  0.0669  0.0073
    1DPPC   C2A14538  20.164   9.971   4.327 -0.3145  0.2235 -0.1127
    1DPPC   C3A14539  20.036   9.827   4.728  0.2983 -0.0018  0.0105
    1DPPC   C4A14540  19.954   9.932   5.202 -0.1028 -0.2614 -0.0298
    1DPPC   C1B14541  20.624   9.975   3.933 -0.0720 -0.0663  0.2083
    1DPPC   C2B14542  20.621  10.184   4.252 -0.1065  0.3080  0.0866
    1DPPC   C3B14543  20.462  10.171   4.672  0.1387  0.0178  0.2540
    1DPPC   C4B14544  20.382  10.273   5.101 -0.1463 -0.0167  0.1980
    1DPPC   NC314545  18.305  17.955   3.063 -0.0862 -0.0569 -0.0007
    1DPPC   PO414546  18.675  18.210   3.188 -0.0557 -0.1575 -0.0525
    1DPPC   GL114547  18.781  18.040   3.580  0.0626  0.2881 -0.1876
    1DPPC   GL214548  18.509  17.929   3.622  0.1883 -0.1096 -0.1388
    1DPPC   C1A14549  18.745  17.815   4.067  0.0956  0.0831 -0.0685
    1DPPC   C2A14550  18.740  17.887   4.482  0.1375 -0.1231 -0.0770
    1DPPC   C3A14551  18.746  18.088   4.759  0.0954 -0.0659  0.0821
    1DPPC   C4A14552  18.606  18.484   5.007  0.0050  0.2659 -0.1175
    1DPPC   C1B14553  18.250  18.025   3.890  0.0756 -0.2130 -0.2713
    1DPPC   C2B14554  18.278  18.307   4.332 -0.2142  0.1029 -0.0627
    1DPPC   C3B14555  18.239  18.290   4.703  0.3105 -0.3380  0.0879
    1DPPC   C4B14556  18.297  18.084   5.066 -0.1278 -0.0704  0.0647
    1DPPC   NC314557   9.965   6.980   2.741 -0.0861 -0.0159 -0.5317
    1DPPC   PO414558   9.789   6.994   3.146  0.3507  0.0340  0.3605
    1DPPC   GL114559   9.757   6.934   3.591  0.0457 -0.2989  0.2645
    1DPPC   GL214560   9.501   7.170   3.638 -0.2683  0.1452  0.3225
    1DPPC   C1A14561   9.849   6.702   3.850 -0.1614 -0.0895 -0.1028
    1DPPC   C2A14562  10.151   6.315   3.812 -0.0897 -0.0162 -0.1691
    1DPPC   C3A14563  10.469   6.123   4.085 -0.0259  0.1298 -0.1316
    1DPPC   C4A14564  10.663   5.817   4.465  0.1930  0.1490  0.2178
    1DPPC   C1B14565   9.520   7.122   4.117 -0.3256  0.1536  0.2094
    1DPPC   C2B14566   9.410   7.057   4.584 -0.1286 -0.0773 -0.1270
    1DPPC   C3B14567   9.783   7.042   4.874 -0.2060 -0.0998 -0.2912
    1DPPC   C4B14568  10.009   6.851   5.105  0.2494 -0.3608  0.2615
    1DPPC   NC314569  23.608  14.027   2.803  0.0900  0.1024 -0.1742
    1DPPC   PO414570  23.213  14.136   2.914  0.0045  0.1335 -0.2640
    1DPPC   GL114571  22.993  14.161   3.231  0.0094  0.0444 -0.0729
    1DPPC   GL214572  22.836  14.424   3.191  0.0186  0.0136 -0.3248
    1DPPC   C1A14573  22.979  13.976   3.601  0.3915 -0.2911 -0.0318
    1DPPC   C2A14574  22.950  13.910   4.022 -0.2509  0.0607 -0.0888
    1DPPC   C3A14575  22.685  13.845   4.381 -0.2024 -0.0470 -0.3526
    1DPPC   C4A14576  22.508  13.650   4.812  0.2205 -0.1915 -0.1813
    1DPPC   C1B14577  22.973  14.502   3.571 -0.0920  0.0832 -0.0805
    1DPPC   C2B14578  22.996  14.484   3.994  0.1480  0.0811  0.0769
    1DPPC   C3B14579  22.810  14.623   4.438  0.1681  0.1988 -0.2349
    1DPPC   C4B14580  22.819  14.998   4.728  0.1566  0.1040  0.1487
    1DPPC   NC314581  15.663  20.169   3.354 -0.1017  0.0657  0.0014
    1DPPC   PO414582  15.752  19.754   3.086  0.1317 -0.0031  0.0638
    1DPPC   GL114583  15.660  19.585   3.519  0.0873 -0.4553  0.1461
    1DPPC   GL214584  15.714  19.763   3.810  0.0739  0.1318  0.3125
    1DPPC   C1A14585  15.570  19.250   3.714 -0.2044  0.0505  0.1057
    1DPPC   C2A14586  15.591  19.242   4.158 -0.0551 -0.1081  0.0604
    1DPPC   C3A14587  15.656  19.225   4.599 -0.0300  0.3582  0.0332
    1DPPC   C4A14588  15.847  19.321   5.021 -0.2791  0.0899  0.0144
    1DPPC   C1B14589  15.482  19.703   4.067  0.1630 -0.0961 -0.2807
    1DPPC   C2B14590  15.376  19.646   4.532  0.0234  0.0223  0.1291
    1DPPC   C3B14591  15.451  19.526   4.856 -0.0808 -0.2301  0.1429
    1DPPC   C4B14592  15.510  18.920   4.967 -0.0725 -0.2337  0.1664
    1DPPC   NC314593  13.568  19.214   3.101 -0.0787 -0.0588  0.2679
    1DPPC   PO414594  13.976  19.424   3.169 -0.3118  0.0781  0.0209
    1DPPC   GL114595  14.127  19.537   3.517 -0.2168 -0.0413 -0.1091
    1DPPC   GL214596  14.218  19.795   3.448 -0.1611  0.0096 -0.1251
    1DPPC   C1A14597  14.025  19.622   3.898 -0.0069 -0.2636  0.3461
    1DPPC   C2A14598  13.873  19.669   4.215 -0.1617 -0.3371 -0.1874
    1DPPC   C3A14599  13.688  19.669   4.677 -0.0351 -0.0547  0.0373
    1DPPC   C4A14600  13.490  19.813   5.050 -0.3170  0.1875 -0.0443
    1DPPC   C1B14601  14.316  20.103   3.744 -0.0901  0.1052 -0.3568
    1DPPC   C2B14602  14.123  20.097   4.163 -0.0446  0.2292  0.1892
    1DPPC   C3B14603  14.062  20.022   4.614 -0.0442  0.1098 -0.1177
    1DPPC   C4B14604  14.113  19.771   4.872 -0.3170  0.3366  0.3095
    1DPPC   NC314605  10.710  15.388   2.814 -0.0203  0.1175 -0.0544
    1DPPC   PO414606  10.786  15.770   2.651  0.1434 -0.1142  0.1516
    1DPPC   GL114607  10.838  15.864   3.096 -0.1875 -0.2562  0.2040
    1DPPC   GL214608  11.000  16.094   3.129 -0.2397 -0.2681  0.0829
    1DPPC   C1A14609  10.702  15.899   3.437  0.4805  0.1189  0.0236
    1DPPC   C2A14610  10.503  16.007   3.819 -0.1025  0.1323  0.1649
    1DPPC   C3A14611  10.387  15.929   4.242 -0.0986  0.2733 -0.5655
    1DPPC   C4A14612  10.427  15.916   4.700  0.3265  0.3959  0.1861
    1DPPC   C1B14613  11.235  15.927   3.496 -0.2752  0.0312  0.2776
    1DPPC   C2B14614  11.118  15.924   3.909 -0.0039  0.0402 -0.2046
    1DPPC   C3B14615  10.866  16.088   4.270 -0.0642  0.0205  0.1839
    1DPPC   C4B14616  10.641  16.383   4.482 -0.0847 -0.0279  0.1273
    1DPPC   NC314617  26.352  23.434   2.935  0.0269 -0.1341 -0.0810
    1DPPC   PO414618  26.512  23.769   3.072 -0.2063 -0.0476 -0.0628
    1DPPC   GL114619  26.360  24.020   3.589 -0.2281  0.1178 -0.1350
    1DPPC   GL214620  26.284  24.406   3.619  0.0115  0.3012 -0.1909
    1DPPC   C1A14621  26.223  23.945   3.941  0.4164  0.0694 -0.1362
    1DPPC   C2A14622  26.113  24.004   4.358 -0.0480  0.0826  0.1435
    1DPPC   C3A14623  25.994  23.890   4.634 -0.3604  0.0751 -0.0782
    1DPPC   C4A14624  25.609  24.115   5.026  0.0149  0.2159 -0.0429
    1DPPC   C1B14625  26.548  24.314   3.966 -0.2554 -0.1937 -0.1099
    1DPPC   C2B14626  26.452  24.457   4.357  0.3489  0.2554  0.2714
    1DPPC   C3B14627  26.151  24.684   4.530 -0.0835 -0.1027  0.0338
    1DPPC   C4B14628  25.764  24.881   4.479  0.0289 -0.3151  0.2824
    1DPPC   NC314629  20.710  17.377   3.022 -0.1310 -0.0446  0.1327
    1DPPC   PO414630  20.405  17.102   2.767  0.3156  0.3526  0.1652
    1DPPC   GL114631  20.452  17.009   3.159  0.2698  0.0559 -0.1894
    1DPPC   GL214632  20.593  16.719   3.346  0.2340  0.2172 -0.2077
    1DPPC   C1A14633  20.379  17.091   3.571 -0.0450 -0.3153 -0.2397
    1DPPC   C2A14634  20.335  17.018   4.012 -0.1517  0.4482  0.0021
    1DPPC   C3A14635  20.320  17.022   4.419 -0.3025  0.0507  0.3762
    1DPPC   C4A14636  20.557  17.361   4.726  0.0882  0.0482  0.0005
    1DPPC   C1B14637  20.436  16.527   3.587  0.0911  0.1777  0.2667
    1DPPC   C2B14638  20.406  16.428   3.978  0.1494 -0.1439  0.0775
    1DPPC   C3B14639  20.401  16.423   4.395  0.1715  0.2405 -0.0519
    1DPPC   C4B14640  20.266  16.033   4.698 -0.1353 -0.1910  0.0988
    1DPPC   NC314641  14.382  11.832   2.820 -0.0759  0.2015 -0.1879
    1DPPC   PO414642  14.241  11.461   2.820 -0.0087 -0.2645 -0.2678
    1DPPC   GL114643  14.077  11.225   3.200 -0.0828  0.3169  0.1044
    1DPPC   GL214644  13.771  11.280   3.012 -0.1422 -0.1161  0.0482
    1DPPC   C1A14645  13.976  11.216   3.640 -0.3053 -0.2166 -0.0917
    1DPPC   C2A14646  13.966  11.150   4.115 -0.2373  0.0071  0.2344
    1DPPC   C3A14647  14.040  11.111   4.353 -0.0547  0.1405 -0.3881
    1DPPC   C4A14648  14.211  11.144   4.833  0.0826  0.3232  0.1408
    1DPPC   C1B14649  13.561  11.487   3.428  0.0336  0.0034  0.1500
    1DPPC   C2B14650  13.617  11.580   3.845  0.0326 -0.1404 -0.0637
    1DPPC   C3B14651  13.630  11.526   4.269  0.3003  0.1851  0.0579
    1DPPC   C4B14652  13.539  11.826   4.646  0.1424  0.2410 -0.1533
    1DPPC   NC314653  15.671  16.332   2.972 -0.0842  0.1866 -0.0401
    1DPPC   PO414654  16.016  16.539   3.105  0.0969 -0.3303 -0.0532
    1DPPC   GL114655  16.068  16.770   3.490  0.0140  0.0805  0.0784
    1DPPC   GL214656  16.130  17.063   3.540 -0.0693 -0.1345 -0.2751
    1DPPC   C1A14657  16.223  16.443   3.824  0.0268 -0.2337  0.0515
    1DPPC   C2A14658  16.205  16.526   4.257 -0.0265  0.1271  0.1052
    1DPPC   C3A14659  16.190  16.550   4.628 -0.1826 -0.0288 -0.1078
    1DPPC   C4A14660  16.232  16.307   4.945  0.0654 -0.0928 -0.1914
    1DPPC   C1B14661  16.201  16.958   3.948 -0.0193 -0.3798  0.1569
    1DPPC   C2B14662  16.244  17.044   4.413 -0.0617 -0.1424  0.0321
    1DPPC   C3B14663  16.189  17.035   4.774  0.2562  0.0019  0.1549
    1DPPC   C4B14664  15.946  16.976   5.182 -0.1507  0.1208 -0.2344
    1DPPC   NC314665   9.349  11.983   2.969 -0.1413 -0.1217 -0.3482
    1DPPC   PO414666   8.945  12.186   2.929  0.1320  0.2441 -0.2448
    1DPPC   GL114667   9.029  12.246   3.353  0.0693 -0.1994  0.1029
    1DPPC   GL214668   9.002  12.530   3.468 -0.1683  0.0057  0.0555
    1DPPC   C1A14669   8.904  11.987   3.746 -0.0183 -0.3545 -0.3080
    1DPPC   C2A14670   8.738  12.013   4.153  0.1287  0.0942 -0.0415
    1DPPC   C3A14671   8.433  11.975   4.400 -0.3538 -0.2336 -0.2858
    1DPPC   C4A14672   8.116  11.995   4.738 -0.2290  0.1604 -0.0260
    1DPPC   C1B14673   8.863  12.577   3.875  0.1950  0.1250  0.1286
    1DPPC   C2B14674   8.774  12.470   4.320 -0.0649  0.2486  0.3541
    1DPPC   C3B14675   8.735  12.266   4.708  0.0673 -0.1861  0.0604
    1DPPC   C4B14676   8.618  11.815   4.862  0.1786  0.0243  0.0348
    1DPPC   NC314677  15.625  14.599   2.738  0.0273 -0.1667  0.1429
    1DPPC   PO414678  15.261  14.519   2.783 -0.0960  0.3331 -0.1950
    1DPPC   GL114679  15.298  14.890   3.061 -0.2463  0.0906  0.3510
    1DPPC   GL214680  15.024  14.886   3.121 -0.0607  0.3904 -0.3288
    1DPPC   C1A14681  15.357  15.005   3.456 -0.0806  0.2264  0.0569
    1DPPC   C2A14682  15.420  14.905   3.812 -0.1069 -0.1204  0.1444
    1DPPC   C3A14683  15.364  14.843   4.227 -0.1090  0.1610 -0.3619
    1DPPC   C4A14684  15.487  14.606   4.688  0.0413 -0.1158  0.0097
    1DPPC   C1B14685  14.965  14.687   3.510  0.1421  0.0392  0.2241
    1DPPC   C2B14686  14.932  14.647   3.943  0.1048  0.1116  0.1808
    1DPPC   C3B14687  15.033  14.483   4.369  0.2472  0.1489 -0.1064
    1DPPC   C4B14688  15.022  14.399   4.785 -0.1394  0.2028 -0.1237
    1DPPC   NC314689  11.430   9.796   3.317 -0.0850 -0.0419 -0.0576
    1DPPC   PO414690  11.870   9.687   3.278 -0.1281 -0.0184 -0.0291
    1DPPC   GL114691  11.971   9.519   3.537 -0.2631 -0.1260 -0.1995
    1DPPC   GL214692  12.313   9.614   3.574 -0.1301 -0.0315  0.0989
    1DPPC   C1A14693  11.874   9.429   3.994  0.0438 -0.1069  0.1987
    1DPPC   C2A14694  11.981   9.338   4.485  0.1103  0.1091 -0.0438
    1DPPC   C3A14695  11.955   9.203   4.888 -0.0506  0.0097  0.1871
    1DPPC   C4A14696  11.974   8.988   5.382  0.2407  0.1581  0.0624
    1DPPC   C1B14697  12.389   9.545   3.999 -0.1443 -0.1034 -0.0505
    1DPPC   C2B14698  12.457   9.436   4.463 -0.0803  0.1036  0.3261
    1DPPC   C3B14699  12.534   9.326   4.918 -0.2862  0.1526  0.0534
    1DPPC   C4B14700  12.313   9.375   5.364  0.0020 -0.0528  0.2770
    1DPPC   NC314701  11.731  10.551   2.935  0.3283 -0.0796  0.2342
    1DPPC   PO414702  11.894  10.740   3.224 -0.0829 -0.0366  0.3097
    1DPPC   GL114703  12.168  10.903   3.530  0.2352  0.2016  0.1698
    1DPPC   GL214704  12.482  10.811   3.547 -0.1940  0.0137 -0.0350
    1DPPC   C1A14705  12.108  11.009   3.857  0.1693  0.2159  0.0496
    1DPPC   C2A14706  12.134  11.163   4.194 -0.0634  0.0456  0.0116
    1DPPC   C3A14707  12.228  11.159   4.596 -0.4694  0.0456  0.2093
    1DPPC   C4A14708  12.173  11.147   5.023 -0.1659 -0.0850  0.3894
    1DPPC   C1B14709  12.546  10.748   4.003  0.0661  0.1598  0.0983
    1DPPC   C2B14710  12.617  10.794   4.460 -0.2425  0.1530  0.1876
    1DPPC   C3B14711  12.512  10.695   4.924  0.0518  0.1277  0.2735
    1DPPC   C4B14712  12.389  10.797   5.414  0.0990  0.1681  0.1874
    1DPPC   NC314713  22.125  20.023   2.717 -0.1180 -0.0219 -0.1878
    1DPPC   PO414714  22.246  19.869   3.148  0.1178 -0.2146  0.1898
    1DPPC   GL114715  22.305  19.736   3.542 -0.0710  0.4427  0.2416
    1DPPC   GL214716  22.694  19.749   3.569 -0.1605  0.0756 -0.3551
    1DPPC   C1A14717  22.036  19.733   3.881 -0.0313  0.1479 -0.0478
    1DPPC   C2A14718  21.894  19.934   4.237 -0.3525 -0.1164  0.3396
    1DPPC   C3A14719  21.985  20.252   4.491  0.1518  0.2494  0.0830
    1DPPC   C4A14720  22.173  20.556   4.733 -0.0991 -0.0050 -0.0673
    1DPPC   C1B14721  23.158  19.668   3.610 -0.1713  0.1000  0.0001
    1DPPC   C2B14722  23.431  19.744   4.051 -0.1106  0.0069  0.3765
    1DPPC   C3B14723  23.406  19.516   4.466 -0.4867  0.3495  0.0665
    1DPPC   C4B14724  23.535  19.408   4.938 -0.2046  0.0633  0.2165
    1DPPC   NC314725  12.476   6.077   3.644  0.3370 -0.2633  0.1330
    1DPPC   PO414726  12.846   6.077   3.915  0.0877  0.0199  0.0188
    1DPPC   GL114727  12.814   5.805   4.210  0.2081  0.0013 -0.3953
    1DPPC   GL214728  13.134   5.823   4.385  0.2174  0.0438 -0.1057
    1DPPC   C1A14729  12.593   5.529   4.418 -0.0111  0.1837  0.0889
    1DPPC   C2A14730  12.498   5.507   4.742  0.0902  0.3103 -0.3965
    1DPPC   C3A14731  12.108   5.510   4.819  0.0212 -0.0490  0.0876
    1DPPC   C4A14732  11.788   5.210   4.838 -0.1865 -0.2020 -0.2182
    1DPPC   C1B14733  12.919   5.850   4.754 -0.0675 -0.1673 -0.2214
    1DPPC   C2B14734  12.900   5.970   5.086 -0.0746 -0.1201  0.0807
    1DPPC   C3B14735  12.600   6.032   5.466 -0.2849  0.0532 -0.1821
    1DPPC   C4B14736  12.193   6.120   5.451 -0.1920  0.2432 -0.0934
    1DPPC   NC314737   7.854  26.312   3.007  0.0569 -0.1614  0.0539
    1DPPC   PO414738   8.242  26.480   3.050 -0.0250  0.1994  0.2137
    1DPPC   GL114739   8.452  26.379   3.433  0.2819  0.1284 -0.0578
    1DPPC   GL214740   8.636  26.119   3.363 -0.0321  0.0767  0.0342
    1DPPC   C1A14741   8.471  26.289   3.870 -0.0303 -0.2501 -0.0774
    1DPPC   C2A14742   8.333  26.284   4.325 -0.1267  0.1217 -0.3353
    1DPPC   C3A14743   8.390  26.049   4.597 -0.0152 -0.0550 -0.2270
    1DPPC   C4A14744   8.626  25.837   4.920  0.2764 -0.1696  0.1007
    1DPPC   C1B14745   8.797  25.815   3.526  0.2554 -0.2568 -0.3263
    1DPPC   C2B14746   8.661  25.467   3.816  0.0978 -0.1150  0.1400
    1DPPC   C3B14747   8.591  25.321   4.164  0.0117 -0.2330 -0.0137
    1DPPC   C4B14748   8.764  25.485   4.547  0.0170  0.1645  0.0433
    1DPPC   NC314749  21.329  15.438   2.496 -0.1989  0.0206 -0.1938
    1DPPC   PO414750  21.706  15.637   2.642  0.0846  0.0925 -0.2296
    1DPPC   GL114751  21.864  15.734   2.943  0.0608  0.0984 -0.0792
    1DPPC   GL214752  22.118  15.643   3.150  0.0896 -0.1088  0.0950
    1DPPC   C1A14753  21.668  16.036   3.239  0.1739  0.1718 -0.1821
    1DPPC   C2A14754  21.826  16.226   3.692 -0.1602  0.2295  0.0626
    1DPPC   C3A14755  22.040  16.300   4.124 -0.1297 -0.0667 -0.2438
    1DPPC   C4A14756  21.908  16.601   4.371  0.0689  0.2023 -0.0192
    1DPPC   C1B14757  22.047  15.815   3.592 -0.0053  0.0855  0.0423
    1DPPC   C2B14758  22.061  15.826   4.040  0.1352 -0.0606  0.0115
    1DPPC   C3B14759  22.267  15.626   4.413  0.1839 -0.1484 -0.0702
    1DPPC   C4B14760  22.358  15.261   4.559  0.0678  0.1962 -0.0105
    1DPPC   NC314761  10.379  25.702   2.329 -0.0690  0.0225  0.1910
    1DPPC   PO414762  10.150  25.825   2.809 -0.0350 -0.3647  0.1591
    1DPPC   GL114763  10.283  25.617   3.200  0.0809  0.0697 -0.0266
    1DPPC   GL214764  10.562  25.305   3.255 -0.1405  0.1844  0.2675
    1DPPC   C1A14765  10.423  25.571   3.653 -0.1156  0.2116 -0.0574
    1DPPC   C2A14766  10.392  25.591   4.016  0.0493  0.0814 -0.3405
    1DPPC   C3A14767  10.546  25.362   4.357  0.0129 -0.4670 -0.2037
    1DPPC   C4A14768  10.776  25.301   4.695  0.2472 -0.1210 -0.0222
    1DPPC   C1B14769  10.732  25.178   3.803  0.2467 -0.2949  0.1337
    1DPPC   C2B14770  10.642  24.896   4.213 -0.0118 -0.1418  0.2142
    1DPPC   C3B14771  10.389  24.904   4.604 -0.0688  0.0264 -0.5137
    1DPPC   C4B14772  10.175  25.071   4.979  0.2554 -0.0440  0.1489
    1DPPC   NC314773  14.781   5.776   3.473 -0.0021 -0.1308 -0.2740
    1DPPC   PO414774  14.755   5.999   3.882  0.0756 -0.0488 -0.0788
    1DPPC   GL114775  14.444   5.940   4.181 -0.2301  0.2270  0.0761
    1DPPC   GL214776  14.081   5.919   4.085  0.0131 -0.0713 -0.1047
    1DPPC   C1A14777  14.453   6.063   4.608 -0.1961 -0.4935  0.1549
    1DPPC   C2A14778  14.424   6.213   4.992 -0.0881  0.2227 -0.5436
    1DPPC   C3A14779  14.548   6.247   5.424  0.1692  0.0016 -0.1036
    1DPPC   C4A14780  14.884   6.135   5.673 -0.2332 -0.0630 -0.1033
    1DPPC   C1B14781  14.125   5.753   4.454  0.0698  0.0287  0.3215
    1DPPC   C2B14782  14.016   5.943   4.856 -0.0420 -0.0219 -0.0211
    1DPPC   C3B14783  13.983   6.134   5.267  0.2266  0.0359 -0.1347
    1DPPC   C4B14784  14.129   6.255   5.695 -0.1350 -0.1721 -0.1306
    1DPPC   NC314785   9.107  13.058   2.842 -0.2967 -0.0463  0.0935
    1DPPC   PO414786   8.809  13.415   2.876 -0.1829 -0.0179  0.1265
    1DPPC   GL114787   8.641  13.322   3.207 -0.1519  0.0633 -0.0901
    1DPPC   GL214788   8.809  13.021   3.365 -0.1344  0.0171 -0.2433
    1DPPC   C1A14789   8.607  13.508   3.604 -0.0381 -0.1363  0.0198
    1DPPC   C2A14790   8.471  13.720   3.871  0.0511 -0.0359  0.1252
    1DPPC   C3A14791   8.287  13.786   4.294  0.2826 -0.0477 -0.0752
    1DPPC   C4A14792   8.462  14.119   4.633 -0.1673  0.0826 -0.0192
    1DPPC   C1B14793   8.791  13.047   3.801  0.0050 -0.0431 -0.1546
    1DPPC   C2B14794   8.911  12.946   4.242  0.0524  0.0222 -0.2454
    1DPPC   C3B14795   9.124  12.682   4.622 -0.1389  0.0971  0.0242
    1DPPC   C4B14796   9.176  12.426   4.917  0.3297  0.0186  0.1922
    1DPPC   NC314797   7.458  19.231   2.182 -0.0878 -0.2311  0.2841
    1DPPC   PO414798   7.778  18.917   2.142  0.1100 -0.0409 -0.2418
    1DPPC   GL114799   7.662  18.854   2.473 -0.1296 -0.0179 -0.2808
    1DPPC   GL214800   7.848  18.708   2.724  0.0131 -0.5370 -0.3017
    1DPPC   C1A14801   7.410  18.905   2.910 -0.0001  0.3129  0.1607
    1DPPC   C2A14802   7.438  19.281   3.270  0.0284  0.2185  0.0332
    1DPPC   C3A14803   7.534  19.487   3.575 -0.0258 -0.0570 -0.1011
    1DPPC   C4A14804   7.843  19.592   3.901  0.4133  0.3237  0.0281
    1DPPC   C1B14805   7.862  18.471   3.241 -0.1682 -0.0166  0.3986
    1DPPC   C2B14806   7.986  18.390   3.623  0.0900  0.0124 -0.2232
    1DPPC   C3B14807   8.072  18.390   4.048  0.0310 -0.0173  0.3262
    1DPPC   C4B14808   8.472  18.483   4.369  0.0671  0.0164  0.2313
    1DPPC   NC314809  15.210   9.969   2.805  0.2118 -0.2732 -0.0716
    1DPPC   PO414810  15.201  10.355   3.081 -0.1183 -0.1324  0.0673
    1DPPC   GL114811  15.335  10.713   3.217  0.1277  0.2921  0.1039
    1DPPC   GL214812  15.507  10.539   3.501  0.0770 -0.0711  0.0001
    1DPPC   C1A14813  15.559  10.997   3.591  0.2898 -0.0665 -0.2673
    1DPPC   C2A14814  15.418  11.162   4.020 -0.0340  0.1245  0.3625
    1DPPC   C3A14815  15.409  11.003   4.369  0.0795  0.0108  0.1447
    1DPPC   C4A14816  15.502  11.216   4.766  0.2837 -0.0388  0.0730
    1DPPC   C1B14817  15.355  10.616   3.965  0.0725 -0.0890 -0.0194
    1DPPC   C2B14818  15.167  10.569   4.427  0.1504 -0.2295  0.0207
    1DPPC   C3B14819  15.246  10.697   4.823 -0.2241  0.0693 -0.2435
    1DPPC   C4B14820  15.247  11.033   5.146 -0.0935  0.0518 -0.0407
    1DPPC   NC314821  10.141  13.338   2.850  0.0061 -0.0251  0.1748
    1DPPC   PO414822   9.788  13.610   3.033 -0.0351  0.2950  0.1496
    1DPPC   GL114823   9.592  13.540   3.340  0.0759 -0.1409  0.2022
    1DPPC   GL214824   9.198  13.479   3.225  0.0107  0.0959 -0.1043
    1DPPC   C1A14825   9.583  13.570   3.759 -0.0261  0.1968  0.2925
    1DPPC   C2A14826   9.439  13.546   4.165 -0.0234 -0.1328 -0.2454
    1DPPC   C3A14827   9.241  13.578   4.515  0.1606  0.2738 -0.1636
    1DPPC   C4A14828   8.948  13.309   4.658 -0.0149  0.1235  0.2232
    1DPPC   C1B14829   9.103  13.434   3.693 -0.2090  0.0336  0.1908
    1DPPC   C2B14830   8.893  13.458   4.033  0.0845 -0.0724  0.1524
    1DPPC   C3B14831   8.575  13.366   4.289 -0.1788 -0.0672  0.0666
    1DPPC   C4B14832   8.413  13.392   4.650  0.0816  0.1976  0.0874
    1DPPC   NC314833  11.583  13.324   2.442  0.1643  0.0004 -0.0873
    1DPPC   PO414834  11.695  13.332   2.849  0.2745 -0.0680 -0.0714
    1DPPC   GL114835  11.456  13.440   3.174  0.1758  0.2279 -0.0142
    1DPPC   GL214836  11.395  13.139   3.396  0.0462  0.0916 -0.2175
    1DPPC   C1A14837  11.215  13.605   3.577  0.1065 -0.0292  0.0138
    1DPPC   C2A14838  11.164  13.740   3.982  0.1453  0.0815 -0.0990
    1DPPC   C3A14839  11.195  13.791   4.413  0.2294  0.1482 -0.0912
    1DPPC   C4A14840  11.227  13.746   4.800 -0.0758 -0.0075  0.0855
    1DPPC   C1B14841  11.557  13.221   3.786 -0.1484 -0.0003  0.1819
    1DPPC   C2B14842  11.519  13.313   4.242 -0.0313 -0.1083  0.1292
    1DPPC   C3B14843  11.515  13.451   4.582 -0.0088  0.0772  0.0815
    1DPPC   C4B14844  11.698  13.637   4.972 -0.0011  0.0762 -0.1525
    1DPPC   NC314845  13.692  12.693   2.959 -0.3086  0.0585 -0.0677
    1DPPC   PO414846  14.038  12.387   3.125 -0.3073 -0.1329  0.0629
    1DPPC   GL114847  13.809  12.246   3.512 -0.1298 -0.0160  0.0241
    1DPPC   GL214848  13.840  11.918   3.322  0.0926  0.1566 -0.3944
    1DPPC   C1A14849  13.762  12.074   3.910 -0.0998 -0.0159  0.0866
    1DPPC   C2A14850  13.702  12.056   4.277  0.0540 -0.3208 -0.0666
    1DPPC   C3A14851  13.572  12.366   4.634 -0.0333 -0.0059  0.0008
    1DPPC   C4A14852  13.415  12.333   5.033 -0.1408  0.0473  0.3442
    1DPPC   C1B14853  14.035  11.686   3.649 -0.1071 -0.0742  0.2158
    1DPPC   C2B14854  14.041  11.741   4.076  0.3334  0.2362 -0.0175
    1DPPC   C3B14855  14.139  11.575   4.472 -0.3051  0.3446 -0.0583
    1DPPC   C4B14856  14.217  11.706   4.880  0.1038  0.0831 -0.3581
    1DPPC   NC314857  15.945  21.566   3.038 -0.2491 -0.0437  0.1070
    1DPPC   PO414858  15.515  21.440   3.265 -0.2867  0.1340  0.1135
    1DPPC   GL114859  15.612  21.414   3.684 -0.0579  0.1029 -0.2644
    1DPPC   GL214860  15.428  21.309   3.839  0.2799 -0.0505 -0.3456
    1DPPC   C1A14861  15.741  21.719   3.967 -0.6209  0.0618  0.1812
    1DPPC   C2A14862  16.121  21.799   4.280  0.0652  0.2307 -0.0594
    1DPPC   C3A14863  16.193  21.733   4.726 -0.0847 -0.0744 -0.0632
    1DPPC   C4A14864  16.276  21.807   5.169  0.2435  0.1718 -0.1498
    1DPPC   C1B14865  15.405  21.255   4.184  0.1881 -0.3455  0.2355
    1DPPC   C2B14866  15.296  21.062   4.580  0.0728  0.1501 -0.0720
    1DPPC   C3B14867  15.520  21.011   4.975  0.2919  0.1915  0.4290
    1DPPC   C4B14868  15.726  20.971   5.217 -0.0375 -0.0274  0.0149
    1DPPC   NC314869   2.873   1.838   2.974  0.0261  0.1440 -0.1057
    1DPPC   PO414870   3.062   2.224   3.133  0.0197 -0.2599  0.1118
    1DPPC   GL114871   3.211   2.331   3.533  0.5320 -0.2416  0.2276
    1DPPC   GL214872   3.011   2.634   3.682 -0.0373 -0.1559 -0.0573
    1DPPC   C1A14873   3.424   2.389   3.987  0.2412 -0.0210  0.2244
    1DPPC   C2A14874   3.160   2.468   4.240 -0.0623  0.1452  0.2303
    1DPPC   C3A14875   3.025   2.488   4.671  0.2167 -0.3059 -0.2112
    1DPPC   C4A14876   2.784   2.719   4.925  0.0027 -0.2669  0.0581
    1DPPC   C1B14877   2.905   2.837   4.093  0.1260  0.1556  0.1430
    1DPPC   C2B14878   2.732   2.977   4.518  0.2723 -0.1351 -0.2347
    1DPPC   C3B14879   2.672   3.362   4.875  0.0881 -0.2446 -0.1439
    1DPPC   C4B14880   2.844   3.775   4.810 -0.1062  0.1828 -0.1484
    1DPPC   NC314881  11.717  17.663   2.731 -0.2633  0.1968  0.0398
    1DPPC   PO414882  11.789  18.233   2.794  0.2362  0.2599 -0.0475
    1DPPC   GL114883  11.654  18.392   3.117  0.1304 -0.3950  0.0244
    1DPPC   GL214884  11.358  18.378   3.194  0.1668  0.3378 -0.0417
    1DPPC   C1A14885  11.770  18.396   3.554  0.4894 -0.3066 -0.0584
    1DPPC   C2A14886  11.727  18.467   3.967  0.1337  0.0839  0.1481
    1DPPC   C3A14887  11.670  18.569   4.380  0.0486  0.3186 -0.3067
    1DPPC   C4A14888  11.552  18.550   4.866 -0.0054  0.0281  0.1912
    1DPPC   C1B14889  11.285  18.258   3.584 -0.2960  0.0878 -0.1428
    1DPPC   C2B14890  11.285  18.303   4.033 -0.1166  0.1279  0.3317
    1DPPC   C3B14891  11.194  18.197   4.486 -0.0395 -0.1705  0.2384
    1DPPC   C4B14892  11.188  18.048   4.877  0.0956 -0.3634 -0.0834
    1DPPC   NC314893  11.448  14.486   2.817 -0.1348  0.0332 -0.0917
    1DPPC   PO414894  11.213  14.112   2.933  0.0340  0.1191 -0.1337
    1DPPC   GL114895  10.932  14.072   3.279  0.0654 -0.0980 -0.1062
    1DPPC   GL214896  10.629  13.779   3.426 -0.0502 -0.2908  0.0192
    1DPPC   C1A14897  10.866  14.108   3.692 -0.0419  0.2658  0.2665
    1DPPC   C2A14898  10.879  14.208   4.077 -0.0343 -0.0198  0.0023
    1DPPC   C3A14899  10.826  14.213   4.520  0.2317 -0.1730 -0.3229
    1DPPC   C4A14900  10.577  14.204   4.903  0.3322  0.0593 -0.1877
    1DPPC   C1B14901  10.705  13.643   3.743  0.3364 -0.3396 -0.1704
    1DPPC   C2B14902  10.711  13.602   4.201 -0.0965  0.2105  0.0489
    1DPPC   C3B14903  10.540  13.693   4.604  0.1250  0.1204 -0.0419
    1DPPC   C4B14904  10.647  13.715   5.019  0.0129  0.1019 -0.0695
    1DPPC   NC314905  10.180  11.437   3.089 -0.0600  0.0151  0.0198
    1DPPC   PO414906   9.758  11.348   3.135  0.2240 -0.3206 -0.0556
    1DPPC   GL114907   9.704  11.699   3.400  0.1756  0.2447  0.1131
    1DPPC   GL214908   9.303  11.877   3.522  0.0514 -0.1942 -0.0113
    1DPPC   C1A14909   9.704  12.006   3.789  0.1581  0.2237  0.0035
    1DPPC   C2A14910   9.792  12.083   4.268 -0.2323  0.1263 -0.0784
    1DPPC   C3A14911  10.017  12.204   4.646  0.0033 -0.3299  0.0063
    1DPPC   C4A14912  10.053  12.399   5.055 -0.0243  0.0143  0.0764
    1DPPC   C1B14913   9.314  11.850   4.055 -0.2200  0.1189  0.1478
    1DPPC   C2B14914   9.124  11.944   4.439  0.2792 -0.0526 -0.1736
    1DPPC   C3B14915   9.159  11.902   4.858  0.1078  0.3190 -0.2768
    1DPPC   C4B14916   9.476  11.678   5.023 -0.1626  0.0305  0.1610
    1DPPC   NC314917  13.420  10.516   3.165 -0.1584  0.5173 -0.2089
    1DPPC   PO414918  13.699  10.751   2.946  0.0922  0.0072 -0.1099
    1DPPC   GL114919  13.697  10.876   3.379 -0.0622  0.0089  0.1138
    1DPPC   GL214920  13.441  11.031   3.416 -0.0305 -0.1099  0.0597
    1DPPC   C1A14921  13.824  10.740   3.814  0.0127  0.5080  0.1562
    1DPPC   C2A14922  13.915  10.587   4.164 -0.1663  0.0442  0.0925
    1DPPC   C3A14923  13.857  10.751   4.614 -0.1054  0.0130  0.4357
    1DPPC   C4A14924  13.674  10.972   5.017  0.0191 -0.0627  0.1073
    1DPPC   C1B14925  13.448  11.021   3.894  0.0508  0.1232 -0.3403
    1DPPC   C2B14926  13.499  11.066   4.355 -0.1697  0.0662 -0.1438
    1DPPC   C3B14927  13.479  11.322   4.698 -0.1479  0.2065 -0.2868
    1DPPC   C4B14928  13.714  11.510   5.014  0.0897  0.4728  0.1422
    1DPPC   NC314929  13.996  17.930   2.643  0.0397  0.1042  0.2977
    1DPPC   PO414930  13.636  18.079   2.985 -0.0015 -0.1232 -0.0418
    1DPPC   GL114931  13.620  17.924   3.428  0.0415  0.3660  0.2716
    1DPPC   GL214932  13.951  17.836   3.627  0.1692 -0.0070 -0.0887
    1DPPC   C1A14933  13.557  17.961   3.900  0.1085 -0.2121 -0.1556
    1DPPC   C2A14934  13.562  18.028   4.314 -0.1759  0.1660 -0.4305
    1DPPC   C3A14935  13.657  17.901   4.727  0.2264 -0.2348  0.0514
    1DPPC   C4A14936  13.544  17.932   5.083 -0.0695  0.2073  0.1664
    1DPPC   C1B14937  14.019  17.787   4.048  0.0479 -0.4591 -0.0347
    1DPPC   C2B14938  14.047  17.752   4.393  0.1728 -0.1935 -0.1196
    1DPPC   C3B14939  14.192  17.771   4.751 -0.0527  0.0117  0.0497
    1DPPC   C4B14940  14.028  18.050   5.024 -0.0603 -0.2020 -0.3112
    1DPPC   NC314941  20.403  12.103   3.067 -0.2111 -0.2761 -0.4162
    1DPPC   PO414942  20.207  12.440   2.847  0.0969  0.4654  0.1276
    1DPPC   GL114943  20.387  12.643   3.318  0.0334 -0.2630 -0.2522
    1DPPC   GL214944  20.235  12.819   3.607  0.1433  0.1640 -0.0937
    1DPPC   C1A14945  20.599  12.474   3.686  0.0329  0.1402  0.3180
    1DPPC   C2A14946  20.926  12.588   3.932  0.0140  0.2112 -0.1529
    1DPPC   C3A14947  21.022  12.498   4.316 -0.0208  0.0216 -0.0188
    1DPPC   C4A14948  20.964  12.397   4.768  0.0760  0.1815 -0.1866
    1DPPC   C1B14949  20.170  12.754   4.046 -0.3655 -0.0982 -0.2691
    1DPPC   C2B14950  20.496  12.662   4.258 -0.0117  0.0700  0.1735
    1DPPC   C3B14951  20.533  12.531   4.620 -0.2358  0.1775 -0.3127
    1DPPC   C4B14952  20.275  12.742   5.025  0.1482 -0.3211 -0.1938
    1DPPC   NC314953  16.472  14.242   2.879 -0.0844 -0.1293  0.0983
    1DPPC   PO414954  16.578  14.729   2.794  0.2272 -0.0777 -0.1423
    1DPPC   GL114955  16.540  14.872   3.202  0.0218  0.0921 -0.1359
    1DPPC   GL214956  16.325  15.135   3.306  0.0284  0.1266 -0.0456
    1DPPC   C1A14957  16.789  14.898   3.637  0.0729  0.0227 -0.1514
    1DPPC   C2A14958  16.779  14.950   4.089  0.0511 -0.2067 -0.1874
    1DPPC   C3A14959  16.690  15.225   4.455  0.2393 -0.0313 -0.0445
    1DPPC   C4A14960  16.593  15.501   4.784  0.2704 -0.1936 -0.0179
    1DPPC   C1B14961  16.327  14.839   3.689  0.0018  0.1569 -0.1951
    1DPPC   C2B14962  16.277  14.939   4.098 -0.0530  0.2739  0.2364
    1DPPC   C3B14963  16.205  14.952   4.569  0.0733 -0.1726 -0.0767
    1DPPC   C4B14964  16.389  14.974   4.969  0.2806 -0.2803  0.0596
    1DPPC   NC314965   7.893  15.832   2.220 -0.0721  0.0541 -0.0405
    1DPPC   PO414966   8.038  15.403   2.254 -0.1068 -0.1907 -0.0018
    1DPPC   GL114967   8.114  15.512   2.626  0.0730  0.0489  0.1618
    1DPPC   GL214968   8.425  15.572   2.786 -0.0183  0.1706 -0.2161
    1DPPC   C1A14969   7.909  15.748   2.986  0.1109  0.0525  0.0952
    1DPPC   C2A14970   7.973  15.897   3.336  0.0192 -0.2433  0.2572
    1DPPC   C3A14971   8.204  15.789   3.659  0.1816  0.1950 -0.3892
    1DPPC   C4A14972   8.243  15.737   4.060  0.2576 -0.2335 -0.0465
    1DPPC   C1B14973   8.279  15.456   3.211 -0.1980 -0.3980  0.1801
    1DPPC   C2B14974   8.343  15.272   3.594  0.2040 -0.1348 -0.1468
    1DPPC   C3B14975   8.483  15.259   4.010 -0.1734  0.0569  0.0129
    1DPPC   C4B14976   8.692  15.303   4.458  0.3934  0.0995  0.2263
    1DPPC   NC314977  17.436  14.481   2.489  0.0307  0.2108  0.0802
    1DPPC   PO414978  17.334  14.772   2.698  0.1654 -0.1926  0.1659
    1DPPC   GL114979  17.594  14.839   3.098 -0.0839  0.1606  0.0683
    1DPPC   GL214980  17.537  14.526   3.204  0.1697 -0.0862 -0.0165
    1DPPC   C1A14981  17.379  15.037   3.466  0.2031 -0.0060 -0.1724
    1DPPC   C2A14982  17.422  15.004   3.914 -0.3299  0.0672  0.0401
    1DPPC   C3A14983  17.382  15.082   4.321  0.0314  0.0848  0.0012
    1DPPC   C4A14984  17.440  15.091   4.862 -0.0836  0.0896  0.1191
    1DPPC   C1B14985  17.677  14.562   3.619  0.2130 -0.3798  0.2673
    1DPPC   C2B14986  17.678  14.591   4.145 -0.0996 -0.1972 -0.1864
    1DPPC   C3B14987  17.564  14.641   4.539 -0.0264 -0.4267  0.1837
    1DPPC   C4B14988  17.563  14.623   4.946 -0.0503  0.0076 -0.2034
    1DPPC   NC314989  25.436  23.537   2.877 -0.1553  0.0975 -0.0912
    1DPPC   PO414990  25.815  23.481   2.915  0.1860  0.0392 -0.0769
    1DPPC   GL114991  25.623  23.479   3.332 -0.0354  0.0855 -0.2518
    1DPPC   GL214992  25.401  23.699   3.443  0.2689 -0.0608  0.2276
    1DPPC   C1A14993  25.513  23.234   3.662  0.2432  0.2191  0.0643
    1DPPC   C2A14994  25.088  23.108   3.803  0.5955 -0.0316 -0.1798
    1DPPC   C3A14995  25.060  22.753   4.102  0.1810  0.0264  0.1051
    1DPPC   C4A14996  24.983  22.415   4.334 -0.1381 -0.1319  0.0742
    1DPPC   C1B14997  25.196  23.591   3.843  0.2748  0.1764  0.1308
    1DPPC   C2B14998  24.835  23.681   3.931  0.1164  0.4035 -0.3786
    1DPPC   C3B14999  24.547  23.681   4.219 -0.1698 -0.0411  0.0082
    1DPPC   C4B15000  24.238  23.858   4.178 -0.1281  0.1978 -0.1569
    1DPPC   NC315001  11.569  12.290   2.375  0.1611  0.0879 -0.0776
    1DPPC   PO415002  11.344  12.713   2.659 -0.1291 -0.0787 -0.2412
    1DPPC   GL115003  11.301  12.635   3.198 -0.3509 -0.1297 -0.3828
    1DPPC   GL215004  11.637  12.480   3.421 -0.0778  0.0970  0.1302
    1DPPC   C1A15005  11.286  12.709   3.667 -0.2242 -0.2512  0.1420
    1DPPC   C2A15006  11.292  12.840   4.065  0.0591 -0.2635  0.0774
    1DPPC   C3A15007  11.258  12.850   4.502  0.0870  0.1185 -0.0072
    1DPPC   C4A15008  11.062  12.815   4.876  0.0851 -0.1538  0.0542
    1DPPC   C1B15009  11.875  12.479   3.793  0.1308  0.1861 -0.0451
    1DPPC   C2B15010  11.900  12.423   4.213  0.1453  0.0632  0.0652
    1DPPC   C3B15011  11.816  12.519   4.635  0.2691  0.1140 -0.1742
    1DPPC   C4B15012  11.925  12.642   5.081  0.1567  0.1736  0.0369
    1DPPC   NC315013  12.557  20.110   2.989  0.3372 -0.2065 -0.4279
    1DPPC   PO415014  12.188  20.298   2.969  0.1181 -0.1530 -0.0306
    1DPPC   GL115015  12.396  20.318   3.395 -0.4001  0.1479 -0.0430
    1DPPC   GL215016  12.508  20.050   3.538 -0.0740  0.0615  0.2177
    1DPPC   C1A15017  12.268  20.408   3.804  0.0225  0.0324  0.1174
    1DPPC   C2A15018  12.119  20.508   4.231 -0.2588 -0.3120  0.2587
    1DPPC   C3A15019  11.894  20.411   4.538  0.1028  0.1597  0.1077
    1DPPC   C4A15020  11.455  20.393   4.670  0.1018 -0.2759  0.0926
    1DPPC   C1B15021  12.185  19.911   3.848  0.4981 -0.0396  0.2993
    1DPPC   C2B15022  11.831  20.046   4.171 -0.4741 -0.0362  0.1059
    1DPPC   C3B15023  11.409  20.118   4.150 -0.2438  0.3984 -0.0465
    1DPPC   C4B15024  11.062  20.306   4.393 -0.1926 -0.1332 -0.0391
    1DPPC   NC315025   7.921  20.083   2.504 -0.3294  0.0634 -0.0415
    1DPPC   PO415026   8.171  19.743   2.590  0.3308  0.0074  0.0923
    1DPPC   GL115027   8.260  19.688   3.029 -0.2557  0.3136  0.2711
    1DPPC   GL215028   8.540  19.438   3.006 -0.0061  0.1860 -0.1850
    1DPPC   C1A15029   8.348  19.793   3.482 -0.0008  0.2362  0.3120
    1DPPC   C2A15030   8.367  20.027   3.808 -0.2668 -0.0623  0.3925
    1DPPC   C3A15031   8.341  20.143   4.264  0.1341  0.0568 -0.0251
    1DPPC   C4A15032   8.584  20.353   4.422  0.0283  0.2158 -0.0002
    1DPPC   C1B15033   8.580  19.347   3.418 -0.0205 -0.1618 -0.0557
    1DPPC   C2B15034   8.705  19.538   3.811 -0.3872 -0.2753 -0.1316
    1DPPC   C3B15035   8.792  19.884   4.005  0.0814 -0.3194  0.2980
    1DPPC   C4B15036   8.852  20.222   3.967 -0.0895 -0.1338 -0.0346
    1DPPC   NC315037  15.620   1.700   4.330  0.1692  0.2566  0.2330
    1DPPC   PO415038  15.837   2.077   4.306 -0.1420  0.0221 -0.1436
    1DPPC   GL115039  16.056   2.084   4.579  0.3460  0.1168 -0.2229
    1DPPC   GL215040  16.233   2.339   4.494  0.2660 -0.2586  0.0711
    1DPPC   C1A15041  16.044   1.973   5.064 -0.4785 -0.0038  0.0504
    1DPPC   C2A15042  15.909   1.551   5.301  0.1942 -0.3118  0.1929
    1DPPC   C3A15043  15.776   1.115   5.537 -0.0241  0.1470  0.0239
    1DPPC   C4A15044  15.814   1.175   6.022 -0.2802  0.0913  0.2696
    1DPPC   C1B15045  16.223   2.537   4.915  0.0390 -0.3529  0.1867
    1DPPC   C2B15046  15.836   2.587   5.256 -0.0259 -0.1387  0.2635
    1DPPC   C3B15047  15.795   2.836   5.562  0.2273 -0.0237 -0.1468
    1DPPC   C4B15048  15.949   2.940   5.883 -0.2626 -0.1987  0.2964
    1DPPC   NC315049   3.984  26.270   2.627  0.2032 -0.0646 -0.1268
    1DPPC   PO415050   3.877  26.591   3.002 -0.2861  0.2378 -0.1991
    1DPPC   GL115051   3.704  26.432   3.371  0.0631 -0.2543 -0.3477
    1DPPC   GL215052   3.395  26.246   3.458  0.4176  0.0138  0.3121
    1DPPC   C1A15053   4.016  26.261   3.669 -0.2454  0.0217 -0.0565
    1DPPC   C2A15054   4.123  25.961   4.028  0.1127 -0.2207  0.2375
    1DPPC   C3A15055   4.130  25.824   4.494 -0.1177 -0.1191  0.5145
    1DPPC   C4A15056   4.357  25.424   4.692 -0.1858 -0.2230 -0.2379
    1DPPC   C1B15057   3.214  26.426   3.822  0.0533  0.2669 -0.0648
    1DPPC   C2B15058   3.089  26.461   4.281  0.0168  0.0879  0.1827
    1DPPC   C3B15059   3.231  26.874   4.548  0.2392  0.0996 -0.1308
    1DPPC   C4B15060   3.138  27.059   4.851 -0.1943  0.0190 -0.2011
    1DPPC   NC315061  17.472  19.806   3.412  0.0432  0.0138  0.1301
    1DPPC   PO415062  17.453  19.324   3.447  0.0354  0.0538  0.0826
    1DPPC   GL115063  17.338  19.356   3.882  0.0355  0.2044  0.0708
    1DPPC   GL215064  17.654  19.434   4.013 -0.2152 -0.0766  0.1086
    1DPPC   C1A15065  17.287  19.232   4.356  0.2043  0.1156 -0.0905
    1DPPC   C2A15066  17.136  19.171   4.688  0.1272 -0.1072  0.1189
    1DPPC   C3A15067  16.870  19.179   4.953  0.5197 -0.1998 -0.0678
    1DPPC   C4A15068  16.955  19.263   5.347  0.1544  0.2094 -0.2915
    1DPPC   C1B15069  17.836  19.567   4.397 -0.0981  0.1392  0.1909
    1DPPC   C2B15070  17.909  19.631   4.882  0.0803 -0.0926  0.0717
    1DPPC   C3B15071  18.039  19.631   5.293  0.3009 -0.0264  0.0176
    1DPPC   C4B15072  17.952  19.662   5.697 -0.2197  0.1931 -0.0249
    1DPPC   NC315073  10.687   9.708   3.381  0.0652 -0.1437  0.2411
    1DPPC   PO415074  10.934   9.996   3.653  0.2778 -0.0527  0.1080
    1DPPC   GL115075  10.971  10.159   4.124  0.1556 -0.0255  0.1246
    1DPPC   GL215076  10.688  10.313   4.049 -0.2052 -0.0727 -0.0114
    1DPPC   C1A15077  11.102  10.043   4.573 -0.0050  0.3543 -0.2097
    1DPPC   C2A15078  11.257  10.071   4.975 -0.2132  0.0426  0.0983
    1DPPC   C3A15079  11.408   9.902   5.371  0.0665 -0.1256  0.2137
    1DPPC   C4A15080  11.466   9.497   5.638 -0.2044  0.3219  0.1843
    1DPPC   C1B15081  10.661  10.327   4.525 -0.2706  0.2513 -0.2053
    1DPPC   C2B15082  10.755  10.223   4.905 -0.0184  0.1352  0.0813
    1DPPC   C3B15083  10.861  10.139   5.321 -0.0254 -0.0410 -0.2907
    1DPPC   C4B15084  10.879   9.969   5.645 -0.1392 -0.2518 -0.0414
    1DPPC   NC315085   9.613  16.577   2.637 -0.4157  0.2236 -0.0677
    1DPPC   PO415086   9.888  16.263   2.755 -0.5089 -0.0171 -0.0456
    1DPPC   GL115087   9.707  16.078   3.055  0.2881 -0.1902 -0.0617
    1DPPC   GL215088   9.609  15.745   3.110  0.0529 -0.0017  0.1220
    1DPPC   C1A15089   9.667  16.116   3.434 -0.0586 -0.0002  0.0863
    1DPPC   C2A15090   9.558  16.024   3.885  0.0631 -0.2068 -0.0836
    1DPPC   C3A15091   9.410  15.762   4.265  0.6123 -0.1144  0.1776
    1DPPC   C4A15092   9.205  15.488   4.600 -0.0353 -0.0263  0.4089
    1DPPC   C1B15093   9.263  15.912   3.246 -0.2823  0.1965  0.0497
    1DPPC   C2B15094   9.109  15.995   3.657  0.0234 -0.1388  0.2626
    1DPPC   C3B15095   9.031  16.125   4.138 -0.0662  0.0468 -0.1057
    1DPPC   C4B15096   9.047  16.224   4.577 -0.0754 -0.4320 -0.0518
    1DPPC   NC315097  10.779   7.540   3.227 -0.1678 -0.0431 -0.2083
    1DPPC   PO415098  10.846   8.026   3.217 -0.1240  0.2394  0.2447
    1DPPC   GL115099  10.616   7.909   3.501  0.2895  0.0283 -0.3206
    1DPPC   GL215100  10.682   8.102   3.745  0.1432  0.2171  0.1030
    1DPPC   C1A15101  10.373   7.735   3.869 -0.0240  0.3313 -0.0380
    1DPPC   C2A15102  10.257   7.634   4.238 -0.1335 -0.1174  0.0054
    1DPPC   C3A15103  10.348   7.716   4.705  0.0699  0.1126  0.0895
    1DPPC   C4A15104  10.197   7.779   5.075  0.1540 -0.3575 -0.0730
    1DPPC   C1B15105  10.568   8.137   4.109 -0.1121  0.0037  0.0042
    1DPPC   C2B15106  10.519   8.186   4.612  0.2108  0.0942  0.3146
    1DPPC   C3B15107  10.341   8.286   5.008 -0.0145 -0.1062 -0.2743
    1DPPC   C4B15108  10.305   8.468   5.358 -0.1964 -0.0617  0.0985
    1DPPC   NC315109  17.425  10.438   2.717 -0.1280  0.0515 -0.0961
    1DPPC   PO415110  17.386  10.846   2.934 -0.1572  0.1124 -0.0354
    1DPPC   GL115111  17.213  10.886   3.344  0.0842  0.0120  0.1279
    1DPPC   GL215112  17.411  10.710   3.516 -0.0462  0.2377  0.0793
    1DPPC   C1A15113  16.971  11.133   3.699 -0.1057  0.3008 -0.1884
    1DPPC   C2A15114  16.916  11.014   4.142  0.2203 -0.0725 -0.2228
    1DPPC   C3A15115  17.198  10.809   4.333 -0.1716 -0.0271 -0.0061
    1DPPC   C4A15116  17.321  10.772   4.665  0.1351  0.1738  0.4160
    1DPPC   C1B15117  17.387  10.985   3.920  0.0735  0.1704 -0.0498
    1DPPC   C2B15118  17.379  11.229   4.235  0.0550  0.0025  0.0033
    1DPPC   C3B15119  17.364  11.343   4.663  0.1474  0.3241  0.0420
    1DPPC   C4B15120  17.434  11.644   4.976  0.0287 -0.1394 -0.0198
    1DPPC   NC315121  10.419  21.519   2.329  0.2512  0.0040 -0.1014
    1DPPC   PO415122  10.245  21.551   2.731 -0.3575  0.0708 -0.5182
    1DPPC   GL115123  10.342  21.812   3.143  0.1743  0.0300  0.1527
    1DPPC   GL215124  10.026  21.829   3.094  0.0707  0.0333  0.1527
    1DPPC   C1A15125  10.461  21.862   3.559 -0.2436 -0.1185 -0.1358
    1DPPC   C2A15126  10.703  21.895   3.887  0.0818 -0.0601  0.0255
    1DPPC   C3A15127  10.756  21.649   4.207  0.0822  0.1075  0.1059
    1DPPC   C4A15128  10.857  21.214   4.355  0.1108 -0.1111  0.1031
    1DPPC   C1B15129   9.938  21.698   3.476  0.0075  0.2287  0.0940
    1DPPC   C2B15130  10.226  21.645   3.912  0.3759 -0.3463  0.3106
    1DPPC   C3B15131  10.293  21.386   4.263  0.1834  0.1177  0.0508
    1DPPC   C4B15132  10.476  21.500   4.725  0.0554  0.5462 -0.0920
    1DPPC   NC315133  16.780  14.124   1.935 -0.0083  0.2309 -0.0378
    1DPPC   PO415134  17.153  14.083   2.301 -0.2321 -0.2258 -0.1938
    1DPPC   GL115135  17.332  13.996   2.714  0.0451 -0.3851 -0.2249
    1DPPC   GL215136  17.562  14.051   2.980 -0.0211 -0.2669  0.1223
    1DPPC   C1A15137  17.165  14.191   3.213 -0.1331  0.0969 -0.1976
    1DPPC   C2A15138  17.184  14.138   3.706 -0.2164  0.0136  0.3100
    1DPPC   C3A15139  17.081  14.116   4.183  0.0573  0.1202 -0.1612
    1DPPC   C4A15140  17.324  14.176   4.484 -0.2803  0.0342 -0.3656
    1DPPC   C1B15141  17.626  14.016   3.359  0.0065 -0.0792 -0.1828
    1DPPC   C2B15142  17.658  14.149   3.843 -0.1581 -0.0786 -0.0778
    1DPPC   C3B15143  17.789  14.131   4.260  0.1106 -0.0096  0.0244
    1DPPC   C4B15144  17.820  14.217   4.690 -0.1342  0.3562  0.2538
    1DPPC   NC315145  18.192   0.695   3.658 -0.0427  0.1103  0.1426
    1DPPC   PO415146  18.630   0.479   3.611  0.0707  0.2057 -0.0699
    1DPPC   GL115147  18.709   0.806   3.872 -0.2405  0.1558 -0.1126
    1DPPC   GL215148  18.839   0.638   4.180  0.3146  0.0978  0.0046
    1DPPC   C1A15149  18.746   1.193   4.116  0.3847 -0.0753  0.1355
    1DPPC   C2A15150  18.907   1.520   4.378 -0.1696 -0.3466 -0.1455
    1DPPC   C3A15151  18.789   1.724   4.669  0.1652  0.1158  0.0133
    1DPPC   C4A15152  18.780   2.045   4.923 -0.0875 -0.0615 -0.0621
    1DPPC   C1B15153  18.984   0.349   4.558 -0.1467  0.1520 -0.3364
    1DPPC   C2B15154  19.168   0.435   4.992  0.0508  0.1067 -0.1060
    1DPPC   C3B15155  19.196   0.560   5.470  0.0256 -0.0379 -0.2557
    1DPPC   C4B15156  19.004   0.807   5.870  0.0876  0.0664 -0.0076
    1DPPC   NC315157  12.736  13.792   2.991  0.1519 -0.1687 -0.0029
    1DPPC   PO415158  12.616  14.199   3.016  0.0793 -0.3296 -0.0615
    1DPPC   GL115159  12.514  14.364   3.427  0.1255 -0.1983 -0.0993
    1DPPC   GL215160  12.242  14.119   3.495  0.0580  0.0424 -0.0812
    1DPPC   C1A15161  12.680  14.527   3.773  0.3049 -0.0392  0.0024
    1DPPC   C2A15162  12.618  14.558   4.220 -0.1725  0.3426  0.0731
    1DPPC   C3A15163  12.544  14.865   4.655  0.0778  0.0459  0.4549
    1DPPC   C4A15164  12.444  14.874   5.049 -0.1479 -0.0218 -0.1114
    1DPPC   C1B15165  12.300  14.286   3.946  0.2658 -0.2285  0.1911
    1DPPC   C2B15166  12.160  14.318   4.388  0.1801  0.1284  0.2677
    1DPPC   C3B15167  12.178  14.549   4.784  0.1484  0.0905 -0.0678
    1DPPC   C4B15168  12.148  14.336   5.173  0.1211 -0.0032  0.0598
    1DPPC   NC315169  10.148  12.505   2.855 -0.0553  0.1553 -0.1261
    1DPPC   PO415170   9.835  12.655   3.047  0.0512  0.0795 -0.0956
    1DPPC   GL115171   9.782  12.631   3.467  0.1325  0.0540  0.0446
    1DPPC   GL215172   9.500  12.406   3.459 -0.0188 -0.0097 -0.0371
    1DPPC   C1A15173   9.848  12.479   3.927  0.1757 -0.0111  0.1963
    1DPPC   C2A15174   9.755  12.552   4.280 -0.1162 -0.1724  0.3669
    1DPPC   C3A15175   9.699  12.677   4.700  0.0633  0.0274 -0.1372
    1DPPC   C4A15176   9.975  12.967   4.936 -0.1100 -0.2010 -0.3004
    1DPPC   C1B15177   9.311  12.290   3.858 -0.1075  0.1152 -0.1119
    1DPPC   C2B15178   9.262  12.397   4.281  0.2303 -0.0244  0.1503
    1DPPC   C3B15179   9.498  12.190   4.656  0.1865 -0.0435  0.2822
    1DPPC   C4B15180   9.598  12.255   5.046  0.0554 -0.3527 -0.1397
    1DPPC   NC315181   8.550  17.264   2.502  0.1572  0.1111 -0.1851
    1DPPC   PO415182   8.632  16.964   2.793 -0.0936  0.1046  0.0334
    1DPPC   GL115183   8.316  17.047   2.953  0.0419 -0.1373  0.0947
    1DPPC   GL215184   8.120  16.756   2.995  0.5141  0.1612  0.0396
    1DPPC   C1A15185   8.053  17.190   3.284  0.0138  0.1953  0.1911
    1DPPC   C2A15186   7.851  17.247   3.749  0.0258  0.3757 -0.1820
    1DPPC   C3A15187   7.734  17.151   4.102  0.0387  0.2226 -0.0579
    1DPPC   C4A15188   7.676  16.859   4.506  0.0143  0.0892  0.1039
    1DPPC   C1B15189   8.366  16.817   3.371 -0.0046 -0.1557 -0.0045
    1DPPC   C2B15190   8.267  16.755   3.785 -0.0175  0.0757 -0.1695
    1DPPC   C3B15191   8.182  16.591   4.240 -0.1519 -0.4405  0.1147
    1DPPC   C4B15192   8.052  16.659   4.730  0.1967  0.0617  0.4426
    1DPPC   NC315193  11.428  19.641   2.389  0.2449 -0.0032 -0.0907
    1DPPC   PO415194  11.776  19.823   2.746  0.2025 -0.2483 -0.1224
    1DPPC   GL115195  11.668  19.894   3.120  0.1068 -0.1559 -0.0305
    1DPPC   GL215196  11.960  19.987   3.329 -0.1121  0.0267 -0.0195
    1DPPC   C1A15197  11.405  19.821   3.497  0.0822 -0.0913 -0.2827
    1DPPC   C2A15198  11.090  19.811   3.885  0.1775 -0.1955  0.3367
    1DPPC   C3A15199  10.932  19.854   4.411 -0.1759 -0.0878 -0.0645
    1DPPC   C4A15200  10.757  19.697   4.804  0.0508  0.1455  0.3854
    1DPPC   C1B15201  11.774  20.209   3.664  0.1117  0.0201  0.1692
    1DPPC   C2B15202  11.699  20.528   4.016 -0.1352 -0.1254  0.2058
    1DPPC   C3B15203  11.506  20.676   4.298 -0.0814 -0.0783  0.2819
    1DPPC   C4B15204  11.380  20.950   4.541 -0.0476 -0.0809 -0.2793
    1DPPC   NC315205  12.273  24.625   3.505 -0.1328 -0.0839  0.0297
    1DPPC   PO415206  12.210  24.125   3.566 -0.1224 -0.0277  0.0365
    1DPPC   GL115207  12.370  24.152   3.888 -0.4349 -0.1788 -0.1103
    1DPPC   GL215208  12.583  24.379   3.886 -0.1085  0.0368 -0.3536
    1DPPC   C1A15209  12.602  24.345   4.352  0.0901  0.0628  0.1503
    1DPPC   C2A15210  12.802  24.590   4.711 -0.1418  0.1456 -0.0038
    1DPPC   C3A15211  12.593  24.726   5.133  0.0390  0.0720 -0.1390
    1DPPC   C4A15212  12.291  24.577   5.418 -0.1517  0.0916  0.0236
    1DPPC   C1B15213  12.975  24.282   3.937  0.0279 -0.2086 -0.0458
    1DPPC   C2B15214  13.077  24.127   4.414  0.0921 -0.1280 -0.2068
    1DPPC   C3B15215  12.833  24.111   4.779 -0.2320 -0.1207 -0.0398
    1DPPC   C4B15216  12.547  24.197   5.150 -0.1677  0.0552 -0.1023
    1DPPC   NC315217   9.832   9.991   3.326 -0.1572 -0.0087  0.1045
    1DPPC   PO415218   9.368  10.087   3.326  0.1700  0.1063  0.3557
    1DPPC   GL115219   9.138  10.231   3.669 -0.1333  0.2428 -0.4992
    1DPPC   GL215220   9.136  10.038   3.919  0.1407 -0.2069 -0.1023
    1DPPC   C1A15221   9.026  10.534   4.020  0.2038 -0.0116 -0.0263
    1DPPC   C2A15222   9.059  10.685   4.392 -0.0225  0.0978 -0.0337
    1DPPC   C3A15223   8.836  10.890   4.595  0.1642  0.0097  0.1610
    1DPPC   C4A15224   8.722  11.285   4.726  0.2347  0.0761  0.0343
    1DPPC   C1B15225   9.098  10.106   4.339 -0.0135 -0.2663  0.2832
    1DPPC   C2B15226   9.055  10.325   4.729 -0.1650 -0.0444 -0.2437
    1DPPC   C3B15227   8.913  10.629   4.972 -0.1265 -0.0656 -0.0924
    1DPPC   C4B15228   8.756  11.035   5.115 -0.2439  0.2083 -0.2166
    1DPPC   NC315229  14.888  17.896   2.789  0.0395  0.1437  0.0916
    1DPPC   PO415230  14.508  17.990   2.810  0.1053  0.2025 -0.2248
    1DPPC   GL115231  14.677  18.049   3.211 -0.0429 -0.1797 -0.0423
    1DPPC   GL215232  14.929  17.743   3.241  0.1795 -0.0741  0.2387
    1DPPC   C1A15233  14.766  18.047   3.688 -0.1397 -0.1231 -0.2970
    1DPPC   C2A15234  14.947  18.083   4.060 -0.0699 -0.2642  0.1469
    1DPPC   C3A15235  14.971  18.073   4.473  0.1849  0.4242 -0.0704
    1DPPC   C4A15236  14.817  18.047   4.871 -0.2232 -0.3814 -0.1520
    1DPPC   C1B15237  14.977  17.613   3.693  0.1308 -0.4428 -0.1042
    1DPPC   C2B15238  15.028  17.548   4.192 -0.0654 -0.1404  0.0907
    1DPPC   C3B15239  15.125  17.482   4.497 -0.0809 -0.0676  0.0252
    1DPPC   C4B15240  15.188  17.674   4.894  0.4617  0.0081 -0.0937
    1DPPC   NC315241  20.044  10.338   2.419  0.0876 -0.2783 -0.0206
    1DPPC   PO415242  20.205  10.363   2.844 -0.1770 -0.0981  0.0916
    1DPPC   GL115243  19.925  10.443   3.263 -0.0143  0.0869 -0.3503
    1DPPC   GL215244  19.983  10.769   3.342 -0.3155 -0.2702 -0.0041
    1DPPC   C1A15245  19.850  10.139   3.653 -0.0373  0.0455  0.3682
    1DPPC   C2A15246  19.698  10.026   4.093  0.2444 -0.2054  0.1972
    1DPPC   C3A15247  19.678  10.112   4.551 -0.1679 -0.0801 -0.1210
    1DPPC   C4A15248  19.968  10.334   4.867 -0.0379  0.1887  0.1272
    1DPPC   C1B15249  19.875  10.875   3.653  0.0979 -0.3660 -0.0678
    1DPPC   C2B15250  19.820  11.108   4.065 -0.1044 -0.1147 -0.1425
    1DPPC   C3B15251  19.838  11.562   4.303  0.1274  0.2263 -0.0739
    1DPPC   C4B15252  19.772  11.790   4.631  0.0203 -0.0187  0.2474
    1DPPC   NC315253  13.257   5.815   3.843  0.0927  0.0579 -0.1668
    1DPPC   PO415254  13.332   6.237   4.073 -0.1936  0.0535  0.4793
    1DPPC   GL115255  13.358   6.461   4.416 -0.0910 -0.0568 -0.0284
    1DPPC   GL215256  13.247   6.699   4.255  0.2464  0.1324  0.3930
    1DPPC   C1A15257  13.499   6.689   4.780 -0.0651 -0.0859 -0.0532
    1DPPC   C2A15258  13.663   6.810   5.218  0.1593  0.0785  0.0223
    1DPPC   C3A15259  13.804   6.910   5.664 -0.0205  0.2913 -0.0245
    1DPPC   C4A15260  13.890   6.882   6.120  0.1830  0.0389 -0.1592
    1DPPC   C1B15261  13.077   6.868   4.583 -0.1319 -0.1020  0.0169
    1DPPC   C2B15262  13.139   7.026   4.974 -0.3462 -0.0062 -0.1626
    1DPPC   C3B15263  13.318   7.154   5.372 -0.0115  0.3174  0.0354
    1DPPC   C4B15264  13.393   7.582   5.608  0.2679  0.1919 -0.0169
    1DPPC   NC315265  18.730  15.609   2.487 -0.0816 -0.0337  0.1318
    1DPPC   PO415266  19.009  15.318   2.738 -0.1224  0.2472 -0.2781
    1DPPC   GL115267  18.746  15.084   3.015  0.0779 -0.1545 -0.1362
    1DPPC   GL215268  18.914  14.847   2.943 -0.0349  0.0517 -0.2869
    1DPPC   C1A15269  18.620  15.075   3.475 -0.1663  0.1335  0.0676
    1DPPC   C2A15270  18.403  14.994   3.824 -0.1049  0.2758 -0.2814
    1DPPC   C3A15271  18.359  14.984   4.209 -0.0580  0.0694  0.1773
    1DPPC   C4A15272  18.557  14.791   4.604 -0.0811 -0.1109  0.3306
    1DPPC   C1B15273  19.110  14.890   3.375 -0.1741  0.0666 -0.0921
    1DPPC   C2B15274  19.036  14.902   3.733  0.2171 -0.1188 -0.2750
    1DPPC   C3B15275  18.894  15.002   4.171 -0.0850  0.0985 -0.1963
    1DPPC   C4B15276  19.029  14.901   4.676  0.1673  0.1223  0.0968
    1DPPC   NC315277  12.345   9.797   2.739 -0.3226  0.2895 -0.0311
    1DPPC   PO415278  12.719   9.890   2.985 -0.0614  0.1867  0.2024
    1DPPC   GL115279  12.772   9.832   3.397  0.1272  0.0513 -0.0235
    1DPPC   GL215280  12.873   9.473   3.416 -0.2228 -0.2687  0.0516
    1DPPC   C1A15281  12.748   9.922   3.866 -0.1265  0.1047  0.1147
    1DPPC   C2A15282  12.689   9.844   4.379  0.1794  0.4315  0.0763
    1DPPC   C3A15283  12.646   9.839   4.764 -0.0944 -0.0695 -0.0372
    1DPPC   C4A15284  12.742   9.930   5.206 -0.1483 -0.1410  0.0872
    1DPPC   C1B15285  12.941   9.477   3.975  0.2738  0.1405  0.3444
    1DPPC   C2B15286  13.054   9.429   4.310 -0.1221  0.0780 -0.0096
    1DPPC   C3B15287  13.071   9.437   4.593  0.1613 -0.1651  0.0173
    1DPPC   C4B15288  13.057   9.628   5.028  0.1286  0.3315  0.1514
    1DPPC   NC315289  17.894   1.247   3.035  0.1121  0.1687  0.1628
    1DPPC   PO415290  17.917   1.006   3.433  0.0283  0.1935 -0.1286
    1DPPC   GL115291  17.804   1.109   3.843 -0.0609  0.0052 -0.1702
    1DPPC   GL215292  17.554   1.296   3.969 -0.2310 -0.0040 -0.0131
    1DPPC   C1A15293  17.859   1.075   4.301  0.0077 -0.0300 -0.0498
    1DPPC   C2A15294  17.646   1.023   4.690  0.1345 -0.0887  0.1278
    1DPPC   C3A15295  17.371   1.233   5.030  0.1940 -0.1055 -0.2423
    1DPPC   C4A15296  17.193   1.022   5.426 -0.0281 -0.0440 -0.0618
    1DPPC   C1B15297  17.578   1.518   4.368 -0.0473 -0.0826 -0.0505
    1DPPC   C2B15298  17.526   1.653   4.817  0.0182 -0.1346 -0.0776
    1DPPC   C3B15299  17.350   1.735   5.298 -0.0992  0.0073 -0.0276
    1DPPC   C4B15300  17.548   1.834   5.816  0.3575 -0.4674  0.0532
    1DPPC   NC315301  14.202  17.287   2.889 -0.1210  0.2065  0.0766
    1DPPC   PO415302  14.637  17.465   2.942 -0.3673  0.2176  0.1308
    1DPPC   GL115303  14.773  17.219   3.243 -0.0318  0.3745  0.3123
    1DPPC   GL215304  15.165  17.231   3.369  0.1287 -0.3491 -0.1026
    1DPPC   C1A15305  14.762  17.120   3.659  0.1987  0.1155  0.0024
    1DPPC   C2A15306  14.775  17.077   4.121  0.1586 -0.0807  0.1033
    1DPPC   C3A15307  14.751  17.097   4.589 -0.0415 -0.0250  0.0867
    1DPPC   C4A15308  14.977  17.242   4.931 -0.1369 -0.1437  0.0386
    1DPPC   C1B15309  15.297  17.248   3.805 -0.0884  0.2045  0.2006
    1DPPC   C2B15310  15.378  17.101   4.148  0.1551  0.2555 -0.1331
    1DPPC   C3B15311  15.254  16.903   4.525 -0.0347 -0.0517  0.1265
    1DPPC   C4B15312  14.937  16.645   4.719 -0.0848 -0.0442  0.1042
    1DPPC   NC315313  15.441  11.078   2.203 -0.2197  0.3321 -0.0436
    1DPPC   PO415314  15.485  11.311   2.572  0.2606  0.2788 -0.1868
    1DPPC   GL115315  15.510  11.414   2.972  0.0206 -0.1162  0.2199
    1DPPC   GL215316  15.893  11.467   2.995 -0.2812  0.1430  0.1095
    1DPPC   C1A15317  15.469  11.513   3.461 -0.0378  0.0652 -0.1300
    1DPPC   C2A15318  15.463  11.669   3.908  0.0694  0.0383  0.1990
    1DPPC   C3A15319  15.502  11.692   4.462 -0.0672 -0.1481  0.0545
    1DPPC   C4A15320  15.636  11.704   4.861  0.2512  0.3544  0.0331
    1DPPC   C1B15321  15.946  11.889   3.270 -0.0436 -0.3989  0.0042
    1DPPC   C2B15322  15.853  11.874   3.714 -0.2699  0.0176  0.1724
    1DPPC   C3B15323  16.008  12.003   4.110  0.2409  0.2488 -0.2028
    1DPPC   C4B15324  16.068  11.956   4.505 -0.0083  0.3195 -0.1118
    1DPPC   NC315325   7.666   1.060   3.334 -0.1665 -0.1024 -0.1114
    1DPPC   PO415326   7.669   1.354   3.737  0.1589 -0.0025  0.0794
    1DPPC   GL115327   7.526   1.123   4.048  0.0399  0.1017 -0.1769
    1DPPC   GL215328   7.474   1.387   4.225 -0.3070 -0.0156 -0.0222
    1DPPC   C1A15329   7.577   0.718   4.270  0.0041 -0.2391 -0.2936
    1DPPC   C2A15330   7.837   0.675   4.612 -0.2755 -0.1189 -0.0253
    1DPPC   C3A15331   8.007   0.589   5.027 -0.0764 -0.1687  0.1677
    1DPPC   C4A15332   8.314   0.345   5.070  0.2382 -0.2791 -0.0437
    1DPPC   C1B15333   7.297   1.171   4.545 -0.0343 -0.1340 -0.0253
    1DPPC   C2B15334   7.340   0.907   4.862 -0.3335 -0.1329 -0.1235
    1DPPC   C3B15335   7.439   0.463   4.810  0.0594  0.3595 -0.0708
    1DPPC   C4B15336   7.609   0.165   5.228 -0.0879 -0.0292  0.0436
    1DPPC   NC315337  11.641   7.144   3.155  0.0412 -0.0407  0.0156
    1DPPC   PO415338  11.242   7.246   3.150 -0.0872  0.2849 -0.0240
    1DPPC   GL115339  11.273   7.234   3.565  0.4531  0.0334  0.2426
    1DPPC   GL215340  11.024   7.196   3.613  0.0324  0.1768  0.0354
    1DPPC   C1A15341  11.452   7.471   3.869  0.0677 -0.1256 -0.0768
    1DPPC   C2A15342  11.413   7.333   4.279 -0.2470  0.0147  0.1667
    1DPPC   C3A15343  11.238   7.206   4.637  0.0843 -0.3021  0.1189
    1DPPC   C4A15344  11.076   6.907   4.873 -0.1188 -0.1699  0.1264
    1DPPC   C1B15345  11.136   7.051   3.987 -0.0108 -0.3057 -0.4488
    1DPPC   C2B15346  10.988   6.872   4.366  0.0344 -0.0172 -0.0850
    1DPPC   C3B15347  10.694   6.679   4.616 -0.0800 -0.0027 -0.2127
    1DPPC   C4B15348  10.461   6.565   4.958 -0.0802  0.0102 -0.2016
    1DPPC   NC315349   9.916  17.370   2.620 -0.0801  0.1484  0.1996
    1DPPC   PO415350  10.125  17.014   2.804 -0.0181  0.3447 -0.0422
    1DPPC   GL115351   9.984  17.211   3.188 -0.0577 -0.1281  0.1899
    1DPPC   GL215352   9.752  17.475   3.087  0.1753 -0.0392 -0.1890
    1DPPC   C1A15353  10.021  17.225   3.524  0.2710  0.2295  0.1626
    1DPPC   C2A15354  10.012  17.188   3.951  0.0280  0.1429 -0.1569
    1DPPC   C3A15355  10.121  17.281   4.390 -0.2214  0.1480  0.1231
    1DPPC   C4A15356  10.124  17.066   4.905  0.1787 -0.2140  0.0959
    1DPPC   C1B15357   9.557  17.123   3.339 -0.1539 -0.1665 -0.1672
    1DPPC   C2B15358   9.578  16.995   3.739 -0.2734  0.2135 -0.1454
    1DPPC   C3B15359   9.620  16.997   4.200  0.0621 -0.1278  0.0645
    1DPPC   C4B15360   9.935  16.756   4.393  0.0166  0.0236 -0.4002
    1DPPC   NC315361   5.732  10.823   3.468  0.1650 -0.0429  0.0682
    1DPPC   PO415362   5.365  10.588   3.371  0.0614 -0.1809 -0.4155
    1DPPC   GL115363   5.118  10.462   3.764  0.0210  0.1703  0.1882
    1DPPC   GL215364   4.998  10.753   3.943 -0.0677 -0.0876 -0.0072
    1DPPC   C1A15365   5.019  10.311   4.161 -0.0352  0.2137  0.1633
    1DPPC   C2A15366   5.057  10.145   4.616  0.1374 -0.2908  0.4316
    1DPPC   C3A15367   5.230   9.977   4.884  0.1680 -0.0091  0.2192
    1DPPC   C4A15368   5.453   9.571   4.811 -0.1466 -0.0192 -0.0860
    1DPPC   C1B15369   4.775  10.764   4.229  0.0356 -0.0088 -0.2742
    1DPPC   C2B15370   4.785  10.654   4.601 -0.0111  0.2039 -0.0539
    1DPPC   C3B15371   5.082  10.497   4.935  0.1276  0.2286 -0.1791
    1DPPC   C4B15372   5.520  10.346   4.949  0.1107  0.3054 -0.0714
    1DPPC   NC315373  10.423   7.854   2.953  0.0176  0.0892  0.0780
    1DPPC   PO415374  10.312   8.237   3.202  0.1544  0.1507  0.0334
    1DPPC   GL115375  10.202   8.257   3.667  0.3129  0.1553  0.1837
    1DPPC   GL215376  10.093   8.498   3.762 -0.0641 -0.0761 -0.0225
    1DPPC   C1A15377  10.102   8.178   4.153 -0.1197 -0.0151  0.1283
    1DPPC   C2A15378  10.014   8.110   4.570 -0.1570  0.0071 -0.1598
    1DPPC   C3A15379   9.748   8.015   4.976 -0.0492  0.3470  0.1130
    1DPPC   C4A15380   9.505   8.210   5.278  0.2747  0.1790 -0.0394
    1DPPC   C1B15381   9.748   8.219   3.848  0.3661  0.1031  0.1530
    1DPPC   C2B15382   9.570   8.151   4.272 -0.1591  0.5272  0.0932
    1DPPC   C3B15383   9.409   7.943   4.600 -0.0425 -0.1159 -0.0834
    1DPPC   C4B15384   9.133   7.986   5.020  0.2871  0.2187  0.0931
    1DPPC   NC315385  22.096  17.803   2.746  0.2242  0.2200 -0.0196
    1DPPC   PO415386  22.278  18.097   3.104  0.2109 -0.1478  0.0180
    1DPPC   GL115387  22.167  18.078   3.499  0.3155  0.0196 -0.2616
    1DPPC   GL215388  22.104  18.381   3.472 -0.0978  0.1493 -0.2683
    1DPPC   C1A15389  22.285  17.930   3.817  0.2375  0.1845 -0.0930
    1DPPC   C2A15390  22.369  17.882   4.208 -0.0345  0.4121 -0.1201
    1DPPC   C3A15391  22.295  18.027   4.617 -0.0035  0.0126  0.0706
    1DPPC   C4A15392  22.435  18.019   5.045 -0.1161 -0.1431  0.2690
    1DPPC   C1B15393  22.088  18.351   3.986 -0.2022  0.2887 -0.2609
    1DPPC   C2B15394  22.059  18.449   4.474  0.2498 -0.3467 -0.0919
    1DPPC   C3B15395  21.911  18.410   4.948  0.5155 -0.1326  0.0544
    1DPPC   C4B15396  22.035  18.245   5.355 -0.3038 -0.0010 -0.1452
    1DPPC   NC315397  16.626  13.320   2.659 -0.0433  0.0336  0.2662
    1DPPC   PO415398  16.803  13.329   3.030  0.3097 -0.0458 -0.3992
    1DPPC   GL115399  16.588  13.386   3.366 -0.4171 -0.3176 -0.2851
    1DPPC   GL215400  16.872  13.204   3.558 -0.3857  0.1722  0.2078
    1DPPC   C1A15401  16.390  13.451   3.664  0.0709 -0.0101 -0.2120
    1DPPC   C2A15402  16.305  13.405   4.137  0.1390 -0.0371 -0.2298
    1DPPC   C3A15403  16.270  13.272   4.588  0.2507  0.0826  0.2699
    1DPPC   C4A15404  16.262  13.326   5.088  0.1544  0.0917  0.0010
    1DPPC   C1B15405  16.729  13.141   4.018  0.0372  0.1846 -0.0315
    1DPPC   C2B15406  16.740  13.348   4.493 -0.1688  0.2051 -0.1232
    1DPPC   C3B15407  16.651  13.576   4.855 -0.0833 -0.0194  0.0084
    1DPPC   C4B15408  16.407  13.796   5.274  0.2022 -0.0843  0.1546
    1DPPC   NC315409  12.789  11.124   2.858  0.1013 -0.1588  0.1683
    1DPPC   PO415410  12.986  10.842   3.181 -0.0177 -0.1011 -0.0557
    1DPPC   GL115411  13.048  10.760   3.604 -0.0765 -0.0068  0.1370
    1DPPC   GL215412  13.278  10.539   3.625 -0.1258 -0.1009  0.1351
    1DPPC   C1A15413  12.991  10.893   4.012  0.1394  0.1742  0.2691
    1DPPC   C2A15414  13.041  10.997   4.351 -0.0505 -0.0167  0.0237
    1DPPC   C3A15415  13.160  10.969   4.787  0.3621 -0.2459 -0.0502
    1DPPC   C4A15416  13.271  11.292   5.175 -0.1219 -0.2114  0.3443
    1DPPC   C1B15417  13.359  10.529   4.058  0.2005  0.2094 -0.2544
    1DPPC   C2B15418  13.450  10.542   4.505  0.0108  0.1170 -0.0606
    1DPPC   C3B15419  13.473  10.552   4.883  0.2736  0.1553 -0.0678
    1DPPC   C4B15420  13.544  10.454   5.314  0.1084 -0.0631 -0.1951
    1DPPC   NC315421  19.647  17.341   2.813  0.1590 -0.1789 -0.1776
    1DPPC   PO415422  19.898  17.085   2.926  0.1564  0.0638  0.2824
    1DPPC   GL115423  19.871  17.275   3.334  0.2527 -0.1360  0.1051
    1DPPC   GL215424  19.571  17.156   3.431  0.1623  0.0789 -0.0319
    1DPPC   C1A15425  19.879  17.193   3.852 -0.1723 -0.4849  0.0627
    1DPPC   C2A15426  19.778  17.074   4.333 -0.0600  0.1990 -0.0849
    1DPPC   C3A15427  19.943  16.959   4.734 -0.3195 -0.1443 -0.0761
    1DPPC   C4A15428  19.960  16.933   5.207  0.2406  0.1316  0.0047
    1DPPC   C1B15429  19.338  17.152   3.833  0.1788  0.0882  0.0728
    1DPPC   C2B15430  19.307  17.175   4.264  0.0971  0.1481  0.1535
    1DPPC   C3B15431  19.464  17.305   4.647  0.0316  0.0813  0.1216
    1DPPC   C4B15432  19.435  17.198   5.096  0.1748  0.1950 -0.0791
    1DPPC   NC315433  13.092  15.469   2.933 -0.1078 -0.1125 -0.0363
    1DPPC   PO415434  13.097  15.953   2.870  0.2027  0.2097  0.1717
    1DPPC   GL115435  13.304  16.059   3.210  0.3913  0.1168 -0.1297
    1DPPC   GL215436  13.332  15.710   3.330 -0.0872 -0.0109 -0.1240
    1DPPC   C1A15437  13.114  16.033   3.690  0.1027  0.0818  0.0292
    1DPPC   C2A15438  13.094  16.022   4.125  0.0800  0.2137  0.1862
    1DPPC   C3A15439  13.235  16.084   4.492 -0.0087 -0.1371 -0.1262
    1DPPC   C4A15440  13.257  16.030   4.922 -0.0192 -0.3231 -0.1430
    1DPPC   C1B15441  13.505  15.705   3.777  0.0778  0.2753  0.1023
    1DPPC   C2B15442  13.571  15.560   4.092 -0.3685  0.1034  0.2351
    1DPPC   C3B15443  13.526  15.591   4.528  0.0067  0.1428  0.3201
    1DPPC   C4B15444  13.581  15.527   4.940  0.1204  0.0314  0.2165
    1DPPC   NC315445  16.297  19.502   3.026 -0.0758 -0.0326  0.1960
    1DPPC   PO415446  16.583  19.212   3.304 -0.0863 -0.3010  0.0244
    1DPPC   GL115447  16.428  19.345   3.654 -0.1635  0.0152  0.1966
    1DPPC   GL215448  16.526  19.540   3.908 -0.0031  0.0013 -0.3144
    1DPPC   C1A15449  16.084  19.407   3.815 -0.1582 -0.0679 -0.0079
    1DPPC   C2A15450  15.991  19.620   4.140 -0.2922  0.0906 -0.0647
    1DPPC   C3A15451  15.936  19.661   4.568  0.2149 -0.0067  0.1604
    1DPPC   C4A15452  16.090  19.754   4.899 -0.0834 -0.1389 -0.1759
    1DPPC   C1B15453  16.438  19.759   4.266  0.2189  0.1034 -0.1635
    1DPPC   C2B15454  16.426  19.992   4.598 -0.0070 -0.0140  0.0788
    1DPPC   C3B15455  16.212  20.230   4.890  0.0586  0.2897 -0.1608
    1DPPC   C4B15456  15.901  20.340   5.116 -0.0765 -0.0516  0.2013
    1DPPC   NC315457  24.616  20.194   2.975  0.1770 -0.1612 -0.0940
    1DPPC   PO415458  24.803  20.426   3.331 -0.0740  0.2273 -0.0602
    1DPPC   GL115459  24.400  20.414   3.587  0.0304 -0.1476  0.0408
    1DPPC   GL215460  24.598  20.663   3.721  0.1976  0.0616  0.2146
    1DPPC   C1A15461  24.112  20.064   3.699 -0.1537  0.0098 -0.0936
    1DPPC   C2A15462  24.167  19.776   3.966  0.0527 -0.0220 -0.1070
    1DPPC   C3A15463  23.964  19.647   4.334 -0.1290  0.1765 -0.1300
    1DPPC   C4A15464  24.107  19.810   4.653  0.0367 -0.0383  0.0887
    1DPPC   C1B15465  24.923  20.577   4.098 -0.0487 -0.0884  0.0186
    1DPPC   C2B15466  25.101  20.656   4.522 -0.3256 -0.2805  0.2116
    1DPPC   C3B15467  25.069  20.998   4.730 -0.0367 -0.2054 -0.0773
    1DPPC   C4B15468  25.160  21.242   5.043  0.0672  0.3974  0.3073
    1DPPC   NC315469  14.979   7.141   3.671  0.0153  0.2092  0.0449
    1DPPC   PO415470  14.696   6.856   3.637  0.1904 -0.2073  0.2050
    1DPPC   GL115471  14.773   6.660   4.025  0.1138  0.0283  0.3652
    1DPPC   GL215472  14.495   6.434   4.180 -0.4373  0.1724  0.0637
    1DPPC   C1A15473  14.942   6.875   4.363  0.2576 -0.1095 -0.1874
    1DPPC   C2A15474  14.914   6.898   4.749 -0.0763  0.2131 -0.0513
    1DPPC   C3A15475  15.008   7.012   5.230 -0.0286  0.2640 -0.1709
    1DPPC   C4A15476  15.209   6.935   5.664 -0.1901  0.0114  0.2020
    1DPPC   C1B15477  14.394   6.627   4.541 -0.0954 -0.2533 -0.1247
    1DPPC   C2B15478  14.525   6.741   4.995  0.0085  0.1252 -0.1332
    1DPPC   C3B15479  14.712   6.735   5.422 -0.0137 -0.3167  0.3559
    1DPPC   C4B15480  14.839   6.593   5.825  0.0383 -0.3861  0.2500
    1DPPC   NC315481  13.254   8.157   3.378 -0.2261 -0.0422 -0.1220
    1DPPC   PO415482  13.226   7.773   3.632 -0.0979  0.0393 -0.1648
    1DPPC   GL115483  13.183   7.741   4.065  0.3769  0.0595  0.0606
    1DPPC   GL215484  13.455   7.608   4.050  0.0070 -0.0169  0.1093
    1DPPC   C1A15485  13.181   7.733   4.549  0.2989 -0.3025  0.0835
    1DPPC   C2A15486  13.068   7.922   4.993 -0.0405 -0.0158 -0.2326
    1DPPC   C3A15487  13.244   8.063   5.349  0.0356  0.0979  0.2120
    1DPPC   C4A15488  13.112   8.329   5.703  0.2004 -0.3061 -0.1236
    1DPPC   C1B15489  13.784   7.597   4.337 -0.0524  0.0033 -0.0458
    1DPPC   C2B15490  14.087   7.347   4.560 -0.0560  0.0532 -0.2710
    1DPPC   C3B15491  14.490   7.179   4.754 -0.0955 -0.1532  0.0193
    1DPPC   C4B15492  14.540   7.205   5.211 -0.0941 -0.0772  0.2260
    1DPPC   NC315493  19.853  16.155   2.716 -0.1774  0.0661  0.1484
    1DPPC   PO415494  19.707  16.516   2.834 -0.0760  0.1570  0.0480
    1DPPC   GL115495  19.678  16.706   3.163  0.4132  0.2577 -0.1744
    1DPPC   GL215496  19.884  16.763   3.324  0.5697 -0.1365 -0.2631
    1DPPC   C1A15497  19.466  16.714   3.642  0.2115 -0.1439 -0.0280
    1DPPC   C2A15498  19.554  16.679   4.056 -0.2284 -0.2268  0.1342
    1DPPC   C3A15499  19.449  16.664   4.429 -0.0102  0.0114 -0.2222
    1DPPC   C4A15500  19.440  16.761   4.684  0.2963  0.4213 -0.1944
    1DPPC   C1B15501  20.048  16.776   3.753  0.0740  0.2925  0.1468
    1DPPC   C2B15502  20.031  16.685   4.268  0.1076 -0.1559  0.1162
    1DPPC   C3B15503  19.874  16.475   4.520 -0.1360  0.0932  0.3699
    1DPPC   C4B15504  19.864  16.497   4.971 -0.2487 -0.0705  0.0160
    1DIPC   NC315505  14.620  22.406   3.735 -0.0953 -0.2615 -0.2506
    1DIPC   PO415506  14.312  22.804   3.795 -0.0921 -0.0798  0.1009
    1DIPC   GL115507  14.414  23.080   4.117 -0.1822 -0.0882 -0.1357
    1DIPC   GL215508  14.780  22.912   4.083 -0.2040  0.2165  0.2367
    1DIPC   C1A15509  14.380  23.209   4.602  0.1334 -0.2289 -0.3960
    1DIPC   D2A15510  14.358  23.074   5.062  0.1964 -0.0558  0.0224
    1DIPC   D3A15511  14.753  22.991   5.205  0.0046 -0.1194 -0.0961
    1DIPC   C4A15512  15.194  23.167   5.136 -0.1752  0.2403 -0.0843
    1DIPC   C1B15513  14.761  22.880   4.501 -0.1338  0.1993 -0.1213
    1DIPC   D2B15514  14.598  22.652   4.925 -0.0836 -0.1167  0.2280
    1DIPC   D3B15515  14.936  22.500   5.176 -0.3373  0.3368  0.2084
    1DIPC   C4B15516  15.075  22.166   5.076 -0.0047 -0.3485 -0.1720
    1DIPC   NC315517  27.125   3.847   3.146 -0.1613 -0.0459 -0.1207
    1DIPC   PO415518  27.582   3.704   3.267  0.1628 -0.1874 -0.0817
    1DIPC   GL115519  27.744   3.423   3.623 -0.0049  0.0469  0.0155
    1DIPC   GL215520  28.063   3.447   3.664 -0.0292  0.0027  0.1851
    1DIPC   C1A15521  27.806   3.249   4.028 -0.0933 -0.0032  0.3630
    1DIPC   D2A15522  27.572   2.899   4.244 -0.2848 -0.1406 -0.1337
    1DIPC   D3A15523  27.780   3.036   4.503  0.1559  0.1086 -0.0874
    1DIPC   C4A15524  27.672   2.924   4.956 -0.0572 -0.3185 -0.1588
    1DIPC   C1B15525  28.254   3.218   3.825 -0.1304 -0.0542  0.1247
    1DIPC   D2B15526  28.182   3.055   4.213 -0.1378 -0.1763  0.1225
    1DIPC   D3B15527  28.547   3.058   4.474 -0.1051  0.0736 -0.0126
    1DIPC   C4B15528  28.904   3.352   4.367 -0.1172 -0.0015  0.1879
    1DIPC   NC315529  16.239  24.738   3.779 -0.3687 -0.1195  0.0914
    1DIPC   PO415530  16.480  24.714   4.093  0.1625 -0.1192  0.5125
    1DIPC   GL115531  16.302  25.084   4.146 -0.1122 -0.3133 -0.0616
    1DIPC   GL215532  16.227  25.353   3.945  0.1229  0.0321 -0.4920
    1DIPC   C1A15533  16.380  25.361   4.401 -0.0346 -0.0350 -0.1493
    1DIPC   D2A15534  16.282  25.125   4.772 -0.2726  0.1317  0.1116
    1DIPC   D3A15535  16.383  25.096   5.171  0.3704 -0.2195  0.0135
    1DIPC   C4A15536  15.978  25.113   5.434  0.1112 -0.2016  0.1824
    1DIPC   C1B15537  15.817  25.614   4.117 -0.1841  0.0818 -0.0092
    1DIPC   D2B15538  15.486  25.489   4.365  0.0950 -0.1394  0.3867
    1DIPC   D3B15539  15.911  25.369   4.540  0.0707  0.1826 -0.1506
    1DIPC   C4B15540  15.904  25.416   5.001 -0.1314  0.4818 -0.0490
    1DIPC   NC315541  26.499  28.530   3.743 -0.1100 -0.1608 -0.2581
    1DIPC   PO415542  26.494  28.236   3.458 -0.2832  0.1774 -0.1906
    1DIPC   GL115543  26.385  27.967   3.836  0.0778 -0.0774 -0.4710
    1DIPC   GL215544  26.662  27.981   3.998  0.4384  0.1518 -0.0189
    1DIPC   C1A15545  26.158  27.682   4.097  0.0053  0.2223  0.0961
    1DIPC   D2A15546  25.892  27.215   4.174 -0.1941  0.0038 -0.0823
    1DIPC   D3A15547  26.319  27.115   4.285 -0.2589 -0.0408  0.2177
    1DIPC   C4A15548  26.582  26.757   4.098  0.0210  0.0677 -0.4402
    1DIPC   C1B15549  26.826  28.266   4.246 -0.0224 -0.1428 -0.0518
    1DIPC   D2B15550  26.667  28.670   4.349  0.2374  0.1823  0.2345
    1DIPC   D3B15551  26.328  28.587   4.278  0.0279  0.0852 -0.1144
    1DIPC   C4B15552  25.964  28.651   4.598 -0.2371  0.0806  0.0109
    1DIPC   NC315553  18.062   7.198   3.485  0.1368  0.0130 -0.0672
    1DIPC   PO415554  18.005   6.737   3.520  0.0223 -0.0037 -0.0974
    1DIPC   GL115555  17.893   6.878   3.955 -0.0699  0.2514  0.1465
    1DIPC   GL215556  17.717   6.654   4.298  0.4498  0.3603  0.2157
    1DIPC   C1A15557  17.937   7.075   4.366  0.2780  0.1336 -0.1182
    1DIPC   D2A15558  17.978   7.163   4.767 -0.1130 -0.0188  0.2377
    1DIPC   D3A15559  18.433   7.066   4.623 -0.1695 -0.0222  0.0744
    1DIPC   C4A15560  18.614   7.378   4.555  0.0559  0.0265  0.1358
    1DIPC   C1B15561  17.381   6.910   4.510 -0.1376  0.1807 -0.1277
    1DIPC   D2B15562  17.489   7.277   4.776  0.0572 -0.0383 -0.1489
    1DIPC   D3B15563  17.127   7.359   4.642 -0.1724  0.0646  0.0951
    1DIPC   C4B15564  17.049   7.598   4.986  0.0694  0.1478  0.2353
    1DIPC   NC315565  26.352  18.059   2.147 -0.1634 -0.0509  0.0035
    1DIPC   PO415566  26.059  18.179   2.513 -0.1312  0.0001  0.4895
    1DIPC   GL115567  26.057  18.238   2.862 -0.1663  0.0741  0.4045
    1DIPC   GL215568  26.261  18.168   3.053 -0.1994 -0.1442  0.1086
    1DIPC   C1A15569  25.829  18.376   3.244  0.2387  0.0211 -0.1574
    1DIPC   D2A15570  25.885  18.418   3.620  0.1207  0.3872  0.0621
    1DIPC   D3A15571  25.696  18.393   4.041  0.3082  0.0839 -0.2318
    1DIPC   C4A15572  25.425  18.109   4.190  0.1069  0.0989  0.2521
    1DIPC   C1B15573  26.335  18.153   3.523 -0.0159 -0.1554  0.0577
    1DIPC   D2B15574  26.298  18.361   3.932 -0.2928 -0.2717 -0.0034
    1DIPC   D3B15575  26.070  18.075   4.200  0.2417  0.1026  0.3676
    1DIPC   C4B15576  25.787  17.778   4.285 -0.0882  0.1020 -0.1527
    1DIPC   NC315577   1.678  25.073   2.774  0.1441  0.1817  0.2056
    1DIPC   PO415578   1.321  24.856   2.935 -0.1754 -0.1099  0.0763
    1DIPC   GL115579   1.616  24.861   3.196  0.0978 -0.0180  0.0429
    1DIPC   GL215580   1.633  25.154   3.495  0.2634 -0.0726 -0.2048
    1DIPC   C1A15581   1.922  24.685   3.471  0.0309 -0.0639  0.0251
    1DIPC   D2A15582   2.286  24.538   3.510 -0.2724 -0.0345  0.1173
    1DIPC   D3A15583   2.315  24.905   3.780 -0.0814 -0.1552 -0.0771
    1DIPC   C4A15584   2.338  24.805   4.170  0.1061  0.2938 -0.0599
    1DIPC   C1B15585   1.623  24.908   3.819 -0.1729  0.5100 -0.1514
    1DIPC   D2B15586   1.833  24.567   3.985  0.0428  0.2473 -0.1124
    1DIPC   D3B15587   1.455  24.568   4.209 -0.1180  0.1162  0.1410
    1DIPC   C4B15588   1.380  24.324   4.663  0.0069  0.1114  0.2083
    1DIPC   NC315589  13.267  28.721   3.896  0.0371 -0.0515 -0.0004
    1DIPC   PO415590  13.467  29.069   3.997  0.1478  0.2402 -0.2486
    1DIPC   GL115591  13.555  29.400   4.372  0.0189  0.1421 -0.2974
    1DIPC   GL215592  13.925  29.602   4.431  0.0227  0.0346  0.1695
    1DIPC   C1A15593  13.520  29.490   4.849 -0.4208 -0.0741  0.1708
    1DIPC   D2A15594  13.396  29.484   5.220 -0.0213  0.0486 -0.1153
    1DIPC   D3A15595  13.779  29.398   5.389 -0.0110 -0.2726 -0.0975
    1DIPC   C4A15596  13.706  28.990   5.326 -0.0282  0.3728  0.0491
    1DIPC   C1B15597  14.043  29.475   4.882  0.3683  0.1735  0.0620
    1DIPC   D2B15598  14.314  29.456   5.253  0.0569 -0.0251  0.1883
    1DIPC   D3B15599  14.234  29.127   5.499  0.3781  0.1841 -0.0950
    1DIPC   C4B15600  14.477  28.864   5.805 -0.1085  0.1586  0.2473
    1DIPC   NC315601   0.379  27.114   3.608 -0.0312  0.1038  0.1008
    1DIPC   PO415602  -0.065  27.350   3.818  0.1673 -0.3517  0.1322
    1DIPC   GL115603  -0.140  27.489   4.144 -0.0955 -0.0959  0.1934
    1DIPC   GL215604  -0.121  27.675   4.268  0.1768  0.0159 -0.0209
    1DIPC   C1A15605  -0.566  27.508   4.281 -0.3403 -0.2396  0.1276
    1DIPC   D2A15606  -0.859  27.200   4.328  0.0109  0.0938 -0.1141
    1DIPC   D3A15607  -0.723  26.717   4.296 -0.1142  0.4041 -0.0945
    1DIPC   C4A15608  -0.528  26.540   4.569 -0.1829  0.0994 -0.2645
    1DIPC   C1B15609  -0.124  27.505   4.670  0.3530 -0.3224  0.2611
    1DIPC   D2B15610  -0.459  27.368   4.839 -0.1604  0.2533 -0.3964
    1DIPC   D3B15611  -0.943  27.427   4.834  0.0800 -0.1110  0.2126
    1DIPC   C4B15612  -1.152  27.687   4.474 -0.0020  0.0663 -0.2555
    1DIPC   NC315613   7.777  22.596   1.824 -0.3370  0.2189 -0.0220
    1DIPC   PO415614   7.675  22.793   2.139  0.0480  0.0245 -0.3299
    1DIPC   GL115615   7.697  22.639   2.585  0.1033 -0.4983  0.1358
    1DIPC   GL215616   7.496  22.269   2.739 -0.0010  0.1942 -0.0124
    1DIPC   C1A15617   7.859  22.490   3.034  0.1403  0.1169 -0.0996
    1DIPC   D2A15618   7.921  22.408   3.464  0.3120 -0.0815 -0.0598
    1DIPC   D3A15619   8.338  22.168   3.724  0.1839 -0.2745 -0.0488
    1DIPC   C4A15620   8.326  22.050   4.165  0.1505  0.1080  0.0512
    1DIPC   C1B15621   7.461  22.256   3.230 -0.2324  0.3107 -0.2967
    1DIPC   D2B15622   7.356  22.446   3.504  0.3495 -0.2371  0.1122
    1DIPC   D3B15623   7.527  22.205   3.832 -0.0517 -0.0943  0.0482
    1DIPC   C4B15624   7.362  22.508   4.113 -0.3533 -0.0118 -0.2472
    1DIPC   NC315625   1.894   4.489   3.501 -0.2124 -0.1287 -0.0390
    1DIPC   PO415626   1.890   4.884   3.596  0.0456  0.1729  0.1842
    1DIPC   GL115627   2.021   5.003   3.916 -0.0729 -0.2098  0.1801
    1DIPC   GL215628   2.249   5.320   3.960  0.2533 -0.2380 -0.0781
    1DIPC   C1A15629   1.554   5.135   4.093 -0.0746  0.0194 -0.2160
    1DIPC   D2A15630   1.339   5.187   4.470  0.1610  0.1990  0.1147
    1DIPC   D3A15631   1.013   5.580   4.426 -0.0840  0.0970 -0.0936
    1DIPC   C4A15632   0.629   5.430   4.450 -0.1138  0.4693 -0.3589
    1DIPC   C1B15633   1.983   5.479   4.222  0.1724 -0.2779  0.1118
    1DIPC   D2B15634   1.720   5.483   4.589 -0.1773 -0.0715  0.2176
    1DIPC   D3B15635   1.785   5.026   4.561 -0.1989  0.1739 -0.1957
    1DIPC   C4B15636   1.772   4.878   5.048 -0.0816 -0.0525 -0.1644
    1DIPC   NC315637  24.233   8.332   2.591  0.0090  0.1290 -0.0713
    1DIPC   PO415638  24.631   8.092   2.829 -0.1351 -0.3172 -0.0208
    1DIPC   GL115639  24.578   8.010   3.334 -0.0637  0.0761 -0.1727
    1DIPC   GL215640  24.410   8.126   3.449  0.0722 -0.2113 -0.1828
    1DIPC   C1A15641  24.503   7.746   3.741  0.1748  0.2746 -0.1351
    1DIPC   D2A15642  24.671   7.378   3.949  0.0084  0.2292  0.2745
    1DIPC   D3A15643  24.284   7.452   4.086  0.0070  0.0951  0.3597
    1DIPC   C4A15644  23.933   7.181   4.108 -0.1548  0.1572 -0.0626
    1DIPC   C1B15645  24.408   8.484   3.741  0.2860 -0.0645  0.2798
    1DIPC   D2B15646  24.369   8.888   3.866  0.0548  0.0592  0.0971
    1DIPC   D3B15647  24.805   8.639   3.971  0.2526 -0.1114  0.1170
    1DIPC   C4B15648  25.004   8.675   4.334 -0.1433 -0.0637 -0.3056
    1DIPC   NC315649   7.595  17.436   2.433 -0.2891 -0.0131  0.0403
    1DIPC   PO415650   7.458  17.035   2.622 -0.1862  0.2502 -0.3642
    1DIPC   GL115651   7.635  16.921   3.001 -0.1840  0.2927  0.3945
    1DIPC   GL215652   7.522  17.091   3.203  0.2971 -0.0326 -0.0348
    1DIPC   C1A15653   7.831  16.778   3.465  0.5748 -0.0340  0.1702
    1DIPC   D2A15654   7.707  16.650   3.869 -0.1211 -0.2656  0.0445
    1DIPC   D3A15655   7.530  16.457   4.238  0.1381 -0.2486 -0.0752
    1DIPC   C4A15656   7.238  16.179   4.448 -0.2504 -0.1033 -0.1030
    1DIPC   C1B15657   7.355  17.041   3.666 -0.0171  0.2155 -0.0162
    1DIPC   D2B15658   7.330  16.871   4.052 -0.0431 -0.1326  0.0349
    1DIPC   D3B15659   6.933  17.125   4.023 -0.0044 -0.2286  0.2466
    1DIPC   C4B15660   6.904  17.296   4.440 -0.2398  0.2278 -0.0031
    1DIPC   NC315661  10.632  24.563   2.796  0.2200  0.1077  0.0552
    1DIPC   PO415662  10.565  24.172   3.001 -0.0983  0.3835  0.2882
    1DIPC   GL115663  10.104  24.387   3.069  0.0208 -0.0849 -0.1563
    1DIPC   GL215664   9.802  24.344   3.014  0.3106 -0.1480  0.3366
    1DIPC   C1A15665   9.945  24.537   3.498  0.0520  0.2702 -0.3074
    1DIPC   D2A15666  10.095  24.482   3.903 -0.4314 -0.0549 -0.4518
    1DIPC   D3A15667  10.187  24.594   4.218 -0.1904  0.0912  0.1931
    1DIPC   C4A15668   9.932  24.896   4.501  0.1912  0.0714  0.2309
    1DIPC   C1B15669   9.571  24.115   3.375 -0.3541  0.0141  0.1357
    1DIPC   D2B15670   9.839  24.075   3.793  0.0841  0.1114 -0.1385
    1DIPC   D3B15671   9.608  23.908   4.079  0.2271 -0.3129  0.3643
    1DIPC   C4B15672   9.838  23.863   4.373 -0.0752 -0.0793  0.1028
    1DIPC   NC315673   9.416  27.044   2.922 -0.0834  0.0898  0.2540
    1DIPC   PO415674   9.304  26.528   2.927  0.2344 -0.2568  0.1329
    1DIPC   GL115675   9.510  26.307   3.207  0.2381 -0.2509 -0.1302
    1DIPC   GL215676   9.146  26.294   3.341  0.2374 -0.3197  0.0932
    1DIPC   C1A15677   9.666  26.254   3.609 -0.1379 -0.0163  0.1529
    1DIPC   D2A15678   9.892  26.427   3.887 -0.2975 -0.3624  0.1587
    1DIPC   D3A15679   9.479  26.522   4.028  0.1852 -0.0874 -0.1685
    1DIPC   C4A15680   9.381  26.154   4.256 -0.1313  0.0580  0.1048
    1DIPC   C1B15681   9.089  26.231   3.776 -0.6275 -0.2165 -0.5890
    1DIPC   D2B15682   8.923  26.313   4.137  0.0300 -0.0258  0.0324
    1DIPC   D3B15683   8.918  26.033   4.536  0.3035 -0.3646 -0.2402
    1DIPC   C4B15684   9.282  25.943   4.833  0.0947  0.1423  0.1615
    1DIPC   NC315685   8.597  27.375   3.146 -0.1360 -0.0739 -0.1868
    1DIPC   PO415686   8.661  27.612   3.435  0.1420  0.0078  0.1492
    1DIPC   GL115687   8.903  27.677   3.735 -0.0064  0.2718  0.2006
    1DIPC   GL215688   8.941  28.010   3.726  0.2934 -0.0255  0.0378
    1DIPC   C1A15689   8.889  27.344   4.063  0.1477 -0.4869 -0.1357
    1DIPC   D2A15690   9.319  27.136   4.365 -0.1632  0.2179  0.1779
    1DIPC   D3A15691   9.514  27.302   4.754  0.3000  0.2616  0.3342
    1DIPC   C4A15692   9.877  27.598   4.744 -0.0498  0.3486  0.3063
    1DIPC   C1B15693   9.012  28.247   4.055 -0.3139  0.1633 -0.1390
    1DIPC   D2B15694   9.329  28.234   4.373 -0.2710  0.1120 -0.0569
    1DIPC   D3B15695   9.262  28.225   4.820 -0.1668  0.2463 -0.0423
    1DIPC   C4B15696   9.051  28.443   5.091 -0.2742  0.0776  0.3457
    1DIPC   NC315697  10.989   2.784   3.968  0.1363 -0.0890  0.2854
    1DIPC   PO415698  10.620   2.785   3.998  0.2890  0.0949  0.3124
    1DIPC   GL115699  10.737   2.686   4.470  0.5527 -0.3467  0.0331
    1DIPC   GL215700  11.149   2.736   4.462  0.3504 -0.0368  0.2787
    1DIPC   C1A15701  10.836   2.485   4.834  0.0560 -0.0266  0.1138
    1DIPC   D2A15702  10.518   2.335   5.132  0.1522 -0.1452 -0.2922
    1DIPC   D3A15703  10.876   2.094   5.325 -0.0113 -0.0639 -0.1432
    1DIPC   C4A15704  10.767   1.926   5.706  0.3567  0.1104  0.2367
    1DIPC   C1B15705  11.173   2.941   4.890 -0.2952 -0.1394  0.2222
    1DIPC   D2B15706  10.922   3.116   5.201 -0.0869  0.1963 -0.1497
    1DIPC   D3B15707  10.774   3.411   4.856 -0.1594  0.0126 -0.0940
    1DIPC   C4B15708  10.465   3.277   4.767 -0.2142  0.2245  0.0511
    1DIPC   NC315709  24.678  20.954   3.301 -0.0018 -0.1914  0.0411
    1DIPC   PO415710  24.929  21.302   3.337 -0.1038  0.1981  0.2724
    1DIPC   GL115711  24.862  21.184   3.717  0.1760  0.2452  0.2152
    1DIPC   GL215712  24.567  21.243   3.732  0.1884  0.3860  0.0549
    1DIPC   C1A15713  24.813  21.077   4.197 -0.0404 -0.2427  0.1367
    1DIPC   D2A15714  24.609  20.732   4.482 -0.3168 -0.0966 -0.0857
    1DIPC   D3A15715  24.509  20.854   4.843  0.1591 -0.2212  0.1541
    1DIPC   C4A15716  24.116  21.025   4.858  0.0119  0.2929  0.3954
    1DIPC   C1B15717  24.279  20.990   4.002 -0.3919  0.1052 -0.1031
    1DIPC   D2B15718  24.335  21.144   4.423 -0.0223  0.2325 -0.0065
    1DIPC   D3B15719  23.803  21.343   4.540  0.0486 -0.1101  0.0281
    1DIPC   C4B15720  23.724  21.472   4.893 -0.0677 -0.1935 -0.2614
    1DIPC   NC315721  22.232  10.654   3.435  0.0046 -0.2254 -0.2341
    1DIPC   PO415722  22.439  11.011   3.443 -0.0135  0.3597 -0.0388
    1DIPC   GL115723  22.610  10.756   3.796  0.2042  0.2195  0.0584
    1DIPC   GL215724  22.724  10.965   3.978 -0.0093 -0.0561  0.1248
    1DIPC   C1A15725  22.586  10.455   4.163  0.0057 -0.1550  0.1255
    1DIPC   D2A15726  22.824  10.145   4.417 -0.0624  0.0436  0.2338
    1DIPC   D3A15727  23.252  10.451   4.442  0.1523 -0.2368  0.0514
    1DIPC   C4A15728  23.675  10.502   4.548 -0.0210 -0.2341 -0.0815
    1DIPC   C1B15729  22.836  10.877   4.383 -0.2016 -0.0247  0.0444
    1DIPC   D2B15730  22.689  10.539   4.696  0.1173 -0.0332  0.2274
    1DIPC   D3B15731  22.954  10.885   4.817 -0.1556  0.0650  0.1590
    1DIPC   C4B15732  22.793  11.260   4.945  0.0845  0.0413 -0.1602
    1DIPC   NC315733  23.070  22.286   3.032 -0.0137 -0.1852  0.1132
    1DIPC   PO415734  23.312  22.672   3.134  0.0708 -0.0617 -0.0056
    1DIPC   GL115735  23.286  22.504   3.523  0.1744  0.0621  0.0615
    1DIPC   GL215736  22.986  22.356   3.563 -0.0972  0.0520 -0.0346
    1DIPC   C1A15737  23.528  22.305   3.806 -0.2467 -0.0406 -0.2153
    1DIPC   D2A15738  23.946  22.162   3.886 -0.1959  0.0260 -0.2357
    1DIPC   D3A15739  23.661  21.836   3.897  0.3118 -0.0218 -0.0105
    1DIPC   C4A15740  23.420  21.556   4.215  0.2386  0.0982  0.3553
    1DIPC   C1B15741  23.047  22.444   3.972  0.4025  0.1542  0.0505
    1DIPC   D2B15742  23.306  22.629   4.216 -0.2392  0.2394  0.1063
    1DIPC   D3B15743  23.042  22.435   4.468  0.0583 -0.1465  0.1892
    1DIPC   C4B15744  23.301  22.249   4.811 -0.1378 -0.1186 -0.0886
    1DIPC   NC315745   8.615  24.837   2.456 -0.0141  0.1311 -0.1198
    1DIPC   PO415746   8.281  24.759   2.677 -0.1430 -0.0231  0.0007
    1DIPC   GL115747   7.975  24.578   2.902 -0.2340  0.1196 -0.1035
    1DIPC   GL215748   7.677  24.526   2.870 -0.0326  0.1446 -0.1844
    1DIPC   C1A15749   7.899  24.275   3.265  0.0964 -0.1922  0.0764
    1DIPC   D2A15750   8.007  24.047   3.641  0.0905 -0.1517  0.1014
    1DIPC   D3A15751   8.055  23.858   4.044 -0.2318 -0.0978 -0.0151
    1DIPC   C4A15752   8.331  23.540   4.156  0.0900 -0.0621  0.3635
    1DIPC   C1B15753   7.615  24.686   3.287  0.3507 -0.2393  0.0440
    1DIPC   D2B15754   7.618  25.122   3.442 -0.0544 -0.2173  0.2914
    1DIPC   D3B15755   7.370  25.426   3.288  0.1975 -0.0574  0.1496
    1DIPC   C4B15756   6.938  25.357   3.401  0.2063 -0.0561 -0.0648
    1DIPC   NC315757  19.001   0.756   3.490  0.1458  0.0985 -0.0810
    1DIPC   PO415758  19.147   0.994   3.288 -0.2159  0.0496  0.2159
    1DIPC   GL115759  19.413   1.044   3.622 -0.1279 -0.2948  0.3590
    1DIPC   GL215760  19.189   0.956   3.912  0.1327  0.0818 -0.0311
    1DIPC   C1A15761  19.675   1.167   3.849 -0.0527  0.0542  0.0933
    1DIPC   D2A15762  19.730   1.310   4.186 -0.0714  0.1426 -0.2991
    1DIPC   D3A15763  19.636   1.746   4.020 -0.0469  0.2680  0.1809
    1DIPC   C4A15764  19.233   1.754   3.935 -0.0861 -0.0290 -0.3886
    1DIPC   C1B15765  19.272   1.136   4.301  0.0816 -0.0959 -0.1371
    1DIPC   D2B15766  19.379   1.497   4.555 -0.0962  0.1772  0.1834
    1DIPC   D3B15767  19.290   1.879   4.536  0.0807 -0.2025  0.1347
    1DIPC   C4B15768  19.594   2.161   4.528  0.0084  0.0130  0.2644
    1DIPC   NC315769  12.333  25.464   3.463  0.0115  0.0409  0.0748
    1DIPC   PO415770  12.097  25.093   3.327 -0.0095 -0.0150 -0.2419
    1DIPC   GL115771  11.980  25.019   3.671  0.2486  0.1538  0.0391
    1DIPC   GL215772  11.909  25.373   3.804 -0.0206 -0.1568  0.1053
    1DIPC   C1A15773  11.992  24.804   4.117 -0.1585  0.0291  0.0763
    1DIPC   D2A15774  12.052  24.416   4.360  0.0497  0.1076  0.1300
    1DIPC   D3A15775  11.889  24.172   4.011  0.0786  0.0541 -0.1842
    1DIPC   C4A15776  11.430  24.245   3.813 -0.0486 -0.1540 -0.2241
    1DIPC   C1B15777  11.470  25.371   3.719  0.2372 -0.0530  0.0189
    1DIPC   D2B15778  11.219  25.160   4.004  0.0970  0.0941  0.0490
    1DIPC   D3B15779  11.601  25.124   4.237 -0.0769  0.0470  0.1605
    1DIPC   C4B15780  11.740  25.505   4.444 -0.0925  0.1886  0.0614
    1DIPC   NC315781  11.948   5.353   4.131 -0.0004  0.1343 -0.0643
    1DIPC   PO415782  11.752   5.681   3.817  0.1260  0.0233 -0.0774
    1DIPC   GL115783  11.404   5.908   4.022  0.0009 -0.2954 -0.0824
    1DIPC   GL215784  11.496   6.333   3.859  0.2409  0.3387  0.1829
    1DIPC   C1A15785  11.252   5.969   4.475  0.0004  0.1751 -0.4144
    1DIPC   D2A15786  11.128   5.993   4.970 -0.2385 -0.0080 -0.0036
    1DIPC   D3A15787  11.617   5.820   4.972 -0.0751 -0.1155 -0.3508
    1DIPC   C4A15788  11.943   6.212   4.987 -0.4020 -0.0590  0.0409
    1DIPC   C1B15789  11.336   6.495   4.218  0.0914 -0.0642 -0.0086
    1DIPC   D2B15790  11.475   6.836   4.378  0.2700  0.0229 -0.4671
    1DIPC   D3B15791  11.773   6.593   4.521 -0.1318  0.2507  0.2308
    1DIPC   C4B15792  11.676   6.225   4.543 -0.1166  0.0429 -0.4091
    1DIPC   NC315793  22.270   4.448   3.553 -0.3298 -0.0208  0.1630
    1DIPC   PO415794  22.139   4.788   3.453 -0.0698 -0.0526  0.0114
    1DIPC   GL115795  21.870   4.927   3.810 -0.2751  0.0719 -0.2222
    1DIPC   GL215796  21.483   4.971   3.828  0.2058 -0.1084  0.0481
    1DIPC   C1A15797  21.893   5.031   4.242  0.1699 -0.2846 -0.1712
    1DIPC   D2A15798  21.752   4.819   4.734  0.0121 -0.0221  0.0562
    1DIPC   D3A15799  22.039   4.618   5.074  0.1969 -0.2220  0.0584
    1DIPC   C4A15800  22.153   4.183   5.061  0.0790 -0.1336 -0.0264
    1DIPC   C1B15801  21.481   4.624   4.134 -0.0676  0.1662  0.1848
    1DIPC   D2B15802  21.579   4.450   4.499 -0.1280  0.0233  0.1032
    1DIPC   D3B15803  21.145   4.384   4.659 -0.0418 -0.2721 -0.0700
    1DIPC   C4B15804  20.969   4.350   5.134 -0.1919  0.0541  0.1323
    1DIPC   NC315805  20.436  26.865   3.456 -0.1267  0.1894  0.1803
    1DIPC   PO415806  20.548  27.249   3.666 -0.0386  0.0862 -0.0956
    1DIPC   GL115807  20.302  27.387   4.064  0.0624 -0.1265  0.0957
    1DIPC   GL215808  20.396  27.616   4.128  0.0738  0.0859  0.0088
    1DIPC   C1A15809  20.128  27.177   4.377 -0.0957 -0.0858  0.1819
    1DIPC   D2A15810  20.136  26.902   4.719 -0.1886  0.1737 -0.2589
    1DIPC   D3A15811  20.506  26.812   4.706 -0.0717  0.0699 -0.0255
    1DIPC   C4A15812  20.525  26.382   4.618 -0.1035  0.0762 -0.1025
    1DIPC   C1B15813  20.311  27.668   4.575 -0.0314  0.0623 -0.1690
    1DIPC   D2B15814  20.045  27.396   4.818 -0.0700  0.1668 -0.0327
    1DIPC   D3B15815  19.776  27.165   4.816  0.0127 -0.2942 -0.4754
    1DIPC   C4B15816  19.658  26.826   4.696 -0.0042  0.2631 -0.2557
    1DIPC   NC315817  28.263  10.462   2.467 -0.3996 -0.0638  0.0552
    1DIPC   PO415818  28.632  10.433   2.674  0.0264 -0.0976 -0.2632
    1DIPC   GL115819  28.433  10.203   3.000  0.1171  0.2165 -0.0114
    1DIPC   GL215820  28.496  10.412   3.325  0.0430 -0.2280 -0.0947
    1DIPC   C1A15821  28.155   9.852   3.093  0.0884 -0.0450 -0.0878
    1DIPC   D2A15822  27.803   9.501   3.076  0.0439 -0.4287 -0.3884
    1DIPC   D3A15823  27.858   9.279   3.398  0.1129 -0.3458  0.1345
    1DIPC   C4A15824  27.958   9.427   3.762 -0.3516  0.0471  0.0089
    1DIPC   C1B15825  28.142  10.214   3.411  0.1757 -0.0447 -0.0097
    1DIPC   D2B15826  27.915   9.840   3.560 -0.2118  0.1445 -0.1367
    1DIPC   D3B15827  28.047   9.894   3.960 -0.0869  0.0389  0.1315
    1DIPC   C4B15828  27.888  10.038   4.275 -0.1230  0.0451  0.6056
    1DIPC   NC315829  15.781   4.477   4.313 -0.0220 -0.2290 -0.2791
    1DIPC   PO415830  15.845   4.059   4.323 -0.0425  0.0447  0.2012
    1DIPC   GL115831  15.442   4.211   4.604  0.3762 -0.4982 -0.0762
    1DIPC   GL215832  15.391   4.624   4.648  0.1012  0.0522 -0.0690
    1DIPC   C1A15833  15.287   4.346   5.095  0.2537  0.2087  0.0714
    1DIPC   D2A15834  14.928   4.392   5.370 -0.1991  0.3851  0.1661
    1DIPC   D3A15835  14.576   4.286   5.150  0.0922  0.2415 -0.1246
    1DIPC   C4A15836  14.323   4.476   4.821  0.1240  0.0715  0.1106
    1DIPC   C1B15837  15.391   4.803   5.103  0.0261 -0.1384 -0.1488
    1DIPC   D2B15838  15.531   5.062   5.489  0.0049 -0.0747 -0.2957
    1DIPC   D3B15839  15.784   5.330   5.507 -0.3216  0.0605  0.1549
    1DIPC   C4B15840  15.702   5.775   5.255 -0.4031  0.1308  0.1399
    1DIPC   NC315841   0.393  18.900   2.270  0.2147 -0.0744  0.3174
    1DIPC   PO415842   0.114  18.949   2.591 -0.0014 -0.0886  0.4485
    1DIPC   GL115843  -0.124  18.821   2.862  0.3099  0.2506  0.1830
    1DIPC   GL215844  -0.205  18.491   2.962 -0.2834  0.2266 -0.0622
    1DIPC   C1A15845  -0.244  18.838   3.335  0.3017 -0.3018 -0.2035
    1DIPC   D2A15846  -0.088  19.005   3.658  0.0615  0.1434  0.0883
    1DIPC   D3A15847   0.233  19.463   3.764  0.0538  0.3359 -0.2117
    1DIPC   C4A15848   0.636  19.422   3.948 -0.1736 -0.1092  0.0246
    1DIPC   C1B15849  -0.160  18.307   3.396 -0.1049 -0.0617 -0.1893
    1DIPC   D2B15850  -0.345  18.204   3.809 -0.0564  0.0873  0.0211
    1DIPC   D3B15851  -0.017  18.072   4.060  0.3485 -0.4648  0.0046
    1DIPC   C4B15852   0.400  18.136   3.873 -0.2685 -0.1169 -0.1417
    1DIPC   NC315853   6.899  14.926   2.222  0.0020 -0.1499  0.1196
    1DIPC   PO415854   7.302  14.866   2.344 -0.1290 -0.1764 -0.0227
    1DIPC   GL115855   7.021  15.137   2.746  0.0240 -0.1009 -0.1335
    1DIPC   GL215856   7.400  15.249   2.862 -0.2347 -0.0239  0.2292
    1DIPC   C1A15857   6.760  15.151   3.158 -0.1431  0.1365 -0.0342
    1DIPC   D2A15858   6.507  15.246   3.499  0.0526  0.1074  0.0736
    1DIPC   D3A15859   6.450  15.660   3.711 -0.0325 -0.0867  0.0543
    1DIPC   C4A15860   6.143  15.993   3.490  0.1849  0.0476  0.0022
    1DIPC   C1B15861   7.294  15.221   3.338 -0.0232  0.1494 -0.2110
    1DIPC   D2B15862   7.136  15.078   3.761 -0.1357 -0.0147  0.1345
    1DIPC   D3B15863   6.831  15.360   3.967 -0.0002 -0.3025  0.1234
    1DIPC   C4B15864   6.738  15.347   4.457 -0.2834 -0.2649  0.0045
    1DIPC   NC315865   7.395  18.580   2.081 -0.0580 -0.1648  0.0665
    1DIPC   PO415866   7.020  18.794   1.980 -0.0226  0.2797  0.0569
    1DIPC   GL115867   7.087  18.848   2.348  0.0410 -0.1657 -0.2637
    1DIPC   GL215868   7.155  19.177   2.601  0.2239 -0.1800  0.1235
    1DIPC   C1A15869   6.954  18.708   2.752 -0.2717  0.1830 -0.0239
    1DIPC   D2A15870   6.975  18.891   3.209  0.1368 -0.0910 -0.1301
    1DIPC   D3A15871   6.581  18.877   3.471 -0.1433  0.1592 -0.2557
    1DIPC   C4A15872   6.453  19.160   3.756  0.4627  0.1358  0.0321
    1DIPC   C1B15873   7.011  19.325   3.018  0.0269 -0.1260  0.1446
    1DIPC   D2B15874   6.840  19.342   3.408 -0.2670 -0.0819 -0.0251
    1DIPC   D3B15875   7.156  19.146   3.687  0.0126 -0.2598  0.0291
    1DIPC   C4B15876   6.955  19.279   4.079  0.0156 -0.1053 -0.1968
    1DIPC   NC315877  21.734   6.772   3.502  0.1664 -0.1036  0.2760
    1DIPC   PO415878  21.369   6.761   3.478  0.0921  0.1061  0.0916
    1DIPC   GL115879  21.429   7.004   3.847 -0.1390  0.0530 -0.1426
    1DIPC   GL215880  21.157   6.899   4.094  0.1294  0.1866  0.1599
    1DIPC   C1A15881  21.729   7.226   4.183 -0.0348  0.2681  0.0473
    1DIPC   D2A15882  21.898   7.449   4.537 -0.0722 -0.0164 -0.0119
    1DIPC   D3A15883  22.036   7.126   4.805  0.0141  0.0318  0.2135
    1DIPC   C4A15884  21.832   7.155   5.152  0.1000 -0.0308  0.1707
    1DIPC   C1B15885  21.342   6.954   4.476  0.1039  0.0370  0.0922
    1DIPC   D2B15886  21.504   7.198   4.741  0.1050 -0.1446  0.1365
    1DIPC   D3B15887  20.974   7.174   4.833 -0.1882  0.3203 -0.0217
    1DIPC   C4B15888  20.639   7.296   5.010 -0.1950  0.2435  0.1002
    1DIPC   NC315889   6.393  13.883   2.748 -0.1165  0.2060  0.0352
    1DIPC   PO415890   6.703  14.216   2.587  0.0096  0.0630  0.1208
    1DIPC   GL115891   6.542  14.365   2.888 -0.4757 -0.0923  0.1650
    1DIPC   GL215892   6.197  14.260   3.093 -0.2763  0.1430  0.5937
    1DIPC   C1A15893   6.483  14.615   3.338 -0.2226 -0.1406 -0.2831
    1DIPC   D2A15894   6.643  14.809   3.791  0.0952 -0.2365 -0.4299
    1DIPC   D3A15895   6.781  14.802   4.153 -0.2904  0.2962  0.0525
    1DIPC   C4A15896   7.224  15.069   4.265  0.0864 -0.0835 -0.0748
    1DIPC   C1B15897   5.967  14.602   3.075  0.2194  0.4479 -0.1042
    1DIPC   D2B15898   5.617  14.697   2.950 -0.0996 -0.1764  0.1803
    1DIPC   D3B15899   5.663  15.140   2.936 -0.0829  0.0493  0.0860
    1DIPC   C4B15900   6.102  15.357   2.813  0.0140 -0.2835  0.0619
    1DIPC   NC315901   6.976  22.283   2.001  0.2743  0.3219 -0.1752
    1DIPC   PO415902   6.861  22.679   2.189 -0.1268  0.1061 -0.1403
    1DIPC   GL115903   6.825  22.742   2.536 -0.2716  0.1281 -0.0909
    1DIPC   GL215904   6.526  22.774   2.577  0.0874 -0.1803  0.1556
    1DIPC   C1A15905   7.110  22.553   2.867 -0.1794 -0.0882 -0.0395
    1DIPC   D2A15906   7.260  22.849   3.220 -0.2383  0.1241 -0.2610
    1DIPC   D3A15907   7.608  22.806   3.330 -0.1471 -0.1765 -0.2192
    1DIPC   C4A15908   7.549  22.768   3.786  0.0594 -0.4888  0.0567
    1DIPC   C1B15909   6.508  22.416   2.861  0.2136 -0.3127  0.0968
    1DIPC   D2B15910   6.326  21.996   2.928  0.0307  0.0586 -0.0837
    1DIPC   D3B15911   6.110  21.935   3.328 -0.3008  0.0506  0.0550
    1DIPC   C4B15912   6.146  21.601   3.595  0.1160 -0.2653  0.0807
    1DIPC   NC315913   3.293   2.703   3.220 -0.2496  0.0982  0.1914
    1DIPC   PO415914   3.269   3.123   3.132 -0.0864  0.0516  0.1651
    1DIPC   GL115915   3.296   3.062   3.599 -0.0199 -0.0389  0.2193
    1DIPC   GL215916   2.982   3.230   3.761  0.0736 -0.3364 -0.1001
    1DIPC   C1A15917   3.428   2.872   3.960  0.0543 -0.1257  0.1868
    1DIPC   D2A15918   3.631   2.747   4.273 -0.0415 -0.1265  0.1280
    1DIPC   D3A15919   4.030   2.513   4.356  0.1823  0.1251  0.2810
    1DIPC   C4A15920   4.421   2.361   4.154  0.2311 -0.1976 -0.0887
    1DIPC   C1B15921   3.102   3.256   4.215 -0.0813  0.5041 -0.0061
    1DIPC   D2B15922   3.217   2.961   4.463 -0.0613 -0.1319  0.0448
    1DIPC   D3B15923   3.319   3.430   4.663 -0.0069  0.0806  0.1846
    1DIPC   C4B15924   3.552   3.434   5.016  0.0600 -0.1066 -0.0766
    1DIPC   NC315925   1.753  28.527   2.977 -0.2079 -0.0507 -0.2427
    1DIPC   PO415926   1.699  28.831   3.241  0.0566 -0.1202  0.2937
    1DIPC   GL115927   1.667  28.822   3.732 -0.2352 -0.0168 -0.1525
    1DIPC   GL215928   1.560  28.569   3.734 -0.0693 -0.1362  0.3015
    1DIPC   C1A15929   1.549  28.890   4.146 -0.3391  0.2526  0.0819
    1DIPC   D2A15930   1.530  28.889   4.697 -0.2609  0.2624 -0.2526
    1DIPC   D3A15931   1.707  29.143   5.067 -0.0140 -0.0675 -0.0312
    1DIPC   C4A15932   1.905  28.952   5.336 -0.3202 -0.0663  0.0191
    1DIPC   C1B15933   1.764  28.357   4.049  0.0583  0.1731  0.0642
    1DIPC   D2B15934   1.934  28.433   4.484  0.0415 -0.1773 -0.3002
    1DIPC   D3B15935   1.914  28.629   4.897  0.0098 -0.1570 -0.1849
    1DIPC   C4B15936   1.757  28.241   5.090 -0.0355 -0.0307 -0.0973
    1DIPC   NC315937   6.542  15.958   2.418 -0.2082 -0.1134 -0.3607
    1DIPC   PO415938   6.797  16.254   2.159  0.2887 -0.0891  0.1837
    1DIPC   GL115939   6.736  16.499   2.592  0.0864 -0.4377  0.3121
    1DIPC   GL215940   6.622  16.358   2.830  0.0433  0.0813 -0.1001
    1DIPC   C1A15941   6.426  16.783   2.738  0.1634  0.1779  0.0349
    1DIPC   D2A15942   6.150  16.847   3.090 -0.0230  0.2221 -0.1023
    1DIPC   D3A15943   6.018  17.219   3.230  0.1422 -0.3002 -0.0719
    1DIPC   C4A15944   6.083  17.436   3.591  0.2020  0.1290 -0.1940
    1DIPC   C1B15945   6.810  16.658   3.090  0.1875 -0.0367 -0.0953
    1DIPC   D2B15946   7.180  16.732   3.331  0.0209 -0.1607 -0.2688
    1DIPC   D3B15947   6.820  16.770   3.649 -0.0454 -0.5185  0.1298
    1DIPC   C4B15948   6.592  16.667   3.974  0.1353  0.3985  0.0355
    1DIPC   NC315949  17.682  23.632   3.272  0.1319  0.2437  0.0226
    1DIPC   PO415950  17.233  23.649   3.398  0.1192 -0.3350  0.2995
    1DIPC   GL115951  17.150  23.562   3.817 -0.1975 -0.1233 -0.0134
    1DIPC   GL215952  17.145  23.261   3.991 -0.0118 -0.2067  0.0953
    1DIPC   C1A15953  17.339  23.746   4.168  0.2591  0.0555 -0.0553
    1DIPC   D2A15954  17.555  23.837   4.518  0.2433  0.3987  0.2649
    1DIPC   D3A15955  17.401  23.458   4.670 -0.1535 -0.1370 -0.1486
    1DIPC   C4A15956  17.544  23.352   5.062  0.0839  0.3600 -0.0878
    1DIPC   C1B15957  17.228  23.083   4.420  0.4179 -0.0010  0.0360
    1DIPC   D2B15958  17.400  22.965   4.743  0.2077 -0.0732 -0.0215
    1DIPC   D3B15959  17.733  22.686   4.744 -0.2066 -0.2716  0.0348
    1DIPC   C4B15960  17.791  22.715   5.152 -0.0035  0.0913  0.1643
    1DIPC   NC315961   1.258  13.810   2.329 -0.4272  0.2781 -0.2983
    1DIPC   PO415962   0.780  13.883   2.383  0.0189  0.1430 -0.0509
    1DIPC   GL115963   0.787  14.113   2.732 -0.2229  0.3521  0.2119
    1DIPC   GL215964   1.096  14.004   2.845  0.3927  0.1072  0.1615
    1DIPC   C1A15965   0.706  14.217   3.126 -0.0232 -0.0841  0.1583
    1DIPC   D2A15966   0.227  14.330   3.209 -0.1988 -0.1500 -0.0770
    1DIPC   D3A15967   0.143  14.584   3.560 -0.0934 -0.0923 -0.1004
    1DIPC   C4A15968  -0.215  14.741   3.728  0.2310  0.0494  0.0759
    1DIPC   C1B15969   1.267  14.144   3.187 -0.2130  0.0505 -0.0958
    1DIPC   D2B15970   1.092  14.379   3.485  0.0904 -0.3054 -0.2674
    1DIPC   D3B15971   0.792  14.249   3.731  0.1052 -0.0346 -0.0048
    1DIPC   C4B15972   0.376  14.127   3.617  0.3590  0.1995  0.3858
    1DIPC   NC315973  19.643  27.104   3.173 -0.1006  0.0967  0.2018
    1DIPC   PO415974  19.556  27.546   3.394  0.1288  0.3542  0.2265
    1DIPC   GL115975  19.815  27.648   3.782 -0.2824 -0.1689  0.0039
    1DIPC   GL215976  19.793  27.345   3.939 -0.0358 -0.0938  0.1158
    1DIPC   C1A15977  20.037  27.961   3.967  0.0243 -0.0865 -0.0288
    1DIPC   D2A15978  20.066  28.334   4.137 -0.0547  0.0586 -0.1164
    1DIPC   D3A15979  19.629  28.529   4.012  0.0060 -0.0309  0.1147
    1DIPC   C4A15980  19.313  28.754   4.330 -0.0114 -0.0368  0.1822
    1DIPC   C1B15981  19.388  27.551   4.062  0.1145 -0.1404  0.1446
    1DIPC   D2B15982  19.189  27.939   4.264 -0.0478 -0.3190 -0.0099
    1DIPC   D3B15983  19.159  28.263   4.543 -0.2411  0.0064 -0.0251
    1DIPC   C4B15984  19.338  28.174   4.912 -0.4607  0.2675  0.2946
    1DIPC   NC315985   9.955   5.497   3.221 -0.1244 -0.0404  0.1158
    1DIPC   PO415986  10.195   5.390   3.580  0.1806 -0.0699  0.2906
    1DIPC   GL115987  10.044   5.178   3.824  0.1074  0.2789  0.5433
    1DIPC   GL215988  10.106   5.228   4.058  0.0644  0.0078  0.0683
    1DIPC   C1A15989   9.718   5.012   4.033  0.0019  0.3504 -0.0423
    1DIPC   D2A15990   9.569   5.016   4.435  0.0575  0.3787 -0.1390
    1DIPC   D3A15991   9.092   5.094   4.623 -0.3812  0.1074  0.0153
    1DIPC   C4A15992   8.840   4.826   4.452  0.0744  0.1243 -0.4039
    1DIPC   C1B15993   9.985   5.259   4.551 -0.1081 -0.3132 -0.0973
    1DIPC   D2B15994   9.908   5.185   4.933 -0.2075  0.0106  0.0746
    1DIPC   D3B15995   9.698   5.346   5.181  0.1462  0.2439 -0.0320
    1DIPC   C4B15996   9.449   5.698   5.091 -0.0631  0.1740 -0.2457
    1DIPC   NC315997   2.822   8.197   3.058 -0.0568  0.0741  0.4486
    1DIPC   PO415998   2.948   8.677   3.061  0.1372  0.0096 -0.0303
    1DIPC   GL115999   2.957   8.550   3.498 -0.0153 -0.2108  0.1953
    1DIPC   GL216000   2.753   8.687   3.733 -0.0197 -0.2412 -0.5307
    1DIPC   C1A16001   2.802   8.212   3.783  0.3707 -0.0533 -0.2048
    1DIPC   D2A16002   2.979   7.961   3.958 -0.0815 -0.2076  0.0177
    1DIPC   D3A16003   2.835   8.096   4.408 -0.1659  0.0183  0.1448
    1DIPC   C4A16004   2.566   8.387   4.412  0.3125 -0.0903  0.0162
    1DIPC   C1B16005   2.892   8.696   4.191  0.0907 -0.1470 -0.1195
    1DIPC   D2B16006   2.968   8.576   4.570  0.0245  0.1357  0.2202
    1DIPC   D3B16007   3.385   8.659   4.680  0.1360 -0.1309 -0.0557
    1DIPC   C4B16008   3.527   8.928   5.004 -0.2408 -0.0540  0.2480
    1DIPC   NC316009   4.490  27.224   2.773  0.4353  0.3776 -0.0633
    1DIPC   PO416010   4.827  26.794   2.843  0.2365 -0.0926 -0.1566
    1DIPC   GL116011   4.891  26.818   3.312  0.2525 -0.0075 -0.0802
    1DIPC   GL216012   5.202  26.680   3.446  0.0273  0.3618 -0.1890
    1DIPC   C1A16013   4.738  26.746   3.734 -0.1955  0.0757 -0.0210
    1DIPC   D2A16014   4.717  26.896   4.137  0.1363  0.1563  0.1379
    1DIPC   D3A16015   5.068  26.638   4.295 -0.0565  0.2770  0.1829
    1DIPC   C4A16016   5.024  26.265   4.512  0.2042  0.0287 -0.1735
    1DIPC   C1B16017   5.294  26.844   3.907  0.2300 -0.4123 -0.1635
    1DIPC   D2B16018   5.623  26.811   4.256 -0.0143 -0.0259 -0.2243
    1DIPC   D3B16019   5.994  26.726   4.531  0.0407 -0.0432 -0.1939
    1DIPC   C4B16020   6.049  26.729   4.978 -0.2399  0.1051 -0.2236
    1DIPC   NC316021  10.129   0.303   3.286 -0.1335 -0.0206 -0.0502
    1DIPC   PO416022  10.028   0.636   3.647 -0.1870  0.3679  0.6989
    1DIPC   GL116023  10.023   0.446   4.107 -0.1376  0.3263  0.3875
    1DIPC   GL216024   9.740   0.269   4.214 -0.2444 -0.1430  0.3899
    1DIPC   C1A16025  10.426   0.235   4.302  0.0337  0.0881  0.1719
    1DIPC   D2A16026  10.634   0.156   4.690 -0.1068  0.1224 -0.1916
    1DIPC   D3A16027  10.859  -0.038   5.001 -0.0859 -0.0594 -0.1238
    1DIPC   C4A16028  10.693   0.034   5.524  0.2521  0.1793 -0.1828
    1DIPC   C1B16029   9.744   0.432   4.516  0.1627 -0.0139  0.0819
    1DIPC   D2B16030   9.783   0.447   5.031  0.1193 -0.1876  0.0645
    1DIPC   D3B16031   9.743   0.237   5.366  0.6684 -0.0242  0.0580
    1DIPC   C4B16032   9.860  -0.113   5.495 -0.0077 -0.0537  0.1888
    1DIPC   NC316033   5.282   4.282   2.863 -0.0561  0.0303 -0.1739
    1DIPC   PO416034   5.627   4.320   3.098 -0.1979 -0.3244  0.0172
    1DIPC   GL116035   5.584   4.483   3.510  0.0471  0.1423 -0.0835
    1DIPC   GL216036   5.213   4.582   3.656 -0.2489 -0.1465  0.2418
    1DIPC   C1A16037   5.802   4.650   3.906  0.2156  0.0157 -0.1297
    1DIPC   D2A16038   5.762   4.885   4.242  0.2615  0.0666 -0.4805
    1DIPC   D3A16039   5.830   4.702   4.593  0.2625 -0.0211  0.3615
    1DIPC   C4A16040   6.212   4.827   4.837  0.1466 -0.3238 -0.1801
    1DIPC   C1B16041   5.282   4.514   4.077  0.1338  0.1613 -0.0212
    1DIPC   D2B16042   5.223   4.608   4.412  0.0138 -0.0007  0.0630
    1DIPC   D3B16043   5.369   4.947   4.631  0.0018 -0.3782  0.2063
    1DIPC   C4B16044   5.687   5.105   4.812 -0.1748 -0.2121  0.0416
    1DIPC   NC316045  14.740  24.927   3.412 -0.2260  0.1768  0.2715
    1DIPC   PO416046  14.539  25.264   3.594  0.0720 -0.0055  0.1831
    1DIPC   GL116047  14.874  25.317   3.936  0.1798 -0.0049  0.0919
    1DIPC   GL216048  14.999  25.671   3.837  0.1111  0.2386 -0.0368
    1DIPC   C1A16049  15.067  25.244   4.334 -0.0485  0.0400 -0.1694
    1DIPC   D2A16050  14.910  25.268   4.722 -0.2278  0.0396  0.1098
    1DIPC   D3A16051  15.067  25.045   5.146 -0.1305  0.1104 -0.0687
    1DIPC   C4A16052  14.644  24.844   5.360  0.3166  0.1098 -0.2222
    1DIPC   C1B16053  15.178  25.829   4.224 -0.2460 -0.3292  0.1297
    1DIPC   D2B16054  15.324  25.860   4.668 -0.0749 -0.0780 -0.1994
    1DIPC   D3B16055  15.688  25.843   4.881  0.1045  0.2457  0.0134
    1DIPC   C4B16056  15.762  26.078   5.324  0.0159  0.1990  0.1440
    1DIPC   NC316057   7.084  18.235   1.929 -0.1399 -0.2796  0.2906
    1DIPC   PO416058   7.384  18.164   2.352  0.5421 -0.0753 -0.2526
    1DIPC   GL116059   7.282  18.301   2.678 -0.2546 -0.2982  0.2350
    1DIPC   GL216060   7.515  18.383   2.848 -0.0886  0.0018 -0.1629
    1DIPC   C1A16061   6.985  18.220   2.980 -0.3167  0.2645 -0.1657
    1DIPC   D2A16062   6.571  18.076   3.135 -0.0901  0.0409 -0.0923
    1DIPC   D3A16063   6.732  17.854   2.782  0.0903 -0.0001  0.0045
    1DIPC   C4A16064   6.803  17.448   2.786  0.2781  0.0338  0.1712
    1DIPC   C1B16065   7.408  18.503   3.296 -0.4134  0.1532 -0.1094
    1DIPC   D2B16066   7.103  18.548   3.636 -0.0737 -0.1533  0.2835
    1DIPC   D3B16067   6.837  18.428   3.445  0.1046  0.2755 -0.0486
    1DIPC   C4B16068   6.611  18.559   3.076  0.0588 -0.1996  0.0266
    1DIPC   NC316069   0.148  15.815   1.923 -0.1101  0.2005  0.0344
    1DIPC   PO416070  -0.054  16.127   2.185  0.1159  0.1949 -0.0305
    1DIPC   GL116071  -0.173  15.962   2.561 -0.2365  0.1601 -0.3897
    1DIPC   GL216072  -0.174  15.665   2.652 -0.0962 -0.0095  0.0210
    1DIPC   C1A16073  -0.018  16.184   2.936  0.1314 -0.0478  0.1664
    1DIPC   D2A16074   0.146  16.320   3.271  0.1047  0.1249 -0.0849
    1DIPC   D3A16075   0.246  16.564   3.598  0.0646  0.2097 -0.0405
    1DIPC   C4A16076  -0.105  16.786   3.800  0.0428 -0.1108 -0.1966
    1DIPC   C1B16077  -0.178  15.589   3.041 -0.1491 -0.1722  0.3016
    1DIPC   D2B16078  -0.550  15.595   3.382 -0.0393  0.2996  0.0657
    1DIPC   D3B16079  -0.658  15.290   3.607  0.0372 -0.1317 -0.0040
    1DIPC   C4B16080  -1.055  15.293   3.952  0.4234 -0.1048 -0.2724
    1DIPC   NC316081  25.948   5.386   2.145 -0.2308  0.2201 -0.5793
    1DIPC   PO416082  25.879   5.686   2.517 -0.4431 -0.0558 -0.0559
    1DIPC   GL116083  25.917   5.912   2.975  0.0884  0.0396 -0.1852
    1DIPC   GL216084  25.636   5.845   3.144  0.0262 -0.0359  0.1986
    1DIPC   C1A16085  26.071   5.843   3.457 -0.2019 -0.2883 -0.0379
    1DIPC   D2A16086  25.968   5.767   3.837  0.0783 -0.0223  0.1483
    1DIPC   D3A16087  25.634   5.573   3.900 -0.1536  0.0107  0.0392
    1DIPC   C4A16088  25.497   5.534   3.562  0.0483  0.1499  0.1261
    1DIPC   C1B16089  25.753   6.223   3.342 -0.4814 -0.0285 -0.3863
    1DIPC   D2B16090  26.088   6.351   3.589 -0.0924  0.3944 -0.3530
    1DIPC   D3B16091  26.164   6.194   3.945 -0.0797  0.1982 -0.0870
    1DIPC   C4B16092  26.043   6.494   4.255  0.0791  0.0499  0.2267
    1DIPC   NC316093  28.662  12.406   2.363 -0.0449  0.0657 -0.1815
    1DIPC   PO416094  28.600  11.896   2.405 -0.0105  0.2478  0.1015
    1DIPC   GL116095  28.275  11.719   2.782 -0.1276  0.0619 -0.2685
    1DIPC   GL216096  28.502  11.752   3.077 -0.0378  0.0346 -0.1934
    1DIPC   C1A16097  28.061  11.929   3.080 -0.3003  0.2548  0.0461
    1DIPC   D2A16098  28.225  11.972   3.476  0.0015 -0.0937 -0.3014
    1DIPC   D3A16099  28.005  12.383   3.387  0.1054 -0.0458 -0.3765
    1DIPC   C4A16100  28.076  12.399   3.005 -0.0616 -0.2276  0.1478
    1DIPC   C1B16101  28.125  11.482   3.265 -0.2062 -0.0394 -0.0868
    1DIPC   D2B16102  28.039  11.239   3.696 -0.3025 -0.0906  0.1294
    1DIPC   D3B16103  28.219  11.642   3.862  0.1075  0.0905  0.0062
    1DIPC   C4B16104  28.598  11.956   4.136  0.0464  0.1382  0.1532
    1DIPC   NC316105   8.151   9.359   3.412 -0.3143 -0.0027  0.0542
    1DIPC   PO416106   7.798   9.409   3.627  0.0256 -0.1177 -0.2352
    1DIPC   GL116107   7.858   9.187   3.973 -0.1749  0.1427  0.0316
    1DIPC   GL216108   7.567   9.012   4.117 -0.1873 -0.1404  0.1019
    1DIPC   C1A16109   7.847   9.257   4.423 -0.2292  0.1140 -0.0117
    1DIPC   D2A16110   7.956   9.209   4.808 -0.0433 -0.1090 -0.1707
    1DIPC   D3A16111   7.983   8.767   4.798 -0.0161 -0.1291 -0.0249
    1DIPC   C4A16112   7.820   8.397   4.961  0.1528 -0.3144 -0.0346
    1DIPC   C1B16113   7.161   9.173   4.331  0.0508 -0.0225 -0.1595
    1DIPC   D2B16114   6.848   9.297   4.469 -0.1386 -0.2524 -0.1311
    1DIPC   D3B16115   6.758   8.921   4.225  0.1997  0.1347 -0.4047
    1DIPC   C4B16116   7.209   8.669   3.998  0.0345 -0.0929 -0.1169
    1DIPC   NC316117   8.231  23.046   2.540 -0.4642  0.4381  0.3194
    1DIPC   PO416118   8.714  23.078   2.529 -0.1605 -0.0110 -0.0485
    1DIPC   GL116119   9.019  23.200   2.767  0.0814  0.2557  0.0887
    1DIPC   GL216120   9.095  23.484   3.032  0.1070 -0.0561 -0.1906
    1DIPC   C1A16121   9.321  23.021   2.974  0.0971  0.1238  0.1000
    1DIPC   D2A16122   9.423  22.945   3.388 -0.0592  0.0706  0.1257
    1DIPC   D3A16123   9.812  23.103   3.577  0.2434 -0.2384 -0.1797
    1DIPC   C4A16124  10.101  23.110   3.910 -0.1927 -0.1867  0.0361
    1DIPC   C1B16125   9.120  23.416   3.506 -0.1211 -0.2425 -0.3719
    1DIPC   D2B16126   8.735  23.417   3.754 -0.0584  0.2860 -0.0354
    1DIPC   D3B16127   8.904  23.676   3.874  0.1419  0.3405 -0.3351
    1DIPC   C4B16128   9.095  23.719   4.285 -0.0530 -0.0512  0.0958
    1DIPC   NC316129  18.726   7.601   2.968 -0.1069 -0.2971  0.3220
    1DIPC   PO416130  18.451   7.501   3.298 -0.3076  0.3240 -0.0321
    1DIPC   GL116131  18.284   7.655   3.637 -0.0360  0.1851  0.2329
    1DIPC   GL216132  17.962   7.669   3.746 -0.0267 -0.0424 -0.0233
    1DIPC   C1A16133  18.570   7.891   3.817 -0.2558 -0.2909 -0.2478
    1DIPC   D2A16134  18.843   8.213   4.039 -0.0652 -0.1845 -0.2349
    1DIPC   D3A16135  19.099   8.455   3.885  0.1260 -0.3636  0.3115
    1DIPC   C4A16136  19.167   8.667   3.589 -0.1472 -0.2411  0.0689
    1DIPC   C1B16137  18.136   8.059   4.161 -0.2736  0.0862 -0.0501
    1DIPC   D2B16138  18.318   8.081   4.526 -0.0534  0.0760  0.0926
    1DIPC   D3B16139  18.129   7.587   4.540  0.2026 -0.0445  0.1621
    1DIPC   C4B16140  17.949   7.569   4.198 -0.1741  0.2428 -0.1081
    1DIPC   NC316141  26.102  15.656   2.372  0.0368  0.2525  0.0854
    1DIPC   PO416142  26.175  15.548   2.789 -0.0987  0.3457 -0.2094
    1DIPC   GL116143  26.100  15.634   3.225  0.1257 -0.0634  0.1516
    1DIPC   GL216144  26.050  15.342   3.303  0.1780 -0.0840 -0.0426
    1DIPC   C1A16145  26.393  15.786   3.524 -0.1329  0.2471  0.0640
    1DIPC   D2A16146  26.229  16.059   3.766 -0.3889  0.1945 -0.1236
    1DIPC   D3A16147  26.545  15.930   3.961 -0.3351  0.0345  0.0172
    1DIPC   C4A16148  26.683  16.311   4.249 -0.1155  0.2521 -0.0352
    1DIPC   C1B16149  25.952  15.275   3.821  0.1082 -0.0804  0.3528
    1DIPC   D2B16150  25.981  14.949   4.108 -0.0164  0.2075 -0.0384
    1DIPC   D3B16151  25.596  14.946   4.200 -0.2590  0.0215  0.0004
    1DIPC   C4B16152  25.554  14.663   3.781 -0.1231  0.2052  0.2060
    1DIPC   NC316153   4.240   7.516   2.998  0.2011 -0.0958 -0.4179
    1DIPC   PO416154   3.976   8.013   3.172 -0.0699 -0.1726 -0.1692
    1DIPC   GL116155   3.663   8.029   3.450  0.0284 -0.1042  0.2974
    1DIPC   GL216156   3.669   7.986   3.787  0.2037  0.2291  0.1167
    1DIPC   C1A16157   3.218   8.157   3.558 -0.2590  0.0801  0.1445
    1DIPC   D2A16158   3.266   8.390   3.923  0.0992 -0.3446  0.1499
    1DIPC   D3A16159   3.282   8.387   4.265 -0.2103  0.0529  0.2156
    1DIPC   C4A16160   3.312   7.946   4.434  0.0274 -0.3734  0.4015
    1DIPC   C1B16161   3.366   7.677   3.726  0.2565  0.1217 -0.1309
    1DIPC   D2B16162   3.236   7.142   3.679  0.0822 -0.0350 -0.4060
    1DIPC   D3B16163   3.427   6.933   3.942 -0.2463 -0.0859  0.1372
    1DIPC   C4B16164   3.309   6.533   4.101  0.1865 -0.0895  0.1384
    1DIPC   NC316165  18.686  21.038   3.105 -0.0071  0.0540 -0.0723
    1DIPC   PO416166  18.796  21.492   3.133 -0.0816  0.2334  0.1871
    1DIPC   GL116167  18.716  21.462   3.572  0.3245 -0.2724  0.0155
    1DIPC   GL216168  18.829  21.758   3.589 -0.0985 -0.2350  0.0177
    1DIPC   C1A16169  18.571  21.236   3.941 -0.1366  0.1641 -0.0403
    1DIPC   D2A16170  18.404  21.274   4.319  0.0970 -0.1702 -0.0696
    1DIPC   D3A16171  18.487  21.252   4.657  0.0360  0.1128 -0.0481
    1DIPC   C4A16172  18.762  21.338   4.841 -0.2698  0.1827 -0.2007
    1DIPC   C1B16173  18.855  21.649   4.006 -0.0061 -0.3923 -0.3259
    1DIPC   D2B16174  18.856  21.567   4.435  0.1317 -0.5339  0.2822
    1DIPC   D3B16175  18.533  21.816   4.349 -0.2852  0.0699 -0.0398
    1DIPC   C4B16176  18.178  21.987   4.437 -0.1178 -0.0323 -0.1900
    1DIPC   NC316177   0.524  13.149   2.077 -0.1571  0.0806 -0.0153
    1DIPC   PO416178   0.604  12.993   2.490  0.1625  0.2003  0.0751
    1DIPC   GL116179   0.626  13.169   2.869  0.1332  0.3844 -0.1192
    1DIPC   GL216180   0.829  12.891   3.022 -0.1074  0.3792  0.2597
    1DIPC   C1A16181   0.523  13.206   3.359  0.2033 -0.2755  0.0210
    1DIPC   D2A16182   0.418  13.570   3.610  0.3407 -0.3461  0.1619
    1DIPC   D3A16183   0.611  13.863   3.891 -0.0599  0.1872  0.1063
    1DIPC   C4A16184   0.751  14.081   4.252  0.0497  0.0925  0.2982
    1DIPC   C1B16185   0.696  12.740   3.475  0.0377  0.2291  0.0611
    1DIPC   D2B16186   0.799  12.644   3.838 -0.0536  0.1774 -0.2885
    1DIPC   D3B16187   1.027  12.987   3.873  0.0453 -0.1223  0.1408
    1DIPC   C4B16188   1.141  13.145   4.241  0.3570 -0.1399  0.1392
    1DIPC   NC316189  16.488   6.363   3.732  0.2256  0.2338  0.0823
    1DIPC   PO416190  16.312   6.771   3.859 -0.1014  0.0741 -0.2044
    1DIPC   GL116191  16.246   6.834   4.206 -0.1410  0.0592  0.1098
    1DIPC   GL216192  16.369   7.138   4.388 -0.1378 -0.1419  0.0575
    1DIPC   C1A16193  16.394   6.723   4.634  0.0292 -0.1679 -0.1491
    1DIPC   D2A16194  16.502   6.645   4.960  0.2258 -0.3801 -0.0099
    1DIPC   D3A16195  16.755   6.919   5.246 -0.1565  0.0542  0.0317
    1DIPC   C4A16196  17.098   7.105   5.072 -0.0773  0.2288 -0.0882
    1DIPC   C1B16197  16.352   7.463   4.513  0.0475 -0.2459  0.0215
    1DIPC   D2B16198  16.326   7.908   4.473 -0.1350 -0.0077  0.1313
    1DIPC   D3B16199  16.710   7.798   4.708 -0.1172  0.2179 -0.3823
    1DIPC   C4B16200  16.612   7.806   5.179  0.0591  0.3906  0.2686
    1DIPC   NC316201  21.788   5.066   3.291 -0.0793  0.2344  0.3126
    1DIPC   PO416202  21.637   4.675   3.324 -0.0966 -0.0373 -0.3106
    1DIPC   GL116203  21.782   4.409   3.760 -0.0698  0.0656  0.0467
    1DIPC   GL216204  21.523   4.079   3.814  0.0774 -0.0653  0.1029
    1DIPC   C1A16205  21.925   4.348   4.179 -0.0487 -0.0050  0.2320
    1DIPC   D2A16206  21.988   4.084   4.621 -0.0717 -0.0926  0.0295
    1DIPC   D3A16207  21.690   4.257   4.936 -0.3503  0.2717 -0.0892
    1DIPC   C4A16208  21.730   4.327   5.380  0.0963 -0.1595 -0.0393
    1DIPC   C1B16209  21.310   3.652   3.939 -0.1029  0.3652 -0.1031
    1DIPC   D2B16210  21.391   3.221   3.737 -0.4265 -0.4102  0.2110
    1DIPC   D3B16211  21.139   3.184   4.130 -0.0795  0.0198  0.1092
    1DIPC   C4B16212  20.930   2.931   4.193  0.6237 -0.0133 -0.1210
    1DIPC   NC316213  11.589  22.344   2.521  0.2348  0.0711 -0.1886
    1DIPC   PO416214  11.649  22.101   2.910  0.2371 -0.2296  0.0961
    1DIPC   GL116215  11.655  22.135   3.433 -0.0681  0.0032 -0.0190
    1DIPC   GL216216  11.897  22.378   3.537  0.1155  0.1172  0.1822
    1DIPC   C1A16217  11.585  21.963   3.852  0.1495 -0.0523  0.0482
    1DIPC   D2A16218  11.554  21.879   4.377 -0.2917 -0.0773  0.0917
    1DIPC   D3A16219  11.489  22.032   4.786 -0.0458  0.1163 -0.0646
    1DIPC   C4A16220  11.178  22.027   4.979 -0.2974 -0.0754  0.2536
    1DIPC   C1B16221  12.027  22.314   3.999 -0.3379  0.0939 -0.1320
    1DIPC   D2B16222  12.359  22.382   4.325 -0.1185  0.1029  0.2015
    1DIPC   D3B16223  12.327  22.218   4.764 -0.3885  0.1196 -0.0849
    1DIPC   C4B16224  12.162  22.428   5.062  0.0264 -0.3428 -0.1388
    1DIPC   NC316225   9.598   5.976   3.185  0.1127  0.3180  0.0050
    1DIPC   PO416226   9.299   6.031   3.558  0.1633  0.1853  0.2830
    1DIPC   GL116227   9.552   6.034   3.818  0.0039  0.0945 -0.0519
    1DIPC   GL216228   9.418   5.948   4.109  0.2221  0.5309 -0.0672
    1DIPC   C1A16229   9.805   6.187   4.222 -0.0795 -0.0154 -0.2277
    1DIPC   D2A16230  10.023   6.337   4.654 -0.3458  0.1375  0.1334
    1DIPC   D3A16231  10.393   6.282   4.567  0.1988 -0.0984 -0.2564
    1DIPC   C4A16232  10.702   6.173   4.836 -0.0034 -0.2553 -0.0474
    1DIPC   C1B16233   9.483   5.985   4.597  0.2070  0.0105 -0.0818
    1DIPC   D2B16234   9.579   6.174   4.996 -0.2047 -0.0840 -0.1801
    1DIPC   D3B16235   9.457   6.579   5.254 -0.1604  0.0498 -0.4884
    1DIPC   C4B16236   9.106   6.633   5.507 -0.0946 -0.0035 -0.0232
    1DIPC   NC316237  17.010   1.875   3.954 -0.2476  0.0553 -0.0499
    1DIPC   PO416238  16.684   2.153   4.176  0.1224  0.1916  0.2413
    1DIPC   GL116239  16.740   2.317   4.583 -0.0064  0.0003 -0.0015
    1DIPC   GL216240  16.973   2.075   4.726 -0.0630  0.2137  0.4008
    1DIPC   C1A16241  16.745   2.354   5.050  0.2807 -0.0433  0.1280
    1DIPC   D2A16242  16.482   2.701   5.330 -0.0498  0.2190  0.3466
    1DIPC   D3A16243  16.802   2.858   5.125 -0.0723  0.3861  0.0896
    1DIPC   C4A16244  17.065   2.656   5.310  0.0006  0.0243 -0.2161
    1DIPC   C1B16245  17.347   2.228   4.670  0.1341  0.2232  0.0378
    1DIPC   D2B16246  17.702   2.149   4.667 -0.1211  0.2508  0.0334
    1DIPC   D3B16247  18.012   2.408   4.661 -0.0216  0.0769 -0.1331
    1DIPC   C4B16248  17.881   2.795   4.708 -0.0400 -0.0402 -0.1025
    1DIPC   NC316249  24.998   3.767   2.864 -0.3322 -0.2440 -0.2334
    1DIPC   PO416250  24.522   3.695   2.806 -0.1487  0.3279  0.1633
    1DIPC   GL116251  24.515   3.761   3.303  0.2451 -0.1286 -0.0643
    1DIPC   GL216252  24.424   4.138   3.264  0.1191  0.1133  0.0210
    1DIPC   C1A16253  24.710   3.541   3.727  0.0594 -0.1758 -0.0674
    1DIPC   D2A16254  25.075   3.657   3.927 -0.2015 -0.0951 -0.2480
    1DIPC   D3A16255  24.950   4.011   4.245 -0.1484  0.0451  0.3866
    1DIPC   C4A16256  24.962   3.892   4.733 -0.3870  0.1929 -0.2960
    1DIPC   C1B16257  24.620   4.079   3.649 -0.1509  0.0760  0.0023
    1DIPC   D2B16258  24.577   4.299   4.101  0.0190  0.0467 -0.0760
    1DIPC   D3B16259  24.889   4.526   4.479  0.0056  0.0015  0.0919
    1DIPC   C4B16260  24.728   4.310   4.888  0.0262  0.4721 -0.1015
    1DIPC   NC316261  18.211  21.897   2.935  0.0989  0.3830  0.1068
    1DIPC   PO416262  17.920  22.202   3.193  0.0786  0.0383 -0.1093
    1DIPC   GL116263  17.918  22.134   3.506  0.1030 -0.1549 -0.2141
    1DIPC   GL216264  17.845  22.322   3.766 -0.1574 -0.0840 -0.2867
    1DIPC   C1A16265  18.196  22.019   3.905  0.1304 -0.3688  0.0255
    1DIPC   D2A16266  18.621  22.150   3.966 -0.0136 -0.1857 -0.0952
    1DIPC   D3A16267  18.723  22.651   3.990  0.0391  0.1594 -0.0718
    1DIPC   C4A16268  18.596  22.914   4.342  0.0898  0.0633 -0.0737
    1DIPC   C1B16269  17.623  22.495   4.088  0.0934 -0.3238 -0.0111
    1DIPC   D2B16270  17.704  22.890   4.295  0.0763 -0.1946  0.1451
    1DIPC   D3B16271  17.801  23.192   4.570  0.1030  0.1413 -0.2970
    1DIPC   C4B16272  18.014  23.149   4.942 -0.0134  0.1875 -0.3343
    1DIPC   NC316273   5.699  28.156   3.577 -0.0893  0.0950 -0.1673
    1DIPC   PO416274   5.359  28.430   3.747  0.0664 -0.3318 -0.1839
    1DIPC   GL116275   5.386  28.698   4.083  0.2767 -0.2240 -0.1640
    1DIPC   GL216276   5.441  28.888   4.085 -0.1511 -0.2215  0.0251
    1DIPC   C1A16277   5.636  28.731   4.512  0.0472  0.0741  0.0623
    1DIPC   D2A16278   6.024  28.806   4.641  0.1985 -0.1603  0.2186
    1DIPC   D3A16279   6.316  28.942   4.808 -0.2844  0.0547 -0.3100
    1DIPC   C4A16280   6.176  28.877   5.248  0.2216  0.1832  0.2880
    1DIPC   C1B16281   5.186  28.948   4.491 -0.0393 -0.4258 -0.0294
    1DIPC   D2B16282   5.113  28.796   4.899 -0.2601 -0.0267 -0.1445
    1DIPC   D3B16283   5.052  28.348   4.667 -0.1841  0.1344 -0.3027
    1DIPC   C4B16284   4.666  28.098   4.599  0.1556  0.2249  0.0415
    1DIPC   NC316285  23.574  21.741   3.350  0.1168  0.2738 -0.0525
    1DIPC   PO416286  23.728  21.284   3.415 -0.0822  0.0309 -0.2596
    1DIPC   GL116287  23.777  20.988   3.747  0.0183  0.2474 -0.0641
    1DIPC   GL216288  23.576  20.988   4.009  0.1594 -0.0459  0.0419
    1DIPC   C1A16289  23.931  20.614   3.845 -0.1222 -0.3334  0.0615
    1DIPC   D2A16290  24.295  20.536   4.141 -0.1665 -0.0873 -0.2274
    1DIPC   D3A16291  24.157  20.199   4.238 -0.1257  0.2237  0.0581
    1DIPC   C4A16292  23.794  20.095   4.143 -0.0314 -0.0760  0.0653
    1DIPC   C1B16293  23.920  21.312   4.062 -0.0107 -0.3119 -0.1055
    1DIPC   D2B16294  24.341  21.535   4.155 -0.3742  0.1464 -0.2627
    1DIPC   D3B16295  23.927  21.776   4.283  0.1478 -0.0933 -0.1170
    1DIPC   C4B16296  24.057  21.953   4.723  0.1492 -0.1583 -0.0436
    1DIPC   NC316297  25.096  18.073   1.886 -0.2044 -0.2253 -0.1910
    1DIPC   PO416298  25.004  17.758   2.324  0.0776 -0.1965 -0.1473
    1DIPC   GL116299  25.183  17.858   2.779 -0.1176 -0.0786 -0.0473
    1DIPC   GL216300  25.001  18.175   2.877  0.0085 -0.1162  0.0605
    1DIPC   C1A16301  25.414  17.886   3.133  0.0928 -0.0167  0.0934
    1DIPC   D2A16302  25.789  17.808   3.410  0.2213  0.1991  0.2722
    1DIPC   D3A16303  25.601  17.891   3.717 -0.1619  0.3738  0.0494
    1DIPC   C4A16304  25.359  18.202   3.554 -0.2267  0.2007  0.0994
    1DIPC   C1B16305  25.148  18.332   3.137  0.1866  0.0445 -0.3090
    1DIPC   D2B16306  24.957  18.475   3.569  0.1127  0.0422  0.0244
    1DIPC   D3B16307  24.620  18.397   3.754 -0.2385  0.1685 -0.1372
    1DIPC   C4B16308  24.250  18.597   3.653 -0.0101 -0.0120 -0.2668
    1DIPC   NC316309  11.699   4.262   4.055  0.2125  0.2250 -0.3167
    1DIPC   PO416310  11.954   3.799   3.964  0.4519 -0.2644  0.1378
    1DIPC   GL116311  11.988   3.996   4.358 -0.0190 -0.0793 -0.2383
    1DIPC   GL216312  12.179   4.017   4.577 -0.2983 -0.1799  0.0901
    1DIPC   C1A16313  11.747   4.094   4.740 -0.3548 -0.0885  0.1002
    1DIPC   D2A16314  11.583   4.305   5.076  0.0343 -0.2635 -0.3640
    1DIPC   D3A16315  11.319   4.008   5.258  0.2912 -0.0462  0.0109
    1DIPC   C4A16316  10.809   4.099   5.337 -0.0096  0.4323  0.3198
    1DIPC   C1B16317  12.314   3.756   4.924  0.3406 -0.0768  0.3276
    1DIPC   D2B16318  12.582   3.454   5.134 -0.0359 -0.0259  0.0217
    1DIPC   D3B16319  12.571   3.499   5.617 -0.0050  0.0000  0.0025
    1DIPC   C4B16320  12.196   3.446   5.792  0.1292  0.0229 -0.1960
    1DIPC   NC316321   9.510   3.191   3.871 -0.1582 -0.0982 -0.0700
    1DIPC   PO416322   9.554   3.369   4.186  0.4107 -0.0957  0.3407
    1DIPC   GL116323   9.965   3.307   4.458  0.0743  0.0842  0.1695
    1DIPC   GL216324  10.141   3.515   4.451  0.3667  0.0711  0.0665
    1DIPC   C1A16325   9.918   3.220   4.917 -0.0164  0.3895 -0.0728
    1DIPC   D2A16326   9.944   2.925   5.156  0.0656  0.2438 -0.0992
    1DIPC   D3A16327   9.623   2.901   5.539  0.2128 -0.1056 -0.2974
    1DIPC   C4A16328   9.602   2.759   5.948  0.3553  0.2317  0.0512
    1DIPC   C1B16329   9.871   3.724   4.863 -0.2456 -0.0591  0.2383
    1DIPC   D2B16330   9.981   4.062   5.060  0.1227  0.3701 -0.1178
    1DIPC   D3B16331   9.737   4.004   5.363  0.1727 -0.0657 -0.0071
    1DIPC   C4B16332   9.241   3.929   5.213  0.0079  0.0180  0.0991
    1DIPC   NC316333  26.823   1.664   3.274 -0.1179 -0.1072 -0.2721
    1DIPC   PO416334  26.372   1.688   3.299  0.0306  0.0170 -0.1307
    1DIPC   GL116335  26.160   1.788   3.668  0.2711  0.0191  0.1375
    1DIPC   GL216336  26.482   1.699   3.811  0.4217 -0.0854 -0.0614
    1DIPC   C1A16337  25.967   1.753   4.124 -0.0782  0.2083 -0.1709
    1DIPC   D2A16338  25.568   1.888   4.347  0.4751  0.1742  0.0789
    1DIPC   D3A16339  25.458   1.539   4.091 -0.2139 -0.1694  0.1253
    1DIPC   C4A16340  25.175   1.261   4.071 -0.0735 -0.2009 -0.2589
    1DIPC   C1B16341  26.406   2.015   4.083  0.1681 -0.0063 -0.1885
    1DIPC   D2B16342  26.121   2.173   4.363  0.1704 -0.2489  0.1878
    1DIPC   D3B16343  26.153   1.802   4.620 -0.0967  0.0812 -0.1872
    1DIPC   C4B16344  26.315   1.787   4.904  0.2912  0.2302  0.2725
    1DIPC   NC316345  21.730   5.838   3.571 -0.2762 -0.1392  0.1236
    1DIPC   PO416346  21.429   5.430   3.731  0.0557 -0.0242 -0.0904
    1DIPC   GL116347  21.426   5.389   4.098 -0.1053 -0.3177 -0.4658
    1DIPC   GL216348  21.552   5.563   4.339  0.2308  0.3941  0.0924
    1DIPC   C1A16349  21.402   5.007   4.444  0.0904 -0.3208 -0.1767
    1DIPC   D2A16350  21.400   5.169   4.901 -0.3111  0.0181  0.2582
    1DIPC   D3A16351  21.327   4.705   4.983  0.1764 -0.0077 -0.3093
    1DIPC   C4A16352  21.301   4.543   5.487  0.1317 -0.1502 -0.0223
    1DIPC   C1B16353  21.761   5.471   4.692 -0.1701  0.1041 -0.4211
    1DIPC   D2B16354  21.630   5.511   5.132 -0.0981  0.0406 -0.4083
    1DIPC   D3B16355  21.580   5.971   5.267  0.2704  0.0352 -0.2400
    1DIPC   C4B16356  21.706   6.083   5.655 -0.3102 -0.1168 -0.1958
    1DIPC   NC316357  28.431  21.508   2.305 -0.4134 -0.2068 -0.2227
    1DIPC   PO416358  28.182  21.238   2.527  0.0792 -0.2227  0.1636
    1DIPC   GL116359  28.287  21.215   3.029 -0.0128 -0.2069  0.1899
    1DIPC   GL216360  28.306  21.570   3.174  0.0381 -0.2260 -0.2589
    1DIPC   C1A16361  28.635  21.177   3.324 -0.0661 -0.2717  0.0110
    1DIPC   D2A16362  28.899  21.245   3.612  0.0330  0.3512 -0.0465
    1DIPC   D3A16363  28.913  21.265   4.026 -0.2100  0.0816 -0.0523
    1DIPC   C4A16364  29.115  21.011   4.215  0.0834  0.0698 -0.4637
    1DIPC   C1B16365  28.570  21.908   3.120  0.1145 -0.3544 -0.1250
    1DIPC   D2B16366  28.727  22.276   3.188  0.1337 -0.0793  0.1596
    1DIPC   D3B16367  28.933  22.257   3.560  0.2582 -0.1053  0.0997
    1DIPC   C4B16368  29.298  22.078   3.540  0.1503 -0.3552  0.0019
    1DIPC   NC316369  25.566   7.504   2.848 -0.2301  0.4687 -0.2123
    1DIPC   PO416370  25.133   7.455   2.902  0.1556 -0.1211 -0.0184
    1DIPC   GL116371  25.125   7.485   3.310  0.6435  0.2717 -0.1206
    1DIPC   GL216372  24.834   7.254   3.355  0.1592  0.0041  0.0695
    1DIPC   C1A16373  25.187   7.510   3.732  0.1843  0.3219  0.2624
    1DIPC   D2A16374  25.296   7.688   4.129 -0.1877  0.3673  0.2226
    1DIPC   D3A16375  25.575   7.394   4.311  0.0742  0.4808  0.1401
    1DIPC   C4A16376  25.972   7.531   4.533  0.3849  0.1544  0.1506
    1DIPC   C1B16377  24.703   6.789   3.455  0.0679 -0.5925 -0.0697
    1DIPC   D2B16378  24.243   6.797   3.301  0.2427 -0.0186  0.1477
    1DIPC   D3B16379  24.386   6.428   3.561  0.1191  0.2239 -0.1245
    1DIPC   C4B16380  24.619   6.109   3.778  0.2997 -0.1603 -0.2813
    1DIPC   NC316381   5.001   4.930   2.909 -0.2320 -0.0452  0.4139
    1DIPC   PO416382   4.883   4.616   3.182  0.2375  0.0956  0.3379
    1DIPC   GL116383   4.753   4.572   3.477  0.1002 -0.0510 -0.1144
    1DIPC   GL216384   4.458   4.584   3.398  0.0989 -0.0207 -0.4169
    1DIPC   C1A16385   4.809   4.722   3.904  0.0592  0.3557  0.2235
    1DIPC   D2A16386   4.733   4.864   4.353  0.0045  0.2489 -0.3693
    1DIPC   D3A16387   4.739   4.653   4.678  0.0193  0.2207 -0.0477
    1DIPC   C4A16388   4.692   4.850   5.142 -0.2471  0.2546 -0.1376
    1DIPC   C1B16389   4.261   4.660   3.796  0.0917 -0.2076 -0.1859
    1DIPC   D2B16390   4.257   4.682   4.294  0.0252  0.1242  0.0260
    1DIPC   D3B16391   3.993   4.379   4.122  0.2216  0.3653 -0.1198
    1DIPC   C4B16392   3.898   4.005   4.274  0.3430 -0.0364 -0.0860
    1DIPC   NC316393  11.357  26.766   2.487  0.1885 -0.0129  0.0335
    1DIPC   PO416394  11.283  26.670   2.866  0.0384 -0.0860 -0.1942
    1DIPC   GL116395  11.154  26.554   3.367 -0.1767 -0.0775  0.0382
    1DIPC   GL216396  11.455  26.405   3.481 -0.0618 -0.0029  0.0436
    1DIPC   C1A16397  10.808  26.448   3.779 -0.2931  0.1983  0.1784
    1DIPC   D2A16398  10.598  26.412   4.184 -0.2307 -0.1594 -0.1050
    1DIPC   D3A16399  10.194  26.142   4.143 -0.1711  0.0563  0.1641
    1DIPC   C4A16400  10.168  26.005   3.799 -0.1103  0.0972  0.3899
    1DIPC   C1B16401  11.244  26.165   3.767 -0.4084 -0.1332 -0.2077
    1DIPC   D2B16402  11.078  26.039   4.239  0.0803  0.2372 -0.1149
    1DIPC   D3B16403  11.391  25.860   4.412  0.0122  0.1489  0.1775
    1DIPC   C4B16404  11.480  25.686   4.063 -0.0594  0.1459 -0.0895
    1DIPC   NC316405  27.381  28.646   3.044  0.1771  0.0168  0.2129
    1DIPC   PO416406  27.518  28.289   3.262  0.1715 -0.1102 -0.0478
    1DIPC   GL116407  27.937  28.395   3.617 -0.0329 -0.1091 -0.2644
    1DIPC   GL216408  27.822  28.721   3.710  0.1370 -0.2975  0.1008
    1DIPC   C1A16409  27.791  28.523   4.126  0.0764 -0.1088 -0.2628
    1DIPC   D2A16410  27.609  28.790   4.509  0.2302 -0.1055  0.0613
    1DIPC   D3A16411  27.816  28.741   4.846  0.1677 -0.0581  0.1271
    1DIPC   C4A16412  27.819  28.470   5.139 -0.1811  0.2154 -0.0838
    1DIPC   C1B16413  27.936  29.017   4.112 -0.1958  0.0096  0.3976
    1DIPC   D2B16414  27.979  29.140   4.487  0.3267  0.3370  0.0009
    1DIPC   D3B16415  28.285  29.026   4.822  0.1893  0.2245  0.0119
    1DIPC   C4B16416  28.764  28.988   4.791  0.0718  0.1914 -0.2484
    1DIPC   NC316417  24.336  14.620   2.563 -0.0716 -0.1621  0.1018
    1DIPC   PO416418  24.189  14.474   2.934  0.0603 -0.1210  0.0773
    1DIPC   GL116419  23.977  14.116   3.205  0.0028 -0.1362 -0.0730
    1DIPC   GL216420  23.557  14.186   3.296  0.0929  0.2377 -0.1250
    1DIPC   C1A16421  23.908  14.022   3.699  0.2240 -0.2560  0.1857
    1DIPC   D2A16422  24.231  13.815   3.932  0.0366 -0.1673  0.1594
    1DIPC   D3A16423  24.404  13.951   3.574 -0.0479  0.2490  0.0138
    1DIPC   C4A16424  24.789  13.766   3.429  0.2778  0.1991 -0.1271
    1DIPC   C1B16425  23.691  14.530   3.627 -0.1316 -0.0977 -0.1964
    1DIPC   D2B16426  23.766  14.930   3.777  0.3206 -0.3183 -0.1576
    1DIPC   D3B16427  23.487  15.284   4.022  0.2357 -0.0763 -0.0423
    1DIPC   C4B16428  23.550  15.571   4.235 -0.4224  0.1539 -0.0218
    1DIPC   NC316429   1.460   1.423   3.200  0.0505  0.1223 -0.0925
    1DIPC   PO416430   1.082   1.477   3.156  0.0826 -0.0196  0.3308
    1DIPC   GL116431   1.049   1.317   3.525 -0.0921  0.0004  0.0294
    1DIPC   GL216432   1.227   0.921   3.438 -0.0659 -0.1224 -0.1153
    1DIPC   C1A16433   0.869   1.579   3.876  0.2763 -0.0414 -0.0626
    1DIPC   D2A16434   0.558   1.827   4.257 -0.1461  0.1246  0.0150
    1DIPC   D3A16435   0.684   2.251   4.241  0.0279 -0.0188  0.2233
    1DIPC   C4A16436   0.949   2.311   4.540 -0.2712  0.0860  0.2969
    1DIPC   C1B16437   1.509   1.020   3.716  0.0471  0.1377  0.0988
    1DIPC   D2B16438   1.483   1.475   3.705 -0.0964  0.1493  0.0777
    1DIPC   D3B16439   1.302   1.390   4.079  0.2351  0.0321 -0.0797
    1DIPC   C4B16440   1.054   1.000   3.972  0.0584 -0.2860  0.0404
    1DIPC   NC316441   5.145  25.686   2.484  0.0810 -0.1830  0.1431
    1DIPC   PO416442   5.419  26.029   2.779 -0.0702 -0.0166  0.0054
    1DIPC   GL116443   5.754  25.816   3.115  0.2522 -0.0271  0.1185
    1DIPC   GL216444   5.949  25.451   2.979 -0.2079  0.2583 -0.0285
    1DIPC   C1A16445   5.866  25.665   3.508  0.0234 -0.2153  0.1938
    1DIPC   D2A16446   6.030  25.453   3.926 -0.2286  0.0973 -0.0812
    1DIPC   D3A16447   6.338  25.166   3.940  0.3094  0.1386  0.0462
    1DIPC   C4A16448   6.262  24.802   4.216 -0.1191 -0.1397 -0.2296
    1DIPC   C1B16449   6.040  25.200   3.413 -0.0955  0.1803 -0.1406
    1DIPC   D2B16450   6.031  24.810   3.777 -0.1650  0.1697  0.2836
    1DIPC   D3B16451   6.089  24.406   3.854  0.3321 -0.0962  0.0972
    1DIPC   C4B16452   6.086  24.179   4.217  0.0482 -0.0268 -0.2914
    1DIPC   NC316453   0.856  16.072   2.366  0.1901  0.0595 -0.2615
    1DIPC   PO416454   0.887  15.623   2.571  0.1213 -0.0505  0.1727
    1DIPC   GL116455   0.640  15.866   2.830 -0.1604  0.1768 -0.0354
    1DIPC   GL216456   0.805  15.719   3.074 -0.0788  0.1839 -0.1219
    1DIPC   C1A16457   0.260  15.738   3.184  0.0351 -0.1450 -0.0665
    1DIPC   D2A16458   0.013  15.653   3.496 -0.1262  0.4009  0.0793
    1DIPC   D3A16459   0.232  15.645   3.892  0.1158  0.0976 -0.0652
    1DIPC   C4A16460   0.317  15.996   4.160 -0.3151 -0.0838  0.1691
    1DIPC   C1B16461   0.670  15.456   3.492  0.0369 -0.0208  0.0205
    1DIPC   D2B16462   0.774  15.675   3.908 -0.0108  0.4362  0.1148
    1DIPC   D3B16463   1.155  15.646   3.771 -0.0988  0.0492  0.0864
    1DIPC   C4B16464   1.253  15.527   3.291  0.1779 -0.0988 -0.0976
    1DIPC   NC316465  27.009  18.007   2.735  0.0964  0.1400 -0.3663
    1DIPC   PO416466  26.840  17.830   2.363 -0.0562 -0.0730  0.1533
    1DIPC   GL116467  26.648  17.543   2.747  0.2433 -0.0571  0.1804
    1DIPC   GL216468  26.752  17.281   2.926 -0.0808 -0.1797  0.1026
    1DIPC   C1A16469  26.414  17.717   3.069 -0.4266 -0.1282  0.0189
    1DIPC   D2A16470  26.374  17.620   3.498 -0.2085 -0.0331 -0.0741
    1DIPC   D3A16471  26.279  17.697   3.900  0.0308 -0.0491 -0.1447
    1DIPC   C4A16472  26.206  17.509   4.285 -0.1252 -0.1118 -0.1040
    1DIPC   C1B16473  26.804  17.370   3.329 -0.1277  0.0151 -0.0388
    1DIPC   D2B16474  26.771  17.444   3.707  0.2466  0.2169 -0.0719
    1DIPC   D3B16475  26.760  16.971   3.645 -0.0023 -0.1378  0.0506
    1DIPC   C4B16476  26.524  16.670   3.894 -0.1820  0.1407  0.0146
    1DIPC   NC316477   6.608   7.624   3.640  0.0205 -0.2974 -0.2459
    1DIPC   PO416478   6.339   7.332   3.446 -0.0164 -0.1996 -0.3108
    1DIPC   GL116479   6.086   7.505   3.766 -0.1519 -0.0298  0.2842
    1DIPC   GL216480   6.317   7.805   3.986  0.1642 -0.0142  0.1692
    1DIPC   C1A16481   5.898   7.975   3.779  0.0460  0.1016 -0.1653
    1DIPC   D2A16482   5.548   8.206   3.930 -0.0028 -0.0810 -0.0370
    1DIPC   D3A16483   5.171   8.170   4.119 -0.0056 -0.2073 -0.1671
    1DIPC   C4A16484   4.943   7.857   4.228  0.0553  0.1369  0.0142
    1DIPC   C1B16485   6.281   7.915   4.421  0.2588  0.0015  0.1408
    1DIPC   D2B16486   5.923   7.919   4.707 -0.0956 -0.2092  0.0123
    1DIPC   D3B16487   6.155   8.073   5.066 -0.3519  0.2630  0.1026
    1DIPC   C4B16488   6.127   8.547   5.205 -0.0575  0.1045 -0.1799
    1DIPC   NC316489  27.572   3.179   3.165  0.2068  0.3129 -0.2018
    1DIPC   PO416490  27.997   2.996   2.865 -0.3268  0.0433 -0.2088
    1DIPC   GL116491  28.304   3.038   3.153  0.2786 -0.2097 -0.2378
    1DIPC   GL216492  28.074   3.047   3.340 -0.0467 -0.0712 -0.1735
    1DIPC   C1A16493  28.640   3.087   3.516  0.2423  0.0655  0.0993
    1DIPC   D2A16494  28.725   3.379   3.845  0.1517 -0.0748 -0.0618
    1DIPC   D3A16495  28.783   2.976   4.026 -0.2500  0.1437 -0.0729
    1DIPC   C4A16496  29.048   2.898   4.367 -0.0532 -0.0284  0.4059
    1DIPC   C1B16497  27.905   2.844   3.699 -0.1111  0.0196  0.0981
    1DIPC   D2B16498  27.451   2.999   3.734  0.1887  0.0029 -0.3367
    1DIPC   D3B16499  27.055   2.723   3.775  0.1892  0.1530  0.1573
    1DIPC   C4B16500  27.081   2.449   4.168 -0.1001 -0.0750  0.0555
    1DIPC   NC316501  26.910  16.827   2.575  0.0852  0.0207  0.1817
    1DIPC   PO416502  26.539  16.747   2.775  0.2068  0.0196 -0.3269
    1DIPC   GL116503  26.475  16.323   3.022  0.1803  0.1366  0.2129
    1DIPC   GL216504  26.209  16.259   3.278 -0.1075  0.3876  0.0422
    1DIPC   C1A16505  26.715  15.907   3.133  0.1765  0.1722  0.0888
    1DIPC   D2A16506  26.664  15.478   2.943 -0.0843 -0.0784 -0.0178
    1DIPC   D3A16507  26.498  15.069   3.180 -0.1900  0.3444 -0.1987
    1DIPC   C4A16508  26.764  14.813   2.939 -0.1628  0.0528 -0.0942
    1DIPC   C1B16509  26.397  16.629   3.407  0.1568 -0.4607 -0.0204
    1DIPC   D2B16510  26.392  17.096   3.254 -0.0796  0.1287 -0.0598
    1DIPC   D3B16511  26.807  16.779   3.207  0.1779  0.2088  0.0187
    1DIPC   C4B16512  26.993  16.591   3.471  0.0777 -0.0258 -0.0184
    1DIPC   NC316513  14.582   3.712   3.751 -0.1514  0.3239  0.0106
    1DIPC   PO416514  14.510   4.077   3.996  0.2035 -0.0850  0.0007
    1DIPC   GL116515  14.599   4.303   4.443 -0.2197 -0.0314  0.2375
    1DIPC   GL216516  14.409   4.078   4.594  0.0117 -0.0224  0.0574
    1DIPC   C1A16517  14.814   4.588   4.652 -0.0048 -0.1697 -0.0005
    1DIPC   D2A16518  15.028   4.994   4.759 -0.1990 -0.0520 -0.1872
    1DIPC   D3A16519  14.830   5.272   4.859 -0.1190 -0.0524  0.2346
    1DIPC   C4A16520  14.444   5.565   4.809 -0.0193 -0.0232  0.0816
    1DIPC   C1B16521  14.541   3.773   4.890 -0.1245 -0.1715 -0.1707
    1DIPC   D2B16522  14.864   3.575   5.164  0.1491  0.3907 -0.0731
    1DIPC   D3B16523  14.958   3.915   5.132 -0.4242 -0.4762 -0.0967
    1DIPC   C4B16524  14.991   4.117   4.746  0.0174 -0.0532  0.3962
    1DIPC   NC316525  20.412   8.534   3.358  0.0929  0.1783 -0.2864
    1DIPC   PO416526  19.935   8.654   3.177 -0.0587 -0.0789 -0.1494
    1DIPC   GL116527  19.856   8.749   3.568 -0.0883 -0.0895 -0.0352
    1DIPC   GL216528  20.227   8.948   3.802  0.0865 -0.1127  0.1327
    1DIPC   C1A16529  19.501   8.716   3.996 -0.0513 -0.1993  0.0088
    1DIPC   D2A16530  19.411   8.650   4.403  0.1301  0.0467 -0.0584
    1DIPC   D3A16531  19.662   8.845   4.723  0.0429  0.0692  0.2508
    1DIPC   C4A16532  20.075   8.960   4.538  0.1711  0.0019 -0.0864
    1DIPC   C1B16533  19.968   9.061   4.055 -0.2015  0.0146  0.2018
    1DIPC   D2B16534  19.566   9.162   4.360 -0.0505  0.0451 -0.0091
    1DIPC   D3B16535  19.169   9.348   4.372 -0.1402  0.3196 -0.1441
    1DIPC   C4B16536  18.880   9.074   4.643  0.0659  0.1600  0.2656
    1DIPC   NC316537   6.998  15.826   1.950 -0.4158  0.0355 -0.2396
    1DIPC   PO416538   7.099  15.835   2.279 -0.0707  0.2783  0.1608
    1DIPC   GL116539   7.194  15.678   2.631 -0.0065 -0.2921 -0.1885
    1DIPC   GL216540   7.435  15.782   2.850  0.1786 -0.1128  0.0427
    1DIPC   C1A16541   7.011  15.591   2.981 -0.1587  0.1491  0.2522
    1DIPC   D2A16542   6.782  15.745   3.332 -0.0875  0.0190  0.3553
    1DIPC   D3A16543   7.096  15.763   3.597  0.1882  0.0624  0.0635
    1DIPC   C4A16544   6.884  15.896   4.020  0.0915 -0.0728 -0.3212
    1DIPC   C1B16545   7.502  15.683   3.318 -0.0107 -0.2607 -0.0601
    1DIPC   D2B16546   7.687  15.752   3.746 -0.1507  0.1760 -0.4095
    1DIPC   D3B16547   7.464  15.436   3.948  0.0634  0.4635 -0.2777
    1DIPC   C4B16548   7.230  15.630   4.332 -0.0583  0.1469  0.2320
    1DIPC   NC316549   6.924   4.639   3.575 -0.0967  0.3662 -0.1912
    1DIPC   PO416550   6.952   5.101   3.550  0.1313  0.0005 -0.0085
    1DIPC   GL116551   6.807   5.235   3.870  0.1732 -0.2911 -0.0327
    1DIPC   GL216552   6.930   5.437   4.061 -0.1363  0.0530  0.1643
    1DIPC   C1A16553   6.787   5.086   4.341 -0.0439  0.1664  0.1444
    1DIPC   D2A16554   6.719   4.926   4.733 -0.3501  0.0627 -0.1831
    1DIPC   D3A16555   6.903   4.956   5.097  0.1314 -0.2173  0.1004
    1DIPC   C4A16556   6.869   5.341   5.355 -0.1275 -0.1205 -0.0074
    1DIPC   C1B16557   7.230   5.290   4.306 -0.0942  0.0407  0.1459
    1DIPC   D2B16558   7.591   5.131   4.418 -0.0079  0.0375 -0.1652
    1DIPC   D3B16559   7.284   5.079   4.704 -0.0392 -0.0431  0.2969
    1DIPC   C4B16560   7.405   4.906   5.122 -0.1956  0.1348  0.3476
    1DIPC   NC316561  27.533  11.564   2.039  0.2005  0.0034  0.0699
    1DIPC   PO416562  27.671  11.992   2.230  0.0491 -0.1721 -0.2353
    1DIPC   GL116563  27.694  11.996   2.709  0.2254  0.1204  0.1856
    1DIPC   GL216564  27.511  11.805   2.974 -0.3943 -0.1116 -0.1129
    1DIPC   C1A16565  27.633  12.260   3.098 -0.0959  0.3991  0.3630
    1DIPC   D2A16566  27.478  12.232   3.438 -0.1358  0.3947 -0.1683
    1DIPC   D3A16567  27.575  12.580   3.690 -0.3038 -0.0815  0.0061
    1DIPC   C4A16568  28.032  12.557   3.937 -0.2712 -0.0039  0.2897
    1DIPC   C1B16569  27.055  11.853   3.030 -0.2340  0.1304 -0.1048
    1DIPC   D2B16570  26.723  12.052   3.226  0.0321 -0.2480 -0.0568
    1DIPC   D3B16571  26.987  11.978   3.541  0.0452  0.0834  0.0124
    1DIPC   C4B16572  27.148  12.317   3.868 -0.2286  0.1627 -0.0771
    1DIPC   NC316573   2.731  11.925   2.768 -0.4674  0.1568 -0.4235
    1DIPC   PO416574   2.296  11.836   2.836 -0.1229  0.1434 -0.2964
    1DIPC   GL116575   2.423  12.047   3.275  0.1119  0.1182  0.0683
    1DIPC   GL216576   2.384  12.338   3.330  0.1869  0.0817 -0.0806
    1DIPC   C1A16577   2.357  12.005   3.790 -0.1428  0.1115  0.1075
    1DIPC   D2A16578   2.157  11.724   4.143  0.2930  0.0234  0.4460
    1DIPC   D3A16579   2.663  11.635   4.231 -0.2729  0.1426 -0.1753
    1DIPC   C4A16580   2.819  11.281   4.095  0.0804 -0.1635  0.1621
    1DIPC   C1B16581   2.132  12.769   3.148  0.2162  0.1088  0.0167
    1DIPC   D2B16582   1.836  13.015   3.195  0.0880  0.0093 -0.0199
    1DIPC   D3B16583   1.708  12.659   3.431  0.2452  0.1309 -0.1774
    1DIPC   C4B16584   1.263  12.752   3.422  0.0955  0.1102  0.0369
    1DIPC   NC316585  10.311  27.519   2.894 -0.0593 -0.2233  0.0554
    1DIPC   PO416586  10.592  27.339   3.202  0.1280  0.0266  0.0444
    1DIPC   GL116587  10.757  27.295   3.622  0.2497 -0.2209 -0.0033
    1DIPC   GL216588  10.629  27.548   3.712 -0.6171  0.1844 -0.1685
    1DIPC   C1A16589  10.884  27.136   3.992  0.3291 -0.4139 -0.0669
    1DIPC   D2A16590  10.606  26.966   4.300 -0.2417  0.2712  0.3515
    1DIPC   D3A16591  10.675  27.113   4.742  0.0594  0.0421  0.2013
    1DIPC   C4A16592  10.374  26.944   5.072 -0.2587 -0.0558  0.0604
    1DIPC   C1B16593  10.545  27.619   4.150  0.0158 -0.0739  0.0285
    1DIPC   D2B16594  10.351  27.537   4.559  0.0223 -0.4619 -0.1272
    1DIPC   D3B16595  10.333  27.544   4.959  0.1590 -0.0203  0.2752
    1DIPC   C4B16596  10.269  28.013   5.052 -0.3933  0.2675  0.1673
    1DIPC   NC316597   3.511   9.987   2.901  0.1656  0.2292  0.2772
    1DIPC   PO416598   3.862  10.231   2.935  0.0918  0.0234  0.1763
    1DIPC   GL116599   3.580  10.593   3.245  0.1725 -0.1584 -0.1648
    1DIPC   GL216600   3.440  10.275   3.307  0.2954  0.0646  0.1493
    1DIPC   C1A16601   3.634  10.659   3.653  0.1855  0.2082  0.0105
    1DIPC   D2A16602   3.873  10.503   4.070  0.1102 -0.1545 -0.2648
    1DIPC   D3A16603   3.481  10.687   4.146  0.1008  0.0186 -0.0366
    1DIPC   C4A16604   3.154  10.449   4.149 -0.1861  0.1757  0.2313
    1DIPC   C1B16605   3.644  10.157   3.732  0.1928 -0.1091  0.2411
    1DIPC   D2B16606   3.531  10.060   4.157  0.1850  0.1246 -0.3208
    1DIPC   D3B16607   3.101   9.840   4.210 -0.1934 -0.1563 -0.1861
    1DIPC   C4B16608   2.807  10.069   4.054  0.1067 -0.2145 -0.0931
    1DIPC   NC316609   7.275  22.986   2.318  0.1346  0.0864 -0.1131
    1DIPC   PO416610   7.257  23.453   2.375 -0.2419  0.0293  0.3038
    1DIPC   GL116611   7.074  23.227   2.719  0.0988 -0.0179  0.1049
    1DIPC   GL216612   7.432  23.011   2.800  0.0667  0.1102 -0.0678
    1DIPC   C1A16613   6.779  22.939   2.993 -0.1286 -0.1707  0.2238
    1DIPC   D2A16614   6.790  22.621   3.316  0.0558 -0.0244  0.3590
    1DIPC   D3A16615   6.881  22.517   3.685 -0.0907 -0.2565  0.1374
    1DIPC   C4A16616   7.017  22.186   3.893 -0.1792 -0.0070  0.1361
    1DIPC   C1B16617   7.559  23.251   3.113  0.1119 -0.1067 -0.1164
    1DIPC   D2B16618   7.426  23.214   3.544 -0.1289  0.3606 -0.1877
    1DIPC   D3B16619   7.081  22.994   3.719 -0.0399  0.1446 -0.2772
    1DIPC   C4B16620   6.681  23.070   3.612  0.2483 -0.2064 -0.0903
    1DIPC   NC316621  11.482   0.255   3.553 -0.1663  0.0917  0.0893
    1DIPC   PO416622  10.988   0.313   3.461 -0.2857  0.0756  0.0851
    1DIPC   GL116623  10.967   0.245   3.897  0.1063  0.2764 -0.2279
    1DIPC   GL216624  10.940   0.536   4.113  0.0783  0.0876  0.1283
    1DIPC   C1A16625  10.942  -0.218   4.086 -0.0515  0.1609  0.0090
    1DIPC   D2A16626  10.881  -0.651   4.199  0.0286 -0.0011 -0.1789
    1DIPC   D3A16627  10.730  -0.763   4.683  0.1799 -0.3102  0.0642
    1DIPC   C4A16628  10.773  -0.534   5.086 -0.0971  0.1384  0.0365
    1DIPC   C1B16629  11.017   0.289   4.381  0.3464 -0.0029 -0.2216
    1DIPC   D2B16630  11.019  -0.126   4.538  0.0498 -0.1305  0.0014
    1DIPC   D3B16631  11.304  -0.153   4.801  0.0096 -0.0528 -0.1268
    1DIPC   C4B16632  11.229  -0.387   5.184 -0.0407  0.0109  0.2361
    1DIPC   NC316633  15.230  27.716   3.889 -0.2546 -0.0183  0.0898
    1DIPC   PO416634  15.220  27.357   3.919  0.0524  0.0700 -0.0301
    1DIPC   GL116635  15.597  27.462   4.162 -0.0615 -0.3178 -0.1095
    1DIPC   GL216636  15.555  27.670   4.361  0.0527  0.0383  0.1647
    1DIPC   C1A16637  15.913  27.327   4.518  0.0312 -0.2591  0.0045
    1DIPC   D2A16638  16.069  27.578   4.853 -0.1088  0.2258  0.0754
    1DIPC   D3A16639  15.638  27.467   4.971 -0.1559  0.0712 -0.0041
    1DIPC   C4A16640  15.287  27.159   5.036  0.2077 -0.2225  0.1360
    1DIPC   C1B16641  15.231  27.541   4.736 -0.0715 -0.0598 -0.0553
    1DIPC   D2B16642  14.806  27.420   4.932 -0.1609 -0.0657  0.1395
    1DIPC   D3B16643  14.742  27.350   5.279 -0.0699  0.0016  0.0128
    1DIPC   C4B16644  14.977  27.023   5.412  0.2996  0.1694  0.0356
    1DIPC   NC316645   3.453  16.556   2.482  0.1503  0.1671 -0.0077
    1DIPC   PO416646   2.995  16.630   2.610 -0.2046 -0.0500  0.1490
    1DIPC   GL116647   2.930  16.953   2.872 -0.3771  0.0345 -0.1131
    1DIPC   GL216648   2.692  17.260   3.041  0.0248 -0.2579 -0.0667
    1DIPC   C1A16649   3.220  17.155   3.151  0.1531 -0.1052  0.2659
    1DIPC   D2A16650   3.664  17.068   3.279  0.0867 -0.2392  0.0706
    1DIPC   D3A16651   3.498  16.653   3.507 -0.0590  0.0576 -0.2153
    1DIPC   C4A16652   3.120  16.592   3.808  0.3386  0.0667 -0.2042
    1DIPC   C1B16653   2.878  17.305   3.480 -0.1993  0.0866 -0.0132
    1DIPC   D2B16654   3.082  17.124   3.696 -0.0722  0.0246 -0.0855
    1DIPC   D3B16655   2.950  16.769   3.356 -0.1895 -0.0283 -0.1654
    1DIPC   C4B16656   2.531  16.872   3.290  0.0627  0.1034  0.0400
    1DIPC   NC316657  13.346  23.229   3.292 -0.1699  0.0851 -0.2031
    1DIPC   PO416658  13.015  23.019   3.511 -0.3831  0.0474 -0.0607
    1DIPC   GL116659  12.987  22.812   3.890 -0.0825  0.2097 -0.2469
    1DIPC   GL216660  13.039  23.019   4.122  0.1231 -0.5180 -0.0540
    1DIPC   C1A16661  12.808  22.479   4.187  0.0061  0.0789 -0.1040
    1DIPC   D2A16662  12.808  22.242   4.587  0.3306  0.2059  0.1974
    1DIPC   D3A16663  12.908  21.769   4.674  0.1848 -0.3737  0.2567
    1DIPC   C4A16664  13.223  21.641   4.419  0.0770  0.3684  0.0646
    1DIPC   C1B16665  12.701  22.976   4.375  0.0492 -0.1054 -0.0299
    1DIPC   D2B16666  12.251  22.883   4.220  0.1224 -0.4060 -0.2176
    1DIPC   D3B16667  12.298  22.984   4.644 -0.2118 -0.2143  0.0020
    1DIPC   C4B16668  12.056  22.893   4.984 -0.0721 -0.1096  0.4495
    1DIPC   NC316669   5.102   7.508   3.447 -0.1204 -0.1128  0.1212
    1DIPC   PO416670   5.296   7.904   3.543 -0.2470  0.4286 -0.0839
    1DIPC   GL116671   4.912   7.909   3.739 -0.0687  0.4933 -0.1961
    1DIPC   GL216672   4.761   8.226   3.808  0.3282 -0.0667  0.1420
    1DIPC   C1A16673   4.475   7.723   3.901  0.0920 -0.1150  0.0583
    1DIPC   D2A16674   4.227   7.543   4.080 -0.0382  0.0862  0.2229
    1DIPC   D3A16675   3.808   7.772   4.206 -0.0904  0.0760 -0.0846
    1DIPC   C4A16676   3.786   8.173   4.289  0.2651 -0.0620  0.1355
    1DIPC   C1B16677   4.671   8.379   4.164  0.0592 -0.0957 -0.0979
    1DIPC   D2B16678   4.876   8.477   4.509  0.3520 -0.1368 -0.2533
    1DIPC   D3B16679   4.582   8.145   4.733  0.0578 -0.1227  0.2059
    1DIPC   C4B16680   4.205   8.192   5.094  0.2986  0.1077  0.0574
    1DIPC   NC316681  26.082  21.510   2.866  0.3256 -0.2093  0.0229
    1DIPC   PO416682  26.139  21.579   3.339 -0.1238  0.0791  0.0254
    1DIPC   GL116683  26.366  21.308   3.584 -0.2826 -0.0714 -0.1446
    1DIPC   GL216684  26.129  21.240   3.740  0.0827  0.3737  0.1133
    1DIPC   C1A16685  26.545  21.204   3.987 -0.1965 -0.2235  0.4698
    1DIPC   D2A16686  26.504  21.406   4.457 -0.0514  0.1991 -0.0286
    1DIPC   D3A16687  26.800  20.974   4.415  0.0706  0.2935  0.1640
    1DIPC   C4A16688  27.025  20.672   4.626  0.0451 -0.2143  0.5022
    1DIPC   C1B16689  25.694  21.187   3.894 -0.2613 -0.0666  0.0589
    1DIPC   D2B16690  25.318  21.419   3.784  0.1111 -0.0239  0.1478
    1DIPC   D3B16691  25.276  21.270   4.130  0.4024  0.1261  0.0493
    1DIPC   C4B16692  24.968  21.533   4.195  0.2095 -0.0667 -0.0343
    1DIPC   NC316693  21.823  24.318   3.238  0.1678  0.0647  0.0633
    1DIPC   PO416694  21.419  24.332   3.411  0.3858  0.0282 -0.0244
    1DIPC   GL116695  21.691  24.209   3.735 -0.1087 -0.1195  0.1358
    1DIPC   GL216696  21.937  24.335   3.708 -0.1194 -0.1619  0.0594
    1DIPC   C1A16697  21.915  23.843   3.969  0.2194 -0.0068 -0.1631
    1DIPC   D2A16698  21.920  23.451   4.243 -0.0914  0.0153 -0.1459
    1DIPC   D3A16699  22.287  23.764   4.358 -0.3019  0.0928 -0.2199
    1DIPC   C4A16700  22.609  23.927   4.195  0.1064 -0.1996 -0.1196
    1DIPC   C1B16701  22.322  24.085   3.763  0.1779  0.1848  0.4238
    1DIPC   D2B16702  22.641  23.883   3.466  0.1053  0.0121 -0.1708
    1DIPC   D3B16703  22.881  23.801   3.741  0.0029  0.0048 -0.0385
    1DIPC   C4B16704  23.058  24.103   3.938 -0.0344 -0.2999  0.2250
    1DIPC   NC316705  25.692   8.841   2.932 -0.1421  0.0490 -0.2456
    1DIPC   PO416706  25.417   8.504   3.133 -0.2140  0.0978  0.2924
    1DIPC   GL116707  25.549   8.216   3.407  0.3468  0.0063  0.1647
    1DIPC   GL216708  25.518   7.760   3.365 -0.2378 -0.1039 -0.2136
    1DIPC   C1A16709  25.260   8.097   3.793  0.0889 -0.4328  0.1061
    1DIPC   D2A16710  25.109   8.207   4.215  0.2934  0.0759 -0.0584
    1DIPC   D3A16711  25.407   8.362   4.445 -0.0863  0.2240  0.1956
    1DIPC   C4A16712  25.405   8.776   4.608 -0.1177 -0.1799 -0.0644
    1DIPC   C1B16713  25.644   7.746   3.803  0.2380  0.0968  0.0046
    1DIPC   D2B16714  25.854   7.913   4.203 -0.0253  0.2380  0.1709
    1DIPC   D3B16715  26.029   8.027   4.564 -0.2302 -0.1801 -0.0872
    1DIPC   C4B16716  26.270   8.198   4.878 -0.1864 -0.0052 -0.2268
    1DIPC   NC316717   8.001  26.959   3.303  0.2728 -0.1077  0.2211
    1DIPC   PO416718   8.203  27.287   3.433  0.0346 -0.0807  0.0578
    1DIPC   GL116719   8.217  27.051   3.846  0.2059 -0.0835 -0.0113
    1DIPC   GL216720   8.244  26.745   3.761 -0.3911  0.0231 -0.0858
    1DIPC   C1A16721   8.074  26.926   4.271 -0.1501  0.2607  0.1181
    1DIPC   D2A16722   8.047  26.562   4.568 -0.2198  0.2664 -0.0414
    1DIPC   D3A16723   8.091  26.452   5.018 -0.0993  0.0162  0.1684
    1DIPC   C4A16724   7.817  26.580   5.283 -0.1824  0.1086 -0.0536
    1DIPC   C1B16725   8.523  26.782   4.088 -0.1157 -0.1533 -0.1631
    1DIPC   D2B16726   8.609  26.593   4.478 -0.1512  0.1953 -0.1982
    1DIPC   D3B16727   8.410  26.877   4.749  0.0218 -0.0787  0.0842
    1DIPC   C4B16728   7.977  27.060   4.812 -0.1030 -0.1966  0.1586
    1DIPC   NC316729  28.147  27.017   3.310  0.1289 -0.1896 -0.0857
    1DIPC   PO416730  28.028  26.558   3.104  0.0867 -0.2956 -0.1690
    1DIPC   GL116731  28.311  26.243   3.216 -0.1739  0.1930 -0.1988
    1DIPC   GL216732  28.642  26.071   3.277 -0.2493  0.2639  0.2147
    1DIPC   C1A16733  28.254  26.110   3.654 -0.0793 -0.2459  0.1519
    1DIPC   D2A16734  28.274  26.516   3.838  0.1540 -0.0176  0.2391
    1DIPC   D3A16735  28.366  26.258   4.183  0.2253 -0.0415 -0.0190
    1DIPC   C4A16736  28.305  25.794   4.096 -0.1633 -0.0867  0.1859
    1DIPC   C1B16737  28.516  25.698   3.458  0.3602  0.1214  0.0181
    1DIPC   D2B16738  28.367  25.342   3.713 -0.1605  0.1620 -0.2174
    1DIPC   D3B16739  28.712  25.487   3.911  0.1580  0.0148  0.0910
    1DIPC   C4B16740  28.886  25.176   4.007 -0.1198 -0.1652 -0.4609
    1DIPC   NC316741  25.155   9.525   2.560  0.0630 -0.3241 -0.4308
    1DIPC   PO416742  24.874   9.097   2.637 -0.0812 -0.0308  0.2766
    1DIPC   GL116743  25.040   9.226   3.031  0.0569  0.1797  0.0508
    1DIPC   GL216744  24.791   9.386   3.245  0.1599 -0.0644 -0.1274
    1DIPC   C1A16745  25.264   9.284   3.411  0.0812 -0.0433  0.2777
    1DIPC   D2A16746  25.454   8.840   3.531  0.2732  0.2593 -0.1497
    1DIPC   D3A16747  25.044   8.663   3.548  0.2558 -0.2095  0.4350
    1DIPC   C4A16748  24.870   9.013   3.491  0.0607 -0.3539 -0.0057
    1DIPC   C1B16749  24.897   9.520   3.648 -0.0233  0.0688 -0.2109
    1DIPC   D2B16750  25.035   9.828   4.046 -0.0507 -0.0710  0.0148
    1DIPC   D3B16751  25.446   9.519   4.056  0.1130 -0.1787  0.1299
    1DIPC   C4B16752  25.561   9.287   4.405  0.1591  0.3348  0.2661
    1DIPC   NC316753   5.324  19.056   2.003  0.1536  0.4094  0.0843
    1DIPC   PO416754   5.383  18.769   2.244  0.1859 -0.1599 -0.2437
    1DIPC   GL116755   5.251  18.642   2.678 -0.0614  0.1236  0.0005
    1DIPC   GL216756   4.921  18.804   2.709  0.2230  0.0764 -0.0976
    1DIPC   C1A16757   5.179  18.681   3.138  0.2334  0.0191  0.1377
    1DIPC   D2A16758   5.246  18.526   3.489  0.3476  0.0219 -0.2591
    1DIPC   D3A16759   4.870  18.824   3.574 -0.2491  0.0351 -0.0109
    1DIPC   C4A16760   4.872  19.100   3.838 -0.0748  0.3671 -0.1192
    1DIPC   C1B16761   4.693  18.669   3.086  0.1851 -0.1634 -0.2465
    1DIPC   D2B16762   4.542  18.339   3.229 -0.1437  0.1874 -0.0263
    1DIPC   D3B16763   4.429  18.402   3.692 -0.0245 -0.0127 -0.0567
    1DIPC   C4B16764   4.274  17.958   3.928 -0.2354 -0.0369 -0.1407
    1DIPC   NC316765   3.952  11.545   2.517  0.0482 -0.1047 -0.1375
    1DIPC   PO416766   3.892  11.821   2.846 -0.2123 -0.0826 -0.0232
    1DIPC   GL116767   3.900  11.660   3.300 -0.1008  0.3506  0.1076
    1DIPC   GL216768   3.789  11.894   3.554  0.0019  0.3537  0.2560
    1DIPC   C1A16769   3.902  11.450   3.714 -0.1316  0.1713  0.1349
    1DIPC   D2A16770   3.790  11.050   3.931 -0.1031 -0.2509  0.1280
    1DIPC   D3A16771   4.015  11.061   4.288 -0.3405  0.0071 -0.1917
    1DIPC   C4A16772   4.221  10.735   4.352  0.1851 -0.2629  0.0213
    1DIPC   C1B16773   3.361  11.813   3.336 -0.0201  0.0753 -0.1956
    1DIPC   D2B16774   2.956  11.919   3.428  0.1005 -0.0179 -0.0141
    1DIPC   D3B16775   2.947  11.943   3.881  0.0093 -0.0657 -0.1454
    1DIPC   C4B16776   2.988  12.319   4.116 -0.2083 -0.1965  0.1761
    1DIPC   NC316777  27.237  12.218   2.273  0.1055  0.0622 -0.2524
    1DIPC   PO416778  27.095  12.601   2.318  0.1112  0.2300 -0.2764
    1DIPC   GL116779  27.177  12.397   2.790 -0.1073  0.1289  0.0768
    1DIPC   GL216780  27.242  12.647   2.923 -0.2830 -0.3179  0.1431
    1DIPC   C1A16781  27.061  12.463   3.319  0.0153  0.0220  0.0792
    1DIPC   D2A16782  27.038  12.760   3.642 -0.1230  0.0532  0.1508
    1DIPC   D3A16783  26.736  12.986   3.725  0.2254 -0.1572  0.1954
    1DIPC   C4A16784  26.501  12.935   3.484  0.2038  0.2017 -0.2082
    1DIPC   C1B16785  27.043  12.992   3.181 -0.1216 -0.0906  0.0038
    1DIPC   D2B16786  26.941  13.387   3.445  0.2327 -0.2312 -0.0594
    1DIPC   D3B16787  27.356  13.196   3.666 -0.1528  0.2633 -0.5140
    1DIPC   C4B16788  27.619  12.971   3.311  0.0254  0.0332 -0.1434
    1DIPC   NC316789   6.587  12.930   3.045 -0.1831  0.0457 -0.1929
    1DIPC   PO416790   7.062  12.812   3.001  0.1830 -0.0364  0.0331
    1DIPC   GL116791   7.115  12.798   3.312  0.0998 -0.0544  0.2947
    1DIPC   GL216792   6.844  12.791   3.527  0.3937  0.2329  0.0586
    1DIPC   C1A16793   7.099  13.161   3.758  0.2231 -0.1525 -0.3457
    1DIPC   D2A16794   6.957  13.194   4.263 -0.0074 -0.1408 -0.2445
    1DIPC   D3A16795   6.594  12.891   4.406  0.0572 -0.2368  0.0573
    1DIPC   C4A16796   6.750  12.640   4.792 -0.0545 -0.0181  0.0948
    1DIPC   C1B16797   6.916  12.690   3.988  0.2390 -0.0451 -0.1531
    1DIPC   D2B16798   6.826  12.447   4.343 -0.2764 -0.1679 -0.1495
    1DIPC   D3B16799   6.993  12.203   4.033 -0.0903  0.0031 -0.0194
    1DIPC   C4B16800   6.908  12.294   3.560 -0.2466 -0.0907  0.0095
    1DIPC   NC316801   2.235  22.555   2.058 -0.0566  0.0553 -0.1634
    1DIPC   PO416802   2.469  22.390   2.452 -0.2617 -0.0733  0.0245
    1DIPC   GL116803   2.451  22.380   2.912  0.1944  0.0927  0.3254
    1DIPC   GL216804   2.156  22.532   2.958 -0.0335 -0.2163  0.0081
    1DIPC   C1A16805   2.585  22.215   3.281 -0.1794  0.4744 -0.0610
    1DIPC   D2A16806   2.474  21.813   3.524  0.0829  0.0906 -0.1494
    1DIPC   D3A16807   2.407  21.594   3.098  0.2667  0.0483 -0.0519
    1DIPC   C4A16808   2.796  21.422   2.865  0.2464  0.1905  0.0003
    1DIPC   C1B16809   2.088  22.143   3.237 -0.1337  0.2908  0.1676
    1DIPC   D2B16810   1.759  22.022   3.473 -0.1160  0.1220 -0.2083
    1DIPC   D3B16811   1.758  22.242   3.868 -0.0424 -0.0032 -0.0389
    1DIPC   C4B16812   1.343  22.062   4.080  0.1409  0.1559 -0.0002
    1DIPC   NC316813  27.997  24.334   3.152  0.1668 -0.2885 -0.0915
    1DIPC   PO416814  27.999  23.920   2.933  0.0113 -0.1555  0.0208
    1DIPC   GL116815  27.803  23.787   3.292  0.1026 -0.0992  0.0122
    1DIPC   GL216816  28.039  23.610   3.378 -0.1976  0.0949 -0.2318
    1DIPC   C1A16817  27.680  23.713   3.792 -0.0867  0.0530  0.2314
    1DIPC   D2A16818  27.416  23.867   4.071  0.0571 -0.0946 -0.0583
    1DIPC   D3A16819  27.415  24.337   4.164 -0.3409  0.3168 -0.3648
    1DIPC   C4A16820  26.948  24.370   4.311  0.0133  0.3198  0.0310
    1DIPC   C1B16821  28.198  23.645   3.797  0.0347  0.2859  0.1380
    1DIPC   D2B16822  28.395  23.831   4.134 -0.2041 -0.1786  0.3515
    1DIPC   D3B16823  28.214  23.730   4.531  0.2120  0.1601 -0.3895
    1DIPC   C4B16824  28.281  23.365   4.827  0.0619 -0.0621  0.3442
    1DIPC   NC316825   7.117   0.260   3.721 -0.1185  0.1505  0.1638
    1DIPC   PO416826   7.048  -0.175   3.513  0.2856 -0.0511 -0.0413
    1DIPC   GL116827   7.067  -0.201   3.935 -0.0369  0.1893 -0.3647
    1DIPC   GL216828   6.761  -0.088   3.990  0.3220 -0.4081  0.0468
    1DIPC   C1A16829   7.225  -0.091   4.281  0.0071 -0.0696  0.0424
    1DIPC   D2A16830   7.380  -0.087   4.765 -0.0236 -0.1810 -0.2359
    1DIPC   D3A16831   7.420  -0.305   5.055  0.2350  0.0310 -0.1356
    1DIPC   C4A16832   7.803  -0.448   5.106 -0.3441  0.2836  0.0592
    1DIPC   C1B16833   6.815  -0.321   4.375  0.2122 -0.0351  0.0130
    1DIPC   D2B16834   7.020  -0.466   4.708  0.0627 -0.3359  0.1440
    1DIPC   D3B16835   6.894  -0.594   5.041  0.1906 -0.0536  0.0246
    1DIPC   C4B16836   6.647  -0.915   5.314  0.3720 -0.2425 -0.1722
    1DIPC   NC316837  19.113   5.799   3.641 -0.2667  0.0830 -0.0941
    1DIPC   PO416838  18.993   6.146   3.535  0.4668 -0.1130 -0.1040
    1DIPC   GL116839  18.869   6.272   4.014 -0.1492 -0.0365  0.1354
    1DIPC   GL216840  18.595   6.110   4.198 -0.3309  0.1790 -0.0442
    1DIPC   C1A16841  19.133   6.470   4.142 -0.1371  0.1330 -0.0444
    1DIPC   D2A16842  19.369   6.931   4.202 -0.0006  0.0431  0.1328
    1DIPC   D3A16843  19.727   6.761   4.343  0.0214 -0.1634  0.1541
    1DIPC   C4A16844  19.782   6.241   4.293  0.0584 -0.2301 -0.1447
    1DIPC   C1B16845  18.645   5.954   4.646 -0.1246 -0.2455  0.3991
    1DIPC   D2B16846  18.952   5.849   5.036 -0.0981  0.1432 -0.1527
    1DIPC   D3B16847  18.744   6.342   5.056  0.1397 -0.2442  0.2889
    1DIPC   C4B16848  19.013   6.584   4.897 -0.1801  0.1887 -0.0737
    1DIPC   NC316849   1.255   8.639   3.044 -0.1497 -0.0107 -0.0486
    1DIPC   PO416850   1.647   8.636   2.870 -0.2042  0.0284 -0.0778
    1DIPC   GL116851   1.623   8.692   3.349 -0.0334 -0.0763 -0.1412
    1DIPC   GL216852   1.838   8.443   3.597  0.1297 -0.1682 -0.1906
    1DIPC   C1A16853   1.337   8.994   3.538 -0.0220 -0.3237  0.1515
    1DIPC   D2A16854   1.288   9.415   3.674 -0.1419  0.1189 -0.3006
    1DIPC   D3A16855   1.001   9.356   4.075 -0.4500 -0.0475  0.0414
    1DIPC   C4A16856   0.700   9.071   4.220  0.3287  0.0369  0.3143
    1DIPC   C1B16857   1.783   8.092   4.053  0.0730  0.2915 -0.0436
    1DIPC   D2B16858   1.615   7.659   4.172 -0.2826 -0.2047  0.0195
    1DIPC   D3B16859   1.499   7.550   4.511  0.1098  0.1109  0.2798
    1DIPC   C4B16860   1.247   7.230   4.641  0.0704  0.0867 -0.1288
    1DIPC   NC316861   9.121  22.915   2.200  0.0040  0.2175 -0.0997
    1DIPC   PO416862   8.669  22.613   2.287  0.0458 -0.1626 -0.0358
    1DIPC   GL116863   8.523  22.562   2.680 -0.0454 -0.0615 -0.0488
    1DIPC   GL216864   8.277  22.608   2.815  0.1623  0.0343  0.2313
    1DIPC   C1A16865   8.728  22.719   3.045  0.2876 -0.3816  0.0952
    1DIPC   D2A16866   8.783  23.055   3.378 -0.0725 -0.1766 -0.0453
    1DIPC   D3A16867   8.466  23.243   3.354  0.1782 -0.0562 -0.0078
    1DIPC   C4A16868   8.287  23.580   3.556 -0.0213 -0.0094 -0.0688
    1DIPC   C1B16869   8.278  22.753   3.194  0.2125  0.1838  0.2464
    1DIPC   D2B16870   8.535  22.657   3.630  0.1856 -0.0046 -0.0487
    1DIPC   D3B16871   8.809  22.449   3.845  0.2143  0.0857  0.0598
    1DIPC   C4B16872   8.858  22.043   4.002 -0.0649 -0.1656 -0.1584
    1DIPC   NC316873   5.045  13.953   3.137  0.2006  0.1618 -0.2371
    1DIPC   PO416874   4.937  13.463   3.026 -0.0310 -0.0844  0.4958
    1DIPC   GL116875   5.060  13.462   3.458  0.0002 -0.1782  0.1928
    1DIPC   GL216876   5.274  13.660   3.465 -0.0344  0.1163 -0.0978
    1DIPC   C1A16877   4.799  13.712   3.751 -0.2237  0.0200 -0.1750
    1DIPC   D2A16878   4.850  13.923   4.153  0.2536 -0.1719  0.0138
    1DIPC   D3A16879   4.398  13.832   4.127  0.1200  0.1372 -0.0322
    1DIPC   C4A16880   4.168  13.606   4.406  0.0203  0.1198  0.0945
    1DIPC   C1B16881   5.442  13.443   3.795 -0.1829 -0.2156 -0.1688
    1DIPC   D2B16882   5.561  12.977   3.877  0.1519 -0.1268  0.0597
    1DIPC   D3B16883   5.087  13.103   3.833  0.1337 -0.0948  0.3074
    1DIPC   C4B16884   5.017  13.452   4.081  0.0332 -0.6775 -0.3068
    1DIPC   NC316885  19.146  27.901   3.205 -0.2224 -0.0028 -0.0343
    1DIPC   PO416886  18.938  28.176   3.465  0.0022 -0.0384  0.0730
    1DIPC   GL116887  18.934  28.143   3.908 -0.3910  0.0239  0.1312
    1DIPC   GL216888  18.919  28.535   4.041  0.0128 -0.1007 -0.0660
    1DIPC   C1A16889  18.712  28.136   4.417  0.2974  0.3131  0.5302
    1DIPC   D2A16890  18.918  27.835   4.747  0.1212  0.0865  0.1097
    1DIPC   D3A16891  18.846  27.600   5.090  0.1722 -0.3757 -0.3075
    1DIPC   C4A16892  18.911  27.806   5.478 -0.1062  0.1573 -0.1346
    1DIPC   C1B16893  18.775  28.609   4.431 -0.3183 -0.1126  0.1141
    1DIPC   D2B16894  18.700  28.827   4.847  0.0694  0.2725 -0.0557
    1DIPC   D3B16895  19.105  28.646   4.894 -0.4298  0.0717  0.0487
    1DIPC   C4B16896  19.449  28.760   5.094  0.1750  0.1276  0.1659
    1DIPC   NC316897  13.877  22.735   3.557 -0.0866 -0.0392 -0.1664
    1DIPC   PO416898  13.463  22.946   3.719 -0.0531  0.0402  0.1579
    1DIPC   GL116899  13.598  23.079   4.096 -0.0014 -0.0751  0.2625
    1DIPC   GL216900  13.929  23.003   4.015 -0.1165 -0.1444  0.1193
    1DIPC   C1A16901  13.453  23.095   4.543  0.0935 -0.0228  0.1211
    1DIPC   D2A16902  13.368  23.010   5.133 -0.1412 -0.0753  0.1613
    1DIPC   D3A16903  13.055  22.807   4.973  0.0351  0.2636  0.1465
    1DIPC   C4A16904  13.112  22.688   4.529 -0.1978 -0.1360 -0.3276
    1DIPC   C1B16905  13.986  22.862   4.433  0.1589  0.1577  0.2241
    1DIPC   D2B16906  14.146  22.675   4.744 -0.0391 -0.2609 -0.0523
    1DIPC   D3B16907  14.046  22.363   4.376  0.2241 -0.1148 -0.1779
    1DIPC   C4B16908  13.881  21.994   4.396  0.0748  0.2166  0.0315
    1DIPC   NC316909   9.069   2.050   3.537 -0.0779  0.1889 -0.2122
    1DIPC   PO416910   8.848   2.485   3.552 -0.0278 -0.1473 -0.0205
    1DIPC   GL116911   8.608   2.580   3.981 -0.1289 -0.1064  0.1032
    1DIPC   GL216912   8.396   2.660   3.972 -0.0105  0.0685  0.0277
    1DIPC   C1A16913   8.569   2.423   4.366 -0.2210 -0.3081 -0.0354
    1DIPC   D2A16914   8.535   2.490   4.830  0.0641 -0.0499 -0.0375
    1DIPC   D3A16915   8.650   2.098   4.942  0.3322  0.1740  0.1146
    1DIPC   C4A16916   8.597   1.759   5.189 -0.0597 -0.0491  0.1458
    1DIPC   C1B16917   8.765   2.900   4.301  0.1678  0.0036 -0.0381
    1DIPC   D2B16918   9.166   3.139   4.302 -0.0437 -0.0344 -0.0891
    1DIPC   D3B16919   8.982   3.485   4.369 -0.1291  0.1980  0.1111
    1DIPC   C4B16920   8.595   3.442   4.641  0.0410  0.1786  0.2232
    1DIPC   NC316921   5.864  17.559   1.918  0.1389  0.2056  0.1384
    1DIPC   PO416922   5.819  17.456   2.304 -0.1589  0.1780  0.0199
    1DIPC   GL116923   5.723  17.570   2.725  0.0324  0.2595  0.1500
    1DIPC   GL216924   5.539  17.365   2.827  0.1666  0.0081 -0.2324
    1DIPC   C1A16925   5.696  17.836   3.052  0.3191  0.2482 -0.6492
    1DIPC   D2A16926   5.911  17.938   3.496  0.0198  0.3129  0.3088
    1DIPC   D3A16927   6.239  18.351   3.456 -0.1279  0.2666  0.2458
    1DIPC   C4A16928   6.375  18.503   3.837 -0.2381 -0.3134 -0.0988
    1DIPC   C1B16929   5.510  17.246   3.259 -0.3042  0.0821  0.0386
    1DIPC   D2B16930   5.622  17.477   3.691  0.2408  0.2859 -0.1370
    1DIPC   D3B16931   5.841  17.633   4.014 -0.0104 -0.2396 -0.0084
    1DIPC   C4B16932   5.651  17.996   4.176  0.1489 -0.0570 -0.0855
    1DIPC   NC316933   4.627  25.115   3.092 -0.1440 -0.1308 -0.0448
    1DIPC   PO416934   5.009  25.377   2.991 -0.1226 -0.0026  0.2804
    1DIPC   GL116935   5.298  25.152   3.108 -0.2077 -0.2990 -0.0887
    1DIPC   GL216936   5.569  25.354   3.297 -0.1717 -0.0508  0.2334
    1DIPC   C1A16937   5.291  24.972   3.462  0.1113  0.0757  0.1856
    1DIPC   D2A16938   5.473  24.690   3.753 -0.0126 -0.0988 -0.1348
    1DIPC   D3A16939   5.209  24.423   4.039  0.1045 -0.0940 -0.2112
    1DIPC   C4A16940   4.880  24.132   3.912 -0.0418 -0.1632  0.3264
    1DIPC   C1B16941   5.647  25.220   3.658 -0.0981 -0.0378 -0.1525
    1DIPC   D2B16942   5.652  25.077   4.071  0.1079  0.2167  0.0946
    1DIPC   D3B16943   5.240  25.154   3.973  0.0258 -0.0766  0.0696
    1DIPC   C4B16944   5.020  25.409   4.138 -0.0391 -0.2256  0.1630
    1DIPC   NC316945   6.879   6.157   3.666  0.3291  0.1578  0.0307
    1DIPC   PO416946   7.044   6.619   3.511  0.1696  0.0266  0.0364
    1DIPC   GL116947   7.132   6.455   3.931  0.1881  0.0786  0.0207
    1DIPC   GL216948   7.306   6.693   4.087  0.2903  0.2558  0.3147
    1DIPC   C1A16949   7.025   6.373   4.379  0.2588  0.0258 -0.2091
    1DIPC   D2A16950   7.032   6.669   4.751  0.0203  0.2300  0.1093
    1DIPC   D3A16951   6.707   6.606   4.863  0.2204  0.6960  0.1450
    1DIPC   C4A16952   6.255   6.384   4.845 -0.0480 -0.2393 -0.1643
    1DIPC   C1B16953   7.291   7.011   4.375 -0.1039  0.0264 -0.3478
    1DIPC   D2B16954   7.395   7.336   4.545 -0.0428  0.1080 -0.0851
    1DIPC   D3B16955   7.586   7.434   4.872 -0.1883 -0.0219 -0.3083
    1DIPC   C4B16956   8.047   7.416   4.697  0.2778  0.0906  0.0958
    1DIPC   NC316957   3.005  23.700   2.636  0.1322 -0.3748 -0.2890
    1DIPC   PO416958   3.031  23.292   2.459  0.1786 -0.0125 -0.2054
    1DIPC   GL116959   3.216  23.240   2.792 -0.2689  0.1092 -0.0560
    1DIPC   GL216960   2.991  23.061   3.058  0.1082 -0.0871  0.1035
    1DIPC   C1A16961   3.593  23.238   2.952  0.0424  0.2002 -0.0074
    1DIPC   D2A16962   3.897  23.226   3.227  0.0037  0.3257  0.3985
    1DIPC   D3A16963   4.015  23.601   2.996  0.0070 -0.0881  0.2235
    1DIPC   C4A16964   4.122  23.990   3.333 -0.2687 -0.1844 -0.0169
    1DIPC   C1B16965   2.930  22.583   3.164  0.2267 -0.2714  0.0523
    1DIPC   D2B16966   2.969  22.320   2.786 -0.0771 -0.0800 -0.1831
    1DIPC   D3B16967   2.880  21.903   2.919 -0.3006 -0.3062 -0.0088
    1DIPC   C4B16968   2.933  21.689   3.350  0.1081 -0.0745 -0.0902
    1DIPC   NC316969  15.550   0.304   3.834 -0.3275 -0.2609 -0.0902
    1DIPC   PO416970  16.062   0.325   3.858 -0.1359  0.0218  0.3839
    1DIPC   GL116971  16.437   0.370   4.135  0.1595  0.0127 -0.1159
    1DIPC   GL216972  16.331   0.119   4.362  0.0210 -0.0077 -0.2797
    1DIPC   C1A16973  16.381   0.561   4.612 -0.4119 -0.1197  0.1104
    1DIPC   D2A16974  16.547   0.569   5.050  0.2107  0.6719  0.0100
    1DIPC   D3A16975  16.439   0.102   5.128  0.2057  0.1235 -0.0758
    1DIPC   C4A16976  16.101  -0.131   5.047  0.1560 -0.1245 -0.1387
    1DIPC   C1B16977  16.732   0.225   4.498 -0.0411  0.1425 -0.0679
    1DIPC   D2B16978  17.041   0.223   4.855  0.0600 -0.0375 -0.0559
    1DIPC   D3B16979  16.939   0.176   5.327  0.0458 -0.2233 -0.0705
    1DIPC   C4B16980  16.881  -0.229   5.660 -0.0781  0.0650 -0.2604
    1DIPC   NC316981  27.032  18.753   2.982 -0.1179 -0.0081 -0.3042
    1DIPC   PO416982  27.265  18.466   2.842  0.0207  0.1758  0.1350
    1DIPC   GL116983  27.322  18.361   3.223 -0.1885 -0.0139  0.0975
    1DIPC   GL216984  27.022  18.428   3.357  0.1092  0.0140 -0.0713
    1DIPC   C1A16985  27.247  17.927   3.375  0.0112  0.1721  0.2189
    1DIPC   D2A16986  27.188  17.562   3.606 -0.2892  0.4706  0.2538
    1DIPC   D3A16987  27.215  17.724   3.981  0.0589  0.1216 -0.1895
    1DIPC   C4A16988  26.839  17.595   4.217  0.1418  0.1799  0.1799
    1DIPC   C1B16989  26.932  18.186   3.674  0.1593  0.1727  0.1729
    1DIPC   D2B16990  26.729  17.942   3.905 -0.1442  0.0420 -0.3057
    1DIPC   D3B16991  26.604  18.112   4.276 -0.2627 -0.1121 -0.1429
    1DIPC   C4B16992  26.353  18.147   4.588  0.0385  0.0033 -0.1047
    1DIPC   NC316993  18.617  26.238   3.109 -0.0305  0.2963 -0.2377
    1DIPC   PO416994  18.835  26.499   3.456 -0.3592 -0.0386 -0.6366
    1DIPC   GL116995  19.086  26.796   3.777 -0.2039  0.2195 -0.3080
    1DIPC   GL216996  18.949  27.081   3.965  0.3693  0.0788  0.1451
    1DIPC   C1A16997  19.446  26.865   4.088 -0.0181  0.0182 -0.1428
    1DIPC   D2A16998  19.667  27.122   4.328 -0.2340 -0.1801 -0.0668
    1DIPC   D3A16999  19.770  27.573   4.357 -0.3447  0.0437  0.0689
    1DIPC   C4A17000  19.607  27.798   4.679 -0.1719 -0.0033  0.1897
    1DIPC   C1B17001  18.703  26.724   4.154 -0.3935 -0.0750  0.1702
    1DIPC   D2B17002  18.706  26.860   4.549 -0.0212 -0.1050 -0.3540
    1DIPC   D3B17003  18.889  26.493   4.795 -0.2808  0.0480  0.1542
    1DIPC   C4B17004  19.263  26.626   4.904  0.1131 -0.0362 -0.1428
    1DIPC   NC317005  18.951   2.789   3.180  0.1262 -0.1234 -0.0366
    1DIPC   PO417006  18.795   3.172   3.067  0.0373  0.4198  0.1996
    1DIPC   GL117007  18.877   3.132   3.596  0.3554  0.0582  0.0780
    1DIPC   GL217008  19.147   2.916   3.609  0.0799 -0.1307  0.2477
    1DIPC   C1A17009  18.892   3.510   3.912  0.2749  0.1097  0.0377
    1DIPC   D2A17010  18.763   3.934   4.105  0.3719  0.2164 -0.0509
    1DIPC   D3A17011  18.839   3.860   4.564  0.0478  0.2931  0.1552
    1DIPC   C4A17012  18.860   3.499   4.761 -0.1764  0.0030  0.0466
    1DIPC   C1B17013  19.470   2.840   3.566 -0.0784  0.2072 -0.0820
    1DIPC   D2B17014  19.855   2.634   3.455  0.1577  0.0439  0.0541
    1DIPC   D3B17015  20.047   2.959   3.657 -0.1811 -0.0514 -0.5180
    1DIPC   C4B17016  19.944   3.404   3.909 -0.1509 -0.0190  0.0278
    1DIPC   NC317017   6.219  12.411   3.035  0.1087 -0.2564 -0.1016
    1DIPC   PO417018   6.303  12.620   3.394 -0.0641 -0.1644 -0.1735
    1DIPC   GL117019   6.427  12.671   3.852  0.2883  0.0345  0.0649
    1DIPC   GL217020   6.501  12.395   3.992 -0.2248  0.2147 -0.1219
    1DIPC   C1A17021   6.153  12.958   4.155  0.2246 -0.1959  0.0121
    1DIPC   D2A17022   5.842  13.239   4.483  0.2253  0.2157 -0.1104
    1DIPC   D3A17023   5.393  13.225   4.386  0.0731 -0.0028  0.0148
    1DIPC   C4A17024   5.234  13.599   4.503 -0.2362  0.1106 -0.0621
    1DIPC   C1B17025   6.326  12.510   4.462 -0.1581  0.1186 -0.3964
    1DIPC   D2B17026   6.087  12.273   4.680 -0.6834 -0.2141  0.1519
    1DIPC   D3B17027   5.850  12.352   5.058 -0.1842 -0.0228 -0.0483
    1DIPC   C4B17028   5.402  12.513   5.176  0.0674 -0.4233  0.3529
    1DIPC   NC317029  20.515   6.387   3.749 -0.1028 -0.0106 -0.1202
    1DIPC   PO417030  20.636   6.021   3.647  0.1155  0.1117 -0.2358
    1DIPC   GL117031  20.535   5.840   3.999  0.3409  0.1624  0.0708
    1DIPC   GL217032  20.341   5.583   3.926 -0.2023 -0.1437 -0.0645
    1DIPC   C1A17033  20.546   5.564   4.371  0.2931 -0.0131  0.0919
    1DIPC   D2A17034  20.565   5.435   4.822  0.1538  0.0986 -0.0487
    1DIPC   D3A17035  20.678   5.734   5.141 -0.0548  0.0522 -0.1063
    1DIPC   C4A17036  20.747   5.598   5.632  0.1334  0.0252 -0.0707
    1DIPC   C1B17037  20.617   5.162   4.054 -0.0419  0.0352 -0.1911
    1DIPC   D2B17038  20.455   4.811   4.380  0.1562 -0.2583 -0.0473
    1DIPC   D3B17039  20.621   4.914   4.911 -0.3581 -0.2473  0.2296
    1DIPC   C4B17040  20.861   4.820   5.190  0.0283  0.0086 -0.0694
    1DIPC   NC317041  21.649   7.592   2.982  0.0320 -0.0885  0.0031
    1DIPC   PO417042  21.583   7.310   3.463  0.0402  0.0632  0.0429
    1DIPC   GL117043  21.832   7.351   3.749  0.4070 -0.3015 -0.0197
    1DIPC   GL217044  22.091   7.145   3.606  0.0127  0.1586 -0.2484
    1DIPC   C1A17045  22.145   7.471   4.096 -0.2337  0.1374  0.1016
    1DIPC   D2A17046  22.171   7.789   4.355  0.3417 -0.4225 -0.1692
    1DIPC   D3A17047  22.125   7.757   4.842  0.1407  0.0171 -0.3342
    1DIPC   C4A17048  21.697   7.657   4.962 -0.1086 -0.1063  0.0677
    1DIPC   C1B17049  22.441   7.174   3.814  0.2215 -0.0740  0.0984
    1DIPC   D2B17050  22.835   7.176   3.738  0.2271 -0.1542 -0.0288
    1DIPC   D3B17051  23.141   7.204   3.525 -0.0807 -0.1210  0.0742
    1DIPC   C4B17052  23.389   7.512   3.548  0.0997 -0.2118 -0.1078
    1DIPC   NC317053   6.542  20.307   2.196 -0.0050 -0.1828 -0.2338
    1DIPC   PO417054   6.887  20.199   2.400  0.2897 -0.0102  0.0775
    1DIPC   GL117055   6.564  20.107   2.707  0.1426  0.2459  0.0098
    1DIPC   GL217056   6.306  20.209   2.648 -0.0912 -0.2356 -0.1264
    1DIPC   C1A17057   6.763  19.902   3.110 -0.2126  0.2603  0.2421
    1DIPC   D2A17058   6.622  19.865   3.488 -0.0682 -0.0092 -0.1877
    1DIPC   D3A17059   6.715  19.702   3.892 -0.2676 -0.2153  0.3296
    1DIPC   C4A17060   6.508  19.290   4.214 -0.1803 -0.1628 -0.3002
    1DIPC   C1B17061   6.366  20.177   3.151  0.1426 -0.2206  0.3945
    1DIPC   D2B17062   6.402  20.258   3.689 -0.4530 -0.2041 -0.0053
    1DIPC   D3B17063   5.991  20.510   3.779  0.1610 -0.1465  0.2655
    1DIPC   C4B17064   5.603  20.482   3.490  0.1469 -0.0311 -0.1049
    1DIPC   NC317065   1.949   8.335   3.131 -0.2518 -0.0269  0.0524
    1DIPC   PO417066   1.597   8.175   3.219 -0.1015  0.1985 -0.0064
    1DIPC   GL117067   1.559   7.976   3.598  0.2409  0.0054 -0.0543
    1DIPC   GL217068   1.182   7.992   3.559 -0.1470  0.1543  0.2493
    1DIPC   C1A17069   1.557   7.608   3.710  0.0362  0.1958  0.2328
    1DIPC   D2A17070   1.683   7.174   3.915 -0.2851  0.1398  0.0901
    1DIPC   D3A17071   1.941   6.788   3.779  0.0659 -0.3864 -0.0714
    1DIPC   C4A17072   1.943   6.517   4.228 -0.1368  0.2574  0.0258
    1DIPC   C1B17073   1.170   7.915   3.922  0.2053  0.0381  0.0222
    1DIPC   D2B17074   1.355   8.006   4.387  0.0167 -0.2355  0.1014
    1DIPC   D3B17075   1.741   8.062   4.657 -0.1208 -0.3585  0.1176
    1DIPC   C4B17076   1.715   8.419   4.833 -0.1488  0.1380 -0.0180
    1DIPC   NC317077  11.817   0.828   3.807  0.1492 -0.0085 -0.1218
    1DIPC   PO417078  11.359   0.698   3.833 -0.0642  0.3848  0.0205
    1DIPC   GL117079  11.434   0.635   4.288 -0.0648  0.1777  0.2904
    1DIPC   GL217080  11.158   0.741   4.517  0.2888  0.2776  0.1108
    1DIPC   C1A17081  11.488   0.188   4.407 -0.1843  0.1123  0.4570
    1DIPC   D2A17082  11.687  -0.156   4.284  0.0777  0.3766 -0.1899
    1DIPC   D3A17083  11.747  -0.358   4.675  0.1682 -0.1407  0.0559
    1DIPC   C4A17084  11.684  -0.243   5.173  0.0104  0.0409  0.3955
    1DIPC   C1B17085  11.236   0.440   4.824  0.2288 -0.2063 -0.1133
    1DIPC   D2B17086  11.435   0.537   5.197  0.1899  0.2303 -0.1195
    1DIPC   D3B17087  11.335   0.133   5.257  0.0949 -0.2175  0.0291
    1DIPC   C4B17088  11.185   0.050   5.532  0.0243  0.1006 -0.1440
    1DIPC   NC317089   7.738   4.101   3.191  0.1573  0.1519 -0.0322
    1DIPC   PO417090   7.941   3.720   3.437 -0.1753  0.1961 -0.1578
    1DIPC   GL117091   8.092   3.573   3.766 -0.0948  0.1144 -0.1751
    1DIPC   GL217092   7.802   3.448   3.919 -0.1179 -0.1789 -0.0739
    1DIPC   C1A17093   8.349   3.628   4.152 -0.1575  0.2280  0.0765
    1DIPC   D2A17094   8.182   3.789   4.560 -0.3753 -0.2586  0.1150
    1DIPC   D3A17095   8.219   3.712   4.971  0.0088  0.0668  0.1886
    1DIPC   C4A17096   8.228   3.550   5.367  0.1333  0.0012 -0.1228
    1DIPC   C1B17097   7.912   3.196   4.234 -0.1158  0.0435  0.0076
    1DIPC   D2B17098   8.084   3.327   4.626  0.1541  0.0287  0.1744
    1DIPC   D3B17099   8.124   3.214   5.010 -0.1459 -0.0572 -0.0117
    1DIPC   C4B17100   8.145   2.699   5.014  0.1936  0.0703 -0.1537
    1DIPC   NC317101  23.906   5.975   2.953 -0.2299 -0.3527 -0.4100
    1DIPC   PO417102  24.025   5.671   3.315 -0.1255  0.5323 -0.1012
    1DIPC   GL117103  24.222   5.798   3.675 -0.1851 -0.1182 -0.0356
    1DIPC   GL217104  24.493   5.607   3.802 -0.0713 -0.2523  0.1068
    1DIPC   C1A17105  24.146   5.875   4.117  0.1488  0.0696  0.0957
    1DIPC   D2A17106  24.265   5.979   4.542 -0.0920 -0.0457 -0.3859
    1DIPC   D3A17107  24.101   6.331   4.225  0.1826 -0.0054 -0.0721
    1DIPC   C4A17108  23.990   6.260   3.786 -0.0369 -0.0706  0.4708
    1DIPC   C1B17109  24.375   5.313   3.940  0.1226 -0.3463  0.1576
    1DIPC   D2B17110  24.349   5.440   4.303  0.3548  0.2442 -0.2339
    1DIPC   D3B17111  24.153   5.146   4.351  0.1438 -0.2051  0.1846
    1DIPC   C4B17112  24.045   4.866   4.733 -0.2250 -0.2676  0.1830
    1DIPC   NC317113  10.377   3.657   3.621 -0.0831  0.0537 -0.0950
    1DIPC   PO417114  10.368   3.728   3.999 -0.2827 -0.3880 -0.0261
    1DIPC   GL117115  10.471   3.878   4.364 -0.0184  0.1175  0.3248
    1DIPC   GL217116  10.280   4.184   4.222  0.2005 -0.0279  0.0774
    1DIPC   C1A17117  10.372   3.796   4.802 -0.3403  0.1583 -0.1587
    1DIPC   D2A17118  10.240   3.572   5.109 -0.0443  0.2183 -0.1407
    1DIPC   D3A17119  10.449   3.690   5.389  0.3802  0.0977  0.0632
    1DIPC   C4A17120  10.209   3.992   5.544 -0.0726  0.3590 -0.1083
    1DIPC   C1B17121   9.912   4.091   4.509  0.0208  0.0020 -0.3161
    1DIPC   D2B17122   9.489   4.159   4.820  0.2089 -0.1266  0.0994
    1DIPC   D3B17123   9.611   4.449   5.105  0.1026  0.1393 -0.3337
    1DIPC   C4B17124   9.897   4.463   5.435 -0.0351  0.1616 -0.2847
    1DIPC   NC317125   7.491   5.128   3.313 -0.0603  0.1649 -0.3391
    1DIPC   PO417126   7.400   4.775   3.462 -0.2449 -0.1548  0.3012
    1DIPC   GL117127   7.680   4.694   3.894 -0.1046  0.3181 -0.2548
    1DIPC   GL217128   7.730   4.424   4.014  0.1533 -0.0608 -0.0017
    1DIPC   C1A17129   7.935   4.749   4.338 -0.0252  0.2077  0.1765
    1DIPC   D2A17130   8.087   4.969   4.653 -0.0626  0.2918  0.2448
    1DIPC   D3A17131   8.289   4.640   4.970  0.5181  0.1549  0.0614
    1DIPC   C4A17132   8.234   4.207   4.875  0.1521 -0.0130 -0.2294
    1DIPC   C1B17133   7.421   4.200   4.164 -0.0718  0.2326 -0.0028
    1DIPC   D2B17134   7.214   3.950   4.484 -0.0020  0.2094 -0.1020
    1DIPC   D3B17135   7.544   4.080   4.708 -0.1063  0.0997 -0.0004
    1DIPC   C4B17136   7.917   4.265   4.484 -0.0199 -0.1319 -0.1256
    1DIPC   NC317137   9.254   1.008   3.871  0.3099  0.2359  0.0776
    1DIPC   PO417138   8.865   1.265   3.847 -0.0498 -0.0870 -0.2567
    1DIPC   GL117139   8.699   0.946   4.125  0.0104  0.1821  0.4601
    1DIPC   GL217140   8.782   0.634   4.273 -0.1570 -0.0285  0.4681
    1DIPC   C1A17141   8.552   1.124   4.482 -0.0885 -0.0559  0.3487
    1DIPC   D2A17142   8.720   1.393   4.814  0.1678  0.0615  0.1620
    1DIPC   D3A17143   9.108   1.217   5.081 -0.2524 -0.0819 -0.0914
    1DIPC   C4A17144   9.005   0.890   5.333 -0.0041 -0.1802  0.1752
    1DIPC   C1B17145   8.623   0.284   4.527  0.0533 -0.0968 -0.0998
    1DIPC   D2B17146   8.729   0.018   4.887  0.3470  0.0005  0.1768
    1DIPC   D3B17147   8.588  -0.142   5.212  0.0614 -0.3518 -0.1217
    1DIPC   C4B17148   8.261  -0.460   5.372 -0.3454 -0.0051 -0.1629
    1DIPC   NC317149  25.586  14.878   2.047 -0.1472  0.1517 -0.0745
    1DIPC   PO417150  25.509  14.815   2.489 -0.1043  0.0510  0.0085
    1DIPC   GL117151  25.178  15.015   2.807  0.2369 -0.1365 -0.0149
    1DIPC   GL217152  25.220  15.304   2.780 -0.3615  0.1625  0.0312
    1DIPC   C1A17153  25.067  14.929   3.235 -0.2579 -0.2511  0.0641
    1DIPC   D2A17154  25.152  14.940   3.653 -0.3188  0.1980 -0.1834
    1DIPC   D3A17155  24.909  14.592   3.732  0.1044  0.1410  0.0741
    1DIPC   C4A17156  25.201  14.345   4.005 -0.1107 -0.0529 -0.0615
    1DIPC   C1B17157  25.422  15.414   3.175 -0.1878  0.2359  0.0511
    1DIPC   D2B17158  25.615  15.483   3.449  0.2314 -0.0369 -0.0605
    1DIPC   D3B17159  25.683  15.041   3.493  0.0779 -0.1368  0.0500
    1DIPC   C4B17160  25.562  14.741   3.195 -0.0907  0.0580 -0.1330
    1DIPC   NC317161   8.468  23.458   2.274 -0.1958 -0.0168 -0.0748
    1DIPC   PO417162   8.419  23.852   2.618 -0.6107 -0.1461  0.1919
    1DIPC   GL117163   8.287  24.123   2.912  0.1661 -0.0589  0.0257
    1DIPC   GL217164   8.293  23.853   3.091  0.1065  0.1510  0.0512
    1DIPC   C1A17165   8.535  24.278   3.321  0.1296 -0.1637  0.2055
    1DIPC   D2A17166   8.494  24.108   3.816  0.0191  0.2123  0.0016
    1DIPC   D3A17167   8.261  24.299   4.073  0.0582  0.1236  0.1451
    1DIPC   C4A17168   8.328  24.028   4.461  0.1688 -0.2421  0.0905
    1DIPC   C1B17169   8.730  23.757   3.286  0.1034 -0.1753 -0.0858
    1DIPC   D2B17170   9.078  23.902   3.330  0.2857 -0.3387 -0.0885
    1DIPC   D3B17171   9.094  24.190   3.764 -0.1730 -0.2830 -0.3409
    1DIPC   C4B17172   8.823  24.207   4.206 -0.0581 -0.2009  0.1495
    1DIPC   NC317173   0.653  21.603   2.401  0.0965 -0.2768 -0.0792
    1DIPC   PO417174   1.055  21.488   2.175  0.1334  0.2573 -0.0131
    1DIPC   GL117175   1.168  21.373   2.549  0.1374  0.0679  0.0005
    1DIPC   GL217176   1.273  21.570   2.795 -0.3487 -0.0169  0.0729
    1DIPC   C1A17177   1.403  21.055   2.704  0.0153 -0.1938 -0.1225
    1DIPC   D2A17178   1.763  20.785   2.771  0.0092 -0.0969  0.2238
    1DIPC   D3A17179   1.403  20.522   2.901  0.0649 -0.2227  0.1590
    1DIPC   C4A17180   1.080  20.834   3.039 -0.1863 -0.0610  0.1412
    1DIPC   C1B17181   1.517  21.341   3.121 -0.3637 -0.2946  0.4234
    1DIPC   D2B17182   1.545  20.881   3.289 -0.0415  0.1317 -0.0453
    1DIPC   D3B17183   1.839  20.518   3.197 -0.2075  0.0123 -0.3639
    1DIPC   C4B17184   1.711  20.194   3.339  0.0072  0.0925  0.3517
    1DIPC   NC317185  18.329   9.831   2.367 -0.0632 -0.1681  0.0694
    1DIPC   PO417186  18.262   9.413   2.439 -0.0826  0.1388 -0.0405
    1DIPC   GL117187  18.431   9.314   2.808 -0.0579 -0.1399 -0.1210
    1DIPC   GL217188  18.515   9.072   3.050  0.1107  0.3220  0.0308
    1DIPC   C1A17189  18.818   9.441   3.087  0.0943 -0.0597 -0.1080
    1DIPC   D2A17190  19.073   9.737   3.218  0.0399 -0.1733  0.0560
    1DIPC   D3A17191  19.478   9.448   3.281  0.1103  0.2039 -0.2204
    1DIPC   C4A17192  19.789   9.536   3.604 -0.1742  0.1518 -0.1709
    1DIPC   C1B17193  18.505   9.224   3.418  0.0839 -0.1910  0.1009
    1DIPC   D2B17194  18.345   9.348   3.759  0.1906  0.4768 -0.2884
    1DIPC   D3B17195  18.277   9.791   3.833 -0.0442  0.0218 -0.2010
    1DIPC   C4B17196  18.253  10.291   3.759  0.2092 -0.0853 -0.4005
    1DIPC   NC317197  28.148  14.172   2.170 -0.0452  0.4535  0.1146
    1DIPC   PO417198  28.193  13.995   2.544 -0.3720  0.1771 -0.5517
    1DIPC   GL117199  28.123  13.953   3.014  0.2550 -0.2695  0.2364
    1DIPC   GL217200  27.750  14.071   3.196  0.1788 -0.0914 -0.1091
    1DIPC   C1A17201  28.145  13.851   3.430  0.0259 -0.3452  0.0054
    1DIPC   D2A17202  28.331  13.788   3.857 -0.0701  0.1106 -0.0936
    1DIPC   D3A17203  27.994  13.447   4.011  0.0165  0.0186 -0.0522
    1DIPC   C4A17204  28.099  13.101   4.268  0.1753  0.0325  0.0956
    1DIPC   C1B17205  27.408  13.911   3.074  0.0479  0.1430 -0.1248
    1DIPC   D2B17206  27.058  13.680   3.060 -0.1864 -0.1451 -0.0766
    1DIPC   D3B17207  26.890  13.983   3.276  0.2782 -0.0836 -0.2519
    1DIPC   C4B17208  26.511  13.891   3.376  0.0278  0.0170 -0.2219
    1DIPC   NC317209  19.504   1.267   2.437  0.2808  0.1810  0.0977
    1DIPC   PO417210  19.867   1.403   2.640 -0.0183 -0.2598 -0.3277
    1DIPC   GL117211  19.973   1.393   3.136  0.5930 -0.0403 -0.0545
    1DIPC   GL217212  19.750   1.371   3.333  0.0012  0.1043 -0.2792
    1DIPC   C1A17213  20.409   1.310   3.347 -0.3516 -0.3308 -0.1240
    1DIPC   D2A17214  20.660   1.473   3.687 -0.2466  0.1177 -0.0345
    1DIPC   D3A17215  20.663   1.632   4.103  0.0598  0.0386 -0.2012
    1DIPC   C4A17216  20.494   2.048   4.300 -0.0986  0.0464  0.0275
    1DIPC   C1B17217  19.933   1.508   3.678 -0.0469 -0.1000 -0.3051
    1DIPC   D2B17218  20.217   1.330   3.890 -0.3405 -0.0342 -0.1183
    1DIPC   D3B17219  20.145   1.721   4.147  0.1493  0.1389 -0.0393
    1DIPC   C4B17220  19.875   1.702   4.502 -0.1879 -0.1516 -0.1510
    1DIPC   NC317221  13.777  21.064   2.618  0.0116  0.0648 -0.2715
    1DIPC   PO417222  13.844  21.285   3.030  0.2650 -0.0186 -0.0485
    1DIPC   GL117223  13.677  21.331   3.392 -0.3024  0.0444 -0.1518
    1DIPC   GL217224  13.251  21.238   3.407  0.2454  0.0384 -0.1171
    1DIPC   C1A17225  13.506  21.641   3.686  0.0917 -0.1658  0.1072
    1DIPC   D2A17226  13.498  21.760   4.081 -0.0007  0.0405 -0.1589
    1DIPC   D3A17227  13.074  21.844   3.909 -0.0917 -0.0512 -0.1164
    1DIPC   C4A17228  12.702  21.684   3.753 -0.1630  0.2704  0.0019
    1DIPC   C1B17229  13.528  21.169   3.917  0.0163 -0.1349  0.0854
    1DIPC   D2B17230  13.602  21.297   4.284  0.0421  0.0101 -0.0469
    1DIPC   D3B17231  13.743  21.501   4.613  0.0007  0.1696  0.0765
    1DIPC   C4B17232  13.516  21.681   4.857  0.0404 -0.0456 -0.2248
    1DIPC   NC317233   6.697   9.014   3.776 -0.0475 -0.2985  0.0666
    1DIPC   PO417234   6.547   9.455   3.922 -0.2950  0.4635 -0.0382
    1DIPC   GL117235   6.350   9.149   4.190  0.0892 -0.5743  0.2947
    1DIPC   GL217236   6.226   8.890   4.083  0.0805  0.0303 -0.1834
    1DIPC   C1A17237   6.431   9.143   4.642  0.0033  0.0678 -0.0498
    1DIPC   D2A17238   6.469   9.330   5.033 -0.1361 -0.2461 -0.2905
    1DIPC   D3A17239   6.171   9.038   5.172  0.0728 -0.3540  0.2763
    1DIPC   C4A17240   5.941   8.902   4.801  0.1092 -0.2563  0.0380
    1DIPC   C1B17241   6.234   8.627   4.406 -0.1592  0.3872  0.1620
    1DIPC   D2B17242   6.069   8.391   4.676 -0.0910 -0.0049  0.0033
    1DIPC   D3B17243   5.684   8.349   4.950 -0.0766 -0.4403  0.0471
    1DIPC   C4B17244   5.196   8.549   5.115 -0.2148  0.2489  0.1363
    1DIPC   NC317245   0.293  15.864   2.500  0.1653 -0.0725 -0.2654
    1DIPC   PO417246   0.408  16.188   2.176 -0.4457  0.3678  0.0457
    1DIPC   GL117247   0.467  16.456   2.388  0.3332 -0.2751  0.2969
    1DIPC   GL217248   0.123  16.523   2.541 -0.0365  0.0620 -0.0106
    1DIPC   C1A17249   0.500  16.359   2.842  0.0151 -0.0197 -0.3810
    1DIPC   D2A17250   0.672  16.310   3.229  0.0848  0.1045  0.0375
    1DIPC   D3A17251   0.592  15.992   3.530 -0.1679  0.0617 -0.2708
    1DIPC   C4A17252   0.201  16.075   3.691 -0.4307  0.2449 -0.1833
    1DIPC   C1B17253   0.215  16.704   2.935  0.0784  0.0094  0.4049
    1DIPC   D2B17254   0.114  16.959   3.322  0.0408  0.0350 -0.1660
    1DIPC   D3B17255   0.369  17.079   3.713  0.1308 -0.2941  0.2226
    1DIPC   C4B17256   0.175  17.161   4.142  0.1858 -0.0054  0.0971
    1DIPC   NC317257   4.078  24.735   2.400  0.0380 -0.1195  0.1371
    1DIPC   PO417258   3.943  24.593   2.776 -0.4690  0.0128 -0.0642
    1DIPC   GL117259   3.820  24.511   3.252  0.1349  0.0780 -0.0055
    1DIPC   GL217260   3.814  24.850   3.465 -0.2386 -0.2057  0.2844
    1DIPC   C1A17261   4.113  24.438   3.595 -0.2196  0.0427  0.0153
    1DIPC   D2A17262   4.312  24.458   3.929  0.0512 -0.4221  0.1109
    1DIPC   D3A17263   3.896  24.307   4.103 -0.1149  0.0745  0.0115
    1DIPC   C4A17264   3.938  23.902   3.923 -0.0525  0.0936 -0.0436
    1DIPC   C1B17265   3.915  24.993   3.831  0.3534  0.4815 -0.2397
    1DIPC   D2B17266   3.975  24.857   4.156  0.1088 -0.0126  0.3184
    1DIPC   D3B17267   3.638  25.157   4.316  0.0235  0.0154 -0.0810
    1DIPC   C4B17268   3.252  25.038   4.488  0.0802 -0.2888 -0.3265
    1DIPC   NC317269   6.924  21.445   2.543 -0.0095 -0.0114 -0.1271
    1DIPC   PO417270   7.132  21.045   2.511 -0.0898 -0.2852 -0.4741
    1DIPC   GL117271   7.315  20.951   2.782  0.2083 -0.1366 -0.1550
    1DIPC   GL217272   7.319  20.749   3.017  0.3001  0.2005 -0.1627
    1DIPC   C1A17273   7.319  21.202   3.218 -0.1468 -0.1738  0.0701
    1DIPC   D2A17274   7.045  21.292   3.492  0.0318  0.3093 -0.1415
    1DIPC   D3A17275   6.916  21.219   3.831 -0.1374  0.2318 -0.1286
    1DIPC   C4A17276   6.501  21.321   3.973  0.3947 -0.1679  0.0750
    1DIPC   C1B17277   6.915  20.928   3.131  0.2229  0.2167 -0.0514
    1DIPC   D2B17278   6.707  21.084   2.852 -0.2019  0.1186  0.1124
    1DIPC   D3B17279   6.748  21.411   3.108  0.0165  0.1486 -0.2602
    1DIPC   C4B17280   6.372  21.573   3.178 -0.2958  0.1098  0.1122
    1DIPC   NC317281   4.809  28.376   2.857 -0.3234  0.0135 -0.0228
    1DIPC   PO417282   4.320  28.543   2.865 -0.0081  0.3911 -0.0212
    1DIPC   GL117283   3.950  28.435   3.252  0.0987  0.1151 -0.0076
    1DIPC   GL217284   3.636  28.523   3.055 -0.1953 -0.5391 -0.2398
    1DIPC   C1A17285   3.846  28.733   3.611 -0.1543 -0.4776 -0.1065
    1DIPC   D2A17286   3.660  28.830   4.002  0.1133  0.3285 -0.3986
    1DIPC   D3A17287   3.897  28.466   4.116  0.0804  0.1753  0.1128
    1DIPC   C4A17288   3.636  28.413   4.506 -0.2518 -0.1761 -0.1965
    1DIPC   C1B17289   3.562  28.082   3.257 -0.0043  0.2571  0.1025
    1DIPC   D2B17290   3.895  27.736   3.176  0.0826  0.0230  0.3056
    1DIPC   D3B17291   4.094  27.702   3.500  0.2461 -0.0901  0.1893
    1DIPC   C4B17292   3.978  27.728   3.913  0.0171  0.1137 -0.0408
    1DIPC   NC317293  21.248  21.366   3.084 -0.0135  0.1562  0.1256
    1DIPC   PO417294  20.841  21.500   3.097  0.2858 -0.0694 -0.0163
    1DIPC   GL117295  20.640  21.477   3.488 -0.3010  0.0490  0.1948
    1DIPC   GL217296  20.984  21.546   3.741 -0.0064  0.0051  0.5335
    1DIPC   C1A17297  20.525  21.404   3.951 -0.0302 -0.1072 -0.2614
    1DIPC   D2A17298  20.598  21.740   4.246  0.2129 -0.0778 -0.1213
    1DIPC   D3A17299  20.257  21.581   4.535 -0.2188 -0.1702 -0.2069
    1DIPC   C4A17300  20.281  21.617   4.917 -0.0888  0.0186 -0.0922
    1DIPC   C1B17301  21.321  21.380   4.026 -0.1767  0.0867  0.2128
    1DIPC   D2B17302  21.449  21.173   4.278 -0.0556 -0.2195 -0.1692
    1DIPC   D3B17303  21.236  20.853   4.402  0.2049  0.1101 -0.1869
    1DIPC   C4B17304  21.187  20.646   3.997  0.0434  0.2754 -0.0543
    1DIPC   NC317305  26.958  21.362   2.909  0.3687 -0.0406 -0.2590
    1DIPC   PO417306  27.303  21.384   3.184 -0.0462  0.1378 -0.0494
    1DIPC   GL117307  27.240  21.351   3.531  0.2849 -0.1471 -0.0673
    1DIPC   GL217308  26.890  21.239   3.523 -0.0116 -0.0940  0.1444
    1DIPC   C1A17309  27.170  21.625   3.895  0.0154  0.0788 -0.3723
    1DIPC   D2A17310  27.165  21.965   4.203  0.0787  0.5820  0.0408
    1DIPC   D3A17311  27.072  22.130   3.786  0.0732 -0.1639  0.0616
    1DIPC   C4A17312  26.962  22.601   3.740 -0.1959  0.1593  0.0931
    1DIPC   C1B17313  26.923  20.788   3.748 -0.0997  0.1857  0.0788
    1DIPC   D2B17314  27.016  20.497   4.171  0.0011 -0.3106 -0.0269
    1DIPC   D3B17315  27.278  20.834   4.219  0.1425  0.0010 -0.3403
    1DIPC   C4B17316  27.059  21.153   4.024 -0.0099 -0.1223  0.1945
    1DIPC   NC317317   1.825  27.167   2.853  0.1208 -0.0504  0.2414
    1DIPC   PO417318   1.651  27.111   3.171 -0.1252 -0.1490 -0.4223
    1DIPC   GL117319   1.790  27.085   3.552  0.1100  0.1444 -0.0256
    1DIPC   GL217320   1.760  26.783   3.599 -0.2821 -0.0967 -0.0589
    1DIPC   C1A17321   2.147  27.142   3.724  0.2776 -0.0756 -0.0180
    1DIPC   D2A17322   2.547  26.950   3.607  0.0783 -0.0553  0.1096
    1DIPC   D3A17323   2.760  26.784   3.999 -0.0662 -0.6792  0.3799
    1DIPC   C4A17324   3.098  26.927   4.089 -0.1008  0.0082  0.1102
    1DIPC   C1B17325   2.098  26.664   3.624  0.0984  0.1600  0.1198
    1DIPC   D2B17326   2.316  26.471   3.899 -0.0336  0.1291 -0.2731
    1DIPC   D3B17327   2.777  26.265   3.905  0.0990 -0.2519  0.1166
    1DIPC   C4B17328   2.775  25.757   3.939 -0.0119 -0.3788  0.0321
    1DIPC   NC317329  18.480  25.328   3.342  0.0596  0.0017  0.1494
    1DIPC   PO417330  18.096  25.346   3.592 -0.1055 -0.0195 -0.1032
    1DIPC   GL117331  17.918  25.162   3.961 -0.2412 -0.3608 -0.0835
    1DIPC   GL217332  17.585  25.153   3.929 -0.3309 -0.0898 -0.0127
    1DIPC   C1A17333  18.103  25.127   4.319  0.3746 -0.1723 -0.3547
    1DIPC   D2A17334  18.533  25.131   4.542 -0.3612 -0.2752 -0.1267
    1DIPC   D3A17335  18.291  24.840   4.852 -0.2036  0.0434 -0.2977
    1DIPC   C4A17336  18.259  24.899   5.387 -0.1283 -0.0394  0.2542
    1DIPC   C1B17337  17.653  25.310   4.380 -0.2203  0.1095  0.0910
    1DIPC   D2B17338  17.902  25.404   4.741 -0.2690 -0.1373 -0.0258
    1DIPC   D3B17339  17.821  25.852   4.722 -0.1109  0.1471 -0.2111
    1DIPC   C4B17340  17.450  26.142   4.918  0.0073 -0.0773  0.0096
    1DIPC   NC317341  10.314   2.451   3.684 -0.0329 -0.1932  0.1052
    1DIPC   PO417342  10.360   2.024   3.934 -0.2776  0.1863 -0.1962
    1DIPC   GL117343  10.127   1.973   4.376 -0.1651 -0.1618  0.0245
    1DIPC   GL217344   9.993   2.254   4.525 -0.0245 -0.1563  0.1163
    1DIPC   C1A17345   9.717   1.845   4.623 -0.0497 -0.2847  0.0605
    1DIPC   D2A17346   9.300   1.504   4.651 -0.0436  0.1224  0.1823
    1DIPC   D3A17347   9.385   1.716   5.037  0.1497  0.1344 -0.1058
    1DIPC   C4A17348   9.787   1.942   5.129  0.1086  0.0592 -0.0649
    1DIPC   C1B17349  10.210   2.013   4.879  0.0267  0.2148  0.1620
    1DIPC   D2B17350  10.373   1.647   4.905  0.2937 -0.0020  0.0062
    1DIPC   D3B17351  10.747   1.941   4.847  0.1526  0.0264 -0.0100
    1DIPC   C4B17352  11.142   2.097   4.944 -0.1804 -0.0954  0.0895
    1DIPC   NC317353   1.875   6.681   3.217 -0.1301 -0.0538  0.2205
    1DIPC   PO417354   2.144   7.046   3.362  0.1828  0.2230  0.1291
    1DIPC   GL117355   2.141   7.380   3.677  0.2773 -0.0229  0.0764
    1DIPC   GL217356   2.286   7.270   3.832 -0.1648  0.0858  0.1025
    1DIPC   C1A17357   2.076   7.691   3.974  0.1754 -0.0788 -0.0165
    1DIPC   D2A17358   2.310   7.913   4.359 -0.3138  0.0716 -0.1595
    1DIPC   D3A17359   2.541   7.788   4.062 -0.2141  0.1786 -0.3763
    1DIPC   C4A17360   2.964   7.473   4.065  0.1102 -0.0787  0.1219
    1DIPC   C1B17361   2.499   7.278   4.200 -0.1073 -0.4871  0.2036
    1DIPC   D2B17362   2.580   6.998   4.512  0.0321 -0.2768  0.1730
    1DIPC   D3B17363   2.359   7.244   4.681  0.0849  0.0342  0.0486
    1DIPC   C4B17364   2.032   7.632   4.700 -0.0418  0.0364  0.0012
    1DIPC   NC317365   7.274  27.913   3.064 -0.0691 -0.0756  0.2038
    1DIPC   PO417366   7.386  27.495   3.331  0.0850  0.0952 -0.2492
    1DIPC   GL117367   7.550  27.193   3.596 -0.1195  0.3678 -0.0979
    1DIPC   GL217368   7.778  27.278   3.687  0.0114  0.0496  0.0150
    1DIPC   C1A17369   7.706  26.757   3.858 -0.1323  0.0608  0.0581
    1DIPC   D2A17370   7.932  26.337   4.080 -0.0444 -0.1180 -0.0344
    1DIPC   D3A17371   8.005  25.913   4.168  0.2116  0.0136  0.2259
    1DIPC   C4A17372   7.739  25.612   4.405 -0.2250  0.1631 -0.3410
    1DIPC   C1B17373   7.758  27.350   4.148  0.1871 -0.0172  0.0586
    1DIPC   D2B17374   7.579  27.187   4.475  0.0006  0.2620  0.0147
    1DIPC   D3B17375   7.606  27.473   4.846 -0.1018 -0.0209 -0.0000
    1DIPC   C4B17376   7.255  27.326   5.118  0.0264 -0.0058  0.2836
    1DIPC   NC317377  20.358  22.165   3.541 -0.2263 -0.2727 -0.2256
    1DIPC   PO417378  20.242  22.500   3.799  0.2071 -0.0258 -0.2276
    1DIPC   GL117379  20.591  22.200   3.997  0.0435 -0.0380 -0.0012
    1DIPC   GL217380  20.803  22.051   3.716 -0.0600  0.2389  0.1396
    1DIPC   C1A17381  20.529  22.166   4.449  0.2508 -0.0029  0.0926
    1DIPC   D2A17382  20.110  22.119   4.687 -0.0443 -0.0761  0.1292
    1DIPC   D3A17383  20.078  22.280   4.235 -0.1018 -0.3118  0.1491
    1DIPC   C4A17384  20.088  21.884   4.166 -0.2468  0.0839 -0.1594
    1DIPC   C1B17385  21.065  21.965   4.004 -0.0923  0.2185  0.2081
    1DIPC   D2B17386  21.117  21.704   4.331 -0.1373  0.0940 -0.1540
    1DIPC   D3B17387  20.981  22.040   4.686 -0.1075  0.2279 -0.0551
    1DIPC   C4B17388  21.023  21.940   5.193  0.0228  0.0813  0.1012
    1DIPC   NC317389  26.612  14.551   2.160  0.0125 -0.1106  0.3484
    1DIPC   PO417390  26.338  14.465   2.482 -0.1500  0.0432 -0.1615
    1DIPC   GL117391  26.309  14.495   2.975 -0.0837  0.3192 -0.2283
    1DIPC   GL217392  26.512  14.225   2.979  0.1095  0.0428  0.2616
    1DIPC   C1A17393  26.113  14.349   3.395 -0.2310 -0.1721 -0.1080
    1DIPC   D2A17394  26.010  14.492   3.887 -0.2491 -0.0538  0.0509
    1DIPC   D3A17395  25.715  14.218   3.873  0.1150  0.2388 -0.0020
    1DIPC   C4A17396  25.548  14.286   3.468 -0.3653  0.1796  0.2096
    1DIPC   C1B17397  26.747  14.460   3.259  0.2441  0.2494  0.3602
    1DIPC   D2B17398  26.824  14.754   3.493  0.2458 -0.0559  0.0556
    1DIPC   D3B17399  27.093  14.658   3.858 -0.1361  0.5728 -0.2206
    1DIPC   C4B17400  27.013  14.481   4.292  0.0970  0.0779 -0.0114
    1DIPC   NC317401  25.531  25.425   3.094 -0.2168 -0.4925  0.4657
    1DIPC   PO417402  25.304  25.552   3.462  0.2301  0.0178  0.0310
    1DIPC   GL117403  25.079  25.582   3.852 -0.0330 -0.3795  0.2761
    1DIPC   GL217404  25.092  25.916   3.759 -0.1069  0.0105 -0.3390
    1DIPC   C1A17405  25.023  25.379   4.267 -0.0968  0.0598  0.1936
    1DIPC   D2A17406  25.335  25.169   4.530  0.0947  0.1171 -0.0154
    1DIPC   D3A17407  25.232  24.903   4.700 -0.3028  0.1017 -0.4171
    1DIPC   C4A17408  25.541  24.638   4.954 -0.0816  0.2222  0.0802
    1DIPC   C1B17409  24.882  26.190   4.168 -0.0811 -0.2018  0.1886
    1DIPC   D2B17410  24.712  26.521   4.397  0.0953  0.1016  0.1166
    1DIPC   D3B17411  24.459  26.254   4.711 -0.1245 -0.3050  0.0177
    1DIPC   C4B17412  24.178  26.372   4.888  0.0646 -0.2891  0.2333
    1DIPC   NC317413   6.903   0.701   3.621  0.2324 -0.3266 -0.0331
    1DIPC   PO417414   7.374   0.705   3.734 -0.0415 -0.1214  0.2727
    1DIPC   GL117415   7.063   0.925   4.074  0.0531  0.0016 -0.3819
    1DIPC   GL217416   6.690   1.037   3.999  0.0070  0.0508 -0.2358
    1DIPC   C1A17417   6.914   0.846   4.503 -0.3294  0.0081 -0.2250
    1DIPC   D2A17418   6.560   0.660   4.855 -0.2171 -0.0020 -0.0599
    1DIPC   D3A17419   6.290   0.614   4.553 -0.0896 -0.4045 -0.1108
    1DIPC   C4A17420   6.129   0.882   4.202 -0.0272  0.1105 -0.1829
    1DIPC   C1B17421   6.522   1.137   4.447  0.5684 -0.3141 -0.2059
    1DIPC   D2B17422   6.477   1.117   4.909 -0.4087  0.0703 -0.1078
    1DIPC   D3B17423   6.913   0.955   5.096 -0.2839  0.1988 -0.1787
    1DIPC   C4B17424   6.992   1.179   5.414 -0.3014 -0.1085 -0.0206
    1DIPC   NC317425  19.696   7.671   2.830 -0.0290 -0.2295  0.1510
    1DIPC   PO417426  19.758   7.738   3.243  0.2389 -0.3470 -0.1023
    1DIPC   GL117427  19.904   8.169   3.537  0.0593  0.0638 -0.0740
    1DIPC   GL217428  20.140   8.431   3.746 -0.3475 -0.3002  0.0976
    1DIPC   C1A17429  19.678   8.238   3.973 -0.1527 -0.2657  0.0341
    1DIPC   D2A17430  19.309   8.161   4.208 -0.0848  0.2327  0.3440
    1DIPC   D3A17431  19.526   7.742   4.308 -0.0672  0.2071 -0.1223
    1DIPC   C4A17432  19.147   7.444   4.569 -0.0803 -0.0976 -0.0171
    1DIPC   C1B17433  20.022   8.591   4.186  0.0974  0.2982  0.0930
    1DIPC   D2B17434  19.785   8.326   4.440 -0.1555  0.1688 -0.2810
    1DIPC   D3B17435  19.836   8.167   4.741  0.6381  0.1397 -0.0822
    1DIPC   C4B17436  20.060   8.404   4.980 -0.1974 -0.4251 -0.0921
    1DIPC   NC317437  16.779  21.446   3.321  0.2263 -0.0201 -0.1819
    1DIPC   PO417438  16.459  21.776   3.281  0.1560 -0.0889 -0.0648
    1DIPC   GL117439  16.444  21.854   3.683 -0.0702 -0.1280  0.1666
    1DIPC   GL217440  16.349  21.632   3.902 -0.0113  0.1555  0.1226
    1DIPC   C1A17441  16.238  22.128   3.913 -0.2842  0.3410 -0.1369
    1DIPC   D2A17442  15.993  22.470   4.178  0.1015 -0.4581 -0.0584
    1DIPC   D3A17443  16.185  22.279   4.442  0.1898  0.1301 -0.0931
    1DIPC   C4A17444  16.018  22.359   4.823  0.1755  0.2971 -0.1482
    1DIPC   C1B17445  16.464  21.410   4.278  0.0294  0.1001 -0.2609
    1DIPC   D2B17446  16.766  21.045   4.388 -0.3140  0.0222  0.0227
    1DIPC   D3B17447  16.696  21.103   4.859  0.0245  0.4501  0.1395
    1DIPC   C4B17448  16.270  21.254   5.124  0.4532  0.0403 -0.0794
    1DIPC   NC317449  15.602  28.163   3.626 -0.1500  0.1058 -0.2931
    1DIPC   PO417450  15.404  28.194   4.030 -0.1368 -0.0304  0.1233
    1DIPC   GL117451  15.658  28.191   4.328 -0.3027  0.1804  0.0358
    1DIPC   GL217452  15.672  28.443   4.597 -0.0465  0.0542  0.0931
    1DIPC   C1A17453  16.008  27.841   4.421  0.2571  0.2216 -0.1203
    1DIPC   D2A17454  16.401  27.566   4.442 -0.1511 -0.2721  0.1308
    1DIPC   D3A17455  16.537  27.459   4.860  0.0834 -0.1835 -0.1287
    1DIPC   C4A17456  16.827  27.758   5.022 -0.0567  0.0674 -0.2455
    1DIPC   C1B17457  16.061  28.373   4.540 -0.0692  0.1117 -0.2263
    1DIPC   D2B17458  16.485  28.480   4.700 -0.1844  0.1157 -0.0575
    1DIPC   D3B17459  16.762  28.428   4.348 -0.2027 -0.0409  0.2269
    1DIPC   C4B17460  17.180  28.739   4.404 -0.3042 -0.4450  0.0790
    1DIPC   NC317461  21.297   8.495   3.049 -0.0323 -0.0982 -0.3304
    1DIPC   PO417462  21.411   8.682   3.478  0.3170 -0.1212  0.1224
    1DIPC   GL117463  21.317   8.792   3.831 -0.1055 -0.3458 -0.2402
    1DIPC   GL217464  21.022   9.030   3.871 -0.1179  0.0460 -0.2873
    1DIPC   C1A17465  21.280   8.822   4.283  0.0043 -0.4938  0.1010
    1DIPC   D2A17466  20.916   8.791   4.496 -0.0047 -0.4529  0.1485
    1DIPC   D3A17467  20.781   8.613   4.836  0.0647  0.1539 -0.0157
    1DIPC   C4A17468  20.403   8.684   4.802  0.1652 -0.4207  0.0115
    1DIPC   C1B17469  21.075   9.314   4.256  0.0874 -0.0861 -0.3617
    1DIPC   D2B17470  21.236   9.215   4.559  0.2366  0.1421 -0.2524
    1DIPC   D3B17471  20.797   9.291   4.638 -0.1687  0.0838 -0.4429
    1DIPC   C4B17472  20.636   9.598   4.421 -0.3452 -0.0999  0.0261
    1DIPC   NC317473  23.667   5.060   3.361  0.2910  0.0106  0.1202
    1DIPC   PO417474  24.056   5.136   3.129 -0.2598 -0.0389  0.0369
    1DIPC   GL117475  24.120   5.055   3.617  0.0283 -0.3507 -0.2893
    1DIPC   GL217476  23.919   5.366   3.705 -0.0298  0.0575  0.1799
    1DIPC   C1A17477  23.996   4.900   3.926 -0.0374  0.0067 -0.2780
    1DIPC   D2A17478  23.934   4.467   4.085  0.0214  0.1677  0.0198
    1DIPC   D3A17479  24.081   4.068   3.882  0.1742 -0.0764  0.0492
    1DIPC   C4A17480  24.288   3.844   3.967 -0.1716  0.2741  0.0668
    1DIPC   C1B17481  23.834   5.439   4.103 -0.2406 -0.2460  0.0262
    1DIPC   D2B17482  23.681   5.858   4.256  0.1638 -0.0893 -0.1804
    1DIPC   D3B17483  23.776   5.857   4.636  0.1421 -0.2035 -0.2416
    1DIPC   C4B17484  23.598   6.014   5.015 -0.1323  0.0251  0.3021
    1DIPC   NC317485  18.510   2.104   3.447 -0.2666 -0.1259 -0.0226
    1DIPC   PO417486  18.105   2.468   3.397  0.0846  0.1878 -0.0810
    1DIPC   GL117487  18.185   2.642   3.864  0.0508  0.1377 -0.0529
    1DIPC   GL217488  17.945   2.782   4.126  0.0725  0.3654  0.0760
    1DIPC   C1A17489  18.398   2.737   4.355  0.0764  0.0191 -0.2188
    1DIPC   D2A17490  18.594   2.514   4.721 -0.1079 -0.4777  0.3669
    1DIPC   D3A17491  18.387   2.820   4.997 -0.0889  0.0567  0.0719
    1DIPC   C4A17492  18.505   3.077   5.369 -0.2451  0.3367  0.0762
    1DIPC   C1B17493  18.267   3.155   4.084  0.0478 -0.2367  0.1404
    1DIPC   D2B17494  18.255   3.551   4.286  0.2167 -0.1478  0.1370
    1DIPC   D3B17495  18.632   3.423   4.311 -0.1480  0.1745 -0.2209
    1DIPC   C4B17496  18.787   2.994   4.183  0.0359 -0.1724 -0.2451
    1DIPC   NC317497  22.705  21.521   3.531 -0.3679  0.0177  0.0175
    1DIPC   PO417498  23.129  21.947   3.420 -0.0617  0.2345  0.1112
    1DIPC   GL117499  23.158  21.886   3.844 -0.1873  0.3085 -0.0605
    1DIPC   GL217500  22.965  21.677   4.041  0.0622 -0.2061  0.0580
    1DIPC   C1A17501  23.299  22.080   4.206 -0.2575 -0.0250 -0.3688
    1DIPC   D2A17502  23.620  22.352   4.443  0.0237 -0.4375  0.0740
    1DIPC   D3A17503  23.783  22.701   4.610 -0.2525  0.0755 -0.2642
    1DIPC   C4A17504  24.218  22.844   4.404 -0.1961 -0.3644  0.0426
    1DIPC   C1B17505  22.770  21.478   4.544  0.0662 -0.0848 -0.1868
    1DIPC   D2B17506  22.748  21.389   5.009  0.1174  0.0213  0.3103
    1DIPC   D3B17507  22.326  21.562   4.690  0.1170  0.1013  0.1279
    1DIPC   C4B17508  22.075  21.876   4.854  0.1869  0.0759  0.0780
    1DIPC   NC317509  16.471  23.063   3.520  0.1026 -0.1809  0.0152
    1DIPC   PO417510  16.788  22.921   3.694  0.1109  0.0801 -0.0195
    1DIPC   GL117511  16.557  23.039   4.010 -0.0908  0.0776  0.0422
    1DIPC   GL217512  16.755  22.913   4.219 -0.0776  0.1805 -0.0177
    1DIPC   C1A17513  16.289  22.855   4.326  0.1251  0.1242  0.1437
    1DIPC   D2A17514  15.933  22.842   4.615 -0.1240 -0.0947  0.1246
    1DIPC   D3A17515  16.173  23.086   4.851  0.2412  0.4519  0.0235
    1DIPC   C4A17516  16.191  23.010   5.310 -0.1200  0.0268 -0.0942
    1DIPC   C1B17517  16.737  23.057   4.519  0.1975  0.0662  0.0782
    1DIPC   D2B17518  16.941  23.295   4.810  0.1747  0.0113 -0.2674
    1DIPC   D3B17519  16.570  23.473   4.811  0.1844 -0.2384 -0.1607
    1DIPC   C4B17520  16.422  23.408   4.375 -0.2382  0.0560  0.0256
    1DIPC   NC317521  12.358  21.619   2.746 -0.1155 -0.0838 -0.0854
    1DIPC   PO417522  11.981  21.665   2.794 -0.1633 -0.1021 -0.1587
    1DIPC   GL117523  12.078  21.458   3.180  0.3359 -0.0804  0.0323
    1DIPC   GL217524  12.227  21.172   3.038 -0.0874 -0.3341  0.0822
    1DIPC   C1A17525  12.223  21.379   3.547  0.1005 -0.0666  0.0212
    1DIPC   D2A17526  12.367  21.351   3.949  0.1863 -0.1131 -0.0598
    1DIPC   D3A17527  11.951  21.557   3.985  0.2095 -0.1395  0.1035
    1DIPC   C4A17528  11.801  21.647   3.533  0.1137  0.0411  0.1979
    1DIPC   C1B17529  11.815  21.088   3.287 -0.0971 -0.1247 -0.0922
    1DIPC   D2B17530  11.540  20.959   3.569 -0.0275 -0.1700  0.0084
    1DIPC   D3B17531  11.469  21.333   3.804 -0.0392 -0.0455 -0.1896
    1DIPC   C4B17532  11.248  21.566   4.164  0.1644  0.0195 -0.0796
    1DIPC   NC317533   0.073   3.519   2.778  0.0676  0.1144  0.0723
    1DIPC   PO417534  -0.201   3.844   2.996  0.2375  0.1925  0.0304
    1DIPC   GL117535  -0.193   4.012   3.390  0.0065 -0.1845 -0.1033
    1DIPC   GL217536   0.057   4.246   3.505  0.0494 -0.1813 -0.0543
    1DIPC   C1A17537  -0.263   3.795   3.759  0.0852  0.0131 -0.0993
    1DIPC   D2A17538  -0.302   3.595   4.221  0.0327 -0.0980  0.0923
    1DIPC   D3A17539  -0.582   3.583   4.194  0.2559  0.1786  0.2376
    1DIPC   C4A17540  -0.625   3.385   4.537 -0.0255 -0.2843 -0.1277
    1DIPC   C1B17541   0.304   4.460   3.815 -0.0773 -0.1364  0.1927
    1DIPC   D2B17542   0.584   4.777   4.086  0.1439 -0.3321 -0.0640
    1DIPC   D3B17543   0.905   4.413   4.016 -0.1052 -0.2094  0.0323
    1DIPC   C4B17544   0.671   4.003   4.116  0.0626  0.0587  0.3187
    1DIPC   NC317545  26.034  10.623   2.307 -0.1339 -0.1217 -0.3929
    1DIPC   PO417546  25.756  10.589   2.606  0.0964  0.0558 -0.2293
    1DIPC   GL117547  25.725  10.350   2.999 -0.0707 -0.0380  0.0031
    1DIPC   GL217548  25.529  10.634   3.152 -0.0561  0.3073  0.1681
    1DIPC   C1A17549  25.939  10.382   3.464  0.0056  0.1015 -0.0823
    1DIPC   D2A17550  26.340  10.587   3.629  0.2718  0.3557 -0.3288
    1DIPC   D3A17551  26.457  10.066   3.558  0.0008 -0.0955  0.1409
    1DIPC   C4A17552  26.621   9.897   3.924 -0.0672 -0.2462 -0.0108
    1DIPC   C1B17553  25.858  10.876   3.417  0.4523  0.2530  0.0658
    1DIPC   D2B17554  26.010  11.103   3.816  0.2136 -0.1503 -0.1163
    1DIPC   D3B17555  26.264  11.221   3.425 -0.0421  0.0895 -0.0553
    1DIPC   C4B17556  26.354  10.843   3.188  0.0573  0.1581  0.1619
    1DIPC   NC317557  24.484  25.247   3.320  0.0655  0.0641 -0.3010
    1DIPC   PO417558  24.316  25.589   3.334 -0.2150  0.1298  0.1937
    1DIPC   GL117559  24.086  25.597   3.655  0.1538  0.0973  0.1087
    1DIPC   GL217560  23.962  25.339   3.754 -0.1782  0.0064  0.3666
    1DIPC   C1A17561  24.159  25.622   4.086 -0.2200 -0.0272 -0.3506
    1DIPC   D2A17562  24.311  25.771   4.481  0.2269  0.1157  0.2729
    1DIPC   D3A17563  24.368  26.081   4.169  0.2135 -0.1813 -0.1634
    1DIPC   C4A17564  24.114  26.097   3.809 -0.1158  0.1933  0.1231
    1DIPC   C1B17565  24.112  25.051   3.934  0.2420  0.1675  0.3927
    1DIPC   D2B17566  24.257  24.570   3.830  0.0462  0.1814  0.3137
    1DIPC   D3B17567  24.504  24.256   4.040 -0.0591 -0.1594  0.0861
    1DIPC   C4B17568  24.652  24.425   4.406  0.0946  0.2670 -0.2745
    1DIPC   NC317569   5.248  26.580   2.939 -0.1811  0.1285 -0.4350
    1DIPC   PO417570   4.988  26.332   3.064 -0.1131 -0.3345 -0.0403
    1DIPC   GL117571   4.892  26.259   3.516 -0.2444 -0.1821 -0.0950
    1DIPC   GL217572   4.917  25.955   3.635 -0.3875 -0.0227  0.4057
    1DIPC   C1A17573   5.049  26.367   3.825 -0.0575  0.1655 -0.2030
    1DIPC   D2A17574   5.462  26.309   4.004 -0.0624  0.0301 -0.2417
    1DIPC   D3A17575   5.525  26.395   4.454 -0.0749  0.3646  0.1234
    1DIPC   C4A17576   5.817  26.328   4.848 -0.0800 -0.3277 -0.1092
    1DIPC   C1B17577   4.922  25.961   4.079  0.2364  0.3627 -0.2170
    1DIPC   D2B17578   5.319  25.910   4.259 -0.1664  0.2358  0.1346
    1DIPC   D3B17579   5.392  25.878   4.715  0.0235 -0.0849  0.1704
    1DIPC   C4B17580   5.334  26.156   4.975 -0.4820 -0.0614  0.1832
    1DIPC   NC317581  14.764   8.938   3.295  0.2399 -0.1467  0.0293
    1DIPC   PO417582  15.230   8.881   3.363  0.1667 -0.0093 -0.0853
    1DIPC   GL117583  15.421   8.756   3.770 -0.0474  0.1931  0.1947
    1DIPC   GL217584  15.695   8.791   3.596 -0.1087 -0.0609 -0.0517
    1DIPC   C1A17585  15.447   8.667   4.140 -0.1878  0.0821 -0.0810
    1DIPC   D2A17586  15.469   8.709   4.522  0.0892  0.2600  0.0166
    1DIPC   D3A17587  15.504   8.706   4.930  0.1326 -0.0304 -0.2007
    1DIPC   C4A17588  15.687   8.353   5.191  0.0056  0.1080  0.0614
    1DIPC   C1B17589  15.964   8.974   3.900 -0.2596 -0.1201  0.1603
    1DIPC   D2B17590  16.137   9.334   4.233  0.2526  0.1769 -0.0600
    1DIPC   D3B17591  16.239   9.213   4.656 -0.2754  0.3016 -0.1060
    1DIPC   C4B17592  16.439   9.408   4.969  0.0130  0.0620 -0.1979
    1DIPC   NC317593   0.032  14.752   2.551  0.2781  0.1272 -0.1893
    1DIPC   PO417594   0.475  14.955   2.564  0.0110 -0.2346  0.0730
    1DIPC   GL117595   0.406  15.041   3.002  0.0825 -0.0380  0.1491
    1DIPC   GL217596   0.247  15.224   3.286  0.4152 -0.0577 -0.1266
    1DIPC   C1A17597   0.518  14.758   3.354 -0.1044 -0.1493  0.1236
    1DIPC   D2A17598   0.588  14.756   3.832  0.0427  0.2838 -0.1269
    1DIPC   D3A17599   0.753  14.651   4.206 -0.2006  0.0358 -0.1056
    1DIPC   C4A17600   1.132  14.401   4.050  0.1303 -0.1317 -0.0409
    1DIPC   C1B17601   0.297  15.176   3.675 -0.0675 -0.3566 -0.0006
    1DIPC   D2B17602   0.544  15.221   4.066 -0.2787  0.0571  0.0239
    1DIPC   D3B17603   1.027  15.190   3.841 -0.5121 -0.3439 -0.2081
    1DIPC   C4B17604   0.982  14.958   3.507 -0.3044 -0.1147 -0.2076
    1DIPC   NC317605   6.177  14.603   2.085  0.0690 -0.1347  0.3371
    1DIPC   PO417606   6.498  14.720   2.412 -0.0569  0.0159  0.0504
    1DIPC   GL117607   6.514  15.089   2.647  0.0680  0.3224 -0.4339
    1DIPC   GL217608   6.366  14.848   2.933  0.1238 -0.1265  0.0977
    1DIPC   C1A17609   6.614  15.395   2.747 -0.0765 -0.1780 -0.0683
    1DIPC   D2A17610   6.548  15.782   2.866 -0.2305 -0.0747  0.2534
    1DIPC   D3A17611   6.308  15.589   3.215  0.2537 -0.3199 -0.0010
    1DIPC   C4A17612   5.899  15.537   3.265  0.1733  0.0762  0.1025
    1DIPC   C1B17613   6.089  15.030   3.292  0.1740  0.1744  0.2271
    1DIPC   D2B17614   5.714  14.976   3.499 -0.0618  0.1857  0.2459
    1DIPC   D3B17615   6.053  15.256   3.826 -0.0423 -0.0047  0.2651
    1DIPC   C4B17616   6.340  15.136   4.039  0.1937  0.3236 -0.3103
    1DIPC   NC317617  28.013  11.644   2.354  0.0394  0.0952 -0.0384
    1DIPC   PO417618  27.677  11.476   2.572 -0.1687  0.0570  0.2213
    1DIPC   GL117619  27.511  11.296   2.883 -0.0305  0.2273  0.2585
    1DIPC   GL217620  27.213  11.326   2.869 -0.1949 -0.2070  0.0218
    1DIPC   C1A17621  27.274  10.939   3.203  0.0250 -0.0524 -0.0656
    1DIPC   D2A17622  27.051  10.566   3.019 -0.0353 -0.4179  0.1431
    1DIPC   D3A17623  26.662  10.423   3.266  0.1111  0.0543  0.1096
    1DIPC   C4A17624  26.301  10.328   3.093 -0.0824  0.4776  0.0686
    1DIPC   C1B17625  27.268  11.489   3.353  0.1269 -0.0965 -0.1147
    1DIPC   D2B17626  27.294  11.268   3.665  0.0597 -0.0161 -0.3170
    1DIPC   D3B17627  27.045  10.931   3.690  0.1580 -0.0563 -0.3461
    1DIPC   C4B17628  26.645  10.984   3.576 -0.0340  0.1919  0.1891
    1DIPC   NC317629   6.536   8.490   3.252 -0.1992  0.2146  0.0625
    1DIPC   PO417630   6.453   8.565   3.683  0.3528 -0.1268  0.0900
    1DIPC   GL117631   6.359   8.332   3.987 -0.2106 -0.3446  0.1933
    1DIPC   GL217632   6.061   8.232   4.135 -0.0360 -0.1581  0.0305
    1DIPC   C1A17633   6.622   8.281   4.349 -0.2588 -0.0507 -0.0968
    1DIPC   D2A17634   6.533   8.213   4.815 -0.1793 -0.1229  0.1388
    1DIPC   D3A17635   6.463   8.714   4.888 -0.1601  0.0787 -0.3399
    1DIPC   C4A17636   6.685   8.874   5.215  0.0392  0.1228  0.2866
    1DIPC   C1B17637   5.730   8.210   4.388 -0.1388  0.0982 -0.2878
    1DIPC   D2B17638   5.264   8.113   4.619 -0.0666  0.2144  0.2002
    1DIPC   D3B17639   5.055   7.860   4.884  0.5994 -0.0019 -0.0009
    1DIPC   C4B17640   4.695   7.985   5.169 -0.0541 -0.0646 -0.3497
    1DIPC   NC317641   5.442   3.408   2.728 -0.0041 -0.0140  0.0742
    1DIPC   PO417642   5.368   3.105   2.941  0.0516 -0.0141  0.3115
    1DIPC   GL117643   5.125   3.048   3.341 -0.1893 -0.0630 -0.1726
    1DIPC   GL217644   5.263   3.136   3.541  0.1698 -0.0634 -0.1367
    1DIPC   C1A17645   4.958   2.785   3.650 -0.1760  0.1584 -0.1645
    1DIPC   D2A17646   4.555   2.867   3.992  0.1354 -0.0690  0.0393
    1DIPC   D3A17647   4.557   2.904   4.439  0.0432  0.2274 -0.0240
    1DIPC   C4A17648   4.450   2.557   4.680 -0.0784  0.0951  0.0510
    1DIPC   C1B17649   5.369   2.863   3.909 -0.2196 -0.1916 -0.2167
    1DIPC   D2B17650   5.247   2.902   4.340  0.0873  0.0369 -0.1508
    1DIPC   D3B17651   5.461   3.215   4.609 -0.2650 -0.0835  0.1222
    1DIPC   C4B17652   5.409   3.054   5.005 -0.2457 -0.0357  0.1260
    1DIPC   NC317653  12.411  20.897   2.610 -0.0967  0.1427 -0.0223
    1DIPC   PO417654  12.703  21.067   2.970 -0.1737 -0.1206  0.2138
    1DIPC   GL117655  12.774  20.983   3.362 -0.0555 -0.1899 -0.0497
    1DIPC   GL217656  12.715  21.316   3.430 -0.2627 -0.3582 -0.1951
    1DIPC   C1A17657  12.611  20.924   3.788  0.1929  0.1227  0.3336
    1DIPC   D2A17658  12.625  21.025   4.199  0.2742 -0.0893 -0.0638
    1DIPC   D3A17659  12.277  20.878   4.529 -0.1174  0.4322  0.0804
    1DIPC   C4A17660  11.873  20.858   4.672  0.0703 -0.0580  0.2255
    1DIPC   C1B17661  13.036  21.313   3.907 -0.0861  0.1069  0.0734
    1DIPC   D2B17662  12.794  21.479   4.227 -0.1091 -0.0783  0.1083
    1DIPC   D3B17663  12.530  21.307   4.695  0.0067 -0.3848  0.0817
    1DIPC   C4B17664  12.190  21.383   4.530  0.1441  0.3014 -0.0108
    1DIPC   NC317665  18.133  20.388   3.315  0.1584 -0.3759  0.1744
    1DIPC   PO417666  18.189  20.859   3.281  0.0446  0.2024  0.0971
    1DIPC   GL117667  18.425  20.731   3.639 -0.0748 -0.0448 -0.1400
    1DIPC   GL217668  18.411  20.318   3.779 -0.0571  0.2781  0.0461
    1DIPC   C1A17669  18.728  20.728   3.997 -0.0413  0.2645 -0.0639
    1DIPC   D2A17670  18.896  21.084   4.272 -0.0891 -0.0631  0.0795
    1DIPC   D3A17671  18.469  20.818   4.441  0.0791 -0.0604 -0.5299
    1DIPC   C4A17672  18.195  20.920   3.997  0.1522 -0.0293 -0.0722
    1DIPC   C1B17673  18.674  20.189   4.064  0.0299 -0.4042 -0.1242
    1DIPC   D2B17674  18.982  19.962   4.336 -0.2582  0.2131 -0.0691
    1DIPC   D3B17675  18.758  20.071   4.714 -0.0178 -0.0058 -0.3195
    1DIPC   C4B17676  18.796  19.944   5.141 -0.1373 -0.1666 -0.2262
    1DIPC   NC317677  27.599   0.509   3.536 -0.1115  0.1284 -0.0806
    1DIPC   PO417678  27.350   0.845   3.332 -0.0189 -0.1611 -0.2452
    1DIPC   GL117679  27.633   1.060   3.711 -0.0123  0.1988 -0.0123
    1DIPC   GL217680  27.887   1.259   3.717  0.0476 -0.1786 -0.0219
    1DIPC   C1A17681  27.701   1.222   4.193  0.1082 -0.1947  0.1347
    1DIPC   D2A17682  27.763   1.251   4.522 -0.1431  0.0919  0.0826
    1DIPC   D3A17683  27.803   1.318   5.044  0.3582  0.1323 -0.0687
    1DIPC   C4A17684  27.421   1.382   5.345  0.0012 -0.3570 -0.2148
    1DIPC   C1B17685  28.017   1.584   4.074  0.0955 -0.3672 -0.1453
    1DIPC   D2B17686  27.966   1.689   4.519 -0.1117 -0.4656  0.1290
    1DIPC   D3B17687  27.610   1.989   4.344  0.2367 -0.1003 -0.1360
    1DIPC   C4B17688  27.426   2.203   4.578 -0.0771 -0.4634  0.1071
    1DIPC   NC317689  27.226  23.931   3.356 -0.0939 -0.2319 -0.1423
    1DIPC   PO417690  27.404  23.683   3.031 -0.1155 -0.1754  0.1540
    1DIPC   GL117691  27.385  23.448   3.326  0.2780 -0.0511  0.1280
    1DIPC   GL217692  27.643  23.290   3.513 -0.2279 -0.0366  0.0360
    1DIPC   C1A17693  27.251  23.466   3.805 -0.1421 -0.2772  0.0652
    1DIPC   D2A17694  27.200  23.471   4.352  0.1512 -0.0721  0.3779
    1DIPC   D3A17695  27.570  23.234   4.340 -0.0459 -0.2382 -0.3098
    1DIPC   C4A17696  27.697  22.818   4.228  0.1481 -0.0775 -0.1913
    1DIPC   C1B17697  27.916  23.188   3.868 -0.0875 -0.1463 -0.0517
    1DIPC   D2B17698  28.260  23.283   4.157  0.2671 -0.2066  0.0487
    1DIPC   D3B17699  28.645  23.436   4.389  0.1772  0.2716 -0.2373
    1DIPC   C4B17700  28.759  23.428   4.774  0.1125 -0.1796  0.1041
    1DIPC   NC317701  24.246   7.050   2.558 -0.3249  0.1743  0.1366
    1DIPC   PO417702  24.252   7.249   2.895  0.1564  0.1809 -0.0942
    1DIPC   GL117703  24.028   7.314   3.272  0.3871 -0.0962 -0.0885
    1DIPC   GL217704  24.327   7.404   3.437 -0.0527  0.2042 -0.3203
    1DIPC   C1A17705  23.886   7.565   3.696  0.0980  0.1267 -0.0116
    1DIPC   D2A17706  24.066   7.900   3.905 -0.1412  0.0520  0.1849
    1DIPC   D3A17707  24.384   8.090   4.152 -0.0099 -0.2071  0.1495
    1DIPC   C4A17708  24.749   8.167   3.843  0.2137 -0.0219  0.1448
    1DIPC   C1B17709  24.306   7.016   3.731  0.0198 -0.1829  0.2258
    1DIPC   D2B17710  24.078   6.691   3.915 -0.0729 -0.2423  0.2381
    1DIPC   D3B17711  23.811   6.735   3.600 -0.0223  0.0823 -0.1695
    1DIPC   C4B17712  23.606   7.128   3.722  0.0927  0.0896 -0.1107
    1DIPC   NC317713  10.930   4.581   3.699  0.2251  0.0935  0.2219
    1DIPC   PO417714  10.561   4.618   3.838 -0.4174 -0.2885 -0.0543
    1DIPC   GL117715  10.900   4.733   4.162 -0.2783  0.0735  0.1206
    1DIPC   GL217716  11.007   5.064   4.247  0.2940  0.1463 -0.2720
    1DIPC   C1A17717  11.092   4.518   4.468  0.1923  0.1805  0.0531
    1DIPC   D2A17718  11.565   4.523   4.503 -0.0921  0.1386 -0.0503
    1DIPC   D3A17719  11.863   4.678   4.841  0.1014  0.1550  0.0901
    1DIPC   C4A17720  12.203   4.450   4.890 -0.1760 -0.1350 -0.0577
    1DIPC   C1B17721  10.835   4.959   4.712  0.2048 -0.0573  0.1805
    1DIPC   D2B17722  10.768   4.620   5.037 -0.1735 -0.0871  0.1858
    1DIPC   D3B17723  11.111   4.431   5.023  0.2663 -0.2680 -0.1247
    1DIPC   C4B17724  11.407   4.836   4.977  0.0094  0.0440  0.1415
    1DIPC   NC317725  20.770  24.080   3.681  0.0105 -0.0359  0.0434
    1DIPC   PO417726  20.919  24.420   3.457  0.2265  0.2567 -0.2805
    1DIPC   GL117727  20.896  24.558   3.897 -0.2809  0.2880 -0.1157
    1DIPC   GL217728  20.685  24.615   3.948 -0.2627 -0.0987 -0.1834
    1DIPC   C1A17729  21.009  24.357   4.320 -0.0842 -0.2654  0.4445
    1DIPC   D2A17730  21.230  24.411   4.673 -0.2574  0.0105  0.0439
    1DIPC   D3A17731  21.117  24.395   5.147  0.0016  0.1283 -0.2161
    1DIPC   C4A17732  20.695  24.726   5.216 -0.0172 -0.1066 -0.0290
    1DIPC   C1B17733  20.523  24.580   4.318  0.0603  0.0607 -0.1173
    1DIPC   D2B17734  20.274  24.188   4.653 -0.0839 -0.0651  0.0218
    1DIPC   D3B17735  20.313  24.526   4.830  0.0633  0.0381 -0.0586
    1DIPC   C4B17736  20.600  24.939   4.657  0.3394  0.1033 -0.1148
    1DIPC   NC317737   1.754  17.923   2.179 -0.4765  0.1783  0.1811
    1DIPC   PO417738   1.927  18.322   2.177 -0.1611 -0.4588  0.2282
    1DIPC   GL117739   1.969  18.428   2.589  0.5292  0.0142 -0.1706
    1DIPC   GL217740   2.202  18.497   2.779 -0.1057 -0.1881  0.2222
    1DIPC   C1A17741   1.687  18.450   2.941 -0.3183  0.0846  0.2138
    1DIPC   D2A17742   1.302  18.351   3.151  0.0169 -0.0174 -0.0222
    1DIPC   D3A17743   1.134  17.977   3.023 -0.1774  0.1421  0.2235
    1DIPC   C4A17744   0.854  17.724   2.933 -0.2046 -0.0722 -0.2131
    1DIPC   C1B17745   2.262  18.756   3.142  0.0137 -0.2518  0.2168
    1DIPC   D2B17746   2.671  19.035   3.319 -0.0264 -0.0797 -0.1390
    1DIPC   D3B17747   2.692  19.167   3.750  0.1775 -0.1090 -0.0718
    1DIPC   C4B17748   2.217  19.212   3.834 -0.3367  0.1536  0.1081
    1DIPC   NC317749  22.418   5.266   3.551 -0.0823 -0.2108 -0.0946
    1DIPC   PO417750  22.730   5.490   3.769  0.0260 -0.1579  0.0609
    1DIPC   GL117751  22.524   5.449   4.147  0.0354  0.0393  0.1865
    1DIPC   GL217752  22.405   5.114   4.090 -0.2222 -0.0326 -0.3861
    1DIPC   C1A17753  22.697   5.324   4.541 -0.2325  0.0150 -0.2895
    1DIPC   D2A17754  23.071   5.246   4.636 -0.0055 -0.0193  0.0118
    1DIPC   D3A17755  22.909   4.930   4.960  0.0697  0.0394  0.0310
    1DIPC   C4A17756  22.541   4.654   5.027  0.2558  0.1079  0.0366
    1DIPC   C1B17757  22.368   4.758   4.238  0.4151  0.0388 -0.1909
    1DIPC   D2B17758  22.161   4.554   4.528 -0.2182  0.1680  0.0126
    1DIPC   D3B17759  22.335   4.935   4.736  0.3803 -0.2640 -0.0257
    1DIPC   C4B17760  22.248   5.325   4.639  0.0191 -0.2002  0.1374
    1DIPC   NC317761  11.793  24.189   3.136  0.1837 -0.0093 -0.0132
    1DIPC   PO417762  11.497  24.381   3.157  0.2427 -0.2176 -0.3143
    1DIPC   GL117763  11.320  24.588   3.471 -0.1551 -0.1722  0.0415
    1DIPC   GL217764  11.508  24.911   3.497 -0.0439 -0.0182 -0.0690
    1DIPC   C1A17765  11.010  24.862   3.497  0.1373 -0.0036  0.0854
    1DIPC   D2A17766  10.574  24.520   3.693  0.4065 -0.1776 -0.1736
    1DIPC   D3A17767  10.601  24.235   4.097 -0.1026 -0.0309  0.1154
    1DIPC   C4A17768  10.680  24.491   4.509  0.0423  0.1528 -0.1942
    1DIPC   C1B17769  11.538  24.757   3.906 -0.1760 -0.0602 -0.1256
    1DIPC   D2B17770  11.549  24.474   4.274 -0.0953  0.0493  0.1547
    1DIPC   D3B17771  11.090  24.337   4.235  0.1521  0.2220  0.1847
    1DIPC   C4B17772  10.987  24.675   3.944 -0.0713 -0.0062  0.2528
    1DIPC   NC317773  20.265  24.157   3.193  0.0138 -0.1431  0.2527
    1DIPC   PO417774  20.322  23.947   3.565 -0.0325 -0.0864  0.0484
    1DIPC   GL117775  19.992  23.834   3.939 -0.1781 -0.1349 -0.1836
    1DIPC   GL217776  19.882  23.506   4.018  0.1407  0.3296 -0.1010
    1DIPC   C1A17777  20.182  23.827   4.323 -0.1666  0.1053 -0.0097
    1DIPC   D2A17778  20.320  23.677   4.657 -0.2689 -0.1228  0.2172
    1DIPC   D3A17779  20.002  23.796   4.922  0.1767 -0.3787 -0.0296
    1DIPC   C4A17780  20.198  24.139   5.227 -0.2874  0.0451 -0.1849
    1DIPC   C1B17781  19.832  23.476   4.425 -0.0366 -0.0759 -0.0536
    1DIPC   D2B17782  19.936  23.114   4.691  0.2199 -0.0538 -0.1374
    1DIPC   D3B17783  19.610  23.285   4.972 -0.1224 -0.3852 -0.2227
    1DIPC   C4B17784  19.326  23.527   4.915  0.1271  0.0736  0.3831
    1DIPC   NC317785   2.190   1.405   2.982 -0.1255 -0.2318  0.2964
    1DIPC   PO417786   1.923   1.591   3.274  0.0578  0.3457  0.1585
    1DIPC   GL117787   2.158   1.674   3.651  0.0829 -0.3877 -0.1373
    1DIPC   GL217788   2.382   1.511   3.700 -0.3697  0.2833 -0.1917
    1DIPC   C1A17789   1.959   1.810   4.073 -0.2921 -0.1874 -0.3307
    1DIPC   D2A17790   1.589   1.736   4.294 -0.0337 -0.0921 -0.1700
    1DIPC   D3A17791   1.579   1.559   4.673  0.1377 -0.0606 -0.2416
    1DIPC   C4A17792   1.275   1.429   4.816  0.3588  0.1955 -0.0172
    1DIPC   C1B17793   2.850   1.606   3.862  0.2358  0.0095  0.0228
    1DIPC   D2B17794   3.247   1.513   3.784  0.0942 -0.2750  0.0948
    1DIPC   D3B17795   3.407   1.898   4.027  0.0883 -0.0879 -0.0354
    1DIPC   C4B17796   3.246   1.712   4.372  0.0780  0.0220  0.1746
    1DIPC   NC317797  27.412  17.200   1.656  0.1336 -0.0971 -0.3441
    1DIPC   PO417798  27.521  17.347   2.152 -0.0692  0.0657  0.2175
    1DIPC   GL117799  27.781  17.391   2.553 -0.0307 -0.1921  0.3668
    1DIPC   GL217800  27.685  17.169   2.822  0.1483  0.2147  0.2384
    1DIPC   C1A17801  28.182  17.202   2.793  0.1605 -0.0169  0.3495
    1DIPC   D2A17802  28.564  17.108   2.887 -0.2676 -0.2386 -0.0604
    1DIPC   D3A17803  28.350  17.044   3.263  0.1538  0.2146  0.0810
    1DIPC   C4A17804  28.436  17.344   3.637  0.1046  0.2122  0.0975
    1DIPC   C1B17805  27.745  17.071   3.244  0.1260  0.0763  0.0527
    1DIPC   D2B17806  27.886  16.762   3.357 -0.1991  0.1741  0.0725
    1DIPC   D3B17807  28.032  16.681   3.796 -0.0805  0.0934 -0.2063
    1DIPC   C4B17808  28.257  16.544   4.143 -0.3364 -0.0601  0.0652
    1DIPC   NC317809   5.965   5.415   3.007  0.2559 -0.0027  0.0712
    1DIPC   PO417810   5.881   5.632   3.380  0.2285 -0.1436 -0.2107
    1DIPC   GL117811   5.599   5.533   3.681  0.0695  0.0480  0.2865
    1DIPC   GL217812   5.751   5.347   3.957  0.1419 -0.0592 -0.2433
    1DIPC   C1A17813   5.265   5.538   3.953  0.1815  0.0784 -0.0835
    1DIPC   D2A17814   4.846   5.579   4.076 -0.2195  0.3060 -0.1066
    1DIPC   D3A17815   4.555   5.950   4.264 -0.2452  0.1410 -0.1751
    1DIPC   C4A17816   4.292   5.798   4.629 -0.1039  0.3133  0.1571
    1DIPC   C1B17817   5.651   5.463   4.361  0.0028  0.0179 -0.4860
    1DIPC   D2B17818   5.750   5.895   4.274 -0.2724 -0.0304 -0.0737
    1DIPC   D3B17819   5.948   6.023   4.665 -0.0037  0.0691  0.0981
    1DIPC   C4B17820   5.749   6.203   4.926  0.4259 -0.4292  0.2802
    1DIPC   NC317821   2.569  15.114   2.699  0.0409 -0.2081  0.0235
    1DIPC   PO417822   2.238  15.452   2.788 -0.4016 -0.0379  0.1539
    1DIPC   GL117823   2.461  15.347   3.122  0.0823  0.1983  0.0196
    1DIPC   GL217824   2.750  15.139   3.233  0.0847 -0.0188  0.2344
    1DIPC   C1A17825   2.309  15.170   3.498  0.0591  0.2756  0.1280
    1DIPC   D2A17826   2.011  15.025   3.726  0.0579  0.0682  0.2293
    1DIPC   D3A17827   1.676  14.768   3.743  0.1163 -0.2020  0.3351
    1DIPC   C4A17828   1.286  14.798   3.923 -0.1758 -0.2482 -0.0186
    1DIPC   C1B17829   2.751  15.414   3.581 -0.1405 -0.1868 -0.0330
    1DIPC   D2B17830   2.968  15.615   3.904  0.0263  0.2458 -0.3584
    1DIPC   D3B17831   2.777  15.773   4.195  0.0368 -0.2636 -0.2466
    1DIPC   C4B17832   2.866  16.276   4.117 -0.0237  0.0786  0.0799
    1DIPC   NC317833   5.931  22.224   2.163  0.1623 -0.3578 -0.3391
    1DIPC   PO417834   5.606  22.487   2.397 -0.2191 -0.0247 -0.0807
    1DIPC   GL117835   5.282  22.383   2.655 -0.0249 -0.1735  0.2471
    1DIPC   GL217836   5.410  22.500   2.915  0.2381 -0.3885 -0.0410
    1DIPC   C1A17837   5.173  22.101   3.010  0.0977  0.2351 -0.0331
    1DIPC   D2A17838   4.886  21.632   2.931 -0.1284 -0.0359  0.1067
    1DIPC   D3A17839   5.221  21.746   2.674 -0.3129 -0.2932 -0.0057
    1DIPC   C4A17840   5.529  21.745   2.980 -0.2612 -0.0374 -0.1522
    1DIPC   C1B17841   5.488  22.464   3.295 -0.0943  0.3093  0.2713
    1DIPC   D2B17842   5.539  22.312   3.748  0.1904 -0.1514 -0.0103
    1DIPC   D3B17843   5.162  22.488   3.978  0.2472 -0.2089  0.0464
    1DIPC   C4B17844   4.847  22.733   3.845  0.0620  0.0146 -0.2875
    1DIPC   NC317845  27.748   7.036   2.222  0.1275 -0.1666  0.0333
    1DIPC   PO417846  27.614   6.665   2.451 -0.1036 -0.2871  0.1982
    1DIPC   GL117847  27.300   6.965   2.669 -0.0592 -0.1112 -0.1260
    1DIPC   GL217848  27.022   6.773   2.677 -0.0542 -0.1143 -0.1577
    1DIPC   C1A17849  27.218   7.136   3.088 -0.1653 -0.1905 -0.3189
    1DIPC   D2A17850  27.382   6.961   3.439  0.0465 -0.3918 -0.2709
    1DIPC   D3A17851  27.096   7.274   3.646 -0.0809  0.1263  0.1792
    1DIPC   C4A17852  27.445   7.492   3.756  0.1502  0.0795 -0.3077
    1DIPC   C1B17853  26.956   6.693   3.135  0.0582  0.0225  0.0239
    1DIPC   D2B17854  26.844   6.849   3.545  0.1946 -0.6724 -0.1695
    1DIPC   D3B17855  26.952   6.595   3.925  0.0562 -0.0594 -0.2995
    1DIPC   C4B17856  27.309   6.838   3.968  0.0640  0.3089 -0.1741
    1DIPC   NC317857   7.613  14.028   2.400 -0.1326  0.0062  0.0854
    1DIPC   PO417858   7.276  13.977   2.710 -0.0046 -0.0677  0.1810
    1DIPC   GL117859   7.172  14.277   2.926  0.0523 -0.0187  0.1080
    1DIPC   GL217860   6.919  14.099   3.039 -0.1863  0.3204 -0.3281
    1DIPC   C1A17861   7.332  14.312   3.310 -0.0113 -0.3671 -0.3052
    1DIPC   D2A17862   7.199  14.069   3.682 -0.1376 -0.1781  0.3899
    1DIPC   D3A17863   7.251  13.826   3.365  0.2091  0.0123  0.3019
    1DIPC   C4A17864   7.028  13.347   3.326  0.0629 -0.0241  0.0289
    1DIPC   C1B17865   6.856  14.185   3.393 -0.4571 -0.0515  0.0576
    1DIPC   D2B17866   6.602  14.163   3.745  0.1601 -0.1807  0.2800
    1DIPC   D3B17867   6.871  14.321   4.048 -0.3448 -0.2008  0.2227
    1DIPC   C4B17868   7.173  14.393   4.426  0.1234  0.0093  0.0681
    1DIPC   NC317869  26.508  13.256   2.755  0.0961 -0.1123 -0.0800
    1DIPC   PO417870  26.098  13.462   2.773 -0.0089 -0.2631  0.2251
    1DIPC   GL117871  26.008  13.607   3.069  0.2363 -0.1229  0.1745
    1DIPC   GL217872  26.340  13.442   3.241  0.1567 -0.0721 -0.1703
    1DIPC   C1A17873  26.036  13.782   3.495 -0.1798  0.0328 -0.1663
    1DIPC   D2A17874  26.299  14.020   3.779  0.0956  0.0984 -0.0752
    1DIPC   D3A17875  26.151  13.919   4.143  0.2029  0.1173  0.3125
    1DIPC   C4A17876  26.413  13.797   4.551 -0.0755 -0.1679 -0.0972
    1DIPC   C1B17877  26.378  13.400   3.660  0.3243 -0.2551 -0.1958
    1DIPC   D2B17878  26.654  13.629   3.941 -0.2063  0.3095 -0.0406
    1DIPC   D3B17879  26.995  13.337   3.976  0.2616 -0.0413  0.2594
    1DIPC   C4B17880  27.243  12.925   4.084  0.0272  0.0269  0.5044
    1DIPC   NC317881   2.555   9.763   2.705 -0.1770 -0.2022 -0.2617
    1DIPC   PO417882   2.309  10.035   2.958  0.0790 -0.5149 -0.0731
    1DIPC   GL117883   2.119   9.699   3.275 -0.2219  0.0629 -0.1086
    1DIPC   GL217884   2.008   9.336   3.284  0.0737  0.2713 -0.0441
    1DIPC   C1A17885   2.064   9.668   3.680 -0.0307 -0.1305 -0.2047
    1DIPC   D2A17886   2.203   9.638   4.129 -0.2415  0.0656 -0.2165
    1DIPC   D3A17887   1.785   9.804   4.338  0.1678  0.0956 -0.0981
    1DIPC   C4A17888   1.783   9.799   4.771  0.0508 -0.0837 -0.1660
    1DIPC   C1B17889   1.795   9.070   3.614  0.2133 -0.0676  0.0898
    1DIPC   D2B17890   1.830   8.797   3.955  0.2041 -0.3921 -0.0471
    1DIPC   D3B17891   1.914   8.738   4.402 -0.1287 -0.1525 -0.0671
    1DIPC   C4B17892   2.048   8.395   4.406 -0.2877  0.0399  0.1244
    1DIPC   NC317893  24.367   1.124   2.979 -0.0158  0.3571  0.1874
    1DIPC   PO417894  24.722   0.957   3.315  0.2773  0.0845  0.2115
    1DIPC   GL117895  24.445   1.166   3.554  0.4263 -0.2717 -0.3116
    1DIPC   GL217896  24.584   1.444   3.707  0.2430 -0.1478  0.0048
    1DIPC   C1A17897  24.254   1.287   3.957  0.2863  0.0311  0.1424
    1DIPC   D2A17898  24.294   1.594   4.248  0.1077 -0.0527 -0.2841
    1DIPC   D3A17899  24.064   1.930   4.415 -0.1269  0.0073  0.2359
    1DIPC   C4A17900  23.611   2.025   4.372 -0.2206 -0.1391  0.0840
    1DIPC   C1B17901  24.714   1.413   4.106  0.1814  0.2565  0.0228
    1DIPC   D2B17902  24.690   1.400   4.526 -0.0832  0.2772 -0.0070
    1DIPC   D3B17903  25.151   1.373   4.666  0.0143 -0.0681  0.0195
    1DIPC   C4B17904  25.371   1.058   4.810 -0.1967  0.2281  0.1766
    1DIPC   NC317905  27.793  20.654   2.487  0.3354  0.1960  0.0150
    1DIPC   PO417906  27.875  20.880   2.928 -0.0477  0.2265  0.0139
    1DIPC   GL117907  27.716  21.000   3.228 -0.1813  0.0851  0.1109
    1DIPC   GL217908  27.811  21.343   3.381  0.3012 -0.0731 -0.0203
    1DIPC   C1A17909  27.789  20.995   3.723  0.0395  0.2529  0.1476
    1DIPC   D2A17910  28.091  21.000   3.965 -0.1442 -0.0865  0.1666
    1DIPC   D3A17911  28.198  20.545   4.023  0.1576  0.0715  0.0001
    1DIPC   C4A17912  28.016  20.183   3.805 -0.1112  0.2615  0.1960
    1DIPC   C1B17913  28.186  21.150   3.489 -0.0288  0.3631  0.0800
    1DIPC   D2B17914  28.521  20.953   3.767  0.0070  0.0519  0.2035
    1DIPC   D3B17915  28.577  20.900   4.251 -0.1155 -0.0582  0.2494
    1DIPC   C4B17916  28.459  20.512   4.471  0.2104 -0.0330  0.1743
    1DIPC   NC317917  10.785  23.176   3.393  0.0234 -0.2309 -0.0024
    1DIPC   PO417918  10.703  22.809   3.093  0.1436 -0.4395 -0.1326
    1DIPC   GL117919  10.589  22.698   3.486  0.1823  0.0213  0.1178
    1DIPC   GL217920  10.712  22.386   3.684 -0.1141 -0.1795  0.0448
    1DIPC   C1A17921  10.516  22.820   3.877 -0.0007  0.2118 -0.0433
    1DIPC   D2A17922  10.436  22.981   4.284  0.0753 -0.1135 -0.0398
    1DIPC   D3A17923  10.138  23.067   4.544 -0.0182 -0.1880  0.3639
    1DIPC   C4A17924  10.007  23.529   4.762  0.2260  0.3949  0.3876
    1DIPC   C1B17925  10.651  22.386   4.033  0.0647 -0.3955  0.4176
    1DIPC   D2B17926  10.676  22.485   4.455  0.1255  0.1204 -0.0070
    1DIPC   D3B17927  10.313  22.609   4.591 -0.1983  0.0844  0.1430
    1DIPC   C4B17928  10.071  22.220   4.804  0.1875 -0.1423 -0.0687
    1DIPC   NC317929  22.652  10.704   3.089 -0.0042 -0.2404  0.4075
    1DIPC   PO417930  22.643  10.406   3.401 -0.0155 -0.3330 -0.2453
    1DIPC   GL117931  22.619  10.252   3.735 -0.0684 -0.0005  0.1959
    1DIPC   GL217932  22.694   9.932   3.907 -0.0600 -0.2482 -0.2335
    1DIPC   C1A17933  23.027  10.370   3.948 -0.2093  0.1092 -0.0458
    1DIPC   D2A17934  23.473  10.284   4.047 -0.2901  0.1387 -0.1162
    1DIPC   D3A17935  23.363   9.961   4.320  0.0153 -0.0754 -0.1340
    1DIPC   C4A17936  23.007   9.719   4.230 -0.1885  0.1997  0.2858
    1DIPC   C1B17937  22.459   9.611   4.077 -0.0790 -0.3891  0.0940
    1DIPC   D2B17938  22.649   9.368   4.373  0.1347 -0.1530 -0.0666
    1DIPC   D3B17939  22.365   9.636   4.571 -0.3169  0.3522 -0.0088
    1DIPC   C4B17940  22.503   9.991   4.743  0.1265  0.1529  0.1405
    1DIPC   NC317941  11.381   2.488   3.245  0.1388  0.1618 -0.0787
    1DIPC   PO417942  11.399   2.632   3.703  0.0290 -0.0135  0.1667
    1DIPC   GL117943  11.369   2.424   4.094 -0.1039 -0.0198  0.2441
    1DIPC   GL217944  11.609   2.262   4.054 -0.1005  0.0264 -0.0770
    1DIPC   C1A17945  11.100   2.052   4.371 -0.0811 -0.0134 -0.1578
    1DIPC   D2A17946  11.030   1.640   4.475  0.1186 -0.0960  0.1789
    1DIPC   D3A17947  10.677   1.865   4.269  0.2739  0.1231 -0.2648
    1DIPC   C4A17948  10.494   2.274   4.550  0.1669 -0.0040 -0.0631
    1DIPC   C1B17949  11.607   2.221   4.486 -0.0372 -0.0284  0.0349
    1DIPC   D2B17950  11.841   2.172   4.930  0.0021  0.1936 -0.1456
    1DIPC   D3B17951  11.926   2.002   5.424  0.2039  0.4048 -0.0979
    1DIPC   C4B17952  11.732   2.078   5.778 -0.1825  0.1623 -0.2257
    1DIPC   NC317953   9.576  24.513   2.602 -0.0901  0.2925  0.2920
    1DIPC   PO417954   9.759  24.066   2.526 -0.0445  0.0455 -0.3750
    1DIPC   GL117955   9.794  23.861   2.935 -0.2658  0.1214 -0.1817
    1DIPC   GL217956   9.826  23.409   3.040  0.3787  0.1104  0.1019
    1DIPC   C1A17957   9.991  23.862   3.292  0.0765 -0.0663 -0.1526
    1DIPC   D2A17958  10.293  24.094   3.497 -0.0644 -0.0137 -0.2958
    1DIPC   D3A17959  10.656  23.949   3.624 -0.1902  0.0020  0.0305
    1DIPC   C4A17960  10.963  24.205   3.705  0.0436  0.2352 -0.1666
    1DIPC   C1B17961   9.543  23.595   3.312  0.0955 -0.0542  0.2638
    1DIPC   D2B17962   9.470  23.751   3.676 -0.2766  0.0697  0.0607
    1DIPC   D3B17963   9.366  23.362   3.969  0.1471 -0.1190  0.1570
    1DIPC   C4B17964   8.982  23.086   3.914 -0.0325 -0.1607  0.1921
    1DIPC   NC317965  23.425   7.642   2.483  0.1036  0.0383  0.0200
    1DIPC   PO417966  23.351   7.829   2.867 -0.1123 -0.1409  0.0566
    1DIPC   GL117967  23.507   7.903   3.250 -0.2000 -0.1934 -0.0397
    1DIPC   GL217968  23.949   7.845   3.318  0.0484 -0.1287  0.3563
    1DIPC   C1A17969  23.322   8.028   3.670 -0.3085  0.1582  0.3144
    1DIPC   D2A17970  23.023   7.794   3.809  0.1028 -0.1127  0.1540
    1DIPC   D3A17971  22.755   7.700   3.598 -0.2076  0.1590 -0.1220
    1DIPC   C4A17972  22.349   7.732   3.709  0.3146  0.1659  0.0002
    1DIPC   C1B17973  23.956   8.197   3.574  0.1400  0.0667 -0.0921
    1DIPC   D2B17974  23.902   8.659   3.656 -0.0917  0.0152 -0.0503
    1DIPC   D3B17975  23.996   8.686   4.144  0.1450 -0.0053 -0.0868
    1DIPC   C4B17976  23.870   8.770   4.560 -0.2145  0.1178 -0.1398
    1DIPC   NC317977  27.726  18.692   2.565 -0.1158  0.1714  0.0007
    1DIPC   PO417978  27.842  18.309   2.580 -0.1600 -0.0058  0.1473
    1DIPC   GL117979  27.968  18.375   2.958  0.0623  0.1065 -0.0925
    1DIPC   GL217980  27.747  18.602   3.102 -0.1450 -0.0472  0.0750
    1DIPC   C1A17981  28.063  18.399   3.389 -0.0039 -0.2011 -0.0839
    1DIPC   D2A17982  27.881  18.317   3.797  0.0140  0.2250 -0.1798
    1DIPC   D3A17983  27.844  18.493   4.270 -0.2342 -0.1725  0.0261
    1DIPC   C4A17984  28.025  18.896   4.357 -0.1378 -0.0096  0.3240
    1DIPC   C1B17985  27.476  18.747   3.437  0.1203 -0.0488 -0.1597
    1DIPC   D2B17986  27.123  18.687   3.898 -0.2694  0.0747  0.2331
    1DIPC   D3B17987  26.951  18.991   3.610  0.1549  0.0611  0.2248
    1DIPC   C4B17988  27.257  19.235   3.357 -0.0492 -0.0596  0.2731
    1DIPC   NC317989  23.889  13.050   2.698  0.1091 -0.0823 -0.1395
    1DIPC   PO417990  23.472  12.964   2.871  0.5015 -0.0990  0.2108
    1DIPC   GL117991  23.682  13.130   3.220  0.0210  0.2667  0.1668
    1DIPC   GL217992  24.083  13.093   3.171  0.1303  0.1899 -0.5159
    1DIPC   C1A17993  23.909  13.506   3.479  0.0782 -0.2335  0.0373
    1DIPC   D2A17994  24.329  13.439   3.641  0.0927  0.1744  0.1007
    1DIPC   D3A17995  24.535  13.142   3.463 -0.3084 -0.0813  0.0851
    1DIPC   C4A17996  24.639  12.778   3.663  0.3680 -0.1374  0.3409
    1DIPC   C1B17997  24.244  12.726   3.343 -0.0769 -0.1284  0.2877
    1DIPC   D2B17998  24.127  12.484   3.625  0.0183 -0.1391  0.1641
    1DIPC   D3B17999  24.137  11.985   3.640  0.0202 -0.1552 -0.1611
    1DIPC   C4B18000  23.810  11.828   3.887  0.2180  0.2368 -0.1336
    1DIPC   NC318001   5.114   6.718   3.177  0.2157  0.0115  0.1883
    1DIPC   PO418002   4.882   7.067   3.394  0.0349  0.1557  0.1013
    1DIPC   GL118003   4.787   7.289   3.771  0.0640 -0.1657 -0.2525
    1DIPC   GL218004   4.978   7.455   3.922  0.3136  0.0831  0.0552
    1DIPC   C1A18005   4.596   7.242   4.251 -0.2304 -0.2118 -0.3752
    1DIPC   D2A18006   4.569   6.827   4.421  0.2559  0.2061  0.4355
    1DIPC   D3A18007   4.123   6.864   4.489 -0.0898 -0.0845 -0.0098
    1DIPC   C4A18008   3.831   7.106   4.306 -0.2444  0.2320 -0.1377
    1DIPC   C1B18009   5.390   7.718   4.166  0.0086  0.5010  0.0118
    1DIPC   D2B18010   5.817   7.657   4.258 -0.1624  0.2247  0.0891
    1DIPC   D3B18011   6.065   7.453   4.496  0.1734 -0.1784  0.0086
    1DIPC   C4B18012   6.032   7.382   4.928  0.0239 -0.0825  0.1395
    1DIPC   NC318013  22.976  15.060   2.359 -0.2030  0.0541  0.6466
    1DIPC   PO418014  23.391  15.090   2.526  0.0051 -0.0319 -0.0066
    1DIPC   GL118015  23.488  14.985   2.950  0.2653  0.0425 -0.2685
    1DIPC   GL218016  23.262  14.634   3.158  0.2358 -0.1530 -0.2535
    1DIPC   C1A18017  23.670  15.143   3.307  0.4061 -0.0200  0.0199
    1DIPC   D2A18018  24.121  15.108   3.506  0.4212  0.1695  0.3017
    1DIPC   D3A18019  24.345  14.733   3.496  0.4876 -0.2349  0.1816
    1DIPC   C4A18020  24.415  14.517   3.843 -0.0706 -0.0741  0.4762
    1DIPC   C1B18021  23.307  14.896   3.588  0.2117 -0.1330  0.1012
    1DIPC   D2B18022  23.153  14.951   4.047 -0.2390 -0.1454 -0.3077
    1DIPC   D3B18023  23.499  14.540   4.067  0.2505  0.2244  0.2063
    1DIPC   C4B18024  23.413  14.184   3.899 -0.0776 -0.1018 -0.1377
    1DIPC   NC318025  24.401  22.489   3.360 -0.2040 -0.1071 -0.2589
    1DIPC   PO418026  24.321  22.885   3.073 -0.0728  0.0115 -0.1522
    1DIPC   GL118027  24.065  23.040   3.374  0.2541  0.0645 -0.2066
    1DIPC   GL218028  23.753  23.024   3.454 -0.0332 -0.0831  0.1160
    1DIPC   C1A18029  24.136  22.962   3.806 -0.1826 -0.0824 -0.1907
    1DIPC   D2A18030  24.326  22.567   3.882 -0.0588  0.0035 -0.5807
    1DIPC   D3A18031  24.577  22.579   4.150 -0.1461  0.0853  0.3731
    1DIPC   C4A18032  24.845  22.402   3.828 -0.2746 -0.1572  0.0190
    1DIPC   C1B18033  23.682  23.305   3.798 -0.0243 -0.1664  0.0878
    1DIPC   D2B18034  23.508  23.197   4.158 -0.1182 -0.2877 -0.0566
    1DIPC   D3B18035  23.593  23.573   4.390  0.2146 -0.0057  0.0460
    1DIPC   C4B18036  23.721  23.798   4.097  0.1027 -0.1947  0.2309
    1DIPC   NC318037   2.747  20.243   2.019 -0.0559  0.1056 -0.1227
    1DIPC   PO418038   3.142  19.973   2.095  0.3184  0.0346 -0.3410
    1DIPC   GL118039   3.079  19.832   2.568  0.1516  0.1039 -0.1337
    1DIPC   GL218040   3.174  19.920   2.816 -0.2877 -0.0925  0.0875
    1DIPC   C1A18041   2.898  19.554   2.971 -0.2629 -0.0978 -0.0711
    1DIPC   D2A18042   3.092  19.273   3.195  0.0485 -0.0723  0.1492
    1DIPC   D3A18043   3.111  19.458   3.488  0.0667 -0.1346  0.0369
    1DIPC   C4A18044   3.119  19.906   3.478 -0.1860 -0.1638  0.0432
    1DIPC   C1B18045   3.049  20.195   3.021 -0.1022 -0.1142  0.1699
    1DIPC   D2B18046   3.268  20.411   3.149  0.1187  0.4051 -0.0500
    1DIPC   D3B18047   3.248  20.831   3.280  0.2562  0.0909  0.4226
    1DIPC   C4B18048   3.605  21.073   3.377 -0.0236  0.2816 -0.2775
    1DIPC   NC318049   1.399  27.574   2.981  0.0054 -0.3283 -0.2374
    1DIPC   PO418050   1.527  27.938   2.768  0.0543  0.1006 -0.1629
    1DIPC   GL118051   1.744  28.077   3.117 -0.0958 -0.1582 -0.0365
    1DIPC   GL218052   1.708  28.091   3.394  0.1981 -0.0381  0.1672
    1DIPC   C1A18053   2.026  28.380   3.601  0.1533 -0.0864  0.0961
    1DIPC   D2A18054   2.446  28.433   3.804  0.1167  0.1972  0.0896
    1DIPC   D3A18055   2.243  28.216   4.123  0.3278  0.1861 -0.1648
    1DIPC   C4A18056   2.426  28.097   4.548  0.0950 -0.0882  0.1753
    1DIPC   C1B18057   1.523  27.952   3.756 -0.0952 -0.2062 -0.1107
    1DIPC   D2B18058   1.452  27.923   4.122 -0.0879  0.3530 -0.1115
    1DIPC   D3B18059   1.807  27.958   4.317 -0.0186  0.0508  0.1446
    1DIPC   C4B18060   1.951  27.891   4.741 -0.0746 -0.2410 -0.1948
    1DIPC   NC318061  13.689  28.551   3.672 -0.0508 -0.1018  0.0120
    1DIPC   PO418062  13.492  28.191   3.897 -0.0843 -0.0813  0.3002
    1DIPC   GL118063  13.245  28.371   4.322 -0.1601 -0.1008  0.1760
    1DIPC   GL218064  13.449  28.144   4.440 -0.1789  0.2175 -0.2234
    1DIPC   C1A18065  13.002  28.150   4.613  0.0237 -0.0008  0.0955
    1DIPC   D2A18066  12.573  28.213   4.704 -0.2383 -0.0498  0.0649
    1DIPC   D3A18067  12.700  27.781   4.870  0.2183  0.0055  0.1607
    1DIPC   C4A18068  12.364  27.751   5.051  0.1201  0.2187  0.0448
    1DIPC   C1B18069  13.458  28.384   4.843  0.1009  0.1796  0.1229
    1DIPC   D2B18070  13.747  28.466   5.178 -0.2727 -0.2685  0.3504
    1DIPC   D3B18071  14.170  28.605   5.033 -0.0624 -0.2173 -0.0352
    1DIPC   C4B18072  14.288  29.003   4.994 -0.2595  0.0347 -0.3443
    1DIPC   NC318073  16.066   1.162   3.440  0.0890 -0.0232 -0.0169
    1DIPC   PO418074  16.222   1.237   3.867  0.1327 -0.0507 -0.0568
    1DIPC   GL118075  16.120   0.948   4.253 -0.1662  0.0254  0.2731
    1DIPC   GL218076  16.022   0.625   4.272  0.2909 -0.0447 -0.1393
    1DIPC   C1A18077  15.887   1.142   4.543  0.3635 -0.0288 -0.0796
    1DIPC   D2A18078  15.924   1.514   4.747 -0.3056  0.4533 -0.0405
    1DIPC   D3A18079  15.604   1.855   4.753  0.1419  0.2747 -0.4051
    1DIPC   C4A18080  15.684   2.261   4.882  0.1265 -0.0825  0.2549
    1DIPC   C1B18081  15.949   0.676   4.695  0.1685  0.3059 -0.2027
    1DIPC   D2B18082  15.980   0.375   5.053 -0.2452 -0.1229  0.0406
    1DIPC   D3B18083  16.237   0.470   5.468 -0.0899 -0.1137  0.1341
    1DIPC   C4B18084  16.573   0.128   5.649  0.2207  0.0927  0.2498
    1DIPC   NC318085   6.378   3.282   2.939 -0.1030  0.3403  0.2459
    1DIPC   PO418086   6.574   3.668   2.996  0.1536 -0.3490 -0.1281
    1DIPC   GL118087   6.818   3.808   3.395 -0.1342 -0.1564  0.0867
    1DIPC   GL218088   6.818   3.604   3.665  0.2251  0.1101  0.1538
    1DIPC   C1A18089   7.015   4.022   3.728  0.1908 -0.1046 -0.3382
    1DIPC   D2A18090   6.913   4.202   4.136  0.3246  0.1104 -0.2750
    1DIPC   D3A18091   6.702   4.038   4.510  0.0260  0.0632 -0.3620
    1DIPC   C4A18092   6.332   3.631   4.419 -0.2653 -0.0655 -0.0781
    1DIPC   C1B18093   6.493   3.364   3.881  0.0044  0.0020  0.1015
    1DIPC   D2B18094   6.156   3.220   4.118  0.0125 -0.1585  0.1611
    1DIPC   D3B18095   5.950   3.061   4.422 -0.2680  0.1865  0.1086
    1DIPC   C4B18096   6.003   3.136   4.842 -0.2638  0.0271 -0.2027
    1DIPC   NC318097  26.337   6.369   2.238  0.1232 -0.0729 -0.1253
    1DIPC   PO418098  26.654   6.429   2.580 -0.0493  0.4330 -0.1101
    1DIPC   GL118099  26.461   6.356   2.964 -0.0829 -0.0896  0.2885
    1DIPC   GL218100  26.455   6.070   3.121 -0.0991  0.0060  0.3428
    1DIPC   C1A18101  26.468   6.521   3.392  0.1219 -0.0348  0.2638
    1DIPC   D2A18102  26.496   6.627   3.838 -0.4607 -0.0833  0.0735
    1DIPC   D3A18103  26.360   6.962   4.002  0.2643  0.3697  0.2026
    1DIPC   C4A18104  26.095   7.017   4.314  0.0060  0.2579 -0.0852
    1DIPC   C1B18105  26.497   6.026   3.580  0.4258 -0.0371  0.2384
    1DIPC   D2B18106  26.748   6.151   3.731 -0.0192  0.2804 -0.1110
    1DIPC   D3B18107  26.613   6.294   4.182 -0.3637  0.1482 -0.3127
    1DIPC   C4B18108  26.514   6.684   4.354 -0.2916  0.1714  0.2545
    1DIPC   NC318109  14.994   0.345   3.881  0.3928  0.0673 -0.0058
    1DIPC   PO418110  15.278   0.712   3.627 -0.2842 -0.0581  0.0610
    1DIPC   GL118111  15.367   0.740   4.057  0.1939  0.1497 -0.1681
    1DIPC   GL218112  15.474   0.447   4.300  0.0275  0.1744 -0.1526
    1DIPC   C1A18113  15.415   0.913   4.407 -0.0768  0.1727  0.0007
    1DIPC   D2A18114  15.446   0.911   4.860  0.2216 -0.0397 -0.0734
    1DIPC   D3A18115  15.444   0.591   5.033 -0.0513 -0.0675 -0.1202
    1DIPC   C4A18116  15.591   0.640   5.433 -0.0962 -0.0606  0.4492
    1DIPC   C1B18117  15.260   0.450   4.578 -0.3309  0.1660  0.2801
    1DIPC   D2B18118  14.957   0.526   4.863 -0.3592  0.0500 -0.2128
    1DIPC   D3B18119  14.750   0.543   5.304 -0.2601  0.0295  0.0149
    1DIPC   C4B18120  14.671   0.918   5.498 -0.1677  0.1259  0.1618
    1DIPC   NC318121   4.837  24.962   2.056  0.1665 -0.0217  0.2204
    1DIPC   PO418122   5.039  24.661   2.375 -0.2459  0.0853  0.2232
    1DIPC   GL118123   5.267  24.280   2.555  0.0274  0.1166  0.0648
    1DIPC   GL218124   5.392  24.289   2.834 -0.1130 -0.1294 -0.3975
    1DIPC   C1A18125   5.375  23.778   2.708  0.1388  0.1333 -0.0117
    1DIPC   D2A18126   5.237  23.575   3.121  0.1938 -0.1039  0.0440
    1DIPC   D3A18127   4.891  23.400   3.265 -0.2322 -0.0996  0.1679
    1DIPC   C4A18128   4.701  23.436   3.680 -0.2726 -0.0648 -0.0799
    1DIPC   C1B18129   5.487  24.521   3.170 -0.0849 -0.2715 -0.0532
    1DIPC   D2B18130   5.741  24.396   3.492 -0.0418 -0.2578  0.1617
    1DIPC   D3B18131   5.351  24.202   3.583  0.2951 -0.1144 -0.2276
    1DIPC   C4B18132   5.072  24.493   3.467  0.0112  0.1736 -0.2270
    1DIPC   NC318133  23.188  13.089   3.250  0.0932  0.0837  0.1034
    1DIPC   PO418134  23.261  12.604   3.185  0.1223  0.0535  0.1303
    1DIPC   GL118135  23.318  12.641   3.550 -0.0840  0.2926 -0.0256
    1DIPC   GL218136  23.624  12.779   3.535 -0.1547 -0.1975 -0.0592
    1DIPC   C1A18137  23.472  12.373   3.883 -0.0096  0.2525 -0.1749
    1DIPC   D2A18138  23.769  12.305   4.096  0.2100 -0.0252 -0.4200
    1DIPC   D3A18139  23.859  12.752   4.001  0.0012  0.0908  0.3351
    1DIPC   C4A18140  24.052  13.009   3.643  0.0609 -0.1431 -0.3795
    1DIPC   C1B18141  23.615  13.177   3.778  0.1276 -0.2635 -0.3801
    1DIPC   D2B18142  23.916  13.356   3.959 -0.1547 -0.0190  0.0148
    1DIPC   D3B18143  23.712  13.086   4.366 -0.0591 -0.2069 -0.0870
    1DIPC   C4B18144  23.336  13.090   4.557 -0.1554 -0.1733 -0.1726
    1DIPC   NC318145  20.448  23.435   3.481 -0.1422  0.0755 -0.1031
    1DIPC   PO418146  20.340  23.052   3.636 -0.2208 -0.0256 -0.0815
    1DIPC   GL118147  20.350  23.155   4.099 -0.2726 -0.2162  0.2540
    1DIPC   GL218148  20.098  22.872   4.209 -0.1114  0.1680  0.2402
    1DIPC   C1A18149  20.401  23.135   4.612 -0.1135 -0.1440 -0.1845
    1DIPC   D2A18150  20.355  22.958   4.989 -0.0143  0.1823 -0.1598
    1DIPC   D3A18151  20.054  23.101   5.253 -0.1533 -0.0654 -0.1198
    1DIPC   C4A18152  19.783  22.848   5.350  0.1013 -0.2579 -0.0815
    1DIPC   C1B18153  20.065  22.657   4.620 -0.1121 -0.0154  0.0152
    1DIPC   D2B18154  19.932  22.547   5.029  0.1397 -0.2385 -0.0280
    1DIPC   D3B18155  20.388  22.425   5.002 -0.1153  0.0657 -0.0868
    1DIPC   C4B18156  20.532  22.066   4.943 -0.1853 -0.0010  0.0529
    1DIPC   NC318157   3.885   0.166   2.750 -0.0071  0.0437  0.1883
    1DIPC   PO418158   3.622   0.335   3.112  0.0435 -0.0946  0.2344
    1DIPC   GL118159   3.545   0.466   3.545 -0.2393 -0.1590  0.1521
    1DIPC   GL218160   3.396   0.723   3.668 -0.1863 -0.2244 -0.1179
    1DIPC   C1A18161   3.883   0.548   3.868 -0.2933  0.1541 -0.0774
    1DIPC   D2A18162   3.861   0.553   4.294 -0.1018  0.4057  0.1758
    1DIPC   D3A18163   3.947   0.498   4.748 -0.1077 -0.0377 -0.0648
    1DIPC   C4A18164   3.771   0.059   4.948 -0.2240  0.1106 -0.0662
    1DIPC   C1B18165   3.402   0.556   4.122 -0.0902 -0.1151 -0.1314
    1DIPC   D2B18166   3.463   0.265   4.451 -0.0262  0.0154 -0.1154
    1DIPC   D3B18167   3.262  -0.144   4.243 -0.0870  0.2579 -0.2980
    1DIPC   C4B18168   2.964  -0.255   3.845 -0.3069 -0.1508  0.1315
    1DIPC   NC318169  28.305  19.863   2.555 -0.0912 -0.0458  0.0710
    1DIPC   PO418170  28.674  20.115   2.573 -0.0268  0.2803 -0.1160
    1DIPC   GL118171  28.692  19.960   2.958  0.0255 -0.1220  0.1073
    1DIPC   GL218172  28.432  19.838   3.086  0.1665  0.3615 -0.1808
    1DIPC   C1A18173  28.975  19.704   3.250 -0.2669 -0.1465  0.1744
    1DIPC   D2A18174  28.905  19.249   3.312  0.1106 -0.1313 -0.0833
    1DIPC   D3A18175  29.369  19.094   3.526  0.0379 -0.0282  0.0758
    1DIPC   C4A18176  29.709  19.092   3.231  0.0435 -0.1215  0.0985
    1DIPC   C1B18177  28.057  19.818   3.386 -0.0247 -0.2205  0.2038
    1DIPC   D2B18178  27.573  19.740   3.561  0.0183 -0.2426 -0.0620
    1DIPC   D3B18179  27.408  19.645   4.002  0.0192 -0.2295 -0.0462
    1DIPC   C4B18180  27.241  20.045   4.178 -0.1739 -0.1015  0.0205
    1DIPC   NC318181  24.971  25.269   3.171  0.1279  0.0942  0.0451
    1DIPC   PO418182  24.797  25.674   3.385  0.0818  0.0491 -0.0103
    1DIPC   GL118183  24.568  25.898   3.690  0.0480  0.0260 -0.2818
    1DIPC   GL218184  24.575  26.146   3.711  0.0810 -0.0314 -0.3268
    1DIPC   C1A18185  24.716  25.758   4.108  0.0504  0.0246 -0.0346
    1DIPC   D2A18186  24.767  25.893   4.616  0.1869  0.0916 -0.1045
    1DIPC   D3A18187  24.522  25.700   4.935  0.1377 -0.0880 -0.0012
    1DIPC   C4A18188  24.246  25.491   5.198 -0.0052  0.0637 -0.0846
    1DIPC   C1B18189  24.384  26.519   3.913 -0.0427  0.0894 -0.1142
    1DIPC   D2B18190  24.423  26.938   4.111 -0.0176  0.1661  0.2463
    1DIPC   D3B18191  24.649  27.035   4.539 -0.0709 -0.2152 -0.0556
    1DIPC   C4B18192  24.787  27.345   4.688 -0.1412 -0.2903 -0.1325
    1DIPC   NC318193  17.236  24.202   3.442  0.1847  0.1928  0.0459
    1DIPC   PO418194  17.615  24.392   3.595 -0.1448 -0.1427  0.0300
    1DIPC   GL118195  17.394  24.244   4.028  0.2148  0.0489  0.1350
    1DIPC   GL218196  17.580  24.270   4.269 -0.0256  0.0753 -0.2001
    1DIPC   C1A18197  17.151  24.579   4.241 -0.0471 -0.1135 -0.2902
    1DIPC   D2A18198  17.121  25.053   4.090  0.2557  0.0084 -0.0693
    1DIPC   D3A18199  17.150  25.271   4.482  0.2566  0.1338  0.2087
    1DIPC   C4A18200  17.400  25.148   4.808  0.1453 -0.0923 -0.1985
    1DIPC   C1B18201  17.407  24.389   4.643  0.2653  0.2448 -0.2110
    1DIPC   D2B18202  17.153  24.587   4.996 -0.0792  0.1153 -0.3543
    1DIPC   D3B18203  17.278  24.358   5.401 -0.2601 -0.0544 -0.0196
    1DIPC   C4B18204  17.002  24.435   5.697  0.0913  0.4448  0.0153
    1DIPC   NC318205  16.360  23.853   3.659  0.1916 -0.1185  0.4552
    1DIPC   PO418206  16.506  24.251   3.763 -0.3103 -0.1377  0.0249
    1DIPC   GL118207  16.479  24.083   4.135 -0.1510 -0.0316  0.2141
    1DIPC   GL218208  16.322  23.846   4.190  0.0384 -0.2585  0.2103
    1DIPC   C1A18209  16.468  24.081   4.619 -0.0065 -0.1498 -0.3152
    1DIPC   D2A18210  16.236  24.215   5.023  0.0825 -0.1247 -0.0193
    1DIPC   D3A18211  16.496  23.837   5.123 -0.0545 -0.1092 -0.3312
    1DIPC   C4A18212  16.933  23.739   5.166  0.0244  0.3331 -0.0926
    1DIPC   C1B18213  15.972  23.682   4.439  0.0474 -0.0993 -0.0845
    1DIPC   D2B18214  16.061  23.794   4.864  0.2003  0.0180 -0.0310
    1DIPC   D3B18215  15.998  23.482   5.194  0.0042  0.0680 -0.1753
    1DIPC   C4B18216  15.749  23.084   5.174 -0.0642 -0.0307 -0.0666
    1DIPC   NC318217  22.161  20.813   3.038  0.2269  0.0269  0.2951
    1DIPC   PO418218  22.368  20.628   3.433 -0.0589  0.0905 -0.0071
    1DIPC   GL118219  22.422  20.673   3.809 -0.2779  0.3528  0.1360
    1DIPC   GL218220  22.711  20.795   3.921  0.0687  0.1940  0.2226
    1DIPC   C1A18221  22.061  20.875   4.064  0.0451  0.2101 -0.1167
    1DIPC   D2A18222  21.667  20.718   4.077 -0.2209 -0.1810 -0.3195
    1DIPC   D3A18223  21.805  20.914   4.482 -0.2670 -0.2570 -0.3679
    1DIPC   C4A18224  21.950  21.145   4.848 -0.1212  0.0014  0.2862
    1DIPC   C1B18225  22.674  21.016   4.244 -0.0803 -0.1157 -0.2259
    1DIPC   D2B18226  22.934  21.049   4.668 -0.3594  0.0195  0.1285
    1DIPC   D3B18227  23.264  21.380   4.729  0.1138  0.0549 -0.1541
    1DIPC   C4B18228  23.523  21.811   4.635  0.1364 -0.0130 -0.0024
    1DIPC   NC318229   9.063  24.172   2.407 -0.1490  0.1100 -0.0513
    1DIPC   PO418230   9.052  24.601   2.546  0.1713 -0.2020  0.2848
    1DIPC   GL118231   8.755  24.653   2.903 -0.0331 -0.0863  0.2251
    1DIPC   GL218232   8.810  24.990   2.895 -0.1615  0.0450 -0.0509
    1DIPC   C1A18233   8.496  24.905   3.246 -0.4255 -0.0361 -0.0724
    1DIPC   D2A18234   8.077  24.823   3.298  0.0460 -0.0213 -0.1712
    1DIPC   D3A18235   8.183  24.527   3.604 -0.1782 -0.0268  0.1158
    1DIPC   C4A18236   7.847  24.773   3.846 -0.1245 -0.1470 -0.0974
    1DIPC   C1B18237   9.031  24.905   3.230  0.2122  0.1396  0.0431
    1DIPC   D2B18238   9.076  24.460   3.370  0.0563  0.3485 -0.2453
    1DIPC   D3B18239   8.733  24.614   3.585  0.0883  0.3698 -0.3364
    1DIPC   C4B18240   8.635  24.631   4.068 -0.2287 -0.1848 -0.0453
    1DIPC   NC318241  13.211  23.493   2.933  0.0154 -0.3789 -0.3496
    1DIPC   PO418242  12.886  23.428   3.164  0.1734 -0.0391  0.1832
    1DIPC   GL118243  12.939  23.484   3.653 -0.0905 -0.2185 -0.3064
    1DIPC   GL218244  12.703  23.344   3.997 -0.0979 -0.0512 -0.3122
    1DIPC   C1A18245  12.756  23.847   4.003 -0.0699 -0.1062  0.0712
    1DIPC   D2A18246  12.684  23.717   4.431  0.5875  0.0847 -0.3160
    1DIPC   D3A18247  12.341  23.517   4.678 -0.1243  0.0894 -0.0977
    1DIPC   C4A18248  12.305  23.547   5.073 -0.2148 -0.1773  0.2663
    1DIPC   C1B18249  12.272  23.412   4.056  0.0697  0.0544 -0.0970
    1DIPC   D2B18250  11.905  23.665   4.188 -0.4575 -0.0028  0.0588
    1DIPC   D3B18251  12.201  23.862   4.315  0.1374 -0.4006  0.1421
    1DIPC   C4B18252  12.308  24.004   4.796 -0.0171 -0.1075  0.0124
    1DIPC   NC318253   6.698  17.291   2.091  0.0891  0.1347  0.2096
    1DIPC   PO418254   6.200  17.125   2.173 -0.0657  0.0261 -0.1609
    1DIPC   GL118255   6.385  17.205   2.562 -0.1567 -0.1267 -0.1801
    1DIPC   GL218256   6.182  17.386   2.722  0.0300  0.0043  0.2858
    1DIPC   C1A18257   6.590  17.084   3.092  0.1286  0.3336  0.1066
    1DIPC   D2A18258   6.437  17.010   3.541 -0.0154 -0.0755 -0.1330
    1DIPC   D3A18259   6.516  17.322   3.841 -0.1123  0.1291  0.0517
    1DIPC   C4A18260   6.337  17.637   4.068 -0.0093  0.2636  0.0948
    1DIPC   C1B18261   6.305  17.583   3.034 -0.2004 -0.1761  0.0867
    1DIPC   D2B18262   6.614  17.546   3.353  0.3282  0.4121 -0.1116
    1DIPC   D3B18263   6.396  17.857   3.538  0.1991  0.4729 -0.1349
    1DIPC   C4B18264   6.594  18.082   3.708 -0.2095  0.1491 -0.0952
    1DIPC   NC318265  24.055  24.877   2.728  0.1204  0.2923 -0.1733
    1DIPC   PO418266  23.839  24.587   3.014 -0.0168  0.1465 -0.0665
    1DIPC   GL118267  23.702  24.547   3.465  0.1095  0.1215  0.2137
    1DIPC   GL218268  23.551  24.241   3.542 -0.0981  0.1211  0.0411
    1DIPC   C1A18269  23.768  24.737   3.815 -0.1049 -0.1189 -0.2963
    1DIPC   D2A18270  23.852  24.695   4.213 -0.0512  0.0254  0.3960
    1DIPC   D3A18271  23.668  25.026   4.123  0.1131 -0.1413 -0.0015
    1DIPC   C4A18272  23.590  25.273   4.590  0.1220  0.0107  0.0340
    1DIPC   C1B18273  23.259  24.524   3.747 -0.1519  0.3426 -0.2127
    1DIPC   D2B18274  23.209  24.877   4.000  0.0122 -0.0293  0.0175
    1DIPC   D3B18275  23.316  24.838   4.411 -0.3164  0.1690  0.0650
    1DIPC   C4B18276  23.523  24.505   4.639 -0.0888 -0.0404  0.0842
    1DIPC   NC318277  20.454   1.996   2.618  0.0590  0.1995  0.1463
    1DIPC   PO418278  20.160   1.872   2.997 -0.2710 -0.0309  0.2060
    1DIPC   GL118279  20.487   1.896   3.173  0.0748  0.4008  0.1649
    1DIPC   GL218280  20.311   1.766   3.463  0.2890 -0.3477 -0.0697
    1DIPC   C1A18281  20.842   1.878   3.398  0.1171  0.0384 -0.1112
    1DIPC   D2A18282  21.059   1.832   3.771 -0.2416 -0.2233  0.2494
    1DIPC   D3A18283  21.470   1.613   3.838 -0.1198 -0.1172  0.1069
    1DIPC   C4A18284  21.525   1.346   4.263 -0.1617  0.1850 -0.1252
    1DIPC   C1B18285  20.426   1.984   3.806  0.2726  0.0013  0.0088
    1DIPC   D2B18286  20.220   2.442   3.912  0.2272 -0.2157  0.2426
    1DIPC   D3B18287  20.548   2.642   4.198  0.0069 -0.1502 -0.3849
    1DIPC   C4B18288  20.876   2.502   4.442  0.0824  0.0112 -0.3934
    1DIPC   NC318289   5.554  13.730   2.502 -0.4112  0.2170 -0.0784
    1DIPC   PO418290   5.366  13.993   2.756  0.2373 -0.0245 -0.0561
    1DIPC   GL118291   5.563  14.106   3.194  0.0565  0.0312  0.0829
    1DIPC   GL218292   5.374  14.255   3.398  0.2823  0.1794  0.2592
    1DIPC   C1A18293   5.799  14.317   3.477 -0.2130  0.3154 -0.2023
    1DIPC   D2A18294   6.098  14.265   3.753  0.2921  0.3034  0.1156
    1DIPC   D3A18295   6.061  14.741   3.702 -0.3616 -0.0485 -0.3020
    1DIPC   C4A18296   5.902  14.867   4.050 -0.0745  0.0618 -0.2832
    1DIPC   C1B18297   5.170  14.133   3.769  0.0771  0.0863  0.0917
    1DIPC   D2B18298   5.352  13.858   4.018  0.3198  0.0016 -0.1185
    1DIPC   D3B18299   5.741  13.698   4.150  0.1562 -0.0377 -0.2310
    1DIPC   C4B18300   6.036  13.728   4.466  0.0571  0.0557  0.0994
    1DIPC   NC318301  27.562  26.314   3.210 -0.0931  0.3126  0.1435
    1DIPC   PO418302  27.348  26.004   3.385 -0.0813  0.0153 -0.3586
    1DIPC   GL118303  27.365  26.128   3.733  0.0855 -0.0404 -0.0165
    1DIPC   GL218304  27.257  26.466   3.701 -0.1358  0.0358 -0.2071
    1DIPC   C1A18305  27.277  26.101   4.263  0.1838 -0.0899  0.0320
    1DIPC   D2A18306  27.165  26.350   4.618  0.0854  0.0409  0.1809
    1DIPC   D3A18307  26.805  26.441   5.010 -0.3854  0.2219  0.2520
    1DIPC   C4A18308  26.368  26.432   5.150 -0.3656 -0.0238  0.0403
    1DIPC   C1B18309  26.892  26.407   4.048 -0.7786 -0.0972 -0.1837
    1DIPC   D2B18310  26.632  26.362   4.475  0.4324 -0.2593 -0.1263
    1DIPC   D3B18311  26.792  25.963   4.511 -0.0799 -0.3714  0.2442
    1DIPC   C4B18312  26.734  25.598   4.789 -0.0627 -0.1693 -0.0023
    1DIPC   NC318313  24.281  14.962   3.047  0.2272  0.0262 -0.0004
    1DIPC   PO418314  24.441  15.377   2.946  0.0883 -0.0659  0.2657
    1DIPC   GL118315  24.300  15.641   3.263  0.1081 -0.0317  0.0994
    1DIPC   GL218316  24.178  15.931   3.291 -0.0953  0.3798 -0.3372
    1DIPC   C1A18317  24.328  15.681   3.770 -0.0570 -0.0754 -0.1393
    1DIPC   D2A18318  24.126  15.729   4.150 -0.1126  0.1231  0.1489
    1DIPC   D3A18319  24.198  15.410   4.391  0.1863  0.0734 -0.0594
    1DIPC   C4A18320  24.382  14.990   4.527 -0.0728 -0.2476  0.1920
    1DIPC   C1B18321  24.004  16.152   3.768 -0.0970  0.0333  0.0136
    1DIPC   D2B18322  24.116  16.233   4.315  0.3406  0.1343 -0.3076
    1DIPC   D3B18323  24.357  16.511   4.048  0.0989 -0.1594  0.1693
    1DIPC   C4B18324  24.877  16.505   4.120  0.1418 -0.0026  0.0622
    1DIPC   NC318325   4.473   3.696   2.904  0.0910 -0.0827 -0.0732
    1DIPC   PO418326   4.242   3.331   2.796 -0.3355  0.1753 -0.0702
    1DIPC   GL118327   4.458   3.291   3.175  0.2244  0.1237 -0.0386
    1DIPC   GL218328   4.214   3.222   3.427 -0.0445  0.0089  0.4387
    1DIPC   C1A18329   4.715   3.218   3.546  0.1322  0.2472 -0.0296
    1DIPC   D2A18330   5.007   3.200   3.944 -0.0105 -0.0764 -0.4184
    1DIPC   D3A18331   4.869   3.598   3.914  0.1662 -0.0317  0.1572
    1DIPC   C4A18332   4.642   3.718   3.571 -0.0354 -0.1132  0.1050
    1DIPC   C1B18333   4.341   3.326   3.875  0.1269 -0.0819  0.0950
    1DIPC   D2B18334   4.552   3.374   4.255 -0.0021 -0.0698  0.2283
    1DIPC   D3B18335   4.563   3.835   4.307 -0.0363 -0.0545  0.1038
    1DIPC   C4B18336   4.867   4.096   3.885 -0.4271  0.0880 -0.2290
    1DIPC   NC318337   2.999   5.554   3.182 -0.4020  0.0102 -0.2948
    1DIPC   PO418338   3.271   5.513   3.408  0.1685  0.2014  0.0171
    1DIPC   GL118339   3.549   5.646   3.724  0.1300  0.2777  0.2573
    1DIPC   GL218340   3.659   6.010   3.662 -0.0896  0.1468  0.1664
    1DIPC   C1A18341   3.514   5.675   4.104  0.1309 -0.4054 -0.2116
    1DIPC   D2A18342   3.493   5.550   4.560 -0.3357  0.1226 -0.0981
    1DIPC   D3A18343   3.678   5.813   4.908  0.0614 -0.0955  0.0327
    1DIPC   C4A18344   4.025   5.741   5.002 -0.4211 -0.0724  0.1671
    1DIPC   C1B18345   3.927   6.062   4.054 -0.0165  0.0376  0.3259
    1DIPC   D2B18346   3.832   5.835   4.377 -0.2783  0.1405  0.0076
    1DIPC   D3B18347   3.366   6.033   4.394 -0.1687  0.0305  0.1584
    1DIPC   C4B18348   3.096   6.077   4.042 -0.3604  0.0890  0.1521
    1DIPC   NC318349   1.285  23.197   2.430  0.2634  0.0196 -0.1590
    1DIPC   PO418350   1.604  23.010   2.384  0.0224 -0.1418 -0.2078
    1DIPC   GL118351   1.767  22.954   2.894 -0.2790  0.1001  0.0964
    1DIPC   GL218352   1.483  23.054   3.068 -0.0476  0.1058  0.0904
    1DIPC   C1A18353   2.018  22.882   3.232 -0.0094 -0.3287  0.2444
    1DIPC   D2A18354   2.020  22.560   3.591 -0.1245  0.4717  0.1998
    1DIPC   D3A18355   1.632  22.707   3.642 -0.0369  0.0796 -0.2097
    1DIPC   C4A18356   1.304  22.779   3.474  0.2594  0.1015 -0.2793
    1DIPC   C1B18357   1.705  23.145   3.516 -0.1584 -0.0910  0.0379
    1DIPC   D2B18358   1.644  23.068   4.006  0.0791  0.0203  0.1220
    1DIPC   D3B18359   1.304  23.174   4.247 -0.2487 -0.2320  0.1699
    1DIPC   C4B18360   1.392  23.476   4.520 -0.1656 -0.0776 -0.0596
    1DIPC   NC318361   5.825  11.655   3.313  0.0374 -0.1141  0.3435
    1DIPC   PO418362   6.290  11.593   3.603 -0.1826 -0.1824  0.3275
    1DIPC   GL118363   6.054  11.861   3.789 -0.1586 -0.0099 -0.0556
    1DIPC   GL218364   5.666  11.894   3.767 -0.2956  0.0727  0.2696
    1DIPC   C1A18365   5.884  12.116   4.168 -0.0234  0.3247 -0.1330
    1DIPC   D2A18366   5.555  12.384   4.268  0.2274  0.2630  0.3907
    1DIPC   D3A18367   5.791  12.642   4.404 -0.0980  0.1253  0.1843
    1DIPC   C4A18368   6.038  12.795   4.799  0.0968  0.2525  0.1086
    1DIPC   C1B18369   5.288  12.063   4.047  0.0700 -0.0359  0.1912
    1DIPC   D2B18370   5.015  12.100   4.415  0.2392 -0.1425  0.1857
    1DIPC   D3B18371   5.160  11.696   4.477 -0.0481  0.3769 -0.0922
    1DIPC   C4B18372   5.564  11.724   4.468  0.0493 -0.1119  0.1133
    1DIPC   NC318373  22.543  19.200   2.757  0.3147 -0.1816  0.1457
    1DIPC   PO418374  22.223  19.081   2.990  0.1131 -0.1237 -0.5428
    1DIPC   GL118375  22.186  19.121   3.400  0.0062  0.2278 -0.0027
    1DIPC   GL218376  22.295  18.848   3.532  0.0472  0.0906  0.0986
    1DIPC   C1A18377  22.015  19.251   3.764 -0.0829 -0.0160  0.2481
    1DIPC   D2A18378  21.745  19.301   4.058  0.1944 -0.1154 -0.1276
    1DIPC   D3A18379  22.038  19.491   4.454 -0.2063 -0.0108 -0.2762
    1DIPC   C4A18380  22.047  19.792   4.762 -0.0932 -0.4524 -0.0412
    1DIPC   C1B18381  22.648  18.845   3.849  0.2048 -0.0042  0.1985
    1DIPC   D2B18382  22.799  18.913   4.192  0.1521 -0.4026 -0.0295
    1DIPC   D3B18383  23.039  19.156   4.391 -0.2286  0.0476 -0.1817
    1DIPC   C4B18384  23.050  19.346   4.828 -0.0216  0.0640  0.2118
    1DIPC   NC318385  24.522  26.745   2.967  0.0354 -0.1475 -0.1628
    1DIPC   PO418386  23.983  26.635   3.037 -0.0283  0.1093  0.1387
    1DIPC   GL118387  23.777  26.520   3.437 -0.0170  0.2291 -0.3177
    1DIPC   GL218388  23.433  26.632   3.526  0.1492 -0.2859 -0.2022
    1DIPC   C1A18389  23.864  26.555   3.942 -0.2977 -0.0848 -0.0330
    1DIPC   D2A18390  23.600  26.771   4.244  0.0387  0.1520  0.1072
    1DIPC   D3A18391  23.730  26.570   4.658  0.2861  0.2336 -0.2895
    1DIPC   C4A18392  23.287  26.596   4.883  0.2901  0.1557 -0.1418
    1DIPC   C1B18393  23.274  26.833   3.811  0.2060  0.1485  0.2268
    1DIPC   D2B18394  22.923  26.992   4.108 -0.1309 -0.3866  0.1451
    1DIPC   D3B18395  22.664  26.872   4.579  0.3353 -0.0999  0.2031
    1DIPC   C4B18396  22.353  27.104   4.407  0.4003  0.1860 -0.3604
    1DIPC   NC318397   0.357   7.129   2.978  0.2464  0.0187  0.0025
    1DIPC   PO418398   0.620   6.728   3.034 -0.0810  0.1989 -0.0328
    1DIPC   GL118399   0.466   6.770   3.507 -0.1317 -0.0279  0.1068
    1DIPC   GL218400   0.248   6.888   3.589 -0.0192  0.0806 -0.1554
    1DIPC   C1A18401   0.456   6.794   3.999  0.1550 -0.0112 -0.1927
    1DIPC   D2A18402   0.371   6.954   4.385  0.2606  0.0787 -0.1455
    1DIPC   D3A18403   0.201   7.057   4.670 -0.3158  0.2548  0.0596
    1DIPC   C4A18404  -0.202   7.184   4.793 -0.0698 -0.2441  0.1671
    1DIPC   C1B18405  -0.050   6.912   3.655 -0.0168  0.0232 -0.0016
    1DIPC   D2B18406  -0.510   7.029   3.681 -0.0095  0.0005 -0.1499
    1DIPC   D3B18407  -0.400   7.438   3.954 -0.1454 -0.2080  0.0371
    1DIPC   C4B18408  -0.163   7.815   4.087 -0.1913  0.0877 -0.1341
    1DIPC   NC318409  16.460  20.650   3.083 -0.0625  0.0595  0.0730
    1DIPC   PO418410  16.701  20.932   3.273  0.0955  0.0245 -0.1402
    1DIPC   GL118411  16.640  21.078   3.720 -0.0146  0.4611  0.0085
    1DIPC   GL218412  16.752  20.800   3.850  0.2666 -0.0426  0.2887
    1DIPC   C1A18413  16.881  21.423   4.050  0.3272  0.2551  0.3779
    1DIPC   D2A18414  16.843  21.574   4.546  0.0579 -0.1385  0.0232
    1DIPC   D3A18415  16.632  21.591   4.934 -0.1333  0.0289 -0.0315
    1DIPC   C4A18416  16.799  21.788   5.318  0.3624 -0.2045  0.1182
    1DIPC   C1B18417  17.199  20.835   4.019 -0.0312  0.2067  0.0913
    1DIPC   D2B18418  17.349  20.801   4.421  0.0182 -0.0207  0.0251
    1DIPC   D3B18419  17.809  21.002   4.353 -0.0724 -0.2322  0.4247
    1DIPC   C4B18420  18.052  20.980   4.643 -0.2251  0.1582  0.0555
    1DIPC   NC318421  19.770  20.618   3.110 -0.0691 -0.1134 -0.0409
    1DIPC   PO418422  19.985  20.868   3.370 -0.2559 -0.0125  0.0966
    1DIPC   GL118423  19.873  20.704   3.759 -0.2030  0.1617 -0.0305
    1DIPC   GL218424  20.053  20.495   3.848 -0.1047 -0.2770 -0.1126
    1DIPC   C1A18425  19.634  20.491   4.104 -0.2848 -0.2754 -0.1412
    1DIPC   D2A18426  19.360  20.289   4.455  0.1274  0.2048 -0.0215
    1DIPC   D3A18427  19.633  20.334   4.820  0.0327  0.0897  0.0403
    1DIPC   C4A18428  19.626  20.412   5.345 -0.1490 -0.1604  0.2422
    1DIPC   C1B18429  20.193  20.661   4.195  0.0954  0.1546  0.2106
    1DIPC   D2B18430  20.345  20.649   4.599 -0.0383 -0.2506 -0.2630
    1DIPC   D3B18431  20.115  20.352   4.736 -0.0822  0.0807  0.1015
    1DIPC   C4B18432  20.011  20.538   5.094  0.1858  0.0867 -0.0182
    1DIPC   NC318433   0.627   1.284   3.013 -0.0642 -0.2373 -0.1733
    1DIPC   PO418434   0.719   1.005   3.324  0.0990 -0.0351 -0.0813
    1DIPC   GL118435   0.487   0.914   3.652 -0.0502 -0.2676 -0.0584
    1DIPC   GL218436   0.206   0.752   3.722 -0.0235 -0.0474  0.1469
    1DIPC   C1A18437   0.454   1.023   4.059  0.1086 -0.0367  0.2288
    1DIPC   D2A18438   0.266   0.894   4.473 -0.1691 -0.2485 -0.0801
    1DIPC   D3A18439  -0.031   0.989   4.184 -0.2526 -0.0923 -0.2067
    1DIPC   C4A18440  -0.262   0.717   3.931 -0.0531 -0.1579 -0.2175
    1DIPC   C1B18441   0.204   0.497   3.893  0.1699 -0.0907  0.1474
    1DIPC   D2B18442   0.291   0.403   4.288 -0.3651 -0.1409  0.0471
    1DIPC   D3B18443   0.609   0.048   4.211  0.0070 -0.1788 -0.1435
    1DIPC   C4B18444   1.016   0.095   3.885  0.2835 -0.0271  0.0108
    1DIPC   NC318445   5.258   5.737   3.304  0.0443  0.2296  0.0023
    1DIPC   PO418446   5.155   6.282   3.367 -0.2840  0.0512 -0.0040
    1DIPC   GL118447   5.084   6.399   3.777  0.2845 -0.0733 -0.1993
    1DIPC   GL218448   4.836   6.283   3.846  0.3834 -0.0301 -0.2641
    1DIPC   C1A18449   5.078   6.537   4.195  0.2062  0.3321 -0.0020
    1DIPC   D2A18450   4.721   6.400   4.530 -0.3090 -0.0078 -0.0804
    1DIPC   D3A18451   4.849   6.059   4.719  0.0693 -0.2137  0.4616
    1DIPC   C4A18452   4.721   5.595   4.707  0.0462 -0.2587  0.3224
    1DIPC   C1B18453   4.429   6.394   3.950 -0.2327  0.0285  0.0933
    1DIPC   D2B18454   4.209   6.356   4.309 -0.1691  0.1009  0.0652
    1DIPC   D3B18455   3.819   6.365   4.450  0.0510 -0.1298  0.1746
    1DIPC   C4B18456   3.572   6.716   4.496 -0.3653  0.1778  0.0448
    1DIPC   NC318457   0.750  11.650   2.065 -0.1235 -0.0923  0.4134
    1DIPC   PO418458   0.759  11.627   2.479  0.0189  0.3083 -0.0440
    1DIPC   GL118459   0.824  11.406   2.928  0.1381 -0.0706 -0.1079
    1DIPC   GL218460   0.531  11.383   3.155 -0.1139  0.1175  0.0335
    1DIPC   C1A18461   0.933  11.135   3.347 -0.3411  0.3854  0.0243
    1DIPC   D2A18462   1.061  11.217   3.836  0.2677  0.2619 -0.1434
    1DIPC   D3A18463   1.322  11.534   3.919 -0.1196 -0.0809  0.2772
    1DIPC   C4A18464   1.239  11.924   3.947 -0.0288 -0.0769  0.3571
    1DIPC   C1B18465   0.364  11.522   3.506 -0.0722 -0.1390  0.2891
    1DIPC   D2B18466  -0.008  11.844   3.610 -0.1343  0.1390 -0.1880
    1DIPC   D3B18467  -0.177  11.398   3.540  0.0830  0.0126 -0.3244
    1DIPC   C4B18468  -0.220  11.041   3.828  0.0087 -0.1501 -0.0995
    1DIPC   NC318469  16.531   5.760   3.274  0.2160  0.2958  0.1570
    1DIPC   PO418470  16.761   5.926   3.574  0.3647  0.1282 -0.0493
    1DIPC   GL118471  16.834   5.650   3.970  0.2271 -0.3554  0.1427
    1DIPC   GL218472  16.655   5.403   3.968 -0.0302 -0.0382  0.0204
    1DIPC   C1A18473  17.006   5.427   4.335 -0.2348  0.0979  0.0600
    1DIPC   D2A18474  17.105   5.037   4.519  0.0015 -0.1135  0.1306
    1DIPC   D3A18475  17.253   5.379   4.950  0.4020 -0.0617  0.1218
    1DIPC   C4A18476  16.954   5.492   5.320 -0.0889  0.0376  0.1071
    1DIPC   C1B18477  16.563   5.115   4.213 -0.1837 -0.0449  0.0369
    1DIPC   D2B18478  16.605   4.772   4.549 -0.1634  0.2085  0.3273
    1DIPC   D3B18479  16.275   4.629   4.961  0.0197 -0.0436  0.0904
    1DIPC   C4B18480  15.892   4.262   4.998  0.1327 -0.3010  0.2440
    1DIPC   NC318481  15.176   4.939   3.734 -0.3876 -0.0017 -0.3127
    1DIPC   PO418482  15.444   4.749   4.043 -0.0423 -0.1341 -0.1593
    1DIPC   GL118483  15.682   5.000   4.397  0.0522  0.4127 -0.1550
    1DIPC   GL218484  15.986   5.272   4.336  0.1784 -0.0274 -0.2314
    1DIPC   C1A18485  15.737   4.983   4.786 -0.1173 -0.0469 -0.2615
    1DIPC   D2A18486  15.980   5.052   5.133  0.2737  0.3419  0.1870
    1DIPC   D3A18487  16.035   5.486   5.019 -0.1559 -0.1362  0.1818
    1DIPC   C4A18488  15.946   5.715   4.643  0.0940 -0.0043  0.0460
    1DIPC   C1B18489  16.297   5.208   4.604 -0.0537 -0.2833 -0.0455
    1DIPC   D2B18490  16.500   5.072   4.983 -0.1215 -0.1805  0.0560
    1DIPC   D3B18491  16.418   5.440   5.295 -0.2520  0.0226  0.0417
    1DIPC   C4B18492  16.319   5.297   5.553  0.0544  0.0642 -0.2278
    1DIPC   NC318493   9.508   3.686   3.754 -0.1198  0.1146 -0.4015
    1DIPC   PO418494   9.550   4.122   3.563 -0.1043  0.1585  0.3483
    1DIPC   GL118495   9.716   4.300   3.882  0.3567 -0.1701 -0.1492
    1DIPC   GL218496   9.388   4.355   4.036  0.0575 -0.0982  0.2222
    1DIPC   C1A18497   9.729   4.556   4.326  0.0234 -0.2557 -0.0572
    1DIPC   D2A18498   9.914   4.535   4.680  0.1034 -0.0496 -0.0702
    1DIPC   D3A18499  10.220   4.833   4.536 -0.2246  0.1579 -0.1240
    1DIPC   C4A18500  10.535   4.605   4.517 -0.0616 -0.0250  0.1619
    1DIPC   C1B18501   9.236   3.988   4.297  0.2388 -0.1522  0.5066
    1DIPC   D2B18502   9.569   3.703   4.491 -0.0816 -0.2382 -0.3523
    1DIPC   D3B18503   9.453   3.383   4.660 -0.1783  0.1470  0.0740
    1DIPC   C4B18504   9.447   3.501   5.068 -0.0566  0.0332  0.0875
    1DIPC   NC318505  27.033   9.271   1.944  0.4844 -0.1040 -0.0294
    1DIPC   PO418506  26.990   9.693   2.191 -0.2203  0.1141  0.1529
    1DIPC   GL118507  27.008   9.934   2.668 -0.1460  0.0249 -0.2897
    1DIPC   GL218508  26.784  10.169   2.801  0.1812 -0.0382 -0.0314
    1DIPC   C1A18509  27.085  10.087   3.213 -0.0401 -0.1330  0.0014
    1DIPC   D2A18510  27.082   9.965   3.565  0.1944 -0.1746  0.1384
    1DIPC   D3A18511  27.107   9.957   3.880  0.3038 -0.0717  0.1637
    1DIPC   C4A18512  27.532   9.811   3.975  0.0432  0.0457 -0.1383
    1DIPC   C1B18513  26.674   9.908   3.166  0.2010 -0.1058 -0.0179
    1DIPC   D2B18514  26.616   9.523   3.236 -0.2919 -0.2742 -0.2591
    1DIPC   D3B18515  27.031   9.514   3.097  0.2053 -0.2443  0.0149
    1DIPC   C4B18516  27.377   9.560   3.466 -0.1194 -0.2261  0.3413
    1DIPC   NC318517  25.652  20.722   3.031 -0.2576  0.0002  0.0345
    1DIPC   PO418518  25.716  20.325   3.076 -0.1617  0.2454 -0.0660
    1DIPC   GL118519  25.711  20.008   3.320  0.2110  0.0505 -0.2209
    1DIPC   GL218520  25.473  19.810   3.308 -0.0083 -0.1541  0.1222
    1DIPC   C1A18521  26.017  19.916   3.602  0.0855  0.2943 -0.1920
    1DIPC   D2A18522  26.295  19.785   3.850 -0.1022 -0.0095 -0.0222
    1DIPC   D3A18523  26.222  20.245   3.987  0.1533  0.3077 -0.0017
    1DIPC   C4A18524  26.033  20.698   3.842  0.0748 -0.0373 -0.1902
    1DIPC   C1B18525  25.150  19.795   3.610  0.3274  0.0581  0.3385
    1DIPC   D2B18526  24.956  20.238   3.726  0.0108  0.1167 -0.2061
    1DIPC   D3B18527  24.539  20.100   3.961 -0.2202  0.0065 -0.0322
    1DIPC   C4B18528  24.519  19.766   4.367  0.2711  0.0673 -0.2576
    1DIPC   NC318529  15.888  27.001   3.773 -0.0070  0.1146  0.0096
    1DIPC   PO418530  16.178  26.697   3.827  0.0131  0.0772 -0.0417
    1DIPC   GL118531  16.410  26.628   4.209 -0.0126  0.3091 -0.0359
    1DIPC   GL218532  16.593  26.818   4.188 -0.0511  0.1392 -0.0547
    1DIPC   C1A18533  16.423  26.543   4.632 -0.3191 -0.1319  0.0507
    1DIPC   D2A18534  16.559  26.542   5.048 -0.0212  0.1950  0.1603
    1DIPC   D3A18535  16.932  26.753   5.276  0.4143 -0.0896  0.0613
    1DIPC   C4A18536  16.967  27.122   5.549  0.1020  0.0438  0.1556
    1DIPC   C1B18537  16.969  26.688   4.485 -0.0773  0.0222 -0.0715
    1DIPC   D2B18538  17.074  26.789   4.817 -0.1371 -0.3352  0.0904
    1DIPC   D3B18539  17.531  26.585   4.711 -0.2213  0.1234 -0.1103
    1DIPC   C4B18540  17.671  26.618   5.126  0.1445 -0.1693  0.0016
    1DIPC   NC318541  18.220  23.106   3.076  0.2188  0.0298  0.0701
    1DIPC   PO418542  18.628  23.214   3.331  0.0437 -0.0389 -0.0136
    1DIPC   GL118543  18.337  22.994   3.797 -0.1702  0.1549  0.0719
    1DIPC   GL218544  18.160  23.105   4.158 -0.1135  0.3868 -0.1384
    1DIPC   C1A18545  18.194  22.631   3.982  0.2107 -0.0787  0.1153
    1DIPC   D2A18546  18.015  22.450   4.343  0.0472 -0.1886  0.1987
    1DIPC   D3A18547  18.216  22.806   4.591 -0.0654 -0.1487 -0.1851
    1DIPC   C4A18548  18.437  22.708   4.819 -0.1976 -0.1772 -0.5510
    1DIPC   C1B18549  18.274  23.394   4.456 -0.0629  0.1456 -0.0295
    1DIPC   D2B18550  18.387  23.643   4.875 -0.0018  0.2137  0.0744
    1DIPC   D3B18551  18.002  23.636   4.801  0.1543  0.2029 -0.3007
    1DIPC   C4B18552  17.851  24.053   4.909  0.2775 -0.1589 -0.0587
    1DIPC   NC318553   1.102  13.012   2.548  0.2174 -0.2856 -0.0149
    1DIPC   PO418554   1.463  13.137   2.828 -0.0502 -0.1703 -0.1359
    1DIPC   GL118555   1.203  13.338   3.045 -0.0220  0.0524  0.4308
    1DIPC   GL218556   1.019  13.508   2.722 -0.0509  0.0043  0.0557
    1DIPC   C1A18557   1.033  13.240   3.431  0.0551  0.1311  0.1336
    1DIPC   D2A18558   0.860  13.432   3.789 -0.1228 -0.0029  0.1299
    1DIPC   D3A18559   1.294  13.467   3.836  0.3338 -0.0034  0.1429
    1DIPC   C4A18560   1.572  13.429   3.403 -0.0735  0.0135 -0.2392
    1DIPC   C1B18561   0.783  13.637   2.995  0.0052 -0.3470 -0.1140
    1DIPC   D2B18562   0.418  13.852   3.089 -0.2044 -0.0038  0.1800
    1DIPC   D3B18563   0.288  13.472   2.969 -0.0671 -0.1936 -0.1532
    1DIPC   C4B18564   0.067  13.022   3.293  0.1299  0.0951 -0.3363
    1DIPC   NC318565   4.243  22.749   2.554 -0.1193  0.1040  0.2125
    1DIPC   PO418566   3.718  22.914   2.398  0.2387 -0.2535 -0.1552
    1DIPC   GL118567   3.758  22.691   2.802  0.3644  0.1142  0.3588
    1DIPC   GL218568   4.012  22.749   2.990 -0.1653 -0.0823 -0.3659
    1DIPC   C1A18569   3.437  22.733   3.125  0.0742  0.0849  0.3372
    1DIPC   D2A18570   3.315  23.001   3.463 -0.0588 -0.1559 -0.0554
    1DIPC   D3A18571   3.332  23.435   3.329 -0.3455  0.0938 -0.0425
    1DIPC   C4A18572   3.673  23.703   3.397  0.1693 -0.0505 -0.1589
    1DIPC   C1B18573   3.899  22.736   3.375 -0.3476 -0.1812 -0.2978
    1DIPC   D2B18574   3.711  22.800   3.742  0.3736  0.3266 -0.1119
    1DIPC   D3B18575   3.813  23.339   3.744  0.0836  0.3437 -0.5449
    1DIPC   C4B18576   3.588  23.569   3.960  0.1707 -0.0083  0.3122
    1DIPC   NC318577  14.525   2.841   3.857 -0.1414 -0.4722  0.2704
    1DIPC   PO418578  13.989   2.858   3.770  0.0279  0.0231  0.0109
    1DIPC   GL118579  14.139   2.649   4.140 -0.0878  0.0111 -0.1906
    1DIPC   GL218580  14.497   2.719   4.323  0.2906  0.3726 -0.0852
    1DIPC   C1A18581  13.932   2.751   4.540 -0.0422  0.1010 -0.1639
    1DIPC   D2A18582  14.098   2.879   4.908  0.0513  0.1129  0.1847
    1DIPC   D3A18583  13.807   2.952   5.312 -0.1020  0.0600 -0.1874
    1DIPC   C4A18584  13.875   2.632   5.662 -0.3484 -0.1536 -0.0824
    1DIPC   C1B18585  14.429   2.471   4.646  0.1999 -0.0320  0.2287
    1DIPC   D2B18586  14.549   2.459   5.014 -0.2137 -0.0367 -0.3402
    1DIPC   D3B18587  14.422   2.736   5.373  0.1613 -0.1433  0.3304
    1DIPC   C4B18588  14.420   2.655   5.762  0.1220  0.2252 -0.0802
    1DIPC   NC318589  21.898   7.047   3.159  0.1302 -0.0858 -0.0460
    1DIPC   PO418590  22.203   6.687   3.294  0.4487  0.2570  0.0278
    1DIPC   GL118591  22.314   6.580   3.747 -0.0434  0.1885  0.1210
    1DIPC   GL218592  22.324   6.297   4.025 -0.3021  0.2459 -0.1139
    1DIPC   C1A18593  22.688   6.548   3.875 -0.0293  0.0210 -0.1748
    1DIPC   D2A18594  22.991   6.507   4.161  0.1032 -0.1069 -0.1390
    1DIPC   D3A18595  23.014   6.743   4.576 -0.0888 -0.0881  0.1164
    1DIPC   C4A18596  22.576   6.909   4.710 -0.0735  0.1888  0.0244
    1DIPC   C1B18597  22.311   6.687   4.337 -0.1018 -0.2853  0.0085
    1DIPC   D2B18598  22.240   7.040   4.333 -0.2553 -0.0479  0.1594
    1DIPC   D3B18599  22.362   7.357   4.511 -0.1287 -0.1184 -0.0309
    1DIPC   C4B18600  22.402   7.359   5.003 -0.1868  0.0207 -0.0278
    1DIPC   NC318601   4.030   1.127   2.814  0.1449  0.2044  0.1810
    1DIPC   PO418602   3.958   1.087   3.174 -0.1514 -0.0076 -0.2488
    1DIPC   GL118603   3.925   1.109   3.633 -0.2521  0.2303  0.2595
    1DIPC   GL218604   3.710   1.092   3.812  0.0912 -0.0862 -0.2761
    1DIPC   C1A18605   4.189   1.037   3.989 -0.0194  0.1837 -0.3023
    1DIPC   D2A18606   4.080   1.270   4.266  0.0740 -0.0315 -0.2168
    1DIPC   D3A18607   4.052   0.988   4.529  0.1337 -0.3829 -0.3065
    1DIPC   C4A18608   4.079   1.038   4.923  0.2657  0.2631 -0.0087
    1DIPC   C1B18609   3.630   0.985   4.197  0.3861 -0.0617  0.0137
    1DIPC   D2B18610   3.503   0.772   4.611 -0.1511  0.1354  0.0625
    1DIPC   D3B18611   3.606   1.102   4.862  0.4443 -0.2584  0.1780
    1DIPC   C4B18612   3.573   1.353   4.573 -0.0474  0.2671 -0.0277
    1DIPC   NC318613  14.226   1.351   3.790  0.3122 -0.1285  0.0949
    1DIPC   PO418614  14.144   1.243   4.173 -0.0127  0.0993  0.0948
    1DIPC   GL118615  14.438   1.134   4.407  0.2191 -0.2077 -0.1264
    1DIPC   GL218616  14.197   1.272   4.683 -0.2123  0.1917  0.4473
    1DIPC   C1A18617  14.814   1.377   4.426 -0.0208 -0.0495 -0.2371
    1DIPC   D2A18618  15.120   1.665   4.598 -0.2698  0.2319  0.0460
    1DIPC   D3A18619  15.417   1.345   4.670  0.1428 -0.0210 -0.3466
    1DIPC   C4A18620  15.482   1.323   5.099  0.1289  0.1277 -0.1036
    1DIPC   C1B18621  14.059   1.313   5.060  0.0216 -0.0279 -0.2806
    1DIPC   D2B18622  14.235   1.188   5.513 -0.0287 -0.0972  0.3258
    1DIPC   D3B18623  14.097   0.790   5.731 -0.1831 -0.1547  0.1017
    1DIPC   C4B18624  14.469   0.645   5.897 -0.0258 -0.1395  0.0108
    1DIPC   NC318625  22.287   3.594   2.596  0.1734  0.2217  0.2002
    1DIPC   PO418626  22.113   3.279   2.746 -0.0942 -0.4260 -0.0171
    1DIPC   GL118627  22.326   3.127   3.025  0.0662  0.1398 -0.1199
    1DIPC   GL218628  22.163   3.182   3.304  0.3610  0.1547 -0.2290
    1DIPC   C1A18629  22.163   2.734   3.374 -0.0069  0.1768  0.0979
    1DIPC   D2A18630  22.437   2.361   3.538 -0.0168  0.0460 -0.1258
    1DIPC   D3A18631  22.814   2.523   3.437  0.3432 -0.5321 -0.2058
    1DIPC   C4A18632  23.089   2.858   3.590  0.0166 -0.3510 -0.0036
    1DIPC   C1B18633  22.447   3.076   3.609 -0.1909 -0.1205 -0.2454
    1DIPC   D2B18634  22.508   2.779   3.786 -0.3928 -0.1636 -0.0027
    1DIPC   D3B18635  22.827   2.987   3.975 -0.0218  0.1358  0.1979
    1DIPC   C4B18636  22.984   3.322   3.739  0.4060 -0.0234  0.1530
    1DIPC   NC318637  25.453   3.009   2.798  0.1647  0.2641 -0.1099
    1DIPC   PO418638  24.999   3.034   2.830  0.0797  0.2083  0.0952
    1DIPC   GL118639  25.032   2.868   3.298  0.0108 -0.2022  0.0894
    1DIPC   GL218640  24.790   2.596   3.371 -0.2845  0.1934 -0.1149
    1DIPC   C1A18641  24.972   2.856   3.764  0.3229  0.0109 -0.0669
    1DIPC   D2A18642  24.959   3.192   4.063  0.0627  0.0094 -0.0375
    1DIPC   D3A18643  25.036   2.832   4.300 -0.1055 -0.2333  0.0542
    1DIPC   C4A18644  25.362   2.664   4.658  0.1314 -0.1114 -0.1763
    1DIPC   C1B18645  24.526   2.329   3.604 -0.3441 -0.2706  0.1926
    1DIPC   D2B18646  24.334   2.017   3.899  0.3830 -0.3394  0.1275
    1DIPC   D3B18647  24.281   2.481   4.124  0.1784  0.2520 -0.0271
    1DIPC   C4B18648  24.502   2.736   4.262 -0.0649 -0.1935 -0.1965
    1DIPC   NC318649   3.200  20.782   2.314 -0.0855 -0.3587  0.1193
    1DIPC   PO418650   3.322  20.664   2.695 -0.2169  0.0923 -0.0948
    1DIPC   GL118651   3.190  21.060   2.852 -0.2000 -0.1493  0.0801
    1DIPC   GL218652   3.263  21.320   2.603  0.0453 -0.0973  0.0361
    1DIPC   C1A18653   3.291  21.426   3.168 -0.2377 -0.0988  0.1105
    1DIPC   D2A18654   3.144  21.311   3.604  0.1340 -0.0203  0.0723
    1DIPC   D3A18655   3.594  21.358   3.897 -0.2573  0.0350  0.2197
    1DIPC   C4A18656   3.957  21.441   3.661 -0.0929 -0.0628  0.0126
    1DIPC   C1B18657   3.622  21.233   2.885  0.3534 -0.2273  0.0538
    1DIPC   D2B18658   4.005  21.273   3.178 -0.0896  0.0100 -0.4017
    1DIPC   D3B18659   4.369  20.791   3.089 -0.0922 -0.1274  0.1144
    1DIPC   C4B18660   4.660  20.746   3.435  0.2112 -0.1829 -0.1278
    1DIPC   NC318661  21.937   8.370   3.140 -0.0693 -0.0793  0.0523
    1DIPC   PO418662  21.594   8.054   3.202 -0.3143 -0.2327 -0.2898
    1DIPC   GL118663  21.616   8.292   3.688  0.0685  0.0160 -0.2588
    1DIPC   GL218664  21.815   8.493   3.861 -0.0598  0.2640  0.0749
    1DIPC   C1A18665  21.372   8.256   4.034  0.0363 -0.1159 -0.1348
    1DIPC   D2A18666  21.029   8.454   4.099 -0.0412  0.3494 -0.2279
    1DIPC   D3A18667  21.206   8.328   4.512 -0.0383  0.0982  0.1397
    1DIPC   C4A18668  21.273   8.699   4.753 -0.0669 -0.2133  0.1595
    1DIPC   C1B18669  22.207   8.252   4.003  0.1088  0.0095  0.1854
    1DIPC   D2B18670  22.559   8.437   4.284 -0.0477  0.1803 -0.0773
    1DIPC   D3B18671  22.142   8.323   4.574  0.1965  0.1093 -0.0816
    1DIPC   C4B18672  22.168   8.216   5.048 -0.1842  0.0389 -0.2080
    1DIPC   NC318673  23.652  18.398   1.891  0.1038  0.2390  0.2251
    1DIPC   PO418674  23.624  18.508   2.299 -0.2066 -0.0334  0.0253
    1DIPC   GL118675  23.602  18.592   2.807  0.2260 -0.0720 -0.1179
    1DIPC   GL218676  23.907  18.466   2.904  0.2756 -0.0283  0.2801
    1DIPC   C1A18677  23.507  18.851   3.240 -0.1526  0.1905  0.1565
    1DIPC   D2A18678  23.497  19.274   3.266  0.2453 -0.0284 -0.1925
    1DIPC   D3A18679  23.492  19.097   3.646  0.1090 -0.0938 -0.0558
    1DIPC   C4A18680  23.251  19.168   3.973 -0.2550 -0.1267 -0.0584
    1DIPC   C1B18681  24.073  18.219   3.355 -0.2096 -0.0317 -0.0979
    1DIPC   D2B18682  24.291  18.000   3.667  0.0367  0.1367 -0.0044
    1DIPC   D3B18683  24.388  17.910   4.188  0.0515 -0.0099  0.0433
    1DIPC   C4B18684  24.556  18.159   4.528 -0.1556 -0.0447  0.0527
    1DIPC   NC318685  10.545  26.084   3.077  0.2283  0.0847  0.0374
    1DIPC   PO418686  10.293  26.524   2.991 -0.1160 -0.1259 -0.0884
    1DIPC   GL118687  10.425  26.458   3.383 -0.2086  0.0512 -0.1931
    1DIPC   GL218688  10.641  26.789   3.458  0.0012  0.0571 -0.0328
    1DIPC   C1A18689  10.329  26.509   3.766  0.2704 -0.0183  0.0352
    1DIPC   D2A18690  10.106  26.701   4.219 -0.0120  0.0150 -0.2404
    1DIPC   D3A18691   9.737  26.809   4.575 -0.2410  0.2381 -0.1450
    1DIPC   C4A18692   9.434  26.792   4.917 -0.0786 -0.1661  0.0599
    1DIPC   C1B18693  10.415  27.007   3.805 -0.1510 -0.0749  0.1221
    1DIPC   D2B18694  10.253  27.235   4.165 -0.1718 -0.1161  0.1958
    1DIPC   D3B18695  10.137  27.062   4.570 -0.1977  0.1593 -0.3549
    1DIPC   C4B18696   9.941  27.126   4.926  0.4566 -0.4070 -0.0401
    1DIPC   NC318697  18.834   5.111   3.070  0.0630 -0.1744 -0.1512
    1DIPC   PO418698  19.047   5.363   3.389  0.0414  0.0644  0.0121
    1DIPC   GL118699  18.889   5.292   3.697  0.2289 -0.3318  0.1108
    1DIPC   GL218700  19.065   5.286   3.938  0.1733 -0.1001 -0.1001
    1DIPC   C1A18701  18.496   5.307   3.934  0.0272 -0.3672 -0.1041
    1DIPC   D2A18702  18.187   5.088   4.165 -0.0907 -0.2715  0.1548
    1DIPC   D3A18703  17.892   5.492   4.237 -0.0531 -0.1834  0.1190
    1DIPC   C4A18704  17.629   5.608   4.646  0.1582 -0.1985 -0.4212
    1DIPC   C1B18705  19.035   5.286   4.318 -0.0458 -0.1909 -0.2026
    1DIPC   D2B18706  18.989   5.609   4.518 -0.1357 -0.1128 -0.1486
    1DIPC   D3B18707  19.100   6.038   4.423 -0.0458  0.1704  0.3235
    1DIPC   C4B18708  19.387   6.358   4.692  0.0310  0.0265 -0.0174
    1DIPC   NC318709  25.823   7.050   2.329  0.5347 -0.1961 -0.0163
    1DIPC   PO418710  26.116   6.725   2.450  0.1456 -0.1198 -0.0181
    1DIPC   GL118711  26.285   6.831   2.788 -0.1110  0.1922  0.2707
    1DIPC   GL218712  26.036   6.989   2.875  0.0043  0.2981  0.2218
    1DIPC   C1A18713  26.558   7.131   3.093  0.2648 -0.0164  0.0896
    1DIPC   D2A18714  26.845   7.422   3.251  0.0702 -0.0425  0.2669
    1DIPC   D3A18715  26.970   7.738   3.518 -0.0119 -0.1026  0.1409
    1DIPC   C4A18716  26.686   7.897   3.844  0.1192 -0.0196  0.0368
    1DIPC   C1B18717  26.006   6.911   3.382 -0.0842  0.1278  0.3557
    1DIPC   D2B18718  26.333   6.971   3.525  0.0888  0.2122  0.0075
    1DIPC   D3B18719  26.522   7.275   3.701 -0.1732  0.2653 -0.1882
    1DIPC   C4B18720  26.869   7.069   4.098  0.1214  0.2292 -0.1300
    1DIPC   NC318721  18.379  28.228   3.545  0.0461 -0.0794 -0.0846
    1DIPC   PO418722  17.938  28.263   3.767  0.0022 -0.1286 -0.3795
    1DIPC   GL118723  18.043  28.596   4.067 -0.2428  0.2298  0.0685
    1DIPC   GL218724  18.359  28.423   4.021 -0.3633 -0.1140  0.2197
    1DIPC   C1A18725  18.024  28.838   4.452 -0.0436  0.2730  0.0181
    1DIPC   D2A18726  18.142  28.976   4.860  0.0698 -0.2235 -0.2236
    1DIPC   D3A18727  18.248  28.676   5.192  0.1845 -0.4111  0.2130
    1DIPC   C4A18728  18.697  28.593   5.337 -0.0592 -0.0961  0.3187
    1DIPC   C1B18729  18.451  28.884   4.187 -0.1612 -0.0575 -0.0808
    1DIPC   D2B18730  18.491  29.154   4.569 -0.0081 -0.0774 -0.0157
    1DIPC   D3B18731  18.549  29.330   4.997 -0.1013 -0.1236  0.1769
    1DIPC   C4B18732  18.280  29.230   5.323  0.0481  0.1500 -0.0439
    1DIPC   NC318733   0.968  22.340   2.789 -0.1080  0.2647 -0.2376
    1DIPC   PO418734   0.780  21.953   2.859  0.2477  0.0103 -0.0495
    1DIPC   GL118735   0.907  21.834   3.265 -0.2458 -0.1185  0.1130
    1DIPC   GL218736   0.679  21.606   3.362  0.3707  0.0825 -0.0423
    1DIPC   C1A18737   1.027  21.871   3.714 -0.1299  0.0695 -0.4406
    1DIPC   D2A18738   0.804  21.986   4.013  0.3216 -0.1290  0.0329
    1DIPC   D3A18739   0.321  22.015   4.020 -0.0536 -0.2440  0.0884
    1DIPC   C4A18740   0.149  21.729   4.245  0.2104 -0.2990  0.3457
    1DIPC   C1B18741   0.541  21.559   3.806 -0.0958  0.0680  0.1561
    1DIPC   D2B18742   0.715  21.465   4.184 -0.2369 -0.1531  0.1578
    1DIPC   D3B18743   0.485  21.475   4.541  0.0889 -0.2245 -0.1200
    1DIPC   C4B18744   0.022  21.658   4.699 -0.0781 -0.1379  0.0312
    1DIPC   NC318745   7.402   2.139   3.708  0.0709 -0.1583 -0.2128
    1DIPC   PO418746   7.187   1.878   3.909 -0.0139  0.0082 -0.0569
    1DIPC   GL118747   7.257   2.230   4.179  0.0266  0.2480  0.0534
    1DIPC   GL218748   7.026   2.428   4.332 -0.2646 -0.1110  0.4013
    1DIPC   C1A18749   7.527   2.503   4.315  0.2448 -0.1719  0.0079
    1DIPC   D2A18750   7.882   2.698   4.130 -0.0983  0.0361  0.0832
    1DIPC   D3A18751   7.876   2.814   4.585  0.3648 -0.0308  0.1857
    1DIPC   C4A18752   7.479   2.702   4.815 -0.0508  0.1298  0.1260
    1DIPC   C1B18753   7.219   2.245   4.698 -0.2327  0.1622 -0.1960
    1DIPC   D2B18754   7.500   2.015   5.050 -0.1059 -0.3115 -0.0131
    1DIPC   D3B18755   7.387   2.014   5.472  0.1506  0.0886 -0.0693
    1DIPC   C4B18756   7.079   1.655   5.426 -0.1650  0.0413 -0.3497
    1DIPC   NC318757  22.856  24.540   3.108 -0.0377 -0.0793  0.0097
    1DIPC   PO418758  22.400  24.660   3.121 -0.0751  0.2779 -0.3310
    1DIPC   GL118759  22.636  24.683   3.512 -0.6340 -0.1546  0.0226
    1DIPC   GL218760  22.675  24.358   3.630 -0.0699  0.2462 -0.1171
    1DIPC   C1A18761  22.696  24.820   3.958  0.2457  0.0890  0.0955
    1DIPC   D2A18762  22.802  25.047   4.296 -0.2734  0.1675  0.2091
    1DIPC   D3A18763  22.911  24.710   4.640  0.1756 -0.0297 -0.0004
    1DIPC   C4A18764  23.326  24.911   4.891 -0.2547 -0.2430  0.0162
    1DIPC   C1B18765  22.366  24.487   4.036  0.1292  0.0259  0.1326
    1DIPC   D2B18766  22.275  24.270   4.502  0.0586  0.0661 -0.2216
    1DIPC   D3B18767  22.478  24.422   4.797 -0.4706  0.0857  0.1367
    1DIPC   C4B18768  22.400  24.150   5.171 -0.1141 -0.1858 -0.1390
    1DIPC   NC318769  20.158  21.381   3.347  0.0352 -0.2156 -0.0972
    1DIPC   PO418770  19.715  21.623   3.431 -0.0749  0.3213 -0.3961
    1DIPC   GL118771  19.647  21.723   3.869 -0.3248  0.0818  0.1002
    1DIPC   GL218772  19.361  21.631   3.911 -0.1690  0.2711  0.1914
    1DIPC   C1A18773  19.385  21.671   4.377  0.1744 -0.0040  0.1876
    1DIPC   D2A18774  19.211  22.045   4.712 -0.1639  0.0749  0.0141
    1DIPC   D3A18775  18.773  22.043   4.738 -0.2231  0.2162 -0.0741
    1DIPC   C4A18776  18.696  22.432   4.481 -0.0230 -0.1331  0.4305
    1DIPC   C1B18777  19.181  21.270   3.928 -0.0012  0.0756 -0.2626
    1DIPC   D2B18778  19.322  20.824   3.993 -0.1389 -0.1707 -0.0821
    1DIPC   D3B18779  19.357  20.787   4.480  0.1820  0.0035 -0.0736
    1DIPC   C4B18780  19.788  20.771   4.545 -0.0955  0.0974  0.1418
    1DIPC   NC318781   5.390   8.762   2.796  0.1821  0.2177 -0.0966
    1DIPC   PO418782   4.959   8.915   2.869 -0.1287  0.0500  0.2926
    1DIPC   GL118783   4.974   9.025   3.273 -0.1854 -0.0858 -0.0040
    1DIPC   GL218784   5.274   9.159   3.267 -0.2382  0.2170 -0.0220
    1DIPC   C1A18785   4.974   8.941   3.708 -0.1584  0.0352  0.3812
    1DIPC   D2A18786   5.041   8.647   4.037  0.0240 -0.0299  0.0280
    1DIPC   D3A18787   5.538   8.650   4.119  0.0704 -0.1700  0.1059
    1DIPC   C4A18788   5.625   8.638   4.550  0.0668  0.2481  0.4280
    1DIPC   C1B18789   5.266   9.297   3.662 -0.3486  0.2579  0.0626
    1DIPC   D2B18790   5.509   9.678   3.709 -0.0173 -0.1311  0.0873
    1DIPC   D3B18791   5.467   9.494   4.047  0.3125 -0.0569  0.2159
    1DIPC   C4B18792   5.260   9.086   4.054  0.0733 -0.1699 -0.4545
    1DIPC   NC318793  17.145   9.375   2.249 -0.1133  0.0889  0.2218
    1DIPC   PO418794  17.225   9.486   2.625 -0.1114 -0.1129 -0.0138
    1DIPC   GL118795  17.304   9.490   2.971  0.2045  0.1976  0.0514
    1DIPC   GL218796  17.141   9.351   3.132  0.1338 -0.6594 -0.0301
    1DIPC   C1A18797  17.594   9.737   3.288 -0.0475  0.0140 -0.3549
    1DIPC   D2A18798  17.846   9.555   3.617  0.0759 -0.2635  0.2043
    1DIPC   D3A18799  17.876   9.371   4.014  0.0495  0.0656 -0.4036
    1DIPC   C4A18800  18.185   9.504   4.231  0.0833 -0.2625 -0.0914
    1DIPC   C1B18801  17.349   9.456   3.602 -0.1078  0.2501  0.2310
    1DIPC   D2B18802  17.493   9.663   3.983  0.2031  0.2312  0.0292
    1DIPC   D3B18803  17.711   9.465   4.463  0.2424 -0.0757  0.2534
    1DIPC   C4B18804  17.477   9.524   4.883  0.2122  0.1204  0.1379
    1DIPC   NC318805  15.328   8.424   3.365 -0.0297  0.2954 -0.0756
    1DIPC   PO418806  15.575   8.122   3.134 -0.0365  0.1998 -0.2279
    1DIPC   GL118807  15.862   8.237   3.331  0.0789 -0.1327 -0.0538
    1DIPC   GL218808  15.776   8.306   3.637 -0.1067  0.4400  0.1228
    1DIPC   C1A18809  16.185   8.477   3.181  0.1763  0.0508  0.2288
    1DIPC   D2A18810  16.382   8.791   3.333 -0.0584  0.4385  0.0553
    1DIPC   D3A18811  16.075   9.006   3.272 -0.0157 -0.0263  0.3025
    1DIPC   C4A18812  16.017   9.396   3.500  0.1507  0.0604 -0.3169
    1DIPC   C1B18813  15.488   8.096   3.959  0.0403 -0.1760 -0.1779
    1DIPC   D2B18814  15.628   7.618   4.125 -0.0918 -0.1223 -0.1649
    1DIPC   D3B18815  15.902   7.618   4.543  0.0660 -0.2402 -0.1848
    1DIPC   C4B18816  15.715   7.866   4.911 -0.1747  0.1987 -0.0395
    1DIPC   NC318817   0.173  18.306   1.996  0.1966 -0.0004  0.0802
    1DIPC   PO418818   0.553  18.035   1.956 -0.3135 -0.0895  0.2198
    1DIPC   GL118819   0.544  17.915   2.482  0.1615 -0.2120  0.1831
    1DIPC   GL218820   0.537  17.546   2.582 -0.1015  0.3569 -0.3127
    1DIPC   C1A18821   0.196  17.889   2.721 -0.2478 -0.0800 -0.1130
    1DIPC   D2A18822   0.313  18.023   3.216 -0.1882 -0.1914 -0.0910
    1DIPC   D3A18823   0.088  17.887   3.591 -0.0709 -0.0940 -0.2835
    1DIPC   C4A18824   0.063  17.619   3.930 -0.0156  0.0322  0.1727
    1DIPC   C1B18825   0.280  17.498   2.977 -0.1854  0.1040  0.0136
    1DIPC   D2B18826   0.189  17.439   3.339  0.0058  0.2019  0.1138
    1DIPC   D3B18827   0.541  17.722   3.542 -0.1532 -0.1915 -0.0353
    1DIPC   C4B18828   0.791  18.079   3.431 -0.0100  0.0546  0.2305
    1DIPC   NC318829   3.833  20.665   2.478  0.0544 -0.0622  0.0973
    1DIPC   PO418830   4.063  20.356   2.346  0.1023 -0.0742 -0.1653
    1DIPC   GL118831   4.031  20.074   2.600  0.1890 -0.1122 -0.0931
    1DIPC   GL218832   4.151  20.288   2.923 -0.0798  0.4581  0.3332
    1DIPC   C1A18833   3.763  19.773   2.873  0.0040 -0.0019  0.2227
    1DIPC   D2A18834   3.469  19.667   3.129  0.1298  0.3468  0.5153
    1DIPC   D3A18835   3.582  20.041   3.245  0.1562 -0.2898 -0.1000
    1DIPC   C4A18836   3.798  20.419   3.313  0.0640 -0.0220 -0.2810
    1DIPC   C1B18837   4.059  20.024   3.265  0.0799  0.0956  0.0445
    1DIPC   D2B18838   3.857  20.078   3.683  0.2420 -0.2684  0.1220
    1DIPC   D3B18839   3.392  20.296   3.675 -0.0627 -0.0587  0.1279
    1DIPC   C4B18840   3.082  20.339   3.902 -0.1828 -0.0133  0.2228
    1DIPC   NC318841   0.816  24.712   3.084 -0.1511  0.1717  0.1384
    1DIPC   PO418842   0.339  24.728   3.163 -0.0257  0.0051  0.0202
    1DIPC   GL118843   0.321  24.675   3.541 -0.0259 -0.1529  0.0628
    1DIPC   GL218844   0.069  24.443   3.721 -0.1584 -0.0334 -0.1769
    1DIPC   C1A18845   0.618  24.413   3.848 -0.0426  0.2117  0.3153
    1DIPC   D2A18846   0.924  24.365   4.184 -0.0161  0.0249  0.0886
    1DIPC   D3A18847   1.134  24.061   4.343  0.0347  0.3476 -0.1975
    1DIPC   C4A18848   1.266  23.725   4.113  0.2077  0.5420 -0.0000
    1DIPC   C1B18849  -0.299  24.368   3.919  0.0405 -0.0300 -0.1418
    1DIPC   D2B18850  -0.504  24.276   4.320 -0.0961 -0.3396  0.0827
    1DIPC   D3B18851  -0.144  24.133   4.579 -0.3175 -0.1129  0.1744
    1DIPC   C4B18852  -0.115  23.869   4.886  0.1257  0.1696 -0.5949
    1DIPC   NC318853  22.356  26.726   2.961  0.0888  0.0192  0.1510
    1DIPC   PO418854  22.040  26.525   3.124 -0.1364 -0.2628 -0.1532
    1DIPC   GL118855  21.759  26.705   3.561  0.0565 -0.0259  0.0070
    1DIPC   GL218856  21.851  26.970   3.656  0.2412 -0.1224  0.4116
    1DIPC   C1A18857  21.523  26.796   4.087 -0.1618  0.0656 -0.0080
    1DIPC   D2A18858  21.764  26.761   4.376  0.2611 -0.1876 -0.0579
    1DIPC   D3A18859  21.929  26.843   4.803  0.1812 -0.1377 -0.0393
    1DIPC   C4A18860  21.890  26.551   5.231  0.1778 -0.0101 -0.0120
    1DIPC   C1B18861  21.984  27.065   4.022  0.2844 -0.2498 -0.0717
    1DIPC   D2B18862  22.067  27.459   4.210  0.0062  0.3907  0.1668
    1DIPC   D3B18863  21.920  27.342   4.585 -0.1069  0.0643 -0.1774
    1DIPC   C4B18864  22.074  27.490   4.961  0.0014  0.1634  0.0814
    1DIPC   NC318865  27.475  10.614   2.331  0.3278 -0.0214  0.2787
    1DIPC   PO418866  27.819  10.734   2.601  0.1723  0.0031 -0.2963
    1DIPC   GL118867  27.840  10.732   3.037 -0.1101  0.1811  0.0905
    1DIPC   GL218868  27.576  10.536   3.151  0.1860 -0.1366  0.2898
    1DIPC   C1A18869  27.839  11.032   3.187  0.2396 -0.2712 -0.3124
    1DIPC   D2A18870  27.704  11.288   3.352 -0.0923 -0.1026 -0.2379
    1DIPC   D3A18871  27.690  11.722   3.564  0.1939  0.1785 -0.0784
    1DIPC   C4A18872  27.362  11.718   3.885  0.0990  0.0575  0.3802
    1DIPC   C1B18873  27.265  10.466   3.531 -0.1247 -0.1122  0.2704
    1DIPC   D2B18874  26.803  10.348   3.709  0.0593  0.0977  0.3549
    1DIPC   D3B18875  26.658  10.710   4.033 -0.1498 -0.0783  0.0183
    1DIPC   C4B18876  26.876  11.040   4.115 -0.1936  0.0582 -0.0511
    1DIPC   NC318877   3.804   4.038   3.091 -0.2527  0.0887 -0.2108
    1DIPC   PO418878   3.624   3.852   3.356  0.2130  0.2577  0.0495
    1DIPC   GL118879   3.536   3.921   3.643  0.1254  0.0900 -0.2925
    1DIPC   GL218880   3.443   3.605   3.777  0.2843 -0.3116  0.1202
    1DIPC   C1A18881   3.496   4.178   3.948  0.3015  0.1040 -0.1614
    1DIPC   D2A18882   3.460   4.453   4.367  0.0534 -0.0822  0.1717
    1DIPC   D3A18883   3.340   4.653   4.752  0.3688 -0.2398 -0.2141
    1DIPC   C4A18884   3.159   4.439   5.211  0.0182  0.0953  0.2458
    1DIPC   C1B18885   3.445   3.695   4.169  0.0108  0.1654  0.2144
    1DIPC   D2B18886   3.380   3.975   4.453  0.0564  0.2352  0.0585
    1DIPC   D3B18887   3.693   3.747   4.653 -0.1268  0.1245 -0.2461
    1DIPC   C4B18888   4.037   3.941   4.858 -0.3118 -0.0824  0.2881
    1DIPC   NC318889  25.643  27.229   3.698  0.1449  0.1142  0.1571
    1DIPC   PO418890  25.617  27.495   3.411  0.0918  0.0127  0.2719
    1DIPC   GL118891  25.318  27.632   3.806  0.3037  0.4246  0.2481
    1DIPC   GL218892  25.278  27.963   3.859 -0.2697  0.1132 -0.0914
    1DIPC   C1A18893  24.938  27.510   3.868  0.2603  0.2212 -0.2997
    1DIPC   D2A18894  24.726  27.385   4.210 -0.0414  0.1604  0.2019
    1DIPC   D3A18895  24.489  27.813   4.232 -0.3702 -0.0706 -0.1295
    1DIPC   C4A18896  24.207  28.025   4.553  0.0650  0.0221  0.1190
    1DIPC   C1B18897  25.000  27.950   4.218 -0.1402  0.1182  0.0206
    1DIPC   D2B18898  24.853  28.232   4.373 -0.0565 -0.0712 -0.1000
    1DIPC   D3B18899  24.771  27.954   4.770 -0.3547 -0.1544  0.0049
    1DIPC   C4B18900  25.116  28.009   5.171 -0.0581 -0.0217 -0.0092
    1DIPC   NC318901  12.410  28.370   3.771 -0.4455 -0.1243 -0.3254
    1DIPC   PO418902  12.557  28.034   3.708 -0.1976 -0.1696 -0.1691
    1DIPC   GL118903  12.206  27.958   4.138  0.1687 -0.1804 -0.2032
    1DIPC   GL218904  11.847  28.017   4.259  0.1182  0.1062  0.1578
    1DIPC   C1A18905  12.136  27.982   4.639 -0.2702 -0.1016 -0.1431
    1DIPC   D2A18906  12.132  28.239   4.999 -0.1020  0.0756  0.1295
    1DIPC   D3A18907  12.457  28.151   5.285  0.2245 -0.0969  0.1091
    1DIPC   C4A18908  12.828  28.165   5.110  0.2402  0.1524  0.1946
    1DIPC   C1B18909  11.668  27.923   4.679  0.0598 -0.0779  0.0921
    1DIPC   D2B18910  11.706  27.963   5.154  0.0102  0.1644 -0.3622
    1DIPC   D3B18911  11.908  28.131   5.561 -0.1986  0.3434 -0.1262
    1DIPC   C4B18912  12.031  28.601   5.618  0.0546  0.0809  0.3346
    1DIPC   NC318913   5.761  24.177   2.472 -0.1008  0.1866 -0.1976
    1DIPC   PO418914   6.236  24.341   2.562  0.0501  0.1216 -0.0824
    1DIPC   GL118915   6.034  24.235   3.005 -0.2201  0.2639  0.0784
    1DIPC   GL218916   5.766  24.005   3.036  0.2074  0.0762  0.0761
    1DIPC   C1A18917   6.191  24.074   3.356  0.2212 -0.2381 -0.1865
    1DIPC   D2A18918   6.199  23.939   3.763 -0.5000  0.0840  0.0666
    1DIPC   D3A18919   6.554  24.203   3.728  0.2699  0.0198  0.0189
    1DIPC   C4A18920   6.735  24.372   4.093  0.1519 -0.0652  0.0551
    1DIPC   C1B18921   5.666  23.828   3.360  0.2128 -0.1387  0.2464
    1DIPC   D2B18922   5.256  23.705   3.629 -0.1383  0.3319 -0.1431
    1DIPC   D3B18923   5.485  23.350   3.764 -0.0138  0.3199  0.0307
    1DIPC   C4B18924   5.394  22.880   3.633 -0.1497 -0.1621 -0.2567
    1DIPC   NC318925  17.197   8.091   2.863 -0.0545  0.0371 -0.2416
    1DIPC   PO418926  17.441   8.177   3.199  0.2165 -0.2292 -0.1009
    1DIPC   GL118927  17.327   8.256   3.551 -0.0239 -0.1801  0.0425
    1DIPC   GL218928  17.445   8.503   3.643  0.0912 -0.0844 -0.2028
    1DIPC   C1A18929  17.122   8.231   3.966  0.0397 -0.0619  0.1515
    1DIPC   D2A18930  16.783   8.129   4.268 -0.0816  0.1368  0.0379
    1DIPC   D3A18931  16.316   8.398   4.354 -0.0507 -0.0592 -0.1082
    1DIPC   C4A18932  15.925   8.375   4.711  0.0737  0.0777 -0.1211
    1DIPC   C1B18933  17.464   8.568   4.118  0.0930  0.0721 -0.0477
    1DIPC   D2B18934  17.491   8.574   4.518  0.2022 -0.2595 -0.1369
    1DIPC   D3B18935  17.152   8.393   4.474  0.2550 -0.2643 -0.1795
    1DIPC   C4B18936  17.170   7.947   4.528 -0.0034 -0.0264  0.1270
    1DIPC   NC318937   6.836  19.115   1.587 -0.0098 -0.2025  0.1060
    1DIPC   PO418938   6.522  19.346   1.921 -0.2756  0.3034  0.3478
    1DIPC   GL118939   6.281  19.307   2.254  0.2130  0.1786  0.0709
    1DIPC   GL218940   6.159  19.426   2.514 -0.2238 -0.0031  0.2658
    1DIPC   C1A18941   6.183  18.868   2.461 -0.3794 -0.0870  0.2427
    1DIPC   D2A18942   6.170  18.714   2.923  0.0398  0.1772 -0.0442
    1DIPC   D3A18943   6.085  18.838   3.351 -0.2436  0.2137 -0.1627
    1DIPC   C4A18944   5.682  18.843   3.437 -0.2884 -0.2681 -0.0470
    1DIPC   C1B18945   6.163  19.232   2.916 -0.0366  0.0767  0.2865
    1DIPC   D2B18946   6.251  19.290   3.308  0.1592  0.2724 -0.0837
    1DIPC   D3B18947   6.312  19.724   3.094 -0.2297  0.0142 -0.0175
    1DIPC   C4B18948   5.990  19.760   2.799 -0.2654  0.0135 -0.1548
    1DIPC   NC318949  21.877  11.019   3.475 -0.1823  0.1181 -0.1936
    1DIPC   PO418950  21.777  10.580   3.569 -0.0042 -0.0102 -0.0545
    1DIPC   GL118951  21.682  10.435   3.939  0.0682  0.1974  0.2607
    1DIPC   GL218952  21.599  10.094   4.163  0.1006  0.0404  0.0107
    1DIPC   C1A18953  21.940  10.493   4.291 -0.2181  0.3087  0.1656
    1DIPC   D2A18954  22.240  10.368   4.555  0.1337  0.0633  0.0898
    1DIPC   D3A18955  21.829  10.465   4.821  0.3403 -0.0495  0.2568
    1DIPC   C4A18956  21.863  10.799   5.081  0.0408  0.0635  0.2052
    1DIPC   C1B18957  21.495  10.074   4.551  0.0797 -0.3543  0.1412
    1DIPC   D2B18958  21.594  10.010   5.006  0.2667 -0.1264  0.0274
    1DIPC   D3B18959  21.179  10.102   5.171 -0.3236 -0.0583  0.2613
    1DIPC   C4B18960  21.093  10.279   5.660 -0.1199 -0.2047  0.0509
    1DIPC   NC318961  27.687  27.842   3.402  0.0452  0.0440  0.0875
    1DIPC   PO418962  27.377  27.841   3.698 -0.1132 -0.0605 -0.1903
    1DIPC   GL118963  27.204  27.992   3.945 -0.0712  0.2905  0.0085
    1DIPC   GL218964  27.123  27.860   4.107  0.3871 -0.2483  0.2551
    1DIPC   C1A18965  27.322  28.290   4.173  0.1260 -0.0578 -0.1117
    1DIPC   D2A18966  27.104  28.560   4.558 -0.1358  0.0044 -0.2140
    1DIPC   D3A18967  27.430  28.321   4.801 -0.1016  0.0584 -0.4018
    1DIPC   C4A18968  27.817  28.102   4.747 -0.0026 -0.0642  0.0020
    1DIPC   C1B18969  27.136  27.960   4.579 -0.0755  0.0609 -0.1424
    1DIPC   D2B18970  27.232  27.857   5.114  0.2107 -0.1157 -0.0642
    1DIPC   D3B18971  27.612  28.003   5.211 -0.0205  0.0788 -0.1571
    1DIPC   C4B18972  27.942  27.726   5.175  0.0618 -0.3086  0.5864
    1DIPC   NC318973   4.179  18.353   2.256  0.0625 -0.0792  0.0347
    1DIPC   PO418974   4.022  18.764   2.001 -0.1878 -0.0474 -0.1508
    1DIPC   GL118975   3.842  18.755   2.462  0.0984 -0.3690 -0.1482
    1DIPC   GL218976   3.774  18.455   2.543  0.3882  0.3354  0.1229
    1DIPC   C1A18977   3.751  18.922   2.776 -0.1385 -0.3937  0.1029
    1DIPC   D2A18978   3.600  19.140   3.132  0.0183  0.1258  0.0457
    1DIPC   D3A18979   3.642  18.694   3.376  0.3866  0.1394  0.3126
    1DIPC   C4A18980   3.777  18.455   3.090 -0.3767  0.3399  0.1259
    1DIPC   C1B18981   3.502  18.224   2.724 -0.1183  0.1083  0.4218
    1DIPC   D2B18982   3.336  18.317   3.201 -0.0190  0.0789  0.1957
    1DIPC   D3B18983   3.618  17.954   3.308 -0.0165 -0.2308  0.3572
    1DIPC   C4B18984   3.883  17.803   2.845 -0.2079 -0.2112  0.0964
    1DIPC   NC318985  23.500  20.101   2.947 -0.0188 -0.0963 -0.2138
    1DIPC   PO418986  23.135  20.181   3.300 -0.0282 -0.1275  0.3186
    1DIPC   GL118987  23.077  20.203   3.682  0.2869  0.2082  0.2223
    1DIPC   GL218988  22.791  20.331   3.758  0.0296 -0.0822 -0.0089
    1DIPC   C1A18989  23.067  20.183   4.153 -0.0925 -0.4011 -0.0032
    1DIPC   D2A18990  23.379  20.181   4.502 -0.1282 -0.0065 -0.2659
    1DIPC   D3A18991  22.958  20.120   4.622  0.3884 -0.2512  0.0511
    1DIPC   C4A18992  22.872  19.854   4.987  0.1383  0.1671 -0.0894
    1DIPC   C1B18993  22.578  19.982   3.992  0.0409 -0.0570  0.2603
    1DIPC   D2B18994  22.414  19.833   4.334 -0.0783  0.1470 -0.0557
    1DIPC   D3B18995  22.811  19.694   4.496 -0.0032 -0.3079  0.2838
    1DIPC   C4B18996  22.908  19.594   4.133  0.0471 -0.0059 -0.0739
    1DIPC   NC318997   0.945  26.027   3.143 -0.3353 -0.0338  0.4070
    1DIPC   PO418998   1.117  26.333   3.051  0.0834 -0.1341 -0.1877
    1DIPC   GL118999   1.223  26.356   3.512 -0.0816 -0.2660 -0.4307
    1DIPC   GL219000   1.494  26.358   3.526 -0.0252 -0.3420  0.1566
    1DIPC   C1A19001   1.269  26.667   3.798 -0.1111  0.0596 -0.0366
    1DIPC   D2A19002   1.040  26.922   4.162 -0.3210 -0.2949 -0.1986
    1DIPC   D3A19003   1.356  26.637   4.375  0.0780  0.2670  0.0448
    1DIPC   C4A19004   1.099  26.198   4.494  0.0592 -0.3786  0.1392
    1DIPC   C1B19005   1.787  26.329   3.963  0.3690  0.2358 -0.0968
    1DIPC   D2B19006   2.059  26.372   4.374 -0.0713 -0.1873  0.2228
    1DIPC   D3B19007   2.553  26.364   4.324  0.1810  0.1169 -0.0418
    1DIPC   C4B19008   2.765  26.081   4.379  0.1947  0.2449 -0.1984
    1DIPC   NC319009   3.161   6.512   3.134 -0.3427 -0.1897 -0.0032
    1DIPC   PO419010   2.708   6.510   3.138 -0.1661 -0.0839 -0.4812
    1DIPC   GL119011   2.869   6.396   3.498 -0.2510 -0.1585  0.1031
    1DIPC   GL219012   3.120   6.585   3.617 -0.1416 -0.1741 -0.0707
    1DIPC   C1A19013   2.726   6.352   3.897  0.1133  0.1784 -0.2562
    1DIPC   D2A19014   2.601   6.154   4.325 -0.3085 -0.1550 -0.1867
    1DIPC   D3A19015   2.995   6.313   4.552  0.1117  0.0415 -0.0709
    1DIPC   C4A19016   3.401   6.298   4.873  0.0875  0.1078  0.2708
    1DIPC   C1B19017   2.927   6.859   3.943  0.0923 -0.0793  0.0183
    1DIPC   D2B19018   2.429   6.759   4.087 -0.2018 -0.4449  0.0312
    1DIPC   D3B19019   2.124   6.906   4.350 -0.0310 -0.0503 -0.0478
    1DIPC   C4B19020   2.015   7.252   4.301 -0.0011 -0.1392  0.0454
    1DIPC   NC319021  11.681   3.549   4.283  0.2827  0.0225  0.1267
    1DIPC   PO419022  11.214   3.334   4.389 -0.3137 -0.3777  0.1814
    1DIPC   GL119023  11.456   3.356   4.764 -0.0215 -0.1527 -0.0824
    1DIPC   GL219024  11.475   3.690   4.898  0.0416 -0.1868  0.2560
    1DIPC   C1A19025  11.457   3.352   5.222 -0.2668 -0.0273 -0.0472
    1DIPC   D2A19026  11.665   3.371   5.625  0.4724 -0.0753 -0.1828
    1DIPC   D3A19027  11.559   3.016   5.605  0.0600 -0.1635  0.0556
    1DIPC   C4A19028  11.190   2.905   5.532  0.1210 -0.0780 -0.1067
    1DIPC   C1B19029  11.750   3.743   5.243 -0.2245 -0.2329 -0.0877
    1DIPC   D2B19030  11.891   3.812   5.730 -0.1483 -0.3167  0.0625
    1DIPC   D3B19031  11.772   4.226   5.580 -0.1481 -0.2561  0.1878
    1DIPC   C4B19032  11.978   4.558   5.320  0.0080  0.0924 -0.0881
    1DIPC   NC319033  11.643  23.342   2.864  0.0263  0.0532  0.1024
    1DIPC   PO419034  11.549  23.747   3.049 -0.1269  0.2233 -0.0371
    1DIPC   GL119035  11.486  23.481   3.435  0.2408 -0.1252 -0.2633
    1DIPC   GL219036  11.272  23.362   3.589  0.1987  0.0675  0.0018
    1DIPC   C1A19037  11.495  23.719   3.862 -0.2354 -0.0557 -0.0606
    1DIPC   D2A19038  11.478  23.972   4.238  0.0964  0.0908  0.0770
    1DIPC   D3A19039  11.122  23.963   4.607 -0.3206  0.3388 -0.1676
    1DIPC   C4A19040  11.375  24.016   4.994 -0.1472 -0.4115  0.1400
    1DIPC   C1B19041  11.054  23.644   3.777  0.0238  0.0682  0.0886
    1DIPC   D2B19042  10.951  23.879   4.131 -0.2430  0.1325 -0.0556
    1DIPC   D3B19043  10.559  23.525   3.986 -0.4397 -0.2706  0.3317
    1DIPC   C4B19044  10.337  23.594   4.359 -0.0396  0.1270  0.1909
    1DIPC   NC319045   7.916  12.650   2.458  0.2436 -0.0901  0.0961
    1DIPC   PO419046   7.887  13.045   2.770 -0.1792  0.5948  0.2175
    1DIPC   GL119047   7.686  12.973   3.119  0.3504 -0.3883 -0.2829
    1DIPC   GL219048   7.665  13.326   3.222 -0.0537  0.0942 -0.0426
    1DIPC   C1A19049   7.643  12.940   3.602  0.1147 -0.2691  0.0533
    1DIPC   D2A19050   7.330  12.667   3.723  0.1302  0.0292  0.0096
    1DIPC   D3A19051   7.359  12.937   4.112  0.2023  0.0571 -0.1263
    1DIPC   C4A19052   7.660  13.162   4.012  0.1070  0.1681  0.0022
    1DIPC   C1B19053   7.519  13.438   3.618  0.1972  0.3713  0.0239
    1DIPC   D2B19054   7.369  13.527   4.091 -0.1455 -0.2703 -0.1796
    1DIPC   D3B19055   7.428  13.833   4.487  0.1901  0.0828  0.0519
    1DIPC   C4B19056   7.622  14.173   4.515  0.2174 -0.2953 -0.1802
    1DIPC   NC319057  14.209  28.456   3.505  0.3587  0.3758 -0.2163
    1DIPC   PO419058  14.150  28.640   3.852  0.2815 -0.2519 -0.1186
    1DIPC   GL119059  14.320  28.516   4.259  0.1086  0.0370  0.3778
    1DIPC   GL219060  14.510  28.297   4.370  0.0560  0.1123  0.1052
    1DIPC   C1A19061  14.158  28.706   4.515 -0.0924 -0.3184 -0.0822
    1DIPC   D2A19062  13.822  28.848   4.707  0.0946  0.1791  0.1846
    1DIPC   D3A19063  13.417  28.836   4.973  0.1782  0.0905  0.0447
    1DIPC   C4A19064  13.115  29.154   4.739  0.3419 -0.0425  0.0406
    1DIPC   C1B19065  14.398  27.999   4.648  0.1993  0.2552 -0.1828
    1DIPC   D2B19066  14.391  27.664   5.039 -0.2117 -0.0704 -0.2455
    1DIPC   D3B19067  14.242  27.653   5.415 -0.2419  0.2762  0.0414
    1DIPC   C4B19068  14.476  27.736   5.863  0.2125  0.0076 -0.0492
    1DIPC   NC319069   0.213  23.926   2.690 -0.1553 -0.0004 -0.1810
    1DIPC   PO419070  -0.227  24.062   2.980 -0.2235 -0.1079 -0.3188
    1DIPC   GL119071  -0.356  24.031   3.407  0.1152  0.1321  0.2658
    1DIPC   GL219072  -0.118  23.956   3.637  0.0571 -0.0657  0.0357
    1DIPC   C1A19073  -0.691  24.077   3.710 -0.1596  0.2462  0.1697
    1DIPC   D2A19074  -0.813  23.974   4.176  0.2258  0.0653 -0.1381
    1DIPC   D3A19075  -0.970  24.250   4.515  0.0466  0.2943 -0.1869
    1DIPC   C4A19076  -0.804  24.631   4.733  0.4474  0.2383 -0.0282
    1DIPC   C1B19077   0.100  23.754   3.953  0.1144 -0.1007  0.2100
    1DIPC   D2B19078   0.377  23.406   4.073 -0.0784 -0.1771  0.1999
    1DIPC   D3B19079   0.477  23.135   4.408  0.0345 -0.0387 -0.2796
    1DIPC   C4B19080   0.845  23.013   4.592  0.0198  0.1568  0.2139
    1DIPC   NC319081  13.340  22.110   3.249  0.3169 -0.2093  0.4215
    1DIPC   PO419082  13.668  22.321   3.430  0.0248 -0.0899  0.1321
    1DIPC   GL119083  13.690  22.227   3.833 -0.2054 -0.1692  0.2232
    1DIPC   GL219084  13.686  22.537   4.031  0.1369 -0.1094  0.1846
    1DIPC   C1A19085  13.265  22.241   4.163 -0.2332  0.0131  0.1254
    1DIPC   D2A19086  13.343  22.075   4.618 -0.1161  0.1152 -0.0130
    1DIPC   D3A19087  13.121  22.274   4.992  0.1058 -0.2260 -0.0927
    1DIPC   C4A19088  12.707  22.250   5.145  0.0238  0.5469 -0.3252
    1DIPC   C1B19089  13.579  22.481   4.440 -0.0903 -0.1911  0.0176
    1DIPC   D2B19090  13.521  22.641   4.797 -0.2445  0.0308 -0.1664
    1DIPC   D3B19091  13.716  22.277   4.905 -0.0622 -0.3109  0.0083
    1DIPC   C4B19092  13.448  22.030   5.262  0.1665  0.0107  0.1878
    1DIPC   NC319093  27.021  25.536   2.843  0.0921 -0.1700 -0.2717
    1DIPC   PO419094  26.738  25.501   3.102  0.0653 -0.0818 -0.2655
    1DIPC   GL119095  26.870  25.615   3.556  0.2909  0.1049 -0.2856
    1DIPC   GL219096  27.225  25.582   3.627  0.0901 -0.0803 -0.1011
    1DIPC   C1A19097  26.716  25.843   3.865 -0.4027 -0.1205  0.2032
    1DIPC   D2A19098  26.464  26.205   4.033 -0.4345 -0.2520 -0.1610
    1DIPC   D3A19099  26.205  25.963   4.224  0.0090  0.1732 -0.0773
    1DIPC   C4A19100  26.323  25.720   4.503 -0.0867  0.1544 -0.1480
    1DIPC   C1B19101  27.155  25.661   4.020 -0.0054  0.0554 -0.3085
    1DIPC   D2B19102  27.142  25.657   4.437 -0.2148 -0.2265 -0.2696
    1DIPC   D3B19103  27.228  25.222   4.349 -0.2026 -0.3978 -0.0272
    1DIPC   C4B19104  27.528  25.276   3.978  0.0936 -0.2131 -0.3482
    1DIPC   NC319105  22.303   6.213   3.405  0.2676 -0.1220 -0.0815
    1DIPC   PO419106  22.260   5.808   3.668 -0.0234 -0.1455  0.1730
    1DIPC   GL119107  21.966   5.718   3.996 -0.0834 -0.1225  0.1626
    1DIPC   GL219108  22.090   5.588   4.277 -0.1240  0.0814 -0.1372
    1DIPC   C1A19109  21.722   6.058   4.214 -0.0141 -0.0182  0.1212
    1DIPC   D2A19110  21.420   6.084   4.498 -0.1714  0.1875  0.0341
    1DIPC   D3A19111  21.071   5.713   4.381  0.2624 -0.0886  0.0177
    1DIPC   C4A19112  20.975   5.351   4.498 -0.2497  0.1983  0.1355
    1DIPC   C1B19113  22.501   5.890   4.337 -0.1149  0.0667 -0.1720
    1DIPC   D2B19114  22.904   5.921   4.536  0.0263 -0.1180  0.3393
    1DIPC   D3B19115  23.293   5.675   4.504  0.2806  0.1427 -0.0576
    1DIPC   C4B19116  23.319   5.562   4.905 -0.1170  0.1175 -0.0391
    1DIPC   NC319117  25.876   3.860   3.141 -0.0151 -0.1619 -0.0394
    1DIPC   PO419118  25.471   4.014   3.321  0.0520 -0.4385  0.0291
    1DIPC   GL119119  25.495   4.353   3.626 -0.0088 -0.0193 -0.0849
    1DIPC   GL219120  25.676   4.580   3.857 -0.0266 -0.0301  0.1547
    1DIPC   C1A19121  25.242   4.717   3.785  0.0990  0.0277  0.1193
    1DIPC   D2A19122  24.918   4.791   4.052  0.1874 -0.3031 -0.1146
    1DIPC   D3A19123  24.499   4.803   4.066 -0.3174 -0.0764 -0.0178
    1DIPC   C4A19124  24.315   4.648   4.382 -0.0142 -0.0063  0.2312
    1DIPC   C1B19125  25.550   4.697   4.314  0.0100 -0.2261  0.2275
    1DIPC   D2B19126  25.370   4.864   4.684  0.0722 -0.0075 -0.0025
    1DIPC   D3B19127  25.777   4.886   4.737 -0.1679  0.1161 -0.1082
    1DIPC   C4B19128  25.943   5.174   4.863 -0.0659 -0.1672  0.3528
    1DIPC   NC319129  14.331  23.576   3.278  0.1542 -0.0294  0.1247
    1DIPC   PO419130  14.521  23.971   3.416 -0.0540  0.3681  0.1904
    1DIPC   GL119131  14.717  23.876   3.806 -0.1712 -0.0423  0.0563
    1DIPC   GL219132  14.834  23.538   3.925  0.3701 -0.0088 -0.0606
    1DIPC   C1A19133  14.602  23.931   4.241  0.1288 -0.0413 -0.0765
    1DIPC   D2A19134  14.363  23.726   4.561 -0.0134  0.4377  0.1499
    1DIPC   D3A19135  14.111  24.026   4.810  0.0789  0.2113 -0.1943
    1DIPC   C4A19136  14.266  24.231   5.155 -0.1227  0.2760 -0.0323
    1DIPC   C1B19137  14.827  23.415   4.447  0.0817  0.0078  0.2355
    1DIPC   D2B19138  14.807  23.326   4.838 -0.0718 -0.0959  0.1782
    1DIPC   D3B19139  14.991  23.567   5.079  0.1285 -0.1878  0.1483
    1DIPC   C4B19140  14.666  23.853   5.323 -0.0946  0.3293  0.1481
    1DIPC   NC319141   1.889  17.188   2.525  0.0782 -0.1497 -0.4504
    1DIPC   PO419142   1.645  16.690   2.543  0.1382 -0.1487  0.2832
    1DIPC   GL119143   1.852  16.872   2.951 -0.0225 -0.0139 -0.2245
    1DIPC   GL219144   1.707  17.101   3.023 -0.0537  0.0528  0.1327
    1DIPC   C1A19145   2.047  16.868   3.372 -0.0839 -0.0516 -0.1396
    1DIPC   D2A19146   2.103  16.738   3.734 -0.0954  0.0203 -0.1492
    1DIPC   D3A19147   2.366  16.979   3.827  0.0869  0.0358  0.2914
    1DIPC   C4A19148   2.394  17.269   3.498  0.0771 -0.2159  0.2194
    1DIPC   C1B19149   1.480  16.890   3.270 -0.0166  0.2420 -0.2232
    1DIPC   D2B19150   1.218  16.962   3.619 -0.0816  0.1604  0.1478
    1DIPC   D3B19151   1.326  17.042   4.074 -0.0033  0.0416 -0.1472
    1DIPC   C4B19152   1.401  16.792   4.393 -0.0897 -0.0465  0.2239
    1DIPC   NC319153   3.820  25.567   2.909 -0.1048  0.3606 -0.0279
    1DIPC   PO419154   4.081  25.478   3.177 -0.1211 -0.1445  0.0493
    1DIPC   GL119155   4.100  25.253   3.466 -0.0803  0.3103  0.1533
    1DIPC   GL219156   4.168  25.456   3.755  0.2473 -0.0886  0.2289
    1DIPC   C1A19157   4.358  24.953   3.665  0.0175  0.2577 -0.3456
    1DIPC   D2A19158   4.609  24.659   3.488 -0.0161  0.0767 -0.3122
    1DIPC   D3A19159   4.907  24.913   3.739 -0.0473 -0.0914  0.0506
    1DIPC   C4A19160   4.882  24.869   4.119  0.0754 -0.3265  0.1995
    1DIPC   C1B19161   4.691  25.369   3.690  0.2241 -0.1231 -0.0187
    1DIPC   D2B19162   5.040  25.349   3.512  0.1031 -0.2753  0.0594
    1DIPC   D3B19163   5.229  25.603   3.759  0.2958 -0.1111 -0.0507
    1DIPC   C4B19164   5.562  25.609   4.044 -0.3696 -0.3561  0.2816
    1DIPC   NC319165  13.402  26.447   3.442 -0.0081  0.0341 -0.0325
    1DIPC   PO419166  13.688  26.745   3.671  0.1988  0.3447 -0.0933
    1DIPC   GL119167  13.954  26.628   4.000 -0.0879  0.1294 -0.0667
    1DIPC   GL219168  14.130  26.815   4.237 -0.1722  0.1283  0.4729
    1DIPC   C1A19169  13.920  26.251   4.310 -0.1618 -0.1283 -0.0445
    1DIPC   D2A19170  13.887  26.043   4.634 -0.0349 -0.1796 -0.0053
    1DIPC   D3A19171  14.236  26.108   4.889  0.0953 -0.1630  0.0311
    1DIPC   C4A19172  14.435  26.149   5.151  0.1988  0.0142 -0.4113
    1DIPC   C1B19173  14.029  27.073   4.627 -0.0984 -0.1211 -0.1875
    1DIPC   D2B19174  13.681  27.054   4.840  0.0389 -0.1205  0.1022
    1DIPC   D3B19175  13.656  26.643   4.665  0.4116 -0.0116  0.1220
    1DIPC   C4B19176  13.746  26.398   5.009  0.4999 -0.1141  0.0337
    1DIPC   NC319177  26.989  15.970   2.281 -0.0087 -0.1073  0.0032
    1DIPC   PO419178  27.195  16.479   2.233 -0.1534 -0.0934  0.0713
    1DIPC   GL119179  27.279  16.306   2.675  0.1120  0.2916 -0.3057
    1DIPC   GL219180  27.533  16.421   2.847 -0.2592 -0.0193  0.3356
    1DIPC   C1A19181  26.981  16.344   3.022 -0.2163 -0.1269  0.0099
    1DIPC   D2A19182  26.691  16.221   3.489 -0.0807 -0.0002  0.0498
    1DIPC   D3A19183  27.043  16.277   3.799 -0.1135  0.0937  0.0128
    1DIPC   C4A19184  27.081  16.658   4.050  0.0153 -0.1239 -0.1592
    1DIPC   C1B19185  27.451  16.488   3.307  0.0537  0.0742  0.2750
    1DIPC   D2B19186  27.554  16.398   3.727  0.2302  0.1021 -0.0073
    1DIPC   D3B19187  27.698  16.149   4.088 -0.0075  0.1404 -0.0730
    1DIPC   C4B19188  27.349  16.280   4.243 -0.0814  0.0916 -0.2074
    1DIPC   NC319189   5.536   3.452   3.257 -0.0930 -0.0040  0.0991
    1DIPC   PO419190   6.047   3.424   3.286  0.3633 -0.1767  0.0720
    1DIPC   GL119191   5.971   3.523   3.693 -0.1175  0.1431 -0.1280
    1DIPC   GL219192   5.806   3.294   3.796  0.1710 -0.0701  0.1897
    1DIPC   C1A19193   5.985   3.750   4.092  0.0034 -0.0700 -0.2008
    1DIPC   D2A19194   5.726   3.547   4.394 -0.3193  0.1899  0.0104
    1DIPC   D3A19195   5.946   3.699   4.772  0.0358 -0.1583  0.1470
    1DIPC   C4A19196   5.969   4.169   4.821 -0.2883  0.0265  0.1457
    1DIPC   C1B19197   5.410   3.334   4.119 -0.1956 -0.0996  0.0194
    1DIPC   D2B19198   5.018   3.504   4.399  0.2000  0.0255 -0.3820
    1DIPC   D3B19199   4.995   3.952   4.571  0.0243  0.0336 -0.0706
    1DIPC   C4B19200   4.918   4.245   4.381 -0.1988 -0.0894 -0.2975
    1DIPC   NC319201   2.640  27.235   2.481 -0.1815 -0.0960  0.2316
    1DIPC   PO419202   2.354  27.123   2.760  0.0839  0.0994  0.2079
    1DIPC   GL119203   2.327  27.491   3.094  0.0327 -0.3975  0.0998
    1DIPC   GL219204   2.495  27.428   3.287 -0.2397 -0.1081  0.0329
    1DIPC   C1A19205   2.125  27.702   3.438 -0.0016 -0.1867 -0.1828
    1DIPC   D2A19206   2.037  27.879   3.883 -0.5118  0.0950  0.0842
    1DIPC   D3A19207   2.226  27.717   4.293 -0.0108  0.0852 -0.0362
    1DIPC   C4A19208   2.477  27.571   4.618 -0.2579  0.1203  0.4076
    1DIPC   C1B19209   2.515  27.481   3.732 -0.0459 -0.4023  0.0421
    1DIPC   D2B19210   2.379  27.323   4.121 -0.4146  0.0995  0.0547
    1DIPC   D3B19211   2.299  26.828   4.211 -0.1118 -0.1256  0.0095
    1DIPC   C4B19212   2.287  26.700   4.670 -0.1684  0.1506 -0.0858
    1DIPC   NC319213  11.672  20.331   2.845 -0.1004 -0.2228  0.1265
    1DIPC   PO419214  11.243  20.435   2.805 -0.3402 -0.1700  0.1407
    1DIPC   GL119215  11.176  20.377   3.193 -0.1508 -0.1548 -0.3203
    1DIPC   GL219216  11.381  20.459   3.371  0.1539  0.2437 -0.0389
    1DIPC   C1A19217  10.816  20.490   3.345 -0.1478 -0.0990 -0.1093
    1DIPC   D2A19218  10.568  20.353   3.524 -0.0077 -0.2037 -0.1939
    1DIPC   D3A19219  10.595  20.850   3.584  0.1771 -0.1397  0.1720
    1DIPC   C4A19220  10.978  20.945   3.671 -0.1696 -0.0320 -0.1534
    1DIPC   C1B19221  11.222  20.398   3.719 -0.2785 -0.1727  0.0560
    1DIPC   D2B19222  10.916  20.285   3.880 -0.0122  0.1746 -0.0178
    1DIPC   D3B19223  10.920  20.726   4.153  0.0629 -0.2158  0.2047
    1DIPC   C4B19224  11.223  21.064   4.076  0.0469 -0.1233 -0.0986
    1DIPC   NC319225  14.135  22.096   3.204 -0.0279 -0.0526 -0.2478
    1DIPC   PO419226  14.377  22.054   3.530 -0.0680  0.3309 -0.0246
    1DIPC   GL119227  14.560  21.979   3.933  0.1164  0.0643  0.0448
    1DIPC   GL219228  14.819  21.947   3.912  0.1125  0.1871  0.1995
    1DIPC   C1A19229  14.432  22.007   4.375  0.1154  0.1286  0.1331
    1DIPC   D2A19230  14.282  22.125   4.726 -0.3844 -0.0326  0.1071
    1DIPC   D3A19231  14.462  21.961   5.067 -0.0621 -0.0814  0.0693
    1DIPC   C4A19232  14.634  22.096   5.437 -0.0614  0.1160 -0.0156
    1DIPC   C1B19233  14.901  21.887   4.305 -0.3519  0.1232 -0.0644
    1DIPC   D2B19234  14.857  21.726   4.710 -0.0258 -0.2856  0.2234
    1DIPC   D3B19235  14.781  22.235   4.663 -0.1097  0.1466 -0.2832
    1DIPC   C4B19236  15.033  22.536   4.670  0.2159  0.0616 -0.0688
    1DIPC   NC319237   5.946  26.115   2.723  0.0647 -0.1012 -0.0804
    1DIPC   PO419238   6.298  25.988   2.923  0.1928  0.0800 -0.1121
    1DIPC   GL119239   6.121  26.110   3.310 -0.2056  0.0107 -0.3854
    1DIPC   GL219240   6.448  26.047   3.445 -0.3113  0.0026  0.1348
    1DIPC   C1A19241   5.883  26.475   3.530  0.1532  0.2439  0.1130
    1DIPC   D2A19242   5.712  26.839   3.736 -0.1520 -0.5174  0.1109
    1DIPC   D3A19243   5.667  27.230   3.883 -0.0648  0.0765  0.1063
    1DIPC   C4A19244   5.834  27.235   4.215  0.1103  0.1604 -0.2883
    1DIPC   C1B19245   6.422  26.318   3.803  0.4083  0.0613 -0.2092
    1DIPC   D2B19246   6.560  26.558   4.113 -0.0549  0.2689  0.0275
    1DIPC   D3B19247   6.383  26.417   4.579 -0.0477 -0.1001 -0.3459
    1DIPC   C4B19248   6.498  26.781   4.781 -0.0186  0.1047  0.0077
    1DIPC   NC319249  24.091  27.720   2.695  0.3212  0.4138  0.1074
    1DIPC   PO419250  23.879  27.562   3.023 -0.0994 -0.1623 -0.1286
    1DIPC   GL119251  23.809  27.686   3.422  0.1369  0.1022 -0.0896
    1DIPC   GL219252  23.771  27.935   3.430  0.1084 -0.1447  0.1786
    1DIPC   C1A19253  23.852  27.599   3.876  0.1419 -0.1069 -0.0760
    1DIPC   D2A19254  23.879  27.597   4.332 -0.0316  0.4149 -0.2503
    1DIPC   D3A19255  24.254  27.386   4.615  0.3448 -0.1301  0.0283
    1DIPC   C4A19256  24.140  27.275   5.036 -0.2919  0.0840  0.0507
    1DIPC   C1B19257  23.864  28.105   3.770 -0.2806 -0.0771  0.2736
    1DIPC   D2B19258  24.066  27.958   4.119  0.3556  0.3111 -0.0877
    1DIPC   D3B19259  24.325  27.832   3.759  0.2530 -0.0688  0.0829
    1DIPC   C4B19260  24.716  27.920   3.751  0.0189 -0.1666  0.2805
    1DIPC   NC319261  28.685   9.278   2.369 -0.0242 -0.0285 -0.1370
    1DIPC   PO419262  29.035   8.832   2.454 -0.1273 -0.0349 -0.0447
    1DIPC   GL119263  29.126   9.115   2.782 -0.0232 -0.4013  0.0360
    1DIPC   GL219264  29.173   8.918   3.062 -0.3070  0.1972  0.0716
    1DIPC   C1A19265  28.802   9.244   3.028 -0.5597  0.0542 -0.0658
    1DIPC   D2A19266  28.615   9.155   3.455  0.1278 -0.0091 -0.0678
    1DIPC   D3A19267  28.704   8.802   3.351  0.1060 -0.0631  0.1702
    1DIPC   C4A19268  28.633   8.593   3.711  0.0524  0.1818 -0.0909
    1DIPC   C1B19269  29.210   9.168   3.357 -0.0081 -0.1357 -0.1388
    1DIPC   D2B19270  29.064   9.133   3.783 -0.0307  0.0508  0.0966
    1DIPC   D3B19271  28.848   9.473   3.828 -0.1493  0.0957 -0.1310
    1DIPC   C4B19272  28.797   9.877   4.060  0.2543 -0.2862  0.2006
    1DIPC   NC319273  22.360  16.843   2.565  0.3640 -0.3405 -0.0524
    1DIPC   PO419274  21.890  16.959   2.462 -0.2448  0.0141 -0.2084
    1DIPC   GL119275  21.960  16.804   2.883 -0.0148 -0.0564  0.2335
    1DIPC   GL219276  22.288  16.923   3.103  0.1523 -0.1660 -0.4136
    1DIPC   C1A19277  21.993  16.526   3.227 -0.0515  0.2116  0.0635
    1DIPC   D2A19278  22.180  16.121   3.275 -0.1147 -0.1368  0.0879
    1DIPC   D3A19279  22.503  15.866   3.415 -0.2886  0.0066  0.1379
    1DIPC   C4A19280  22.850  15.914   3.672 -0.0113 -0.2183 -0.2024
    1DIPC   C1B19281  22.480  16.604   3.552  0.0008  0.1293 -0.2239
    1DIPC   D2B19282  22.395  16.229   3.761  0.0681  0.0693 -0.1203
    1DIPC   D3B19283  22.564  16.451   4.020  0.1050 -0.2022 -0.2851
    1DIPC   C4B19284  22.395  16.458   4.472  0.1610  0.1808  0.0212
    1DIPC   NC319285   9.866  25.349   2.790  0.1608 -0.0720 -0.0268
    1DIPC   PO419286   9.748  25.064   2.564  0.1194  0.1587  0.0263
    1DIPC   GL119287   9.803  24.875   3.022 -0.1921  0.0531 -0.0166
    1DIPC   GL219288   9.706  25.169   3.279 -0.0687  0.0868 -0.1616
    1DIPC   C1A19289   9.522  24.645   3.276  0.1132  0.2007  0.1895
    1DIPC   D2A19290   9.513  24.453   3.751 -0.2458 -0.0355 -0.1544
    1DIPC   D3A19291   9.689  24.654   4.082 -0.1271  0.2139  0.2567
    1DIPC   C4A19292   9.756  24.397   4.396  0.2130 -0.4133  0.0562
    1DIPC   C1B19293  10.098  25.197   3.494  0.3185 -0.2851  0.2693
    1DIPC   D2B19294  10.281  24.991   3.880 -0.1500 -0.0023  0.1116
    1DIPC   D3B19295  10.074  25.234   4.149  0.0406  0.2985 -0.0292
    1DIPC   C4B19296   9.624  25.185   4.218 -0.1752 -0.2421 -0.3372
    1DIPC   NC319297  22.920   2.902   2.802  0.1528  0.0977  0.0914
    1DIPC   PO419298  22.969   2.485   2.973 -0.0595  0.1179  0.0731
    1DIPC   GL119299  23.201   2.338   3.219 -0.0489  0.1467 -0.1230
    1DIPC   GL219300  23.582   2.217   3.316 -0.2258  0.1390  0.1195
    1DIPC   C1A19301  23.141   1.996   3.631  0.0831  0.0350  0.1401
    1DIPC   D2A19302  23.255   2.025   4.055 -0.0977 -0.0888 -0.1862
    1DIPC   D3A19303  23.195   2.307   4.418  0.1629  0.0351  0.2892
    1DIPC   C4A19304  22.907   2.694   4.421  0.1539  0.0922  0.0807
    1DIPC   C1B19305  23.351   2.466   3.658 -0.3379  0.1926 -0.1883
    1DIPC   D2B19306  23.137   2.516   3.947 -0.0753 -0.1293  0.2285
    1DIPC   D3B19307  22.790   2.304   3.878  0.1729  0.1852  0.0170
    1DIPC   C4B19308  22.360   2.412   4.077  0.0213 -0.1150 -0.0955
    1DIPC   NC319309  16.176  10.217   2.538 -0.0999  0.1499  0.1613
    1DIPC   PO419310  16.098  10.168   2.937  0.0424  0.0954 -0.0350
    1DIPC   GL119311  16.336  10.028   3.184  0.2312  0.4015 -0.2445
    1DIPC   GL219312  16.634  10.104   3.281 -0.0753 -0.1866  0.1739
    1DIPC   C1A19313  16.240   9.886   3.570  0.2472  0.0049  0.3804
    1DIPC   D2A19314  16.245   9.767   3.952 -0.2369  0.0285 -0.1131
    1DIPC   D3A19315  16.596   9.622   4.330  0.1621 -0.2008  0.2011
    1DIPC   C4A19316  16.480   9.826   4.761 -0.3179  0.0225  0.0618
    1DIPC   C1B19317  16.938  10.304   3.542 -0.0984 -0.0436  0.0268
    1DIPC   D2B19318  16.977  10.642   3.759  0.0983  0.0157  0.0673
    1DIPC   D3B19319  16.796  10.497   4.152  0.1764 -0.1194 -0.0920
    1DIPC   C4B19320  16.622  10.661   4.525  0.0385 -0.1582 -0.3196
    1DIPC   NC319321   0.883  26.907   2.853 -0.1125 -0.1639 -0.0050
    1DIPC   PO419322   0.806  26.760   3.322  0.0226 -0.3083  0.0325
    1DIPC   GL119323   0.719  26.482   3.620  0.2274 -0.1890  0.1540
    1DIPC   GL219324   0.348  26.597   3.654 -0.0321  0.0625 -0.2987
    1DIPC   C1A19325   0.977  26.333   4.010  0.0311  0.0391  0.1996
    1DIPC   D2A19326   1.296  26.146   4.038  0.1715 -0.0297  0.2530
    1DIPC   D3A19327   1.555  25.895   3.809 -0.1378 -0.0730  0.2261
    1DIPC   C4A19328   1.527  25.455   3.945 -0.0053  0.1259  0.0616
    1DIPC   C1B19329   0.093  26.360   3.674  0.1790  0.2497 -0.1121
    1DIPC   D2B19330   0.053  25.977   3.902 -0.2393 -0.2484 -0.0026
    1DIPC   D3B19331   0.111  26.184   4.299  0.2577  0.1884 -0.0409
    1DIPC   C4B19332   0.559  26.203   4.442  0.0510 -0.3061 -0.1950
    1DIPC   NC319333   2.596   0.409   3.346 -0.1043 -0.4160  0.2098
    1DIPC   PO419334   2.234   0.658   3.164  0.0807  0.0578 -0.1580
    1DIPC   GL119335   2.221   0.592   3.643  0.0079  0.2071 -0.2196
    1DIPC   GL219336   2.425   0.479   3.858  0.1777 -0.0616 -0.1155
    1DIPC   C1A19337   1.793   0.635   3.907 -0.0034  0.0590 -0.0389
    1DIPC   D2A19338   1.663   0.636   4.452  0.1446  0.1482 -0.1191
    1DIPC   D3A19339   2.132   0.875   4.348  0.0889 -0.1139 -0.3058
    1DIPC   C4A19340   2.430   1.110   4.617  0.1332  0.0110  0.0563
    1DIPC   C1B19341   2.635   0.139   4.024  0.1453 -0.0122 -0.2104
    1DIPC   D2B19342   2.681  -0.127   4.352 -0.4500  0.1319 -0.2112
    1DIPC   D3B19343   2.399  -0.107   4.642 -0.1656  0.1674 -0.1612
    1DIPC   C4B19344   2.512  -0.086   5.093  0.2323  0.0237  0.1870
    1DIPC   NC319345  27.191  24.546   2.888  0.1062  0.1486  0.2240
    1DIPC   PO419346  27.232  24.438   3.336 -0.1479  0.0589 -0.5350
    1DIPC   GL119347  27.293  24.670   3.797  0.0880  0.0929 -0.3653
    1DIPC   GL219348  27.591  24.739   3.811 -0.0026  0.0605 -0.0944
    1DIPC   C1A19349  27.207  24.766   4.264  0.0273 -0.1605 -0.2087
    1DIPC   D2A19350  27.346  24.544   4.631 -0.1036 -0.2455  0.0023
    1DIPC   D3A19351  27.251  24.050   4.569 -0.0044  0.0998  0.0257
    1DIPC   C4A19352  27.533  23.759   4.618  0.0884 -0.0588  0.0279
    1DIPC   C1B19353  27.847  24.519   4.067 -0.1972 -0.2172 -0.1165
    1DIPC   D2B19354  28.085  24.831   4.338 -0.4434  0.4627  0.2571
    1DIPC   D3B19355  27.661  24.918   4.369  0.1695 -0.1170  0.5021
    1DIPC   C4B19356  27.465  24.938   4.872  0.0282 -0.1302  0.0192
    1DIPC   NC319357   1.777   2.461   2.714 -0.0456 -0.0744  0.1675
    1DIPC   PO419358   1.914   2.512   3.132  0.0049 -0.3217 -0.2150
    1DIPC   GL119359   1.908   2.634   3.661 -0.0093  0.1726 -0.1464
    1DIPC   GL219360   1.624   2.778   3.658 -0.0946  0.3583  0.0288
    1DIPC   C1A19361   1.995   2.382   4.018 -0.1963  0.0970  0.1208
    1DIPC   D2A19362   2.118   2.301   4.342 -0.1306  0.0108  0.0660
    1DIPC   D3A19363   1.814   2.541   4.577  0.0278  0.4306  0.0233
    1DIPC   C4A19364   1.822   2.895   4.754  0.0232  0.0884  0.1193
    1DIPC   C1B19365   1.907   3.075   3.860  0.2087 -0.3727  0.0466
    1DIPC   D2B19366   2.171   3.381   4.291 -0.0124 -0.3493  0.3310
    1DIPC   D3B19367   2.206   3.222   4.623 -0.0362  0.2164  0.1008
    1DIPC   C4B19368   2.156   3.431   4.962  0.1339 -0.1209  0.0881
    1DIPC   NC319369   6.863  13.695   2.586  0.0427 -0.1062  0.0044
    1DIPC   PO419370   6.597  13.367   2.824  0.0211 -0.0555 -0.1073
    1DIPC   GL119371   6.753  13.647   3.167  0.2244  0.4670 -0.0754
    1DIPC   GL219372   6.532  13.790   3.291 -0.2180  0.0179 -0.0709
    1DIPC   C1A19373   6.804  13.692   3.640  0.1512 -0.0317  0.2537
    1DIPC   D2A19374   6.919  13.737   4.026 -0.1997 -0.0849  0.2810
    1DIPC   D3A19375   6.914  13.978   4.417 -0.0703  0.3274 -0.3403
    1DIPC   C4A19376   6.703  14.449   4.486 -0.0066 -0.2539  0.2463
    1DIPC   C1B19377   6.325  13.735   3.615 -0.1130  0.1080  0.1562
    1DIPC   D2B19378   6.224  13.706   3.967 -0.2572  0.1685  0.2927
    1DIPC   D3B19379   6.475  13.992   4.197 -0.0852  0.3553  0.1584
    1DIPC   C4B19380   6.395  14.498   4.078 -0.1176 -0.1852  0.4006
    1DIPC   NC319381   1.145  19.663   1.960 -0.2144  0.1270 -0.1482
    1DIPC   PO419382   1.556  19.588   2.131 -0.0895 -0.0964 -0.2930
    1DIPC   GL119383   1.586  19.223   2.510  0.2591  0.2447  0.4152
    1DIPC   GL219384   1.224  19.125   2.739  0.1493  0.2528 -0.0310
    1DIPC   C1A19385   1.793  18.886   2.752  0.0083 -0.1268 -0.0415
    1DIPC   D2A19386   1.843  18.976   3.270  0.2224 -0.4434 -0.2440
    1DIPC   D3A19387   1.725  18.440   3.441  0.0110 -0.1328 -0.2824
    1DIPC   C4A19388   2.052  18.204   3.214 -0.0993 -0.0619 -0.0945
    1DIPC   C1B19389   1.377  18.816   3.055 -0.2264  0.1776  0.3095
    1DIPC   D2B19390   1.392  18.818   3.560 -0.0986 -0.0434  0.0693
    1DIPC   D3B19391   1.783  19.030   3.768  0.3640  0.0112 -0.1047
    1DIPC   C4B19392   1.767  19.471   3.970  0.2060 -0.1469 -0.0434
    1DIPC   NC319393  15.031   2.173   3.739  0.2430 -0.1425  0.1861
    1DIPC   PO419394  15.344   2.576   3.772  0.0293 -0.1745 -0.1848
    1DIPC   GL119395  15.006   2.551   4.141 -0.0778  0.0936  0.1147
    1DIPC   GL219396  14.990   2.895   4.380  0.0322 -0.2483 -0.0241
    1DIPC   C1A19397  14.901   2.480   4.619  0.2023  0.3535  0.1025
    1DIPC   D2A19398  15.003   2.756   4.916  0.3575  0.1435  0.0949
    1DIPC   D3A19399  15.130   3.172   4.827  0.1378  0.1997 -0.4099
    1DIPC   C4A19400  14.803   3.460   4.687 -0.2118 -0.2413 -0.0657
    1DIPC   C1B19401  15.391   2.673   4.539 -0.0563 -0.0008  0.1223
    1DIPC   D2B19402  15.813   2.686   4.674  0.2746  0.0663  0.0260
    1DIPC   D3B19403  15.947   3.021   5.040  0.3821 -0.0417  0.0556
    1DIPC   C4B19404  15.921   3.401   5.027 -0.0013  0.3331 -0.2102
    1DIPC   NC319405  28.216   2.558   2.873 -0.0894 -0.1415  0.0069
    1DIPC   PO419406  28.611   2.535   2.887 -0.2490 -0.3354  0.1109
    1DIPC   GL119407  28.496   2.582   3.361  0.0079  0.3408 -0.0692
    1DIPC   GL219408  28.155   2.505   3.417  0.0038  0.0138  0.3494
    1DIPC   C1A19409  28.350   2.733   3.872 -0.4819 -0.1878  0.5998
    1DIPC   D2A19410  28.452   2.555   4.346 -0.2732  0.0175  0.1569
    1DIPC   D3A19411  28.210   2.783   4.642  0.1903 -0.1368 -0.2105
    1DIPC   C4A19412  27.849   2.514   4.695  0.2926 -0.1042  0.1396
    1DIPC   C1B19413  28.390   2.213   3.658  0.0715  0.2255  0.0030
    1DIPC   D2B19414  28.471   1.920   3.923 -0.0395 -0.1335 -0.2955
    1DIPC   D3B19415  28.173   2.196   4.103 -0.1506  0.2265 -0.0818
    1DIPC   C4B19416  27.930   2.587   4.162 -0.1209  0.0344 -0.2732
    1DIPC   NC319417   6.040   4.110   2.984  0.3587 -0.0059 -0.1796
    1DIPC   PO419418   6.192   4.534   3.218 -0.2600  0.2799  0.3076
    1DIPC   GL119419   6.059   4.274   3.565  0.2082  0.0201 -0.2551
    1DIPC   GL219420   6.033   4.080   3.777 -0.2481 -0.0433 -0.1513
    1DIPC   C1A19421   5.548   4.104   3.848  0.0217  0.0182  0.1524
    1DIPC   D2A19422   5.282   3.968   4.168  0.1312  0.0383 -0.0082
    1DIPC   D3A19423   5.559   4.087   4.528 -0.0429  0.2203 -0.0788
    1DIPC   C4A19424   5.874   4.213   4.294 -0.1515  0.2994  0.0479
    1DIPC   C1B19425   6.320   4.459   3.985  0.3022  0.1388  0.0597
    1DIPC   D2B19426   6.686   4.720   4.013 -0.4320 -0.0417  0.1702
    1DIPC   D3B19427   6.626   4.491   4.431  0.1629  0.1517 -0.3275
    1DIPC   C4B19428   6.245   4.433   4.502 -0.1229 -0.1022  0.0743
    1DIPC   NC319429  23.407   4.464   3.221  0.1104 -0.0510  0.1079
    1DIPC   PO419430  23.385   4.012   3.211 -0.0234 -0.0013  0.0895
    1DIPC   GL119431  23.338   4.100   3.628  0.0578 -0.1686 -0.1483
    1DIPC   GL219432  23.600   3.897   3.719  0.1568 -0.2324 -0.0218
    1DIPC   C1A19433  23.417   4.328   4.101 -0.1668 -0.3162  0.2571
    1DIPC   D2A19434  23.108   4.447   4.359 -0.0360 -0.0858 -0.0718
    1DIPC   D3A19435  23.080   4.447   4.832  0.1801  0.0944  0.0583
    1DIPC   C4A19436  23.023   4.585   5.282 -0.1939  0.1809 -0.1242
    1DIPC   C1B19437  23.715   3.913   4.200  0.1897 -0.0288 -0.1282
    1DIPC   D2B19438  23.534   4.217   4.588 -0.4330  0.1385  0.1024
    1DIPC   D3B19439  23.608   4.558   4.947 -0.0163 -0.1337  0.2165
    1DIPC   C4B19440  23.542   4.585   5.392  0.1406 -0.0405 -0.0741
    1DIPC   NC319441  25.753   5.423   2.938 -0.0705  0.1116 -0.3425
    1DIPC   PO419442  25.911   5.189   3.251 -0.0575  0.1866 -0.3035
    1DIPC   GL119443  25.969   5.277   3.610  0.1292  0.0653  0.0419
    1DIPC   GL219444  26.298   5.438   3.645 -0.0508  0.0036 -0.4363
    1DIPC   C1A19445  26.081   5.346   4.072  0.2080 -0.1333 -0.0320
    1DIPC   D2A19446  26.278   5.238   4.420  0.3984  0.3149  0.0950
    1DIPC   D3A19447  26.603   5.048   4.456 -0.2597  0.1580 -0.2591
    1DIPC   C4A19448  26.456   4.616   4.293  0.0505 -0.0296 -0.1133
    1DIPC   C1B19449  26.429   5.756   4.004 -0.0558 -0.1731  0.1339
    1DIPC   D2B19450  26.747   5.830   4.284  0.4432 -0.0544 -0.1282
    1DIPC   D3B19451  26.595   5.998   4.669  0.0727  0.0412  0.0637
    1DIPC   C4B19452  26.312   6.327   4.653 -0.1044 -0.2308 -0.1906
    1DIPC   NC319453   0.836  27.603   3.478  0.0320 -0.1045 -0.0347
    1DIPC   PO419454   1.170  27.259   3.318  0.2966 -0.0115  0.0690
    1DIPC   GL119455   1.382  27.350   3.661  0.1118  0.2208  0.1526
    1DIPC   GL219456   1.224  27.570   3.828 -0.1127 -0.1816  0.1514
    1DIPC   C1A19457   1.525  27.085   3.964  0.0888 -0.1318  0.1114
    1DIPC   D2A19458   1.805  26.778   4.077 -0.1718 -0.0101 -0.0434
    1DIPC   D3A19459   1.827  26.773   4.529 -0.6149 -0.0383 -0.0447
    1DIPC   C4A19460   1.655  26.915   4.938  0.1903 -0.1676 -0.0481
    1DIPC   C1B19461   1.282  27.467   4.218 -0.2550 -0.0514  0.0898
    1DIPC   D2B19462   1.448  27.111   4.486  0.2511 -0.0575  0.3010
    1DIPC   D3B19463   1.188  26.960   4.801  0.0146  0.1266  0.3382
    1DIPC   C4B19464   1.260  26.577   5.105  0.1112 -0.0482  0.4210
    1DIPC   NC319465  22.168  25.828   3.580  0.1444 -0.1597  0.1428
    1DIPC   PO419466  22.031  26.247   3.522  0.2641  0.1162 -0.0699
    1DIPC   GL119467  21.744  26.139   3.759 -0.0439 -0.1687  0.1045
    1DIPC   GL219468  21.441  26.312   3.732  0.0816 -0.0771  0.0010
    1DIPC   C1A19469  21.685  26.307   4.169  0.3966 -0.0434  0.1451
    1DIPC   D2A19470  21.439  26.145   4.571  0.0205  0.1462 -0.0792
    1DIPC   D3A19471  21.664  26.132   4.949 -0.1107  0.0881 -0.0020
    1DIPC   C4A19472  21.562  26.185   5.321 -0.1923 -0.0260  0.1391
    1DIPC   C1B19473  21.302  26.031   4.024 -0.1232  0.1412 -0.1178
    1DIPC   D2B19474  21.312  25.575   3.961  0.1363 -0.4869  0.0013
    1DIPC   D3B19475  20.997  25.562   4.201 -0.2386 -0.0119 -0.0584
    1DIPC   C4B19476  21.028  25.909   4.491  0.2495  0.1425 -0.2762
    1DIPC   NC319477   3.017   0.837   3.328 -0.1042 -0.0203 -0.4814
    1DIPC   PO419478   3.030   0.440   3.123  0.1615 -0.2378  0.2439
    1DIPC   GL119479   3.093   0.258   3.516  0.1012 -0.2260 -0.2056
    1DIPC   GL219480   3.311   0.001   3.519 -0.2049 -0.3677 -0.2956
    1DIPC   C1A19481   3.075   0.206   3.931 -0.1522  0.3351 -0.2994
    1DIPC   D2A19482   2.882   0.477   4.250 -0.0653 -0.3818  0.1455
    1DIPC   D3A19483   2.480   0.578   4.564 -0.2331 -0.1111 -0.1728
    1DIPC   C4A19484   2.604   0.626   4.967 -0.0751 -0.0733  0.0662
    1DIPC   C1B19485   3.421  -0.317   3.633 -0.1471 -0.2537  0.1846
    1DIPC   D2B19486   3.858  -0.555   3.648  0.1838 -0.0031 -0.1029
    1DIPC   D3B19487   4.268  -0.491   3.724 -0.3055  0.4468 -0.3166
    1DIPC   C4B19488   4.436  -0.339   4.139 -0.0620  0.2062 -0.1217
    1DIPC   NC319489  22.154  21.162   3.416  0.1580 -0.0565  0.1272
    1DIPC   PO419490  21.986  21.486   3.732  0.3043 -0.0266 -0.0292
    1DIPC   GL119491  22.136  21.415   4.261 -0.2279 -0.0839  0.0263
    1DIPC   GL219492  22.513  21.575   4.213  0.0517 -0.2479  0.2135
    1DIPC   C1A19493  22.284  21.072   4.482  0.1436 -0.1265  0.0883
    1DIPC   D2A19494  22.429  20.953   4.890 -0.0824 -0.0453 -0.0602
    1DIPC   D3A19495  22.614  20.573   4.942 -0.2300  0.0045 -0.0059
    1DIPC   C4A19496  22.487  20.160   4.709  0.2352  0.2029  0.1738
    1DIPC   C1B19497  22.225  21.956   4.342  0.2258  0.0164  0.2267
    1DIPC   D2B19498  22.124  22.395   4.269  0.1998 -0.3445 -0.2327
    1DIPC   D3B19499  21.701  22.268   4.025  0.0820  0.2201  0.3041
    1DIPC   C4B19500  21.631  21.783   4.143  0.0605  0.0893  0.2181
    1DIPC   NC319501   6.533   2.418   3.479  0.1265 -0.0051 -0.0320
    1DIPC   PO419502   6.158   2.317   3.152  0.0050  0.3597 -0.0526
    1DIPC   GL119503   5.862   2.495   3.468 -0.2253 -0.2848  0.0775
    1DIPC   GL219504   6.057   2.404   3.760  0.1258 -0.1392 -0.1584
    1DIPC   C1A19505   5.533   2.368   3.828  0.3883  0.1103  0.0411
    1DIPC   D2A19506   5.048   2.370   3.932  0.1243 -0.0362 -0.3197
    1DIPC   D3A19507   4.859   2.495   4.325 -0.0189 -0.2557 -0.0954
    1DIPC   C4A19508   5.228   2.328   4.441  0.0727 -0.1720  0.0961
    1DIPC   C1B19509   6.144   2.438   4.140 -0.3477 -0.1106  0.0844
    1DIPC   D2B19510   6.304   2.149   4.490  0.0834 -0.3066  0.1013
    1DIPC   D3B19511   6.163   2.587   4.644 -0.1893  0.1269 -0.1716
    1DIPC   C4B19512   5.813   2.669   4.845 -0.1631  0.1332  0.2808
    1DIPC   NC319513   7.262  23.978   2.303  0.1620 -0.0597  0.0763
    1DIPC   PO419514   7.548  24.289   2.365 -0.1033 -0.1976  0.1080
    1DIPC   GL119515   7.271  24.286   2.695  0.0921 -0.1137  0.0263
    1DIPC   GL219516   7.419  24.070   2.936 -0.0146 -0.2578 -0.1464
    1DIPC   C1A19517   7.124  24.498   2.992  0.1556  0.3084 -0.1921
    1DIPC   D2A19518   6.844  24.385   3.337 -0.1411  0.1272  0.1404
    1DIPC   D3A19519   6.543  24.482   3.118  0.1416  0.3655  0.1394
    1DIPC   C4A19520   6.159  24.591   3.362 -0.1593 -0.0720 -0.1071
    1DIPC   C1B19521   7.407  24.230   3.447 -0.1197  0.0391  0.2539
    1DIPC   D2B19522   7.183  24.535   3.759  0.0362 -0.0332 -0.1695
    1DIPC   D3B19523   7.056  24.111   3.781  0.0995 -0.2086  0.0223
    1DIPC   C4B19524   7.130  23.868   4.123  0.2731 -0.2867  0.1851
    1DIPC   NC319525   3.089  24.966   2.940  0.4102  0.0428  0.2479
    1DIPC   PO419526   2.989  24.477   3.041  0.1174  0.1496  0.0479
    1DIPC   GL119527   3.000  24.250   3.358 -0.0822  0.2922  0.0868
    1DIPC   GL219528   2.726  24.053   3.493 -0.0773 -0.5293 -0.2282
    1DIPC   C1A19529   3.207  23.950   3.545  0.1794 -0.0178 -0.2155
    1DIPC   D2A19530   3.042  23.670   3.760 -0.1348  0.2588  0.1442
    1DIPC   D3A19531   3.150  23.243   3.951  0.0190  0.0712  0.1214
    1DIPC   C4A19532   2.906  22.853   3.872  0.3569 -0.0410  0.1462
    1DIPC   C1B19533   2.404  23.805   3.476  0.3215  0.1387 -0.1793
    1DIPC   D2B19534   2.026  23.839   3.408  0.0891  0.0159  0.1039
    1DIPC   D3B19535   1.983  24.154   3.762  0.2031  0.3609 -0.1083
    1DIPC   C4B19536   2.333  24.340   3.934  0.0178 -0.0928  0.0356
    1DIPC   NC319537   5.929  27.815   3.258  0.2162  0.2519  0.2902
    1DIPC   PO419538   5.588  27.664   3.503 -0.2766  0.2024 -0.2776
    1DIPC   GL119539   5.465  27.784   3.917 -0.2224 -0.2284  0.1402
    1DIPC   GL219540   5.148  27.890   3.856 -0.1381  0.0066 -0.0995
    1DIPC   C1A19541   5.491  27.626   4.261 -0.1449 -0.1983 -0.1172
    1DIPC   D2A19542   5.196  27.782   4.567 -0.1652  0.2155  0.1159
    1DIPC   D3A19543   5.306  27.532   4.816  0.0058 -0.0505 -0.1596
    1DIPC   C4A19544   5.650  27.351   4.718  0.1206 -0.1351 -0.1629
    1DIPC   C1B19545   4.829  27.901   4.166 -0.2322  0.2193 -0.3988
    1DIPC   D2B19546   4.436  27.862   4.130  0.0250  0.1755  0.2423
    1DIPC   D3B19547   4.130  28.075   4.330  0.2752 -0.1487 -0.0783
    1DIPC   C4B19548   4.208  28.299   4.744  0.0816  0.1595  0.0143
    1DIPC   NC319549  28.471   7.695   2.637  0.1150 -0.1343 -0.0682
    1DIPC   PO419550  28.720   7.544   3.068 -0.3058  0.3112 -0.1247
    1DIPC   GL119551  28.879   7.366   3.448 -0.0118 -0.1553  0.3323
    1DIPC   GL219552  29.223   7.337   3.462 -0.0464 -0.2365 -0.1171
    1DIPC   C1A19553  28.854   7.339   3.852  0.0692 -0.3419  0.1011
    1DIPC   D2A19554  28.656   7.245   4.225 -0.1960 -0.1126  0.0914
    1DIPC   D3A19555  28.247   7.079   4.382 -0.1503  0.3373 -0.1037
    1DIPC   C4A19556  27.966   7.399   4.316 -0.0884 -0.1012 -0.0956
    1DIPC   C1B19557  29.516   7.107   3.640 -0.1432  0.1558 -0.0413
    1DIPC   D2B19558  29.900   7.115   3.867 -0.0302  0.0772  0.2135
    1DIPC   D3B19559  29.899   7.445   4.101 -0.2505  0.2425 -0.0691
    1DIPC   C4B19560  29.779   7.679   4.385  0.5167  0.0159  0.3258
    1DIPC   NC319561  27.058  17.493   2.115  0.1993 -0.0648  0.0194
    1DIPC   PO419562  27.171  17.311   2.598 -0.0073  0.0228  0.1708
    1DIPC   GL119563  27.239  17.321   3.096  0.2993 -0.0375 -0.0381
    1DIPC   GL219564  27.249  17.609   3.014  0.1251  0.1280  0.0979
    1DIPC   C1A19565  27.194  17.014   3.410 -0.2681 -0.2865  0.0397
    1DIPC   D2A19566  27.484  16.890   3.666  0.0876 -0.0601 -0.1700
    1DIPC   D3A19567  27.445  17.185   3.923  0.1307  0.3592  0.0970
    1DIPC   C4A19568  26.999  17.151   4.081 -0.0103  0.1522 -0.1496
    1DIPC   C1B19569  27.686  17.560   3.228  0.1833  0.1846  0.1272
    1DIPC   D2B19570  28.074  17.456   3.248  0.2085 -0.1217  0.1492
    1DIPC   D3B19571  28.483  17.518   3.103  0.5023 -0.3906 -0.1502
    1DIPC   C4B19572  28.560  17.543   2.649 -0.1421 -0.0682 -0.0212
    1DIPC   NC319573  25.501   4.683   2.624 -0.0593  0.1255  0.1128
    1DIPC   PO419574  25.085   4.703   2.875 -0.1019  0.0080  0.0504
    1DIPC   GL119575  25.154   4.918   3.357 -0.0825 -0.2145  0.1506
    1DIPC   GL219576  25.544   4.966   3.448 -0.2748 -0.0181  0.0178
    1DIPC   C1A19577  25.080   5.219   3.745  0.0444  0.2658 -0.0976
    1DIPC   D2A19578  24.832   5.334   4.110 -0.1041  0.0428  0.0159
    1DIPC   D3A19579  25.127   5.229   4.306 -0.0419 -0.0575 -0.0163
    1DIPC   C4A19580  25.294   5.338   4.735  0.1143 -0.1983 -0.1625
    1DIPC   C1B19581  25.610   5.068   3.907 -0.1157  0.2648  0.2149
    1DIPC   D2B19582  25.653   5.259   4.337  0.2959  0.4916 -0.0749
    1DIPC   D3B19583  25.833   5.528   4.525  0.0382  0.0354  0.0162
    1DIPC   C4B19584  26.173   5.856   4.410  0.0624  0.2284 -0.4007
    1DIPC   NC319585   3.130  14.364   2.944 -0.0768 -0.0408  0.2009
    1DIPC   PO419586   3.083  14.878   3.042 -0.1508  0.0088  0.0478
    1DIPC   GL119587   3.076  14.709   3.401  0.0980 -0.2253 -0.0621
    1DIPC   GL219588   3.395  14.575   3.404 -0.0561  0.0116  0.1067
    1DIPC   C1A19589   2.968  14.456   3.637 -0.3096  0.0830 -0.1082
    1DIPC   D2A19590   2.730  14.121   3.792 -0.2810 -0.0328  0.3113
    1DIPC   D3A19591   3.003  14.215   4.050 -0.0673  0.2397  0.0233
    1DIPC   C4A19592   2.946  14.657   4.250  0.1351  0.0993  0.4252
    1DIPC   C1B19593   3.406  14.523   3.898 -0.2510  0.1799  0.2135
    1DIPC   D2B19594   3.719  14.358   4.162  0.1868 -0.1319 -0.1704
    1DIPC   D3B19595   3.476  14.626   4.392 -0.0472  0.2078 -0.1317
    1DIPC   C4B19596   3.532  14.610   4.805 -0.3121 -0.4370  0.2367
    1DIPC   NC319597  22.448   2.812   2.605 -0.3565  0.0740  0.1889
    1DIPC   PO419598  22.130   2.490   2.762 -0.0013 -0.0293  0.0508
    1DIPC   GL119599  22.027   2.231   3.084  0.0400 -0.0061  0.2052
    1DIPC   GL219600  21.705   2.301   3.243 -0.1929 -0.0133  0.1023
    1DIPC   C1A19601  22.265   1.905   3.338  0.0519  0.1358  0.3583
    1DIPC   D2A19602  22.556   1.910   3.698 -0.2330  0.0757  0.1995
    1DIPC   D3A19603  22.433   1.537   3.985 -0.4131  0.1849 -0.2109
    1DIPC   C4A19604  22.582   1.380   4.404 -0.3284 -0.1058 -0.0761
    1DIPC   C1B19605  21.906   2.417   3.665 -0.4261  0.0042 -0.0199
    1DIPC   D2B19606  21.861   2.313   4.055 -0.1386 -0.3156  0.0418
    1DIPC   D3B19607  21.876   2.148   4.484 -0.3060  0.0783  0.0769
    1DIPC   C4B19608  21.791   2.296   4.842 -0.2191 -0.1998 -0.1047
    1DIPC   NC319609  27.216  18.525   2.086  0.2639  0.3847  0.2675
    1DIPC   PO419610  27.378  18.258   2.417  0.1744 -0.0813 -0.1235
    1DIPC   GL119611  27.585  18.047   2.865 -0.0468  0.2986  0.1027
    1DIPC   GL219612  27.922  17.839   2.885 -0.0860 -0.2486 -0.0728
    1DIPC   C1A19613  27.727  18.022   3.353  0.1540 -0.1240 -0.4112
    1DIPC   D2A19614  27.602  17.867   3.732  0.0690  0.0750  0.2002
    1DIPC   D3A19615  27.414  18.253   3.779 -0.1093 -0.1135  0.1262
    1DIPC   C4A19616  27.152  18.193   4.140 -0.1109 -0.1524 -0.0699
    1DIPC   C1B19617  28.212  17.952   3.217 -0.1805  0.0505  0.0934
    1DIPC   D2B19618  28.102  17.817   3.703  0.1785 -0.4506  0.0599
    1DIPC   D3B19619  27.980  17.453   3.819 -0.0204 -0.1669  0.0404
    1DIPC   C4B19620  27.941  17.177   3.653 -0.1269 -0.2073  0.1911
    1DIPC   NC319621  17.326   2.805   3.945 -0.3049 -0.1175  0.2846
    1DIPC   PO419622  16.936   2.961   4.080 -0.0844 -0.0927 -0.0413
    1DIPC   GL119623  16.866   2.794   4.524  0.0776 -0.2523  0.0040
    1DIPC   GL219624  16.528   2.836   4.627 -0.1074 -0.2810  0.1466
    1DIPC   C1A19625  17.134   2.734   4.713 -0.0323  0.0491 -0.2112
    1DIPC   D2A19626  17.479   2.685   4.939  0.0868 -0.0685  0.1006
    1DIPC   D3A19627  17.412   2.259   5.135  0.0351  0.2966 -0.1947
    1DIPC   C4A19628  17.549   2.178   5.367 -0.0988 -0.2555  0.1064
    1DIPC   C1B19629  16.506   3.159   4.933 -0.0044  0.1840  0.1398
    1DIPC   D2B19630  16.409   3.482   5.106  0.0985  0.0056  0.0767
    1DIPC   D3B19631  16.330   3.148   5.423  0.0492  0.1020  0.2171
    1DIPC   C4B19632  16.265   3.280   5.867 -0.0792 -0.1072 -0.1470
    1DIPC   NC319633   6.669  28.252   3.358  0.1018  0.1408 -0.1593
    1DIPC   PO419634   6.228  28.182   3.620 -0.1621  0.3065  0.0114
    1DIPC   GL119635   6.341  28.342   4.040 -0.1094  0.2118  0.2442
    1DIPC   GL219636   6.394  28.609   4.275 -0.1116 -0.2307  0.0850
    1DIPC   C1A19637   6.077  28.323   4.451  0.0231  0.0520  0.1418
    1DIPC   D2A19638   5.949  28.369   4.821 -0.0605 -0.1087 -0.3099
    1DIPC   D3A19639   5.524  28.189   4.585 -0.0636  0.1816  0.0464
    1DIPC   C4A19640   5.151  28.022   4.995  0.4144 -0.1376  0.2781
    1DIPC   C1B19641   6.460  28.443   4.754 -0.1740  0.3816 -0.0060
    1DIPC   D2B19642   6.604  28.596   5.173  0.0688  0.1479  0.1210
    1DIPC   D3B19643   6.419  28.196   5.379 -0.0811  0.1406  0.0258
    1DIPC   C4B19644   6.425  28.210   5.825  0.1506 -0.1825  0.1951
    1DIPC   NC319645  13.989  24.421   3.463  0.2742  0.0788  0.0577
    1DIPC   PO419646  13.579  24.423   3.460  0.1212 -0.2377  0.0845
    1DIPC   GL119647  13.379  24.588   3.821  0.0607 -0.0564  0.2630
    1DIPC   GL219648  13.455  24.879   3.976  0.1038  0.0483  0.0603
    1DIPC   C1A19649  13.145  24.608   4.251  0.0315 -0.0946  0.0298
    1DIPC   D2A19650  13.373  24.431   4.675 -0.1294  0.1745  0.1795
    1DIPC   D3A19651  13.149  24.545   5.040 -0.1623  0.2277  0.0333
    1DIPC   C4A19652  13.063  24.985   5.094  0.1984 -0.3659 -0.0063
    1DIPC   C1B19653  13.600  24.749   4.326 -0.2265  0.1415 -0.1286
    1DIPC   D2B19654  13.838  24.342   4.561  0.0462 -0.2234 -0.1519
    1DIPC   D3B19655  13.679  24.178   5.003  0.1016  0.0065  0.2958
    1DIPC   C4B19656  13.284  23.966   4.932 -0.0771 -0.0672 -0.2644
    1DIPC   NC319657   0.749  25.176   2.415 -0.0470 -0.0950  0.1819
    1DIPC   PO419658   0.692  25.570   2.732 -0.2820 -0.0869  0.0262
    1DIPC   GL119659   0.464  25.246   3.106  0.2031 -0.0867  0.0539
    1DIPC   GL219660   0.667  25.084   3.377 -0.0100 -0.0660  0.1118
    1DIPC   C1A19661   0.281  25.462   3.462 -0.1308  0.2007  0.0801
    1DIPC   D2A19662   0.485  25.528   3.834 -0.0442 -0.0159 -0.0316
    1DIPC   D3A19663   1.006  25.455   3.913  0.0003 -0.0247 -0.2427
    1DIPC   C4A19664   1.222  25.453   3.558  0.1486 -0.0085  0.0680
    1DIPC   C1B19665   0.730  24.961   3.755  0.0989 -0.1341 -0.0682
    1DIPC   D2B19666   0.609  24.808   4.130 -0.0408 -0.1634  0.0201
    1DIPC   D3B19667   0.654  25.252   4.282 -0.2106  0.0003 -0.2500
    1DIPC   C4B19668   0.357  25.664   4.305  0.0955  0.1247 -0.1446
    1DIPC   NC319669  27.749  23.363   3.000 -0.0308  0.1587  0.0980
    1DIPC   PO419670  28.118  23.152   3.046  0.1741  0.1941  0.2436
    1DIPC   GL119671  28.186  23.109   3.520 -0.2420  0.1468  0.1678
    1DIPC   GL219672  28.498  23.275   3.489  0.2744 -0.3956  0.2209
    1DIPC   C1A19673  28.138  22.740   3.845  0.0985  0.1659 -0.0625
    1DIPC   D2A19674  28.509  22.624   4.246  0.0434 -0.1612  0.1304
    1DIPC   D3A19675  28.410  22.907   4.570  0.1397  0.1977 -0.0903
    1DIPC   C4A19676  28.007  23.052   4.586 -0.2487 -0.1756 -0.0531
    1DIPC   C1B19677  28.685  23.266   3.829 -0.1515 -0.2758  0.0666
    1DIPC   D2B19678  28.805  22.987   4.159  0.0227 -0.0599 -0.0144
    1DIPC   D3B19679  28.871  22.753   4.591 -0.0085 -0.3083 -0.4116
    1DIPC   C4B19680  29.111  23.069   4.921 -0.2060 -0.0300  0.5321
    1DIPC   NC319681   0.036  27.842   3.671  0.2925  0.2103 -0.1344
    1DIPC   PO419682  -0.382  28.050   3.432 -0.0964  0.3909 -0.3011
    1DIPC   GL119683  -0.244  28.246   3.869  0.1273 -0.1164 -0.2382
    1DIPC   GL219684  -0.414  28.583   3.990  0.2998  0.0147 -0.0164
    1DIPC   C1A19685  -0.277  28.182   4.259  0.1024  0.0924 -0.0772
    1DIPC   D2A19686  -0.530  27.964   4.479 -0.0156  0.3693  0.2166
    1DIPC   D3A19687  -0.024  27.994   4.633 -0.3213  0.1110  0.1425
    1DIPC   C4A19688   0.354  28.162   4.847 -0.1141  0.0716  0.0535
    1DIPC   C1B19689  -0.473  28.608   4.455  0.1314 -0.3654 -0.1905
    1DIPC   D2B19690  -0.455  28.388   4.930  0.1439 -0.3988 -0.0816
    1DIPC   D3B19691  -0.545  28.762   5.232  0.0950  0.2996 -0.1658
    1DIPC   C4B19692  -0.731  28.692   5.631  0.0199  0.0681  0.0900
    1DIPC   NC319693   8.267   6.211   3.150 -0.0336 -0.1501 -0.0390
    1DIPC   PO419694   8.436   6.535   3.345  0.2057  0.2115 -0.3735
    1DIPC   GL119695   8.637   6.569   3.673 -0.1880  0.1392 -0.0732
    1DIPC   GL219696   8.897   6.483   3.756 -0.1328 -0.1259 -0.0106
    1DIPC   C1A19697   8.601   6.748   3.982 -0.1190 -0.1636  0.0729
    1DIPC   D2A19698   8.462   6.670   4.412  0.1583  0.2045  0.0584
    1DIPC   D3A19699   8.568   6.359   4.608 -0.0441 -0.0879  0.1599
    1DIPC   C4A19700   8.705   6.113   4.933 -0.0880 -0.0924 -0.0868
    1DIPC   C1B19701   8.811   6.387   4.190  0.1553 -0.3214 -0.0012
    1DIPC   D2B19702   9.056   6.157   4.401  0.0729 -0.4696  0.1089
    1DIPC   D3B19703   9.150   6.359   4.883 -0.0583 -0.1775 -0.2081
    1DIPC   C4B19704   9.147   6.110   5.259  0.0608 -0.0697  0.2165
    1DIPC   NC319705   4.333  10.140   3.120 -0.2061 -0.2006 -0.0086
    1DIPC   PO419706   4.088  10.479   3.271 -0.3474 -0.1487  0.0416
    1DIPC   GL119707   4.094  10.256   3.641 -0.0223 -0.1008  0.1758
    1DIPC   GL219708   4.256   9.896   3.566 -0.2080 -0.0388 -0.0972
    1DIPC   C1A19709   4.025   9.983   4.039 -0.1597  0.1631  0.2607
    1DIPC   D2A19710   3.863   9.575   4.233 -0.1463 -0.0171 -0.1881
    1DIPC   D3A19711   3.638   9.759   4.511  0.0791 -0.0973  0.1386
    1DIPC   C4A19712   3.313   9.520   4.741  0.2611 -0.1224 -0.2175
    1DIPC   C1B19713   4.482   9.893   3.928  0.1578 -0.2351 -0.2292
    1DIPC   D2B19714   4.722   9.923   4.324 -0.3535  0.1527 -0.0151
    1DIPC   D3B19715   4.376   9.921   4.617 -0.1272 -0.0022  0.0318
    1DIPC   C4B19716   4.429   9.716   5.010 -0.1117  0.0281 -0.1410
    1DIPC   NC319717   2.307  12.578   2.311  0.1675 -0.1404 -0.1985
    1DIPC   PO419718   1.894  12.347   2.478  0.0795  0.0497 -0.0261
    1DIPC   GL119719   1.729  12.266   2.897 -0.2172 -0.1385  0.1549
    1DIPC   GL219720   1.895  12.015   3.112 -0.1185 -0.1460 -0.1174
    1DIPC   C1A19721   1.363  12.259   3.061  0.1097 -0.0002 -0.0649
    1DIPC   D2A19722   1.289  12.286   3.594  0.3384  0.1236  0.2272
    1DIPC   D3A19723   0.918  12.214   3.556 -0.2886 -0.1637  0.0496
    1DIPC   C4A19724   0.642  12.391   3.138 -0.3065  0.1911 -0.1606
    1DIPC   C1B19725   1.923  12.208   3.507 -0.0604  0.0810 -0.0884
    1DIPC   D2B19726   2.166  12.633   3.616  0.1470  0.0956  0.1234
    1DIPC   D3B19727   1.890  12.895   3.847 -0.0821  0.0352  0.3491
    1DIPC   C4B19728   1.480  13.043   3.729 -0.1316  0.1790 -0.0450
    1DIPC   NC319729  11.034  27.554   3.267  0.1140 -0.1936 -0.0589
    1DIPC   PO419730  11.130  28.053   3.220  0.2755  0.2952  0.2193
    1DIPC   GL119731  11.001  27.954   3.591 -0.1799 -0.3363 -0.0705
    1DIPC   GL219732  10.634  28.087   3.733 -0.0009  0.0168  0.2744
    1DIPC   C1A19733  11.010  27.698   3.939  0.1649  0.0154  0.0322
    1DIPC   D2A19734  10.947  27.499   4.371 -0.0981 -0.1356  0.1697
    1DIPC   D3A19735  11.060  27.449   4.746 -0.0008  0.0087 -0.0005
    1DIPC   C4A19736  11.190  27.103   4.921 -0.1408 -0.1250  0.0890
    1DIPC   C1B19737  10.251  27.834   3.728 -0.0153  0.3783  0.1137
    1DIPC   D2B19738  10.033  27.698   4.183  0.1990  0.2826  0.4881
    1DIPC   D3B19739   9.679  27.921   4.254 -0.0264 -0.1764  0.3585
    1DIPC   C4B19740   9.473  28.038   3.857 -0.2855 -0.1856 -0.0559
    1DIPC   NC319741   6.451  10.714   3.300  0.1774 -0.2639  0.0261
    1DIPC   PO419742   6.239  10.939   3.626 -0.0877 -0.0331  0.2357
    1DIPC   GL119743   6.310  11.116   3.990 -0.2504  0.0109  0.1638
    1DIPC   GL219744   6.289  11.425   4.101  0.1399 -0.3180 -0.1719
    1DIPC   C1A19745   6.365  10.917   4.475  0.1400  0.2136  0.2575
    1DIPC   D2A19746   6.766  10.936   4.689 -0.2699 -0.0227 -0.2989
    1DIPC   D3A19747   6.425  11.012   4.939  0.0186  0.0230 -0.2735
    1DIPC   C4A19748   6.064  10.880   4.877 -0.2083 -0.1186  0.0724
    1DIPC   C1B19749   6.073  11.563   4.491 -0.0063 -0.0871  0.0372
    1DIPC   D2B19750   5.780  11.522   4.819 -0.1022  0.0326 -0.4803
    1DIPC   D3B19751   6.035  11.354   5.156  0.2587 -0.4177  0.1139
    1DIPC   C4B19752   6.130  11.659   5.471  0.1533  0.3087  0.0630
    1DIPC   NC319753   4.205  19.136   2.271 -0.1619  0.1012  0.2736
    1DIPC   PO419754   4.534  18.827   2.388 -0.0156  0.1037  0.1525
    1DIPC   GL119755   4.298  18.841   2.665 -0.1790  0.1178  0.1800
    1DIPC   GL219756   4.197  18.598   2.829  0.1997 -0.1805 -0.0619
    1DIPC   C1A19757   4.151  19.195   3.079 -0.2051  0.3338  0.1459
    1DIPC   D2A19758   3.996  19.480   3.314  0.1228  0.0966 -0.0807
    1DIPC   D3A19759   4.193  19.772   3.672 -0.1443  0.1674  0.1855
    1DIPC   C4A19760   4.157  19.673   4.053  0.0164  0.3690  0.2697
    1DIPC   C1B19761   4.149  18.704   3.285  0.3492 -0.1315 -0.0456
    1DIPC   D2B19762   3.923  18.723   3.773 -0.0836  0.2632 -0.1626
    1DIPC   D3B19763   3.907  18.411   4.052 -0.2074 -0.0425  0.4154
    1DIPC   C4B19764   3.893  18.531   4.511  0.0206 -0.0681 -0.1127
    1DIPC   NC319765   5.885  17.056   2.612 -0.0692  0.1021 -0.1786
    1DIPC   PO419766   5.596  17.003   2.386  0.0321 -0.1220  0.0602
    1DIPC   GL119767   5.412  16.843   2.746  0.0471  0.1482  0.1147
    1DIPC   GL219768   5.635  16.817   3.143  0.4597  0.1279  0.0352
    1DIPC   C1A19769   5.147  16.949   3.049  0.1368 -0.3035 -0.1888
    1DIPC   D2A19770   5.269  17.004   3.583  0.0690 -0.0997  0.0189
    1DIPC   D3A19771   5.104  17.464   3.542  0.0153 -0.0600 -0.1158
    1DIPC   C4A19772   5.162  17.673   3.206 -0.3867  0.2412  0.0535
    1DIPC   C1B19773   5.736  16.920   3.607  0.0898 -0.3788 -0.0817
    1DIPC   D2B19774   5.848  17.065   4.004  0.2405 -0.2848 -0.1321
    1DIPC   D3B19775   5.505  17.063   4.039  0.0193  0.0929 -0.2202
    1DIPC   C4B19776   5.202  16.830   4.330  0.0032 -0.0337  0.0127
    1DIPC   NC319777  11.568  28.285   3.078  0.3382 -0.1142 -0.1623
    1DIPC   PO419778  11.458  28.294   3.541  0.3488 -0.1880 -0.2282
    1DIPC   GL119779  11.481  28.178   3.979 -0.0666 -0.0346  0.0940
    1DIPC   GL219780  11.482  27.899   3.896 -0.2634 -0.1834  0.1061
    1DIPC   C1A19781  11.352  28.197   4.427  0.0321  0.2613 -0.0346
    1DIPC   D2A19782  11.198  28.082   4.777  0.0528  0.0117  0.1259
    1DIPC   D3A19783  11.234  27.857   5.099 -0.0742  0.0193 -0.2278
    1DIPC   C4A19784  11.046  27.977   5.522  0.1795  0.0722 -0.4001
    1DIPC   C1B19785  11.501  27.666   4.290  0.0867  0.2180  0.0426
    1DIPC   D2B19786  11.545  27.347   4.658 -0.0048 -0.4728 -0.3362
    1DIPC   D3B19787  11.972  27.478   4.595 -0.2468  0.0967 -0.1094
    1DIPC   C4B19788  12.252  27.213   4.635  0.0959  0.1486 -0.1358
    1DIPC   NC319789   9.855  23.617   2.535 -0.1849 -0.3468  0.1522
    1DIPC   PO419790  10.260  23.408   2.683  0.2941  0.2239  0.0885
    1DIPC   GL119791  10.353  23.385   3.139 -0.2458 -0.1114 -0.0284
    1DIPC   GL219792  10.267  23.034   3.314 -0.1064 -0.0212  0.0332
    1DIPC   C1A19793  10.167  23.477   3.527  0.0390  0.0862 -0.3304
    1DIPC   D2A19794   9.994  23.591   3.952 -0.2315 -0.0598  0.2454
    1DIPC   D3A19795   9.875  23.375   4.273  0.0116 -0.1148 -0.1818
    1DIPC   C4A19796   9.588  23.411   4.581  0.3828 -0.1435 -0.1660
    1DIPC   C1B19797   9.907  22.852   3.168 -0.1447  0.1438  0.0878
    1DIPC   D2B19798   9.625  22.622   2.923  0.1337 -0.1663  0.0809
    1DIPC   D3B19799   9.220  22.424   3.136  0.2833 -0.0467  0.2795
    1DIPC   C4B19800   9.080  22.616   3.481  0.1286  0.1623  0.1520
    1DIPC   NC319801  17.998  24.117   3.881  0.0693  0.2905  0.2399
    1DIPC   PO419802  18.431  24.172   3.704 -0.2228  0.0544  0.0087
    1DIPC   GL119803  18.515  24.138   4.132 -0.0609  0.0633  0.1559
    1DIPC   GL219804  18.267  24.387   4.375  0.0805  0.2764 -0.0562
    1DIPC   C1A19805  18.673  23.976   4.480  0.0189 -0.0659  0.0094
    1DIPC   D2A19806  18.905  23.776   4.795  0.0078 -0.0515  0.0820
    1DIPC   D3A19807  18.711  23.852   5.211  0.0563  0.2005 -0.2078
    1DIPC   C4A19808  18.636  23.545   5.585 -0.0869 -0.0742 -0.3105
    1DIPC   C1B19809  17.973  24.674   4.544 -0.1383 -0.1403 -0.3050
    1DIPC   D2B19810  17.681  24.676   4.921  0.0584  0.0547 -0.1803
    1DIPC   D3B19811  17.717  24.683   5.400  0.0824 -0.1380 -0.3422
    1DIPC   C4B19812  17.965  24.960   5.749  0.1214 -0.0493  0.0410
    1DIPC   NC319813  21.456  22.988   3.192  0.2601 -0.2482  0.0262
    1DIPC   PO419814  21.190  22.768   3.476  0.0450 -0.0047 -0.2032
    1DIPC   GL119815  21.265  22.783   3.807 -0.2373  0.0293  0.0888
    1DIPC   GL219816  21.226  22.482   3.940 -0.1558  0.0996 -0.0344
    1DIPC   C1A19817  21.190  22.921   4.263  0.0590 -0.2190  0.2017
    1DIPC   D2A19818  21.158  23.173   4.655 -0.0002 -0.0178  0.3941
    1DIPC   D3A19819  21.571  23.115   4.631 -0.1274  0.2509 -0.1173
    1DIPC   C4A19820  21.748  22.776   4.809 -0.1743  0.0515  0.0960
    1DIPC   C1B19821  21.031  22.342   4.320 -0.2265  0.2221  0.3682
    1DIPC   D2B19822  20.757  22.637   4.576  0.1237 -0.0147  0.1150
    1DIPC   D3B19823  20.665  22.866   4.273 -0.1139 -0.0411  0.0617
    1DIPC   C4B19824  20.832  23.309   4.326 -0.0175  0.0848 -0.5752
    1DIPC   NC319825  17.766  28.004   3.375  0.0352  0.1707  0.1354
    1DIPC   PO419826  17.468  28.108   3.625  0.0202  0.0824  0.1337
    1DIPC   GL119827  17.492  28.281   4.026 -0.0800 -0.2008 -0.2542
    1DIPC   GL219828  17.173  28.303   4.086 -0.0137  0.0981  0.0781
    1DIPC   C1A19829  17.636  28.498   4.437  0.1550  0.0711  0.1721
    1DIPC   D2A19830  17.339  28.523   4.811 -0.4173 -0.1476  0.0021
    1DIPC   D3A19831  17.398  28.782   5.183  0.4541  0.1357 -0.1672
    1DIPC   C4A19832  17.826  28.997   5.213 -0.0932 -0.0275  0.2528
    1DIPC   C1B19833  17.281  28.078   4.525  0.0933  0.1018  0.2728
    1DIPC   D2B19834  16.988  28.188   4.859 -0.2300 -0.0401  0.1362
    1DIPC   D3B19835  17.246  28.282   5.312  0.0108 -0.0038 -0.1658
    1DIPC   C4B19836  17.467  27.908   5.429  0.0624 -0.0903 -0.0147
    1DIPC   NC319837  13.190  25.509   3.203 -0.0987  0.2791  0.2946
    1DIPC   PO419838  13.183  25.903   3.340 -0.1425  0.0628  0.1336
    1DIPC   GL119839  12.999  25.683   3.696 -0.0724 -0.2494  0.1204
    1DIPC   GL219840  12.802  25.452   3.612  0.0847  0.0496  0.2733
    1DIPC   C1A19841  12.967  25.733   4.127 -0.0719 -0.0724  0.0218
    1DIPC   D2A19842  13.076  25.874   4.594  0.3986  0.0829  0.1273
    1DIPC   D3A19843  12.739  25.601   4.742 -0.0376  0.0366 -0.0761
    1DIPC   C4A19844  12.400  25.697   5.047 -0.2752  0.0074 -0.1817
    1DIPC   C1B19845  12.572  25.515   3.971 -0.0515 -0.2311  0.0620
    1DIPC   D2B19846  12.640  25.352   4.331  0.2533  0.0601  0.3867
    1DIPC   D3B19847  12.245  25.435   4.565 -0.1014 -0.2253 -0.0723
    1DIPC   C4B19848  12.019  25.052   4.525  0.1290 -0.0409  0.0135
    1DIPC   NC319849  15.096  26.812   3.259 -0.0941 -0.3419 -0.1646
    1DIPC   PO419850  14.664  26.792   3.336 -0.0806 -0.0269  0.1338
    1DIPC   GL119851  14.872  26.679   3.676 -0.0675 -0.4151 -0.2022
    1DIPC   GL219852  14.725  26.734   3.976 -0.0289 -0.1873  0.2372
    1DIPC   C1A19853  15.203  26.442   4.040  0.2583  0.0149 -0.0886
    1DIPC   D2A19854  15.379  26.536   4.494 -0.1605 -0.0854  0.2057
    1DIPC   D3A19855  15.090  26.451   4.856  0.2600 -0.0023 -0.2439
    1DIPC   C4A19856  15.300  26.661   5.189 -0.2860  0.4236 -0.1092
    1DIPC   C1B19857  14.849  26.649   4.339  0.2094 -0.1222  0.0509
    1DIPC   D2B19858  14.995  26.895   4.637  0.2956 -0.0765  0.0671
    1DIPC   D3B19859  14.756  26.805   5.003  0.0720  0.0424  0.1210
    1DIPC   C4B19860  14.323  27.107   5.062  0.2257 -0.0804 -0.0528
    1DIPC   NC319861  27.952   9.242   2.270 -0.1063  0.2814  0.0144
    1DIPC   PO419862  28.337   8.942   2.465  0.0068 -0.4772  0.0521
    1DIPC   GL119863  28.038   9.199   2.735 -0.1574  0.1834 -0.0102
    1DIPC   GL219864  28.305   9.482   2.775 -0.1750  0.1010  0.1274
    1DIPC   C1A19865  28.151   9.048   3.014  0.0494  0.1374 -0.1434
    1DIPC   D2A19866  27.985   8.775   3.251  0.0071 -0.2152  0.2100
    1DIPC   D3A19867  28.192   8.831   3.599 -0.0376 -0.0125 -0.1937
    1DIPC   C4A19868  28.408   8.931   4.048 -0.1155  0.1717 -0.3091
    1DIPC   C1B19869  28.370   9.458   3.211 -0.2697  0.1825 -0.0296
    1DIPC   D2B19870  28.433   9.799   3.549 -0.0253 -0.0897 -0.0896
    1DIPC   D3B19871  28.895  10.072   3.563  0.0308 -0.2764  0.2858
    1DIPC   C4B19872  29.052  10.330   3.207  0.0270  0.0779 -0.0069
    1DIPC   NC319873   6.501   6.504   3.511 -0.0142 -0.1876 -0.2886
    1DIPC   PO419874   6.106   6.495   3.594  0.0580 -0.1990  0.1640
    1DIPC   GL119875   6.053   6.376   4.041  0.1912  0.3803  0.0644
    1DIPC   GL219876   6.258   6.137   4.192  0.2640 -0.0810  0.0694
    1DIPC   C1A19877   5.808   6.464   4.402  0.0316 -0.3750 -0.0054
    1DIPC   D2A19878   5.388   6.374   4.676  0.0410  0.1716  0.4202
    1DIPC   D3A19879   5.493   6.683   5.071  0.0641 -0.0675 -0.1514
    1DIPC   C4A19880   5.600   7.083   5.131  0.0385 -0.0796  0.3408
    1DIPC   C1B19881   6.565   6.115   4.575 -0.0475 -0.0511  0.2015
    1DIPC   D2B19882   6.802   6.048   4.995 -0.1265 -0.2198 -0.2254
    1DIPC   D3B19883   6.612   5.769   5.304 -0.2571  0.1679  0.1762
    1DIPC   C4B19884   6.711   5.620   5.775 -0.0802 -0.0772  0.0853
    1DIPC   NC319885  15.766  22.426   3.052 -0.0553 -0.3266 -0.3637
    1DIPC   PO419886  16.082  22.641   3.392 -0.1469 -0.0798  0.1951
    1DIPC   GL119887  15.809  22.390   3.709  0.0570 -0.0485 -0.1542
    1DIPC   GL219888  15.550  22.588   3.854 -0.2277 -0.0854 -0.2368
    1DIPC   C1A19889  15.625  22.181   4.075  0.0417 -0.2089 -0.0675
    1DIPC   D2A19890  15.638  22.020   4.400  0.1306  0.4021 -0.0587
    1DIPC   D3A19891  15.561  22.411   4.549 -0.0649  0.1932 -0.0002
    1DIPC   C4A19892  15.506  22.459   4.975  0.1832 -0.0765 -0.0320
    1DIPC   C1B19893  15.608  22.940   4.082  0.0968 -0.0808 -0.1272
    1DIPC   D2B19894  15.283  22.824   4.346  0.3173 -0.1212  0.1990
    1DIPC   D3B19895  15.279  23.065   4.604  0.0671 -0.5302  0.0943
    1DIPC   C4B19896  15.695  23.286   4.698 -0.1237 -0.3421 -0.0536
    1DIPC   NC319897  16.551  26.998   3.702  0.2738  0.0252 -0.0236
    1DIPC   PO419898  16.279  27.271   3.666  0.1455  0.2422 -0.1144
    1DIPC   GL119899  16.230  27.174   4.167  0.0634  0.1471  0.2778
    1DIPC   GL219900  15.966  26.933   4.264 -0.2643 -0.0358  0.0250
    1DIPC   C1A19901  16.334  27.023   4.608 -0.0974 -0.0251  0.0259
    1DIPC   D2A19902  16.066  26.990   4.915 -0.2420  0.0395  0.3806
    1DIPC   D3A19903  15.685  26.831   4.793 -0.1312  0.0094  0.0134
    1DIPC   C4A19904  15.449  27.138   4.543  0.1706  0.1220  0.2791
    1DIPC   C1B19905  15.916  26.509   4.519 -0.0231  0.0939 -0.2364
    1DIPC   D2B19906  15.584  26.304   4.889 -0.0414  0.1043  0.2988
    1DIPC   D3B19907  15.285  25.967   5.196  0.2540  0.1995 -0.2478
    1DIPC   C4B19908  15.285  25.476   5.000  0.1587 -0.1151  0.3208
    1DIPC   NC319909   5.001   0.428   3.155 -0.0058 -0.2539  0.2209
    1DIPC   PO419910   4.590   0.531   3.063 -0.1977  0.3588  0.0447
    1DIPC   GL119911   4.469   0.670   3.506 -0.4266  0.4667 -0.0914
    1DIPC   GL219912   4.373   0.946   3.480  0.0149  0.1620 -0.2656
    1DIPC   C1A19913   4.419   0.608   3.994 -0.3875 -0.0692 -0.0945
    1DIPC   D2A19914   4.357   0.594   4.413 -0.0353  0.2801 -0.0216
    1DIPC   D3A19915   4.623   0.263   4.340  0.1106  0.1884 -0.0807
    1DIPC   C4A19916   4.686  -0.061   4.547  0.1669  0.0499 -0.0774
    1DIPC   C1B19917   4.716   1.028   3.824  0.1140 -0.2113 -0.1058
    1DIPC   D2B19918   4.700   1.024   4.311 -0.2514  0.3540 -0.4405
    1DIPC   D3B19919   4.505   1.370   4.596  0.3245  0.0877  0.3921
    1DIPC   C4B19920   4.356   1.752   4.352 -0.1953 -0.1137 -0.1663
    1DIPC   NC319921   0.697  19.638   2.238 -0.1606  0.0430  0.0993
    1DIPC   PO419922   0.755  19.245   2.440 -0.1123 -0.3409 -0.1487
    1DIPC   GL119923   0.737  19.488   2.762  0.2059  0.3406 -0.0439
    1DIPC   GL219924   0.562  19.429   3.056 -0.0309 -0.0244 -0.2586
    1DIPC   C1A19925   1.077  19.548   3.115 -0.0644 -0.0245  0.2648
    1DIPC   D2A19926   1.287  19.795   3.382  0.0408 -0.0249  0.0568
    1DIPC   D3A19927   1.011  20.043   3.465  0.1230  0.2764  0.1474
    1DIPC   C4A19928   1.201  20.379   3.306 -0.1045  0.0050  0.3317
    1DIPC   C1B19929   0.689  19.698   3.462 -0.0398 -0.0187 -0.2365
    1DIPC   D2B19930   0.941  19.781   3.901 -0.1414 -0.1972  0.1649
    1DIPC   D3B19931   1.312  19.647   3.939 -0.1193  0.0545 -0.1582
    1DIPC   C4B19932   1.595  19.867   3.798 -0.1843  0.0222 -0.0485
    1DIPC   NC319933   6.694  27.148   2.949  0.2016 -0.2030  0.3092
    1DIPC   PO419934   7.040  27.080   3.313 -0.3023 -0.0018 -0.1736
    1DIPC   GL119935   6.992  27.308   3.688 -0.0888 -0.0618  0.1841
    1DIPC   GL219936   6.857  27.601   3.708  0.1064 -0.1161 -0.4586
    1DIPC   C1A19937   7.024  27.540   4.164  0.2017  0.1644 -0.0906
    1DIPC   D2A19938   7.376  27.677   4.455  0.2348 -0.1028 -0.1077
    1DIPC   D3A19939   7.087  27.650   4.757  0.0317  0.1458 -0.1597
    1DIPC   C4A19940   6.701  27.295   4.565  0.1614 -0.0759  0.0066
    1DIPC   C1B19941   6.505  27.487   4.023  0.2341 -0.1982 -0.2698
    1DIPC   D2B19942   6.190  27.127   3.857 -0.0747 -0.0571 -0.2841
    1DIPC   D3B19943   6.383  27.009   4.252  0.1266  0.0568 -0.0684
    1DIPC   C4B19944   6.201  27.267   4.545 -0.3979 -0.1169  0.2385
    1DIPC   NC319945  17.754   6.153   3.723 -0.4681 -0.0395  0.1804
    1DIPC   PO419946  17.729   5.793   3.943 -0.0725  0.1275 -0.1880
    1DIPC   GL119947  18.116   5.960   4.107 -0.1577  0.6105 -0.0591
    1DIPC   GL219948  17.904   6.231   4.238  0.1906  0.0159  0.0381
    1DIPC   C1A19949  18.362   5.703   4.374  0.0318  0.0750  0.0481
    1DIPC   D2A19950  18.503   5.315   4.473  0.2101 -0.4508 -0.0661
    1DIPC   D3A19951  18.595   5.321   4.808 -0.1628  0.1821 -0.2231
    1DIPC   C4A19952  18.992   5.359   4.904 -0.0820 -0.2255  0.4064
    1DIPC   C1B19953  17.583   6.110   4.489  0.0258 -0.0283  0.0469
    1DIPC   D2B19954  17.264   6.315   4.534  0.1034  0.0064  0.0301
    1DIPC   D3B19955  17.509   6.425   4.901 -0.1185 -0.3204  0.1534
    1DIPC   C4B19956  17.629   6.792   4.981 -0.0582  0.2319  0.1507
    1DIPC   NC319957  23.338  16.360   1.848 -0.2675  0.0424 -0.2016
    1DIPC   PO419958  23.376  16.351   2.377  0.0234  0.0993 -0.1413
    1DIPC   GL119959  23.054  16.344   2.635  0.0477 -0.1386  0.0490
    1DIPC   GL219960  23.004  16.481   2.895 -0.1216 -0.0415 -0.3732
    1DIPC   C1A19961  22.778  16.018   2.699  0.3604  0.1043  0.1187
    1DIPC   D2A19962  22.546  15.893   2.933  0.1480  0.2484  0.0762
    1DIPC   D3A19963  22.951  15.808   3.100 -0.1126 -0.2511 -0.0766
    1DIPC   C4A19964  23.294  16.024   3.360  0.3435 -0.2169 -0.2254
    1DIPC   C1B19965  22.867  16.353   3.302  0.0623  0.1640  0.1745
    1DIPC   D2B19966  22.930  16.407   3.663 -0.0269 -0.2366  0.0345
    1DIPC   D3B19967  23.115  16.308   3.943  0.0220  0.1962  0.0140
    1DIPC   C4B19968  23.298  16.549   4.343  0.1116 -0.0425  0.3671
    1DIPC   NC319969  22.210  26.065   3.114 -0.1164  0.1149  0.0475
    1DIPC   PO419970  22.155  25.667   3.084  0.0795 -0.1103 -0.1038
    1DIPC   GL119971  22.470  25.471   3.481  0.1743  0.2095  0.2062
    1DIPC   GL219972  22.493  25.155   3.708  0.0274 -0.2925 -0.1604
    1DIPC   C1A19973  22.944  25.381   3.809 -0.1452  0.2495  0.0465
    1DIPC   D2A19974  23.189  25.397   4.190  0.0779  0.0447 -0.1183
    1DIPC   D3A19975  22.848  25.589   4.437  0.0822 -0.3697 -0.0425
    1DIPC   C4A19976  22.781  25.988   4.510  0.1816  0.0706  0.1130
    1DIPC   C1B19977  22.500  25.373   4.114  0.0116 -0.3013 -0.0867
    1DIPC   D2B19978  22.402  25.718   4.305  0.0612 -0.2509  0.1373
    1DIPC   D3B19979  22.363  25.494   4.709 -0.0177  0.0673 -0.0176
    1DIPC   C4B19980  22.418  25.639   5.138  0.0735 -0.1326  0.3938
    1DIPC   NC319981  13.662  25.867   3.492 -0.3535 -0.0215 -0.3623
    1DIPC   PO419982  13.630  25.559   3.655 -0.2067  0.2140  0.0218
    1DIPC   GL119983  13.863  25.274   4.013  0.0719 -0.2363  0.2831
    1DIPC   GL219984  14.179  25.301   3.979  0.1591  0.0921  0.2101
    1DIPC   C1A19985  14.089  25.046   4.340 -0.1016  0.3205  0.2917
    1DIPC   D2A19986  14.238  24.718   4.415  0.0960  0.2305 -0.0914
    1DIPC   D3A19987  13.903  24.788   4.729  0.1231 -0.5755 -0.0710
    1DIPC   C4A19988  13.563  24.741   5.141  0.1664  0.1091  0.0485
    1DIPC   C1B19989  14.438  25.398   4.319  0.0496 -0.0409  0.0066
    1DIPC   D2B19990  14.745  25.646   4.361 -0.0984 -0.1030  0.0299
    1DIPC   D3B19991  14.500  25.652   4.708 -0.0265 -0.0340 -0.1930
    1DIPC   C4B19992  14.269  25.193   4.758  0.2049 -0.0704 -0.0865
    1DIPC   NC319993  16.293   0.737   3.865  0.0402 -0.2156  0.0816
    1DIPC   PO419994  16.760   0.650   3.911  0.3264 -0.1359  0.0098
    1DIPC   GL119995  16.649   0.833   4.273  0.0269  0.0079  0.0979
    1DIPC   GL219996  16.526   1.167   4.314 -0.1371  0.1748 -0.3115
    1DIPC   C1A19997  16.722   0.906   4.722 -0.2246  0.2071  0.0205
    1DIPC   D2A19998  16.742   1.100   5.194 -0.2467  0.3086  0.0269
    1DIPC   D3A19999  16.340   0.963   5.271 -0.3345  0.3092 -0.0407
    1DIPC   C4A20000  15.885   1.037   5.024  0.0460  0.3825 -0.1270
    1DIPC   C1B20001  16.521   1.608   4.537 -0.0045  0.0142 -0.0522
    1DIPC   D2B20002  16.513   1.932   4.817 -0.0110  0.0438  0.1202
    1DIPC   D3B20003  16.359   1.460   5.043  0.1572 -0.5094 -0.1662
    1DIPC   C4B20004  16.296   1.104   4.779 -0.2437  0.1729  0.2127
    1DIPC   NC320005  19.046  23.604   3.166 -0.0681 -0.2722 -0.0115
    1DIPC   PO420006  19.141  23.860   3.503 -0.0380 -0.0209  0.0255
    1DIPC   GL120007  18.932  23.984   3.822  0.1162  0.1022 -0.3964
    1DIPC   GL220008  18.951  23.737   4.115  0.0513  0.0505 -0.0444
    1DIPC   C1A20009  19.034  24.212   4.272 -0.3595  0.1126  0.2151
    1DIPC   D2A20010  19.051  24.270   4.732  0.1648 -0.0319 -0.0271
    1DIPC   D3A20011  19.421  24.376   4.518 -0.0214  0.0611 -0.3602
    1DIPC   C4A20012  19.425  24.467   4.086 -0.0231 -0.0304 -0.1802
    1DIPC   C1B20013  18.742  23.459   4.433  0.1321 -0.3340  0.2894
    1DIPC   D2B20014  18.743  23.153   4.725  0.3307 -0.1732 -0.1272
    1DIPC   D3B20015  18.524  23.229   5.211 -0.1648  0.0149  0.1906
    1DIPC   C4B20016  18.533  23.062   5.573 -0.1840 -0.1582  0.1755
    1DIPC   NC320017   0.028   1.069   2.831  0.0057 -0.0190  0.0811
    1DIPC   PO420018   0.083   0.986   3.284 -0.0119  0.0896  0.0073
    1DIPC   GL120019   0.081   1.246   3.628 -0.0827  0.2088 -0.0418
    1DIPC   GL220020   0.270   1.645   3.698  0.0761  0.0718 -0.0761
    1DIPC   C1A20021  -0.303   1.282   3.855  0.4520 -0.1787 -0.0203
    1DIPC   D2A20022  -0.378   1.337   4.337 -0.4618 -0.0790  0.1783
    1DIPC   D3A20023  -0.558   0.914   4.372 -0.3130 -0.1297 -0.0281
    1DIPC   C4A20024  -0.777   0.788   4.000  0.2003 -0.0085  0.2028
    1DIPC   C1B20025   0.166   1.427   4.057  0.0807 -0.1814  0.0896
    1DIPC   D2B20026   0.383   1.347   4.507  0.0626 -0.1867 -0.0581
    1DIPC   D3B20027   0.142   1.787   4.555  0.2053  0.0024 -0.0572
    1DIPC   C4B20028  -0.215   1.800   4.404  0.0855 -0.4340  0.0707
    1DIPC   NC320029   2.164   1.184   3.402  0.1117  0.0886 -0.1911
    1DIPC   PO420030   2.502   0.939   3.515 -0.0027 -0.2270  0.2996
    1DIPC   GL120031   2.310   1.041   3.865 -0.0608  0.0754 -0.0864
    1DIPC   GL220032   1.999   1.086   3.847  0.0592  0.3515  0.0422
    1DIPC   C1A20033   2.137   1.384   4.118  0.0862  0.1324 -0.2602
    1DIPC   D2A20034   2.020   1.370   4.494 -0.2199 -0.0794 -0.2447
    1DIPC   D3A20035   2.031   1.824   4.554 -0.0378  0.0793  0.1516
    1DIPC   C4A20036   2.339   2.066   4.725 -0.3877  0.1843  0.3302
    1DIPC   C1B20037   1.665   1.169   4.255 -0.1284 -0.2106  0.1643
    1DIPC   D2B20038   1.236   1.000   4.453  0.1471 -0.1054  0.1827
    1DIPC   D3B20039   0.854   1.283   4.333  0.0449  0.1775 -0.1639
    1DIPC   C4B20040   0.983   1.696   4.450  0.0180  0.0195 -0.1695
    1DIPC   NC320041  23.502  10.995   3.283 -0.0484 -0.0023 -0.0446
    1DIPC   PO420042  23.965  11.161   3.228  0.1717 -0.2248 -0.2738
    1DIPC   GL120043  24.111  11.254   3.610 -0.0943  0.1834 -0.1349
    1DIPC   GL220044  24.258  10.855   3.746 -0.2312  0.1842  0.2313
    1DIPC   C1A20045  24.221  11.572   4.011  0.2893  0.0828  0.4018
    1DIPC   D2A20046  24.199  11.877   4.377  0.2029  0.1917 -0.1763
    1DIPC   D3A20047  23.727  11.884   4.488  0.0417 -0.1734  0.1649
    1DIPC   C4A20048  23.460  11.585   4.281 -0.3704 -0.2194 -0.0526
    1DIPC   C1B20049  24.498  11.111   4.041  0.3718  0.0043  0.1776
    1DIPC   D2B20050  24.483  11.139   4.460 -0.0637  0.1631 -0.1987
    1DIPC   D3B20051  24.879  11.308   4.416  0.0121  0.0615 -0.1193
    1DIPC   C4B20052  25.208  11.050   4.396 -0.3358 -0.1202  0.1586
    1DIPC   NC320053   3.265   9.076   2.803 -0.0617  0.0331  0.0625
    1DIPC   PO420054   2.875   9.272   2.868 -0.1140 -0.2880  0.2634
    1DIPC   GL120055   3.042   9.209   3.247  0.1434 -0.0602  0.2798
    1DIPC   GL220056   3.311   9.018   3.315 -0.2557  0.3642  0.0849
    1DIPC   C1A20057   3.089   9.290   3.736  0.1584  0.1177  0.1165
    1DIPC   D2A20058   3.414   9.449   4.089  0.1652 -0.1413 -0.0143
    1DIPC   D3A20059   3.629   9.652   3.762 -0.3214  0.0025 -0.0002
    1DIPC   C4A20060   3.549   9.422   3.409  0.0027  0.0451 -0.0021
    1DIPC   C1B20061   3.376   8.852   3.766  0.0687 -0.1615 -0.0958
    1DIPC   D2B20062   3.408   8.853   4.218 -0.1939 -0.2325 -0.1819
    1DIPC   D3B20063   3.079   9.154   4.378 -0.1624  0.1560 -0.3069
    1DIPC   C4B20064   2.864   8.998   4.688 -0.2214 -0.0731  0.0444
    1DIPC   NC320065  28.525  12.963   1.777  0.3369  0.0356  0.0046
    1DIPC   PO420066  28.216  13.079   2.239  0.2099 -0.0339  0.0422
    1DIPC   GL120067  28.167  13.052   2.718 -0.1220 -0.0934  0.2736
    1DIPC   GL220068  27.823  13.076   2.835  0.0554 -0.0618  0.3980
    1DIPC   C1A20069  28.149  12.935   3.219 -0.0576  0.2568 -0.2087
    1DIPC   D2A20070  28.397  12.794   3.544  0.2382  0.1582 -0.2839
    1DIPC   D3A20071  28.482  12.332   3.740 -0.1296  0.0094  0.1119
    1DIPC   C4A20072  28.871  12.394   4.072 -0.0814 -0.2664 -0.0312
    1DIPC   C1B20073  27.999  13.412   3.205  0.5287 -0.1307  0.3536
    1DIPC   D2B20074  28.226  13.362   3.570  0.2116  0.1445 -0.0521
    1DIPC   D3B20075  28.037  13.000   3.768 -0.0732 -0.0798  0.0827
    1DIPC   C4B20076  27.687  13.019   4.020 -0.1429  0.1003  0.0684
    1DIPC   NC320077  19.692   3.998   3.087  0.1415 -0.1351  0.1149
    1DIPC   PO420078  19.271   3.971   3.118  0.1471  0.0786 -0.1020
    1DIPC   GL120079  19.415   3.929   3.581 -0.1321  0.0748 -0.0132
    1DIPC   GL220080  19.195   4.091   3.785 -0.1793 -0.0883 -0.1516
    1DIPC   C1A20081  19.547   3.755   3.948 -0.3063  0.3176  0.1042
    1DIPC   D2A20082  19.642   3.446   4.329  0.0023 -0.1817 -0.1937
    1DIPC   D3A20083  19.752   3.070   4.581  0.1634  0.0776 -0.1489
    1DIPC   C4A20084  19.859   3.143   5.095  0.1762 -0.1738  0.2807
    1DIPC   C1B20085  19.288   4.095   4.238  0.2092 -0.3301 -0.2566
    1DIPC   D2B20086  19.680   4.248   4.481  0.0969  0.0332  0.1137
    1DIPC   D3B20087  19.499   4.628   4.564  0.0393 -0.1573 -0.1123
    1DIPC   C4B20088  19.691   4.827   4.907 -0.0938  0.0236  0.0215
    1DIPC   NC320089   1.214  16.397   1.774 -0.2386 -0.1826  0.1560
    1DIPC   PO420090   1.320  16.349   2.267  0.1113 -0.4526  0.0896
    1DIPC   GL120091   1.072  16.499   2.599  0.0261  0.1755 -0.2323
    1DIPC   GL220092   0.996  16.309   2.829 -0.1128 -0.2488 -0.0495
    1DIPC   C1A20093   1.065  16.736   3.044 -0.2076  0.0324  0.0814
    1DIPC   D2A20094   1.111  16.530   3.414 -0.1411  0.0835  0.1211
    1DIPC   D3A20095   1.044  16.280   3.712 -0.1212 -0.2951 -0.0022
    1DIPC   C4A20096   0.706  16.268   3.937  0.1084 -0.1447  0.1644
    1DIPC   C1B20097   1.119  16.093   3.196  0.1501 -0.2155 -0.0049
    1DIPC   D2B20098   1.424  15.962   3.322 -0.1459 -0.1633 -0.1975
    1DIPC   D3B20099   1.533  16.219   3.508 -0.3332  0.1553 -0.2851
    1DIPC   C4B20100   1.763  16.496   3.315 -0.2377  0.0822  0.2827
    1DIPC   NC320101  19.347  24.340   3.459  0.1046 -0.0035 -0.2316
    1DIPC   PO420102  19.848  24.234   3.507  0.2704  0.2224  0.0414
    1DIPC   GL120103  19.992  24.365   3.884  0.2157 -0.1916 -0.0394
    1DIPC   GL220104  20.353  24.254   3.996  0.0593  0.0412 -0.0276
    1DIPC   C1A20105  19.842  24.176   4.266  0.0533 -0.2193 -0.0414
    1DIPC   D2A20106  19.748  23.935   4.563  0.2188 -0.1020  0.1994
    1DIPC   D3A20107  19.361  23.863   4.460 -0.1349  0.0757  0.0777
    1DIPC   C4A20108  19.479  23.952   4.081 -0.0322 -0.0738 -0.0466
    1DIPC   C1B20109  20.617  24.003   4.310 -0.0785  0.3500 -0.0383
    1DIPC   D2B20110  20.941  24.010   4.667 -0.2427  0.2098 -0.0324
    1DIPC   D3B20111  20.732  23.976   5.049 -0.1187 -0.3607 -0.2364
    1DIPC   C4B20112  20.710  24.311   5.471 -0.2055 -0.3066 -0.1573
    1DIPC   NC320113   3.530   0.820   3.153 -0.3135  0.0930 -0.2406
    1DIPC   PO420114   3.365   1.267   3.244  0.2297 -0.0025  0.0465
    1DIPC   GL120115   3.690   1.561   3.559  0.1085 -0.2599 -0.0012
    1DIPC   GL220116   3.865   1.587   3.839 -0.1146 -0.0592 -0.1469
    1DIPC   C1A20117   3.682   2.060   3.661 -0.2461 -0.3158 -0.0419
    1DIPC   D2A20118   3.929   2.144   4.062  0.2586 -0.1693 -0.2178
    1DIPC   D3A20119   3.560   2.184   4.426 -0.2653 -0.2728  0.1198
    1DIPC   C4A20120   3.447   2.613   4.781  0.4162 -0.1601 -0.0678
    1DIPC   C1B20121   3.742   1.681   4.246  0.0365 -0.1775  0.0916
    1DIPC   D2B20122   4.011   1.639   4.631 -0.0875 -0.0976  0.1883
    1DIPC   D3B20123   3.769   1.471   5.108 -0.2265 -0.0433 -0.2551
    1DIPC   C4B20124   3.449   1.775   5.278 -0.0270  0.1220  0.3122
    1DIPC   NC320125   4.069   4.515   3.061  0.2796 -0.1889  0.1571
    1DIPC   PO420126   4.330   4.210   3.096  0.0812  0.1788  0.0771
    1DIPC   GL120127   4.231   4.080   3.531 -0.1702  0.1050  0.1822
    1DIPC   GL220128   3.992   4.255   3.643  0.0591 -0.0107  0.0220
    1DIPC   C1A20129   4.311   3.973   3.929 -0.2008  0.1728 -0.2056
    1DIPC   D2A20130   4.497   4.293   4.147  0.0861 -0.2516 -0.2769
    1DIPC   D3A20131   4.368   4.270   4.498 -0.0328  0.0660 -0.4369
    1DIPC   C4A20132   3.898   4.431   4.587 -0.2385 -0.5079  0.0876
    1DIPC   C1B20133   3.721   4.699   3.706 -0.0272  0.2238  0.1121
    1DIPC   D2B20134   3.692   5.138   3.956 -0.0298  0.5810  0.0051
    1DIPC   D3B20135   3.593   4.915   4.229  0.0985 -0.1126 -0.1447
    1DIPC   C4B20136   3.698   4.958   4.647 -0.0260 -0.0755  0.0220
    1DIPC   NC320137  26.138  16.539   2.683  0.0111  0.1965  0.1077
    1DIPC   PO420138  25.764  16.698   2.664 -0.1674 -0.1008 -0.1084
    1DIPC   GL120139  25.814  16.497   3.041  0.1125  0.1483 -0.0053
    1DIPC   GL220140  26.034  16.730   3.115  0.0960 -0.2265  0.0471
    1DIPC   C1A20141  25.453  16.317   3.380  0.0248 -0.1474 -0.1257
    1DIPC   D2A20142  25.040  16.375   3.520 -0.2633  0.1236 -0.1030
    1DIPC   D3A20143  25.321  16.580   3.874  0.3200  0.0824  0.0943
    1DIPC   C4A20144  25.285  17.004   4.100  0.2290  0.3275  0.0842
    1DIPC   C1B20145  25.794  16.768   3.476  0.1316 -0.0821  0.0493
    1DIPC   D2B20146  25.918  16.850   3.875 -0.0926 -0.0719  0.1859
    1DIPC   D3B20147  25.654  16.729   4.245 -0.1192 -0.3181  0.1105
    1DIPC   C4B20148  25.328  16.350   4.271  0.1082  0.2211 -0.2899
    1DIPC   NC320149  19.689   1.761   2.915  0.3671  0.0445 -0.1133
    1DIPC   PO420150  19.219   1.772   3.030 -0.0653 -0.2911 -0.0680
    1DIPC   GL120151  19.512   2.061   3.253 -0.0734  0.2246  0.3410
    1DIPC   GL220152  19.809   1.954   3.341  0.1715 -0.2763  0.0958
    1DIPC   C1A20153  19.370   2.273   3.623 -0.1136  0.0568  0.0753
    1DIPC   D2A20154  18.973   2.242   3.793  0.0841 -0.0185  0.0226
    1DIPC   D3A20155  18.481   2.160   3.918 -0.1618  0.0636 -0.0427
    1DIPC   C4A20156  18.385   2.235   4.237 -0.0177  0.2362  0.0072
    1DIPC   C1B20157  19.859   2.090   3.758 -0.1992 -0.2818  0.0240
    1DIPC   D2B20158  19.945   2.128   4.175 -0.0558 -0.0271 -0.2903
    1DIPC   D3B20159  20.069   2.489   4.428  0.0185  0.0766 -0.3123
    1DIPC   C4B20160  19.727   2.620   4.822 -0.0406  0.1548  0.0755
    1DIPC   NC320161  17.388   0.774   3.513 -0.0690  0.2184 -0.0842
    1DIPC   PO420162  17.743   0.541   3.643  0.0244 -0.1975 -0.0273
    1DIPC   GL120163  17.985   0.632   4.087  0.2588  0.3786 -0.1274
    1DIPC   GL220164  18.251   0.716   4.123  0.0532  0.0856  0.2298
    1DIPC   C1A20165  17.957   0.635   4.501  0.0393 -0.2649 -0.0449
    1DIPC   D2A20166  18.072   0.739   4.928 -0.0250 -0.3896 -0.0258
    1DIPC   D3A20167  18.401   1.063   5.025  0.2013  0.0296  0.1194
    1DIPC   C4A20168  18.698   1.293   4.882  0.3538 -0.1081  0.0482
    1DIPC   C1B20169  18.316   0.985   4.474 -0.2854  0.0676 -0.0154
    1DIPC   D2B20170  18.375   1.439   4.525  0.1757  0.0586 -0.3078
    1DIPC   D3B20171  18.398   1.678   4.982 -0.0857  0.1838 -0.1560
    1DIPC   C4B20172  18.357   1.416   5.351 -0.0188  0.2412 -0.2518
    1DIPC   NC320173   0.328  20.334   2.372  0.0401 -0.4751 -0.3508
    1DIPC   PO420174   0.101  20.636   2.642 -0.1665  0.0762  0.0194
    1DIPC   GL120175  -0.117  20.608   3.049  0.0509 -0.2493  0.1214
    1DIPC   GL220176  -0.462  20.723   3.185 -0.1360  0.1373  0.0697
    1DIPC   C1A20177   0.083  20.694   3.392 -0.0393  0.1755  0.1103
    1DIPC   D2A20178   0.277  20.783   3.803  0.1434 -0.1174  0.0303
    1DIPC   D3A20179   0.431  20.310   3.926  0.0262  0.2861 -0.3209
    1DIPC   C4A20180   0.824  20.255   3.857 -0.0004 -0.0473 -0.0660
    1DIPC   C1B20181  -0.676  20.606   3.584 -0.1647 -0.0332 -0.0512
    1DIPC   D2B20182  -1.019  20.540   3.915 -0.2716  0.0272  0.0695
    1DIPC   D3B20183  -0.896  20.697   4.318 -0.3424  0.1406 -0.5113
    1DIPC   C4B20184  -1.011  21.112   4.270  0.1650 -0.0606 -0.0214
    1DIPC   NC320185  27.087   0.499   3.645  0.1113 -0.0886 -0.1597
    1DIPC   PO420186  27.268   0.066   3.542  0.1068 -0.0968  0.2321
    1DIPC   GL120187  27.436   0.184   4.050  0.4202  0.2536  0.0929
    1DIPC   GL220188  27.529   0.526   4.002 -0.0142 -0.1154  0.1746
    1DIPC   C1A20189  27.110   0.292   4.406 -0.1599 -0.0391  0.0904
    1DIPC   D2A20190  27.174   0.323   4.770 -0.2494  0.1201 -0.0566
    1DIPC   D3A20191  27.572   0.448   4.806  0.2098  0.0059 -0.2120
    1DIPC   C4A20192  27.599   0.707   4.470 -0.1715 -0.0412 -0.2088
    1DIPC   C1B20193  27.320   0.949   4.066  0.0158  0.4988 -0.1504
    1DIPC   D2B20194  26.969   1.171   4.301 -0.0222  0.0168 -0.0968
    1DIPC   D3B20195  27.010   1.121   4.686 -0.1220 -0.1485  0.0299
    1DIPC   C4B20196  27.428   0.997   4.845 -0.3043  0.1284  0.1588
    1DIPC   NC320197  22.854   9.119   2.895 -0.0817 -0.1792  0.2743
    1DIPC   PO420198  23.081   8.729   2.820 -0.2254  0.1159  0.2278
    1DIPC   GL120199  23.122   8.889   3.259  0.0188  0.0918 -0.1947
    1DIPC   GL220200  23.078   9.097   3.366  0.1947  0.2418  0.1402
    1DIPC   C1A20201  22.860   8.663   3.570  0.1335  0.1706  0.1973
    1DIPC   D2A20202  23.022   8.402   3.917 -0.0683  0.1035 -0.1446
    1DIPC   D3A20203  23.153   8.305   4.260 -0.0344 -0.0558 -0.1510
    1DIPC   C4A20204  23.101   7.846   4.434 -0.0188 -0.0370  0.1039
    1DIPC   C1B20205  23.194   9.226   3.837 -0.0873 -0.0455 -0.1029
    1DIPC   D2B20206  23.129   9.198   4.268 -0.1245 -0.0681 -0.0601
    1DIPC   D3B20207  23.243   9.516   4.653  0.1019  0.1498  0.1069
    1DIPC   C4B20208  22.952   9.787   4.764 -0.1176  0.0910  0.1476
    1DIPC   NC320209  11.214  25.404   2.867 -0.0854  0.1652 -0.0792
    1DIPC   PO420210  10.914  25.725   3.019  0.0795  0.0813 -0.0786
    1DIPC   GL120211  10.789  25.780   3.411  0.2203  0.0600  0.3534
    1DIPC   GL220212  10.827  26.038   3.479  0.0829  0.1806  0.2158
    1DIPC   C1A20213  11.061  25.670   3.717  0.3594 -0.3153  0.3615
    1DIPC   D2A20214  10.970  25.549   4.176 -0.1725  0.2118  0.3322
    1DIPC   D3A20215  11.284  25.327   4.525  0.4191  0.1411  0.2267
    1DIPC   C4A20216  11.344  25.271   5.002  0.1545 -0.1900 -0.0478
    1DIPC   C1B20217  10.700  25.981   3.918 -0.0170 -0.1136  0.4046
    1DIPC   D2B20218  10.599  25.866   4.337 -0.1564  0.0838 -0.3175
    1DIPC   D3B20219  10.687  26.198   4.596  0.1830  0.0010 -0.3753
    1DIPC   C4B20220  10.432  26.450   4.912  0.1540 -0.2140 -0.1629
    1DIPC   NC320221  16.617  22.198   3.349 -0.2352 -0.2231  0.1134
    1DIPC   PO420222  16.942  21.982   3.491  0.1123 -0.0655  0.1085
    1DIPC   GL120223  16.830  21.950   3.980 -0.1145 -0.0076 -0.0894
    1DIPC   GL220224  17.055  22.146   4.218 -0.2263  0.1726  0.2457
    1DIPC   C1A20225  16.587  21.890   4.273  0.1268 -0.0227 -0.0030
    1DIPC   D2A20226  16.590  22.008   4.622  0.1395 -0.0109 -0.4486
    1DIPC   D3A20227  17.006  21.939   4.823  0.1407  0.0912 -0.0864
    1DIPC   C4A20228  17.248  21.967   5.194  0.0759 -0.1452 -0.0284
    1DIPC   C1B20229  17.247  21.802   4.327  0.0227  0.0319  0.1807
    1DIPC   D2B20230  17.398  21.653   4.676  0.1946  0.1331 -0.0824
    1DIPC   D3B20231  17.165  21.446   4.968 -0.0968 -0.0563 -0.1288
    1DIPC   C4B20232  17.134  21.125   4.757 -0.2976  0.0332 -0.2813
    1DIPC   NC320233  22.878   3.996   3.296  0.0669 -0.2031 -0.0672
    1DIPC   PO420234  22.461   4.059   3.348 -0.0634  0.0281 -0.0640
    1DIPC   GL120235  22.207   3.851   3.539  0.2396  0.4263 -0.1205
    1DIPC   GL220236  22.092   4.019   3.786 -0.0950  0.0482  0.1420
    1DIPC   C1A20237  22.242   3.532   3.826 -0.0706  0.3286 -0.2102
    1DIPC   D2A20238  21.928   3.299   4.066 -0.1547  0.2448 -0.1682
    1DIPC   D3A20239  21.882   3.097   4.396  0.2426 -0.0830  0.2175
    1DIPC   C4A20240  22.069   3.164   4.695 -0.1668 -0.3134  0.3092
    1DIPC   C1B20241  22.345   3.904   4.179 -0.1776 -0.1102 -0.2389
    1DIPC   D2B20242  22.619   4.234   4.278  0.0663  0.1014 -0.2545
    1DIPC   D3B20243  22.692   4.407   3.848  0.1153 -0.1908  0.0656
    1DIPC   C4B20244  23.117   4.550   3.787  0.1304 -0.4396 -0.0584
    1DIPC   NC320245  17.561   7.320   3.650 -0.0895  0.0641 -0.3020
    1DIPC   PO420246  17.276   7.502   3.387 -0.1345  0.1223 -0.0644
    1DIPC   GL120247  17.207   7.738   3.720 -0.0228  0.0563 -0.0497
    1DIPC   GL220248  17.492   7.826   3.790  0.1940  0.0707  0.0240
    1DIPC   C1A20249  17.184   7.564   4.181 -0.0825  0.1150  0.2349
    1DIPC   D2A20250  17.554   7.642   4.499  0.0354  0.1220  0.0255
    1DIPC   D3A20251  17.557   7.759   4.884  0.2446  0.0384  0.3062
    1DIPC   C4A20252  17.200   8.163   4.986  0.0492  0.2548 -0.1963
    1DIPC   C1B20253  17.580   8.034   4.131 -0.1324 -0.1739  0.1913
    1DIPC   D2B20254  17.784   8.066   4.458 -0.0445 -0.0405 -0.4957
    1DIPC   D3B20255  17.638   8.228   4.802 -0.1568 -0.2554 -0.0756
    1DIPC   C4B20256  17.672   8.447   5.176  0.3705  0.0997  0.1988
    1DIPC   NC320257   2.621   3.216   2.955 -0.0946 -0.1598  0.1472
    1DIPC   PO420258   2.802   3.085   3.329 -0.0540 -0.2043 -0.4455
    1DIPC   GL120259   2.428   3.064   3.621  0.0150 -0.3090 -0.0904
    1DIPC   GL220260   2.423   2.899   3.828 -0.0102  0.2028 -0.0883
    1DIPC   C1A20261   2.130   3.469   3.767 -0.0038  0.2030  0.0740
    1DIPC   D2A20262   1.569   3.525   3.793  0.0847  0.0050  0.2443
    1DIPC   D3A20263   1.761   3.598   4.180  0.0249 -0.2461  0.0092
    1DIPC   C4A20264   1.466   3.823   4.431 -0.0228 -0.1128 -0.0611
    1DIPC   C1B20265   2.232   2.837   4.203  0.0514 -0.0361 -0.2498
    1DIPC   D2B20266   2.274   2.727   4.639  0.0027 -0.0968 -0.1001
    1DIPC   D3B20267   2.571   2.501   4.418 -0.3464 -0.0242 -0.1335
    1DIPC   C4B20268   2.544   2.468   4.028  0.0136 -0.1009  0.3022
    1DIPC   NC320269  15.485  24.400   3.184 -0.0710 -0.4192 -0.2162
    1DIPC   PO420270  15.372  24.287   3.516  0.1227  0.0815  0.0350
    1DIPC   GL120271  15.413  24.113   3.857  0.2396  0.2015  0.5300
    1DIPC   GL220272  15.102  24.079   4.021  0.2107  0.1017  0.0202
    1DIPC   C1A20273  15.616  24.107   4.219 -0.0302  0.1128  0.0625
    1DIPC   D2A20274  15.968  24.141   4.539  0.0287  0.1201  0.3645
    1DIPC   D3A20275  16.111  24.558   4.700  0.0820 -0.1449 -0.0094
    1DIPC   C4A20276  16.496  24.625   4.770 -0.2344 -0.1306 -0.0589
    1DIPC   C1B20277  15.058  24.084   4.457 -0.1206  0.1148  0.1062
    1DIPC   D2B20278  14.816  23.982   4.855  0.0717  0.0267 -0.0073
    1DIPC   D3B20279  14.488  24.274   4.685 -0.3159 -0.0267 -0.1892
    1DIPC   C4B20280  14.669  24.444   4.262 -0.1434 -0.0498  0.2127
    1DIPC   NC320281  11.823  28.485   3.856  0.0117  0.0156 -0.0239
    1DIPC   PO420282  12.129  28.783   3.741  0.0774  0.1542 -0.0047
    1DIPC   GL120283  12.098  28.763   4.186  0.2166  0.0194 -0.0003
    1DIPC   GL220284  12.236  28.475   4.261  0.0120 -0.1810 -0.5778
    1DIPC   C1A20285  11.977  29.046   4.535  0.0817  0.0472 -0.2166
    1DIPC   D2A20286  11.689  29.372   4.708  0.1288 -0.1203 -0.2205
    1DIPC   D3A20287  11.920  29.566   5.157  0.0072  0.2748  0.0152
    1DIPC   C4A20288  11.767  29.479   5.536  0.0826 -0.0013  0.3522
    1DIPC   C1B20289  12.295  28.640   4.670 -0.0188 -0.0241  0.0063
    1DIPC   D2B20290  12.173  28.759   5.072  0.0368 -0.4053 -0.1104
    1DIPC   D3B20291  11.847  28.952   5.292 -0.0368  0.1677  0.0834
    1DIPC   C4B20292  11.658  28.890   4.915  0.2378  0.0709 -0.0334
    1DIPC   NC320293  24.732   5.762   2.543  0.5491 -0.1289 -0.2997
    1DIPC   PO420294  24.762   5.706   2.924 -0.0897 -0.1187 -0.0223
    1DIPC   GL120295  24.851   5.819   3.357  0.0619 -0.2436 -0.1134
    1DIPC   GL220296  25.118   5.835   3.300 -0.1943 -0.3620  0.0156
    1DIPC   C1A20297  24.962   5.701   3.786  0.1629  0.0765 -0.3766
    1DIPC   D2A20298  25.271   5.782   4.204 -0.2329  0.2206 -0.0150
    1DIPC   D3A20299  25.140   6.145   4.518  0.0067 -0.1009  0.0866
    1DIPC   C4A20300  24.792   6.082   4.835  0.0542  0.2011  0.3407
    1DIPC   C1B20301  25.264   6.028   3.675  0.2367 -0.0943 -0.0440
    1DIPC   D2B20302  25.236   6.263   4.068  0.0494  0.0751 -0.0506
    1DIPC   D3B20303  25.072   6.623   4.263 -0.1238  0.0215 -0.2814
    1DIPC   C4B20304  24.892   6.891   3.981 -0.2862  0.0721  0.1726
    1DIPC   NC320305   0.510   6.268   2.959  0.1760 -0.0061 -0.0736
    1DIPC   PO420306   0.369   5.801   2.955  0.1639 -0.0880 -0.0675
    1DIPC   GL120307   0.232   6.080   3.336  0.0168 -0.1586 -0.2248
    1DIPC   GL220308  -0.043   6.089   3.322 -0.1128  0.0411  0.2976
    1DIPC   C1A20309   0.172   6.409   3.672 -0.1375  0.0397 -0.0505
    1DIPC   D2A20310  -0.004   6.620   4.071 -0.0424  0.1863  0.2850
    1DIPC   D3A20311  -0.353   6.469   4.377 -0.0525  0.0086  0.0580
    1DIPC   C4A20312  -0.655   6.701   4.646  0.1221  0.0732  0.1094
    1DIPC   C1B20313  -0.280   6.399   3.445 -0.2845  0.0900  0.3561
    1DIPC   D2B20314  -0.347   6.583   3.767  0.0776  0.1057  0.1175
    1DIPC   D3B20315  -0.422   6.168   3.868  0.0861 -0.2464  0.1949
    1DIPC   C4B20316  -0.972   6.055   3.891 -0.0888  0.2941 -0.2579
    1DIPC   NC320317   8.118   0.329   3.672 -0.2070 -0.0787  0.0895
    1DIPC   PO420318   8.458   0.562   3.864 -0.0172  0.1223 -0.1633
    1DIPC   GL120319   8.261   0.636   4.282 -0.2195 -0.5584  0.1806
    1DIPC   GL220320   8.008   0.432   4.210 -0.1072  0.0587 -0.2652
    1DIPC   C1A20321   8.342   0.721   4.647  0.1641  0.1011 -0.1196
    1DIPC   D2A20322   8.329   1.049   4.902  0.0821  0.1671  0.0411
    1DIPC   D3A20323   8.160   1.430   4.965 -0.0749  0.2131 -0.0104
    1DIPC   C4A20324   8.088   1.754   4.861 -0.2457 -0.0011  0.0506
    1DIPC   C1B20325   8.040   0.225   4.565  0.0511 -0.0833 -0.2591
    1DIPC   D2B20326   7.875   0.183   4.790 -0.2255 -0.1444 -0.1850
    1DIPC   D3B20327   7.587   0.203   4.393  0.1059  0.2365 -0.1217
    1DIPC   C4B20328   7.684  -0.167   4.190 -0.1111 -0.0662 -0.2969
    1DIPC   NC320329  12.217   2.985   4.380  0.1364  0.3938 -0.0323
    1DIPC   PO420330  11.793   3.106   4.372  0.1655  0.1499  0.0961
    1DIPC   GL120331  11.778   2.993   4.758 -0.1094  0.0412  0.0778
    1DIPC   GL220332  11.652   2.702   4.639 -0.0268 -0.0383  0.2289
    1DIPC   C1A20333  11.858   3.106   5.050  0.1348 -0.0010  0.0865
    1DIPC   D2A20334  12.116   3.370   5.329 -0.2163 -0.2224 -0.2056
    1DIPC   D3A20335  12.305   3.830   5.444  0.4191 -0.1795  0.0436
    1DIPC   C4A20336  12.089   4.066   5.201 -0.1160  0.0162  0.2779
    1DIPC   C1B20337  11.497   2.554   4.925 -0.2906 -0.3708  0.1500
    1DIPC   D2B20338  11.183   2.515   5.229 -0.2693  0.3490  0.0285
    1DIPC   D3B20339  10.777   2.631   5.420 -0.1302 -0.1294  0.0673
    1DIPC   C4B20340  10.654   2.391   5.838 -0.2895  0.0663  0.0894
    1DIPC   NC320341   3.180   3.529   3.400  0.2241  0.2044  0.2025
    1DIPC   PO420342   2.941   3.583   3.150  0.1627 -0.3235  0.4884
    1DIPC   GL120343   2.729   3.580   3.551 -0.1126 -0.0431 -0.2433
    1DIPC   GL220344   2.532   3.794   3.586  0.1513  0.1792 -0.2190
    1DIPC   C1A20345   2.876   3.689   3.992 -0.2886  0.0141 -0.2103
    1DIPC   D2A20346   2.955   3.742   4.330  0.1660  0.1295 -0.1661
    1DIPC   D3A20347   2.645   3.493   4.438  0.2687  0.1072  0.3721
    1DIPC   C4A20348   2.606   3.266   4.114 -0.1669  0.3614  0.1331
    1DIPC   C1B20349   2.414   3.787   3.987 -0.1621 -0.0829  0.1955
    1DIPC   D2B20350   2.324   3.879   4.371  0.0131 -0.0206 -0.0428
    1DIPC   D3B20351   1.988   3.717   4.596  0.0227  0.2426 -0.1026
    1DIPC   C4B20352   1.803   4.049   4.730  0.2483 -0.1182  0.0742
    1DIPC   NC320353  25.607   6.624   2.620 -0.0467  0.3229 -0.3345
    1DIPC   PO420354  25.590   6.967   2.709 -0.0123  0.0111  0.0630
    1DIPC   GL120355  25.463   7.061   3.023 -0.2092 -0.4751  0.2792
    1DIPC   GL220356  25.575   6.714   3.167 -0.3907 -0.0153  0.1436
    1DIPC   C1A20357  25.631   7.211   3.456  0.2295 -0.2110 -0.0929
    1DIPC   D2A20358  25.907   7.349   3.779  0.2131  0.0292  0.2665
    1DIPC   D3A20359  26.203   7.674   3.745 -0.0505  0.0102 -0.0672
    1DIPC   C4A20360  26.460   7.738   3.450 -0.0033  0.1838  0.2433
    1DIPC   C1B20361  25.501   6.556   3.578  0.1992 -0.1272 -0.0089
    1DIPC   D2B20362  25.658   6.300   3.844 -0.0112 -0.1886 -0.1298
    1DIPC   D3B20363  25.687   6.079   4.302 -0.1065 -0.0678  0.0940
    1DIPC   C4B20364  25.491   5.828   4.688 -0.1769  0.1016  0.0433
    1DIPC   NC320365  28.449  22.982   2.678  0.2518  0.1866 -0.2110
    1DIPC   PO420366  28.332  22.688   2.921  0.1640  0.1577  0.0640
    1DIPC   GL120367  28.529  22.729   3.332 -0.0168 -0.0022  0.0040
    1DIPC   GL220368  28.959  22.769   3.319  0.3955 -0.1165  0.0610
    1DIPC   C1A20369  28.690  22.656   3.751  0.1243 -0.2619 -0.0054
    1DIPC   D2A20370  29.027  22.486   4.088  0.0238 -0.1262 -0.2245
    1DIPC   D3A20371  29.273  22.526   4.446  0.2167 -0.2478 -0.2836
    1DIPC   C4A20372  29.735  22.549   4.417 -0.2816  0.2069  0.1231
    1DIPC   C1B20373  29.182  22.825   3.703  0.3026 -0.0722  0.0241
    1DIPC   D2B20374  29.397  22.861   4.087 -0.2967  0.1607 -0.0078
    1DIPC   D3B20375  29.518  22.524   3.904 -0.2288  0.1223  0.0300
    1DIPC   C4B20376  29.531  22.568   3.445 -0.0079 -0.0495  0.0102
    1DIPC   NC320377   3.074  17.785   2.489 -0.0450 -0.0733  0.0760
    1DIPC   PO420378   2.833  17.672   2.844 -0.1716 -0.1027  0.2437
    1DIPC   GL120379   2.910  17.838   3.173  0.1036  0.2271  0.3572
    1DIPC   GL220380   2.586  17.704   3.387 -0.1719  0.1345 -0.1105
    1DIPC   C1A20381   3.214  18.016   3.549  0.0848  0.0876 -0.0113
    1DIPC   D2A20382   3.675  17.884   3.755  0.0803  0.0116 -0.2720
    1DIPC   D3A20383   3.892  17.529   3.345  0.0569  0.0648 -0.0709
    1DIPC   C4A20384   4.248  17.535   3.102  0.0370  0.1513  0.0902
    1DIPC   C1B20385   2.831  17.767   3.758  0.0077 -0.0045  0.1986
    1DIPC   D2B20386   3.102  17.541   3.951  0.0302 -0.0983  0.0172
    1DIPC   D3B20387   2.694  17.332   4.005  0.1460  0.0377 -0.0849
    1DIPC   C4B20388   2.423  17.582   3.937  0.0009  0.2490  0.1272
    1DIPC   NC320389   5.531  16.031   2.496  0.1255  0.0904 -0.2841
    1DIPC   PO420390   5.124  16.014   2.596 -0.0970 -0.0799  0.0446
    1DIPC   GL120391   5.331  15.988   2.953 -0.1712 -0.1282 -0.1238
    1DIPC   GL220392   5.464  15.702   3.023 -0.0671  0.2427  0.0812
    1DIPC   C1A20393   5.211  15.884   3.389  0.0177 -0.0362 -0.2197
    1DIPC   D2A20394   5.195  15.940   3.895 -0.0601  0.1109 -0.0526
    1DIPC   D3A20395   5.517  16.090   4.039  0.2213 -0.1692 -0.0954
    1DIPC   C4A20396   5.545  16.268   4.380 -0.3766  0.1381  0.0950
    1DIPC   C1B20397   5.405  15.444   3.456  0.0469 -0.1809 -0.1955
    1DIPC   D2B20398   5.629  15.507   3.842  0.2661  0.4898 -0.0873
    1DIPC   D3B20399   5.467  15.156   3.925 -0.1355  0.1186  0.0472
    1DIPC   C4B20400   5.116  15.406   3.968  0.3309  0.0700  0.2318
    1DIPC   NC320401   6.467  23.854   2.374  0.4623 -0.3076 -0.2073
    1DIPC   PO420402   6.825  23.731   2.125  0.1472 -0.3263  0.1458
    1DIPC   GL120403   6.830  23.663   2.647 -0.2248 -0.0205 -0.2465
    1DIPC   GL220404   7.070  23.749   2.755 -0.3186  0.2628 -0.1104
    1DIPC   C1A20405   6.775  23.476   3.020  0.0448 -0.1416 -0.2047
    1DIPC   D2A20406   7.011  23.282   3.299  0.0555  0.1710  0.4696
    1DIPC   D3A20407   7.107  23.595   3.530  0.0143 -0.0798 -0.1801
    1DIPC   C4A20408   6.923  23.468   3.918  0.0398  0.1170  0.0133
    1DIPC   C1B20409   7.285  23.651   3.067  0.0256  0.1855  0.1753
    1DIPC   D2B20410   7.659  23.706   3.458  0.0116  0.1225  0.1512
    1DIPC   D3B20411   7.502  23.842   3.828 -0.1006  0.3904  0.1501
    1DIPC   C4B20412   7.635  24.303   3.875 -0.2903  0.1044 -0.0251
    1DIPC   NC320413   9.091   4.402   2.870 -0.0880 -0.0975  0.2624
    1DIPC   PO420414   8.964   4.719   3.239 -0.4567  0.0472  0.1169
    1DIPC   GL120415   8.819   4.722   3.679  0.0565  0.1413 -0.4302
    1DIPC   GL220416   8.684   4.357   3.770 -0.1134  0.0326 -0.0222
    1DIPC   C1A20417   8.734   4.956   3.943  0.0179  0.1593  0.0872
    1DIPC   D2A20418   8.418   5.100   4.236  0.3819 -0.0729 -0.4600
    1DIPC   D3A20419   7.921   5.137   4.036  0.1112  0.0075 -0.0700
    1DIPC   C4A20420   7.687   5.517   4.050 -0.2992  0.1773 -0.0010
    1DIPC   C1B20421   8.949   4.370   4.191  0.1927 -0.2081 -0.0837
    1DIPC   D2B20422   9.251   4.525   4.504 -0.0323  0.1139 -0.3492
    1DIPC   D3B20423   9.265   4.639   4.877  0.0065  0.1481 -0.2968
    1DIPC   C4B20424   9.500   4.955   4.955 -0.1198  0.1319 -0.3437
    1DIPC   NC320425  13.885   5.268   3.605 -0.1398  0.0197 -0.0246
    1DIPC   PO420426  13.507   5.376   3.791  0.1273 -0.0446  0.1473
    1DIPC   GL120427  13.364   5.373   4.126 -0.1692 -0.0257 -0.1394
    1DIPC   GL220428  13.301   4.988   4.155 -0.1460  0.2343 -0.0639
    1DIPC   C1A20429  13.330   5.451   4.642 -0.0473  0.2574 -0.0251
    1DIPC   D2A20430  13.222   5.583   5.084  0.1883 -0.2113 -0.2313
    1DIPC   D3A20431  12.742   5.441   5.193 -0.0442  0.0996 -0.1818
    1DIPC   C4A20432  12.585   5.368   5.604  0.1679  0.0264 -0.2907
    1DIPC   C1B20433  13.306   4.823   4.520 -0.1257  0.0621 -0.3448
    1DIPC   D2B20434  13.030   4.533   4.772 -0.3058 -0.0734 -0.0154
    1DIPC   D3B20435  12.653   4.657   4.923  0.2903 -0.0364 -0.0388
    1DIPC   C4B20436  12.462   4.401   5.339 -0.0500 -0.1503  0.0871
    1DIPC   NC320437  12.882   1.727   4.071 -0.0354  0.1848  0.0096
    1DIPC   PO420438  12.473   1.776   3.891  0.3391  0.1425 -0.1746
    1DIPC   GL120439  12.172   1.719   4.300  0.1397  0.1173 -0.1418
    1DIPC   GL220440  12.045   1.971   4.563  0.0481  0.0653  0.1833
    1DIPC   C1A20441  11.944   1.424   4.520 -0.0871 -0.1608 -0.2631
    1DIPC   D2A20442  11.939   1.080   4.677  0.0370  0.1600  0.0245
    1DIPC   D3A20443  11.855   0.932   4.294 -0.1169  0.1765  0.1824
    1DIPC   C4A20444  12.246   0.701   4.375  0.2013 -0.2385  0.0026
    1DIPC   C1B20445  12.331   2.025   4.805  0.3019  0.0552  0.1551
    1DIPC   D2B20446  12.314   2.158   5.195 -0.1558  0.0336 -0.1770
    1DIPC   D3B20447  12.575   2.476   5.054 -0.4305  0.0349  0.1370
    1DIPC   C4B20448  12.823   2.556   5.331  0.2937 -0.2478 -0.1180
    1DIPC   NC320449  17.447  21.533   2.984  0.0586 -0.2178  0.1444
    1DIPC   PO420450  17.815  21.699   3.274 -0.0601  0.0599 -0.0182
    1DIPC   GL120451  17.793  21.536   3.603 -0.0923 -0.1226  0.2176
    1DIPC   GL220452  17.642  21.825   3.757  0.0246 -0.0822 -0.1875
    1DIPC   C1A20453  17.423  21.381   3.913 -0.2177 -0.2236  0.1077
    1DIPC   D2A20454  17.441  21.297   4.311  0.2010  0.1737 -0.0699
    1DIPC   D3A20455  17.677  21.257   4.755 -0.2221 -0.3511 -0.0392
    1DIPC   C4A20456  17.561  20.938   4.962 -0.2283 -0.0367  0.1223
    1DIPC   C1B20457  17.703  21.944   4.162  0.0831  0.1939  0.2345
    1DIPC   D2B20458  17.632  22.197   4.521  0.1482 -0.1181 -0.1723
    1DIPC   D3B20459  17.633  22.278   4.953  0.0204 -0.0463 -0.1307
    1DIPC   C4B20460  17.315  22.517   5.223 -0.0534 -0.0725 -0.1046
    1DIPC   NC320461  28.561  14.880   1.775  0.1485  0.2890  0.1451
    1DIPC   PO420462  28.375  15.155   1.976  0.0281  0.1710  0.2309
    1DIPC   GL120463  28.326  15.190   2.469  0.1672  0.0865  0.0414
    1DIPC   GL220464  28.003  15.050   2.429 -0.4552  0.0539  0.0114
    1DIPC   C1A20465  28.203  15.302   2.862  0.1910 -0.2699  0.1898
    1DIPC   D2A20466  27.831  15.614   3.005 -0.1044  0.3759 -0.4054
    1DIPC   D3A20467  28.154  15.913   2.919  0.0738 -0.2629 -0.3853
    1DIPC   C4A20468  28.377  16.012   3.312  0.3785 -0.0765  0.1674
    1DIPC   C1B20469  27.861  14.933   2.719 -0.1254  0.1862  0.1637
    1DIPC   D2B20470  27.838  15.081   3.153 -0.0392  0.0926 -0.0981
    1DIPC   D3B20471  27.429  15.381   3.027 -0.0469  0.1640 -0.1584
    1DIPC   C4B20472  27.047  15.329   3.217  0.0000  0.0901  0.0961
    1DIPC   NC320473  24.018   0.797   2.827 -0.2195  0.1763 -0.0633
    1DIPC   PO420474  24.247   0.805   3.290  0.1818  0.2059  0.2111
    1DIPC   GL120475  24.173   0.734   3.690  0.4506 -0.0608  0.2968
    1DIPC   GL220476  24.548   0.574   3.608  0.0044 -0.3259  0.0475
    1DIPC   C1A20477  24.016   0.775   4.100  0.0773  0.1448 -0.1213
    1DIPC   D2A20478  23.705   0.763   4.369  0.1381 -0.0132 -0.1129
    1DIPC   D3A20479  23.582   0.427   4.612 -0.1196 -0.1887 -0.2623
    1DIPC   C4A20480  23.484   0.287   5.039  0.2468  0.2807 -0.0595
    1DIPC   C1B20481  24.504   0.808   4.015  0.0694 -0.1416 -0.1984
    1DIPC   D2B20482  24.452   0.962   4.416 -0.0350  0.0621 -0.0225
    1DIPC   D3B20483  24.030   1.116   4.486 -0.0417  0.1021  0.0434
    1DIPC   C4B20484  23.819   0.932   4.847  0.1141 -0.0145 -0.1896
    1DIPC   NC320485  25.567  24.000   3.117 -0.0797  0.2114  0.1518
    1DIPC   PO420486  25.252  24.213   3.366  0.0911  0.0797 -0.1770
    1DIPC   GL120487  25.546  24.102   3.707 -0.0928 -0.0467  0.3185
    1DIPC   GL220488  25.786  23.952   3.579 -0.0868 -0.2158  0.1637
    1DIPC   C1A20489  25.648  23.986   4.129 -0.1267  0.0637 -0.0607
    1DIPC   D2A20490  25.473  23.919   4.586 -0.3368  0.0480 -0.0179
    1DIPC   D3A20491  25.196  23.525   4.584 -0.1257  0.1921  0.2977
    1DIPC   C4A20492  24.956  23.375   4.310 -0.0106  0.1924  0.2410
    1DIPC   C1B20493  25.820  23.579   3.843 -0.3807 -0.1515 -0.1712
    1DIPC   D2B20494  25.694  23.500   4.349  0.1036 -0.0306  0.2290
    1DIPC   D3B20495  25.466  23.115   4.168  0.0007  0.2281 -0.1840
    1DIPC   C4B20496  25.262  23.004   4.460  0.2740 -0.1529  0.3904
    1DIPC   NC320497   0.978  28.033   2.733  0.0772  0.0236  0.1382
    1DIPC   PO420498   0.881  28.220   3.161  0.2650  0.1269  0.0677
    1DIPC   GL120499   1.057  28.180   3.661  0.0316 -0.2899 -0.3755
    1DIPC   GL220500   0.924  27.983   3.962  0.0885  0.2190 -0.0235
    1DIPC   C1A20501   1.233  28.387   4.071 -0.1808  0.0408  0.1458
    1DIPC   D2A20502   1.444  28.397   4.413  0.1014 -0.2401 -0.2872
    1DIPC   D3A20503   1.346  28.254   4.706  0.0860  0.1186  0.3367
    1DIPC   C4A20504   1.461  27.767   4.617 -0.0041  0.3888  0.3061
    1DIPC   C1B20505   1.012  27.896   4.304 -0.1667  0.1300  0.0515
    1DIPC   D2B20506   0.836  27.864   4.733  0.0586  0.2724 -0.0383
    1DIPC   D3B20507   0.956  27.395   4.682 -0.0736 -0.1286 -0.0181
    1DIPC   C4B20508   0.841  27.333   4.169 -0.0163  0.0772  0.3248
    1DIPC   NC320509   2.217  14.295   2.873 -0.2191 -0.0268 -0.0135
    1DIPC   PO420510   2.626  14.158   2.693  0.1330 -0.0039  0.0689
    1DIPC   GL120511   2.716  14.196   3.100 -0.6626 -0.1810 -0.1739
    1DIPC   GL220512   2.513  14.229   3.328 -0.3226  0.0095  0.1598
    1DIPC   C1A20513   2.856  13.831   3.367 -0.3553 -0.2286 -0.0750
    1DIPC   D2A20514   2.565  13.559   3.632 -0.1782 -0.1663  0.2390
    1DIPC   D3A20515   2.753  13.325   3.921  0.2278  0.1058  0.1435
    1DIPC   C4A20516   2.614  13.103   4.239 -0.1901 -0.0370  0.0626
    1DIPC   C1B20517   2.146  14.216   3.562  0.0944  0.1725  0.0555
    1DIPC   D2B20518   1.923  14.126   3.970 -0.2208  0.3850 -0.0364
    1DIPC   D3B20519   2.049  14.526   3.962  0.2876 -0.0321  0.1367
    1DIPC   C4B20520   2.457  14.513   4.047  0.0421 -0.0101 -0.2245
    1DIPC   NC320521   5.703  22.988   2.244 -0.0784 -0.3320 -0.2260
    1DIPC   PO420522   6.041  22.689   2.166 -0.0751  0.0133 -0.0088
    1DIPC   GL120523   5.987  22.907   2.638 -0.2896 -0.0539 -0.1781
    1DIPC   GL220524   5.895  22.722   2.840  0.0648  0.0265 -0.1617
    1DIPC   C1A20525   5.792  23.276   2.873 -0.3209 -0.0035  0.1256
    1DIPC   D2A20526   5.697  23.370   3.327 -0.3640  0.2224  0.1189
    1DIPC   D3A20527   6.120  23.568   3.341  0.1323  0.0649  0.2839
    1DIPC   C4A20528   6.267  23.693   2.970  0.0660  0.0495  0.0678
    1DIPC   C1B20529   5.697  22.879   3.225 -0.1887  0.0958 -0.1687
    1DIPC   D2B20530   5.323  23.107   3.226 -0.1508 -0.2683 -0.2967
    1DIPC   D3B20531   4.981  22.854   3.320 -0.0716  0.2875 -0.1968
    1DIPC   C4B20532   4.865  22.449   3.112  0.4710  0.1872 -0.3621
    1DIPC   NC320533  19.277  21.974   3.420 -0.1703 -0.0744  0.0648
    1DIPC   PO420534  19.024  22.277   3.486  0.0451  0.3683 -0.1021
    1DIPC   GL120535  19.227  22.142   3.872 -0.0078 -0.0689 -0.1515
    1DIPC   GL220536  19.085  22.074   4.072  0.3013 -0.0629 -0.3276
    1DIPC   C1A20537  19.572  22.091   4.195 -0.0269 -0.0322 -0.1140
    1DIPC   D2A20538  19.747  21.896   4.503  0.0830 -0.1247  0.1898
    1DIPC   D3A20539  19.817  21.376   4.523 -0.0110 -0.1610 -0.0565
    1DIPC   C4A20540  19.574  21.189   4.235  0.4625 -0.2349  0.1401
    1DIPC   C1B20541  19.219  22.385   4.378 -0.0468 -0.1582  0.0952
    1DIPC   D2B20542  19.646  22.351   4.631 -0.0088 -0.0596 -0.1080
    1DIPC   D3B20543  19.666  22.044   5.001  0.1038 -0.0247 -0.0471
    1DIPC   C4B20544  19.704  21.633   4.927 -0.2236  0.0025  0.1011
    1DIPC   NC320545  22.056  25.092   3.349 -0.1143 -0.2453  0.2025
    1DIPC   PO420546  21.746  25.463   3.324 -0.0146  0.2834  0.2632
    1DIPC   GL120547  21.782  25.522   3.775 -0.3055  0.0157  0.1773
    1DIPC   GL220548  21.966  25.357   3.852 -0.3047  0.0157  0.0231
    1DIPC   C1A20549  21.778  25.830   4.179  0.0890 -0.0003 -0.1598
    1DIPC   D2A20550  22.016  25.989   4.553  0.2979 -0.1563  0.0951
    1DIPC   D3A20551  21.980  26.361   4.676  0.0503 -0.0087 -0.0768
    1DIPC   C4A20552  21.562  26.578   4.873  0.0085  0.3664 -0.0986
    1DIPC   C1B20553  22.116  25.068   4.075 -0.1615 -0.0029 -0.1289
    1DIPC   D2B20554  22.375  24.849   4.407  0.0182  0.4257  0.0054
    1DIPC   D3B20555  22.570  25.052   4.780 -0.3002  0.0278  0.5447
    1DIPC   C4B20556  22.947  25.232   4.712 -0.0792 -0.2052 -0.1877
    1DIPC   NC320557   6.707  25.722   2.726  0.3368 -0.0630  0.1062
    1DIPC   PO420558   6.573  25.251   2.636  0.1058 -0.1355  0.2056
    1DIPC   GL120559   6.508  25.326   3.141  0.0289  0.0180 -0.2055
    1DIPC   GL220560   6.312  25.611   3.334 -0.2446  0.0406  0.1150
    1DIPC   C1A20561   6.532  25.037   3.403  0.0607 -0.0045 -0.0885
    1DIPC   D2A20562   6.568  24.716   3.751 -0.0359 -0.1381  0.3090
    1DIPC   D3A20563   6.900  24.950   3.754  0.3868  0.0703 -0.2136
    1DIPC   C4A20564   6.960  24.957   4.135 -0.0478 -0.3346  0.0352
    1DIPC   C1B20565   6.494  25.573   3.736 -0.3720  0.0647 -0.1483
    1DIPC   D2B20566   6.761  25.430   3.991 -0.0004 -0.2760 -0.2482
    1DIPC   D3B20567   6.480  25.529   4.308 -0.0676  0.0521  0.0516
    1DIPC   C4B20568   6.500  25.499   4.736  0.0381  0.1155  0.2682
    1DIPC   NC320569  22.273   8.871   2.427 -0.0048  0.0546  0.0029
    1DIPC   PO420570  22.323   8.655   2.916  0.1564  0.1769 -0.1245
    1DIPC   GL120571  22.358   8.522   3.405 -0.0927  0.0529  0.4138
    1DIPC   GL220572  22.234   8.158   3.501  0.1587 -0.0045 -0.2131
    1DIPC   C1A20573  22.296   8.793   3.887  0.0405  0.2269 -0.1291
    1DIPC   D2A20574  22.184   8.704   4.287  0.0268 -0.3202  0.0379
    1DIPC   D3A20575  22.281   9.081   4.301  0.1042  0.1081 -0.1199
    1DIPC   C4A20576  22.001   9.392   4.237 -0.0514 -0.0990  0.1789
    1DIPC   C1B20577  22.604   8.153   3.689  0.0541 -0.1554 -0.2464
    1DIPC   D2B20578  22.604   7.901   4.105  0.2301  0.2032 -0.0315
    1DIPC   D3B20579  22.655   7.482   4.119 -0.1744 -0.1966  0.0724
    1DIPC   C4B20580  22.932   7.172   4.224 -0.2688  0.2438 -0.2424
    1DIPC   NC320581   8.232   1.685   2.975  0.0430  0.3982 -0.1780
    1DIPC   PO420582   8.235   1.855   3.427  0.1677 -0.1559 -0.2658
    1DIPC   GL120583   8.043   1.808   3.874 -0.0968 -0.1355  0.1300
    1DIPC   GL220584   7.722   1.919   4.122 -0.0998 -0.1704 -0.0342
    1DIPC   C1A20585   8.083   1.667   4.268 -0.1622 -0.0689 -0.1728
    1DIPC   D2A20586   8.438   1.750   4.535  0.1004 -0.1009  0.0275
    1DIPC   D3A20587   8.849   1.817   4.418  0.0151 -0.1546  0.2030
    1DIPC   C4A20588   8.922   2.138   4.249  0.2951  0.0422  0.3201
    1DIPC   C1B20589   7.680   2.071   4.514 -0.0636  0.2753  0.2955
    1DIPC   D2B20590   7.841   2.388   4.837 -0.1562  0.3575 -0.0460
    1DIPC   D3B20591   8.091   2.377   4.460 -0.0911  0.1085 -0.1656
    1DIPC   C4B20592   8.236   2.146   4.145  0.0719  0.1274 -0.2898
    1DIPC   NC320593   6.174   1.829   3.089  0.2786 -0.2446  0.2403
    1DIPC   PO420594   6.389   1.578   3.309  0.0012 -0.1311  0.3796
    1DIPC   GL120595   6.311   1.430   3.708 -0.0082 -0.2620  0.0479
    1DIPC   GL220596   6.588   1.565   3.974 -0.2278 -0.1487  0.3576
    1DIPC   C1A20597   6.160   1.372   4.162 -0.0945 -0.1163  0.1243
    1DIPC   D2A20598   6.233   1.631   4.459  0.0127  0.0799  0.3201
    1DIPC   D3A20599   6.047   1.368   4.710  0.1610 -0.0242  0.1568
    1DIPC   C4A20600   6.085   1.391   5.146 -0.1974  0.1931  0.0630
    1DIPC   C1B20601   6.717   1.585   4.367  0.0633 -0.1342  0.4937
    1DIPC   D2B20602   6.639   1.539   4.775 -0.0472  0.1358 -0.1095
    1DIPC   D3B20603   7.114   1.393   5.011 -0.0841  0.2293  0.2061
    1DIPC   C4B20604   7.457   1.348   5.263 -0.0455 -0.0534 -0.2376
    1DIPC   NC320605  28.659  10.102   2.370 -0.0358 -0.1081 -0.1328
    1DIPC   PO420606  28.807   9.751   2.301 -0.1192  0.2581  0.0578
    1DIPC   GL120607  28.758   9.707   2.699  0.1685 -0.2096  0.2221
    1DIPC   GL220608  29.119   9.624   2.784  0.1544 -0.1196  0.0938
    1DIPC   C1A20609  28.802   9.862   3.130  0.1763  0.2296 -0.2567
    1DIPC   D2A20610  28.904   9.597   3.365  0.2885 -0.0994  0.1836
    1DIPC   D3A20611  29.262   9.699   3.635  0.3817 -0.2986 -0.0511
    1DIPC   C4A20612  29.243   9.594   4.125  0.0027 -0.2412 -0.1051
    1DIPC   C1B20613  29.447   9.375   2.988 -0.0704 -0.0962 -0.0191
    1DIPC   D2B20614  29.686   9.059   3.247  0.4471  0.2442 -0.0448
    1DIPC   D3B20615  29.577   9.174   3.625  0.2395  0.0478  0.1553
    1DIPC   C4B20616  29.477   8.822   3.761 -0.0039  0.0408  0.1768
    1DIPC   NC320617  19.477   0.533   3.380  0.2405 -0.0068  0.0170
    1DIPC   PO420618  19.065   0.260   3.566 -0.1174 -0.2103 -0.1920
    1DIPC   GL120619  19.182   0.386   3.889 -0.1149  0.1329 -0.0913
    1DIPC   GL220620  19.560   0.639   3.836  0.2210 -0.1104 -0.0786
    1DIPC   C1A20621  19.347   0.604   4.274  0.1308 -0.2682  0.1499
    1DIPC   D2A20622  19.689   0.860   4.395 -0.0939 -0.0900  0.4948
    1DIPC   D3A20623  19.403   0.864   4.794  0.0663  0.0349  0.0654
    1DIPC   C4A20624  19.585   1.024   5.138  0.0409  0.2221 -0.1010
    1DIPC   C1B20625  19.775   0.375   4.112 -0.1581 -0.2319  0.0048
    1DIPC   D2B20626  20.000   0.089   4.248  0.1087  0.1128 -0.2243
    1DIPC   D3B20627  20.150   0.118   3.872  0.2169 -0.0828 -0.1560
    1DIPC   C4B20628  20.304   0.508   3.821  0.1548  0.0486 -0.2171
    1DIPC   NC320629   2.471  20.617   2.371 -0.1522 -0.0458  0.0008
    1DIPC   PO420630   2.255  20.894   2.551 -0.0421  0.2936  0.4122
    1DIPC   GL120631   2.612  20.867   2.891  0.1464 -0.1752  0.0919
    1DIPC   GL220632   2.821  20.634   2.955 -0.3057 -0.2301  0.1250
    1DIPC   C1A20633   2.755  21.085   3.226  0.0753  0.1414 -0.2696
    1DIPC   D2A20634   2.597  21.290   3.541 -0.1581  0.1265  0.0814
    1DIPC   D3A20635   2.765  20.985   3.712  0.2588 -0.0652 -0.2008
    1DIPC   C4A20636   3.215  20.843   3.732  0.2602 -0.2370 -0.0517
    1DIPC   C1B20637   2.721  20.556   3.446 -0.0792 -0.0065 -0.2159
    1DIPC   D2B20638   2.517  20.506   3.783 -0.1162 -0.1750  0.0987
    1DIPC   D3B20639   2.405  20.930   4.021 -0.1792 -0.1368  0.1653
    1DIPC   C4B20640   2.289  21.276   3.897  0.2692  0.2145  0.3312
    1DIPC   NC320641   2.109   5.187   3.316  0.0819 -0.2348 -0.1339
    1DIPC   PO420642   1.693   4.959   3.108 -0.0261 -0.2122 -0.1030
    1DIPC   GL120643   1.539   5.215   3.362  0.2231 -0.3390  0.1547
    1DIPC   GL220644   1.331   5.056   3.550 -0.4781 -0.0304  0.1734
    1DIPC   C1A20645   1.673   5.448   3.751 -0.1695 -0.0167  0.1393
    1DIPC   D2A20646   1.605   5.663   4.053 -0.0057 -0.0260 -0.0066
    1DIPC   D3A20647   1.434   5.846   4.413 -0.1097  0.2670 -0.2644
    1DIPC   C4A20648   1.653   6.140   4.720  0.1386  0.2827  0.2427
    1DIPC   C1B20649   1.048   4.817   3.574  0.0462 -0.0305  0.1604
    1DIPC   D2B20650   0.665   4.704   3.520  0.0491 -0.0473  0.1815
    1DIPC   D3B20651   0.606   5.097   3.673  0.4288 -0.0281 -0.2086
    1DIPC   C4B20652   0.728   5.434   3.976 -0.3016  0.2335  0.1767
    1DIPC   NC320653  16.702   8.601   2.890  0.1038  0.0007  0.0883
    1DIPC   PO420654  16.943   8.430   3.171 -0.1629 -0.1228  0.2752
    1DIPC   GL120655  17.076   8.820   3.279 -0.4833 -0.4490  0.0048
    1DIPC   GL220656  16.791   9.004   3.285  0.1259  0.2431 -0.1135
    1DIPC   C1A20657  17.342   9.003   3.470  0.2608 -0.1011  0.3730
    1DIPC   D2A20658  17.597   9.016   3.786 -0.2728 -0.2548 -0.0187
    1DIPC   D3A20659  17.429   9.180   4.102 -0.0477 -0.1399 -0.1542
    1DIPC   C4A20660  17.386   9.092   4.587  0.2430  0.1893 -0.3259
    1DIPC   C1B20661  16.885   8.964   3.779 -0.2400 -0.0207  0.1753
    1DIPC   D2B20662  17.006   8.886   4.148 -0.0227 -0.4226 -0.0781
    1DIPC   D3B20663  16.779   8.671   4.303  0.0656 -0.0476  0.0267
    1DIPC   C4B20664  16.424   8.777   4.587  0.1433  0.2403  0.1135
    1DIPC   NC320665  26.094  24.700   3.034  0.3130  0.2395 -0.3557
    1DIPC   PO420666  25.957  25.096   3.156  0.2013  0.0446 -0.3022
    1DIPC   GL120667  26.013  24.962   3.547 -0.1227  0.0074  0.0302
    1DIPC   GL220668  26.297  24.871   3.569  0.1326 -0.2098 -0.1646
    1DIPC   C1A20669  25.685  25.107   3.820  0.2291 -0.0226  0.0113
    1DIPC   D2A20670  25.364  25.074   4.026 -0.1321  0.1000  0.1096
    1DIPC   D3A20671  25.542  25.412   4.189  0.1682  0.1737 -0.0695
    1DIPC   C4A20672  25.933  25.416   4.522 -0.1276 -0.0497 -0.0793
    1DIPC   C1B20673  26.631  25.111   3.733  0.1238 -0.0493 -0.1860
    1DIPC   D2B20674  27.025  25.135   3.903 -0.0496 -0.0385  0.1018
    1DIPC   D3B20675  26.710  25.316   4.274 -0.1856 -0.2310 -0.0951
    1DIPC   C4B20676  26.453  25.169   4.591 -0.0528  0.0503 -0.0100
    1DIPC   NC320677  12.579   7.186   2.776 -0.1509  0.2052 -0.0331
    1DIPC   PO420678  12.127   7.200   3.028 -0.2559  0.0714  0.2097
    1DIPC   GL120679  12.052   7.322   3.411 -0.0851 -0.0020 -0.2145
    1DIPC   GL220680  11.904   7.403   3.615  0.1389  0.0441  0.0625
    1DIPC   C1A20681  12.264   7.131   3.743  0.0527 -0.0405  0.1394
    1DIPC   D2A20682  12.336   6.955   4.048  0.0974 -0.1245 -0.0514
    1DIPC   D3A20683  11.962   6.644   4.042 -0.1866 -0.2272 -0.0378
    1DIPC   C4A20684  11.605   6.835   3.895  0.2477  0.0077  0.0337
    1DIPC   C1B20685  11.943   7.249   4.068 -0.0054 -0.1024 -0.1724
    1DIPC   D2B20686  12.022   7.088   4.400 -0.0600 -0.1359 -0.2399
    1DIPC   D3B20687  12.158   6.867   4.724  0.0352  0.1218 -0.2583
    1DIPC   C4B20688  12.101   7.024   5.154 -0.3019  0.1725 -0.0625
    1DIPC   NC320689  27.773   8.267   2.567 -0.1607 -0.0874 -0.0619
    1DIPC   PO420690  27.710   7.804   2.690  0.3188 -0.2288 -0.2029
    1DIPC   GL120691  27.599   8.037   3.009  0.0571 -0.0050  0.0683
    1DIPC   GL220692  27.942   8.204   3.089  0.2147 -0.1133 -0.1700
    1DIPC   C1A20693  27.229   8.278   3.064 -0.0085 -0.0244  0.0796
    1DIPC   D2A20694  27.149   8.715   3.041  0.1197  0.0422 -0.2151
    1DIPC   D3A20695  26.614   8.589   3.129 -0.1797  0.1571  0.4142
    1DIPC   C4A20696  26.445   8.305   3.409 -0.0130  0.1078 -0.0822
    1DIPC   C1B20697  27.697   8.362   3.389 -0.4340 -0.2066 -0.2353
    1DIPC   D2B20698  27.369   8.046   3.536 -0.2373  0.0285  0.0212
    1DIPC   D3B20699  27.185   8.054   3.953  0.2079  0.0575  0.2951
    1DIPC   C4B20700  27.426   7.951   4.274  0.1798 -0.1010  0.0260
    1DIPC   NC320701   1.760  16.150   2.487  0.2726 -0.1337 -0.0424
    1DIPC   PO420702   1.787  15.875   2.883  0.0103  0.0558  0.0906
    1DIPC   GL120703   2.117  15.816   3.129  0.2275  0.1682 -0.2914
    1DIPC   GL220704   2.003  16.007   3.456  0.0813  0.0077  0.1670
    1DIPC   C1A20705   2.328  15.665   3.476  0.0124  0.0536 -0.3583
    1DIPC   D2A20706   2.454  15.543   3.943 -0.0028  0.0263  0.0504
    1DIPC   D3A20707   2.054  15.404   3.991  0.2318  0.0223  0.1080
    1DIPC   C4A20708   1.805  15.510   4.346 -0.0254 -0.2860 -0.2679
    1DIPC   C1B20709   2.004  16.185   3.878  0.2038 -0.0272  0.0357
    1DIPC   D2B20710   2.289  16.471   4.191 -0.0146  0.0680  0.3366
    1DIPC   D3B20711   2.131  16.353   4.488  0.3972 -0.0881 -0.0234
    1DIPC   C4B20712   1.767  16.334   4.398 -0.0841 -0.0231 -0.1285
    1DIPC   NC320713  27.674   1.785   2.809  0.2175  0.3221 -0.0457
    1DIPC   PO420714  28.063   1.761   2.957 -0.1150  0.1446 -0.2169
    1DIPC   GL120715  27.938   1.914   3.423 -0.1488  0.1439 -0.0277
    1DIPC   GL220716  28.050   1.712   3.630  0.0126  0.0901  0.1939
    1DIPC   C1A20717  27.835   2.280   3.692 -0.0545  0.1835  0.0553
    1DIPC   D2A20718  27.530   2.496   3.956 -0.2586 -0.3105 -0.0945
    1DIPC   D3A20719  27.200   2.086   3.901 -0.0592  0.0784  0.0006
    1DIPC   C4A20720  26.984   1.941   4.177 -0.0053  0.2057 -0.0659
    1DIPC   C1B20721  28.544   1.759   3.485 -0.0981  0.0764 -0.1023
    1DIPC   D2B20722  28.828   2.068   3.417 -0.0498  0.2324 -0.2426
    1DIPC   D3B20723  29.129   2.263   3.647 -0.1229 -0.0144 -0.1413
    1DIPC   C4B20724  29.605   2.205   3.741 -0.2036 -0.4402  0.1086
    1DIPC   NC320725  13.712  27.700   3.648  0.1240 -0.1123  0.0094
    1DIPC   PO420726  13.835  28.124   3.481 -0.0220  0.0102 -0.1059
    1DIPC   GL120727  14.030  28.083   3.871 -0.0911 -0.0082  0.3366
    1DIPC   GL220728  14.363  28.045   3.918 -0.0111 -0.0916  0.1091
    1DIPC   C1A20729  13.971  28.052   4.315 -0.0563 -0.1475  0.2683
    1DIPC   D2A20730  13.978  28.309   4.673 -0.0141 -0.0675 -0.2985
    1DIPC   D3A20731  14.070  28.146   4.981 -0.0322 -0.3346  0.1587
    1DIPC   C4A20732  14.163  28.166   5.280  0.1716  0.0475 -0.0163
    1DIPC   C1B20733  14.392  27.746   4.209 -0.0564  0.1814 -0.0853
    1DIPC   D2B20734  14.368  27.442   4.582  0.2227 -0.3194 -0.1449
    1DIPC   D3B20735  14.049  27.668   4.584  0.1124  0.2012  0.0302
    1DIPC   C4B20736  13.670  27.487   4.599  0.2060  0.3030  0.3448
    1DIPC   NC320737  20.965  28.090   3.048 -0.0457 -0.0317  0.2743
    1DIPC   PO420738  21.193  27.817   3.331  0.0931 -0.6422 -0.5394
    1DIPC   GL120739  21.470  28.065   3.546  0.2145  0.2078  0.3931
    1DIPC   GL220740  21.776  27.843   3.449  0.2980  0.1053 -0.0461
    1DIPC   C1A20741  21.455  28.293   3.932  0.2118 -0.2615  0.1066
    1DIPC   D2A20742  21.880  28.330   4.098 -0.0374  0.0146 -0.0010
    1DIPC   D3A20743  21.804  28.799   4.079  0.0258 -0.0476 -0.1236
    1DIPC   C4A20744  21.549  29.132   4.249  0.0806  0.0922 -0.0984
    1DIPC   C1B20745  21.858  27.848   3.934 -0.0888 -0.1519 -0.1563
    1DIPC   D2B20746  21.675  27.734   4.245 -0.0129  0.0174 -0.1644
    1DIPC   D3B20747  21.492  28.092   4.389  0.3535 -0.0636  0.0594
    1DIPC   C4B20748  21.241  28.103   4.673 -0.0985 -0.1623  0.3141
    1DIPC   NC320749   7.412   5.906   3.033  0.1776  0.1637  0.3378
    1DIPC   PO420750   7.378   5.635   3.370  0.1032 -0.0126 -0.0511
    1DIPC   GL120751   7.331   5.796   3.805  0.1597 -0.2643 -0.1045
    1DIPC   GL220752   7.640   5.939   3.792 -0.4708  0.1644 -0.1480
    1DIPC   C1A20753   7.249   5.754   4.212 -0.0730  0.2015  0.0258
    1DIPC   D2A20754   7.116   5.888   4.579  0.0429 -0.1926 -0.2751
    1DIPC   D3A20755   7.241   6.129   4.816  0.1520 -0.0990  0.0503
    1DIPC   C4A20756   7.403   5.914   5.178  0.0956  0.1536  0.3436
    1DIPC   C1B20757   7.964   5.941   4.138  0.2485  0.0714  0.1368
    1DIPC   D2B20758   8.108   6.243   4.465  0.1547 -0.2214  0.0108
    1DIPC   D3B20759   7.752   6.302   4.835  0.0411 -0.0890 -0.0739
    1DIPC   C4B20760   7.517   6.587   4.698  0.1027  0.1723  0.0983
    1DIPC   NC320761  21.861   9.368   3.081 -0.3943 -0.2972 -0.0937
    1DIPC   PO420762  22.112   9.407   3.483  0.1146  0.0265  0.0914
    1DIPC   GL120763  22.158   9.267   3.811  0.0444 -0.0458  0.3134
    1DIPC   GL220764  21.884   9.010   3.862 -0.2298 -0.0534  0.1623
    1DIPC   C1A20765  22.621   9.180   3.767 -0.1656 -0.1166  0.2392
    1DIPC   D2A20766  22.860   8.852   4.017 -0.1444  0.2012 -0.2704
    1DIPC   D3A20767  22.714   8.838   4.508  0.1583 -0.1256  0.1299
    1DIPC   C4A20768  22.411   8.643   4.777 -0.3507  0.1777  0.2655
    1DIPC   C1B20769  21.539   9.256   4.067 -0.2739  0.0645  0.1328
    1DIPC   D2B20770  21.562   9.595   4.396 -0.3482 -0.0242  0.1959
    1DIPC   D3B20771  21.268   9.675   4.685  0.0093 -0.3513 -0.2169
    1DIPC   C4B20772  21.278   9.630   5.163 -0.0379 -0.1841  0.0620
    1DIPC   NC320773   7.049  26.714   2.941 -0.3330  0.2004 -0.1349
    1DIPC   PO420774   7.285  26.400   2.925 -0.6067 -0.0057 -0.0114
    1DIPC   GL120775   7.491  26.412   3.390 -0.0984 -0.2385 -0.0877
    1DIPC   GL220776   7.801  26.496   3.473 -0.1357 -0.0648  0.2055
    1DIPC   C1A20777   7.416  26.314   3.849 -0.2195  0.1504  0.0198
    1DIPC   D2A20778   7.525  26.171   4.295 -0.1021 -0.1027  0.0238
    1DIPC   D3A20779   7.871  26.082   4.651 -0.1791 -0.1067  0.2564
    1DIPC   C4A20780   7.879  25.955   5.134  0.0074 -0.3810 -0.2113
    1DIPC   C1B20781   7.924  26.081   3.694  0.0649 -0.1926 -0.3597
    1DIPC   D2B20782   8.299  25.784   3.672  0.0455  0.1947  0.0760
    1DIPC   D3B20783   8.500  25.814   4.135  0.1016  0.0003  0.0560
    1DIPC   C4B20784   8.878  25.830   4.040 -0.1763 -0.0280 -0.1519
    1DIPC   NC320785  13.086   0.484   3.678  0.0115 -0.0407 -0.0438
    1DIPC   PO420786  12.755   0.738   3.852 -0.0311  0.2888 -0.0320
    1DIPC   GL120787  12.749   0.849   4.241  0.0885  0.5534  0.0236
    1DIPC   GL220788  13.060   0.788   4.432 -0.1045 -0.4480  0.2678
    1DIPC   C1A20789  12.651   0.399   4.534  0.1451 -0.1484  0.0383
    1DIPC   D2A20790  12.583   0.263   4.919 -0.1479 -0.1028  0.3638
    1DIPC   D3A20791  12.560   0.235   5.380  0.2787  0.0141 -0.2450
    1DIPC   C4A20792  12.474  -0.114   5.495  0.0045  0.1806  0.3573
    1DIPC   C1B20793  13.176   1.112   4.731  0.1855  0.1498 -0.2680
    1DIPC   D2B20794  12.916   1.286   5.100 -0.3253  0.1158 -0.0234
    1DIPC   D3B20795  12.592   1.242   5.375 -0.1900 -0.3866  0.2641
    1DIPC   C4B20796  12.556   1.203   5.821  0.1034 -0.0838 -0.1829
    1DIPC   NC320797   6.867   1.617   3.522 -0.0972 -0.0335 -0.2854
    1DIPC   PO420798   6.918   2.116   3.568 -0.0173 -0.0613 -0.0896
    1DIPC   GL120799   6.626   2.116   3.841 -0.1866  0.2908 -0.2044
    1DIPC   GL220800   6.748   2.076   4.194  0.0926 -0.0027  0.1121
    1DIPC   C1A20801   6.196   1.872   4.035  0.1145  0.2403 -0.1222
    1DIPC   D2A20802   5.804   1.976   4.209 -0.0612  0.2375  0.0725
    1DIPC   D3A20803   5.781   2.264   4.474  0.1117 -0.0213  0.1257
    1DIPC   C4A20804   5.634   2.628   4.398 -0.1133 -0.1905  0.3724
    1DIPC   C1B20805   6.735   2.039   4.650 -0.0990  0.2007  0.0873
    1DIPC   D2B20806   6.948   1.952   5.010  0.1781  0.0846 -0.0586
    1DIPC   D3B20807   6.474   1.941   5.073  0.3680 -0.0158 -0.0492
    1DIPC   C4B20808   6.178   1.953   5.331 -0.0927 -0.0559  0.1525
    1DIPC   NC320809   2.469   8.919   2.743 -0.3616 -0.1682  0.1736
    1DIPC   PO420810   2.418   8.514   2.916  0.0156  0.0997 -0.0331
    1DIPC   GL120811   2.559   8.855   3.236  0.2162  0.0976 -0.2097
    1DIPC   GL220812   2.449   9.269   3.151 -0.0928 -0.3208  0.0995
    1DIPC   C1A20813   2.229   8.849   3.576  0.0956  0.2930  0.2380
    1DIPC   D2A20814   2.103   9.188   3.976  0.0054 -0.1079  0.1908
    1DIPC   D3A20815   2.405   9.242   4.373  0.1236 -0.0841  0.2509
    1DIPC   C4A20816   2.461   8.918   4.433 -0.1306  0.2465 -0.0404
    1DIPC   C1B20817   2.572   9.492   3.542  0.6016 -0.0136 -0.2254
    1DIPC   D2B20818   2.494   9.862   3.745  0.1237 -0.1376 -0.0722
    1DIPC   D3B20819   2.959   9.781   3.679 -0.1448 -0.1129  0.1537
    1DIPC   C4B20820   3.124  10.165   3.703  0.0933 -0.1932  0.1686
    1DIPC   NC320821  11.636  22.562   3.162  0.3174 -0.2850  0.0969
    1DIPC   PO420822  11.665  23.047   3.250  0.2531 -0.0437 -0.0064
    1DIPC   GL120823  11.605  22.779   3.677  0.2423  0.0205 -0.1748
    1DIPC   GL220824  11.481  22.985   3.801 -0.1626  0.1069  0.1594
    1DIPC   C1A20825  11.553  22.479   3.844  0.0107  0.1310  0.0351
    1DIPC   D2A20826  11.111  22.206   3.824 -0.2117 -0.1331 -0.0768
    1DIPC   D3A20827  11.175  21.851   3.546  0.3749  0.5047  0.3347
    1DIPC   C4A20828  10.955  21.501   3.727  0.1677 -0.4231 -0.1380
    1DIPC   C1B20829  11.419  23.287   4.105 -0.3107 -0.1409 -0.1358
    1DIPC   D2B20830  11.395  23.506   4.383  0.2244  0.1550  0.1027
    1DIPC   D3B20831  11.703  23.746   4.618  0.0060 -0.0263 -0.1110
    1DIPC   C4B20832  11.870  23.822   4.943 -0.1649 -0.0336  0.3496
    1DIPC   NC320833  23.206  21.221   3.362 -0.0237 -0.0747  0.1447
    1DIPC   PO420834  23.325  20.950   3.525  0.1178  0.0996  0.2617
    1DIPC   GL120835  23.191  20.686   3.865 -0.2366  0.1001  0.1753
    1DIPC   GL220836  23.476  20.392   3.885 -0.0945  0.4230 -0.0678
    1DIPC   C1A20837  23.082  20.634   4.272  0.1606 -0.1197  0.4047
    1DIPC   D2A20838  22.773  20.583   4.458 -0.2359 -0.0283 -0.2438
    1DIPC   D3A20839  22.363  20.494   4.251 -0.0510 -0.0949 -0.0652
    1DIPC   C4A20840  21.991  20.356   3.939 -0.0917  0.1907  0.3209
    1DIPC   C1B20841  23.663  20.564   4.272 -0.1793 -0.0913  0.2650
    1DIPC   D2B20842  23.908  20.914   4.341  0.0202  0.0290  0.0176
    1DIPC   D3B20843  24.069  20.597   4.593 -0.0232  0.0365  0.1682
    1DIPC   C4B20844  23.858  20.249   4.738  0.1130  0.1664 -0.2808
    1DIPC   NC320845  27.949   4.679   2.684 -0.0139  0.0713  0.0062
    1DIPC   PO420846  27.767   4.361   2.850 -0.1027 -0.2301 -0.2704
    1DIPC   GL120847  27.833   4.573   3.185  0.0441  0.0231 -0.5900
    1DIPC   GL220848  27.914   4.943   3.157  0.0146  0.0151 -0.1518
    1DIPC   C1A20849  27.867   4.656   3.599  0.2703  0.0131 -0.0856
    1DIPC   D2A20850  28.249   4.939   3.725  0.3075  0.2394 -0.3160
    1DIPC   D3A20851  28.132   5.185   4.132  0.1420 -0.0326 -0.0253
    1DIPC   C4A20852  28.436   5.337   4.364 -0.1214  0.2755 -0.0329
    1DIPC   C1B20853  27.738   5.220   3.563  0.0564 -0.3054 -0.1606
    1DIPC   D2B20854  27.530   5.456   3.852 -0.1767 -0.3460 -0.0125
    1DIPC   D3B20855  27.125   5.204   3.863  0.2290 -0.0035 -0.0995
    1DIPC   C4B20856  26.729   5.258   3.943 -0.1977  0.3594 -0.1977
    1DIPC   NC320857  12.733  27.616   3.951  0.1081  0.4016 -0.0618
    1DIPC   PO420858  12.415  27.384   3.603 -0.2808 -0.0405  0.1743
    1DIPC   GL120859  12.281  27.267   3.997  0.0766 -0.1028 -0.1943
    1DIPC   GL220860  12.514  27.123   4.147 -0.2949  0.1014 -0.2364
    1DIPC   C1A20861  11.844  27.257   4.215  0.1308 -0.2027  0.0124
    1DIPC   D2A20862  11.516  27.137   4.124 -0.2788 -0.0612 -0.0316
    1DIPC   D3A20863  11.235  27.021   4.348 -0.1225 -0.0610  0.1958
    1DIPC   C4A20864  11.429  26.693   4.673  0.0089  0.1636 -0.4997
    1DIPC   C1B20865  12.740  26.837   4.462 -0.0935  0.2649 -0.1173
    1DIPC   D2B20866  12.352  26.703   4.614 -0.0897 -0.2316 -0.2203
    1DIPC   D3B20867  12.467  26.923   4.985  0.0509 -0.5157 -0.2361
    1DIPC   C4B20868  12.285  27.153   5.206  0.1519  0.0235  0.1930
    1DIPC   NC320869  25.179  16.244   2.302 -0.1843  0.1356 -0.0916
    1DIPC   PO420870  25.106  15.852   2.500 -0.2287  0.0731  0.0061
    1DIPC   GL120871  25.268  15.914   2.983 -0.1709 -0.0404 -0.1815
    1DIPC   GL220872  25.508  15.897   3.053  0.1552 -0.0702  0.2570
    1DIPC   C1A20873  25.239  15.809   3.434 -0.0782 -0.0731 -0.0121
    1DIPC   D2A20874  25.190  16.004   3.787  0.0457 -0.1502 -0.0447
    1DIPC   D3A20875  25.148  15.613   4.047 -0.0173 -0.4265  0.2133
    1DIPC   C4A20876  25.115  15.848   4.396  0.2145 -0.1014  0.0430
    1DIPC   C1B20877  25.833  15.969   3.429 -0.0871 -0.4463 -0.1432
    1DIPC   D2B20878  25.842  16.324   3.704  0.0044  0.0995 -0.0222
    1DIPC   D3B20879  25.690  16.076   3.946  0.1002  0.1711 -0.2445
    1DIPC   C4B20880  25.653  15.717   3.887 -0.0718  0.2005 -0.2720
    1DIPC   NC320881   7.401   8.016   3.238 -0.1956  0.1799 -0.0396
    1DIPC   PO420882   7.054   7.869   3.458 -0.1958 -0.2888  0.1490
    1DIPC   GL120883   7.084   7.840   3.915 -0.0662  0.1228 -0.2587
    1DIPC   GL220884   6.817   7.833   4.132  0.0006 -0.0118 -0.1714
    1DIPC   C1A20885   7.218   7.700   4.307  0.0308  0.1437  0.0396
    1DIPC   D2A20886   7.203   7.785   4.817  0.2119  0.2492  0.1165
    1DIPC   D3A20887   7.497   7.828   5.168 -0.0914 -0.1587  0.0004
    1DIPC   C4A20888   7.882   7.707   5.203 -0.3087 -0.0046  0.0495
    1DIPC   C1B20889   6.782   7.756   4.536 -0.1849  0.3130 -0.3077
    1DIPC   D2B20890   6.420   7.706   4.802  0.2123  0.0978 -0.0333
    1DIPC   D3B20891   6.547   7.391   5.036 -0.2613  0.1757  0.1759
    1DIPC   C4B20892   6.660   7.520   5.519  0.0943 -0.0390 -0.4031
    1DIPC   NC320893   0.801   8.804   2.587  0.0325 -0.1594  0.0327
    1DIPC   PO420894   0.790   8.572   2.867  0.1692  0.1911 -0.0803
    1DIPC   GL120895   0.669   8.527   3.300  0.1919  0.0689  0.1262
    1DIPC   GL220896   1.026   8.482   3.455  0.2255 -0.0189 -0.1491
    1DIPC   C1A20897   0.664   8.169   3.464 -0.4432  0.1357 -0.0061
    1DIPC   D2A20898   0.779   8.247   3.862 -0.3832 -0.0110  0.1933
    1DIPC   D3A20899   0.695   8.069   4.189 -0.2505  0.1467 -0.1151
    1DIPC   C4A20900   0.868   8.244   4.446 -0.3314 -0.2195 -0.0341
    1DIPC   C1B20901   1.382   8.497   3.794 -0.0842  0.0654  0.3594
    1DIPC   D2B20902   1.555   8.487   4.243  0.2352 -0.2368  0.1612
    1DIPC   D3B20903   1.372   8.532   4.509 -0.0450  0.0887 -0.0859
    1DIPC   C4B20904   1.559   8.907   4.772 -0.3318 -0.0164  0.1121
    1DIPC   NC320905  17.043  25.958   3.756 -0.3275 -0.3787 -0.3480
    1DIPC   PO420906  16.732  26.227   3.829  0.4014  0.0048 -0.1561
    1DIPC   GL120907  16.739  26.272   4.235  0.1559  0.1082  0.0823
    1DIPC   GL220908  16.873  25.945   4.230 -0.3933 -0.1376 -0.0226
    1DIPC   C1A20909  16.883  26.262   4.712 -0.2990  0.2804  0.0500
    1DIPC   D2A20910  16.745  26.063   5.111 -0.1751  0.3436 -0.1069
    1DIPC   D3A20911  17.086  25.983   5.300 -0.0233  0.1853 -0.0013
    1DIPC   C4A20912  17.279  26.391   5.367 -0.1147  0.0652 -0.1508
    1DIPC   C1B20913  16.755  25.481   4.181 -0.1864 -0.0377 -0.0140
    1DIPC   D2B20914  16.730  25.000   4.353  0.0168 -0.2461  0.1250
    1DIPC   D3B20915  16.785  25.064   4.835 -0.0173  0.1013 -0.1199
    1DIPC   C4B20916  16.705  25.521   4.749 -0.3445  0.2488 -0.0808
    1DIPC   NC320917   6.680  11.319   3.764 -0.0216  0.2071 -0.2494
    1DIPC   PO420918   6.741  10.845   3.680  0.2947 -0.0818  0.0606
    1DIPC   GL120919   6.717  10.696   4.063  0.1250 -0.0510 -0.1778
    1DIPC   GL220920   6.781  10.973   4.173 -0.1488 -0.0528 -0.2191
    1DIPC   C1A20921   6.562  10.480   4.450 -0.2113 -0.1674  0.0596
    1DIPC   D2A20922   6.431  10.435   4.922  0.1021  0.1294  0.0852
    1DIPC   D3A20923   6.110  10.329   4.742 -0.0251 -0.1557  0.2347
    1DIPC   C4A20924   5.933  10.570   4.462 -0.1761  0.0155  0.1911
    1DIPC   C1B20925   6.666  11.392   4.424  0.0381 -0.1173  0.0477
    1DIPC   D2B20926   6.463  11.575   4.872  0.0713  0.0372  0.0989
    1DIPC   D3B20927   6.935  11.651   4.832  0.1931  0.1359  0.0471
    1DIPC   C4B20928   7.168  11.285   4.607  0.0305  0.2733  0.1254
    1DIPC   NC320929  14.422  27.231   3.448  0.4599 -0.1235  0.2131
    1DIPC   PO420930  14.502  27.167   3.837  0.2180  0.2135 -0.1861
    1DIPC   GL120931  14.670  27.152   4.255  0.0755 -0.2304  0.0781
    1DIPC   GL220932  14.838  27.503   4.245 -0.1052 -0.2096 -0.0962
    1DIPC   C1A20933  14.495  26.941   4.563  0.0855  0.3733  0.0905
    1DIPC   D2A20934  14.191  26.621   4.737 -0.1608 -0.0459  0.3454
    1DIPC   D3A20935  14.534  26.424   4.611 -0.0801  0.0896  0.2064
    1DIPC   C4A20936  14.368  26.090   4.383 -0.0601 -0.0527  0.2347
    1DIPC   C1B20937  14.867  27.947   4.540 -0.1312 -0.0676  0.0278
    1DIPC   D2B20938  15.263  28.062   4.650 -0.1194  0.0258  0.1305
    1DIPC   D3B20939  15.683  27.964   4.818  0.0329  0.1088  0.1051
    1DIPC   C4B20940  15.753  27.881   5.276 -0.0113  0.1328  0.1827
    1DIPC   NC320941  14.285  24.080   2.848  0.1287  0.1764 -0.0140
    1DIPC   PO420942  14.011  23.973   3.275 -0.1541  0.0276 -0.0623
    1DIPC   GL120943  14.014  23.925   3.697  0.0589  0.0278 -0.0061
    1DIPC   GL220944  14.217  23.862   3.900  0.2144  0.3320  0.2571
    1DIPC   C1A20945  13.723  23.773   4.049  0.1544 -0.0170  0.5071
    1DIPC   D2A20946  13.835  23.886   4.440  0.1955  0.1788 -0.0514
    1DIPC   D3A20947  13.469  23.824   4.532  0.0160  0.0156  0.0641
    1DIPC   C4A20948  13.403  23.481   4.852 -0.3145  0.1656  0.0548
    1DIPC   C1B20949  14.184  24.210   4.227  0.1207 -0.1589  0.0488
    1DIPC   D2B20950  13.966  24.642   3.994  0.3463 -0.1038  0.1014
    1DIPC   D3B20951  13.805  24.325   3.919  0.0152  0.0573  0.1530
    1DIPC   C4B20952  13.541  24.216   4.216 -0.1432  0.1040 -0.1207
    1DIPC   NC320953  12.978   2.619   4.034  0.2080  0.1310 -0.2471
    1DIPC   PO420954  13.084   2.143   4.230  0.0304  0.1416  0.0083
    1DIPC   GL120955  13.286   1.824   4.448  0.1386  0.0583 -0.0443
    1DIPC   GL220956  13.052   1.502   4.461  0.3367  0.0392 -0.0506
    1DIPC   C1A20957  13.337   1.693   4.877  0.1123 -0.4992 -0.0841
    1DIPC   D2A20958  13.317   2.078   5.187 -0.4292 -0.1909  0.1038
    1DIPC   D3A20959  13.496   2.227   4.853 -0.0358  0.0516 -0.2483
    1DIPC   C4A20960  13.595   2.650   4.958  0.0269 -0.1558 -0.1141
    1DIPC   C1B20961  12.780   1.636   4.752 -0.0886  0.2255 -0.1318
    1DIPC   D2B20962  12.434   1.545   4.863  0.0896  0.2935 -0.2565
    1DIPC   D3B20963  12.409   1.157   4.745 -0.2297 -0.1298 -0.3117
    1DIPC   C4B20964  12.652   0.835   4.793  0.0706  0.2104  0.1773
    1DIPC   NC320965   4.311  16.512   2.806 -0.0064 -0.0673  0.1566
    1DIPC   PO420966   4.333  16.121   2.772  0.0344  0.2546 -0.1365
    1DIPC   GL120967   4.453  16.231   3.181 -0.0150  0.2626 -0.0212
    1DIPC   GL220968   4.540  16.560   3.308  0.0190 -0.2747 -0.0770
    1DIPC   C1A20969   4.773  15.926   3.565 -0.1657 -0.0351 -0.0712
    1DIPC   D2A20970   4.708  15.748   3.932 -0.1190 -0.2262  0.0647
    1DIPC   D3A20971   4.397  15.781   4.109  0.0100  0.0969  0.0969
    1DIPC   C4A20972   4.099  15.453   4.085  0.0820 -0.2848 -0.1382
    1DIPC   C1B20973   4.799  16.756   3.649  0.2687 -0.1805  0.0695
    1DIPC   D2B20974   4.936  16.931   3.930  0.1268  0.2445 -0.1171
    1DIPC   D3B20975   4.847  17.310   4.191  0.1462  0.0484  0.1442
    1DIPC   C4B20976   4.493  17.537   4.046  0.1747 -0.0368  0.0443
    1DIPC   NC320977  27.135   5.424   2.625  0.1789  0.1707 -0.1229
    1DIPC   PO420978  27.507   5.377   2.570  0.0574 -0.0990  0.1447
    1DIPC   GL120979  27.390   5.336   3.048  0.2769 -0.1180  0.1844
    1DIPC   GL220980  27.150   5.105   3.052 -0.1597  0.0620 -0.3566
    1DIPC   C1A20981  27.291   5.478   3.421 -0.1319 -0.0521 -0.0476
    1DIPC   D2A20982  27.458   5.930   3.528 -0.5585  0.3109  0.2481
    1DIPC   D3A20983  27.606   6.137   3.230  0.2501  0.0050  0.1455
    1DIPC   C4A20984  27.536   6.612   3.120  0.0975 -0.1374  0.3188
    1DIPC   C1B20985  26.880   4.983   3.393 -0.0680 -0.1633 -0.2253
    1DIPC   D2B20986  26.510   5.045   3.518  0.1912 -0.1046 -0.1128
    1DIPC   D3B20987  26.360   4.963   3.927 -0.1526  0.3492 -0.1145
    1DIPC   C4B20988  26.024   4.861   4.143  0.2011  0.3433 -0.1205
    1DIPC   NC320989   0.536  28.395   3.507 -0.3017  0.0465  0.1831
    1DIPC   PO420990   0.534  28.013   3.587  0.1317 -0.0072  0.0667
    1DIPC   GL120991   0.369  28.143   3.920  0.0903 -0.0870  0.1165
    1DIPC   GL220992   0.198  28.056   4.153  0.2612  0.2744  0.0803
    1DIPC   C1A20993   0.556  28.315   4.291 -0.4188 -0.2005 -0.0854
    1DIPC   D2A20994   0.897  28.422   4.560 -0.0122  0.0470 -0.2253
    1DIPC   D3A20995   1.093  28.781   4.628  0.2872  0.0332 -0.1749
    1DIPC   C4A20996   0.920  28.934   4.998  0.0752 -0.1815 -0.2344
    1DIPC   C1B20997   0.471  27.774   4.387  0.2378 -0.2214  0.1447
    1DIPC   D2B20998   0.454  27.446   4.697 -0.2223  0.1256  0.3504
    1DIPC   D3B20999   0.184  27.176   4.333  0.1211 -0.2350  0.3322
    1DIPC   C4B21000   0.505  26.670   4.191 -0.1930  0.0073 -0.0111
    1DIPC   NC321001   0.805  23.370   2.628 -0.0604 -0.2243  0.2131
    1DIPC   PO421002   1.010  23.156   2.950 -0.1113 -0.0692  0.2377
    1DIPC   GL121003   0.979  23.258   3.375 -0.2528  0.1709  0.4195
    1DIPC   GL221004   0.846  23.588   3.401  0.0738 -0.1570  0.1300
    1DIPC   C1A21005   1.283  23.263   3.665 -0.1590  0.2982  0.0852
    1DIPC   D2A21006   1.735  23.527   3.787  0.0841  0.0850  0.0742
    1DIPC   D3A21007   2.167  23.623   3.891  0.1135  0.0973 -0.0620
    1DIPC   C4A21008   2.186  23.939   4.166  0.3267 -0.1355 -0.4102
    1DIPC   C1B21009   0.789  23.530   3.787  0.1891  0.0900  0.0865
    1DIPC   D2B21010   0.861  23.308   4.100 -0.2161  0.0089  0.0129
    1DIPC   D3B21011   0.759  23.678   4.336  0.0289 -0.0050  0.0622
    1DIPC   C4B21012   0.653  23.948   4.094 -0.1084 -0.1153 -0.1686
    1DIPC   NC321013   4.397  17.529   2.159  0.0225  0.1629 -0.0245
    1DIPC   PO421014   4.097  17.849   2.246  0.0600 -0.0162  0.1413
    1DIPC   GL121015   4.291  17.988   2.561 -0.0616 -0.1719  0.1880
    1DIPC   GL221016   4.533  18.285   2.605 -0.2203 -0.1630 -0.0233
    1DIPC   C1A21017   4.316  18.022   2.967  0.1542  0.0893 -0.3590
    1DIPC   D2A21018   4.173  17.976   3.395  0.0257  0.0060 -0.0345
    1DIPC   D3A21019   3.933  18.252   3.578 -0.1806 -0.0377  0.0296
    1DIPC   C4A21020   3.496  18.408   3.780 -0.0696  0.1765  0.0770
    1DIPC   C1B21021   5.024  18.289   2.884  0.1553  0.0280  0.0921
    1DIPC   D2B21022   5.319  18.205   3.068  0.0542  0.1341  0.4392
    1DIPC   D3B21023   4.979  18.104   3.363 -0.2143 -0.1929 -0.4421
    1DIPC   C4B21024   4.851  17.857   3.740 -0.1262  0.0437  0.3534
    1DIPC   NC321025   8.604   5.378   3.029 -0.1896 -0.2494  0.1790
    1DIPC   PO421026   8.468   5.731   3.338  0.0072 -0.1620 -0.0275
    1DIPC   GL121027   8.462   5.482   3.747  0.0217 -0.0692 -0.0897
    1DIPC   GL221028   8.764   5.469   4.045 -0.0816 -0.2739  0.0977
    1DIPC   C1A21029   8.321   5.550   4.213  0.0578 -0.1776 -0.0165
    1DIPC   D2A21030   7.982   5.560   4.486  0.0255  0.1105  0.3786
    1DIPC   D3A21031   8.135   5.346   4.995  0.0404  0.0380 -0.2365
    1DIPC   C4A21032   7.902   5.466   5.403  0.1456 -0.1481  0.3065
    1DIPC   C1B21033   8.742   5.364   4.447 -0.2255  0.2173  0.1224
    1DIPC   D2B21034   8.556   5.155   4.819  0.1363 -0.1215  0.2079
    1DIPC   D3B21035   8.779   4.766   4.973 -0.1048  0.0186 -0.2222
    1DIPC   C4B21036   8.612   4.601   5.419  0.0827  0.1536  0.1395
    1DIPC   NC321037   2.391  19.382   1.589 -0.1741 -0.1088 -0.2272
    1DIPC   PO421038   2.356  19.538   2.045 -0.0350  0.3276 -0.3175
    1DIPC   GL121039   2.297  19.488   2.512  0.0288  0.1132  0.0970
    1DIPC   GL221040   2.463  19.585   2.669 -0.0066  0.0081  0.1422
    1DIPC   C1A21041   1.963  19.391   2.922  0.2753 -0.1940  0.0898
    1DIPC   D2A21042   1.570  19.329   3.039  0.2285 -0.0558  0.0424
    1DIPC   D3A21043   1.446  19.303   3.472 -0.0095 -0.0047  0.0983
    1DIPC   C4A21044   1.065  19.312   3.702  0.1471 -0.0144  0.3335
    1DIPC   C1B21045   2.659  19.958   2.822  0.1300  0.3597 -0.1719
    1DIPC   D2B21046   2.484  20.216   3.110  0.2388  0.0372  0.2264
    1DIPC   D3B21047   2.212  20.482   2.836  0.1282 -0.1188 -0.0672
    1DIPC   C4B21048   1.819  20.290   2.724 -0.0438 -0.1108 -0.4417
    1DIPC   NC321049  16.709   1.130   3.865 -0.2095 -0.0387  0.0977
    1DIPC   PO421050  17.082   1.413   3.762  0.2115 -0.0014  0.1928
    1DIPC   GL121051  17.105   1.362   4.169 -0.3269 -0.1374  0.0643
    1DIPC   GL221052  17.105   1.076   4.356  0.0381  0.0511 -0.0445
    1DIPC   C1A21053  17.081   1.607   4.542 -0.3193  0.0200  0.2191
    1DIPC   D2A21054  16.897   1.519   4.962  0.1646  0.2486  0.1523
    1DIPC   D3A21055  16.877   1.863   5.166 -0.1799 -0.2570  0.0426
    1DIPC   C4A21056  16.524   1.884   5.367  0.0242  0.4929  0.1211
    1DIPC   C1B21057  17.495   0.765   4.305 -0.1281 -0.1517  0.0316
    1DIPC   D2B21058  17.655   0.284   4.254 -0.0303 -0.0692 -0.0829
    1DIPC   D3B21059  17.568   0.178   4.670  0.0708  0.1106 -0.2444
    1DIPC   C4B21060  17.566   0.448   4.850  0.0866  0.1743  0.1748
    1DIPC   NC321061  21.221  23.278   3.529 -0.0984 -0.0527  0.2294
    1DIPC   PO421062  20.864  23.618   3.604 -0.0108  0.0799  0.0414
    1DIPC   GL121063  21.079  23.674   3.938 -0.0426 -0.0271  0.1473
    1DIPC   GL221064  21.267  23.957   3.939  0.1331  0.0501 -0.0079
    1DIPC   C1A21065  21.398  23.546   4.312 -0.2504  0.1399  0.0852
    1DIPC   D2A21066  21.688  23.701   4.578 -0.0509  0.0680 -0.1573
    1DIPC   D3A21067  21.498  23.944   4.828 -0.1637  0.1882  0.0399
    1DIPC   C4A21068  21.292  23.912   5.041 -0.2272  0.0153  0.0516
    1DIPC   C1B21069  21.495  24.183   4.161 -0.2940  0.1074 -0.1965
    1DIPC   D2B21070  21.866  24.263   4.241 -0.2274 -0.3343  0.2219
    1DIPC   D3B21071  21.861  24.607   4.163  0.3298  0.1822  0.1936
    1DIPC   C4B21072  21.533  24.753   4.342  0.0166 -0.0423  0.3776
    1DIPC   NC321073   6.101   9.590   3.409 -0.0419 -0.1226  0.1226
    1DIPC   PO421074   5.902  10.003   3.428  0.0129  0.1509 -0.1964
    1DIPC   GL121075   5.966   9.963   3.948 -0.4085  0.2353 -0.3055
    1DIPC   GL221076   6.017   9.619   3.939 -0.0840 -0.0868  0.3821
    1DIPC   C1A21077   6.240   9.933   4.372 -0.1366 -0.0095 -0.0527
    1DIPC   D2A21078   6.561   9.787   4.481  0.0731  0.2459 -0.1693
    1DIPC   D3A21079   6.683   9.950   4.061  0.3427 -0.1284  0.0318
    1DIPC   C4A21080   6.367  10.295   3.989  0.0214 -0.1351  0.0295
    1DIPC   C1B21081   5.978   9.513   4.369  0.3294 -0.0699  0.2893
    1DIPC   D2B21082   5.971   9.371   4.711  0.0145 -0.1534  0.0752
    1DIPC   D3B21083   5.790   9.507   5.161  0.0088  0.0738 -0.0376
    1DIPC   C4B21084   5.595   9.243   5.436  0.1189 -0.0869  0.1264
    1DIPC   NC321085  19.858  27.949   3.258  0.1365  0.2695 -0.4406
    1DIPC   PO421086  20.220  28.109   3.272 -0.1126  0.0387 -0.0610
    1DIPC   GL121087  20.378  28.198   3.702 -0.2748  0.1766  0.2191
    1DIPC   GL221088  20.469  28.505   3.792  0.0349  0.0355 -0.2919
    1DIPC   C1A21089  20.555  28.071   4.100  0.0721  0.1262  0.2702
    1DIPC   D2A21090  20.801  27.858   4.413 -0.1474  0.0706  0.1253
    1DIPC   D3A21091  20.601  28.212   4.530 -0.0902 -0.1802  0.0896
    1DIPC   C4A21092  20.160  28.147   4.658 -0.1918 -0.2958 -0.0395
    1DIPC   C1B21093  20.611  28.581   4.162  0.0439  0.1642  0.0646
    1DIPC   D2B21094  20.465  28.767   4.536  0.0426 -0.0264  0.1878
    1DIPC   D3B21095  20.485  28.587   4.934 -0.1645 -0.2154 -0.1231
    1DIPC   C4B21096  20.445  28.154   5.031 -0.0284 -0.0614 -0.5583
    1DIPC   NC321097  24.757  10.258   2.811 -0.0452 -0.0831  0.0801
    1DIPC   PO421098  24.793   9.715   2.838 -0.3400 -0.0294  0.0635
    1DIPC   GL121099  25.177   9.865   3.034 -0.1792  0.3097  0.2106
    1DIPC   GL221100  25.211  10.119   3.078 -0.0771  0.4015  0.3550
    1DIPC   C1A21101  25.626   9.809   3.103  0.0436 -0.0336  0.3533
    1DIPC   D2A21102  26.034   9.894   3.259 -0.2091 -0.1389 -0.2627
    1DIPC   D3A21103  25.883   9.944   3.695 -0.1346 -0.0979  0.0182
    1DIPC   C4A21104  25.411   9.875   3.755 -0.1414 -0.0552  0.2708
    1DIPC   C1B21105  25.476  10.153   3.384  0.3101 -0.2485 -0.0660
    1DIPC   D2B21106  25.527  10.403   3.788  0.0596  0.0221 -0.0448
    1DIPC   D3B21107  25.809  10.284   4.121  0.1195  0.4854  0.3166
    1DIPC   C4B21108  26.262  10.203   3.981 -0.4350  0.2423  0.2557
    1DIPC   NC321109   1.762  22.407   2.538 -0.0764 -0.3089 -0.6226
    1DIPC   PO421110   1.480  22.120   2.828 -0.0760  0.0118  0.1378
    1DIPC   GL121111   1.336  21.979   3.103 -0.0605  0.1447  0.0352
    1DIPC   GL221112   1.192  22.256   3.283 -0.0701  0.4812  0.2533
    1DIPC   C1A21113   1.379  21.750   3.391  0.1950  0.0323 -0.2721
    1DIPC   D2A21114   1.627  21.621   3.765 -0.0604 -0.2053  0.0548
    1DIPC   D3A21115   2.081  21.737   3.796  0.2682  0.2321  0.0788
    1DIPC   C4A21116   2.253  22.198   3.774 -0.0098 -0.0631  0.3782
    1DIPC   C1B21117   1.251  22.325   3.701 -0.1169 -0.0663  0.1279
    1DIPC   D2B21118   1.189  22.804   3.937  0.0132  0.0488  0.1055
    1DIPC   D3B21119   1.493  22.580   4.228 -0.2615  0.1368 -0.0233
    1DIPC   C4B21120   1.942  22.697   4.097  0.1117  0.0028 -0.1294
    1DIPC   NC321121  10.054   2.860   3.235  0.2358 -0.0169  0.2365
    1DIPC   PO421122  10.053   2.917   3.657  0.2806  0.0578 -0.1646
    1DIPC   GL121123   9.846   2.768   4.047  0.1654  0.2407 -0.1636
    1DIPC   GL221124   9.512   2.761   4.176 -0.2990  0.0014  0.1645
    1DIPC   C1A21125  10.024   2.728   4.428  0.0561  0.1859 -0.4417
    1DIPC   D2A21126  10.128   2.604   4.875  0.1601 -0.0468  0.0362
    1DIPC   D3A21127  10.442   2.876   5.078 -0.2905  0.0131  0.2497
    1DIPC   C4A21128  10.455   3.075   5.392 -0.4178 -0.2882 -0.1170
    1DIPC   C1B21129   9.626   2.914   4.625  0.0140  0.2044 -0.0739
    1DIPC   D2B21130   9.462   3.046   5.070  0.0542  0.1364  0.3975
    1DIPC   D3B21131   9.133   2.757   5.267  0.0717 -0.0802 -0.2110
    1DIPC   C4B21132   8.760   2.751   5.166 -0.1935  0.3335 -0.3182
    1DIPC   NC321133   9.884   2.261   3.946 -0.0630  0.0437  0.1453
    1DIPC   PO421134   9.592   2.048   3.640  0.2522  0.1472 -0.0413
    1DIPC   GL121135   9.376   2.071   4.078 -0.3627  0.0260  0.1003
    1DIPC   GL221136   9.391   1.786   4.274  0.1583 -0.2721  0.1140
    1DIPC   C1A21137   9.498   2.415   4.488 -0.0812 -0.1587 -0.0553
    1DIPC   D2A21138   9.594   2.401   4.876 -0.0580  0.0328 -0.1426
    1DIPC   D3A21139   9.517   2.445   5.287 -0.2947  0.1672 -0.3553
    1DIPC   C4A21140   9.360   2.084   5.381  0.0349  0.4487  0.2819
    1DIPC   C1B21141   9.191   2.040   4.666  0.0515 -0.4279  0.1396
    1DIPC   D2B21142   9.089   2.339   4.975  0.0675  0.0787 -0.5379
    1DIPC   D3B21143   8.900   2.315   5.347  0.1497 -0.0192  0.1435
    1DIPC   C4B21144   8.917   1.952   5.528 -0.1167 -0.1687  0.2368
    1DIPC   NC321145   6.021   5.945   3.775 -0.3582 -0.0269 -0.1376
    1DIPC   PO421146   6.409   6.070   3.734  0.0214  0.0107  0.1452
    1DIPC   GL121147   6.481   5.691   3.985  0.3686  0.2342 -0.0729
    1DIPC   GL221148   6.139   5.591   4.138 -0.2700  0.0840  0.3409
    1DIPC   C1A21149   6.719   5.593   4.462  0.0556 -0.4792  0.1296
    1DIPC   D2A21150   6.857   5.478   4.885  0.1965 -0.2180  0.1621
    1DIPC   D3A21151   7.384   5.542   4.728 -0.1514 -0.3610  0.2328
    1DIPC   C4A21152   7.648   5.312   4.968 -0.1337  0.0696 -0.1941
    1DIPC   C1B21153   6.229   5.698   4.453  0.1209  0.2263  0.0415
    1DIPC   D2B21154   6.343   5.824   4.894  0.1421 -0.0456  0.1256
    1DIPC   D3B21155   6.054   5.842   5.240  0.2318  0.0251  0.0226
    1DIPC   C4B21156   6.205   5.727   5.661  0.3107 -0.1916 -0.1313
    1DIPC   NC321157  19.728   4.838   3.201 -0.2474  0.2863  0.2838
    1DIPC   PO421158  19.871   4.473   3.201 -0.1935  0.1745 -0.2304
    1DIPC   GL121159  19.907   4.266   3.578  0.1118  0.1474  0.1448
    1DIPC   GL221160  20.226   4.373   3.801  0.2303  0.2141  0.0620
    1DIPC   C1A21161  19.669   4.244   3.899 -0.0469  0.0778  0.2465
    1DIPC   D2A21162  19.385   4.541   4.083  0.1985 -0.1378  0.5179
    1DIPC   D3A21163  19.136   4.793   4.266  0.0454 -0.1724 -0.0084
    1DIPC   C4A21164  19.168   4.922   4.748  0.0891  0.1790  0.1188
    1DIPC   C1B21165  19.928   4.588   4.142  0.2570 -0.0587  0.1917
    1DIPC   D2B21166  19.920   4.851   4.434 -0.0771 -0.3444 -0.3205
    1DIPC   D3B21167  20.075   5.182   4.174  0.1116  0.0040 -0.0762
    1DIPC   C4B21168  20.258   4.901   3.832 -0.1881 -0.1885  0.0764
    1DIPC   NC321169  17.068  28.445   3.638  0.1451 -0.0105  0.0990
    1DIPC   PO421170  16.696  28.221   3.799 -0.1296  0.0912  0.1597
    1DIPC   GL121171  16.623  27.984   4.138 -0.1817 -0.0754 -0.0757
    1DIPC   GL221172  16.373  28.139   4.287  0.0658  0.0541 -0.1329
    1DIPC   C1A21173  16.793  27.936   4.466  0.0668 -0.1750 -0.0605
    1DIPC   D2A21174  17.066  27.636   4.596  0.0858  0.0334 -0.1553
    1DIPC   D3A21175  17.371  27.716   4.816 -0.1510  0.1026 -0.0424
    1DIPC   C4A21176  17.618  28.098   4.851  0.1165 -0.1131  0.1693
    1DIPC   C1B21177  16.416  28.026   4.766 -0.0382  0.2019  0.3791
    1DIPC   D2B21178  16.170  28.076   5.090  0.1110 -0.0912 -0.0633
    1DIPC   D3B21179  16.495  28.196   5.393  0.1964 -0.6094 -0.0420
    1DIPC   C4B21180  16.781  28.458   5.200 -0.2374 -0.0844  0.2597
    1DIPC   NC321181   9.661  20.767   2.448 -0.1144  0.4066 -0.0283
    1DIPC   PO421182   9.485  21.086   2.781 -0.2608 -0.0727 -0.2090
    1DIPC   GL121183   9.511  21.083   3.214  0.0122 -0.2760  0.3510
    1DIPC   GL221184   9.395  20.775   3.396  0.0377  0.0295  0.0174
    1DIPC   C1A21185   9.378  21.312   3.549 -0.0989  0.1223  0.0776
    1DIPC   D2A21186   9.188  21.752   3.764  0.0932 -0.4530  0.3947
    1DIPC   D3A21187   9.254  21.733   4.206  0.1380 -0.0370  0.1596
    1DIPC   C4A21188   8.882  21.390   4.355 -0.2318 -0.2198  0.0905
    1DIPC   C1B21189   9.404  20.615   3.821  0.0511  0.1243  0.0838
    1DIPC   D2B21190   9.511  20.822   4.059  0.0632 -0.2978  0.0344
    1DIPC   D3B21191   9.517  20.439   4.237 -0.1739  0.2139 -0.1615
    1DIPC   C4B21192   9.777  20.273   4.455 -0.2879  0.5007 -0.1428
    1DIPC   NC321193  21.209  24.824   3.479 -0.1072 -0.3134  0.0471
    1DIPC   PO421194  21.656  24.791   3.516 -0.0651  0.0370 -0.1723
    1DIPC   GL121195  21.472  25.143   3.860  0.0172 -0.0992  0.0536
    1DIPC   GL221196  21.182  25.036   3.996 -0.0323  0.2227 -0.4054
    1DIPC   C1A21197  21.637  25.263   4.206  0.2083 -0.0064 -0.0578
    1DIPC   D2A21198  21.985  25.458   4.383 -0.0269 -0.0084 -0.1230
    1DIPC   D3A21199  21.925  25.107   4.638  0.1603  0.3352 -0.2129
    1DIPC   C4A21200  22.030  25.123   5.047 -0.0948  0.1531 -0.0632
    1DIPC   C1B21201  20.980  24.827   4.391 -0.0126  0.1599  0.2557
    1DIPC   D2B21202  20.788  24.497   4.787 -0.0696 -0.1754 -0.0716
    1DIPC   D3B21203  21.060  24.937   4.905  0.1125  0.0562 -0.2723
    1DIPC   C4B21204  21.322  25.165   4.608  0.0017 -0.1336  0.2261
    1DIPC   NC321205   3.483  13.146   2.929  0.2692 -0.2021  0.0736
    1DIPC   PO421206   3.256  13.380   2.927  0.1024 -0.0438  0.2275
    1DIPC   GL121207   3.338  13.536   3.289 -0.0805 -0.2410  0.2289
    1DIPC   GL221208   3.666  13.637   3.419  0.1712 -0.0761 -0.2531
    1DIPC   C1A21209   3.197  13.539   3.680 -0.1085 -0.2091  0.1725
    1DIPC   D2A21210   3.011  13.721   4.000 -0.1645  0.2162  0.1701
    1DIPC   D3A21211   2.739  13.759   4.255  0.0353 -0.0079 -0.0902
    1DIPC   C4A21212   2.482  13.915   4.160  0.1637 -0.0754  0.3618
    1DIPC   C1B21213   3.647  13.304   3.662  0.4155  0.0820 -0.1455
    1DIPC   D2B21214   3.467  13.073   3.940  0.2082 -0.0648  0.0623
    1DIPC   D3B21215   3.150  12.749   3.790 -0.2147 -0.0709 -0.1366
    1DIPC   C4B21216   2.724  12.821   3.851 -0.1429 -0.0934 -0.1769
    1DIPC   NC321217   0.136   4.863   2.776  0.1086 -0.1184  0.4783
    1DIPC   PO421218   0.404   4.649   3.068 -0.1332 -0.0786  0.2481
    1DIPC   GL121219   0.097   4.714   3.340  0.1203 -0.2048 -0.1015
    1DIPC   GL221220  -0.283   4.620   3.415  0.2403 -0.0138  0.0150
    1DIPC   C1A21221   0.056   4.937   3.772 -0.0787  0.1409  0.3471
    1DIPC   D2A21222  -0.190   5.305   3.892  0.0473  0.0572 -0.1762
    1DIPC   D3A21223  -0.299   5.741   4.077  0.0144  0.1414 -0.2100
    1DIPC   C4A21224  -0.000   6.043   4.403  0.0608  0.0404  0.4072
    1DIPC   C1B21225  -0.436   4.299   3.718 -0.2974  0.2315  0.1591
    1DIPC   D2B21226  -0.603   4.050   4.019 -0.3391  0.3852 -0.1085
    1DIPC   D3B21227  -0.422   4.353   4.335  0.0837  0.1729 -0.1041
    1DIPC   C4B21228  -0.254   4.731   4.138 -0.0128  0.0860  0.0912
    1DIPC   NC321229   8.759  26.525   3.035 -0.2736 -0.1881  0.2458
    1DIPC   PO421230   8.938  26.930   2.807  0.3056 -0.2129 -0.1466
    1DIPC   GL121231   9.069  26.833   3.235 -0.0137 -0.0964  0.1630
    1DIPC   GL221232   9.326  26.898   3.381 -0.0056 -0.1613 -0.0513
    1DIPC   C1A21233   8.911  26.713   3.658  0.0116 -0.0078 -0.3357
    1DIPC   D2A21234   8.976  26.832   4.053 -0.1108  0.0144 -0.2018
    1DIPC   D3A21235   9.141  26.710   4.446  0.1937 -0.0785  0.3587
    1DIPC   C4A21236   9.112  26.424   4.722 -0.0881  0.4417  0.0825
    1DIPC   C1B21237   9.179  27.185   3.722 -0.0848 -0.3333  0.3431
    1DIPC   D2B21238   9.415  27.464   4.000 -0.2552 -0.1512 -0.0586
    1DIPC   D3B21239   9.155  27.809   4.186 -0.4084  0.0850 -0.2419
    1DIPC   C4B21240   8.676  27.857   4.210  0.2526 -0.0079 -0.0124
    1DIPC   NC321241  18.511  19.011   3.683 -0.0988 -0.0439  0.1514
    1DIPC   PO421242  18.855  19.187   3.524 -0.2650 -0.1466 -0.1825
    1DIPC   GL121243  18.991  19.296   3.987  0.2303  0.1844  0.1846
    1DIPC   GL221244  18.841  19.398   4.210  0.0676 -0.2253  0.1847
    1DIPC   C1A21245  19.317  19.546   4.230 -0.1317  0.2589  0.0638
    1DIPC   D2A21246  19.515  19.789   4.505  0.3880  0.0564  0.4086
    1DIPC   D3A21247  19.875  19.853   4.760  0.2205 -0.0470  0.2399
    1DIPC   C4A21248  20.108  19.519   4.929  0.1633  0.3119  0.0476
    1DIPC   C1B21249  18.987  19.526   4.567  0.3044 -0.0003  0.0238
    1DIPC   D2B21250  19.275  19.637   5.012  0.0613  0.3376 -0.1745
    1DIPC   D3B21251  19.308  20.088   5.117 -0.0074  0.2699 -0.1597
    1DIPC   C4B21252  19.202  20.128   5.603  0.0001 -0.1942  0.4311
    1DIPC   NC321253   0.264   8.489   2.933  0.1828  0.2166  0.0767
    1DIPC   PO421254   0.042   8.072   2.864 -0.1370  0.1330  0.2611
    1DIPC   GL121255   0.254   7.980   3.262 -0.0132 -0.1883  0.1520
    1DIPC   GL221256   0.166   8.304   3.380  0.0921  0.1457  0.0041
    1DIPC   C1A21257   0.265   7.866   3.681 -0.1263 -0.1899 -0.0921
    1DIPC   D2A21258   0.346   7.657   4.182 -0.1546 -0.1038  0.1989
    1DIPC   D3A21259   0.058   7.599   4.553  0.1796  0.1279 -0.0926
    1DIPC   C4A21260  -0.238   7.780   4.571 -0.0225 -0.0817  0.0774
    1DIPC   C1B21261   0.396   8.508   3.713 -0.1309 -0.2159  0.3081
    1DIPC   D2B21262   0.629   8.590   4.153 -0.0642 -0.1252 -0.2006
    1DIPC   D3B21263   1.056   8.686   4.154 -0.0234  0.1322 -0.1151
    1DIPC   C4B21264   1.370   8.984   4.018 -0.0572 -0.0845 -0.1657
    1DIPC   NC321265  25.331  26.541   3.380  0.1557  0.3032 -0.0470
    1DIPC   PO421266  24.944  26.612   3.125 -0.1270 -0.1170  0.1675
    1DIPC   GL121267  24.829  26.668   3.526 -0.1038 -0.1587 -0.0182
    1DIPC   GL221268  24.946  26.416   3.705 -0.3956  0.3916 -0.0962
    1DIPC   C1A21269  24.955  26.904   3.881  0.2535 -0.0901 -0.0721
    1DIPC   D2A21270  25.339  27.181   4.064  0.1367 -0.0289 -0.0088
    1DIPC   D3A21271  25.317  27.355   4.517 -0.1000 -0.2155  0.0163
    1DIPC   C4A21272  25.356  27.804   4.559 -0.1012  0.0550  0.1841
    1DIPC   C1B21273  25.324  26.295   4.029  0.2822 -0.0202  0.0522
    1DIPC   D2B21274  25.308  26.283   4.474  0.0283  0.0034  0.0596
    1DIPC   D3B21275  25.268  25.852   4.282  0.2092 -0.1707  0.2141
    1DIPC   C4B21276  25.668  25.768   3.968  0.1577  0.0032 -0.1582
    1DIPC   NC321277   7.509   6.660   3.338  0.1942 -0.1567 -0.2700
    1DIPC   PO421278   7.814   6.398   3.229  0.0113  0.1828  0.1279
    1DIPC   GL121279   7.843   6.400   3.653 -0.0196  0.2827 -0.2490
    1DIPC   GL221280   7.640   6.385   3.928  0.3129  0.0258  0.5218
    1DIPC   C1A21281   8.233   6.384   3.972 -0.0814  0.3686 -0.0495
    1DIPC   D2A21282   8.470   6.010   4.110 -0.0666 -0.1938 -0.0635
    1DIPC   D3A21283   8.685   5.846   4.424  0.3185 -0.2019 -0.2480
    1DIPC   C4A21284   8.411   5.703   4.735 -0.2490  0.0001  0.0429
    1DIPC   C1B21285   7.519   6.261   4.289 -0.1410  0.0958 -0.1111
    1DIPC   D2B21286   7.647   5.980   4.510  0.4733 -0.0681  0.1646
    1DIPC   D3B21287   7.874   5.803   4.904  0.1523  0.0784 -0.4208
    1DIPC   C4B21288   8.263   5.746   5.248  0.0186  0.3014 -0.1337
    1DIPC   NC321289  14.851  21.390   2.761  0.0010  0.1834 -0.0429
    1DIPC   PO421290  14.779  21.176   3.171 -0.0134  0.4812 -0.1383
    1DIPC   GL121291  14.954  21.194   3.589  0.0261  0.1955  0.2523
    1DIPC   GL221292  15.026  20.952   3.820 -0.1579 -0.0241  0.1336
    1DIPC   C1A21293  14.941  21.484   3.945 -0.0019  0.0490  0.4304
    1DIPC   D2A21294  14.939  21.319   4.366  0.0677  0.0307 -0.0069
    1DIPC   D3A21295  14.556  21.507   4.244  0.0997  0.0499  0.0438
    1DIPC   C4A21296  14.084  21.542   4.269 -0.1785 -0.3749  0.0615
    1DIPC   C1B21297  15.178  20.661   4.064 -0.1004 -0.1102  0.0834
    1DIPC   D2B21298  14.983  20.428   4.386  0.0344  0.3378 -0.0292
    1DIPC   D3B21299  15.177  20.593   4.734 -0.1623 -0.3373  0.0691
    1DIPC   C4B21300  15.425  20.491   5.150  0.1334  0.1985 -0.0628
    1DIPC   NC321301  21.017  14.955   2.956 -0.3709 -0.0993  0.0735
    1DIPC   PO421302  20.838  14.616   2.854  0.1521 -0.0423 -0.2133
    1DIPC   GL121303  21.007  14.475   3.262 -0.0816 -0.0205  0.0127
    1DIPC   GL221304  21.149  14.166   3.310  0.3136  0.0498 -0.1538
    1DIPC   C1A21305  21.050  14.430   3.716 -0.1824 -0.0193  0.4193
    1DIPC   D2A21306  21.087  14.503   4.030 -0.0944 -0.0682  0.3756
    1DIPC   D3A21307  21.532  14.643   3.822  0.2998  0.1509 -0.3548
    1DIPC   C4A21308  21.803  14.891   3.862 -0.2710  0.0756 -0.1943
    1DIPC   C1B21309  21.154  13.815   3.572 -0.0735 -0.0634 -0.2791
    1DIPC   D2B21310  21.516  13.663   3.886 -0.0343 -0.0219 -0.0954
    1DIPC   D3B21311  21.851  13.420   4.182 -0.0905 -0.1375 -0.2953
    1DIPC   C4B21312  21.873  13.317   4.573  0.1229  0.0241  0.2854
    1DIPC   NC321313   5.199  22.499   2.170 -0.0361 -0.1138 -0.1807
    1DIPC   PO421314   5.288  22.922   1.983  0.1591 -0.0155  0.0578
    1DIPC   GL121315   5.204  22.860   2.514 -0.3581  0.0648 -0.1047
    1DIPC   GL221316   5.439  22.939   2.666 -0.2537 -0.0692 -0.1078
    1DIPC   C1A21317   4.981  22.860   2.814  0.1906 -0.1036 -0.1506
    1DIPC   D2A21318   4.598  22.839   2.915 -0.0760  0.1938 -0.0755
    1DIPC   D3A21319   4.342  23.254   3.089 -0.3582  0.2382  0.0067
    1DIPC   C4A21320   4.533  23.668   3.224  0.1962 -0.1408  0.1065
    1DIPC   C1B21321   5.152  23.337   2.701 -0.1002 -0.1196 -0.1545
    1DIPC   D2B21322   4.720  23.378   2.812 -0.1227  0.0526  0.1481
    1DIPC   D3B21323   4.877  23.836   2.840  0.1499  0.1557 -0.3774
    1DIPC   C4B21324   5.144  24.041   3.184 -0.0273  0.0479  0.0299
    1DIPC   NC321325   5.815   0.717   3.366 -0.1251  0.0142  0.1726
    1DIPC   PO421326   5.396   0.542   3.425 -0.2667  0.3359  0.2870
    1DIPC   GL121327   5.142   0.547   3.686  0.4369  0.1591  0.0982
    1DIPC   GL221328   4.900   0.383   3.611 -0.2263 -0.2493 -0.0450
    1DIPC   C1A21329   5.079   0.629   4.161  0.2327  0.0073 -0.1094
    1DIPC   D2A21330   4.929   0.698   4.619 -0.0769 -0.2077 -0.0438
    1DIPC   D3A21331   4.665   0.387   4.840  0.0089  0.2336  0.1709
    1DIPC   C4A21332   4.692   0.468   5.243  0.1940  0.0410 -0.3420
    1DIPC   C1B21333   4.621   0.213   3.803 -0.0750  0.0529  0.2424
    1DIPC   D2B21334   4.219   0.130   4.041 -0.0484  0.3104  0.0167
    1DIPC   D3B21335   4.055   0.030   4.486 -0.0437  0.2528 -0.0927
    1DIPC   C4B21336   4.281   0.093   4.874  0.0361  0.7500 -0.3055
    1DIPC   NC321337  26.338  22.549   3.119 -0.0629 -0.0123  0.0303
    1DIPC   PO421338  26.531  23.009   3.241 -0.0308  0.1256 -0.1123
    1DIPC   GL121339  26.428  22.802   3.603  0.0716 -0.2129  0.1654
    1DIPC   GL221340  26.221  22.468   3.603 -0.1753  0.1182 -0.1657
    1DIPC   C1A21341  26.365  22.669   4.051  0.0469  0.4024  0.1520
    1DIPC   D2A21342  26.322  22.702   4.463 -0.0130 -0.0178  0.1225
    1DIPC   D3A21343  26.404  22.368   4.709 -0.1625  0.0399 -0.3675
    1DIPC   C4A21344  26.589  21.850   4.715  0.0422 -0.4279 -0.1312
    1DIPC   C1B21345  26.527  22.243   3.863 -0.2122  0.1173  0.2465
    1DIPC   D2B21346  26.750  22.286   4.222  0.0990 -0.1613  0.1108
    1DIPC   D3B21347  26.990  22.251   4.600  0.0175 -0.3112 -0.1218
    1DIPC   C4B21348  27.071  22.423   4.957 -0.2079 -0.0653  0.1817
    1DIPC   NC321349  16.164   9.279   2.427  0.0485  0.3561 -0.1050
    1DIPC   PO421350  16.478   9.179   2.830 -0.1186  0.2928 -0.0824
    1DIPC   GL121351  16.452   9.347   3.275 -0.1421  0.0497 -0.1108
    1DIPC   GL221352  16.599   9.589   3.322 -0.1017  0.1619 -0.1706
    1DIPC   C1A21353  16.489   9.236   3.754 -0.3448  0.0154  0.0759
    1DIPC   D2A21354  16.430   8.766   3.976 -0.0145 -0.1290  0.2658
    1DIPC   D3A21355  16.586   9.154   4.264 -0.1156  0.1184 -0.0389
    1DIPC   C4A21356  16.866   9.060   4.636 -0.1336  0.1597 -0.1404
    1DIPC   C1B21357  16.895   9.422   3.567  0.0663  0.0673 -0.2137
    1DIPC   D2B21358  16.902   9.420   4.014 -0.0789  0.0801  0.1198
    1DIPC   D3B21359  17.150   9.561   4.393  0.2457 -0.0005  0.1546
    1DIPC   C4B21360  17.420   9.880   4.425 -0.0801  0.1445 -0.1297
    1DIPC   NC321361  15.192   3.135   3.841 -0.0113 -0.2551  0.2854
    1DIPC   PO421362  14.996   3.509   4.014  0.0354 -0.0550 -0.0847
    1DIPC   GL121363  15.229   3.388   4.382  0.2097 -0.2156 -0.0281
    1DIPC   GL221364  15.415   3.168   4.294  0.3724  0.2213 -0.1234
    1DIPC   C1A21365  15.237   3.689   4.822 -0.1915  0.3508  0.1200
    1DIPC   D2A21366  15.320   3.608   5.338 -0.0007 -0.0004  0.3405
    1DIPC   D3A21367  15.041   3.355   5.644 -0.3968 -0.1823  0.1683
    1DIPC   C4A21368  14.689   3.203   5.715 -0.2863 -0.0387  0.0006
    1DIPC   C1B21369  15.587   3.150   4.725  0.3560 -0.0426  0.3073
    1DIPC   D2B21370  15.532   3.161   5.280  0.2789  0.0193 -0.2293
    1DIPC   D3B21371  15.453   2.832   5.128  0.0133  0.0263 -0.1665
    1DIPC   C4B21372  15.380   2.488   5.391  0.2278 -0.2189  0.0946
    1DIPC   NC321373   4.167   2.844   2.879 -0.1734 -0.1919  0.0152
    1DIPC   PO421374   3.736   2.691   2.949  0.2356  0.0108  0.0872
    1DIPC   GL121375   3.819   2.818   3.366 -0.4250 -0.2277 -0.0829
    1DIPC   GL221376   3.747   2.672   3.630  0.3698  0.0082  0.1049
    1DIPC   C1A21377   3.751   3.162   3.752 -0.5609  0.2864 -0.0476
    1DIPC   D2A21378   3.947   3.578   3.799 -0.0887  0.1105  0.1753
    1DIPC   D3A21379   3.947   3.508   4.211 -0.1820 -0.3747  0.1324
    1DIPC   C4A21380   3.619   3.231   4.340 -0.1048  0.0463 -0.2007
    1DIPC   C1B21381   4.036   2.858   3.987 -0.0982 -0.1220 -0.2306
    1DIPC   D2B21382   4.141   3.055   4.254 -0.1697 -0.1586  0.4286
    1DIPC   D3B21383   3.944   2.978   4.590  0.0504  0.0946  0.1223
    1DIPC   C4B21384   4.407   3.012   4.882 -0.3556 -0.3300 -0.0979
    1DIPC   NC321385   4.105  25.106   2.822  0.2449  0.1959 -0.1718
    1DIPC   PO421386   3.701  24.982   2.962 -0.0722 -0.1561  0.1505
    1DIPC   GL121387   3.556  25.219   3.260 -0.0256 -0.1376 -0.0742
    1DIPC   GL221388   3.280  25.337   3.243  0.1796 -0.0647  0.0748
    1DIPC   C1A21389   3.562  25.320   3.688  0.2632 -0.4614 -0.2667
    1DIPC   D2A21390   3.627  25.646   4.052  0.2483  0.0988  0.0259
    1DIPC   D3A21391   4.007  25.448   4.240  0.3029 -0.1544 -0.2439
    1DIPC   C4A21392   4.362  25.135   4.205  0.0941 -0.0744 -0.0343
    1DIPC   C1B21393   3.051  25.351   3.705 -0.2801 -0.2295 -0.2018
    1DIPC   D2B21394   3.179  25.322   4.093 -0.0912 -0.1509 -0.0699
    1DIPC   D3B21395   3.089  24.928   3.997 -0.2568  0.4114  0.2328
    1DIPC   C4B21396   2.913  24.638   4.321  0.1812  0.0308  0.1933
    1DIPC   NC321397   2.141  24.031   2.497  0.3186  0.3547  0.0109
    1DIPC   PO421398   2.602  24.099   2.611 -0.4035  0.0766  0.1009
    1DIPC   GL121399   2.639  23.826   2.993  0.2141 -0.1087  0.1247
    1DIPC   GL221400   2.301  23.767   2.969 -0.0723 -0.0738 -0.1737
    1DIPC   C1A21401   2.854  23.513   3.232 -0.1417  0.1260  0.0028
    1DIPC   D2A21402   2.705  23.243   3.585 -0.2334 -0.0428  0.1299
    1DIPC   D3A21403   2.678  23.348   4.010 -0.1126 -0.2186  0.3850
    1DIPC   C4A21404   2.881  23.397   4.394 -0.1951 -0.2380 -0.2920
    1DIPC   C1B21405   2.342  23.357   3.248 -0.3409  0.0039 -0.3518
    1DIPC   D2B21406   2.206  23.055   3.627  0.2069  0.1680 -0.1038
    1DIPC   D3B21407   2.191  23.094   4.175 -0.0046  0.1337 -0.0031
    1DIPC   C4B21408   1.845  23.443   4.267 -0.2278  0.1225  0.0007
    1DIPC   NC321409   1.610   1.939   3.105  0.2116 -0.5576  0.0005
    1DIPC   PO421410   1.505   2.327   3.435  0.1704  0.2565  0.2913
    1DIPC   GL121411   1.304   2.351   3.757  0.0157 -0.1462 -0.2795
    1DIPC   GL221412   1.272   1.956   3.919  0.0576 -0.0390 -0.0932
    1DIPC   C1A21413   1.099   2.494   4.110  0.0735 -0.0961 -0.2371
    1DIPC   D2A21414   0.802   2.832   4.320  0.0771  0.0307  0.2022
    1DIPC   D3A21415   0.938   3.049   4.003  0.3502  0.1325 -0.1312
    1DIPC   C4A21416   1.346   3.104   3.936  0.0564 -0.0114  0.1126
    1DIPC   C1B21417   1.550   2.265   4.232  0.0592 -0.1979 -0.1499
    1DIPC   D2B21418   1.683   2.729   4.132  0.0234  0.0479  0.0113
    1DIPC   D3B21419   1.746   3.161   4.357 -0.0927 -0.0507 -0.0742
    1DIPC   C4B21420   1.675   3.405   4.773  0.3510  0.4770  0.0010
    1DIPC   NC321421   2.716  13.703   2.617  0.3033 -0.1335  0.1133
    1DIPC   PO421422   2.534  13.352   2.579  0.0130 -0.5116  0.1396
    1DIPC   GL121423   2.421  13.341   2.969  0.0802  0.0425 -0.1092
    1DIPC   GL221424   2.703  13.458   3.093 -0.1002 -0.3363 -0.0481
    1DIPC   C1A21425   2.328  13.193   3.337  0.1413  0.1948 -0.1624
    1DIPC   D2A21426   2.324  13.165   3.801  0.1261  0.0608 -0.0159
    1DIPC   D3A21427   2.019  13.247   4.182 -0.2827  0.0161 -0.0532
    1DIPC   C4A21428   1.623  13.468   4.248 -0.0343 -0.0724  0.0236
    1DIPC   C1B21429   2.851  13.231   3.392 -0.2387  0.2330  0.3530
    1DIPC   D2B21430   3.306  13.097   3.367  0.0304 -0.0718  0.3377
    1DIPC   D3B21431   3.030  12.789   3.297  0.0086  0.1980 -0.3193
    1DIPC   C4B21432   2.641  12.748   3.322 -0.1112  0.0886  0.2084
    1DIPC   NC321433  25.489  19.989   2.819  0.0109  0.2240 -0.0102
    1DIPC   PO421434  25.297  19.641   2.810 -0.0941 -0.1649 -0.0213
    1DIPC   GL121435  25.333  19.284   3.141  0.4994  0.2110 -0.0955
    1DIPC   GL221436  25.110  19.417   3.220  0.2623 -0.5417  0.2142
    1DIPC   C1A21437  25.555  19.305   3.563  0.0682  0.0108  0.0281
    1DIPC   D2A21438  25.496  19.294   3.961  0.0610  0.0215 -0.3235
    1DIPC   D3A21439  25.605  19.754   3.758  0.1908  0.2033 -0.1920
    1DIPC   C4A21440  25.820  19.914   4.095 -0.0511  0.0523  0.0748
    1DIPC   C1B21441  24.741  19.521   3.444 -0.2121 -0.0002  0.1287
    1DIPC   D2B21442  24.291  19.462   3.598 -0.1930 -0.0495  0.0928
    1DIPC   D3B21443  24.519  19.450   3.933  0.0850 -0.1523  0.0157
    1DIPC   C4B21444  24.899  19.799   4.049  0.0139 -0.1961  0.2087
    1DIPC   NC321445   7.393   0.044   3.218  0.1086  0.0842 -0.0023
    1DIPC   PO421446   7.891  -0.034   3.438 -0.1635  0.2738  0.0191
    1DIPC   GL121447   8.088  -0.186   3.757 -0.3855 -0.1810 -0.4625
    1DIPC   GL221448   7.909  -0.437   3.864  0.1142 -0.0073  0.1876
    1DIPC   C1A21449   8.164  -0.070   4.208 -0.1588  0.0045  0.1147
    1DIPC   D2A21450   8.369  -0.166   4.613  0.2422 -0.1065 -0.0245
    1DIPC   D3A21451   8.168  -0.158   4.969  0.2740 -0.0659 -0.1305
    1DIPC   C4A21452   8.084   0.033   5.369  0.2071 -0.0279  0.0301
    1DIPC   C1B21453   7.540  -0.616   3.863 -0.0681 -0.2122 -0.1427
    1DIPC   D2B21454   7.176  -0.580   4.169 -0.3804  0.0509  0.5743
    1DIPC   D3B21455   7.479  -0.526   4.504  0.1796 -0.2931 -0.1940
    1DIPC   C4B21456   7.886  -0.331   4.556 -0.3016  0.1064 -0.0091
    1DIPC   NC321457   5.939  21.273   2.111 -0.0323  0.2555  0.2260
    1DIPC   PO421458   6.366  21.364   2.219 -0.0789 -0.2582  0.0303
    1DIPC   GL121459   6.125  21.150   2.592 -0.0553 -0.0560  0.0553
    1DIPC   GL221460   6.156  21.178   2.889  0.1084  0.0683  0.0950
    1DIPC   C1A21461   6.289  20.742   2.756  0.1297 -0.0893 -0.0144
    1DIPC   D2A21462   6.086  20.558   3.053 -0.1808 -0.1546 -0.2519
    1DIPC   D3A21463   5.888  20.850   3.320  0.2761  0.1375  0.2021
    1DIPC   C4A21464   6.108  20.999   3.731  0.0938  0.1004 -0.2706
    1DIPC   C1B21465   6.360  21.025   3.199  0.1696  0.0464 -0.2703
    1DIPC   D2B21466   6.515  21.137   3.503  0.2215  0.0894 -0.1875
    1DIPC   D3B21467   6.675  21.648   3.581  0.0164 -0.0218 -0.1472
    1DIPC   C4B21468   6.860  21.727   3.982 -0.1709 -0.2835  0.1023
    1DIPC   NC321469  14.696   4.552   3.984  0.1451  0.1109  0.0165
    1DIPC   PO421470  14.714   4.994   4.017 -0.1489  0.0961 -0.3035
    1DIPC   GL121471  14.492   4.838   4.370 -0.1063 -0.0010  0.0957
    1DIPC   GL221472  14.135   4.951   4.357 -0.1645  0.3818 -0.3623
    1DIPC   C1A21473  14.412   5.043   4.771 -0.0876  0.1729 -0.0104
    1DIPC   D2A21474  14.647   4.786   5.128  0.3297  0.1413  0.0266
    1DIPC   D3A21475  14.984   4.942   5.377 -0.2215  0.0991  0.3175
    1DIPC   C4A21476  15.297   4.675   5.598 -0.0746 -0.2398  0.0517
    1DIPC   C1B21477  13.819   4.962   4.747  0.1521  0.3212 -0.1748
    1DIPC   D2B21478  13.426   5.069   4.927 -0.1487  0.0318 -0.0179
    1DIPC   D3B21479  13.658   4.970   5.344  0.0960 -0.0628  0.1217
    1DIPC   C4B21480  13.664   4.508   5.562 -0.3777 -0.0413 -0.0769
    1DIPC   NC321481  19.548   3.584   2.606  0.1217 -0.2009 -0.0557
    1DIPC   PO421482  19.570   3.517   3.064 -0.0728 -0.2523  0.1907
    1DIPC   GL121483  19.774   3.574   3.472  0.0984 -0.0191 -0.1572
    1DIPC   GL221484  19.484   3.379   3.599  0.1269 -0.0089 -0.1017
    1DIPC   C1A21485  20.201   3.850   3.712  0.4637  0.0661 -0.5377
    1DIPC   D2A21486  19.996   3.880   4.149 -0.1854 -0.1191  0.0062
    1DIPC   D3A21487  20.135   3.485   4.398  0.3133  0.0747  0.2222
    1DIPC   C4A21488  19.957   3.506   4.795 -0.1282  0.0925 -0.0116
    1DIPC   C1B21489  19.312   3.260   3.962 -0.3290 -0.0552  0.0295
    1DIPC   D2B21490  19.280   2.875   4.237 -0.4699  0.1390 -0.0042
    1DIPC   D3B21491  19.204   3.243   4.466 -0.1971  0.0117  0.1329
    1DIPC   C4B21492  19.142   3.592   4.337 -0.3038 -0.3191  0.2622
    1DIPC   NC321493   9.126  21.435   2.953 -0.1538  0.2411  0.2461
    1DIPC   PO421494   8.636  21.364   2.783  0.0095 -0.3059  0.3964
    1DIPC   GL121495   8.714  21.241   3.164 -0.0641  0.3082 -0.1561
    1DIPC   GL221496   8.654  21.577   3.232  0.3048  0.2673 -0.0626
    1DIPC   C1A21497   8.864  21.344   3.548  0.2046  0.3941 -0.0879
    1DIPC   D2A21498   8.747  21.544   3.880  0.1540 -0.2147 -0.2822
    1DIPC   D3A21499   8.400  21.638   3.904  0.3064 -0.0118  0.2094
    1DIPC   C4A21500   8.026  21.424   4.073 -0.3345  0.1012 -0.0946
    1DIPC   C1B21501   8.330  21.814   3.383  0.0117 -0.3448 -0.2568
    1DIPC   D2B21502   8.225  22.226   3.157 -0.2596  0.0758 -0.0654
    1DIPC   D3B21503   8.556  22.259   3.247  0.2385  0.0586 -0.0918
    1DIPC   C4B21504   8.830  22.011   3.401  0.2571  0.0323 -0.0878
    1DIPC   NC321505   1.238  11.285   2.530 -0.2907  0.0160 -0.0704
    1DIPC   PO421506   1.603  11.352   2.711 -0.1978 -0.1016  0.0789
    1DIPC   GL121507   1.923  11.551   3.046 -0.0683 -0.1969  0.2010
    1DIPC   GL221508   1.798  11.353   3.217 -0.0954 -0.2871 -0.1305
    1DIPC   C1A21509   2.144  11.675   3.494  0.1629  0.0345 -0.3039
    1DIPC   D2A21510   2.585  11.581   3.645 -0.0263  0.0861  0.4206
    1DIPC   D3A21511   2.745  11.069   3.530  0.0341 -0.2407 -0.1534
    1DIPC   C4A21512   3.127  10.915   3.745  0.3665  0.0469 -0.0562
    1DIPC   C1B21513   1.412  11.343   3.468 -0.0936 -0.1104  0.1559
    1DIPC   D2B21514   1.042  11.574   3.460  0.0089 -0.0902  0.2998
    1DIPC   D3B21515   0.796  11.708   3.755  0.0214 -0.1950 -0.2009
    1DIPC   C4B21516   0.871  11.558   4.180  0.1194 -0.3811  0.0891
    1DIPC   NC321517   3.581  13.717   2.790  0.2793 -0.1441 -0.0185
    1DIPC   PO421518   3.573  14.139   2.746 -0.0156 -0.1143 -0.0155
    1DIPC   GL121519   3.550  14.108   3.184 -0.0731 -0.0695  0.3297
    1DIPC   GL221520   3.251  14.063   3.438 -0.2069  0.1076  0.0110
    1DIPC   C1A21521   3.793  14.097   3.462 -0.0712 -0.0602 -0.0904
    1DIPC   D2A21522   4.026  13.914   3.733  0.3365 -0.1075  0.1497
    1DIPC   D3A21523   4.136  14.341   3.843 -0.0704  0.0617  0.1730
    1DIPC   C4A21524   4.294  14.301   4.247 -0.0431 -0.1604  0.0696
    1DIPC   C1B21525   3.416  13.974   3.886  0.2465  0.0451 -0.0047
    1DIPC   D2B21526   3.398  14.006   4.291 -0.2772 -0.0081  0.1938
    1DIPC   D3B21527   3.625  14.184   4.657 -0.0529 -0.3092  0.2908
    1DIPC   C4B21528   4.018  14.114   4.639 -0.1518  0.0418 -0.3577
    1DIPC   NC321529   8.552  19.571   2.378 -0.1097 -0.0454  0.0439
    1DIPC   PO421530   8.865  19.428   2.580 -0.2558 -0.1065 -0.0281
    1DIPC   GL121531   9.224  19.516   2.821 -0.0509  0.1996 -0.2012
    1DIPC   GL221532   9.035  19.598   3.101 -0.2448 -0.0007  0.0566
    1DIPC   C1A21533   9.377  19.240   3.142  0.1296 -0.2460 -0.2501
    1DIPC   D2A21534   9.388  18.999   3.489  0.1043 -0.1462  0.2460
    1DIPC   D3A21535   8.918  18.998   3.487  0.0564 -0.1565  0.2932
    1DIPC   C4A21536   8.845  19.037   3.095 -0.0894 -0.3117  0.0791
    1DIPC   C1B21537   8.810  19.995   2.986 -0.3048 -0.1798 -0.1551
    1DIPC   D2B21538   8.881  20.419   3.087 -0.1900 -0.0333 -0.3094
    1DIPC   D3B21539   8.637  20.348   3.556 -0.0451 -0.1172 -0.1461
    1DIPC   C4B21540   8.641  20.636   3.852 -0.0159  0.1053  0.0434
    1DIPC   NC321541  22.984   5.729   3.413  0.1569  0.0159  0.0601
    1DIPC   PO421542  23.303   5.504   3.534 -0.2558 -0.1914  0.0669
    1DIPC   GL121543  23.278   5.649   3.874  0.0288  0.1732 -0.0192
    1DIPC   GL221544  23.020   5.428   4.171  0.0263  0.1373 -0.0869
    1DIPC   C1A21545  23.180   6.012   4.067 -0.0004  0.2630 -0.1209
    1DIPC   D2A21546  23.317   6.131   4.462 -0.2270 -0.1700  0.1710
    1DIPC   D3A21547  23.435   6.512   4.392 -0.0006  0.0489  0.3362
    1DIPC   C4A21548  23.607   6.488   4.016  0.0426 -0.0660 -0.0299
    1DIPC   C1B21549  23.363   5.161   4.081 -0.1670 -0.1850  0.0898
    1DIPC   D2B21550  23.563   4.774   4.021  0.1248  0.0525 -0.0537
    1DIPC   D3B21551  23.503   4.816   4.475 -0.1326 -0.0088 -0.0791
    1DIPC   C4B21552  23.606   5.256   4.581 -0.1225  0.1022 -0.1113
    1DIPC   NC321553  18.965   8.163   2.982 -0.3293  0.0494 -0.0266
    1DIPC   PO421554  19.293   7.911   3.124 -0.4241 -0.4272 -0.1576
    1DIPC   GL121555  19.267   7.986   3.595  0.3372 -0.1735 -0.1155
    1DIPC   GL221556  19.640   7.782   3.756  0.0636  0.1302  0.0960
    1DIPC   C1A21557  19.098   7.783   3.904  0.0945 -0.3613 -0.1836
    1DIPC   D2A21558  18.996   7.438   4.069 -0.1689  0.2333  0.2374
    1DIPC   D3A21559  19.420   7.358   4.018 -0.1380  0.3379  0.2144
    1DIPC   C4A21560  19.691   7.256   4.397  0.1081 -0.1045 -0.0763
    1DIPC   C1B21561  19.915   7.494   4.000 -0.2736 -0.2320 -0.1427
    1DIPC   D2B21562  20.145   7.191   4.247  0.1125  0.0694  0.1691
    1DIPC   D3B21563  20.191   7.387   4.759  0.1142 -0.1514 -0.0233
    1DIPC   C4B21564  20.031   7.248   5.138 -0.1183 -0.0139  0.0090
    1DIPC   NC321565  22.738  11.446   3.499  0.1130  0.3095 -0.0079
    1DIPC   PO421566  23.151  11.381   3.324  0.1032  0.1736  0.4916
    1DIPC   GL121567  23.235  11.254   3.704 -0.1563  0.1845 -0.0541
    1DIPC   GL221568  23.200  10.851   3.868  0.0823 -0.0435  0.2554
    1DIPC   C1A21569  23.081  11.320   4.081  0.2972 -0.0891 -0.1869
    1DIPC   D2A21570  23.029  11.408   4.516  0.0908  0.0080 -0.0196
    1DIPC   D3A21571  23.443  11.108   4.485  0.1271 -0.1857  0.1373
    1DIPC   C4A21572  23.691  11.032   4.770 -0.0009 -0.2469  0.2943
    1DIPC   C1B21573  23.569  10.817   4.063 -0.0233  0.1192 -0.2914
    1DIPC   D2B21574  24.034  10.952   4.204 -0.3046  0.3779  0.2088
    1DIPC   D3B21575  24.073  10.801   4.576  0.0509  0.0490 -0.0424
    1DIPC   C4B21576  24.448  10.818   4.885  0.4428  0.1558  0.1970
    1DIPC   NC321577  13.294  24.877   3.353 -0.0020 -0.0900 -0.0356
    1DIPC   PO421578  13.265  25.167   3.600 -0.2277 -0.2427 -0.1757
    1DIPC   GL121579  13.308  25.400   3.971 -0.2573 -0.2807 -0.0256
    1DIPC   GL221580  13.515  25.779   4.151  0.2435  0.0276 -0.0538
    1DIPC   C1A21581  13.534  25.224   4.357 -0.1083  0.0960  0.0592
    1DIPC   D2A21582  13.646  25.229   4.762  0.1480  0.1200 -0.0443
    1DIPC   D3A21583  13.357  24.917   4.705  0.1964 -0.2376  0.3857
    1DIPC   C4A21584  12.993  25.036   4.481  0.1799 -0.1271  0.3453
    1DIPC   C1B21585  13.557  25.751   4.568 -0.0734  0.2536  0.2339
    1DIPC   D2B21586  13.589  25.838   4.976  0.4400 -0.0689 -0.0832
    1DIPC   D3B21587  13.328  25.523   5.053 -0.3665  0.0553  0.0332
    1DIPC   C4B21588  13.212  25.392   4.706 -0.0138 -0.2710 -0.1530
    1DIPC   NC321589  24.844  10.787   2.770 -0.2986  0.0611  0.2212
    1DIPC   PO421590  24.451  10.681   2.843  0.0303 -0.2680  0.0741
    1DIPC   GL121591  24.395  10.785   3.260 -0.1466 -0.2266 -0.0919
    1DIPC   GL221592  24.475  11.134   3.267  0.2203  0.0114 -0.0348
    1DIPC   C1A21593  24.773  10.860   3.596  0.2279  0.2830  0.0413
    1DIPC   D2A21594  25.027  11.107   3.819 -0.1145  0.0688  0.1174
    1DIPC   D3A21595  25.127  11.460   3.568  0.0959  0.0518 -0.1512
    1DIPC   C4A21596  25.361  11.665   3.659 -0.0532  0.0110  0.1739
    1DIPC   C1B21597  24.570  11.369   3.618  0.1050 -0.2966 -0.0236
    1DIPC   D2B21598  24.762  11.507   3.967 -0.3684 -0.1365  0.3117
    1DIPC   D3B21599  24.651  11.697   4.295  0.0294 -0.0948 -0.0745
    1DIPC   C4B21600  24.826  11.855   4.640  0.2695 -0.3108 -0.3480
    1DIPC   NC321601  23.040  27.761   2.849  0.1404 -0.0617  0.4484
    1DIPC   PO421602  22.769  27.912   2.936  0.0477  0.0011  0.0797
    1DIPC   GL121603  23.017  27.948   3.310 -0.0193  0.0644  0.1632
    1DIPC   GL221604  23.057  28.222   3.224  0.1417 -0.2803  0.1039
    1DIPC   C1A21605  23.202  27.948   3.644  0.1315 -0.0237 -0.1036
    1DIPC   D2A21606  23.479  27.888   4.030  0.1573  0.1012 -0.0567
    1DIPC   D3A21607  23.036  27.591   3.994 -0.0885  0.1932 -0.0453
    1DIPC   C4A21608  22.644  27.766   3.720 -0.1001 -0.1134  0.3747
    1DIPC   C1B21609  23.228  28.519   3.524  0.0387  0.1574 -0.0924
    1DIPC   D2B21610  23.197  29.009   3.790  0.0912 -0.1600 -0.1864
    1DIPC   D3B21611  23.057  28.773   4.026 -0.2042  0.0007 -0.3555
    1DIPC   C4B21612  23.327  28.360   4.148 -0.1262 -0.1908  0.0300
    1DIPC   NC321613  22.273  12.784   3.074  0.1034 -0.0605  0.0058
    1DIPC   PO421614  22.429  13.169   3.074  0.1298 -0.1166  0.0502
    1DIPC   GL121615  22.705  13.350   3.396 -0.0637 -0.0022  0.1675
    1DIPC   GL221616  22.518  13.643   3.482 -0.3604 -0.3308 -0.3627
    1DIPC   C1A21617  22.982  13.414   3.790  0.1674 -0.0983 -0.2534
    1DIPC   D2A21618  23.305  13.395   4.106 -0.0677  0.3766  0.1968
    1DIPC   D3A21619  22.861  13.333   4.333  0.3543  0.1576 -0.3164
    1DIPC   C4A21620  22.680  12.913   4.453 -0.0212 -0.1768 -0.4267
    1DIPC   C1B21621  22.526  13.701   3.880 -0.2499  0.0862 -0.1163
    1DIPC   D2B21622  22.233  13.702   4.275 -0.2886  0.0222 -0.0821
    1DIPC   D3B21623  22.358  13.332   4.463 -0.1049 -0.0064  0.2857
    1DIPC   C4B21624  22.280  13.219   4.987  0.2917  0.3364 -0.3662
    1DIPC   NC321625   5.692  21.001   2.809 -0.2518 -0.0027 -0.2129
    1DIPC   PO421626   5.329  21.021   2.438 -0.1024 -0.1801 -0.1995
    1DIPC   GL121627   5.232  21.237   2.840 -0.0135  0.1402 -0.1079
    1DIPC   GL221628   5.373  21.216   3.120 -0.0650 -0.1467 -0.0262
    1DIPC   C1A21629   4.900  21.179   3.147 -0.2902 -0.3391  0.1666
    1DIPC   D2A21630   4.738  21.304   3.674  0.0306  0.0491 -0.0044
    1DIPC   D3A21631   4.417  21.535   3.396  0.1050 -0.1163  0.0267
    1DIPC   C4A21632   4.147  21.741   3.056  0.1059  0.3735 -0.1667
    1DIPC   C1B21633   5.191  21.578   3.326  0.1237 -0.2488 -0.1230
    1DIPC   D2B21634   4.831  21.778   3.442 -0.1448  0.0204  0.0853
    1DIPC   D3B21635   5.177  22.064   3.459 -0.1039  0.2123  0.0729
    1DIPC   C4B21636   5.646  21.937   3.424  0.1812  0.0818 -0.2321
    1DIPC   NC321637  22.491   0.635   2.684  0.1224 -0.3478 -0.0876
    1DIPC   PO421638  22.189   0.461   2.996 -0.1840 -0.1934 -0.3226
    1DIPC   GL121639  22.093   0.775   3.342 -0.0512 -0.2080 -0.1225
    1DIPC   GL221640  21.809   0.852   3.111  0.1623  0.3292  0.2342
    1DIPC   C1A21641  21.924   0.695   3.797  0.0624 -0.3665  0.1519
    1DIPC   D2A21642  22.138   0.609   4.197 -0.0431  0.1184  0.3078
    1DIPC   D3A21643  22.199   0.173   4.391 -0.2524  0.1438 -0.0147
    1DIPC   C4A21644  22.489   0.385   4.598 -0.1840 -0.3757 -0.1240
    1DIPC   C1B21645  21.643   0.547   3.383  0.1568  0.0354  0.2101
    1DIPC   D2B21646  21.511   0.288   3.754  0.0131  0.4238 -0.0552
    1DIPC   D3B21647  21.938   0.255   3.653 -0.3344  0.0468  0.0317
    1DIPC   C4B21648  22.299   0.458   3.609 -0.0936 -0.1674 -0.0335
    1DIPC   NC321649   4.586  18.086   2.096 -0.0625 -0.2695  0.1855
    1DIPC   PO421650   5.134  18.126   1.946 -0.1662 -0.1987 -0.0568
    1DIPC   GL121651   5.294  17.985   2.333 -0.1745 -0.3854 -0.3033
    1DIPC   GL221652   5.373  18.284   2.347  0.0010  0.4234 -0.2317
    1DIPC   C1A21653   5.243  17.781   2.732  0.1079  0.2792 -0.0924
    1DIPC   D2A21654   5.087  17.357   2.751 -0.0681 -0.0014  0.2415
    1DIPC   D3A21655   4.775  17.282   2.921 -0.1143  0.1379 -0.0035
    1DIPC   C4A21656   4.710  17.177   3.326 -0.0679  0.2198 -0.1334
    1DIPC   C1B21657   5.658  18.142   2.673  0.0857  0.0804  0.0560
    1DIPC   D2B21658   6.050  18.199   3.054  0.1411  0.0616 -0.0151
    1DIPC   D3B21659   5.731  18.370   3.307  0.0474 -0.0719  0.4594
    1DIPC   C4B21660   5.785  18.431   3.791 -0.0066  0.3191 -0.1685
    1DIPC   NC321661  28.229  18.581   2.551 -0.0528 -0.0405 -0.0010
    1DIPC   PO421662  28.121  18.949   2.832  0.1728 -0.0952 -0.1748
    1DIPC   GL121663  27.870  19.079   3.227  0.2202  0.0972 -0.1473
    1DIPC   GL221664  28.010  18.879   3.500  0.0866  0.0477  0.2642
    1DIPC   C1A21665  27.869  19.371   3.548 -0.2217 -0.1966  0.3363
    1DIPC   D2A21666  27.927  19.600   3.929  0.0931  0.0106  0.1396
    1DIPC   D3A21667  27.735  19.263   4.163 -0.1724 -0.1439 -0.3777
    1DIPC   C4A21668  27.391  19.171   3.781  0.0427  0.0060 -0.1937
    1DIPC   C1B21669  27.786  18.801   3.882 -0.0053  0.0875  0.1278
    1DIPC   D2B21670  27.499  18.838   4.255 -0.1435 -0.1334  0.3695
    1DIPC   D3B21671  27.254  19.259   4.293  0.0590  0.2438 -0.4001
    1DIPC   C4B21672  26.902  19.400   4.016  0.0634 -0.0171  0.0331
    1DIPC   NC321673  10.668  28.375   3.129 -0.1122 -0.0973 -0.1579
    1DIPC   PO421674  10.176  28.425   3.137 -0.0450  0.1222 -0.4105
    1DIPC   GL121675  10.166  28.307   3.651 -0.0374  0.1993  0.4815
    1DIPC   GL221676  10.022  28.267   3.835 -0.3134  0.4548  0.2241
    1DIPC   C1A21677  10.437  28.590   3.951  0.1131 -0.1667  0.0396
    1DIPC   D2A21678  10.491  28.490   4.293  0.1946 -0.1737  0.0987
    1DIPC   D3A21679  10.423  28.472   4.782  0.0375  0.0179  0.0399
    1DIPC   C4A21680  10.010  28.495   5.019  0.1499  0.2187  0.1290
    1DIPC   C1B21681  10.141  28.160   4.105  0.3922 -0.0640 -0.0022
    1DIPC   D2B21682  10.210  28.117   4.552 -0.2110  0.1709 -0.2557
    1DIPC   D3B21683   9.716  28.236   4.679  0.0643  0.1372  0.0669
    1DIPC   C4B21684   9.409  27.772   4.651  0.1246  0.1186  0.3523
    1DIPC   NC321685   4.315  13.080   2.953  0.3309 -0.0334  0.3159
    1DIPC   PO421686   3.976  13.407   3.006 -0.1650 -0.2817  0.0687
    1DIPC   GL121687   4.086  13.189   3.416  0.1887 -0.2351  0.2680
    1DIPC   GL221688   4.125  13.489   3.467 -0.1102 -0.0555  0.0441
    1DIPC   C1A21689   4.332  12.804   3.584 -0.0500  0.2183  0.1630
    1DIPC   D2A21690   4.445  12.674   3.911 -0.0632  0.1000 -0.2145
    1DIPC   D3A21691   4.114  12.649   4.329  0.0894  0.0397 -0.0163
    1DIPC   C4A21692   3.898  12.916   4.639  0.2673  0.0006 -0.0385
    1DIPC   C1B21693   4.118  13.456   3.934  0.3004  0.0730  0.0965
    1DIPC   D2B21694   4.293  13.133   4.323 -0.1599 -0.1464 -0.0425
    1DIPC   D3B21695   4.645  13.127   4.038  0.1052  0.1157 -0.2688
    1DIPC   C4B21696   4.593  13.258   3.663  0.1364 -0.1401 -0.2692
    1DIPC   NC321697   3.290  11.047   2.752 -0.1047 -0.2403 -0.0516
    1DIPC   PO421698   3.088  11.526   2.735  0.0642 -0.0601  0.0505
    1DIPC   GL121699   3.088  11.382   3.216 -0.0407  0.0716  0.2452
    1DIPC   GL221700   3.196  11.097   3.273  0.2107 -0.2244  0.3710
    1DIPC   C1A21701   3.122  11.457   3.633 -0.2022  0.0326  0.0004
    1DIPC   D2A21702   3.507  11.640   3.911  0.1173 -0.2500 -0.2849
    1DIPC   D3A21703   3.381  11.267   4.075 -0.4531  0.1836  0.1179
    1DIPC   C4A21704   3.371  11.464   4.362  0.3499  0.0669 -0.2463
    1DIPC   C1B21705   3.523  11.272   3.413 -0.2450 -0.0008  0.1248
    1DIPC   D2B21706   3.931  11.067   3.389  0.3230  0.1921  0.0280
    1DIPC   D3B21707   4.130  10.767   3.686  0.2605 -0.0154 -0.1533
    1DIPC   C4B21708   4.511  10.923   3.855  0.2237  0.0639 -0.0294
    1DIPC   NC321709   4.508   8.724   2.909  0.1462 -0.1868  0.1141
    1DIPC   PO421710   4.102   8.847   2.780  0.1112  0.1161  0.0881
    1DIPC   GL121711   4.192   9.264   2.932  0.0176  0.2251 -0.2600
    1DIPC   GL221712   4.557   9.221   3.021 -0.0102 -0.0817  0.3122
    1DIPC   C1A21713   4.066   9.381   3.274  0.1543  0.1012 -0.1005
    1DIPC   D2A21714   3.835   9.050   3.546 -0.0780  0.1608  0.2370
    1DIPC   D3A21715   4.121   8.847   3.380  0.0461  0.1560 -0.0455
    1DIPC   C4A21716   4.164   8.535   3.586 -0.2157 -0.3321  0.1077
    1DIPC   C1B21717   4.478   9.194   3.516  0.2556 -0.0533  0.1248
    1DIPC   D2B21718   4.214   9.415   3.851  0.1241 -0.2255  0.2762
    1DIPC   D3B21719   4.274   9.253   4.282  0.0276  0.0279 -0.2166
    1DIPC   C4B21720   4.553   9.420   4.564  0.0072  0.2482  0.1623
    1DIPC   NC321721  20.783   7.608   3.487  0.0870  0.1625  0.1227
    1DIPC   PO421722  20.631   8.055   3.433  0.0695  0.0553 -0.0764
    1DIPC   GL121723  20.725   8.001   3.925 -0.1733 -0.1942  0.1255
    1DIPC   GL221724  20.679   7.590   4.017 -0.3521  0.3201  0.2007
    1DIPC   C1A21725  21.001   7.953   4.209  0.2254 -0.1621 -0.0961
    1DIPC   D2A21726  21.146   7.553   4.426  0.1160 -0.1483 -0.0562
    1DIPC   D3A21727  21.173   7.720   4.885 -0.2261 -0.2045  0.0844
    1DIPC   C4A21728  20.850   7.616   5.260 -0.1550 -0.2522 -0.3284
    1DIPC   C1B21729  20.383   7.588   4.275  0.2208  0.1911 -0.0331
    1DIPC   D2B21730  20.024   7.803   4.470  0.2879 -0.1769  0.3004
    1DIPC   D3B21731  20.104   7.805   4.962  0.1341  0.0200  0.2311
    1DIPC   C4B21732  20.549   8.042   5.091  0.1749  0.1997  0.0048
    1DIPC   NC321733  23.077  25.907   3.015 -0.1003 -0.3806  0.1313
    1DIPC   PO421734  22.720  25.710   3.126  0.0289  0.3092  0.0211
    1DIPC   GL121735  22.697  25.899   3.518 -0.0368  0.0933  0.1216
    1DIPC   GL221736  22.556  26.259   3.488 -0.0602  0.1508  0.0503
    1DIPC   C1A21737  22.754  25.915   3.927  0.1850  0.0280 -0.1461
    1DIPC   D2A21738  22.767  26.383   4.127  0.0133  0.0561  0.4767
    1DIPC   D3A21739  22.582  26.416   4.398 -0.0133  0.1048 -0.1563
    1DIPC   C4A21740  22.240  26.646   4.379  0.0942  0.1399  0.0668
    1DIPC   C1B21741  22.679  26.644   3.669  0.0389  0.0909  0.1556
    1DIPC   D2B21742  22.469  26.849   3.974  0.2582 -0.0361 -0.0177
    1DIPC   D3B21743  22.214  26.514   3.914 -0.2348  0.0272  0.0890
    1DIPC   C4B21744  22.176  26.205   4.185  0.1107 -0.0684 -0.2611
    1DIPC   NC321745   5.505   6.615   3.471 -0.0006 -0.1845 -0.0851
    1DIPC   PO421746   5.488   7.004   3.432  0.0474  0.2300  0.1774
    1DIPC   GL121747   5.252   6.982   3.815 -0.6081 -0.1717 -0.0424
    1DIPC   GL221748   4.921   6.868   3.816  0.2632  0.4452  0.0835
    1DIPC   C1A21749   5.365   7.012   4.255  0.0941 -0.1185  0.0288
    1DIPC   D2A21750   5.703   7.060   4.580  0.1601  0.0143  0.0908
    1DIPC   D3A21751   5.533   7.424   4.570  0.2301 -0.0757 -0.2159
    1DIPC   C4A21752   5.005   7.414   4.519  0.0650 -0.0572 -0.0564
    1DIPC   C1B21753   4.512   6.863   3.875 -0.0370 -0.1981 -0.1454
    1DIPC   D2B21754   4.117   6.928   3.996  0.2310  0.0730  0.0996
    1DIPC   D3B21755   3.840   6.508   3.928  0.0629 -0.2445  0.2934
    1DIPC   C4B21756   3.561   6.510   3.622  0.0482  0.0478  0.0182
    1DIPC   NC321757  24.194  24.831   3.215 -0.1056  0.0990  0.3092
    1DIPC   PO421758  24.656  24.866   3.109 -0.1517 -0.0116  0.0066
    1DIPC   GL121759  24.619  24.766   3.534  0.0579 -0.2222 -0.2492
    1DIPC   GL221760  24.782  24.466   3.532 -0.0862  0.3833  0.2849
    1DIPC   C1A21761  24.623  24.896   3.975 -0.0025  0.1504 -0.2511
    1DIPC   D2A21762  24.585  25.177   4.335  0.0349  0.0798 -0.2713
    1DIPC   D3A21763  24.276  24.842   4.499 -0.0188  0.2690  0.0819
    1DIPC   C4A21764  23.903  24.902   4.745 -0.0054  0.1233 -0.0744
    1DIPC   C1B21765  24.986  24.296   3.987 -0.0694  0.0330 -0.2144
    1DIPC   D2B21766  25.103  23.964   4.262 -0.0567 -0.0541  0.1038
    1DIPC   D3B21767  24.926  23.919   4.681  0.0551 -0.0937 -0.0141
    1DIPC   C4B21768  24.716  23.669   4.940  0.1374 -0.3889  0.4599
    1DIPC   NC321769   1.740   3.917   3.050  0.0634 -0.0515  0.1750
    1DIPC   PO421770   1.551   4.142   3.396 -0.1367 -0.0730 -0.0477
    1DIPC   GL121771   1.621   4.188   3.831  0.2857  0.1247  0.1517
    1DIPC   GL221772   1.636   4.593   3.948  0.3088  0.0031 -0.2026
    1DIPC   C1A21773   1.379   4.228   4.167  0.3941  0.1011  0.1758
    1DIPC   D2A21774   1.143   4.293   4.575 -0.2984 -0.0802 -0.0293
    1DIPC   D3A21775   1.331   4.071   4.890 -0.1301 -0.1163 -0.1727
    1DIPC   C4A21776   1.296   4.355   5.225  0.0038 -0.1360 -0.0309
    1DIPC   C1B21777   1.488   4.670   4.335 -0.0570 -0.2886  0.0215
    1DIPC   D2B21778   1.447   4.662   4.717 -0.1981  0.1727 -0.0147
    1DIPC   D3B21779   1.200   4.940   4.994 -0.0611 -0.1706 -0.2651
    1DIPC   C4B21780   1.149   5.384   4.920 -0.0957  0.1959 -0.1392
    1DIPC   NC321781   5.899   4.874   3.035 -0.1536 -0.0337 -0.0457
    1DIPC   PO421782   6.269   5.102   3.164  0.2080 -0.1262  0.1864
    1DIPC   GL121783   6.090   5.225   3.564  0.0203 -0.1520 -0.0516
    1DIPC   GL221784   5.819   5.016   3.519  0.0324 -0.3879 -0.3233
    1DIPC   C1A21785   6.235   5.123   3.972  0.2812 -0.2940 -0.0285
    1DIPC   D2A21786   6.309   4.895   4.387  0.3534  0.2066  0.0070
    1DIPC   D3A21787   6.087   5.206   4.513 -0.2253  0.0243 -0.2819
    1DIPC   C4A21788   6.372   5.377   4.727 -0.0479  0.1911 -0.1591
    1DIPC   C1B21789   5.477   4.972   3.783  0.2939 -0.1339  0.0820
    1DIPC   D2B21790   5.210   5.021   4.061 -0.0791  0.0620 -0.0920
    1DIPC   D3B21791   5.035   5.291   4.394  0.2965 -0.0351 -0.1021
    1DIPC   C4B21792   4.905   5.149   4.795 -0.3507 -0.1353 -0.0221
    1DIPC   NC321793   8.133   7.335   3.209  0.1187 -0.1653  0.2334
    1DIPC   PO421794   8.314   7.706   3.093  0.1395  0.2560 -0.1497
    1DIPC   GL121795   8.197   7.842   3.497 -0.2531  0.1130  0.0612
    1DIPC   GL221796   8.323   7.608   3.684 -0.0400  0.3711 -0.0916
    1DIPC   C1A21797   7.851   7.891   3.801 -0.2510  0.0261  0.0220
    1DIPC   D2A21798   7.498   8.137   4.036 -0.1930 -0.1026 -0.2674
    1DIPC   D3A21799   7.606   8.178   4.490  0.0193 -0.2390  0.3028
    1DIPC   C4A21800   7.313   8.253   4.778  0.3251  0.0352  0.0215
    1DIPC   C1B21801   8.127   7.571   4.082  0.0500 -0.0390 -0.4286
    1DIPC   D2B21802   7.738   7.748   4.346 -0.0911 -0.0340  0.0435
    1DIPC   D3B21803   7.898   7.891   4.767  0.0470  0.0314  0.2238
    1DIPC   C4B21804   8.276   7.809   4.837  0.1612  0.0255 -0.1275
    1DIPC   NC321805  23.254   0.529   3.001  0.1766 -0.0280 -0.1820
    1DIPC   PO421806  23.087   0.476   3.304 -0.1528 -0.0798 -0.0358
    1DIPC   GL121807  23.370   0.722   3.457 -0.3146  0.1465  0.2670
    1DIPC   GL221808  23.424   1.029   3.535  0.3195  0.1044 -0.0174
    1DIPC   C1A21809  23.516   0.589   3.872  0.1402 -0.0537 -0.3043
    1DIPC   D2A21810  23.232   0.444   4.314 -0.1265  0.0667  0.0446
    1DIPC   D3A21811  23.659   0.201   4.141 -0.0755 -0.0300 -0.1711
    1DIPC   C4A21812  23.950   0.242   3.755  0.4900 -0.1454 -0.2551
    1DIPC   C1B21813  23.335   1.436   3.677  0.3411 -0.1834 -0.0743
    1DIPC   D2B21814  23.598   1.829   3.719  0.0287 -0.2629 -0.1983
    1DIPC   D3B21815  23.813   2.088   3.951 -0.2330 -0.1335  0.1165
    1DIPC   C4B21816  23.892   2.467   3.662  0.0896 -0.0728  0.2755
    1DIPC   NC321817  11.771  26.182   3.198 -0.0351 -0.1741  0.2172
    1DIPC   PO421818  11.894  25.676   3.306 -0.0878 -0.1612  0.0695
    1DIPC   GL121819  11.925  25.835   3.709  0.6771 -0.1239  0.0430
    1DIPC   GL221820  11.670  25.926   3.717 -0.1250  0.6091 -0.2870
    1DIPC   C1A21821  12.099  25.701   4.145  0.0788 -0.0297 -0.0736
    1DIPC   D2A21822  12.009  25.873   4.613 -0.0883  0.1755 -0.1910
    1DIPC   D3A21823  11.542  25.719   4.878  0.0853  0.0689 -0.1628
    1DIPC   C4A21824  11.342  25.870   5.257 -0.0066  0.0244  0.0299
    1DIPC   C1B21825  11.628  26.210   4.093  0.2299  0.1226  0.0566
    1DIPC   D2B21826  11.698  26.257   4.487 -0.1354  0.1583  0.2518
    1DIPC   D3B21827  12.051  26.337   4.277  0.3227  0.0495 -0.0367
    1DIPC   C4B21828  12.116  26.755   4.082  0.0478  0.1468 -0.0605
    1DIPC   NC321829  19.116  26.932   3.343 -0.1581  0.0406  0.1072
    1DIPC   PO421830  18.843  27.268   3.495 -0.1038 -0.1123  0.0288
    1DIPC   GL121831  18.605  27.589   3.814  0.3746  0.0480  0.0661
    1DIPC   GL221832  18.406  27.329   3.860 -0.1082 -0.0336  0.0647
    1DIPC   C1A21833  18.809  27.581   4.208  0.0622  0.1988  0.1463
    1DIPC   D2A21834  18.707  27.409   4.614  0.0955 -0.1025  0.0513
    1DIPC   D3A21835  18.395  27.435   4.513  0.1281  0.1856  0.0233
    1DIPC   C4A21836  18.338  27.816   4.277  0.0393 -0.2518 -0.0921
    1DIPC   C1B21837  18.358  27.054   4.188  0.1469  0.1053 -0.2855
    1DIPC   D2B21838  18.183  26.684   4.271  0.0237  0.0432  0.2717
    1DIPC   D3B21839  17.819  26.667   4.366  0.2342 -0.1008  0.1091
    1DIPC   C4B21840  17.392  26.856   4.310  0.0625  0.1626 -0.0530
    1DIPC   NC321841   6.323  26.516   3.095 -0.3417  0.5082 -0.0352
    1DIPC   PO421842   6.634  26.798   3.254  0.0424  0.0114  0.1007
    1DIPC   GL121843   6.708  26.653   3.603  0.1715  0.1593 -0.2230
    1DIPC   GL221844   6.609  26.904   3.756 -0.2575 -0.0534  0.2973
    1DIPC   C1A21845   6.893  26.363   3.854 -0.0408 -0.3577 -0.0539
    1DIPC   D2A21846   6.991  26.340   4.293 -0.2509  0.0306  0.1145
    1DIPC   D3A21847   6.869  26.659   4.480  0.1611 -0.1578 -0.3254
    1DIPC   C4A21848   7.097  27.001   4.594 -0.1120 -0.0981  0.3700
    1DIPC   C1B21849   6.882  27.031   4.121 -0.1185  0.2933  0.1760
    1DIPC   D2B21850   7.292  27.145   4.093  0.0630  0.0773 -0.3794
    1DIPC   D3B21851   7.330  26.758   4.192 -0.4021 -0.1017 -0.3424
    1DIPC   C4B21852   7.611  26.664   4.515 -0.2119 -0.1143 -0.0195
    1DIPC   NC321853  26.245   4.170   2.938 -0.1954 -0.0939  0.3259
    1DIPC   PO421854  26.381   4.004   3.387  0.0950 -0.0463  0.0587
    1DIPC   GL121855  26.611   3.930   3.786  0.1346 -0.1507 -0.1795
    1DIPC   GL221856  26.878   4.060   3.650 -0.1556 -0.1420 -0.2060
    1DIPC   C1A21857  26.831   3.488   3.838 -0.0900 -0.4232 -0.1894
    1DIPC   D2A21858  27.076   3.207   3.961  0.0731 -0.0889 -0.6776
    1DIPC   D3A21859  27.139   3.477   4.265  0.1257  0.0862 -0.0831
    1DIPC   C4A21860  27.115   3.876   4.107  0.0408 -0.0919  0.1325
    1DIPC   C1B21861  27.168   4.448   3.694  0.4278  0.0050 -0.2740
    1DIPC   D2B21862  27.518   4.368   3.900 -0.0234 -0.3365 -0.0321
    1DIPC   D3B21863  27.159   4.335   4.207  0.0852 -0.1616  0.1130
    1DIPC   C4B21864  26.749   4.271   4.118 -0.1175 -0.3607 -0.1159
    1DIPC   NC321865  27.972  13.265   1.813 -0.2093  0.0675 -0.0903
    1DIPC   PO421866  28.114  13.690   1.979 -0.0497 -0.0031  0.0073
    1DIPC   GL121867  28.300  13.559   2.392  0.1954 -0.1813 -0.1850
    1DIPC   GL221868  28.246  13.576   2.744 -0.1399 -0.0940  0.2170
    1DIPC   C1A21869  28.661  13.313   2.608 -0.1745 -0.0477 -0.4089
    1DIPC   D2A21870  28.878  12.991   2.761 -0.0440  0.0727  0.1083
    1DIPC   D3A21871  28.515  12.640   2.873 -0.1225  0.1895  0.2828
    1DIPC   C4A21872  28.535  12.428   3.225  0.2615 -0.1775  0.2696
    1DIPC   C1B21873  28.477  13.361   3.065 -0.0759 -0.0098  0.3720
    1DIPC   D2B21874  28.683  13.549   3.438 -0.1045  0.1540  0.0453
    1DIPC   D3B21875  28.635  13.297   3.788 -0.0535  0.1696 -0.1273
    1DIPC   C4B21876  28.854  13.271   4.130 -0.2439  0.0209 -0.0219
    1DIPC   NC321877  21.689  14.505   2.495  0.0672  0.2266  0.2004
    1DIPC   PO421878  21.839  14.680   2.829  0.0783 -0.0955  0.2311
    1DIPC   GL121879  21.832  14.823   3.313 -0.1173 -0.0798  0.3665
    1DIPC   GL221880  21.536  14.920   3.274  0.0712  0.0170 -0.2345
    1DIPC   C1A21881  22.090  15.219   3.442 -0.4044  0.3130 -0.0316
    1DIPC   D2A21882  22.466  15.334   3.641 -0.2167  0.1114 -0.0531
    1DIPC   D3A21883  22.519  15.629   3.994  0.1339 -0.1259 -0.3082
    1DIPC   C4A21884  22.494  16.033   4.235 -0.0100 -0.0260 -0.3211
    1DIPC   C1B21885  21.346  15.097   3.678 -0.0089  0.1384 -0.1048
    1DIPC   D2B21886  21.237  15.384   4.021  0.0804  0.1563 -0.1097
    1DIPC   D3B21887  21.394  14.980   4.185  0.1869  0.1289 -0.1105
    1DIPC   C4B21888  21.720  14.908   4.472 -0.1918  0.4440 -0.0361
    1CHOL   ROH21889  16.149  17.882   6.906  0.2698  0.2232 -0.1776
    1CHOL    R121890  16.199  17.959   6.638  0.0890  0.1118 -0.2459
    1CHOL    R221891  16.129  17.802   6.422  0.0364 -0.0287 -0.1300
    1CHOL    R321892  16.001  18.028   6.341 -0.1068 -0.1236 -0.1727
    1CHOL    R421893  16.032  17.868   6.097  0.1438 -0.0758 -0.1718
    1CHOL    R521894  16.095  18.075   6.126 -0.0377 -0.0276 -0.1213
    1CHOL    C121895  15.856  18.118   5.831  0.0720 -0.1924 -0.2361
    1CHOL    C221896  15.743  18.217   5.479 -0.2589 -0.0122  0.1245
    1CHOL   ROH21897  17.164   7.144   6.891  0.1409 -0.0485  0.0420
    1CHOL    R121898  17.138   7.215   6.618  0.0951 -0.1734  0.0138
    1CHOL    R221899  17.220   7.460   6.520 -0.2716 -0.0680 -0.0376
    1CHOL    R321900  17.362   7.306   6.346  0.0227  0.1036  0.0426
    1CHOL    R421901  17.229   7.504   6.177 -0.2463 -0.1406 -0.0472
    1CHOL    R521902  17.221   7.288   6.154  0.0988 -0.1668  0.0054
    1CHOL    C121903  17.367   7.386   5.815  0.0447 -0.0217  0.0226
    1CHOL    C221904  17.323   7.490   5.417 -0.2445  0.0484 -0.1151
    1CHOL   ROH21905  11.968  16.733   6.503 -0.0722 -0.1341  0.1479
    1CHOL    R121906  12.126  16.702   6.271 -0.0105  0.0244  0.1676
    1CHOL    R221907  12.142  16.463   6.132  0.2228  0.0469  0.1525
    1CHOL    R321908  12.069  16.619   5.921  0.1130 -0.0026  0.1531
    1CHOL    R421909  12.129  16.358   5.803  0.2082  0.0130  0.1638
    1CHOL    R521910  12.213  16.550   5.743  0.1113  0.0468  0.1317
    1CHOL    C121911  12.053  16.443   5.414  0.0964 -0.0532  0.1709
    1CHOL    C221912  11.986  16.425   5.050  0.0555  0.1556 -0.1382
    1CHOL   ROH21913  13.502  25.067   6.807  0.1645  0.0903 -0.0131
    1CHOL    R121914  13.412  24.909   6.590  0.2691  0.0874 -0.0556
    1CHOL    R221915  13.145  24.892   6.519  0.2324 -0.3160  0.1386
    1CHOL    R321916  13.239  24.966   6.275 -0.0729  0.0248  0.1162
    1CHOL    R421917  13.026  24.774   6.217  0.1497 -0.2277  0.1368
    1CHOL    R521918  13.231  24.765   6.145  0.1044  0.1217 -0.0458
    1CHOL    C121919  13.044  24.775   5.812 -0.1853  0.1437  0.1147
    1CHOL    C221920  12.817  24.519   5.574 -0.1322  0.1418 -0.0720
    1CHOL   ROH21921  19.113  10.006   6.197  0.0333  0.1534 -0.0413
    1CHOL    R121922  19.025  10.104   5.946  0.3551  0.1494 -0.1598
    1CHOL    R221923  19.178  10.086   5.717  0.3387 -0.5924 -0.1316
    1CHOL    R321924  18.957   9.964   5.617 -0.0506 -0.0326 -0.0070
    1CHOL    R421925  19.071  10.109   5.389  0.4416 -0.6213 -0.1688
    1CHOL    R521926  18.866  10.123   5.462  0.4517  0.0974 -0.1918
    1CHOL    C121927  18.801  10.008   5.104  0.1359 -0.1126 -0.0734
    1CHOL    C221928  18.611  10.223   5.043  0.2608 -0.1876  0.2278
    1CHOL   ROH21929  16.570   9.718   6.640 -0.0446  0.1992  0.0701
    1CHOL    R121930  16.396   9.811   6.437  0.0014  0.1793  0.0216
    1CHOL    R221931  16.479   9.982   6.237  0.0803  0.0534 -0.0539
    1CHOL    R321932  16.377   9.789   6.074  0.0054  0.0208  0.0301
    1CHOL    R421933  16.484   9.992   5.891  0.1223 -0.1199 -0.0596
    1CHOL    R521934  16.282   9.910   5.891  0.0825 -0.0236 -0.0400
    1CHOL    C121935  16.392   9.817   5.538  0.0762 -0.2514  0.0161
    1CHOL    C221936  16.254   9.693   5.309 -0.0839 -0.0463 -0.1129
    1CHOL   ROH21937   0.287  14.289   4.083  0.0508 -0.0347 -0.2521
    1CHOL    R121938   0.154  14.532   4.144 -0.1115 -0.1386 -0.1842
    1CHOL    R221939   0.287  14.756   4.236 -0.2812 -0.1219  0.0335
    1CHOL    R321940   0.164  14.876   4.025 -0.2149 -0.0603  0.0300
    1CHOL    R421941   0.121  15.059   4.251 -0.1601 -0.0554  0.0333
    1CHOL    R521942  -0.032  14.976   4.120 -0.1821  0.0148  0.0169
    1CHOL    C121943  -0.091  15.348   4.062 -0.0273  0.0412  0.0300
    1CHOL    C221944  -0.379  15.569   3.876  0.1278 -0.1345  0.0336
    1CHOL   ROH21945  13.071  14.446   7.303 -0.2176 -0.0993 -0.0281
    1CHOL    R121946  12.997  14.399   7.034 -0.2353 -0.0580 -0.0303
    1CHOL    R221947  12.736  14.424   6.945 -0.2223  0.0603 -0.0321
    1CHOL    R321948  12.849  14.592   6.763 -0.1467  0.0159 -0.0272
    1CHOL    R421949  12.672  14.418   6.605 -0.0602 -0.0457 -0.0621
    1CHOL    R521950  12.884  14.454   6.570 -0.0436 -0.0403  0.0293
    1CHOL    C121951  12.741  14.572   6.236  0.1051 -0.1491 -0.0750
    1CHOL    C221952  12.764  14.478   5.863  0.0146  0.0132 -0.0895
    1CHOL   ROH21953  14.193  10.962   6.988  0.1405  0.0972  0.0731
    1CHOL    R121954  14.244  10.808   6.755 -0.1081 -0.1072  0.1489
    1CHOL    R221955  14.046  10.743   6.573 -0.1876  0.2929  0.0830
    1CHOL    R321956  14.218  10.856   6.396  0.1702 -0.1604  0.1192
    1CHOL    R421957  14.017  10.721   6.230 -0.1997  0.4088  0.0761
    1CHOL    R521958  14.233  10.696   6.218 -0.2502 -0.1983  0.1065
    1CHOL    C121959  14.161  10.815   5.863  0.1294  0.0508  0.1060
    1CHOL    C221960  14.025  11.087   5.620  0.1175  0.2595  0.0077
    1CHOL   ROH21961  20.127  17.732   3.445  0.2711 -0.2482  0.0066
    1CHOL    R121962  20.211  17.606   3.684  0.0970 -0.2251  0.0806
    1CHOL    R221963  20.296  17.749   3.905  0.0669 -0.2079  0.0770
    1CHOL    R321964  20.105  17.603   4.033 -0.0648 -0.0764  0.0350
    1CHOL    R421965  20.296  17.673   4.243 -0.1016 -0.1355  0.0952
    1CHOL    R521966  20.226  17.473   4.193 -0.1942 -0.1107  0.1100
    1CHOL    C121967  20.118  17.492   4.558 -0.3231  0.0301  0.0664
    1CHOL    C221968  19.860  17.418   4.898 -0.1474  0.0007 -0.1093
    1CHOL   ROH21969   6.320  11.974   4.300 -0.0884  0.1189  0.0082
    1CHOL    R121970   6.439  11.947   4.556 -0.2683  0.1407  0.0942
    1CHOL    R221971   6.697  12.028   4.610 -0.1640 -0.2334  0.1558
    1CHOL    R321972   6.577  12.169   4.809 -0.0400  0.1336 -0.0185
    1CHOL    R421973   6.856  12.147   4.894 -0.1517 -0.5361  0.2796
    1CHOL    R521974   6.680  12.091   5.009 -0.4327 -0.0742  0.1206
    1CHOL    C121975   6.835  12.348   5.245 -0.0280 -0.3676  0.1879
    1CHOL    C221976   7.032  12.243   5.544 -0.0707  0.0457 -0.2964
    1CHOL   ROH21977  17.597  10.237   3.160 -0.0847 -0.0860 -0.0365
    1CHOL    R121978  17.436  10.283   3.389 -0.1593 -0.1618 -0.0735
    1CHOL    R221979  17.430  10.109   3.603 -0.0142 -0.0918 -0.0128
    1CHOL    R321980  17.491  10.333   3.745 -0.2527  0.0215 -0.0834
    1CHOL    R421981  17.373  10.150   3.942  0.2323 -0.1753  0.0411
    1CHOL    R521982  17.311  10.355   3.901 -0.1506 -0.2739  0.0855
    1CHOL    C121983  17.398  10.384   4.272  0.1520 -0.1176  0.0061
    1CHOL    C221984  17.116  10.355   4.570 -0.3810  0.2146  0.0998
    1CHOL   ROH21985  10.954  19.031   3.101  0.2298 -0.0894  0.0063
    1CHOL    R121986  10.968  18.858   3.325 -0.0060 -0.0340  0.0664
    1CHOL    R221987  11.207  18.781   3.439 -0.1146 -0.2183  0.1734
    1CHOL    R321988  11.093  18.877   3.666 -0.1073 -0.0428  0.1047
    1CHOL    R421989  11.352  18.770   3.752 -0.1781 -0.1358  0.2061
    1CHOL    R521990  11.157  18.720   3.835 -0.2206  0.0084  0.1963
    1CHOL    C121991  11.329  18.854   4.148 -0.2083  0.0770  0.1607
    1CHOL    C221992  11.220  18.796   4.467 -0.0629 -0.0707 -0.0549
    1CHOL   ROH21993  12.243   5.084   4.488  0.0091  0.2275 -0.1784
    1CHOL    R121994  12.295   4.956   4.736 -0.1580  0.0586 -0.2283
    1CHOL    R221995  12.458   5.067   4.930 -0.0021 -0.2313 -0.1818
    1CHOL    R321996  12.240   5.029   5.088 -0.0581 -0.0018 -0.2013
    1CHOL    R421997  12.467   5.021   5.272 -0.1084 -0.1236 -0.1636
    1CHOL    R521998  12.311   4.870   5.252 -0.2223 -0.0011 -0.1345
    1CHOL    C121999  12.268   4.960   5.620 -0.2229  0.1546 -0.1713
    1CHOL    C222000  12.324   4.643   5.820  0.0465 -0.0991 -0.1871
    1CHOL   ROH22001  26.458  23.450   3.529 -0.1456 -0.0752 -0.1171
    1CHOL    R122002  26.315  23.499   3.769 -0.0937  0.0423 -0.1093
    1CHOL    R222003  26.286  23.308   3.966 -0.2141  0.0754 -0.0936
    1CHOL    R322004  26.390  23.502   4.125 -0.0638  0.0138 -0.1154
    1CHOL    R422005  26.231  23.334   4.306 -0.3074  0.2340 -0.1197
    1CHOL    R522006  26.215  23.550   4.282 -0.0698  0.2461 -0.1904
    1CHOL    C122007  26.297  23.531   4.654 -0.2204  0.2685 -0.1554
    1CHOL    C222008  26.568  23.608   4.931  0.2757  0.0188  0.0863
    1CHOL   ROH22009  11.651  20.785   6.329  0.0288  0.2252 -0.1960
    1CHOL    R122010  11.691  20.652   6.082 -0.0378  0.2110 -0.2021
    1CHOL    R222011  11.557  20.725   5.851 -0.1591  0.1547 -0.1663
    1CHOL    R322012  11.809  20.743   5.750 -0.2013  0.2193 -0.2544
    1CHOL    R422013  11.646  20.657   5.524 -0.1775 -0.1486 -0.1091
    1CHOL    R522014  11.826  20.560   5.597 -0.1003  0.0681 -0.0504
    1CHOL    C122015  11.934  20.634   5.239 -0.2278 -0.2644 -0.1586
    1CHOL    C222016  12.089  20.543   4.990  0.3761  0.3554  0.0890
    1CHOL   ROH22017  28.417  12.230   5.265 -0.0188 -0.1404  0.0173
    1CHOL    R122018  28.379  12.070   5.034 -0.2051 -0.1965  0.0835
    1CHOL    R222019  28.130  12.022   4.926 -0.2631  0.1089  0.0617
    1CHOL    R322020  28.245  12.118   4.699 -0.0797 -0.1541  0.0397
    1CHOL    R422021  28.010  11.968   4.607 -0.4107  0.3299  0.0788
    1CHOL    R522022  28.216  11.942   4.539 -0.4681 -0.1129  0.0597
    1CHOL    C122023  28.048  12.028   4.208 -0.3245  0.2118  0.0681
    1CHOL    C222024  27.857  12.038   3.892 -0.1088  0.0282  0.0195
    1CHOL   ROH22025  20.090   8.001   3.950 -0.0911  0.0022 -0.0037
    1CHOL    R122026  20.285   8.153   4.089 -0.1171 -0.0101  0.0469
    1CHOL    R222027  20.271   8.201   4.361 -0.1004 -0.1437  0.0729
    1CHOL    R322028  20.521   8.095   4.360 -0.0714 -0.0755 -0.0068
    1CHOL    R422029  20.500   8.233   4.617 -0.0443 -0.1230  0.0203
    1CHOL    R522030  20.656   8.260   4.468 -0.0892 -0.0565 -0.0143
    1CHOL    C122031  20.869   8.152   4.766  0.0153 -0.0469 -0.0851
    1CHOL    C222032  21.270   8.193   5.029 -0.0983 -0.1164 -0.2111
    1CHOL   ROH22033  18.932  10.562   2.819  0.3596 -0.0495  0.0262
    1CHOL    R122034  18.926  10.459   3.083  0.1263 -0.1299 -0.0084
    1CHOL    R222035  18.693  10.377   3.205  0.0123 -0.1374 -0.2286
    1CHOL    R322036  18.831  10.146   3.242 -0.0482 -0.1673 -0.1814
    1CHOL    R422037  18.621  10.139   3.445 -0.0608 -0.0793 -0.1916
    1CHOL    R522038  18.834  10.115   3.479 -0.0686 -0.1280 -0.1758
    1CHOL    C122039  18.709   9.783   3.619 -0.1607 -0.0735 -0.1257
    1CHOL    C222040  18.748   9.640   3.943 -0.1945 -0.3497  0.3130
    1CHOL   ROH22041  10.828  12.449   3.250 -0.0268 -0.0979 -0.0600
    1CHOL    R122042  10.815  12.527   3.522 -0.1023 -0.1054 -0.0593
    1CHOL    R222043  10.678  12.381   3.712  0.0157 -0.2279 -0.0541
    1CHOL    R322044  10.917  12.388   3.842  0.0124 -0.0186 -0.0600
    1CHOL    R422045  10.716  12.441   4.050  0.0127  0.1354 -0.1152
    1CHOL    R522046  10.891  12.563   4.004 -0.0317  0.1371 -0.2417
    1CHOL    C122047  10.962  12.482   4.370  0.0078  0.5436 -0.1563
    1CHOL    C222048  10.757  12.842   4.454 -0.1270  0.1048 -0.3272
    1CHOL   ROH22049  18.115  17.971   7.167 -0.0091 -0.0780  0.0783
    1CHOL    R122050  18.034  17.981   6.896  0.0060 -0.0686  0.0744
    1CHOL    R222051  18.194  18.085   6.696  0.0281 -0.0883  0.0829
    1CHOL    R322052  18.151  17.843   6.580  0.0049 -0.0828  0.0801
    1CHOL    R422053  18.163  18.031   6.356 -0.0571 -0.0696  0.0873
    1CHOL    R522054  18.003  17.890   6.398 -0.0428 -0.0762  0.1203
    1CHOL    C122055  18.104  17.773   6.049 -0.1285 -0.0535  0.0875
    1CHOL    C222056  17.953  17.635   5.716  0.0715  0.0675 -0.1909
    1CHOL   ROH22057   8.943  11.476   3.538 -0.0512  0.0501 -0.0041
    1CHOL    R122058   8.872  11.479   3.812  0.0008  0.2491  0.0090
    1CHOL    R222059   8.962  11.289   3.992 -0.3831  0.0641  0.0207
    1CHOL    R322060   9.046  11.507   4.130  0.1305 -0.0891 -0.0291
    1CHOL    R422061   9.056  11.287   4.324 -0.3056 -0.0824 -0.0012
    1CHOL    R522062   8.953  11.477   4.349  0.1152  0.1519 -0.0040
    1CHOL    C122063   9.190  11.490   4.648  0.2216 -0.3115 -0.0608
    1CHOL    C222064   9.196  11.291   4.954  0.3709 -0.1676 -0.1616
    1CHOL   ROH22065  11.181  12.219   3.562 -0.0940  0.0473 -0.0174
    1CHOL    R122066  11.309  12.161   3.808  0.1634  0.1265 -0.1268
    1CHOL    R222067  11.396  12.357   3.981 -0.0758  0.1882 -0.0674
    1CHOL    R322068  11.243  12.222   4.161  0.2646 -0.1896 -0.0506
    1CHOL    R422069  11.398  12.412   4.322 -0.2757  0.3067 -0.0842
    1CHOL    R522070  11.386  12.196   4.352  0.3200  0.2655 -0.0203
    1CHOL    C122071  11.257  12.316   4.690 -0.0725  0.0211 -0.0782
    1CHOL    C222072  11.435  12.505   4.957 -0.0536 -0.2304  0.0344
    1CHOL   ROH22073  11.103  21.475   6.222 -0.0468  0.0628 -0.1210
    1CHOL    R122074  11.234  21.428   5.976  0.0255 -0.0473 -0.0634
    1CHOL    R222075  11.351  21.185   5.914  0.0152 -0.0909  0.0620
    1CHOL    R322076  11.193  21.202   5.693  0.0829 -0.1484  0.0100
    1CHOL    R422077  11.449  21.101   5.593  0.2241  0.1723  0.0544
    1CHOL    R522078  11.340  21.275   5.520  0.0708  0.0928  0.1019
    1CHOL    C122079  11.357  21.069   5.199  0.4092  0.2715  0.0011
    1CHOL    C222080  11.471  20.755   5.047  0.0149  0.0970  0.0988
    1CHOL   ROH22081  16.360  18.820   3.548  0.1395  0.1557  0.1172
    1CHOL    R122082  16.237  18.915   3.785  0.1114  0.2572  0.0634
    1CHOL    R222083  16.286  18.803   4.033 -0.2420  0.0797  0.0620
    1CHOL    R322084  16.347  19.059   4.101  0.1132 -0.0353  0.1990
    1CHOL    R422085  16.221  18.946   4.341 -0.3780  0.1123  0.0183
    1CHOL    R522086  16.163  19.129   4.237  0.0594  0.2426 -0.0105
    1CHOL    C122087  16.240  19.269   4.583 -0.1239  0.0231  0.1215
    1CHOL    C222088  16.326  19.199   4.975 -0.0599  0.2238 -0.0427
    1CHOL   ROH22089   5.043  10.001   6.026 -0.0640  0.1081 -0.0221
    1CHOL    R122090   5.075  10.030   5.746 -0.0233  0.0682 -0.0221
    1CHOL    R222091   4.949   9.865   5.563  0.1125 -0.0486 -0.0156
    1CHOL    R322092   4.860  10.100   5.461 -0.0085 -0.1221 -0.0806
    1CHOL    R422093   4.832   9.908   5.241  0.1880 -0.1703 -0.0599
    1CHOL    R522094   4.937  10.099   5.234  0.0645 -0.1045 -0.0541
    1CHOL    C122095   4.680  10.155   4.957  0.1182 -0.3103 -0.1468
    1CHOL    C222096   4.415  10.406   4.751  0.1043 -0.0236 -0.0468
    1CHOL   ROH22097  16.796  18.715   6.724  0.2325  0.1282 -0.0083
    1CHOL    R122098  16.922  18.744   6.473  0.1499  0.4538 -0.0166
    1CHOL    R222099  16.887  18.564   6.267  0.6674  0.2963  0.0162
    1CHOL    R322100  16.816  18.786   6.127  0.0064  0.0849 -0.0218
    1CHOL    R422101  16.889  18.589   5.922  0.6799  0.2716  0.0146
    1CHOL    R522102  16.969  18.791   5.942  0.0544  0.5416  0.0193
    1CHOL    C122103  16.824  18.813   5.590  0.0667  0.0586 -0.0220
    1CHOL    C222104  16.475  18.869   5.319 -0.1180  0.0389 -0.0294
    1CHOL   ROH22105  13.726  13.279   6.689 -0.2509 -0.0518 -0.0443
    1CHOL    R122106  13.602  13.295   6.434 -0.0838  0.1031 -0.1187
    1CHOL    R222107  13.691  13.465   6.236  0.1856  0.0675 -0.0355
    1CHOL    R322108  13.700  13.237   6.089  0.0800  0.0848 -0.0693
    1CHOL    R422109  13.612  13.444   5.900  0.2975  0.1757 -0.0694
    1CHOL    R522110  13.512  13.254   5.941  0.1484  0.2398 -0.1384
    1CHOL    C122111  13.574  13.217   5.566  0.2637  0.2548 -0.1209
    1CHOL    C222112  13.480  13.332   5.247  0.0638 -0.3132 -0.0537
    1CHOL   ROH22113  15.152  19.461   3.593 -0.1270  0.1653 -0.0906
    1CHOL    R122114  15.104  19.356   3.852 -0.0574  0.1103 -0.1004
    1CHOL    R222115  15.062  19.517   4.072 -0.1598  0.0625 -0.0881
    1CHOL    R322116  14.835  19.369   4.097 -0.0652 -0.0876 -0.0956
    1CHOL    R422117  14.947  19.379   4.368 -0.2523  0.2772 -0.0209
    1CHOL    R522118  14.891  19.200   4.256 -0.0395  0.1157  0.1194
    1CHOL    C122119  14.667  19.159   4.562 -0.2175  0.2615  0.0110
    1CHOL    C222120  14.584  19.376   4.907  0.1701 -0.3529 -0.0859
    1CHOL   ROH22121  13.611  21.174   7.118  0.1187 -0.0631  0.1561
    1CHOL    R122122  13.624  21.045   6.866  0.1316 -0.0008  0.1252
    1CHOL    R222123  13.446  21.098   6.662  0.0537 -0.0534  0.1777
    1CHOL    R322124  13.672  21.146   6.520 -0.0030  0.1031  0.1371
    1CHOL    R422125  13.485  21.030   6.326  0.0413  0.0125  0.1619
    1CHOL    R522126  13.688  20.961   6.369  0.0887  0.1343  0.1130
    1CHOL    C122127  13.721  21.035   5.996 -0.0191  0.1976  0.1146
    1CHOL    C222128  13.727  20.970   5.604  0.0103  0.0658 -0.2847
    1CHOL   ROH22129  18.273  26.589   6.234 -0.0134 -0.0075  0.1443
    1CHOL    R122130  18.382  26.587   5.973  0.0904  0.0921  0.1860
    1CHOL    R222131  18.236  26.507   5.752  0.2459 -0.0383  0.1298
    1CHOL    R322132  18.311  26.750   5.656  0.0647  0.0315  0.1598
    1CHOL    R422133  18.198  26.610   5.424  0.1763 -0.0293  0.1401
    1CHOL    R522134  18.395  26.704   5.436  0.1066  0.1193  0.1559
    1CHOL    C122135  18.246  26.897   5.143 -0.0346  0.0415  0.1744
    1CHOL    C222136  18.195  27.011   4.759  0.0956  0.1350  0.1867
    1CHOL   ROH22137  17.154   8.651   4.920  0.0788 -0.1145 -0.1759
    1CHOL    R122138  16.876   8.628   4.871  0.0774 -0.1754 -0.1407
    1CHOL    R222139  16.762   8.402   4.760  0.1029 -0.2293 -0.0618
    1CHOL    R322140  16.606   8.410   4.982  0.1262 -0.1880 -0.0470
    1CHOL    R422141  16.472   8.219   4.804  0.0588 -0.1518 -0.0279
    1CHOL    R522142  16.382   8.394   4.898  0.1142 -0.1302 -0.0212
    1CHOL    C122143  16.156   8.121   5.039  0.0551 -0.0678  0.0057
    1CHOL    C222144  16.195   7.711   5.034 -0.0762  0.0310  0.1216
    1CHOL   ROH22145  17.219  13.187   6.759 -0.0040 -0.3003  0.0566
    1CHOL    R122146  17.156  13.319   6.516 -0.0566 -0.1569  0.1477
    1CHOL    R222147  17.327  13.320   6.299 -0.1698 -0.1555  0.0647
    1CHOL    R322148  17.109  13.223   6.169 -0.2904  0.0268  0.1241
    1CHOL    R422149  17.292  13.305   5.955 -0.2295 -0.1987  0.0719
    1CHOL    R522150  17.085  13.366   5.978 -0.1741  0.0146  0.0929
    1CHOL    C122151  17.068  13.205   5.633 -0.3774 -0.0528  0.1318
    1CHOL    C222152  16.905  13.031   5.343  0.0283  0.1777 -0.0260
    1CHOL   ROH22153  21.778  17.809   3.683  0.1207 -0.0588  0.1117
    1CHOL    R122154  21.742  17.778   3.962  0.0875 -0.1097  0.1026
    1CHOL    R222155  21.874  17.936   4.147  0.0232 -0.1030  0.1476
    1CHOL    R322156  21.622  17.984   4.237 -0.0030 -0.1792  0.1143
    1CHOL    R422157  21.791  18.006   4.475 -0.0800 -0.3760  0.1825
    1CHOL    R522158  21.614  17.881   4.452 -0.0707 -0.3572  0.0257
    1CHOL    C122159  21.506  18.093   4.750 -0.1648 -0.6063  0.1716
    1CHOL    C222160  21.596  18.137   5.211 -0.2960 -0.5308 -0.2181
    1CHOL   ROH22161  12.678   8.704   3.783  0.0748  0.1318 -0.0639
    1CHOL    R122162  12.582   8.655   4.045  0.0382 -0.0117 -0.1042
    1CHOL    R222163  12.633   8.419   4.180  0.2332  0.0160 -0.1323
    1CHOL    R322164  12.729   8.587   4.371 -0.0000  0.0784 -0.0669
    1CHOL    R422165  12.645   8.348   4.518  0.4091 -0.1428 -0.1693
    1CHOL    R522166  12.584   8.553   4.558  0.0829 -0.2535 -0.0537
    1CHOL    C122167  12.741   8.465   4.894  0.2926 -0.1766 -0.1296
    1CHOL    C222168  12.874   8.315   5.230 -0.0160  0.0409  0.2541
    1CHOL   ROH22169  10.517   0.883   4.003 -0.1172 -0.0264  0.0173
    1CHOL    R122170  10.576   0.885   4.280 -0.2342 -0.0750  0.0433
    1CHOL    R222171  10.424   0.748   4.465 -0.1961 -0.2724 -0.0678
    1CHOL    R322172  10.664   0.640   4.534 -0.1302 -0.0925 -0.0098
    1CHOL    R422173  10.506   0.631   4.781 -0.2204 -0.3101 -0.0754
    1CHOL    R522174  10.704   0.720   4.756 -0.2848 -0.1337  0.0324
    1CHOL    C122175  10.778   0.463   5.028 -0.1728 -0.1631 -0.0254
    1CHOL    C222176  10.910   0.441   5.369  0.1152  0.0182 -0.0549
    1CHOL   ROH22177  25.725  21.641   3.643  0.0643  0.0553 -0.0880
    1CHOL    R122178  25.647  21.820   3.848  0.0260 -0.0151 -0.0384
    1CHOL    R222179  25.610  21.740   4.109 -0.0040 -0.1036 -0.0622
    1CHOL    R322180  25.787  21.939   4.162 -0.0195 -0.1128  0.0171
    1CHOL    R422181  25.661  21.881   4.421 -0.2070 -0.0242 -0.0649
    1CHOL    R522182  25.676  22.076   4.324 -0.1135 -0.0568 -0.1014
    1CHOL    C122183  25.857  22.151   4.651 -0.3399  0.0133  0.0079
    1CHOL    C222184  25.922  22.390   4.921 -0.0042  0.1697 -0.4545
    1CHOL   ROH22185   9.969   2.257   6.925  0.1042  0.0608  0.0044
    1CHOL    R122186   9.853   2.360   6.688  0.0847 -0.0197 -0.0219
    1CHOL    R222187   9.736   2.198   6.497  0.0016 -0.0798  0.0762
    1CHOL    R322188   9.523   2.364   6.535  0.0548 -0.0042  0.0442
    1CHOL    R422189   9.488   2.257   6.264  0.0081 -0.0559  0.0754
    1CHOL    R522190   9.491   2.467   6.321  0.0763 -0.0452  0.0232
    1CHOL    C122191   9.144   2.447   6.163  0.0619  0.0289  0.0450
    1CHOL    C222192   9.243   2.441   5.795  0.1605  0.1824  0.0204
    1CHOL   ROH22193  15.014  13.353   3.415 -0.1192 -0.1632  0.0222
    1CHOL    R122194  14.936  13.484   3.654 -0.1040 -0.2157  0.0559
    1CHOL    R222195  14.795  13.356   3.854  0.0735 -0.3145  0.1209
    1CHOL    R322196  15.000  13.443   4.010  0.0842 -0.1703  0.0283
    1CHOL    R422197  14.776  13.407   4.195  0.1861 -0.3078  0.1264
    1CHOL    R522198  14.897  13.587   4.170  0.0574 -0.2293  0.0642
    1CHOL    C122199  14.958  13.518   4.540  0.2616 -0.1685  0.0426
    1CHOL    C222200  14.841  13.476   4.890  0.1587  0.4301 -0.0143
    1CHOL   ROH22201  16.406  12.966   3.567 -0.0247  0.0112 -0.0992
    1CHOL    R122202  16.270  12.973   3.815  0.0602  0.0363 -0.0538
    1CHOL    R222203  16.148  12.751   3.924 -0.0149  0.0790 -0.0541
    1CHOL    R322204  16.303  12.811   4.139  0.0852 -0.0363 -0.0922
    1CHOL    R422205  16.071  12.669   4.251 -0.0223  0.1850 -0.0279
    1CHOL    R522206  16.146  12.864   4.312  0.1682  0.1265 -0.0647
    1CHOL    C122207  16.172  12.676   4.643  0.0672  0.1384 -0.0484
    1CHOL    C222208  16.136  12.805   5.018 -0.2478  0.3536 -0.1242
    1CHOL   ROH22209  13.233  11.017   7.016 -0.1107 -0.0006 -0.0758
    1CHOL    R122210  13.102  10.932   6.780 -0.0763  0.2570 -0.1937
    1CHOL    R222211  13.098  11.084   6.549  0.4318  0.2780 -0.2119
    1CHOL    R322212  13.199  10.858   6.437  0.0935  0.0687 -0.1051
    1CHOL    R422213  13.118  11.024   6.209  0.3910  0.0920 -0.1812
    1CHOL    R522214  13.058  10.818   6.247  0.0627  0.2042 -0.1036
    1CHOL    C122215  13.224  10.777   5.906  0.0496 -0.2129 -0.0630
    1CHOL    C222216  13.063  10.531   5.634 -0.1691 -0.3006 -0.0628
    1CHOL   ROH22217  22.378  14.219   3.310  0.1260  0.2133 -0.0246
    1CHOL    R122218  22.415  14.138   3.579  0.0715  0.0762 -0.0577
    1CHOL    R222219  22.566  14.283   3.759  0.0167 -0.0031  0.0537
    1CHOL    R322220  22.339  14.272   3.909 -0.0168 -0.1029 -0.0035
    1CHOL    R422221  22.558  14.284   4.104 -0.0747  0.1298  0.0520
    1CHOL    R522222  22.399  14.135   4.096  0.0317  0.0129  0.0676
    1CHOL    C122223  22.341  14.274   4.446 -0.1594  0.1136 -0.0027
    1CHOL    C222224  22.301  14.066   4.595  0.1576  0.0107  0.2267
    1CHOL   ROH22225   5.959   3.088   6.182 -0.0584 -0.1725  0.0674
    1CHOL    R122226   5.960   3.033   5.904 -0.0692 -0.0781  0.0488
    1CHOL    R222227   6.189   2.957   5.769 -0.0823 -0.0618  0.0210
    1CHOL    R322228   6.034   2.748   5.691 -0.1099 -0.0153 -0.0511
    1CHOL    R422229   6.259   2.751   5.501 -0.0451 -0.0468  0.0188
    1CHOL    R522230   6.046   2.752   5.451 -0.0317  0.0112 -0.0488
    1CHOL    C122231   6.155   2.433   5.272 -0.0493  0.0056 -0.0500
    1CHOL    C222232   6.450   2.409   5.024  0.0417 -0.1174  0.0397
    1CHOL   ROH22233  27.528  17.775   5.364 -0.0985  0.0455  0.0281
    1CHOL    R122234  27.288  17.900   5.279 -0.0297  0.2069  0.0664
    1CHOL    R222235  27.281  18.161   5.189  0.1823  0.1255 -0.2079
    1CHOL    R322236  27.162  18.048   4.972 -0.0877  0.0107 -0.0050
    1CHOL    R422237  27.091  18.333   4.957  0.1974  0.0693 -0.2614
    1CHOL    R522238  26.953  18.164   4.952  0.0175  0.2048  0.0186
    1CHOL    C122239  26.869  18.327   4.618 -0.0475 -0.0714 -0.1021
    1CHOL    C222240  26.900  18.552   4.316 -0.1291  0.0098  0.0221
    1CHOL   ROH22241   4.951  25.606   5.435  0.0890 -0.2546 -0.1758
    1CHOL    R122242   4.848  25.749   5.213  0.1704 -0.1022 -0.1161
    1CHOL    R222243   4.979  25.759   4.970  0.1003 -0.2068 -0.1533
    1CHOL    R322244   4.741  25.669   4.874 -0.0355  0.0754 -0.0969
    1CHOL    R422245   4.882  25.773   4.638  0.2138 -0.4375 -0.1988
    1CHOL    R522246   4.681  25.827   4.704  0.2775 -0.0147 -0.3064
    1CHOL    C122247   4.602  25.695   4.355  0.1523 -0.3069 -0.1723
    1CHOL    C222248   4.492  25.623   4.062 -0.2117 -0.0876 -0.1856
    1CHOL   ROH22249  25.965   9.185   5.012  0.1712  0.2856 -0.0125
    1CHOL    R122250  25.925   9.123   4.738  0.0894  0.2458  0.0071
    1CHOL    R222251  26.090   9.218   4.538  0.1038  0.1185 -0.0469
    1CHOL    R322252  26.113   8.955   4.476 -0.0423  0.0927  0.0100
    1CHOL    R422253  26.169   9.096   4.225  0.0351  0.0091 -0.0206
    1CHOL    R522254  26.022   8.938   4.255 -0.0520  0.0966  0.0144
    1CHOL    C122255  26.237   8.777   3.984 -0.1419 -0.0789  0.0482
    1CHOL    C222256  26.131   8.791   3.601 -0.0195 -0.1787 -0.0448
    1CHOL   ROH22257  26.083  15.824   4.191  0.0235 -0.0390  0.0989
    1CHOL    R122258  26.159  16.059   4.329  0.2318  0.0623 -0.1774
    1CHOL    R222259  26.177  16.306   4.205 -0.2258  0.0303 -0.3298
    1CHOL    R322260  26.008  16.382   4.405  0.2152 -0.0025  0.0708
    1CHOL    R422261  26.169  16.621   4.348 -0.1529  0.1213 -0.5252
    1CHOL    R522262  26.141  16.526   4.542  0.4485  0.2226 -0.3712
    1CHOL    C122263  26.007  16.875   4.618  0.3034  0.1435 -0.2629
    1CHOL    C222264  26.250  17.146   4.693 -0.1281  0.1587  0.0665
    1CHOL   ROH22265  25.848  22.218   5.370  0.0894  0.1297  0.2771
    1CHOL    R122266  25.671  22.029   5.258  0.1005  0.1019  0.3095
    1CHOL    R222267  25.718  21.907   5.014 -0.0173  0.2554  0.2163
    1CHOL    R322268  25.686  21.679   5.158  0.1960  0.1574  0.1162
    1CHOL    R422269  25.700  21.589   4.880 -0.2163  0.3489  0.0124
    1CHOL    R522270  25.543  21.543   5.023 -0.0129  0.2542  0.2242
    1CHOL    C122271  25.660  21.190   4.937 -0.1319  0.3113 -0.2003
    1CHOL    C222272  25.554  20.814   4.746  0.3195 -0.2941  0.1442
    1CHOL   ROH22273   4.229   7.221   6.173  0.1631 -0.2846 -0.1003
    1CHOL    R122274   4.298   7.212   5.898  0.0629 -0.3518 -0.1241
    1CHOL    R222275   4.169   7.047   5.719 -0.1461 -0.2429 -0.0793
    1CHOL    R322276   4.132   7.279   5.582  0.0136 -0.2104 -0.0689
    1CHOL    R422277   4.053   7.068   5.394 -0.0028 -0.1544 -0.1252
    1CHOL    R522278   4.198   7.226   5.357  0.0831 -0.2143 -0.0474
    1CHOL    C122279   3.950   7.297   5.076  0.2304 -0.0724 -0.1423
    1CHOL    C222280   3.740   7.097   4.831  0.0378 -0.1047 -0.0965
    1CHOL   ROH22281   5.594  10.344   3.737  0.0942  0.0629 -0.0093
    1CHOL    R122282   5.493  10.272   3.991  0.1124  0.0011 -0.0195
    1CHOL    R222283   5.525  10.019   4.098  0.1440 -0.0167 -0.0714
    1CHOL    R322284   5.631  10.156   4.307  0.1378 -0.0474 -0.0481
    1CHOL    R422285   5.656   9.874   4.382  0.3488 -0.0690 -0.1905
    1CHOL    R522286   5.563  10.032   4.500  0.2923 -0.1836 -0.0790
    1CHOL    C122287   5.832   9.918   4.745  0.4621 -0.1282 -0.2381
    1CHOL    C222288   6.218   9.855   4.862  0.2269  0.1423 -0.0511
    1CHOL   ROH22289  19.571   5.102   4.089  0.0104  0.0208 -0.0971
    1CHOL    R122290  19.495   5.124   4.360 -0.1187 -0.0274 -0.1289
    1CHOL    R222291  19.665   5.219   4.556 -0.1589 -0.2049 -0.0052
    1CHOL    R322292  19.460   5.391   4.605 -0.0767 -0.0913 -0.0526
    1CHOL    R422293  19.667   5.464   4.800 -0.1004 -0.2380  0.0279
    1CHOL    R522294  19.459   5.415   4.844 -0.1445 -0.1226 -0.0497
    1CHOL    C122295  19.476   5.767   4.989  0.0110 -0.1507  0.0027
    1CHOL    C222296  19.668   5.964   5.120 -0.5007 -0.0244 -0.0552
    1CHOL   ROH22297  28.573   0.591   6.198 -0.2401  0.0997 -0.0076
    1CHOL    R122298  28.562   0.325   6.103 -0.1778  0.0600  0.0940
    1CHOL    R222299  28.489   0.112   6.264 -0.2248  0.1168  0.1498
    1CHOL    R322300  28.307   0.068   6.067 -0.1407  0.0234  0.0930
    1CHOL    R422301  28.287  -0.168   6.240 -0.0113 -0.0299  0.0372
    1CHOL    R522302  28.321  -0.168   6.025  0.0456  0.0412  0.0459
    1CHOL    C122303  27.999  -0.372   6.040  0.1921 -0.2031 -0.0817
    1CHOL    C222304  27.793  -0.425   6.231 -0.0129 -0.0955  0.3291
    1CHOL   ROH22305  11.426   5.815   5.519 -0.1918  0.0409  0.0074
    1CHOL    R122306  11.528   6.056   5.411 -0.1769 -0.0195 -0.1152
    1CHOL    R222307  11.477   6.303   5.524 -0.1032  0.0352 -0.1994
    1CHOL    R322308  11.748   6.323   5.522 -0.0999 -0.0136 -0.2787
    1CHOL    R422309  11.654   6.597   5.570 -0.0361  0.0004 -0.2339
    1CHOL    R522310  11.792   6.532   5.414 -0.0940 -0.0151 -0.2787
    1CHOL    C122311  12.011   6.787   5.595  0.0063 -0.0657 -0.3284
    1CHOL    C222312  12.213   7.001   5.959  0.5847  0.1241 -0.0994
    1CHOL   ROH22313  21.256  12.681   3.646  0.1115 -0.0255  0.1874
    1CHOL    R122314  21.378  12.858   3.829  0.0801 -0.0216  0.2054
    1CHOL    R222315  21.251  13.084   3.925  0.0766  0.0003  0.1526
    1CHOL    R322316  21.311  12.977   4.167  0.0001  0.0139  0.1773
    1CHOL    R422317  21.284  13.265   4.218 -0.0568  0.0124  0.1601
    1CHOL    R522318  21.454  13.139   4.270 -0.0595  0.0358  0.2267
    1CHOL    C122319  21.360  13.269   4.616 -0.2063  0.0323  0.1877
    1CHOL    C222320  21.391  13.201   4.944  0.0232  0.2445  0.1944
    1CHOL   ROH22321  20.273  10.155   3.340 -0.2451  0.0757 -0.1422
    1CHOL    R122322  20.338  10.306   3.571 -0.2771  0.2223 -0.2301
    1CHOL    R222323  20.153  10.465   3.701 -0.4563 -0.1659 -0.0219
    1CHOL    R322324  20.227  10.318   3.918  0.1196  0.0054 -0.0837
    1CHOL    R422325  20.096  10.554   4.030 -0.7238 -0.4274  0.0084
    1CHOL    R522326  20.295  10.481   4.080 -0.4089  0.2408 -0.0565
    1CHOL    C122327  20.133  10.468   4.425 -0.3388 -0.4188 -0.0320
    1CHOL    C222328  20.262  10.701   4.786 -0.3509 -0.1208  0.2057
    1CHOL   ROH22329  14.037  16.729   6.937 -0.0176  0.1622 -0.0104
    1CHOL    R122330  14.138  16.654   6.683 -0.0309 -0.0641  0.0491
    1CHOL    R222331  13.977  16.547   6.485 -0.0940  0.0050  0.0635
    1CHOL    R322332  14.080  16.750   6.337  0.1532 -0.1696 -0.0128
    1CHOL    R422333  13.937  16.582   6.144 -0.2138  0.0226  0.0789
    1CHOL    R522334  14.145  16.647   6.131 -0.1118 -0.3029 -0.0348
    1CHOL    C122335  14.010  16.793   5.806 -0.0516 -0.1311  0.0161
    1CHOL    C222336  14.167  16.507   5.551 -0.2012  0.0258 -0.1421
    1CHOL   ROH22337  13.379  22.212   6.775 -0.1076  0.1617  0.1577
    1CHOL    R122338  13.351  22.349   6.530 -0.1804  0.0745  0.1172
    1CHOL    R222339  13.166  22.551   6.493  0.0474  0.3020  0.2132
    1CHOL    R322340  13.384  22.693   6.413  0.1578 -0.0234 -0.0902
    1CHOL    R422341  13.184  22.739   6.203 -0.2199  0.5634  0.3601
    1CHOL    R522342  13.388  22.666   6.175 -0.3948  0.2029 -0.1413
    1CHOL    C122343  13.400  22.981   5.960 -0.2718  0.4099  0.1608
    1CHOL    C222344  13.282  22.955   5.649  0.0955  0.1994 -0.3353
    1CHOL   ROH22345  16.695  18.609   3.845 -0.1958  0.0983  0.0232
    1CHOL    R122346  16.632  18.438   4.062 -0.1249 -0.0285 -0.0553
    1CHOL    R222347  16.825  18.334   4.230 -0.1009  0.1646  0.0360
    1CHOL    R322348  16.670  18.445   4.424 -0.3554 -0.0654 -0.0280
    1CHOL    R422349  16.802  18.219   4.555 -0.0125  0.1635  0.0422
    1CHOL    R522350  16.588  18.259   4.549 -0.0851 -0.1945 -0.0329
    1CHOL    C122351  16.644  18.257   4.927 -0.1999 -0.0531 -0.0142
    1CHOL    C222352  16.714  18.314   5.326 -0.3817 -0.1638 -0.0220
    1CHOL   ROH22353  14.834  11.817   6.694  0.0990 -0.0326  0.0478
    1CHOL    R122354  14.931  11.763   6.434 -0.0031 -0.1482  0.0323
    1CHOL    R222355  14.786  11.619   6.248 -0.2134  0.0369  0.0456
    1CHOL    R322356  14.828  11.838   6.093  0.0420 -0.0073  0.0496
    1CHOL    R422357  14.725  11.634   5.908 -0.1653  0.1065  0.0404
    1CHOL    R522358  14.909  11.749   5.886 -0.0366 -0.0955  0.0576
    1CHOL    C122359  14.729  11.849   5.564  0.1024  0.1054  0.0410
    1CHOL    C222360  14.680  11.770   5.166  0.1102  0.1996  0.2351
    1CHOL   ROH22361  18.238  11.453   3.206  0.0873 -0.0918 -0.0352
    1CHOL    R122362  18.313  11.331   3.450  0.0384 -0.0465  0.0028
    1CHOL    R222363  18.449  11.466   3.649  0.0986 -0.0404 -0.0420
    1CHOL    R322364  18.243  11.380   3.803  0.0633  0.0960 -0.0119
    1CHOL    R422365  18.444  11.475   3.994  0.0561  0.1758 -0.0465
    1CHOL    R522366  18.349  11.279   3.993  0.0192  0.1937  0.0649
    1CHOL    C122367  18.248  11.399   4.340 -0.0016  0.4298 -0.0209
    1CHOL    C222368  18.466  11.342   4.637 -0.1897  0.1065  0.3875
    1CHOL   ROH22369  14.020  25.179   6.711  0.0946 -0.2500  0.0423
    1CHOL    R122370  14.032  25.079   6.446  0.0859 -0.3461  0.0796
    1CHOL    R222371  14.254  25.112   6.284 -0.0554 -0.0976 -0.0546
    1CHOL    R322372  14.238  24.842   6.262  0.3208 -0.1359  0.0609
    1CHOL    R422373  14.370  24.929   6.016 -0.3582  0.0354 -0.2840
    1CHOL    R522374  14.193  24.804   6.031 -0.1479 -0.2524  0.1547
    1CHOL    C122375  14.424  24.568   5.838 -0.1816  0.0770 -0.3090
    1CHOL    C222376  14.412  24.273   5.650 -0.0561  0.0159 -0.1693
    1CHOL   ROH22377  15.360  14.576   6.704  0.0302  0.1469 -0.0372
    1CHOL    R122378  15.442  14.627   6.438  0.1665  0.0870 -0.0082
    1CHOL    R222379  15.582  14.443   6.288  0.0918 -0.0179  0.0428
    1CHOL    R322380  15.380  14.483   6.110  0.1823  0.1278 -0.0282
    1CHOL    R422381  15.586  14.340   5.958  0.0195 -0.2683  0.1183
    1CHOL    R522382  15.492  14.529   5.903  0.2887 -0.1775 -0.0409
    1CHOL    C122383  15.399  14.318   5.599  0.0625 -0.2776  0.0957
    1CHOL    C222384  15.172  14.330   5.291 -0.1637  0.1731  0.2589
    1CHOL   ROH22385  10.826  22.668   5.689 -0.2544  0.1750 -0.0078
    1CHOL    R122386  10.800  22.637   5.409 -0.1526  0.0924 -0.0089
    1CHOL    R222387  10.972  22.757   5.230 -0.0379 -0.0276  0.0203
    1CHOL    R322388  11.002  22.503   5.138 -0.0904 -0.0688  0.1151
    1CHOL    R422389  11.056  22.674   4.905  0.1340 -0.1573  0.0965
    1CHOL    R522390  10.913  22.510   4.915  0.0535 -0.0924  0.0541
    1CHOL    C122391  11.133  22.387   4.629  0.1851 -0.2714  0.2299
    1CHOL    C222392  11.080  22.068   4.362  0.3306 -0.0769  0.0430
    1CHOL   ROH22393   4.820  20.554   2.937 -0.0304 -0.0843  0.4324
    1CHOL    R122394   4.995  20.368   3.058 -0.0013 -0.1801  0.2479
    1CHOL    R222395   5.130  20.175   2.913  0.1819  0.1021  0.0215
    1CHOL    R322396   5.348  20.283   3.033  0.0568  0.0440  0.3076
    1CHOL    R422397   5.419  20.001   2.990  0.2560  0.1608 -0.1226
    1CHOL    R522398   5.428  20.110   3.179  0.0956 -0.1451  0.0621
    1CHOL    C122399   5.792  20.002   3.148  0.1818  0.1404  0.0620
    1CHOL    C222400   5.954  19.761   3.401 -0.2513  0.0534 -0.1616
    1CHOL   ROH22401  19.988   9.384   6.226 -0.0945 -0.2622 -0.0936
    1CHOL    R122402  19.939   9.298   5.960  0.0076 -0.2135 -0.1292
    1CHOL    R222403  19.937   9.473   5.746 -0.0450 -0.1494 -0.0819
    1CHOL    R322404  20.120   9.299   5.645  0.0751 -0.0198 -0.0901
    1CHOL    R422405  20.052   9.475   5.420 -0.0690 -0.0875 -0.0898
    1CHOL    R522406  20.044   9.257   5.421  0.0921 -0.0894 -0.0792
    1CHOL    C122407  20.290   9.313   5.135  0.0299  0.0701 -0.1021
    1CHOL    C222408  20.362   9.291   4.796  0.1407 -0.1160  0.2164
    1CHOL   ROH22409  22.656  11.900   3.792 -0.0055  0.1892  0.1073
    1CHOL    R122410  22.646  11.869   4.073 -0.0171  0.2197  0.1104
    1CHOL    R222411  22.871  11.826   4.226 -0.0343  0.1294  0.1127
    1CHOL    R322412  22.780  12.043   4.363  0.0665  0.1848  0.0929
    1CHOL    R422413  22.943  11.896   4.557 -0.2309 -0.0252  0.1896
    1CHOL    R522414  22.736  11.960   4.583 -0.1915  0.1695  0.0387
    1CHOL    C122415  22.899  12.140   4.878 -0.2504 -0.0634  0.2157
    1CHOL    C222416  23.146  12.198   5.253 -0.1180  0.0326 -0.1429
    1CHOL   ROH22417  12.408   9.984   6.982  0.1739  0.0868 -0.0364
    1CHOL    R122418  12.367  10.089   6.722  0.1070  0.0781 -0.0296
    1CHOL    R222419  12.570  10.110   6.536  0.0373 -0.0280 -0.1205
    1CHOL    R322420  12.398   9.969   6.380 -0.0917  0.0288 -0.0312
    1CHOL    R422421  12.585  10.092   6.192 -0.1147 -0.0852 -0.1251
    1CHOL    R522422  12.368  10.106   6.186 -0.1098  0.0135 -0.0378
    1CHOL    C122423  12.433   9.949   5.844 -0.3243 -0.0652 -0.0440
    1CHOL    C222424  12.491   9.769   5.609  0.1472  0.1568 -0.0920
    1CHOL   ROH22425   6.750  28.093   3.892  0.0763 -0.1953  0.1014
    1CHOL    R122426   6.613  27.945   4.091  0.1125 -0.1137  0.1896
    1CHOL    R222427   6.733  27.869   4.329  0.1307  0.0616  0.2445
    1CHOL    R322428   6.519  27.994   4.439  0.0946  0.0747  0.1573
    1CHOL    R422429   6.643  27.851   4.662  0.0404  0.1480  0.2241
    1CHOL    R522430   6.435  27.839   4.600  0.0621  0.1178  0.1758
    1CHOL    C122431   6.389  27.958   4.959 -0.0461  0.2109  0.1303
    1CHOL    C222432   6.081  27.837   5.238  0.3365  0.0179  0.0624
    1CHOL   ROH22433  15.067  22.568   6.865 -0.0704  0.1297 -0.0888
    1CHOL    R122434  15.100  22.617   6.588 -0.0706  0.1111 -0.0921
    1CHOL    R222435  14.987  22.835   6.460  0.0128  0.1584 -0.0867
    1CHOL    R322436  15.243  22.881   6.381  0.0272  0.0469 -0.1068
    1CHOL    R422437  15.078  23.012   6.178  0.0696  0.0634 -0.1282
    1CHOL    R522438  15.236  22.865   6.143  0.0138 -0.0017 -0.1028
    1CHOL    C122439  15.372  23.157   5.939  0.1163 -0.0966 -0.1714
    1CHOL    C222440  15.586  23.277   5.636  0.0335  0.0204 -0.0091
    1CHOL   ROH22441  13.813  15.135   6.751 -0.0005  0.0161 -0.0247
    1CHOL    R122442  13.718  15.273   6.522  0.0102  0.0505 -0.0092
    1CHOL    R222443  13.865  15.469   6.395  0.0455  0.0258 -0.0136
    1CHOL    R322444  13.823  15.314   6.176 -0.0098  0.0436 -0.0151
    1CHOL    R422445  13.904  15.575   6.068  0.0819  0.0099 -0.0140
    1CHOL    R522446  13.724  15.462   6.016  0.0445  0.0764 -0.0147
    1CHOL    C122447  13.887  15.490   5.672  0.0513  0.0173 -0.0157
    1CHOL    C222448  13.716  15.448   5.477 -0.1776 -0.0247  0.1193
    1CHOL   ROH22449  13.728  16.351   3.242 -0.1296 -0.2525  0.0211
    1CHOL    R122450  13.579  16.415   3.474 -0.1325 -0.2341  0.0150
    1CHOL    R222451  13.533  16.232   3.676  0.0120 -0.1699  0.1121
    1CHOL    R322452  13.640  16.426   3.833 -0.0800 -0.0274 -0.0002
    1CHOL    R422453  13.498  16.250   4.020  0.1045 -0.0485  0.1150
    1CHOL    R522454  13.474  16.466   4.000 -0.0554 -0.0756  0.0325
    1CHOL    C122455  13.579  16.444   4.367  0.0720  0.1558  0.0113
    1CHOL    C222456  13.575  16.453   4.711 -0.4164  0.0297 -0.0857
    1CHOL   ROH22457  11.604  16.544   6.612  0.1274  0.0597 -0.0474
    1CHOL    R122458  11.520  16.530   6.342  0.0144  0.0040 -0.0107
    1CHOL    R222459  11.636  16.679   6.142 -0.1452  0.0538 -0.0757
    1CHOL    R322460  11.668  16.437   6.023 -0.0777  0.0603 -0.0686
    1CHOL    R422461  11.613  16.621   5.802 -0.1788  0.0167 -0.0665
    1CHOL    R522462  11.507  16.435   5.846 -0.1013 -0.0137 -0.0405
    1CHOL    C122463  11.630  16.359   5.493 -0.1348  0.0012 -0.0544
    1CHOL    C222464  11.462  16.434   5.215  0.0905 -0.2282 -0.2564
    1CHOL   ROH22465   8.317   9.340   3.866 -0.0434 -0.1827  0.1077
    1CHOL    R122466   8.362   9.263   4.135  0.3046 -0.0786  0.0841
    1CHOL    R222467   8.560   9.376   4.291  0.0466  0.5151  0.0094
    1CHOL    R322468   8.353   9.424   4.461 -0.0481 -0.1197  0.0975
    1CHOL    R422469   8.592   9.429   4.631 -0.0063  0.4359  0.0275
    1CHOL    R522470   8.414   9.308   4.662  0.3176 -0.0644  0.0234
    1CHOL    C122471   8.417   9.505   4.989 -0.1260 -0.2060  0.1208
    1CHOL    C222472   8.464   9.838   5.172  0.1647  0.0257 -0.1626
    1CHOL   ROH22473   0.181  13.493   5.427  0.0162 -0.0051 -0.1091
    1CHOL    R122474   0.208  13.415   5.156 -0.1346 -0.0497 -0.1117
    1CHOL    R222475   0.031  13.494   4.959 -0.0497  0.2058 -0.0846
    1CHOL    R322476   0.256  13.582   4.836  0.0637 -0.1219 -0.1218
    1CHOL    R422477   0.053  13.579   4.625 -0.0608  0.4305 -0.0302
    1CHOL    R522478   0.248  13.482   4.618 -0.2375  0.0596 -0.2016
    1CHOL    C122479   0.278  13.711   4.315  0.0391  0.2538 -0.0334
    1CHOL    C222480   0.124  13.792   3.946 -0.0350  0.0861  0.0882
    1CHOL   ROH22481  17.234  16.386   6.953 -0.1557  0.2994 -0.1048
    1CHOL    R122482  17.357  16.535   6.746 -0.0460  0.1926 -0.1183
    1CHOL    R222483  17.603  16.467   6.640 -0.0248  0.0891 -0.0120
    1CHOL    R322484  17.468  16.471   6.405  0.0531  0.0379 -0.0577
    1CHOL    R422485  17.746  16.525   6.331  0.0998 -0.1352  0.0025
    1CHOL    R522486  17.573  16.645   6.278  0.1768 -0.0773 -0.1132
    1CHOL    C122487  17.702  16.561   5.929  0.2458 -0.3137 -0.0320
    1CHOL    C222488  17.727  16.755   5.612  0.1486  0.1895 -0.2483
    1CHOL   ROH22489  10.061  21.245   3.041  0.1159  0.0081 -0.0909
    1CHOL    R122490   9.978  21.147   3.293  0.1286  0.0373 -0.0755
    1CHOL    R222491  10.156  21.059   3.485  0.1335 -0.0115 -0.1048
    1CHOL    R322492  10.026  21.239   3.642  0.2128  0.0286 -0.0839
    1CHOL    R422493  10.074  21.009   3.817 -0.1134 -0.1250 -0.1801
    1CHOL    R522494   9.882  21.105   3.779 -0.0019  0.0843 -0.2447
    1CHOL    C122495   9.905  21.148   4.158 -0.1827 -0.1538 -0.2043
    1CHOL    C222496   9.691  21.095   4.436  0.3923  0.1498 -0.1633
    1CHOL   ROH22497  13.097   8.518   3.772  0.0608  0.1369  0.0879
    1CHOL    R122498  13.029   8.491   4.045 -0.0118 -0.0757  0.0504
    1CHOL    R222499  13.118   8.281   4.200  0.2240 -0.0201 -0.0070
    1CHOL    R322500  13.208   8.480   4.362 -0.1195  0.0413  0.1166
    1CHOL    R422501  13.155   8.256   4.543  0.2098 -0.1528 -0.0146
    1CHOL    R522502  13.077   8.458   4.561 -0.1214 -0.2809  0.0868
    1CHOL    C122503  13.260   8.428   4.894 -0.1211 -0.1726  0.0970
    1CHOL    C222504  13.273   8.607   5.177  0.0773  0.0659 -0.0267
    1CHOL   ROH22505  19.804  16.894   7.071 -0.2780 -0.2059 -0.0773
    1CHOL    R122506  19.696  16.891   6.810 -0.1531  0.0288 -0.1337
    1CHOL    R222507  19.772  17.072   6.615  0.3198 -0.1097 -0.0858
    1CHOL    R322508  19.824  16.847   6.472 -0.0640 -0.2144 -0.0714
    1CHOL    R422509  19.763  17.052   6.270  0.3737 -0.0839 -0.0891
    1CHOL    R522510  19.669  16.857   6.289 -0.0058  0.0845 -0.1143
    1CHOL    C122511  19.807  16.829   5.935  0.0448 -0.1670 -0.0775
    1CHOL    C222512  19.703  16.967   5.631  0.3592 -0.1794 -0.1543
    1CHOL   ROH22513   3.231   3.953   5.024  0.0151 -0.0759  0.3535
    1CHOL    R122514   3.505   4.020   5.050  0.0109  0.0842  0.0466
    1CHOL    R222515   3.608   4.262   4.966 -0.2540  0.2226  0.0884
    1CHOL    R322516   3.701   4.274   5.222  0.0610  0.0854 -0.0162
    1CHOL    R422517   3.850   4.482   5.078 -0.0852  0.1276 -0.0869
    1CHOL    R522518   3.935   4.320   5.198  0.0369  0.0618 -0.2711
    1CHOL    C122519   4.078   4.621   5.383  0.3088 -0.0565 -0.2871
    1CHOL    C222520   4.344   4.602   5.550  0.0873 -0.1254  0.0435
    1CHOL   ROH22521   7.790   6.694   4.275 -0.1355  0.0361 -0.0835
    1CHOL    R122522   8.006   6.723   4.456 -0.1214  0.0580 -0.1039
    1CHOL    R222523   7.996   6.895   4.673 -0.1401  0.0149 -0.0710
    1CHOL    R322524   8.061   6.670   4.812 -0.0652  0.0056 -0.1201
    1CHOL    R422525   8.127   6.891   4.993 -0.0811 -0.0094 -0.0951
    1CHOL    R522526   8.260   6.730   4.931 -0.0562  0.0298 -0.1464
    1CHOL    C122527   8.264   6.679   5.309  0.0235 -0.0323 -0.1554
    1CHOL    C222528   8.437   6.769   5.603 -0.0982 -0.0960 -0.1834
    1CHOL   ROH22529  13.486  17.309   3.512 -0.1167  0.0024  0.0635
    1CHOL    R122530  13.458  17.477   3.738  0.1923  0.0785  0.0495
    1CHOL    R222531  13.327  17.397   3.968  0.1701  0.2876  0.1091
    1CHOL    R322532  13.560  17.471   4.087  0.3167 -0.0014  0.0131
    1CHOL    R422533  13.411  17.327   4.296  0.0472  0.4984  0.1882
    1CHOL    R522534  13.496  17.527   4.311  0.4199  0.3720 -0.0433
    1CHOL    C122535  13.679  17.356   4.599  0.1133  0.3501  0.1441
    1CHOL    C222536  13.427  17.345   4.831  0.0955  0.0335  0.1845
    1CHOL   ROH22537  17.435  10.119   6.653 -0.0958 -0.2485  0.0256
    1CHOL    R122538  17.561   9.994   6.433 -0.0518 -0.2719  0.0637
    1CHOL    R222539  17.477   9.752   6.331 -0.1166 -0.2191 -0.0118
    1CHOL    R322540  17.465   9.890   6.097  0.0524 -0.1766  0.0037
    1CHOL    R422541  17.405   9.613   6.023  0.0610 -0.1544 -0.0834
    1CHOL    R522542  17.559   9.741   5.935  0.1352 -0.1606  0.0368
    1CHOL    C122543  17.353   9.662   5.624  0.3227 -0.0769 -0.1106
    1CHOL    C222544  17.190   9.616   5.278  0.0574 -0.1187 -0.0237
    1CHOL   ROH22545  17.890  18.552   4.126 -0.0367  0.4111 -0.0738
    1CHOL    R122546  17.718  18.511   4.347  0.0578  0.1742 -0.0404
    1CHOL    R222547  17.807  18.518   4.608  0.1298  0.1189 -0.0630
    1CHOL    R322548  17.610  18.703   4.636 -0.0059 -0.0437  0.0826
    1CHOL    R422549  17.665  18.611   4.909  0.2127 -0.0623  0.0339
    1CHOL    R522550  17.471  18.616   4.811  0.1550 -0.1952  0.1382
    1CHOL    C122551  17.398  18.840   5.111  0.1335 -0.3206  0.2271
    1CHOL    C222552  17.266  18.956   5.483 -0.0973  0.0297 -0.1568
    1CHOL   ROH22553   8.535  18.546   2.924  0.0307  0.4050 -0.0237
    1CHOL    R122554   8.503  18.708   3.154 -0.0488  0.3188  0.0272
    1CHOL    R222555   8.256  18.797   3.240 -0.1015  0.1305  0.0864
    1CHOL    R322556   8.331  18.681   3.474  0.0078  0.1106  0.0409
    1CHOL    R422557   8.168  18.910   3.555 -0.0766  0.0107  0.1365
    1CHOL    R522558   8.370  18.865   3.623 -0.0424  0.0892  0.0765
    1CHOL    C122559   8.187  18.867   3.958  0.0405 -0.0780  0.1230
    1CHOL    C222560   8.285  19.024   4.347  0.1630 -0.3177  0.3523
    1CHOL   ROH22561  22.749   3.886   3.737 -0.1867  0.0882  0.1373
    1CHOL    R122562  22.952   3.805   3.916 -0.0445  0.1991  0.0306
    1CHOL    R222563  23.034   3.962   4.129 -0.1159  0.1865  0.0770
    1CHOL    R322564  22.979   3.738   4.273  0.1386  0.0661 -0.0088
    1CHOL    R422565  23.184   3.878   4.429 -0.0637  0.2562  0.0695
    1CHOL    R522566  23.190   3.671   4.362  0.2024  0.2917  0.0009
    1CHOL    C122567  23.218   3.619   4.739  0.2054  0.1838 -0.0153
    1CHOL    C222568  23.347   3.299   4.738 -0.3069  0.1288 -0.0660
    1CHOL   ROH22569  11.676  15.736   6.521 -0.1023  0.2660  0.0617
    1CHOL    R122570  11.716  15.556   6.306  0.0346  0.2112  0.1323
    1CHOL    R222571  11.513  15.483   6.133  0.1042  0.0328  0.1278
    1CHOL    R322572  11.688  15.567   5.943  0.0847  0.0633  0.1224
    1CHOL    R422573  11.453  15.477   5.793  0.1387 -0.1003  0.1233
    1CHOL    R522574  11.659  15.412   5.763  0.1780 -0.0092  0.1652
    1CHOL    C122575  11.582  15.552   5.416  0.1406 -0.1495  0.1156
    1CHOL    C222576  11.662  15.421   5.134 -0.4422  0.0742  0.1454
    1CHOL   ROH22577   8.125  13.312   3.142 -0.0353 -0.0973  0.0918
    1CHOL    R122578   8.201  13.339   3.413 -0.0289 -0.0083  0.0814
    1CHOL    R222579   8.043  13.469   3.600 -0.0442  0.0151  0.0519
    1CHOL    R322580   8.070  13.235   3.736  0.0034  0.0575  0.1161
    1CHOL    R422581   8.071  13.442   3.943 -0.1343  0.1090  0.0670
    1CHOL    R522582   8.221  13.287   3.914 -0.0674  0.1574  0.1482
    1CHOL    C122583   8.113  13.208   4.271 -0.1420  0.2037  0.1360
    1CHOL    C222584   7.909  13.355   4.540 -0.2736  0.0007  0.3534
    1CHOL   ROH22585  14.767  15.711   6.818 -0.1439 -0.1206  0.1505
    1CHOL    R122586  14.756  15.858   6.577 -0.0266 -0.0591  0.1823
    1CHOL    R222587  14.980  15.905   6.421  0.0084 -0.2204  0.1833
    1CHOL    R322588  14.826  15.795   6.225 -0.0969 -0.0456  0.1655
    1CHOL    R422589  15.051  15.920   6.083  0.0019 -0.1978  0.1829
    1CHOL    R522590  14.838  15.952   6.045  0.0247 -0.0103  0.2028
    1CHOL    C122591  14.948  15.825   5.703 -0.1007 -0.0206  0.1660
    1CHOL    C222592  14.972  16.053   5.321 -0.3374  0.0460  0.0319
    1CHOL   ROH22593   5.837  26.419   5.896 -0.1508  0.2156  0.0613
    1CHOL    R122594   5.754  26.631   5.728 -0.0066  0.2277  0.0040
    1CHOL    R222595   5.881  26.877   5.725  0.1090  0.1685 -0.0022
    1CHOL    R322596   5.900  26.827   5.458  0.1582  0.1167  0.0108
    1CHOL    R422597   5.957  27.113   5.485 -0.1268  0.1840 -0.0643
    1CHOL    R522598   5.808  27.022   5.354 -0.0378 -0.0003 -0.0410
    1CHOL    C122599   6.020  27.205   5.095 -0.2179  0.1443 -0.0883
    1CHOL    C222600   6.327  27.496   4.990 -0.2875 -0.1424 -0.2123
    1CHOL   ROH22601  15.216  24.355   6.324  0.4281 -0.0414  0.0670
    1CHOL    R122602  15.373  24.249   6.114  0.2429 -0.0452 -0.0706
    1CHOL    R222603  15.335  24.321   5.850  0.1908  0.1603 -0.0048
    1CHOL    R322604  15.600  24.380   5.862  0.2525 -0.0853 -0.0847
    1CHOL    R422605  15.537  24.375   5.575  0.0584  0.3576 -0.0662
    1CHOL    R522606  15.695  24.262   5.676  0.0315  0.0776 -0.3113
    1CHOL    C122607  15.903  24.461   5.425  0.0392  0.2422 -0.1770
    1CHOL    C222608  16.163  24.615   5.221 -0.0152  0.1093 -0.2678
    1CHOL   ROH22609  15.910  10.267   3.419 -0.0398 -0.2174 -0.1024
    1CHOL    R122610  15.825  10.195   3.680 -0.2288 -0.1278 -0.1388
    1CHOL    R222611  15.986  10.225   3.902 -0.2200 -0.4695 -0.0965
    1CHOL    R322612  15.774  10.366   3.997  0.0056 -0.1054 -0.1109
    1CHOL    R422613  15.914  10.272   4.237 -0.1399 -0.3024 -0.1009
    1CHOL    R522614  15.703  10.244   4.190 -0.1932  0.0345 -0.0918
    1CHOL    C122615  15.673  10.432   4.521  0.1185  0.1367 -0.1171
    1CHOL    C222616  15.613  10.340   5.006  0.0699 -0.0549  0.3065
    1CHOL   ROH22617  14.576  11.138   3.262  0.0532 -0.1897  0.0796
    1CHOL    R122618  14.633  11.253   3.515  0.2519 -0.3129  0.0931
    1CHOL    R222619  14.435  11.335   3.689  0.3784  0.1658  0.0253
    1CHOL    R322620  14.566  11.172   3.863 -0.0525 -0.1534  0.0765
    1CHOL    R422621  14.413  11.355   4.033  0.2841  0.2030  0.0180
    1CHOL    R522622  14.627  11.316   4.044  0.2077 -0.2890  0.1047
    1CHOL    C122623  14.524  11.215   4.397 -0.1752 -0.0751  0.0618
    1CHOL    C222624  14.594  11.405   4.783 -0.2962 -0.0473  0.0610
    1CHOL   ROH22625   7.605   9.525   5.985 -0.0591  0.0361 -0.1209
    1CHOL    R122626   7.664   9.271   5.877 -0.0268  0.0374 -0.1070
    1CHOL    R222627   7.497   9.053   5.908  0.0557 -0.0119  0.0032
    1CHOL    R322628   7.512   9.043   5.637 -0.0635 -0.0492 -0.0022
    1CHOL    R422629   7.433   8.772   5.718  0.2548 -0.1179  0.0909
    1CHOL    R522630   7.603   8.826   5.591  0.1401  0.0333 -0.0008
    1CHOL    C122631   7.410   8.598   5.353  0.2587 -0.2147  0.1367
    1CHOL    C222632   7.155   8.645   5.120  0.0666 -0.1846 -0.0569
    1CHOL   ROH22633  12.609  19.805   6.756  0.1595  0.0499  0.0158
    1CHOL    R122634  12.589  19.813   6.474  0.0861  0.1349  0.0243
    1CHOL    R222635  12.615  20.047   6.329  0.2839  0.1393  0.0757
    1CHOL    R322636  12.805  19.906   6.195  0.1015 -0.0233 -0.0198
    1CHOL    R422637  12.692  20.091   5.995  0.2275  0.1636  0.0646
    1CHOL    R522638  12.710  19.873   5.977 -0.0041  0.1409 -0.0056
    1CHOL    C122639  12.915  19.984   5.675  0.0234  0.0252 -0.0314
    1CHOL    C222640  12.797  19.987   5.269 -0.1650 -0.0000 -0.0788
    1CHOL   ROH22641  11.062   6.685   3.644  0.1733  0.1530  0.1808
    1CHOL    R122642  10.923   6.647   3.888  0.1025  0.1263  0.1372
    1CHOL    R222643  10.729   6.823   3.977  0.0482  0.0971  0.0837
    1CHOL    R322644  10.577   6.599   3.990  0.0772  0.0753  0.0278
    1CHOL    R422645  10.417   6.805   4.125  0.0516  0.0230  0.0800
    1CHOL    R522646  10.472   6.610   4.205  0.0765  0.0095  0.0308
    1CHOL    C122647  10.092   6.584   4.222  0.0808 -0.0407  0.0253
    1CHOL    C222648   9.842   6.808   4.387 -0.0403  0.2099  0.0842
    1CHOL   ROH22649  14.514  21.134   3.862 -0.0928 -0.0214  0.0815
    1CHOL    R122650  14.508  20.951   4.078 -0.0455 -0.0607  0.0509
    1CHOL    R222651  14.720  20.920   4.253 -0.0358 -0.0339  0.0513
    1CHOL    R322652  14.529  20.969   4.440 -0.0537 -0.1137  0.0527
    1CHOL    R422653  14.728  20.803   4.578 -0.0212 -0.0780  0.0343
    1CHOL    R522654  14.514  20.765   4.565 -0.0061 -0.1319  0.0223
    1CHOL    C122655  14.555  20.782   4.944 -0.0295 -0.1787  0.0257
    1CHOL    C222656  14.701  20.497   4.988  0.0050  0.2536 -0.1293
    1CHOL   ROH22657  11.025   9.560   3.993 -0.0141 -0.2570 -0.0667
    1CHOL    R122658  10.939   9.468   4.247  0.1146 -0.1566  0.0141
    1CHOL    R222659  11.089   9.505   4.477  0.1513  0.0874 -0.0470
    1CHOL    R322660  10.859   9.617   4.569  0.0999 -0.0089 -0.0571
    1CHOL    R422661  11.030   9.592   4.806  0.1732  0.2279 -0.0797
    1CHOL    R522662  10.826   9.517   4.784  0.2138  0.0849  0.0059
    1CHOL    C122663  10.779   9.748   5.084  0.1375  0.2192 -0.1083
    1CHOL    C222664  10.988   9.635   5.303 -0.1312 -0.1397  0.0450
    1CHOL   ROH22665   3.051   3.985   3.558  0.1243 -0.0046 -0.0094
    1CHOL    R122666   3.010   4.175   3.765  0.2275  0.0498 -0.0396
    1CHOL    R222667   2.800   4.159   3.942  0.1808  0.2307 -0.0825
    1CHOL    R322668   2.998   4.172   4.128  0.1513  0.1032 -0.0403
    1CHOL    R422669   2.753   4.235   4.276  0.1100 -0.0558 -0.0236
    1CHOL    R522670   2.935   4.355   4.269  0.0980 -0.0200  0.1042
    1CHOL    C122671   2.912   4.292   4.645  0.0410 -0.3424  0.0503
    1CHOL    C222672   2.696   4.660   4.845  0.0375  0.1645  0.0083
    1CHOL   ROH22673  12.806  13.305   7.229 -0.0950 -0.1495 -0.0507
    1CHOL    R122674  12.793  13.283   6.948  0.0404 -0.0415 -0.0653
    1CHOL    R222675  12.584  13.386   6.801  0.0262 -0.1448 -0.1031
    1CHOL    R322676  12.783  13.511   6.664 -0.0176  0.0688  0.0211
    1CHOL    R422677  12.578  13.449   6.461  0.1441 -0.1409 -0.1056
    1CHOL    R522678  12.790  13.395   6.453  0.2166  0.0747  0.0150
    1CHOL    C122679  12.762  13.603   6.134  0.1718  0.0620  0.0094
    1CHOL    C222680  12.701  13.400   5.964 -0.0756  0.0879 -0.0107
    1CHOL   ROH22681  15.733  12.064   7.064  0.1175  0.2871 -0.1031
    1CHOL    R122682  15.708  12.158   6.798  0.1763  0.1123 -0.1712
    1CHOL    R222683  15.912  12.133   6.612  0.1641 -0.1396 -0.1517
    1CHOL    R322684  15.718  12.013   6.465  0.0957 -0.1314 -0.0701
    1CHOL    R422685  15.914  12.104   6.268  0.0247 -0.1477 -0.1532
    1CHOL    R522686  15.701  12.147   6.267  0.0250 -0.1336 -0.0674
    1CHOL    C122687  15.734  11.973   5.929 -0.1206 -0.1447 -0.0774
    1CHOL    C222688  16.024  12.032   5.664  0.0997  0.0128  0.0083
    1CHOL   ROH22689  11.669  13.597   6.798 -0.0571 -0.0897  0.1502
    1CHOL    R122690  11.709  13.425   6.576 -0.2657 -0.0533  0.0820
    1CHOL    R222691  11.555  13.438   6.347 -0.1370  0.3497  0.0105
    1CHOL    R322692  11.796  13.462   6.225 -0.0262 -0.0273  0.1423
    1CHOL    R422693  11.601  13.479   6.007  0.1163  0.2536  0.0313
    1CHOL    R522694  11.770  13.343   6.019 -0.0930 -0.0070  0.1389
    1CHOL    C122695  11.854  13.524   5.694  0.3678 -0.1563  0.1672
    1CHOL    C222696  11.616  13.428   5.425 -0.1812  0.0856 -0.1381
    1CHOL   ROH22697  20.627   0.780   3.197  0.1807  0.0111 -0.0296
    1CHOL    R122698  20.550   0.788   3.469 -0.0465  0.0739 -0.0943
    1CHOL    R222699  20.732   0.759   3.676 -0.2646 -0.2182  0.0577
    1CHOL    R322700  20.625   0.995   3.759 -0.0045 -0.0774  0.0059
    1CHOL    R422701  20.739   0.875   4.001 -0.1144 -0.1507  0.0318
    1CHOL    R522702  20.534   0.946   3.975 -0.0462  0.0680  0.0263
    1CHOL    C122703  20.643   1.165   4.269  0.2168  0.0208 -0.0319
    1CHOL    C222704  20.245   1.163   4.331 -0.1221 -0.2153 -0.1409
    1CHOL   ROH22705  20.897  13.713   6.725 -0.0496  0.0094  0.0601
    1CHOL    R122706  20.919  13.852   6.480  0.0096  0.0183  0.0704
    1CHOL    R222707  21.081  13.765   6.274  0.1237  0.0699  0.1366
    1CHOL    R322708  20.851  13.783   6.129  0.1774 -0.0008  0.0408
    1CHOL    R422709  21.065  13.770   5.928  0.2535 -0.0726  0.1272
    1CHOL    R522710  20.909  13.922   5.943  0.2399 -0.0745  0.0052
    1CHOL    C122711  20.840  13.790   5.592  0.3792 -0.2219  0.0319
    1CHOL    C222712  20.862  13.863   5.204  0.1333 -0.0771 -0.2238
    1CHOL   ROH22713  20.996   2.296   6.073  0.0486  0.3146  0.1376
    1CHOL    R122714  20.974   2.232   5.799  0.1634  0.1902  0.1560
    1CHOL    R222715  20.776   2.337   5.637  0.0397 -0.1214  0.0947
    1CHOL    R322716  20.987   2.413   5.483 -0.0372  0.1034  0.0970
    1CHOL    R422717  20.770   2.360   5.292  0.1258 -0.4951  0.0645
    1CHOL    R522718  20.971   2.274   5.288  0.2890 -0.1359  0.2335
    1CHOL    C122719  20.965   2.444   4.947  0.1038 -0.5018  0.0493
    1CHOL    C222720  21.248   2.746   4.744 -0.1153  0.3955  0.0946
    1CHOL   ROH22721  15.508  15.027   6.667  0.1225 -0.1034  0.1379
    1CHOL    R122722  15.640  15.071   6.421  0.1290 -0.2741  0.1077
    1CHOL    R222723  15.599  14.910   6.200 -0.1940 -0.1754  0.0822
    1CHOL    R322724  15.543  15.147   6.078  0.1523 -0.0564  0.1495
    1CHOL    R422725  15.616  14.966   5.859 -0.1081 -0.1025  0.1005
    1CHOL    R522726  15.703  15.162   5.901  0.1771 -0.2393  0.1577
    1CHOL    C122727  15.573  15.222   5.547  0.2672  0.0516  0.1745
    1CHOL    C222728  15.682  15.365   5.149 -0.1827  0.0236  0.0037
    1CHOL   ROH22729  21.170  16.175   6.645 -0.1250 -0.0366  0.0483
    1CHOL    R122730  21.124  16.309   6.400 -0.3929  0.1539  0.1964
    1CHOL    R222731  21.216  16.212   6.158 -0.0130  0.7055  0.1011
    1CHOL    R322732  20.955  16.234   6.086 -0.0629  0.0694  0.0345
    1CHOL    R422733  21.101  16.228   5.832  0.0623  0.6914  0.0746
    1CHOL    R522734  20.958  16.379   5.896 -0.3773  0.2597  0.1670
    1CHOL    C122735  20.789  16.258   5.576  0.0593  0.0859 -0.0035
    1CHOL    C222736  20.643  16.241   5.246  0.0479  0.0453 -0.1561
    1CHOL   ROH22737  15.535  22.347   7.036  0.0472  0.0529  0.0117
    1CHOL    R122738  15.594  22.312   6.762  0.0912  0.1156  0.0133
    1CHOL    R222739  15.397  22.298   6.568  0.1058 -0.1236  0.0147
    1CHOL    R322740  15.541  22.498   6.454 -0.1305  0.0477  0.0078
    1CHOL    R422741  15.385  22.384   6.234  0.0278 -0.1717  0.0044
    1CHOL    R522742  15.601  22.413   6.238 -0.0040  0.0978  0.0212
    1CHOL    C122743  15.513  22.622   5.931 -0.2394 -0.0388 -0.0083
    1CHOL    C222744  15.685  22.702   5.561 -0.0494  0.2803 -0.0600
    1CHOL   ROH22745   4.828  16.343   2.931  0.0820 -0.1409 -0.1599
    1CHOL    R122746   4.976  16.478   3.132 -0.0507 -0.1231 -0.0721
    1CHOL    R222747   5.034  16.363   3.377 -0.0811 -0.1615 -0.0802
    1CHOL    R322748   5.290  16.426   3.309 -0.0873 -0.0229  0.0217
    1CHOL    R422749   5.299  16.379   3.597 -0.1443 -0.1664 -0.0038
    1CHOL    R522750   5.370  16.556   3.493 -0.1875 -0.0854  0.1082
    1CHOL    C122751   5.694  16.446   3.662 -0.1869 -0.0393  0.1364
    1CHOL    C222752   5.584  16.573   3.988 -0.0246 -0.1018  0.0155
    1CHOL   ROH22753   2.603  13.218   6.024 -0.0145  0.1191 -0.1194
    1CHOL    R122754   2.708  13.273   5.767  0.0061 -0.0409 -0.1461
    1CHOL    R222755   2.564  13.227   5.536 -0.0949  0.1011 -0.1130
    1CHOL    R322756   2.620  13.488   5.487  0.2142  0.0306 -0.1580
    1CHOL    R422757   2.616  13.362   5.222 -0.2337  0.0402 -0.1628
    1CHOL    R522758   2.777  13.482   5.306  0.0232 -0.1805 -0.3229
    1CHOL    C122759   2.698  13.686   4.993 -0.0243 -0.0614 -0.2341
    1CHOL    C222760   2.678  13.916   4.737 -0.1036 -0.2065  0.2288
    1CHOL   ROH22761  12.690  18.850   6.808 -0.0697 -0.1441 -0.0179
    1CHOL    R122762  12.673  18.769   6.537  0.0883 -0.0769 -0.0484
    1CHOL    R222763  12.506  18.892   6.355  0.0815 -0.1312 -0.0743
    1CHOL    R322764  12.735  18.918   6.212  0.1211  0.0568  0.0182
    1CHOL    R422765  12.521  18.939   6.013  0.1835 -0.0878 -0.0654
    1CHOL    R522766  12.691  18.803   6.007  0.2907  0.0406 -0.0115
    1CHOL    C122767  12.746  18.990   5.679  0.2802  0.1138  0.0267
    1CHOL    C222768  12.684  19.085   5.316 -0.1415 -0.2478 -0.1449
    1CHOL   ROH22769  18.698   4.894   3.990 -0.3602 -0.0347 -0.1525
    1CHOL    R122770  18.650   4.927   4.267 -0.0327  0.0673 -0.1045
    1CHOL    R222771  18.546   4.726   4.425 -0.2841  0.2714 -0.0110
    1CHOL    R322772  18.767   4.775   4.576 -0.0367 -0.1626 -0.2128
    1CHOL    R422773  18.588   4.627   4.754 -0.3111  0.4290  0.0413
    1CHOL    R522774  18.682   4.819   4.795  0.2183  0.2420 -0.1810
    1CHOL    C122775  18.820   4.616   5.086 -0.0945  0.1134 -0.1177
    1CHOL    C222776  18.690   4.650   5.412  0.2215 -0.1014  0.1332
    1CHOL   ROH22777  16.605  16.857   3.546 -0.1182  0.2240  0.0391
    1CHOL    R122778  16.679  16.744   3.795 -0.1003  0.1037 -0.0198
    1CHOL    R222779  16.859  16.866   3.966 -0.0225 -0.0204 -0.0108
    1CHOL    R322780  16.657  16.838   4.146  0.0072 -0.0230  0.0221
    1CHOL    R422781  16.897  16.869   4.310  0.0319  0.0083 -0.0175
    1CHOL    R522782  16.751  16.708   4.323  0.0460 -0.0027  0.0170
    1CHOL    C122783  16.730  16.846   4.678  0.0917  0.0228  0.0095
    1CHOL    C222784  16.605  16.657   5.011 -0.3375  0.1459  0.0523
    1CHOL   ROH22785  19.790  11.770   3.282  0.0288  0.0177  0.1152
    1CHOL    R122786  19.773  11.828   3.558 -0.0938 -0.0473  0.1217
    1CHOL    R222787  19.735  12.084   3.655 -0.0928 -0.0641  0.1654
    1CHOL    R322788  19.525  11.969   3.784 -0.1773 -0.0570  0.0371
    1CHOL    R422789  19.675  12.105   3.995 -0.3818  0.0624  0.1096
    1CHOL    R522790  19.616  11.896   3.993 -0.3346  0.0474  0.1447
    1CHOL    C122791  19.443  12.010   4.314 -0.6292  0.1426 -0.0434
    1CHOL    C222792  19.198  11.699   4.506 -0.0657  0.2383 -0.0915
    1CHOL   ROH22793  19.305  20.814   5.043  0.1656 -0.0661 -0.1027
    1CHOL    R122794  19.551  20.912   4.942  0.1472  0.0780 -0.0086
    1CHOL    R222795  19.653  21.159   5.014  0.1131  0.0154  0.2537
    1CHOL    R322796  19.872  21.013   5.081  0.1404 -0.0249  0.0854
    1CHOL    R422797  19.958  21.291   5.108  0.1779 -0.0331  0.1170
    1CHOL    R522798  20.056  21.136   4.991  0.0995 -0.0106  0.0122
    1CHOL    C122799  20.341  21.230   5.227  0.2412 -0.0992 -0.1207
    1CHOL    C222800  20.642  21.206   5.342 -0.2515 -0.1152  0.0821
    1CHOL   ROH22801  15.568  14.485   3.215  0.1614 -0.3550  0.0095
    1CHOL    R122802  15.493  14.506   3.487  0.1351 -0.2791 -0.0036
    1CHOL    R222803  15.327  14.323   3.611  0.1813 -0.2838  0.0496
    1CHOL    R322804  15.532  14.306   3.788  0.1728 -0.1587  0.0724
    1CHOL    R422805  15.291  14.263   3.949  0.1720 -0.1984  0.0641
    1CHOL    R522806  15.448  14.410   3.987  0.1173 -0.1303  0.0353
    1CHOL    C122807  15.463  14.212   4.313  0.1587 -0.0313  0.0939
    1CHOL    C222808  15.570  14.117   4.692 -0.0444  0.0291  0.1559
    1CHOL   ROH22809   8.282   4.662   3.660 -0.1336  0.0130  0.1070
    1CHOL    R122810   8.273   4.676   3.943 -0.1707 -0.1193  0.1138
    1CHOL    R222811   8.249   4.451   4.102  0.1054 -0.2260  0.0189
    1CHOL    R322812   8.474   4.550   4.220 -0.0245  0.0141  0.0684
    1CHOL    R422813   8.374   4.348   4.408  0.0854  0.0057  0.1063
    1CHOL    R522814   8.420   4.556   4.453 -0.1134  0.0606  0.0436
    1CHOL    C122815   8.657   4.382   4.696 -0.0483  0.3661  0.2036
    1CHOL    C222816   8.930   4.245   4.985  0.1135 -0.0524 -0.0345
    1CHOL   ROH22817  10.646  14.592   3.454 -0.1975  0.1035 -0.1957
    1CHOL    R122818  10.553  14.693   3.702 -0.1900 -0.0391 -0.1333
    1CHOL    R222819  10.456  14.530   3.903  0.0135 -0.1742 -0.1414
    1CHOL    R322820  10.643  14.658   4.053 -0.0333 -0.0647 -0.1756
    1CHOL    R422821  10.457  14.545   4.248  0.0283 -0.1097 -0.1440
    1CHOL    R522822  10.519  14.753   4.234 -0.0633 -0.0849 -0.1859
    1CHOL    C122823  10.633  14.674   4.590 -0.0069  0.0307 -0.1776
    1CHOL    C222824  10.868  14.631   4.885  0.0856 -0.1123  0.1271
    1CHOL   ROH22825  14.997  18.558   6.811 -0.0910  0.1018 -0.0081
    1CHOL    R122826  15.080  18.722   6.595 -0.0878  0.0721 -0.0298
    1CHOL    R222827  15.113  18.624   6.339 -0.1095  0.0417 -0.0229
    1CHOL    R322828  14.942  18.825   6.274 -0.0962  0.0492 -0.0330
    1CHOL    R422829  15.104  18.785   6.033 -0.2232 -0.0935 -0.0917
    1CHOL    R522830  15.073  18.973   6.139 -0.1310 -0.0399 -0.1631
    1CHOL    C122831  14.939  19.067   5.794 -0.2769 -0.1649 -0.1412
    1CHOL    C222832  15.072  19.343   5.557 -0.2406 -0.2328 -0.3382
    1CHOL   ROH22833   4.258  26.922   3.106 -0.1676  0.0721  0.0460
    1CHOL    R122834   4.262  26.923   3.389 -0.2424  0.0730  0.0477
    1CHOL    R222835   4.042  26.855   3.541 -0.2038 -0.1967 -0.0099
    1CHOL    R322836   4.215  26.679   3.656 -0.0182  0.0083  0.0304
    1CHOL    R422837   3.993  26.700   3.847 -0.0182 -0.1395  0.0496
    1CHOL    R522838   4.205  26.729   3.890 -0.0386  0.0804  0.0144
    1CHOL    C122839   4.127  26.445   4.131  0.2642  0.0861  0.1221
    1CHOL    C222840   4.002  26.295   4.477  0.1973 -0.0028 -0.0510
    1CHOL   ROH22841  14.112  12.471   6.899  0.2658 -0.1320  0.0518
    1CHOL    R122842  14.167  12.463   6.621  0.1840 -0.0057  0.0316
    1CHOL    R222843  14.077  12.259   6.458  0.2793 -0.0192 -0.0017
    1CHOL    R322844  13.973  12.464   6.314  0.0854 -0.0490  0.0928
    1CHOL    R422845  13.999  12.245   6.121  0.0782 -0.0089  0.0434
    1CHOL    R522846  14.078  12.447   6.099 -0.0367  0.0360  0.0237
    1CHOL    C122847  13.854  12.430   5.791 -0.2212 -0.0309  0.1584
    1CHOL    C222848  13.785  12.473   5.365 -0.1604 -0.0688  0.0818
    1CHOL   ROH22849  11.330  18.456   6.923  0.2839 -0.1229  0.0008
    1CHOL    R122850  11.282  18.589   6.678  0.2439  0.0108  0.0793
    1CHOL    R222851  11.486  18.675   6.513  0.2185 -0.0799 -0.0062
    1CHOL    R322852  11.353  18.529   6.326 -0.0024  0.0911  0.0147
    1CHOL    R422853  11.520  18.713   6.171  0.2712 -0.1790 -0.0116
    1CHOL    R522854  11.305  18.686   6.151  0.2285  0.1390 -0.0058
    1CHOL    C122855  11.415  18.598   5.796  0.0944 -0.0762  0.0048
    1CHOL    C222856  11.432  18.731   5.399  0.1009 -0.1428  0.1065
    1CHOL   ROH22857  14.443   9.312   7.117 -0.0817  0.1114  0.0230
    1CHOL    R122858  14.238   9.345   6.925  0.0128  0.2025 -0.0638
    1CHOL    R222859  14.283   9.457   6.677  0.2322 -0.0840 -0.1588
    1CHOL    R322860  14.170   9.226   6.588 -0.0450 -0.0254  0.0260
    1CHOL    R422861  14.183   9.399   6.351  0.2195 -0.2468 -0.1270
    1CHOL    R522862  14.006   9.298   6.429  0.0734  0.0438 -0.0666
    1CHOL    C122863  14.019   9.149   6.078 -0.0481 -0.2866  0.0651
    1CHOL    C222864  14.007   9.378   5.832  0.2992 -0.0863 -0.1699
    1CHOL   ROH22865  20.918  10.999   3.581 -0.0983 -0.1735  0.1840
    1CHOL    R122866  20.895  11.027   3.861 -0.0672  0.0842  0.1636
    1CHOL    R222867  21.081  10.923   4.036 -0.1798  0.0228  0.2441
    1CHOL    R322868  21.088  11.178   4.129  0.1025  0.0951  0.0376
    1CHOL    R422869  21.141  11.011   4.365 -0.0821  0.2185  0.1758
    1CHOL    R522870  20.988  11.165   4.347  0.0843  0.3787  0.0528
    1CHOL    C122871  21.184  11.302   4.644  0.2396  0.4002 -0.0580
    1CHOL    C222872  21.082  11.182   4.934 -0.0036  0.2346  0.0488
    1CHOL   ROH22873  11.683   8.457   3.763  0.0243 -0.1053 -0.0922
    1CHOL    R122874  11.592   8.391   4.023 -0.0199  0.0922 -0.0544
    1CHOL    R222875  11.705   8.189   4.174 -0.2804 -0.0444 -0.0257
    1CHOL    R322876  11.731   8.386   4.359  0.0503 -0.0282 -0.0861
    1CHOL    R422877  11.680   8.144   4.515 -0.1990  0.0807 -0.0043
    1CHOL    R522878  11.570   8.332   4.528  0.0489  0.2257 -0.0056
    1CHOL    C122879  11.691   8.303   4.888  0.1587  0.1687 -0.0485
    1CHOL    C222880  11.863   8.257   5.228 -0.1825  0.0524 -0.2415
    1CHOL   ROH22881  24.690  15.179   3.332 -0.0152  0.2269 -0.0145
    1CHOL    R122882  24.603  15.249   3.593  0.0278  0.2372 -0.0030
    1CHOL    R222883  24.649  15.088   3.813 -0.0277  0.1960 -0.0223
    1CHOL    R322884  24.759  15.315   3.915  0.0721  0.1399 -0.0040
    1CHOL    R422885  24.621  15.191   4.141 -0.1184  0.2605 -0.0499
    1CHOL    R522886  24.596  15.395   4.070  0.0484  0.2683 -0.0929
    1CHOL    C122887  24.708  15.463   4.429 -0.0777  0.2453 -0.0488
    1CHOL    C222888  24.567  15.498   4.739 -0.3145 -0.0227 -0.3358
    1CHOL   ROH22889  14.022   9.082   3.919  0.2664  0.2373  0.0846
    1CHOL    R122890  13.958   9.173   4.180  0.1526  0.2596  0.0499
    1CHOL    R222891  13.900   9.000   4.387  0.0417  0.2755  0.0390
    1CHOL    R322892  14.097   9.139   4.514 -0.0033  0.2685  0.1152
    1CHOL    R422893  13.963   8.990   4.727 -0.1174  0.3197  0.0698
    1CHOL    R522894  13.999   9.204   4.722 -0.0902  0.3098  0.0580
    1CHOL    C122895  14.184   9.113   5.044 -0.2523  0.3389  0.1592
    1CHOL    C222896  13.967   9.321   5.252 -0.0528  0.0589 -0.1087
    1CHOL   ROH22897  14.519  14.656   3.208 -0.0061  0.0267 -0.1053
    1CHOL    R122898  14.497  14.835   3.426  0.1944  0.0081 -0.0684
    1CHOL    R222899  14.297  14.815   3.615  0.1882  0.1752 -0.0566
    1CHOL    R322900  14.506  14.812   3.789  0.2008 -0.0717 -0.0735
    1CHOL    R422901  14.271  14.750   3.954  0.1608  0.0568 -0.0811
    1CHOL    R522902  14.418  14.907   3.990  0.2966 -0.0798 -0.0271
    1CHOL    C122903  14.453  14.708   4.314  0.1567 -0.2441 -0.1113
    1CHOL    C222904  14.544  14.775   4.690  0.0536 -0.1413 -0.1878
    1CHOL   ROH22905  10.164  19.990   3.315  0.0704  0.2088 -0.0371
    1CHOL    R122906  10.099  20.063   3.581 -0.0291  0.1396 -0.0429
    1CHOL    R222907   9.848  20.022   3.689 -0.0158 -0.0480 -0.0930
    1CHOL    R322908   9.988  19.893   3.883  0.0381  0.0372 -0.0737
    1CHOL    R422909   9.727  19.948   4.004 -0.0491 -0.1752 -0.1345
    1CHOL    R522910   9.922  20.000   4.086 -0.1034 -0.0310 -0.0767
    1CHOL    C122911   9.789  19.783   4.370 -0.0180 -0.1695 -0.1407
    1CHOL    C222912   9.425  19.676   4.600  0.0429  0.0065  0.0582
    1CHOL   ROH22913  16.716  15.222   6.936 -0.1992 -0.3041  0.0288
    1CHOL    R122914  16.772  15.297   6.669 -0.0677 -0.1991  0.0843
    1CHOL    R222915  16.920  15.139   6.497 -0.0125 -0.1492  0.0826
    1CHOL    R322916  16.702  15.165   6.337  0.0614 -0.0502 -0.0029
    1CHOL    R422917  16.925  15.124   6.152  0.1046 -0.1905  0.0860
    1CHOL    R522918  16.781  15.287   6.147  0.1956 -0.1155  0.0127
    1CHOL    C122919  16.723  15.139   5.801  0.2424 -0.1216  0.0077
    1CHOL    C222920  16.534  15.118   5.464 -0.0447 -0.0283  0.0161
    1CHOL   ROH22921  19.977  16.267   3.224 -0.2728 -0.0847  0.0499
    1CHOL    R122922  20.022  16.256   3.503 -0.0669 -0.2461  0.0117
    1CHOL    R222923  19.838  16.345   3.688  0.1894 -0.0765  0.1897
    1CHOL    R322924  19.867  16.095   3.791 -0.0482 -0.1556  0.0736
    1CHOL    R422925  19.864  16.272   4.025  0.3530 -0.2290  0.1459
    1CHOL    R522926  20.016  16.124   3.976  0.1335 -0.4089 -0.0255
    1CHOL    C122927  19.906  15.994   4.317  0.2250 -0.3919  0.0115
    1CHOL    C222928  19.866  15.827   4.513  0.1097  0.1459  0.0069
    1CHOL   ROH22929   2.626   5.932   5.800  0.0816  0.2555 -0.1352
    1CHOL    R122930   2.743   5.697   5.695 -0.0391  0.1514 -0.0419
    1CHOL    R222931   2.807   5.668   5.428 -0.0212  0.0244 -0.0285
    1CHOL    R322932   3.053   5.610   5.526 -0.0673 -0.0803  0.0248
    1CHOL    R422933   3.053   5.500   5.254  0.0337  0.1327 -0.0558
    1CHOL    R522934   3.102   5.392   5.437 -0.0532 -0.0147 -0.1224
    1CHOL    C122935   3.428   5.346   5.244  0.0224  0.0975 -0.0218
    1CHOL    C222936   3.519   5.049   5.143 -0.0805  0.0214 -0.1347
    1CHOL   ROH22937   1.771  27.517   3.982  0.0609 -0.0416 -0.1368
    1CHOL    R122938   1.775  27.413   4.245  0.1174 -0.0887 -0.1569
    1CHOL    R222939   1.955  27.219   4.325  0.2313  0.0051 -0.1901
    1CHOL    R322940   2.012  27.400   4.521  0.1185  0.0020 -0.1528
    1CHOL    R422941   2.149  27.154   4.604  0.2231  0.0527 -0.1725
    1CHOL    R522942   2.009  27.271   4.723  0.1501 -0.0320 -0.1733
    1CHOL    C122943   2.316  27.285   4.949  0.1124  0.0772 -0.1272
    1CHOL    C222944   2.528  26.949   5.065 -0.0054 -0.3378  0.0384
    1CHOL   ROH22945  10.947  12.950   3.200 -0.0733 -0.2047  0.1528
    1CHOL    R122946  10.865  13.081   3.437 -0.1248 -0.2592  0.1648
    1CHOL    R222947  10.820  12.945   3.674  0.0905 -0.2783  0.1955
    1CHOL    R322948  10.996  13.126   3.774 -0.0559 -0.0878  0.1160
    1CHOL    R422949  10.853  13.025   4.008  0.2171 -0.3151  0.1927
    1CHOL    R522950  10.877  13.234   3.951 -0.0702 -0.2691  0.2200
    1CHOL    C122951  11.037  13.241   4.297  0.1533 -0.1576  0.1164
    1CHOL    C222952  10.935  13.293   4.673  0.2046 -0.2626 -0.0192
    1CHOL   ROH22953  18.695  14.739   6.874  0.1128 -0.1019  0.1576
    1CHOL    R122954  18.825  14.656   6.636 -0.0013 -0.0798  0.0877
    1CHOL    R222955  18.708  14.481   6.456 -0.1707  0.0950  0.0266
    1CHOL    R322956  18.761  14.680   6.279 -0.0637  0.1445  0.1119
    1CHOL    R422957  18.698  14.447   6.113 -0.0658  0.2144  0.0104
    1CHOL    R522958  18.876  14.571   6.100 -0.0300  0.1770  0.1122
    1CHOL    C122959  18.741  14.614   5.746  0.0956  0.3304  0.0810
    1CHOL    C222960  18.568  14.550   5.466 -0.0069  0.1707  0.0225
    1CHOL   ROH22961  18.795   3.319   6.107  0.0072  0.1933 -0.1761
    1CHOL    R122962  18.537   3.405   6.030 -0.0502  0.0865 -0.1043
    1CHOL    R222963  18.463   3.435   5.765 -0.1136  0.1227 -0.0813
    1CHOL    R322964  18.260   3.269   5.835 -0.0198  0.0024 -0.0895
    1CHOL    R422965  18.151   3.432   5.617 -0.1570  0.0456  0.0094
    1CHOL    R522966  18.063   3.404   5.814 -0.0874 -0.0757  0.0248
    1CHOL    C122967  17.779   3.274   5.596 -0.0945 -0.1123  0.0545
    1CHOL    C222968  17.778   3.621   5.320  0.0730  0.1036  0.0661
    1CHOL   ROH22969  13.887  18.015   6.910 -0.0532  0.0792  0.0132
    1CHOL    R122970  13.963  18.182   6.694 -0.0523  0.0974  0.0267
    1CHOL    R222971  14.164  18.114   6.517 -0.0134  0.1355  0.0512
    1CHOL    R322972  13.972  18.158   6.331  0.0022  0.1034  0.0285
    1CHOL    R422973  14.201  18.056   6.179  0.0209  0.1176  0.0583
    1CHOL    R522974  14.091  18.240   6.140  0.0085  0.1010  0.0348
    1CHOL    C122975  14.041  18.063   5.806  0.0554  0.0768  0.0412
    1CHOL    C222976  13.969  17.910   5.530  0.1465 -0.2606 -0.3709
    1CHOL   ROH22977  26.057  18.987   5.738 -0.0034 -0.1532  0.0468
    1CHOL    R122978  26.026  19.047   5.463  0.0182 -0.1219  0.0512
    1CHOL    R222979  25.860  18.902   5.297 -0.0010 -0.0763  0.0311
    1CHOL    R322980  25.754  19.147   5.243  0.0448 -0.0525  0.0495
    1CHOL    R422981  25.679  18.981   5.013  0.1632  0.0251 -0.0468
    1CHOL    R522982  25.782  19.173   5.007  0.1799  0.0212  0.0725
    1CHOL    C122983  25.474  19.257   4.798  0.3018  0.1067 -0.0749
    1CHOL    C222984  25.356  19.203   4.489 -0.3260 -0.1718 -0.2039
    1CHOL   ROH22985  10.066  18.880   6.450  0.0635  0.1036  0.0828
    1CHOL    R122986  10.082  18.786   6.183  0.0735  0.0439  0.1050
    1CHOL    R222987   9.860  18.754   6.022  0.0627 -0.1503  0.1594
    1CHOL    R322988  10.000  18.913   5.852 -0.0799 -0.1004  0.0858
    1CHOL    R422989   9.858  18.726   5.678 -0.0409 -0.2080  0.1637
    1CHOL    R522990  10.072  18.765   5.678 -0.0594 -0.0917  0.0851
    1CHOL    C122991   9.988  18.859   5.318 -0.2351 -0.1943  0.0972
    1CHOL    C222992   9.998  18.980   4.918 -0.2037  0.2495 -0.3164
    1CHOL   ROH22993  20.525  13.446   6.649 -0.0262 -0.1493 -0.0759
    1CHOL    R122994  20.633  13.524   6.399 -0.1022 -0.0605 -0.0826
    1CHOL    R222995  20.810  13.365   6.257  0.0366  0.0880 -0.0860
    1CHOL    R322996  20.628  13.398   6.058 -0.0036 -0.0784 -0.0764
    1CHOL    R422997  20.837  13.230   5.941  0.1278  0.0983 -0.0822
    1CHOL    R522998  20.760  13.416   5.859 -0.0365  0.0253 -0.0852
    1CHOL    C122999  20.682  13.181   5.569  0.1429 -0.0518 -0.0710
    1CHOL    C223000  20.593  12.971   5.299 -0.0306  0.0400  0.1019
    1CHOL   ROH23001   9.429   8.798   3.700 -0.0626 -0.3209 -0.1300
    1CHOL    R123002   9.636   8.693   3.863 -0.0339 -0.1287 -0.0393
    1CHOL    R223003   9.741   8.831   4.077 -0.2571 -0.0292  0.0094
    1CHOL    R323004   9.677   8.605   4.213 -0.1064 -0.0912 -0.0211
    1CHOL    R423005   9.837   8.763   4.402 -0.3149  0.0465  0.0424
    1CHOL    R523006   9.873   8.557   4.343 -0.1092  0.0790  0.0489
    1CHOL    C123007   9.832   8.511   4.719 -0.2069  0.0324  0.0330
    1CHOL    C223008   9.889   8.476   5.071 -0.2247  0.0117  0.0256
    1CHOL   ROH23009  11.086   6.995   6.832 -0.0917  0.0233  0.0379
    1CHOL    R123010  10.985   6.868   6.600  0.1773 -0.0775 -0.0265
    1CHOL    R223011  10.767   6.965   6.460  0.0918 -0.3594 -0.0866
    1CHOL    R323012  10.940   6.955   6.249  0.1869 -0.0746 -0.0284
    1CHOL    R423013  10.676   6.997   6.128  0.1489 -0.4732 -0.1145
    1CHOL    R523014  10.818   6.839   6.079  0.4189 -0.2556 -0.0805
    1CHOL    C123015  10.785   7.006   5.737  0.2715 -0.2720 -0.0762
    1CHOL    C223016  10.624   7.158   5.611 -0.2426  0.0298 -0.1760
    1CHOL   ROH23017  18.674   2.402   6.094 -0.0433  0.0490 -0.0047
    1CHOL    R123018  18.532   2.471   5.859 -0.1945 -0.0927  0.0430
    1CHOL    R223019  18.646   2.459   5.608 -0.2191  0.1607  0.0192
    1CHOL    R323020  18.431   2.303   5.553  0.0051 -0.1555  0.0091
    1CHOL    R423021  18.536   2.379   5.290 -0.1950  0.1638  0.0101
    1CHOL    R523022  18.331   2.404   5.360 -0.2207 -0.1990  0.0970
    1CHOL    C123023  18.269   2.186   5.054  0.0291 -0.1313 -0.0048
    1CHOL    C223024  18.342   2.037   4.673  0.1132 -0.1207  0.3694
    1CHOL   ROH23025  26.462  14.837   4.977  0.1239  0.1327  0.0198
    1CHOL    R123026  26.441  14.656   4.761 -0.0792  0.1382  0.0349
    1CHOL    R223027  26.318  14.722   4.522  0.0199  0.2656  0.0226
    1CHOL    R323028  26.555  14.640   4.416 -0.0690 -0.0328  0.0442
    1CHOL    R423029  26.365  14.632   4.192 -0.0200  0.4252 -0.0280
    1CHOL    R523030  26.493  14.469   4.259 -0.2940  0.1689 -0.0979
    1CHOL    C123031  26.614  14.503   3.899 -0.1266  0.2383 -0.0371
    1CHOL    C223032  26.773  14.219   3.699  0.6036  0.2371 -0.0249
    1CHOL   ROH23033   9.988   5.756   4.006  0.3314  0.2679  0.1705
    1CHOL    R123034  10.058   5.667   4.265  0.3159  0.1735  0.1430
    1CHOL    R223035  10.166   5.836   4.456  0.2166  0.1262  0.2425
    1CHOL    R323036   9.959   5.744   4.607  0.2222 -0.0226  0.1612
    1CHOL    R423037  10.145   5.865   4.799  0.1815 -0.1192  0.2627
    1CHOL    R523038  10.064   5.662   4.807  0.2218 -0.1420  0.1137
    1CHOL    C123039   9.939   5.795   5.141  0.1662 -0.4017  0.1982
    1CHOL    C223040   9.969   5.734   5.529 -0.0339  0.3488 -0.0048
    1CHOL   ROH23041   7.344  17.455   2.862  0.1352  0.2003 -0.1553
    1CHOL    R123042   7.281  17.695   2.998  0.1660  0.1437 -0.0397
    1CHOL    R223043   7.055  17.724   3.153  0.0439  0.1721 -0.2231
    1CHOL    R323044   7.233  17.800   3.343 -0.0769 -0.0737 -0.0042
    1CHOL    R423045   6.976  17.900   3.440 -0.0752  0.2310 -0.2910
    1CHOL    R523046   7.158  18.016   3.413  0.1051  0.0133 -0.0668
    1CHOL    C123047   7.098  18.073   3.785 -0.2580  0.0346 -0.1250
    1CHOL    C223048   6.962  18.355   4.077 -0.0260  0.2875 -0.2098
    1CHOL   ROH23049  18.818  14.436   3.228 -0.0316  0.1093 -0.0393
    1CHOL    R123050  18.727  14.541   3.475 -0.0773  0.0986 -0.0496
    1CHOL    R223051  18.571  14.394   3.651 -0.0238  0.0495 -0.0293
    1CHOL    R323052  18.767  14.459   3.827 -0.0448  0.1469 -0.0449
    1CHOL    R423053  18.562  14.330   3.991  0.0618  0.0271 -0.0325
    1CHOL    R523054  18.651  14.526   4.025 -0.0489  0.0658 -0.0290
    1CHOL    C123055  18.741  14.355   4.354  0.0922  0.1055 -0.0491
    1CHOL    C223056  18.734  14.351   4.783  0.1771  0.2650 -0.0603
    1CHOL   ROH23057  13.787  20.116   3.800 -0.0119  0.0769  0.0345
    1CHOL    R123058  13.657  20.233   4.022 -0.0518 -0.0190  0.0623
    1CHOL    R223059  13.573  20.086   4.241  0.0251 -0.0944  0.0436
    1CHOL    R323060  13.721  20.268   4.379 -0.0460 -0.0523  0.0637
    1CHOL    R423061  13.532  20.160   4.576 -0.0453 -0.0936  0.0349
    1CHOL    R523062  13.564  20.370   4.529 -0.0937 -0.0891  0.0359
    1CHOL    C123063  13.647  20.373   4.901 -0.1531 -0.0534  0.0487
    1CHOL    C223064  13.774  20.658   5.205  0.1135 -0.1098 -0.0222
    1CHOL   ROH23065   2.115  14.527   5.769 -0.0780 -0.2634  0.0252
    1CHOL    R123066   2.058  14.571   5.495  0.0616 -0.1549  0.0131
    1CHOL    R223067   2.098  14.378   5.302 -0.0888 -0.1679  0.0002
    1CHOL    R323068   1.837  14.427   5.245 -0.0188  0.1318 -0.0869
    1CHOL    R423069   1.957  14.356   4.987 -0.0605 -0.2964 -0.0044
    1CHOL    R523070   1.842  14.536   5.031  0.1711 -0.0853 -0.2012
    1CHOL    C123071   1.630  14.388   4.750  0.0216 -0.0898 -0.0889
    1CHOL    C223072   1.606  14.461   4.336 -0.2881  0.0546 -0.1189
    1CHOL   ROH23073  17.782  24.111   5.415 -0.1462 -0.0384 -0.0097
    1CHOL    R123074  17.942  23.878   5.414  0.0127  0.0665  0.0118
    1CHOL    R223075  17.958  23.707   5.630  0.0348  0.0267 -0.0088
    1CHOL    R323076  17.887  23.520   5.447  0.2320  0.0255 -0.0823
    1CHOL    R423077  18.082  23.385   5.620  0.0860  0.0451  0.0742
    1CHOL    R523078  18.090  23.400   5.403  0.2808  0.0564  0.0912
    1CHOL    C123079  18.088  23.021   5.441  0.3011  0.0548  0.0535
    1CHOL    C223080  18.337  22.685   5.337 -0.0035  0.0556  0.0114
    1CHOL   ROH23081  17.846  27.079   3.911  0.1641  0.1059 -0.2193
    1CHOL    R123082  17.754  27.209   4.145  0.1538  0.1237 -0.2326
    1CHOL    R223083  17.854  27.152   4.396 -0.0150 -0.0208 -0.1933
    1CHOL    R323084  17.898  27.421   4.404  0.2008 -0.0570 -0.1106
    1CHOL    R423085  17.879  27.340   4.685 -0.0747 -0.0929 -0.1415
    1CHOL    R523086  17.764  27.497   4.587  0.1287  0.0198 -0.1975
    1CHOL    C123087  17.934  27.701   4.861  0.0932 -0.1688 -0.0337
    1CHOL    C223088  17.945  27.669   5.276 -0.1154  0.0540 -0.1594
    1CHOL   ROH23089   8.310   8.306   3.582 -0.0734  0.0225 -0.0251
    1CHOL    R123090   8.167   8.304   3.826 -0.0603  0.1997 -0.0142
    1CHOL    R223091   8.207   8.111   4.020 -0.3376  0.1006 -0.0499
    1CHOL    R323092   8.248   8.327   4.180  0.0068  0.0163 -0.0166
    1CHOL    R423093   8.219   8.102   4.365 -0.2213  0.0116 -0.0560
    1CHOL    R523094   8.107   8.288   4.370  0.0242  0.1618  0.0268
    1CHOL    C123095   8.265   8.299   4.717  0.1699 -0.1195 -0.0282
    1CHOL    C223096   8.149   8.132   5.204 -0.1691  0.1432  0.1131
    1CHOL   ROH23097  18.256  21.896   6.418 -0.1578 -0.1357  0.0551
    1CHOL    R123098  18.340  21.847   6.152 -0.0762 -0.0755  0.0702
    1CHOL    R223099  18.312  21.600   6.031 -0.0826 -0.0319 -0.0081
    1CHOL    R323100  18.184  21.745   5.840  0.0128  0.0449 -0.0159
    1CHOL    R423101  18.244  21.489   5.711 -0.2085 -0.0349  0.0186
    1CHOL    R523102  18.295  21.687   5.636 -0.0527 -0.0835 -0.0206
    1CHOL    C123103  18.084  21.561   5.345 -0.1920  0.0355  0.0268
    1CHOL    C223104  18.071  21.323   5.065 -0.1217  0.1043 -0.2590
    1CHOL   ROH23105   9.336   1.477   5.441  0.1344  0.3233  0.0699
    1CHOL    R123106   9.071   1.406   5.511  0.1897  0.1159  0.0767
    1CHOL    R223107   9.010   1.269   5.744  0.2930  0.1561  0.1292
    1CHOL    R323108   8.842   1.479   5.785  0.1028  0.0260  0.0280
    1CHOL    R423109   8.725   1.259   5.939  0.3294  0.0089  0.1756
    1CHOL    R523110   8.624   1.380   5.789  0.1935 -0.1739  0.1178
    1CHOL    C123111   8.401   1.449   6.091  0.1720 -0.1990  0.1077
    1CHOL    C223112   8.033   1.665   6.139 -0.1808 -0.0786 -0.0083
    1CHOL   ROH23113  16.424  20.416   3.949  0.0736 -0.1705  0.1600
    1CHOL    R123114  16.512  20.366   4.213 -0.0857  0.0755  0.2635
    1CHOL    R223115  16.746  20.473   4.315 -0.0177 -0.0317  0.2169
    1CHOL    R323116  16.581  20.563   4.511 -0.0075  0.3910  0.0423
    1CHOL    R423117  16.843  20.532   4.641 -0.1645 -0.0861  0.2717
    1CHOL    R523118  16.654  20.446   4.707 -0.4044  0.3222  0.1575
    1CHOL    C123119  16.745  20.651   5.016 -0.2408  0.2787  0.1398
    1CHOL    C223120  17.137  20.729   5.141  0.0381  0.4325 -0.1347
    1CHOL   ROH23121  10.548   8.859   6.869 -0.0069 -0.0255 -0.0295
    1CHOL    R123122  10.607   8.740   6.619 -0.0452 -0.0986 -0.0050
    1CHOL    R223123  10.413   8.623   6.460 -0.0773 -0.1167  0.0407
    1CHOL    R323124  10.511   8.793   6.272 -0.0723 -0.1748 -0.0082
    1CHOL    R423125  10.342   8.606   6.122  0.0230 -0.2805  0.0276
    1CHOL    R523126  10.551   8.654   6.081  0.0175 -0.2440  0.0639
    1CHOL    C123127  10.393   8.755   5.749  0.0862 -0.4304 -0.0259
    1CHOL    C223128  10.187   8.932   5.442  0.0170 -0.0434 -0.3223
    1CHOL   ROH23129  13.862  14.358   6.829  0.0728  0.0380  0.0669
    1CHOL    R123130  13.949  14.335   6.561 -0.0027  0.0155  0.0411
    1CHOL    R223131  13.775  14.299   6.350 -0.0692 -0.0179  0.0835
    1CHOL    R323132  13.900  14.518   6.250 -0.1107 -0.0155  0.0442
    1CHOL    R423133  13.768  14.395   6.019  0.1168 -0.1862  0.0307
    1CHOL    R523134  13.979  14.448   6.035  0.0669 -0.0796  0.1403
    1CHOL    C123135  13.882  14.658   5.732  0.1862 -0.2820 -0.0370
    1CHOL    C223136  13.670  14.818   5.510 -0.2955 -0.0917  0.2148
    1CHOL   ROH23137  19.070  18.752   7.300  0.1419 -0.1621 -0.1684
    1CHOL    R123138  19.007  18.705   7.028  0.0008 -0.0572 -0.1549
    1CHOL    R223139  18.753  18.741   6.926 -0.0198  0.1313 -0.0440
    1CHOL    R323140  18.882  18.902   6.749  0.0121  0.0911 -0.0569
    1CHOL    R423141  18.644  18.808   6.605 -0.0184  0.1481 -0.0409
    1CHOL    R523142  18.851  18.794   6.537 -0.0264  0.0921 -0.0511
    1CHOL    C123143  18.702  18.998   6.252  0.0125  0.1202 -0.0512
    1CHOL    C223144  18.433  18.811   5.965 -0.0395 -0.0214 -0.1353
    1CHOL   ROH23145  27.675  24.357   5.752 -0.3538 -0.2352 -0.2440
    1CHOL    R123146  27.764  24.549   5.565 -0.2707 -0.2161 -0.1855
    1CHOL    R223147  28.009  24.675   5.587 -0.3991 -0.0047  0.0962
    1CHOL    R323148  28.043  24.583   5.334  0.0060 -0.0547  0.1632
    1CHOL    R423149  28.181  24.842   5.338 -0.1719  0.0377  0.2789
    1CHOL    R523150  28.028  24.779   5.196  0.0594 -0.1051  0.0865
    1CHOL    C123151  28.315  24.852   4.955  0.3405  0.0154  0.4482
    1CHOL    C223152  28.574  25.117   4.997  0.0326  0.2968 -0.1956
    1CHOL   ROH23153  21.870   6.691   3.968 -0.1802 -0.2870 -0.1017
    1CHOL    R123154  21.753   6.742   4.220 -0.0569  0.0837 -0.1131
    1CHOL    R223155  21.717   6.544   4.410 -0.5287  0.2229 -0.0462
    1CHOL    R323156  21.855   6.717   4.569 -0.1011 -0.0447 -0.1082
    1CHOL    R423157  21.738   6.522   4.754 -0.3981  0.1682 -0.0570
    1CHOL    R523158  21.718   6.739   4.765  0.0335  0.2180 -0.0369
    1CHOL    C123159  21.879   6.671   5.104  0.0793 -0.1149 -0.1215
    1CHOL    C223160  21.707   6.496   5.413 -0.1840 -0.2056  0.1544
    1CHOL   ROH23161  15.163  21.189   6.820  0.0524  0.1371 -0.1047
    1CHOL    R123162  15.339  21.242   6.604  0.1115  0.2821 -0.0233
    1CHOL    R223163  15.287  21.158   6.346  0.4014  0.0434 -0.0133
    1CHOL    R323164  15.324  21.422   6.288  0.0274  0.0738 -0.1390
    1CHOL    R423165  15.380  21.282   6.037  0.4198  0.0130 -0.0195
    1CHOL    R523166  15.510  21.424   6.138  0.1291  0.2798 -0.0102
    1CHOL    C123167  15.469  21.601   5.803  0.0793  0.0241 -0.1412
    1CHOL    C223168  15.586  21.770   5.554  0.0218  0.0984  0.0512
    1CHOL   ROH23169  10.925   9.123   3.926  0.2262 -0.0818  0.0528
    1CHOL    R123170  10.877   9.008   4.180  0.0482 -0.1055  0.0151
    1CHOL    R223171  11.036   9.063   4.401 -0.0054 -0.2202  0.1023
    1CHOL    R323172  10.797   9.130   4.514 -0.0389 -0.1033 -0.0039
    1CHOL    R423173  10.979   9.095   4.740 -0.1802 -0.3325  0.0812
    1CHOL    R523174  10.786   8.998   4.712 -0.2436 -0.1921 -0.0700
    1CHOL    C123175  10.722   9.175   5.044 -0.3135 -0.2881 -0.0308
    1CHOL    C223176  10.636   9.267   5.316  0.0963  0.0698 -0.0130
    1CHOL   ROH23177  24.640  17.307   3.033 -0.1633 -0.1915  0.1751
    1CHOL    R123178  24.678  17.222   3.301  0.0118 -0.0399  0.2005
    1CHOL    R223179  24.914  17.265   3.439  0.0253  0.2310  0.0945
    1CHOL    R323180  24.748  17.379   3.621 -0.0082  0.1650  0.1066
    1CHOL    R423181  24.998  17.334   3.767 -0.0244  0.1219  0.1312
    1CHOL    R523182  24.799  17.268   3.827 -0.0352  0.0943  0.0781
    1CHOL    C123183  24.891  17.482   4.129 -0.0850 -0.0036  0.1639
    1CHOL    C223184  24.617  17.557   4.416  0.3043  0.1048 -0.0334
    1CHOL   ROH23185  22.094  10.779   3.935 -0.0850 -0.0512  0.0331
    1CHOL    R123186  22.232  10.918   4.139 -0.2275  0.0444  0.0662
    1CHOL    R223187  22.105  11.021   4.361 -0.3219 -0.2381  0.1502
    1CHOL    R323188  22.290  10.875   4.496 -0.0832 -0.0509  0.0316
    1CHOL    R423189  22.174  11.053   4.698 -0.0347 -0.0803  0.0799
    1CHOL    R523190  22.386  11.030   4.652 -0.0587  0.0710 -0.1047
    1CHOL    C123191  22.388  10.934   5.021  0.3565  0.1874 -0.0723
    1CHOL    C223192  22.372  11.053   5.363 -0.2371 -0.1171  0.0279
    1CHOL   ROH23193  11.357  19.774   6.465 -0.2395 -0.0290 -0.0960
    1CHOL    R123194  11.477  19.605   6.273 -0.2687  0.0034 -0.1431
    1CHOL    R223195  11.397  19.601   6.008 -0.1547  0.2165 -0.1847
    1CHOL    R323196  11.661  19.648   5.962 -0.1000  0.0665 -0.0356
    1CHOL    R423197  11.544  19.608   5.696 -0.0127  0.3489 -0.1160
    1CHOL    R523198  11.716  19.503   5.779 -0.1234  0.1653 -0.1202
    1CHOL    C123199  11.877  19.657   5.470  0.1212  0.2851  0.0640
    1CHOL    C223200  12.055  19.651   5.218  0.1520  0.5189 -0.0990
    1CHOL   ROH23201  16.482   6.147   4.152  0.1069  0.1101  0.1417
    1CHOL    R123202  16.429   6.233   4.416 -0.0293 -0.0242  0.1591
    1CHOL    R223203  16.177   6.217   4.530 -0.0613 -0.1948  0.0635
    1CHOL    R323204  16.310   6.081   4.725 -0.0649 -0.2087  0.0567
    1CHOL    R423205  16.078   6.196   4.861 -0.0451 -0.1743  0.0699
    1CHOL    R523206  16.286   6.217   4.920 -0.0361 -0.1994  0.0560
    1CHOL    C123207  16.144   6.057   5.235 -0.0392 -0.1754  0.0671
    1CHOL    C223208  16.143   5.769   5.540  0.1077 -0.2293  0.0048
    1CHOL   ROH23209  14.375  15.840   3.358 -0.2776 -0.3631 -0.0050
    1CHOL    R123210  14.495  15.889   3.610 -0.0596 -0.2204 -0.1322
    1CHOL    R223211  14.410  16.092   3.779  0.0249 -0.1817 -0.1308
    1CHOL    R323212  14.388  15.889   3.958  0.2608 -0.1208 -0.0305
    1CHOL    R423213  14.385  16.131   4.121 -0.3779 -0.0179 -0.1742
    1CHOL    R523214  14.517  15.960   4.146 -0.0554  0.2544  0.0543
    1CHOL    C123215  14.350  15.963   4.489 -0.3910  0.1346 -0.1054
    1CHOL    C223216  14.330  15.957   4.883 -0.0842 -0.2375  0.0527
    1CHOL   ROH23217  26.225  25.843   3.751  0.0069 -0.1032  0.0760
    1CHOL    R123218  26.276  25.610   3.903 -0.0214 -0.1418  0.0288
    1CHOL    R223219  26.076  25.472   4.036 -0.0204 -0.0656  0.1227
    1CHOL    R323220  26.172  25.261   3.894 -0.1894 -0.0912  0.0465
    1CHOL    R423221  26.066  25.143   4.140  0.2631 -0.0298  0.2708
    1CHOL    R523222  26.266  25.116   4.060  0.1363  0.0044 -0.0543
    1CHOL    C123223  26.150  24.753   4.068  0.2697 -0.0327  0.2856
    1CHOL    C223224  25.952  24.406   4.131  0.1021 -0.0752 -0.1776
    1CHOL   ROH23225  16.147  13.780   6.829 -0.1141 -0.1762 -0.0469
    1CHOL    R123226  16.054  13.587   6.645 -0.0700 -0.1176 -0.1315
    1CHOL    R223227  15.979  13.651   6.387 -0.0101 -0.0351 -0.1281
    1CHOL    R323228  16.159  13.458   6.321  0.0058 -0.0128 -0.1497
    1CHOL    R423229  15.964  13.456   6.102 -0.0761 -0.0990 -0.0815
    1CHOL    R523230  16.027  13.285   6.221  0.0023 -0.0616 -0.0647
    1CHOL    C123231  16.124  13.162   5.873 -0.0994 -0.1153 -0.0746
    1CHOL    C223232  16.050  13.030   5.489  0.1647  0.0768 -0.0197
    1CHOL   ROH23233  24.578   0.085   3.566 -0.0331 -0.1063 -0.0819
    1CHOL    R123234  24.378   0.103   3.765  0.0632 -0.1482  0.0196
    1CHOL    R223235  24.431   0.067   4.034  0.2543  0.1087  0.0179
    1CHOL    R323236  24.312   0.310   4.057  0.0317  0.0142 -0.1013
    1CHOL    R423237  24.330   0.210   4.332  0.1669  0.1805 -0.0455
    1CHOL    R523238  24.150   0.281   4.231  0.0833 -0.0408 -0.0607
    1CHOL    C123239  24.159   0.522   4.526 -0.0931  0.1336 -0.1943
    1CHOL    C223240  24.044   0.489   4.881 -0.2262 -0.2442 -0.0364
    1CHOL   ROH23241  12.293  12.555   3.580 -0.0666  0.0282  0.0435
    1CHOL    R123242  12.410  12.663   3.813 -0.0176  0.1099 -0.0183
    1CHOL    R223243  12.266  12.811   3.997 -0.0168  0.0381  0.0419
    1CHOL    R323244  12.364  12.629   4.173  0.1726  0.1041  0.0061
    1CHOL    R423245  12.226  12.827   4.340 -0.0502 -0.0805  0.0435
    1CHOL    R523246  12.432  12.760   4.362  0.0229  0.1370  0.0377
    1CHOL    C123247  12.294  12.664   4.704  0.1082 -0.0877  0.0108
    1CHOL    C223248  12.190  12.982   4.848  0.2363  0.0106  0.2571
    1CHOL   ROH23249  12.841   0.138   6.643  0.0291  0.0640  0.0984
    1CHOL    R123250  12.682   0.092   6.413  0.1495  0.0969  0.0075
    1CHOL    R223251  12.412   0.033   6.428  0.1998 -0.1940 -0.1258
    1CHOL    R323252  12.391   0.244   6.258  0.0415 -0.0664  0.0495
    1CHOL    R423253  12.161   0.075   6.195  0.0612 -0.0795  0.0417
    1CHOL    R523254  12.309   0.149   6.054 -0.0406  0.0741  0.0185
    1CHOL    C123255  11.994   0.298   5.900 -0.1679  0.1070  0.3038
    1CHOL    C223256  12.126   0.431   5.592  0.0214  0.1893  0.3896
    1CHOL   ROH23257  22.402   5.670   6.034 -0.3101 -0.1967  0.0885
    1CHOL    R123258  22.352   5.401   5.960 -0.3728 -0.1553 -0.0201
    1CHOL    R223259  22.153   5.331   5.781 -0.1090  0.0038 -0.3883
    1CHOL    R323260  22.357   5.207   5.652  0.0404 -0.1348 -0.0314
    1CHOL    R423261  22.142   5.009   5.657  0.0098 -0.1053 -0.1238
    1CHOL    R523262  22.346   4.980   5.727 -0.0759 -0.0706  0.1545
    1CHOL    C123263  22.328   4.705   5.463  0.2196 -0.2990  0.3652
    1CHOL    C223264  22.224   4.351   5.512  0.2244 -0.5831 -0.2503
    1CHOL   ROH23265   1.937  10.120   3.518  0.1053  0.1410 -0.1155
    1CHOL    R123266   1.967  10.225   3.779  0.0389  0.1619 -0.1160
    1CHOL    R223267   2.015  10.065   3.999 -0.0439  0.1766 -0.0856
    1CHOL    R323268   2.228  10.232   4.033 -0.0356  0.1566 -0.0396
    1CHOL    R423269   2.206  10.088   4.287 -0.1099  0.1707 -0.0412
    1CHOL    R523270   2.212  10.304   4.260 -0.0821  0.1673 -0.0475
    1CHOL    C123271   2.516  10.258   4.485 -0.1406  0.1485  0.0279
    1CHOL    C223272   2.860  10.147   4.645 -0.4389  0.4033  0.1551
    1CHOL   ROH23273  24.598  26.454   5.597  0.1188  0.3402  0.0585
    1CHOL    R123274  24.442  26.674   5.513 -0.0119  0.3053  0.2069
    1CHOL    R223275  24.288  26.668   5.284  0.0615  0.3962  0.1575
    1CHOL    R323276  24.089  26.741   5.454 -0.0440  0.1089  0.1635
    1CHOL    R423277  23.959  26.724   5.191  0.0501  0.2431  0.1011
    1CHOL    R523278  23.955  26.894   5.327 -0.1120  0.1274  0.2516
    1CHOL    C123279  23.581  26.825   5.297 -0.0555 -0.1157  0.0738
    1CHOL    C223280  23.201  26.911   5.322 -0.0091  0.0241  0.0213
    1CHOL   ROH23281  18.575  13.669   6.647 -0.1684 -0.0768  0.1024
    1CHOL    R123282  18.416  13.570   6.436 -0.0666 -0.2287  0.0947
    1CHOL    R223283  18.339  13.727   6.221 -0.2493 -0.2824  0.1148
    1CHOL    R323284  18.451  13.526   6.076 -0.0254 -0.1420  0.0892
    1CHOL    R423285  18.260  13.650   5.893 -0.0604 -0.2567  0.0620
    1CHOL    R523286  18.272  13.439   5.944  0.1018 -0.2591 -0.0027
    1CHOL    C123287  18.320  13.417   5.567  0.2597 -0.1097  0.0073
    1CHOL    C223288  18.234  13.622   5.357 -0.3445 -0.1947 -0.1181
    1CHOL   ROH23289   5.899  15.060   5.956 -0.1089  0.0189 -0.0534
    1CHOL    R123290   6.030  15.166   5.728 -0.0382  0.0177 -0.0142
    1CHOL    R223291   6.122  15.006   5.522  0.0530  0.0126  0.0265
    1CHOL    R323292   5.972  15.173   5.369  0.0879 -0.0133 -0.0349
    1CHOL    R423293   6.058  14.962   5.186  0.1040 -0.0535  0.0259
    1CHOL    R523294   6.083  15.176   5.157  0.1199 -0.0641 -0.0165
    1CHOL    C123295   5.879  15.092   4.846  0.1665 -0.1163 -0.0321
    1CHOL    C223296   5.893  14.707   4.591 -0.1224  0.1522  0.1772
    1CHOL   ROH23297  26.014   0.101   3.748 -0.0082 -0.1630  0.0067
    1CHOL    R123298  25.833   0.249   3.907  0.1490 -0.1042  0.1338
    1CHOL    R223299  25.561   0.202   3.905  0.0913  0.2145  0.0586
    1CHOL    R323300  25.596   0.177   4.174  0.0386 -0.0900  0.0412
    1CHOL    R423301  25.310   0.234   4.141  0.1232  0.4222  0.0655
    1CHOL    R523302  25.450   0.343   4.268  0.3047  0.0766  0.1779
    1CHOL    C123303  25.197   0.230   4.530  0.0922  0.2572  0.0533
    1CHOL    C223304  25.238   0.586   4.768 -0.0135 -0.2345 -0.0907
    1CHOL   ROH23305  19.960  14.836   6.514  0.1377 -0.3337 -0.1583
    1CHOL    R123306  19.830  14.847   6.263 -0.0326 -0.2721 -0.0710
    1CHOL    R223307  19.899  15.030   6.067 -0.2246 -0.1593 -0.0466
    1CHOL    R323308  19.926  14.808   5.914 -0.2417 -0.0892 -0.1493
    1CHOL    R423309  19.829  15.013   5.730 -0.1234  0.0160 -0.0767
    1CHOL    R523310  19.741  14.817   5.763 -0.1859  0.0309 -0.2025
    1CHOL    C123311  19.813  14.794   5.389 -0.0807  0.1840 -0.1906
    1CHOL    C223312  19.729  14.990   5.129 -0.3937 -0.2495  0.0197
    1CHOL   ROH23313  10.135  10.389   3.929 -0.2084  0.1258  0.0330
    1CHOL    R123314  10.106  10.263   4.180 -0.1595 -0.0417 -0.0434
    1CHOL    R223315  10.230  10.356   4.408 -0.0073 -0.2690 -0.0275
    1CHOL    R323316   9.977  10.354   4.509  0.0349 -0.2096  0.0806
    1CHOL    R423317  10.151  10.312   4.742  0.1214 -0.1948  0.0131
    1CHOL    R523318   9.983  10.187   4.680  0.0766 -0.1770  0.1079
    1CHOL    C123319   9.868  10.285   5.030  0.2357 -0.0959  0.1382
    1CHOL    C223320   9.972  10.325   5.480  0.4461 -0.0967  0.0500
    1CHOL   ROH23321  18.273   8.001   6.660  0.1509 -0.0386  0.0172
    1CHOL    R123322  18.365   7.919   6.404 -0.1152 -0.1528 -0.0463
    1CHOL    R223323  18.198   7.902   6.184 -0.2603  0.1995  0.0228
    1CHOL    R323324  18.384   8.065   6.072 -0.0093 -0.1059 -0.0185
    1CHOL    R423325  18.255   7.934   5.845 -0.1148 -0.0472  0.0211
    1CHOL    R523326  18.468   7.941   5.885 -0.1192 -0.3109  0.0705
    1CHOL    C123327  18.462   8.107   5.542  0.2055 -0.4774 -0.0188
    1CHOL    C223328  18.439   8.047   5.135 -0.0653  0.1477 -0.1890
    1CHOL   ROH23329  12.105  14.682   3.467  0.1687 -0.0073 -0.1575
    1CHOL    R123330  12.143  14.667   3.747  0.1676 -0.0350 -0.1588
    1CHOL    R223331  12.305  14.843   3.885  0.0146  0.0711 -0.1150
    1CHOL    R323332  12.081  14.882   4.034 -0.0251 -0.1454 -0.1146
    1CHOL    R423333  12.301  14.912   4.224 -0.0546 -0.1282 -0.0744
    1CHOL    R523334  12.129  14.780   4.244  0.0165 -0.2426 -0.1684
    1CHOL    C123335  12.088  14.988   4.560 -0.1324 -0.4475 -0.0504
    1CHOL    C223336  12.095  15.256   4.813  0.1563  0.1794 -0.0076
    1CHOL   ROH23337   6.105  25.153   4.522  0.0005  0.0108  0.1443
    1CHOL    R123338   5.941  25.363   4.429  0.0841 -0.0587 -0.1686
    1CHOL    R223339   5.904  25.597   4.570 -0.3398 -0.1043 -0.1965
    1CHOL    R323340   5.985  25.713   4.338  0.0971 -0.0180 -0.0115
    1CHOL    R423341   5.923  25.938   4.517 -0.2661 -0.0827 -0.0403
    1CHOL    R523342   5.844  25.906   4.316  0.1158 -0.0229 -0.2130
    1CHOL    C123343   6.011  26.245   4.267  0.1871  0.0107  0.2244
    1CHOL    C223344   6.056  26.576   4.051  0.1502 -0.1759 -0.2990
    1CHOL   ROH23345  10.737  12.840   6.754  0.1461  0.2683 -0.0482
    1CHOL    R123346  10.824  12.839   6.485  0.0585  0.4349 -0.0778
    1CHOL    R223347  10.757  12.638   6.308  0.5037  0.2163 -0.0106
    1CHOL    R323348  10.667  12.844   6.157 -0.0831 -0.0301 -0.0246
    1CHOL    R423349  10.777  12.653   5.963  0.5706  0.3052 -0.0039
    1CHOL    R523350  10.829  12.864   5.981 -0.0730  0.4774  0.0290
    1CHOL    C123351  10.704  12.855   5.620  0.0589  0.1258 -0.0133
    1CHOL    C223352  10.739  12.724   5.233 -0.1096 -0.0218 -0.0283
    1CHOL   ROH23353  16.167  21.137   3.798  0.1163 -0.0877 -0.0082
    1CHOL    R123354  16.013  21.278   3.989  0.1592 -0.0117 -0.0297
    1CHOL    R223355  15.852  21.151   4.174  0.0864  0.0666 -0.0397
    1CHOL    R323356  15.995  21.298   4.352  0.1328  0.0136 -0.0322
    1CHOL    R423357  15.765  21.197   4.505  0.0439  0.1648 -0.0635
    1CHOL    R523358  15.828  21.405   4.488  0.1646  0.1277 -0.0820
    1CHOL    C123359  15.849  21.361   4.866  0.0628  0.1718 -0.0704
    1CHOL    C223360  15.830  21.513   5.095  0.1068  0.3328  0.1995
    1CHOL   ROH23361  14.534  13.519   3.360 -0.1328  0.3113 -0.0762
    1CHOL    R123362  14.449  13.679   3.577 -0.1166  0.2023  0.0113
    1CHOL    R223363  14.340  13.572   3.808  0.0444  0.0770  0.0287
    1CHOL    R323364  14.535  13.717   3.929  0.0246  0.1421 -0.0157
    1CHOL    R423365  14.376  13.608   4.149  0.0634  0.1473  0.0198
    1CHOL    R523366  14.427  13.817   4.117  0.0165  0.1545 -0.0247
    1CHOL    C123367  14.581  13.764   4.462  0.0560  0.2493 -0.0270
    1CHOL    C223368  14.416  13.665   4.697 -0.1727  0.0002 -0.0882
    1CHOL   ROH23369  14.634  13.760   6.766 -0.1775 -0.0919 -0.0465
    1CHOL    R123370  14.548  13.844   6.509 -0.2188 -0.0626 -0.0249
    1CHOL    R223371  14.725  13.902   6.305 -0.2338  0.2333  0.0319
    1CHOL    R323372  14.575  13.722   6.168 -0.0074  0.1257 -0.0763
    1CHOL    R423373  14.643  13.928   5.970 -0.2159  0.2886  0.0329
    1CHOL    R523374  14.443  13.855   6.019 -0.1373  0.0386 -0.0328
    1CHOL    C123375  14.453  13.774   5.647  0.0070  0.2198 -0.0680
    1CHOL    C223376  14.305  13.914   5.375  0.0089 -0.0735  0.2156
    1CHOL   ROH23377  12.272  20.870   3.444  0.1064 -0.1036  0.0694
    1CHOL    R123378  12.083  20.860   3.655 -0.0438 -0.0185 -0.0599
    1CHOL    R223379  12.146  20.926   3.915 -0.1413 -0.2296  0.0170
    1CHOL    R323380  11.935  21.095   3.890  0.0523  0.0113 -0.0281
    1CHOL    R423381  11.972  21.065   4.179 -0.1825 -0.2184 -0.0155
    1CHOL    R523382  11.787  21.033   4.068 -0.1419  0.0471 -0.1716
    1CHOL    C123383  11.672  21.305   4.309 -0.0249  0.0142 -0.0767
    1CHOL    C223384  11.427  21.448   4.658  0.1801 -0.2417 -0.1931
    1CHOL   ROH23385  14.270  10.311   3.703  0.1597 -0.1254 -0.0780
    1CHOL    R123386  14.210  10.195   3.953  0.1170 -0.0810 -0.0668
    1CHOL    R223387  14.397  10.056   4.102  0.0900 -0.0707 -0.0153
    1CHOL    R323388  14.326  10.231   4.297  0.0730 -0.0303 -0.0588
    1CHOL    R423389  14.422   9.995   4.441  0.2981  0.1081  0.0029
    1CHOL    R523390  14.230  10.094   4.468  0.2503 -0.0094  0.0537
    1CHOL    C123391  14.369  10.125   4.822  0.4032  0.2502 -0.0272
    1CHOL    C223392  14.523  10.263   5.109 -0.1052  0.1106 -0.3680
    1CHOL   ROH23393  20.136  10.589   6.466 -0.0381 -0.0718  0.0225
    1CHOL    R123394  20.221  10.417   6.257  0.0323 -0.0189  0.0072
    1CHOL    R223395  20.469  10.440   6.138  0.0393  0.0690  0.0342
    1CHOL    R323396  20.490  10.177   6.205  0.1070  0.0660  0.0019
    1CHOL    R423397  20.694  10.217   5.998 -0.0187  0.1012 -0.1129
    1CHOL    R523398  20.537  10.066   5.998 -0.0020  0.0859 -0.0326
    1CHOL    C123399  20.844   9.841   5.981  0.0108  0.1173 -0.2289
    1CHOL    C223400  21.102   9.600   5.732  0.0850 -0.0334  0.1835
    1CHOL   ROH23401   1.795   2.232   5.547  0.0700 -0.1025  0.2958
    1CHOL    R123402   1.825   2.069   5.318 -0.3110 -0.1132  0.2465
    1CHOL    R223403   2.064   1.946   5.253 -0.2784  0.2340 -0.3767
    1CHOL    R323404   1.911   1.722   5.250  0.0370 -0.0059  0.1171
    1CHOL    R423405   2.129   1.665   5.063 -0.3336  0.2463 -0.4133
    1CHOL    R523406   1.916   1.649   5.022 -0.4306 -0.0949  0.1274
    1CHOL    C123407   2.022   1.290   4.950 -0.0697  0.0283  0.0289
    1CHOL    C223408   1.688   1.083   4.740  0.1953 -0.0772 -0.0653
    1CHOL   ROH23409  16.082  11.220   3.401 -0.2164 -0.1934  0.0223
    1CHOL    R123410  16.096  11.381   3.634  0.0155 -0.1794  0.0012
    1CHOL    R223411  15.880  11.416   3.803  0.0860  0.0959  0.0354
    1CHOL    R323412  16.056  11.331   3.993  0.0211 -0.0886  0.0153
    1CHOL    R423413  15.848  11.474   4.142  0.3421  0.4169  0.0093
    1CHOL    R523414  16.063  11.510   4.151  0.4235  0.0285 -0.1203
    1CHOL    C123415  15.994  11.429   4.517  0.4303  0.4307 -0.0247
    1CHOL    C223416  16.151  11.532   4.897 -0.3762  0.2125 -0.0951
    1CHOL   ROH23417  15.558   5.448   4.494  0.0150 -0.0768 -0.1250
    1CHOL    R123418  15.420   5.356   4.724 -0.0755  0.0487 -0.1279
    1CHOL    R223419  15.501   5.418   4.981  0.0274 -0.0946 -0.1228
    1CHOL    R323420  15.246   5.507   5.005  0.1349  0.2143 -0.0842
    1CHOL    R423421  15.333   5.456   5.280 -0.0008 -0.2405 -0.1195
    1CHOL    R523422  15.154   5.377   5.185 -0.0838  0.1113 -0.2668
    1CHOL    C123423  14.996   5.562   5.478  0.0838 -0.0354 -0.0814
    1CHOL    C223424  14.827   5.648   5.738  0.0659 -0.2460 -0.0511
    1CHOL   ROH23425  12.078  12.014   6.886 -0.1526 -0.0758 -0.1155
    1CHOL    R123426  12.086  12.125   6.626 -0.1512 -0.1485 -0.1470
    1CHOL    R223427  12.240  12.018   6.423 -0.1696 -0.2200 -0.1231
    1CHOL    R323428  12.003  12.016   6.289 -0.1745 -0.2338 -0.1142
    1CHOL    R423429  12.207  12.032   6.079 -0.1855 -0.0580 -0.1158
    1CHOL    R523430  12.037  12.166   6.105 -0.2316 -0.1284 -0.0409
    1CHOL    C123431  11.967  12.037   5.753 -0.1994  0.0234 -0.1033
    1CHOL    C223432  11.924  12.151   5.343  0.1839 -0.1080  0.0820
    1CHOL   ROH23433  17.951  17.235   3.858  0.0618 -0.2279 -0.0473
    1CHOL    R123434  17.898  17.364   4.104 -0.0033 -0.1220 -0.1155
    1CHOL    R223435  17.771  17.237   4.315 -0.0098 -0.0500 -0.0730
    1CHOL    R323436  17.992  17.316   4.453 -0.0459  0.0612 -0.0784
    1CHOL    R423437  17.786  17.283   4.657  0.0181 -0.1829 -0.0559
    1CHOL    R523438  17.908  17.460   4.624 -0.1245 -0.0761 -0.0023
    1CHOL    C123439  18.001  17.384   4.986  0.0001 -0.1560 -0.0509
    1CHOL    C223440  18.075  17.640   5.180 -0.1707 -0.0015  0.1172
    1CHOL   ROH23441   8.324  17.616   2.933 -0.0638  0.2098  0.1348
    1CHOL    R123442   8.326  17.618   3.216 -0.0173  0.2298  0.1338
    1CHOL    R223443   8.238  17.835   3.364 -0.2660  0.1285  0.1328
    1CHOL    R323444   8.079  17.649   3.482 -0.0117 -0.0659  0.1775
    1CHOL    R423445   8.072  17.879   3.664 -0.3632  0.0000  0.0993
    1CHOL    R523446   8.123  17.674   3.716 -0.0681  0.0833  0.1766
    1CHOL    C123447   7.826  17.730   3.949 -0.1812 -0.2576  0.1218
    1CHOL    C223448   7.538  18.028   4.086 -0.1172 -0.1047 -0.0161
    1CHOL   ROH23449  21.013  15.921   3.295  0.0738 -0.0369 -0.1361
    1CHOL    R123450  21.258  15.883   3.432  0.0433 -0.0656 -0.0900
    1CHOL    R223451  21.320  16.019   3.665  0.0428 -0.0224 -0.1177
    1CHOL    R323452  21.361  15.768   3.761 -0.0345 -0.0080 -0.0443
    1CHOL    R423453  21.464  15.946   3.970  0.1262  0.0253 -0.1447
    1CHOL    R523454  21.572  15.782   3.875  0.0175 -0.0596 -0.1290
    1CHOL    C123455  21.587  15.667   4.239  0.1021  0.0664 -0.0916
    1CHOL    C223456  21.795  15.406   4.413 -0.2914 -0.2522  0.2200
    1CHOL   ROH23457   8.309  15.526   6.233  0.0211  0.1737 -0.0392
    1CHOL    R123458   8.207  15.395   6.004 -0.1065  0.1780  0.0147
    1CHOL    R223459   8.131  15.532   5.776  0.1046  0.1533 -0.0697
    1CHOL    R323460   8.304  15.360   5.655 -0.0911 -0.1328  0.0467
    1CHOL    R423461   8.157  15.486   5.434  0.2631  0.1266 -0.0552
    1CHOL    R523462   8.179  15.272   5.469 -0.1159  0.0793 -0.0425
    1CHOL    C123463   8.334  15.298   5.122  0.1715 -0.1574  0.0625
    1CHOL    C223464   8.339  15.203   4.778 -0.0102 -0.0002 -0.0487
    1CHOL   ROH23465  27.459  14.838   5.226 -0.0110 -0.0114 -0.0334
    1CHOL    R123466  27.494  14.974   4.981  0.1134 -0.0315 -0.0278
    1CHOL    R223467  27.742  15.054   4.890  0.1810 -0.1916  0.0077
    1CHOL    R323468  27.670  14.914   4.668  0.1202 -0.1444 -0.0023
    1CHOL    R423469  27.896  15.080   4.581  0.0297 -0.0495 -0.0568
    1CHOL    R523470  27.699  15.068   4.488 -0.0104 -0.0798  0.0316
    1CHOL    C123471  27.917  14.963   4.193 -0.1153  0.0774 -0.1038
    1CHOL    C223472  28.218  15.023   3.976 -0.2617  0.1869 -0.1578
    1CHOL   ROH23473   2.540   1.989   5.235  0.0795  0.1548 -0.0124
    1CHOL    R123474   2.724   1.986   5.019  0.1727  0.1188  0.0646
    1CHOL    R223475   2.948   2.148   5.013  0.1649  0.1412  0.1182
    1CHOL    R323476   3.077   1.912   4.974  0.1997  0.1423  0.2366
    1CHOL    R423477   3.278   2.118   4.916  0.0516  0.1523 -0.2856
    1CHOL    R523478   3.220   1.953   4.786 -0.0637 -0.0316 -0.0075
    1CHOL    C123479   3.592   1.879   4.823  0.0183  0.1598 -0.4097
    1CHOL    C223480   3.873   2.009   5.093 -0.0249 -0.0604 -0.1496
    1CHOL   ROH23481   3.379  24.640   3.367 -0.0709  0.2104  0.0923
    1CHOL    R123482   3.381  24.704   3.642 -0.1276 -0.0004  0.1432
    1CHOL    R223483   3.334  24.516   3.839  0.1332 -0.2171  0.0027
    1CHOL    R323484   3.572  24.605   3.936  0.0312  0.0164  0.0474
    1CHOL    R423485   3.415  24.536   4.174  0.0983 -0.2750  0.0150
    1CHOL    R523486   3.513  24.727   4.134 -0.1188 -0.1380  0.1026
    1CHOL    C123487   3.686  24.631   4.461 -0.0177 -0.0893  0.0643
    1CHOL    C223488   3.716  24.307   4.602 -0.4469  0.0864  0.0834
    1CHOL   ROH23489  22.754  13.896   6.037 -0.1106  0.2973 -0.1111
    1CHOL    R123490  22.890  13.852   5.792 -0.0538  0.1693 -0.0567
    1CHOL    R223491  22.990  13.604   5.721 -0.0014  0.1408  0.1143
    1CHOL    R323492  22.841  13.645   5.497  0.0392 -0.0182  0.0573
    1CHOL    R423493  23.084  13.509   5.402  0.1277  0.0504  0.1782
    1CHOL    R523494  23.002  13.697   5.328  0.0619 -0.0154  0.0787
    1CHOL    C123495  22.999  13.491   5.006  0.2407 -0.1516  0.1619
    1CHOL    C223496  23.209  13.636   4.665 -0.1108  0.0204 -0.0095
    1CHOL   ROH23497   6.410   7.325   4.055  0.1618 -0.2572 -0.1707
    1CHOL    R123498   6.542   7.382   4.299  0.3111  0.0580 -0.3193
    1CHOL    R223499   6.544   7.205   4.512  0.1162  0.4789  0.0447
    1CHOL    R323500   6.813   7.237   4.493  0.1631  0.0624 -0.1042
    1CHOL    R423501   6.771   7.112   4.755  0.0763  0.4126  0.0582
    1CHOL    R523502   6.882   7.295   4.715  0.3358  0.2131 -0.1931
    1CHOL    C123503   7.157   7.088   4.878  0.0970 -0.0170 -0.0736
    1CHOL    C223504   7.335   6.942   5.078 -0.1264 -0.0680 -0.2239
    1CHOL   ROH23505  17.344  19.935   4.018  0.0394  0.1689  0.1370
    1CHOL    R123506  17.397  19.767   4.240 -0.0925  0.0064  0.0478
    1CHOL    R223507  17.447  19.867   4.493  0.0608 -0.1660  0.0839
    1CHOL    R323508  17.244  19.702   4.564 -0.0995  0.0107  0.0468
    1CHOL    R423509  17.334  19.822   4.816  0.0931 -0.1997  0.0908
    1CHOL    R523510  17.313  19.609   4.774 -0.1413 -0.1650 -0.0115
    1CHOL    C123511  17.077  19.640   5.071 -0.0384 -0.0533  0.0599
    1CHOL    C223512  17.078  19.852   5.388 -0.0693  0.3331 -0.1871
    1CHOL   ROH23513  18.805   6.051   6.570 -0.0946 -0.1215 -0.0784
    1CHOL    R123514  18.965   6.089   6.340 -0.0534 -0.1576 -0.0572
    1CHOL    R223515  18.897   5.985   6.093 -0.1313 -0.0045 -0.1095
    1CHOL    R323516  18.925   6.243   6.012  0.0796  0.0104  0.0065
    1CHOL    R423517  18.937   6.084   5.765 -0.4633  0.1504 -0.1062
    1CHOL    R523518  19.084   6.231   5.832 -0.1851 -0.0781 -0.2207
    1CHOL    C123519  18.986   6.384   5.497 -0.4583  0.2546  0.0046
    1CHOL    C223520  19.241   6.236   5.140  0.1293 -0.0180 -0.0582
    1CHOL   ROH23521  13.626   5.818   4.236 -0.0811 -0.2305  0.1373
    1CHOL    R123522  13.648   5.863   4.514 -0.0306  0.0478  0.0907
    1CHOL    R223523  13.595   6.108   4.630 -0.2850  0.0927 -0.1126
    1CHOL    R323524  13.426   5.963   4.785 -0.0534  0.0219  0.0816
    1CHOL    R423525  13.512   6.185   4.956 -0.2015  0.2435 -0.1256
    1CHOL    R523526  13.523   5.972   5.003  0.0497  0.2866  0.0283
    1CHOL    C123527  13.304   6.093   5.292  0.0646  0.2648  0.0492
    1CHOL    C223528  13.048   6.228   5.564  0.1021 -0.0691  0.0898
    1CHOL   ROH23529  20.132  15.117   3.361  0.1330 -0.2994  0.0183
    1CHOL    R123530  20.122  15.015   3.625 -0.1144 -0.1235  0.0810
    1CHOL    R223531  20.343  14.907   3.753 -0.2867 -0.2624  0.2766
    1CHOL    R323532  20.282  15.090   3.943 -0.2180 -0.0771  0.1208
    1CHOL    R423533  20.458  14.901   4.078 -0.2699 -0.0071  0.2763
    1CHOL    R523534  20.262  14.963   4.145 -0.2426  0.1096  0.2347
    1CHOL    C123535  20.468  15.069   4.447 -0.1954  0.3156  0.1299
    1CHOL    C223536  20.632  15.206   4.736  0.2251  0.0273 -0.1669
    1CHOL   ROH23537  11.886  10.002   3.727  0.0078  0.0891 -0.1308
    1CHOL    R123538  12.056   9.997   3.953  0.0537 -0.0149 -0.1675
    1CHOL    R223539  11.973  10.078   4.204  0.1820  0.1180 -0.1680
    1CHOL    R323540  12.061   9.831   4.277 -0.0257  0.0533 -0.1309
    1CHOL    R423541  12.008   9.969   4.530  0.1736  0.1707 -0.1494
    1CHOL    R523542  12.193   9.870   4.472  0.0681 -0.0178 -0.1783
    1CHOL    C123543  12.110   9.675   4.789 -0.0261  0.1406 -0.1036
    1CHOL    C223544  12.258   9.791   5.088  0.1053  0.3537  0.4089
    1CHOL   ROH23545   9.319  13.082   6.789 -0.1401  0.4039 -0.0206
    1CHOL    R123546   9.489  13.024   6.569 -0.0668  0.3841  0.0404
    1CHOL    R223547   9.416  12.852   6.366  0.1068  0.1563  0.1648
    1CHOL    R323548   9.476  13.064   6.208 -0.0710  0.0908  0.0065
    1CHOL    R423549   9.470  12.835   6.025  0.0042 -0.0261  0.1560
    1CHOL    R523550   9.633  12.978   6.049 -0.0734  0.0851  0.0101
    1CHOL    C123551   9.558  13.025   5.678 -0.2223 -0.1938  0.0024
    1CHOL    C223552   9.550  13.076   5.219 -0.0001  0.1990  0.0632
    1CHOL   ROH23553   8.892  16.240   3.222 -0.0865 -0.2372 -0.0182
    1CHOL    R123554   8.741  16.343   3.438  0.2039  0.0333  0.0623
    1CHOL    R223555   8.571  16.186   3.589 -0.2078  0.3760 -0.0278
    1CHOL    R323556   8.717  16.284   3.796  0.0874 -0.1413  0.0277
    1CHOL    R423557   8.473  16.180   3.921 -0.1103  0.2684  0.0005
    1CHOL    R523558   8.555  16.381   3.943  0.3420  0.0792  0.1745
    1CHOL    C123559   8.554  16.269   4.308  0.2236 -0.2800  0.0692
    1CHOL    C223560   8.522  16.241   4.762  0.0444 -0.0389  0.0022
    1CHOL   ROH23561   1.604  18.543   4.977 -0.4249 -0.0945 -0.0228
    1CHOL    R123562   1.703  18.395   4.757 -0.3380 -0.1642  0.0626
    1CHOL    R223563   1.545  18.220   4.613 -0.3279 -0.0801 -0.0507
    1CHOL    R323564   1.629  18.368   4.402 -0.0748 -0.1411  0.0043
    1CHOL    R423565   1.553  18.110   4.286 -0.4030 -0.0160 -0.0743
    1CHOL    R523566   1.744  18.212   4.261 -0.2538 -0.2684 -0.0051
    1CHOL    C123567   1.637  18.185   3.896 -0.2092 -0.0356 -0.0365
    1CHOL    C223568   2.030  18.071   3.706 -0.1161 -0.0703 -0.2361
    1CHOL   ROH23569  15.930   8.480   6.777 -0.0863  0.0895 -0.0458
    1CHOL    R123570  16.025   8.478   6.510 -0.0628  0.0184 -0.0370
    1CHOL    R223571  15.988   8.264   6.340 -0.0260 -0.0341  0.0253
    1CHOL    R323572  15.880   8.453   6.177 -0.0286 -0.0965 -0.0450
    1CHOL    R423573  16.032   8.275   5.998 -0.2259 -0.3187 -0.0136
    1CHOL    R523574  16.051   8.493   6.013 -0.1010 -0.3098 -0.1827
    1CHOL    C123575  15.958   8.459   5.645 -0.3448 -0.5429 -0.1023
    1CHOL    C223576  16.246   8.533   5.384  0.2568  0.0872  0.1297
    1CHOL   ROH23577  21.887  20.527   5.848 -0.2067 -0.1649  0.1771
    1CHOL    R123578  21.796  20.697   5.642 -0.2550 -0.0900  0.2603
    1CHOL    R223579  21.681  20.943   5.692  0.0202  0.0177  0.3658
    1CHOL    R323580  21.873  21.032   5.522 -0.0658 -0.1637  0.1699
    1CHOL    R423581  21.647  21.213   5.479 -0.0293 -0.0937  0.2315
    1CHOL    R523582  21.753  21.099   5.326 -0.1868 -0.2311  0.2168
    1CHOL    C123583  21.808  21.453   5.194 -0.1389 -0.3284 -0.0306
    1CHOL    C223584  21.423  21.528   5.014 -0.2097  0.1753 -0.0182
    1CHOL   ROH23585  13.006  11.285   3.454 -0.1302  0.0610  0.0411
    1CHOL    R123586  13.115  11.328   3.712 -0.1201 -0.1201  0.0688
    1CHOL    R223587  13.136  11.580   3.824  0.2578 -0.1495  0.0787
    1CHOL    R323588  12.999  11.465   4.029  0.0184  0.0620  0.0426
    1CHOL    R423589  13.173  11.661   4.158  0.0754 -0.0059  0.0658
    1CHOL    R523590  13.158  11.449   4.206 -0.1226  0.0295  0.1675
    1CHOL    C123591  13.066  11.600   4.544 -0.2554  0.2760  0.0245
    1CHOL    C223592  12.967  11.564   4.901  0.4646 -0.2414 -0.1213
    1CHOL   ROH23593  13.476   8.982   7.301  0.1787  0.2414 -0.1025
    1CHOL    R123594  13.278   8.978   7.098  0.1088  0.2448 -0.0353
    1CHOL    R223595  13.328   9.062   6.840  0.0682  0.0923 -0.0958
    1CHOL    R323596  13.234   8.816   6.776 -0.0821  0.1081  0.0580
    1CHOL    R423597  13.220   8.968   6.526 -0.0641 -0.0168 -0.0182
    1CHOL    R523598  13.057   8.858   6.620 -0.0988  0.1206  0.0820
    1CHOL    C123599  13.068   8.682   6.282 -0.2822 -0.0654  0.1715
    1CHOL    C223600  12.718   8.674   5.989 -0.0637 -0.0967  0.3099
    1CHOL   ROH23601  19.504  12.391   6.547 -0.1220  0.0035  0.0066
    1CHOL    R123602  19.460  12.506   6.292  0.1095  0.0762 -0.0015
    1CHOL    R223603  19.662  12.537   6.105  0.1881 -0.2887  0.0250
    1CHOL    R323604  19.491  12.400   5.945 -0.0414  0.0095  0.0026
    1CHOL    R423605  19.636  12.578   5.763  0.4868 -0.3956 -0.0143
    1CHOL    R523606  19.420  12.560   5.782  0.4168  0.1055 -0.1251
    1CHOL    C123607  19.461  12.472   5.414  0.4455 -0.1779 -0.0583
    1CHOL    C223608  19.338  12.494   5.070  0.0160  0.1169  0.1018
    1CHOL   ROH23609  13.147  19.141   3.393 -0.0780 -0.0207 -0.0952
    1CHOL    R123610  13.212  19.154   3.668 -0.0018 -0.0620 -0.1116
    1CHOL    R223611  13.105  19.345   3.838 -0.0319 -0.1522 -0.0342
    1CHOL    R323612  13.033  19.127   3.984  0.1052 -0.2178 -0.0615
    1CHOL    R423613  13.064  19.342   4.181 -0.0361 -0.2108 -0.0347
    1CHOL    R523614  13.160  19.146   4.186  0.0930 -0.1541 -0.0555
    1CHOL    C123615  12.973  19.136   4.518  0.0901 -0.3064 -0.0606
    1CHOL    C223616  12.817  19.317   4.735 -0.3056  0.0207  0.1299
    1CHOL   ROH23617  14.368  21.808   6.789 -0.1666  0.0022 -0.0907
    1CHOL    R123618  14.438  21.873   6.523 -0.1789  0.0445 -0.0833
    1CHOL    R223619  14.250  21.918   6.326 -0.1874  0.1203 -0.0560
    1CHOL    R323620  14.384  22.152   6.295 -0.1472  0.1019 -0.0218
    1CHOL    R423621  14.278  22.091   6.028 -0.1200  0.1303 -0.0440
    1CHOL    R523622  14.486  22.134   6.079 -0.1184  0.0961 -0.0099
    1CHOL    C123623  14.420  22.412   5.826 -0.0430  0.1188 -0.0049
    1CHOL    C223624  14.566  22.577   5.474 -0.2836  0.0851 -0.3281
    1CHOL   ROH23625  12.513   5.644   7.018 -0.2965 -0.0372 -0.0140
    1CHOL    R123626  12.633   5.501   6.806 -0.2587  0.0849 -0.0754
    1CHOL    R223627  12.561   5.241   6.743 -0.0574  0.0281 -0.0648
    1CHOL    R323628  12.521   5.347   6.495 -0.2530  0.0118 -0.0422
    1CHOL    R423629  12.571   5.062   6.447 -0.0918  0.0404 -0.0739
    1CHOL    R523630  12.675   5.229   6.355 -0.2457  0.1141 -0.1240
    1CHOL    C123631  12.538   5.057   6.043 -0.2956  0.0323 -0.0581
    1CHOL    C223632  12.767   4.941   5.729 -0.4041 -0.2091  0.2053
    1CHOL   ROH23633  12.841   6.341   4.367 -0.0238 -0.0305  0.1334
    1CHOL    R123634  12.847   6.321   4.649 -0.0169  0.0886  0.1415
    1CHOL    R223635  13.079   6.351   4.795 -0.0155  0.1470  0.1213
    1CHOL    R323636  12.934   6.539   4.927 -0.0075  0.2042  0.0506
    1CHOL    R423637  13.166   6.487   5.101  0.0023  0.2605  0.0665
    1CHOL    R523638  12.955   6.478   5.158 -0.0011  0.2893  0.0761
    1CHOL    C123639  13.080   6.743   5.403  0.0199  0.3803 -0.0317
    1CHOL    C223640  13.147   6.644   5.850 -0.0639 -0.0828 -0.0571
    1CHOL   ROH23641  12.409  18.576   3.316 -0.0294  0.1356 -0.0545
    1CHOL    R123642  12.416  18.677   3.581  0.1192  0.0465 -0.0227
    1CHOL    R223643  12.187  18.738   3.723  0.2003  0.1775  0.0590
    1CHOL    R323644  12.297  18.571   3.908  0.1244  0.0314 -0.0266
    1CHOL    R423645  12.116  18.742   4.062  0.1632 -0.0071  0.0541
    1CHOL    R523646  12.327  18.708   4.102  0.1450 -0.0980  0.0602
    1CHOL    C123647  12.178  18.587   4.431  0.0702 -0.2516 -0.0291
    1CHOL    C223648  12.012  18.668   4.807  0.1675 -0.0512  0.0129
    1CHOL   ROH23649  11.700  14.647   6.954  0.2042  0.1810 -0.0879
    1CHOL    R123650  11.627  14.679   6.683  0.2095  0.0979 -0.1000
    1CHOL    R223651  11.810  14.670   6.477  0.1988 -0.0819 -0.1057
    1CHOL    R323652  11.643  14.479   6.379  0.1019 -0.0447 -0.0129
    1CHOL    R423653  11.774  14.592   6.142 -0.0211 -0.0607 -0.0879
    1CHOL    R523654  11.559  14.573   6.175 -0.0046 -0.0204  0.0423
    1CHOL    C123655  11.596  14.368   5.855 -0.2403 -0.0133  0.0097
    1CHOL    C223656  11.709  14.476   5.455 -0.0234  0.1175  0.0312
    1CHOL   ROH23657  25.404  18.781   2.979 -0.0262  0.1468  0.2000
    1CHOL    R123658  25.439  18.687   3.244  0.0730  0.1090  0.1737
    1CHOL    R223659  25.607  18.811   3.425 -0.0847  0.2588  0.2161
    1CHOL    R323660  25.384  18.817   3.579 -0.1012 -0.0559  0.2119
    1CHOL    R423661  25.604  18.793   3.770 -0.0522  0.3066  0.2191
    1CHOL    R523662  25.430  18.664   3.758  0.1359  0.0343  0.2363
    1CHOL    C123663  25.393  18.789   4.116 -0.0486  0.0392  0.2169
    1CHOL    C223664  25.327  18.591   4.409 -0.0663  0.1829  0.0526
    1CHOL   ROH23665  14.600   8.329   6.966  0.0285 -0.1224 -0.0687
    1CHOL    R123666  14.629   8.241   6.698  0.1405 -0.1029 -0.0638
    1CHOL    R223667  14.413   8.178   6.538  0.2095 -0.1982 -0.1256
    1CHOL    R323668  14.526   8.359   6.370  0.1742 -0.1395 -0.0861
    1CHOL    R423669  14.353   8.197   6.198 -0.0026  0.0512 -0.0775
    1CHOL    R523670  14.565   8.236   6.168 -0.0096 -0.0213 -0.1916
    1CHOL    C123671  14.425   8.377   5.842 -0.1592  0.2515 -0.0124
    1CHOL    C223672  14.625   8.380   5.541  0.1421 -0.3645  0.0761
    1CHOL   ROH23673  22.098  16.480   6.195  0.0246 -0.0032  0.2067
    1CHOL    R123674  21.905  16.594   6.022  0.0663 -0.1560  0.0563
    1CHOL    R223675  21.781  16.835   6.075 -0.2758 -0.3184  0.0367
    1CHOL    R323676  21.873  16.899   5.827 -0.0886 -0.1079  0.1567
    1CHOL    R423677  21.617  17.040   5.850 -0.2284 -0.3325 -0.0104
    1CHOL    R523678  21.676  16.905   5.690  0.0373 -0.1970 -0.0301
    1CHOL    C123679  21.607  17.220   5.487 -0.0251 -0.1429  0.0748
    1CHOL    C223680  21.354  17.148   5.191  0.1732 -0.0622 -0.1084
    1CHOL   ROH23681  20.747  11.920   3.595  0.1405 -0.0329  0.0585
    1CHOL    R123682  20.809  12.023   3.852 -0.0460  0.0263  0.0834
    1CHOL    R223683  20.619  12.140   4.015 -0.2150 -0.1244  0.0118
    1CHOL    R323684  20.707  11.956   4.194 -0.1306 -0.0538  0.0410
    1CHOL    R423685  20.564  12.153   4.356 -0.1168 -0.0442  0.0235
    1CHOL    R523686  20.768  12.084   4.387 -0.1013  0.0057 -0.0137
    1CHOL    C123687  20.615  11.988   4.723  0.0196  0.0688  0.0579
    1CHOL    C223688  20.719  11.649   5.090 -0.1127  0.2227  0.1708
    1CHOL   ROH23689   7.225   4.879   3.990 -0.1091 -0.0447  0.0172
    1CHOL    R123690   7.198   4.676   4.185  0.1035 -0.0257  0.0695
    1CHOL    R223691   7.375   4.648   4.395  0.0222  0.3442  0.2010
    1CHOL    R323692   7.149   4.661   4.546 -0.1062  0.0237  0.0427
    1CHOL    R423693   7.350   4.540   4.723 -0.0552  0.3379  0.1924
    1CHOL    R523694   7.152   4.459   4.675  0.0972  0.0421  0.0617
    1CHOL    C123695   7.122   4.489   5.054 -0.2207  0.0333  0.0390
    1CHOL    C223696   7.029   4.491   5.368 -0.1068 -0.1790  0.2745
    1CHOL   ROH23697  25.549  28.394   3.805  0.0101 -0.2233  0.1448
    1CHOL    R123698  25.391  28.458   4.031  0.0197 -0.1874  0.1417
    1CHOL    R223699  25.382  28.299   4.256  0.1036 -0.1035  0.2075
    1CHOL    R323700  25.450  28.530   4.383  0.0458 -0.0305  0.1055
    1CHOL    R423701  25.379  28.345   4.599  0.0447  0.0665  0.1847
    1CHOL    R523702  25.297  28.544   4.566  0.0173  0.0359  0.0750
    1CHOL    C123703  25.441  28.589   4.917 -0.0439  0.2340  0.0756
    1CHOL    C223704  25.807  28.630   5.090  0.2777  0.0290 -0.0469
    1CHOL   ROH23705   0.999  12.184   5.588 -0.0524  0.2800 -0.0039
    1CHOL    R123706   1.025  12.250   5.314  0.0442  0.0179 -0.0603
    1CHOL    R223707   1.128  12.074   5.128 -0.1951 -0.2829  0.0851
    1CHOL    R323708   0.895  12.125   4.998 -0.1261 -0.0658  0.0415
    1CHOL    R423709   1.081  12.043   4.787 -0.1297 -0.1369  0.0620
    1CHOL    R523710   0.962  12.226   4.791  0.0041 -0.0474  0.0909
    1CHOL    C123711   0.835  12.073   4.466 -0.0269  0.1519  0.0075
    1CHOL    C223712   0.802  12.257   4.130  0.1945 -0.0344  0.2934
    1W        W23713   8.651   9.109   8.518  0.2274  0.2079 -0.2218
    1W        W23714   0.016  24.899   1.453 -0.0263  0.0500  0.1628
    1W        W23715  25.747   4.132   9.730  0.0652  0.5409 -0.1678
    1W        W23716   8.639  18.344   9.433  0.2238  0.1241 -0.4487
    1W        W23717  14.044   1.720   8.723 -0.1812 -0.2600  0.0827
    1W        W23718   2.513  18.369   2.389  0.2513  0.1989 -0.1832
    1W        W23719  17.997  18.258   2.812 -0.2310 -0.1077  0.1254
    1W        W23720   1.429   4.915   9.196 -0.2208 -0.4402 -0.1390
    1W        W23721   8.331  11.905   7.665 -0.1337 -0.2033  0.0494
    1W        W23722  23.678  12.196   3.485  0.0298  0.2217  0.2589
    1W        W23723   6.517   7.950   8.108 -0.0282 -0.1487 -0.3467
    1W        W23724  18.060  20.234   7.240 -0.0244 -0.0921  0.2714
    1W        W23725   5.730   2.454   7.480  0.1671  0.0282  0.0510
    1W        W23726  27.067  27.422   8.561 -0.1131 -0.0314  0.2363
    1W        W23727  23.037   9.689   9.293 -0.1165  0.2338  0.3315
    1W        W23728   4.772   6.152   7.735 -0.2494  0.1101 -0.0335
    1W        W23729  23.228  19.107   7.027  0.0678 -0.2338  0.0671
    1W        W23730  20.805  26.632   6.633 -0.1035 -0.0840 -0.0187
    1W        W23731   0.233  27.443   2.825 -0.0448 -0.0076 -0.1508
    1W        W23732   8.110  26.699   1.227 -0.0002 -0.0183  0.0153
    1W        W23733   5.765  28.197   7.164 -0.0533  0.0195  0.0344
    1W        W23734   9.738  11.430   9.680  0.0742  0.0218 -0.0266
    1W        W23735  27.107   2.213   6.559  0.1099 -0.0612 -0.2727
    1W        W23736   7.291  14.440   9.204  0.1133 -0.1210 -0.1857
    1W        W23737  27.173  17.810   6.576 -0.2077  0.0723  0.0120
    1W        W23738  10.937  14.649   0.179 -0.0207 -0.1972  0.1107
    1W        W23739   3.736  22.775   1.075  0.0824 -0.2132  0.3280
    1W        W23740  15.658  16.493   1.275 -0.0218 -0.0139  0.0754
    1W        W23741  11.785  18.847   8.069 -0.1190 -0.0431  0.0445
    1W        W23742  17.431   7.753   8.060  0.0950 -0.0954 -0.2152
    1W        W23743  24.088  23.166   2.719  0.0402  0.1724 -0.0072
    1W        W23744   8.107  18.787   6.741  0.0621 -0.2126  0.0778
    1W        W23745  12.050   4.928   7.963  0.0859 -0.0252 -0.0530
    1W        W23746  20.901   4.725   2.613 -0.1557  0.1338 -0.1092
    1W        W23747   1.821   9.805   6.265 -0.1220 -0.0702  0.1563
    1W        W23748  24.552   2.528   1.258 -0.3854  0.0515  0.0995
    1W        W23749   4.560  24.749   2.581  0.1488 -0.1067 -0.1808
    1W        W23750  12.059  17.921   2.443  0.2316 -0.3683 -0.1316
    1W        W23751  20.203  22.719   8.640 -0.1200 -0.0529  0.0964
    1W        W23752  27.212   7.874   1.326 -0.1252 -0.0977 -0.1808
    1W        W23753   8.402  12.028   9.664  0.0124 -0.0876  0.1987
    1W        W23754   3.974  24.849   0.167  0.2605 -0.2574  0.2227
    1W        W23755  10.977  19.133   8.389 -0.1126  0.0417  0.2708
    1W        W23756  22.081  11.075   8.739  0.0890  0.0590  0.3252
    1W        W23757  20.896  23.994   1.311  0.0399  0.0376  0.0246
    1W        W23758  20.888   8.524   8.538  0.1470 -0.2100  0.2486
    1W        W23759  12.930  10.525   7.995  0.1415  0.1609  0.2981
    1W        W23760  21.891  21.364   1.182  0.3134 -0.0550  0.2309
    1W        W23761   3.449  13.419   7.103  0.0114  0.1827  0.3286
    1W        W23762   6.283  24.743   7.748  0.1098  0.0632 -0.2498
    1W        W23763  18.671   5.812   0.468  0.0595  0.1281 -0.0445
    1W        W23764  19.853  14.197   1.035  0.1447  0.1830 -0.1299
    1W        W23765   9.246   8.670   8.960  0.2197 -0.2205  0.2122
    1W        W23766   2.194   7.244   2.395 -0.2255  0.0185  0.1965
    1W        W23767  15.996  25.452   8.177  0.0713 -0.1374  0.3596
    1W        W23768  28.126  27.514   7.839 -0.1348  0.1095 -0.1856
    1W        W23769   0.009  16.872   0.032 -0.2652 -0.2926  0.3856
    1W        W23770  11.241  20.867   7.077  0.0431  0.1545  0.0871
    1W        W23771  17.030  23.025   1.660 -0.2848 -0.3908 -0.1737
    1W        W23772  10.966  24.298   3.266  0.0929 -0.2825  0.0016
    1W        W23773  11.244  23.973   6.404 -0.2048  0.0984  0.1258
    1W        W23774   4.308   8.074   3.550 -0.2643 -0.2337 -0.1961
    1W        W23775   2.500  17.277   9.732 -0.1444 -0.1668  0.0553
    1W        W23776   8.299  19.984   0.239 -0.2421 -0.3763 -0.1652
    1W        W23777   1.051  10.222   6.717  0.2267  0.0139  0.0955
    1W        W23778  10.657  14.454   2.131 -0.0590  0.1955 -0.0059
    1W        W23779  13.827  17.565   8.466  0.0551 -0.0083  0.0171
    1W        W23780  14.021   0.223   0.968  0.1727 -0.1098 -0.4015
    1W        W23781  25.482   4.581   7.083 -0.2128 -0.0372 -0.1034
    1W        W23782  20.735   5.572   2.443  0.3230  0.0017 -0.0167
    1W        W23783  11.912  17.341   1.321  0.3166 -0.0629 -0.0361
    1W        W23784  21.157   7.962   8.288  0.0258 -0.1466  0.0405
    1W        W23785  18.948   6.601   1.526 -0.3486  0.0289 -0.1867
    1W        W23786  27.606  25.169   0.687 -0.1534 -0.0854 -0.0913
    1W        W23787   1.018  13.015   7.753  0.0692  0.1892 -0.0958
    1W        W23788  16.305  15.883   1.219  0.1538 -0.1465  0.1556
    1W        W23789   8.593   7.497   2.775  0.0505  0.0795 -0.2678
    1W        W23790  28.618   6.691   0.872 -0.0602  0.1056  0.2944
    1W        W23791  26.434  11.625   6.757  0.0660 -0.1812 -0.1718
    1W        W23792   2.717  17.322   0.224  0.2646  0.0727 -0.0996
    1W        W23793   8.685  20.253   9.164  0.3590  0.1433  0.0049
    1W        W23794   1.838  23.642   2.188 -0.0497 -0.4665 -0.2132
    1W        W23795   6.784   9.630   9.061  0.1622 -0.0581 -0.0159
    1W        W23796  18.983  11.072   1.074  0.2192  0.0143  0.0015
    1W        W23797  20.840   3.226   7.766 -0.1356 -0.3713  0.1035
    1W        W23798  20.353   9.329   1.180  0.0774  0.3102  0.0103
    1W        W23799   6.264  14.675   1.065 -0.0366  0.2704 -0.1852
    1W        W23800  11.667  11.888   0.825 -0.0431 -0.1810  0.2583
    1W        W23801   5.977  19.837   7.104  0.2170 -0.2356  0.1853
    1W        W23802   0.685  28.554   6.691  0.1052 -0.0544 -0.1587
    1W        W23803  16.131   5.367   7.682  0.0674 -0.3245 -0.0963
    1W        W23804  22.014  23.250   1.073  0.1825 -0.1307 -0.0259
    1W        W23805   4.108   5.080   2.891 -0.3056 -0.0845  0.2414
    1W        W23806  16.071   8.460   1.153 -0.0289  0.0550 -0.2882
    1W        W23807  19.999   0.460   2.161  0.0647  0.1977  0.2406
    1W        W23808  19.236  18.632   1.347 -0.2730  0.0901  0.1673
    1W        W23809  11.823   2.440   8.206  0.0039  0.5360  0.0147
    1W        W23810   9.400  24.100   8.259 -0.1522 -0.3746 -0.2324
    1W        W23811  14.110   3.732   0.815 -0.0285  0.0281 -0.0860
    1W        W23812   4.086  16.711   0.221  0.2437  0.1200  0.1761
    1W        W23813   8.560   6.366   9.294 -0.1182  0.1153 -0.2530
    1W        W23814  18.941   1.923   8.251 -0.1408 -0.0025  0.0346
    1W        W23815  23.404   9.183   2.858 -0.0951 -0.0397 -0.0868
    1W        W23816   2.561  11.469   6.751  0.0093 -0.0329 -0.1734
    1W        W23817   8.456   9.001   1.726  0.0686 -0.0416 -0.1869
    1W        W23818  15.577   2.086   8.516  0.3217  0.0460  0.0635
    1W        W23819  28.338   8.325   0.971 -0.2047  0.0424  0.1606
    1W        W23820  17.369  23.154   2.142  0.0310  0.0547 -0.2164
    1W        W23821   3.586  25.668   8.837  0.1044 -0.1200 -0.0340
    1W        W23822  22.122  11.258   2.633  0.0459  0.2065 -0.1267
    1W        W23823   8.195  17.545   8.704 -0.1378  0.2194  0.0644
    1W        W23824  23.705  23.271   1.925  0.0947  0.0268 -0.1757
    1W        W23825  15.982  17.517   1.123 -0.1573 -0.0259 -0.2059
    1W        W23826  13.357  21.992   2.548 -0.0353  0.0477  0.0719
    1W        W23827  11.208   1.610   3.940  0.2054 -0.0062  0.2185
    1W        W23828  20.439  12.359   0.567  0.3295 -0.1982  0.0775
    1W        W23829  10.660   9.966   2.256  0.1220 -0.2704 -0.0425
    1W        W23830  13.427   7.056   7.573 -0.2267  0.0078 -0.1813
    1W        W23831   1.084  16.776   7.488  0.0504 -0.0403  0.0942
    1W        W23832  28.595   1.211   0.415 -0.0274  0.0105  0.1765
    1W        W23833  14.165   7.623   3.532  0.0143 -0.0369 -0.2753
    1W        W23834   4.532   8.047   5.930 -0.0086  0.2426  0.0927
    1W        W23835   5.026  18.693   9.929 -0.0741 -0.1504  0.4867
    1W        W23836   7.587  13.025   1.282 -0.2315  0.1026 -0.2562
    1W        W23837   2.287   4.590   8.233 -0.2035  0.1362 -0.1446
    1W        W23838  12.276  26.245   9.667  0.1085 -0.0965  0.2277
    1W        W23839   2.550   5.842   8.925  0.1451 -0.0127 -0.0171
    1W        W23840   6.061   1.735   0.594  0.1945 -0.2276  0.1787
    1W        W23841  17.528   0.047   2.752 -0.1981  0.2175 -0.1020
    1W        W23842  27.131   2.305   7.896  0.0720 -0.5409 -0.0668
    1W        W23843  15.481   2.719   2.512  0.0501 -0.1295  0.2013
    1W        W23844  27.750   7.915   1.457  0.0582  0.2025 -0.1046
    1W        W23845  23.602  17.710   7.166  0.0550 -0.1225  0.3496
    1W        W23846  16.968  23.517   1.834 -0.0631  0.2889 -0.0032
    1W        W23847  18.482  13.050   9.268 -0.1373 -0.2466 -0.0168
    1W        W23848   6.693   4.569   1.234 -0.1026 -0.1433 -0.0143
    1W        W23849  24.057   7.549   9.327  0.1299  0.2171  0.0163
    1W        W23850  15.181   3.080   2.292  0.0687 -0.2394 -0.0040
    1W        W23851   7.947   8.335   9.462  0.1891  0.1066  0.2269
    1W        W23852  24.586   6.256   9.852  0.3458 -0.0008  0.1711
    1W        W23853  17.337  26.929   1.989 -0.2633  0.1056 -0.2413
    1W        W23854  18.535  24.565   2.948  0.1267 -0.3312 -0.1709
    1W        W23855  11.184   9.511   8.801  0.0865  0.1130  0.0524
    1W        W23856   6.581  12.329   9.103 -0.1061 -0.0084 -0.2708
    1W        W23857  24.799  17.930   0.846 -0.0794 -0.1619 -0.0518
    1W        W23858   6.456  17.633   0.522 -0.2767  0.2704 -0.0858
    1W        W23859  20.054  21.790   8.936 -0.0144  0.1377  0.0727
    1W        W23860  20.879   5.914   0.116  0.1097 -0.0916  0.1688
    1W        W23861   0.790   7.532   0.285 -0.0059  0.2200  0.2027
    1W        W23862  22.445   7.624   8.127 -0.1090 -0.0948  0.0084
    1W        W23863   3.951   0.000   8.234  0.4080 -0.2918 -0.2949
    1W        W23864   8.749   0.587   7.365 -0.0583  0.1126 -0.0853
    1W        W23865  10.941  27.234   0.142  0.0837  0.1178  0.2968
    1W        W23866  19.245  23.018   0.741 -0.0012 -0.2761 -0.1357
    1W        W23867  23.084  11.577   7.090  0.0414 -0.0187 -0.1966
    1W        W23868   9.652  14.432   9.101 -0.2435 -0.1317 -0.1606
    1W        W23869   0.493   4.818   8.323 -0.0182  0.2669  0.0673
    1W        W23870  27.393   3.121   8.640 -0.3273 -0.0499 -0.2693
    1W        W23871  25.734   1.398   9.848  0.3331 -0.1216 -0.1692
    1W        W23872  15.177  23.282   1.597 -0.0335  0.0998  0.0586
    1W        W23873  18.715  11.381   0.346 -0.1095 -0.1144  0.1927
    1W        W23874  12.027   2.496   4.341  0.2256 -0.0608  0.0842
    1W        W23875  20.505  16.930   0.951 -0.2357 -0.1005  0.0833
    1W        W23876   7.637  19.248   9.834  0.0787  0.1466  0.4108
    1W        W23877  26.483   8.517   1.682 -0.1267 -0.0642 -0.1395
    1W        W23878   9.267   7.085   8.748  0.1838 -0.1655 -0.2891
    1W        W23879  26.943  27.026   9.176 -0.1413 -0.3626 -0.0111
    1W        W23880  16.630  25.103   3.754 -0.1558 -0.0391 -0.2312
    1W        W23881   8.247   5.187   9.856  0.1741 -0.0003 -0.0272
    1W        W23882  20.104   1.356   7.232  0.0200 -0.1040 -0.0208
    1W        W23883  12.192  21.750   8.001 -0.1542 -0.0019  0.0059
    1W        W23884   3.910  15.163   7.285  0.1053 -0.1467 -0.0024
    1W        W23885   2.399  19.039   7.626 -0.0018  0.1720 -0.0415
    1W        W23886  26.388  28.028   7.611  0.1256  0.2242  0.0133
    1W        W23887  17.909  22.848   1.031 -0.0281 -0.0838  0.1297
    1W        W23888  20.772  15.401   8.767  0.2203  0.0467 -0.3587
    1W        W23889  25.730  13.549   8.569  0.2269  0.1783  0.0096
    1W        W23890  18.182   7.829   7.679 -0.2418 -0.1182  0.1312
    1W        W23891  13.315  25.120   7.306  0.0028  0.2816  0.2009
    1W        W23892   4.536   8.514   6.540 -0.0153  0.2168 -0.1946
    1W        W23893  23.082  23.097   0.400  0.1131 -0.0539 -0.2071
    1W        W23894   9.835  14.144   9.486  0.1515 -0.1425  0.0108
    1W        W23895  22.409  24.516   9.729 -0.1171  0.1136  0.4149
    1W        W23896  20.679  26.649   8.219 -0.5205  0.1938  0.1279
    1W        W23897  19.052   0.901   9.885  0.0640 -0.0190  0.1548
    1W        W23898  24.953   5.481   2.164 -0.0251 -0.2194  0.0002
    1W        W23899  20.140  18.724   7.459  0.1208 -0.1288 -0.0043
    1W        W23900   3.590  23.717   0.800  0.0103 -0.0079  0.0469
    1W        W23901   6.315  25.957   1.464  0.2944 -0.2203  0.1279
    1W        W23902   2.856  22.565   0.373  0.1691 -0.0649 -0.3183
    1W        W23903  27.866  23.540   8.018 -0.2684 -0.0551  0.1895
    1W        W23904  27.230  16.622   0.069 -0.2852  0.1598 -0.1149
    1W        W23905   4.094   4.247   7.636  0.1116  0.1553  0.0392
    1W        W23906   3.530  20.387   2.256  0.1858  0.2790 -0.2838
    1W        W23907   4.703   7.064   8.926 -0.0547  0.0101 -0.0475
    1W        W23908   7.866  24.025   2.675  0.0553 -0.0229  0.3932
    1W        W23909   6.892  24.732   1.288 -0.0812 -0.1059  0.0247
    1W        W23910  14.781  22.042   1.085  0.2561 -0.1378  0.3612
    1W        W23911  12.868   4.166   1.672 -0.0157  0.0271  0.0562
    1W        W23912  25.169  17.916   8.092 -0.0304  0.1896 -0.0762
    1W        W23913   0.940   0.042   2.042  0.0591  0.0443  0.0593
    1W        W23914   2.337   2.041   0.515  0.2762  0.0163  0.2570
    1W        W23915   0.837  11.183   0.282 -0.1724 -0.1605  0.1825
    1W        W23916   6.233   8.307   8.333  0.1288 -0.1179  0.4643
    1W        W23917  21.819  25.874   8.180 -0.0353  0.1416 -0.1031
    1W        W23918  22.228  22.394   7.859  0.1416 -0.3235  0.4617
    1W        W23919  19.297  24.757   0.481  0.1430  0.0249  0.2602
    1W        W23920  16.181  13.916   8.963 -0.0230  0.0052 -0.0150
    1W        W23921  22.620  28.090   6.196 -0.1985 -0.5513  0.0826
    1W        W23922   5.114  20.842   8.393 -0.1527 -0.0703  0.1108
    1W        W23923  21.905  21.859   2.990  0.1132 -0.1699 -0.2495
    1W        W23924  27.758   1.480   3.320 -0.3509  0.1813  0.0351
    1W        W23925  15.828   2.271   2.278  0.1704  0.0625 -0.0251
    1W        W23926   2.214  12.154   8.407  0.1479  0.0999 -0.2447
    1W        W23927  26.518  17.823   0.533 -0.0985  0.0481 -0.1663
    1W        W23928   7.191  14.989   8.514 -0.0463 -0.0045  0.3170
    1W        W23929   4.665  25.187   9.482  0.0834 -0.2309  0.0731
    1W        W23930   4.926  22.955   1.504 -0.1874  0.1558  0.0859
    1W        W23931  11.580  24.950   8.116 -0.3064  0.0617 -0.2184
    1W        W23932  19.969   7.382   2.459  0.1953  0.1995 -0.3606
    1W        W23933  22.244  15.833   1.141 -0.3484 -0.1193  0.1040
    1W        W23934   6.684  24.016   5.460 -0.0383 -0.0581 -0.2176
    1W        W23935   6.429  10.759   8.586  0.1674  0.0221  0.0831
    1W        W23936   6.621  17.356   0.955  0.2634 -0.0004  0.1462
    1W        W23937   0.277  14.459   0.239  0.0768 -0.1001 -0.1924
    1W        W23938  14.208   8.667   0.582  0.0000 -0.0037  0.2279
    1W        W23939  15.396   7.595   1.488  0.1625 -0.1593  0.4174
    1W        W23940   4.106  17.728   8.772  0.1411 -0.0427  0.0450
    1W        W23941  12.950   8.895   7.456 -0.2703 -0.1470 -0.3557
    1W        W23942  10.239   7.934   9.494  0.1564  0.0899  0.1369
    1W        W23943   2.013  13.418   1.247  0.4354  0.2214  0.2660
    1W        W23944   9.835   6.678   0.927  0.1721 -0.2157 -0.4245
    1W        W23945  23.100  16.297   7.478  0.1002 -0.0572  0.0224
    1W        W23946  15.393  21.884   8.560  0.2771  0.1700 -0.3734
    1W        W23947  16.092  19.102   8.932 -0.4170 -0.2837  0.4009
    1W        W23948   7.696   8.634   0.167  0.0146 -0.3500 -0.1835
    1W        W23949  12.309   2.501   7.859 -0.1193  0.1735  0.1111
    1W        W23950  12.717   8.542   1.419  0.0437 -0.0135 -0.0218
    1W        W23951  15.988  15.668   2.037  0.1392 -0.2364 -0.0750
    1W        W23952  17.652  11.068   9.827 -0.0882  0.2915 -0.0341
    1W        W23953  11.658   2.191   3.580  0.2060 -0.0374  0.0706
    1W        W23954  25.519  14.422   6.432 -0.3433  0.0376  0.1831
    1W        W23955  18.661  27.600   1.253 -0.0505  0.4674  0.3658
    1W        W23956   2.701   1.479   8.523  0.0443 -0.0365 -0.1918
    1W        W23957  11.067   1.795   8.163 -0.1099 -0.1409  0.1415
    1W        W23958  17.411   6.628   9.948  0.5002  0.3552 -0.0785
    1W        W23959  10.219  14.272   1.990 -0.2134 -0.2236  0.0050
    1W        W23960  25.917   8.819   0.740  0.3659  0.1178  0.2530
    1W        W23961  16.556  24.350   7.753  0.1003 -0.0375  0.0513
    1W        W23962   3.232  14.802   7.576 -0.0603 -0.2202 -0.0394
    1W        W23963  26.390   3.152   7.044 -0.0577 -0.1374 -0.4725
    1W        W23964   9.067  22.377   9.485  0.2133 -0.1317  0.2485
    1W        W23965  18.211  23.392   2.468 -0.2355  0.0026  0.0830
    1W        W23966  25.420  27.020   9.428 -0.0502 -0.1338 -0.1503
    1W        W23967  11.015   4.021   1.406  0.0049 -0.4086  0.0127
    1W        W23968  23.562  16.774   1.051 -0.1290  0.0383  0.0962
    1W        W23969   4.562  17.867   8.764  0.2521 -0.2508 -0.1813
    1W        W23970   6.127  10.390   0.235  0.1468  0.2250 -0.3051
    1W        W23971  21.111  20.286   2.984  0.1069 -0.1564  0.1138
    1W        W23972   4.790  17.590   5.460 -0.0870  0.0682 -0.1424
    1W        W23973  25.075   0.761   2.312  0.3709  0.0310 -0.0538
    1W        W23974   6.666   9.227   1.798  0.1308  0.0883  0.0710
    1W        W23975  16.469  21.027   8.042 -0.1058 -0.1875  0.0707
    1W        W23976   6.855  16.800   0.718 -0.1746 -0.0027 -0.2348
    1W        W23977  27.598   6.334   0.118  0.0235  0.1532 -0.2663
    1W        W23978  24.033   2.211   6.581 -0.2734 -0.2141  0.0521
    1W        W23979   6.864   8.877   0.767 -0.3175  0.0426 -0.1933
    1W        W23980  26.045  22.245   1.734 -0.2400  0.3611  0.3215
    1W        W23981  15.524  10.208   9.686  0.2650 -0.0288  0.1051
    1W        W23982  24.563   1.856   1.838  0.0375  0.2621 -0.0356
    1W        W23983   2.522  14.376   2.239 -0.1864 -0.0839 -0.2269
    1W        W23984  18.809  22.740   1.174 -0.2449  0.0992 -0.2749
    1W        W23985  17.643  23.477   8.585 -0.3109 -0.2601 -0.3504
    1W        W23986  15.453  25.371   2.176  0.0847 -0.4272  0.0879
    1W        W23987  26.695  27.224   7.036  0.0192 -0.1194 -0.0911
    1W        W23988  19.758  15.811   9.852 -0.0556 -0.0559  0.1615
    1W        W23989   9.459  13.279   8.361 -0.1345  0.0671  0.0318
    1W        W23990  21.839   7.739   1.264 -0.2271  0.1482  0.3461
    1W        W23991  10.756   5.826   6.803  0.1529 -0.2325  0.0932
    1W        W23992   0.921  16.644   8.390  0.2726 -0.2322 -0.0962
    1W        W23993  26.267  23.250   8.282 -0.1355  0.0235  0.1658
    1W        W23994  22.242  21.417   2.013  0.1320  0.3354 -0.1416
    1W        W23995  16.293  19.617   0.872  0.0022  0.1809  0.3057
    1W        W23996   2.774   8.160   6.363  0.0678  0.0570  0.0641
    1W        W23997  21.820   9.251   9.182  0.1287 -0.2285 -0.3767
    1W        W23998  20.837  14.614   8.907 -0.1813  0.1848  0.0415
    1W        W23999  11.826  24.389   7.530 -0.0654  0.1434 -0.0608
    1W        W24000  14.146  17.431   9.214  0.0030 -0.2244 -0.0446
    1W        W24001  12.037   8.429   8.364  0.1961 -0.5954  0.2043
    1W        W24002   4.073   6.933   2.231  0.0741 -0.1370  0.3067
    1W        W24003   7.633   7.404   7.081  0.3414 -0.1138  0.4793
    1W        W24004  22.980  14.052   8.752 -0.2130  0.3116 -0.1996
    1W        W24005   1.461   8.635   8.212 -0.2709 -0.1427 -0.2955
    1W        W24006  20.882   6.562   7.604  0.1856 -0.0358  0.1390
    1W        W24007   3.275  14.970   9.498 -0.0368  0.1093 -0.0975
    1W        W24008  25.391  17.180   0.651  0.0714 -0.0986 -0.1129
    1W        W24009  22.472  16.009   0.696 -0.0763  0.3227  0.3124
    1W        W24010  20.262  28.180   1.181  0.1508 -0.1510  0.0090
    1W        W24011  24.740   8.888   7.290 -0.0858 -0.4118  0.1349
    1W        W24012  15.801  20.738   0.707  0.1170 -0.0018 -0.0807
    1W        W24013  20.262  10.608   0.503 -0.0470  0.3067  0.1292
    1W        W24014  20.445  17.261   8.381  0.2455  0.1986 -0.3460
    1W        W24015   3.455  24.371   8.478 -0.2387  0.1186 -0.0866
    1W        W24016  22.706   2.080   1.689  0.2086  0.1625  0.3161
    1W        W24017  21.204   8.090   2.273 -0.2106  0.1757 -0.1211
    1W        W24018  27.682  12.822   1.178  0.2063 -0.2342  0.0866
    1W        W24019  22.085   7.494   6.922  0.2089 -0.2014 -0.2684
    1W        W24020  24.070  19.207   9.557 -0.3086  0.0935 -0.0448
    1W        W24021   3.263  21.499   5.843 -0.3838  0.1421 -0.0967
    1W        W24022  13.305   0.473   8.375  0.0854  0.1376 -0.0487
    1W        W24023   9.125   4.837   7.330  0.1116 -0.0204  0.0187
    1W        W24024  23.183  27.216   0.927  0.1681  0.0654  0.0429
    1W        W24025  11.374   2.237   8.442 -0.1407  0.1843  0.1474
    1W        W24026  16.875   5.677   7.384 -0.2407 -0.2577  0.0884
    1W        W24027  25.728  26.582   7.472 -0.0210 -0.1667  0.2569
    1W        W24028  19.675  18.272   1.527  0.2851 -0.0837  0.4127
    1W        W24029   3.813   1.472   0.616 -0.1077 -0.2101  0.3010
    1W        W24030   6.195  22.448   2.540  0.1134 -0.0421  0.2899
    1W        W24031  25.030  23.393   3.384  0.3743  0.1899  0.0903
    1W        W24032  16.964   8.134   1.429 -0.0658 -0.1516 -0.0784
    1W        W24033   1.596   5.917   9.686  0.1995  0.1595 -0.1256
    1W        W24034   4.700   6.596   3.377  0.1125 -0.1570 -0.3390
    1W        W24035  20.756   0.889   2.087  0.3820  0.1104 -0.2488
    1W        W24036  11.092  15.386   7.491 -0.0075  0.0582 -0.0339
    1W        W24037  23.829  24.891   1.983 -0.1236  0.0503  0.0037
    1W        W24038  22.714   7.043   1.395  0.2910  0.1793 -0.1066
    1W        W24039   3.828  23.772   6.798 -0.0250  0.1603 -0.1242
    1W        W24040  11.773  19.478   0.222  0.0416  0.0414  0.2306
    1W        W24041  16.377  27.424   2.401  0.1948 -0.0689  0.0126
    1W        W24042  23.651  18.964   1.728  0.2673 -0.0261 -0.1442
    1W        W24043  15.809   0.305   9.655  0.0979  0.1961 -0.1098
    1W        W24044   3.664  18.093   8.007 -0.1512  0.1310  0.0244
    1W        W24045  22.868  22.922   8.879 -0.1660  0.2117 -0.2624
    1W        W24046  14.819   0.544   1.460  0.0410 -0.0081  0.1621
    1W        W24047  25.732  25.905   7.728  0.4345 -0.2241 -0.0426
    1W        W24048   2.326  11.396   8.009 -0.0266 -0.2023  0.2657
    1W        W24049  19.964  12.060   8.782 -0.0106  0.3023  0.2622
    1W        W24050  11.960   2.539   9.072 -0.1358  0.2223 -0.1576
    1W        W24051  20.577   2.948   9.936 -0.0798 -0.0037  0.0897
    1W        W24052  12.186  10.788   1.102 -0.0836  0.2217  0.1922
    1W        W24053   1.094  21.224   1.686  0.2874 -0.1452 -0.1799
    1W        W24054  11.835  16.071   0.561  0.0073  0.2347  0.1903
    1W        W24055  19.940  18.875   6.924  0.0435  0.0367 -0.2393
    1W        W24056  11.088   0.104   8.766 -0.0429 -0.0536 -0.2156
    1W        W24057  26.560  14.200   1.496 -0.1948 -0.3704  0.1555
    1W        W24058  27.445  27.658   0.925 -0.2664  0.3680  0.1814
    1W        W24059   4.181  22.112   9.534  0.0804 -0.0294  0.0418
    1W        W24060  21.019  24.903   0.946 -0.0848  0.0883  0.2398
    1W        W24061  15.993  12.369   7.410  0.0785  0.1696  0.1592
    1W        W24062   6.673  21.242   8.911  0.1065 -0.3737  0.2167
    1W        W24063  27.000  12.731   7.210 -0.2112  0.1945  0.0386
    1W        W24064  17.816  21.682   9.378 -0.2688 -0.1730 -0.0999
    1W        W24065   2.564  28.616   8.772 -0.5515  0.1800  0.2191
    1W        W24066   5.862   0.667   8.013 -0.0480  0.2400  0.1576
    1W        W24067   2.140  26.508   7.844  0.0720  0.1267 -0.0042
    1W        W24068   4.436   2.341   9.566 -0.0419 -0.2500  0.2567
    1W        W24069   8.824   4.744   8.711 -0.0241  0.1349  0.0701
    1W        W24070   7.260   0.225   7.874 -0.1488  0.3454 -0.1175
    1W        W24071  13.450  12.846   8.940  0.0515 -0.1341  0.0237
    1W        W24072  10.963   4.479   0.991  0.0108 -0.0493 -0.2693
    1W        W24073  21.064   0.755   8.040 -0.1925  0.0969  0.3004
    1W        W24074  24.407   7.104   8.503  0.0937  0.2668 -0.0129
    1W        W24075  21.423   2.464   0.982  0.2146 -0.1171  0.1175
    1W        W24076  10.044  27.812   0.589  0.0000  0.2235 -0.2558
    1W        W24077  22.498  25.868   0.942 -0.1846 -0.0997  0.1177
    1W        W24078   2.971   6.872   9.878 -0.3048 -0.1544 -0.1982
    1W        W24079   0.206  14.107   1.188  0.2205  0.1066 -0.0265
    1W        W24080   4.384  12.451   9.351 -0.2481 -0.0650 -0.2257
    1W        W24081  16.219   2.861   3.757 -0.1524 -0.2707 -0.0965
    1W        W24082   7.207  27.765   1.986 -0.0500 -0.0189  0.0682
    1W        W24083  24.211  22.662   2.644 -0.2252 -0.0132  0.2081
    1W        W24084  17.743   1.707   7.186 -0.1848  0.1591  0.1056
    1W        W24085  26.472   1.783   1.429  0.0943  0.0466 -0.1850
    1W        W24086  24.992  26.190   1.152 -0.0290  0.1703  0.1990
    1W        W24087  28.303  23.567   7.118 -0.3444 -0.0328  0.0278
    1W        W24088   8.633  16.516   1.335  0.3513 -0.1781 -0.0205
    1W        W24089   6.838   1.935   2.473  0.0230  0.0164 -0.0647
    1W        W24090   7.025  20.198   7.792  0.2742 -0.1437 -0.1838
    1W        W24091   9.828  17.358   7.224 -0.0719 -0.1780  0.2579
    1W        W24092  17.559  13.556   1.703 -0.1343 -0.1171 -0.3171
    1W        W24093  20.886  13.828   1.629  0.0704  0.3495 -0.0025
    1W        W24094  24.093  26.480   8.509 -0.3643 -0.0130 -0.2495
    1W        W24095  14.941   3.564   8.210  0.1472  0.5305 -0.0855
    1W        W24096  24.218  21.094   3.395 -0.0323  0.0951 -0.1691
    1W        W24097   4.754  10.736   1.388 -0.0442  0.0719 -0.0676
    1W        W24098  19.337   1.658   3.497  0.0435  0.0057 -0.1417
    1W        W24099   0.348   7.264   7.963 -0.3339 -0.0014  0.0133
    1W        W24100   6.034  16.232   1.018 -0.0973  0.0894 -0.0656
    1W        W24101   6.907  11.905   1.286  0.3074  0.0656 -0.2327
    1W        W24102   9.183  12.180   7.236 -0.0914  0.4544 -0.2262
    1W        W24103  23.729   6.932   2.956 -0.0312  0.0687 -0.2979
    1W        W24104  11.927   6.583   0.696  0.5540 -0.2255 -0.1237
    1W        W24105  11.697  25.912   2.321 -0.1241 -0.0749 -0.0123
    1W        W24106  26.639  16.466   7.628 -0.2285 -0.2713 -0.4948
    1W        W24107   4.617  18.441   1.011  0.3716 -0.0777 -0.0733
    1W        W24108   3.794  27.239   0.653 -0.1196 -0.0441  0.2856
    1W        W24109   5.450  20.082   8.261  0.1073 -0.0209 -0.4119
    1W        W24110  21.409   7.041   3.048 -0.2907  0.1776  0.0710
    1W        W24111   7.443  11.240   0.221  0.1775  0.3518 -0.1428
    1W        W24112  27.304   7.686   8.400  0.4716  0.0227  0.0909
    1W        W24113   5.604  17.669   8.873  0.0633 -0.0451  0.1202
    1W        W24114  28.592  17.835   8.012 -0.0424 -0.1856 -0.1672
    1W        W24115  19.065  24.585   2.186 -0.0612 -0.4235  0.1836
    1W        W24116  20.539   0.678   8.317  0.2579  0.6598  0.1292
    1W        W24117  12.489  21.813   0.568  0.1843 -0.4322  0.1374
    1W        W24118  28.174   3.738   2.302  0.0412  0.2773  0.0854
    1W        W24119  15.280  11.374   9.326  0.3171  0.2244  0.2497
    1W        W24120  15.034  21.353   0.583 -0.1466  0.0379 -0.2651
    1W        W24121  11.176   8.634   2.187 -0.2411  0.0987 -0.1676
    1W        W24122  19.898  14.194   8.441  0.1811  0.1289  0.2553
    1W        W24123  11.328  26.006   8.236 -0.0275 -0.1106 -0.0331
    1W        W24124  25.830  25.656   1.740 -0.2824 -0.3873  0.0647
    1W        W24125   0.805  26.560   1.386 -0.0535  0.1218 -0.2258
    1W        W24126   8.962  28.318   9.169  0.0788 -0.1038  0.1238
    1W        W24127  15.383   5.261   8.294 -0.3480 -0.1650 -0.2871
    1W        W24128   7.651  21.230   1.855 -0.1000 -0.0435 -0.0588
    1W        W24129   6.127   3.051   2.442 -0.0459 -0.1415  0.2941
    1W        W24130  26.027   6.710   9.851  0.0846 -0.2154 -0.1537
    1W        W24131   1.923  18.747   0.083  0.0979 -0.4826  0.1945
    1W        W24132   1.965   4.244   6.971 -0.1202  0.0122  0.1735
    1W        W24133  28.387  17.210   6.854  0.2350  0.2826  0.2269
    1W        W24134  27.864  27.142   7.965 -0.1377  0.0754  0.0326
    1W        W24135   5.900   8.191   8.691 -0.1814 -0.2620  0.0519
    1W        W24136   9.547   3.299   9.128 -0.1820  0.1289  0.3167
    1W        W24137  18.412  13.534   1.952 -0.1431 -0.4066 -0.1007
    1W        W24138  27.730   0.350   9.959  0.1468 -0.1723  0.1690
    1W        W24139  24.751  27.461   6.825 -0.0661 -0.2441 -0.3947
    1W        W24140  21.504  14.002   9.185 -0.3645 -0.1590  0.1667
    1W        W24141   0.435   5.485   7.138  0.0943  0.0958  0.0699
    1W        W24142  24.851  11.110   0.929  0.1574 -0.2726 -0.1831
    1W        W24143   1.994  26.716   7.382 -0.0620 -0.1039  0.1022
    1W        W24144   9.247  17.247   1.452  0.1799  0.3220 -0.1880
    1W        W24145  26.825  24.097   0.149  0.1726 -0.1433  0.2495
    1W        W24146  20.779  13.743   9.218  0.4172  0.1785  0.0521
    1W        W24147  14.037   1.011   7.348 -0.1304 -0.1943 -0.2424
    1W        W24148   9.491  24.783   2.172  0.0302 -0.2850  0.1211
    1W        W24149  15.373   7.160   8.230  0.1141  0.0788  0.1638
    1W        W24150  15.960   1.903   0.943  0.0709  0.0470 -0.1669
    1W        W24151   7.142  28.180   9.134  0.0158  0.0061 -0.1707
    1W        W24152  19.440   1.479   7.637  0.1783  0.1067  0.1323
    1W        W24153  21.003  20.587   9.864  0.0444  0.0259 -0.0343
    1W        W24154  23.172   9.428   7.874  0.2901  0.1870 -0.0188
    1W        W24155  20.117   7.451   7.128  0.2523 -0.1985 -0.0796
    1W        W24156  14.698  12.360   9.586 -0.3198 -0.1523  0.0723
    1W        W24157  17.485  14.460   9.712 -0.3369  0.1344 -0.2268
    1W        W24158  28.008  22.586   8.956 -0.0369 -0.0486 -0.0483
    1W        W24159  13.896   2.410   3.071  0.0918  0.0801 -0.1363
    1W        W24160   2.591  12.991   2.189  0.0671 -0.0967 -0.2166
    1W        W24161  11.764  10.214   3.280 -0.3691  0.0063  0.1690
    1W        W24162   7.002  18.890   8.867 -0.2801  0.1768 -0.0648
    1W        W24163  20.760   1.504   9.570  0.1018  0.0788 -0.1577
    1W        W24164   3.733  13.572   2.144  0.0994 -0.1612 -0.3174
    1W        W24165  15.558   5.671   0.092  0.0034  0.0334 -0.1384
    1W        W24166   1.274  15.467   8.230 -0.2877 -0.2147 -0.0484
    1W        W24167  26.821  11.564   7.146 -0.1785 -0.0887  0.1593
    1W        W24168   8.560   9.076   3.312 -0.0888  0.1310  0.0612
    1W        W24169  21.734   4.532   9.349 -0.1971 -0.0698 -0.2632
    1W        W24170   8.808  21.297   0.732  0.0176 -0.0993  0.2240
    1W        W24171   9.247   0.331   9.902  0.2501 -0.0670  0.3353
    1W        W24172  18.279   3.162   0.599  0.3266 -0.1263  0.0725
    1W        W24173   2.026   9.971   2.574  0.3013 -0.2987  0.0881
    1W        W24174   3.041  19.308   0.903 -0.0862 -0.0201 -0.0016
    1W        W24175  28.183   3.663   0.900 -0.3396 -0.0236  0.1237
    1W        W24176  24.761   3.200   2.023  0.2105  0.1375 -0.2660
    1W        W24177  10.279  22.996   7.518  0.0180 -0.0294 -0.1390
    1W        W24178  27.728   4.901   2.276 -0.3224  0.1324  0.0206
    1W        W24179  17.978   1.902   0.914  0.0261  0.0818  0.0638
    1W        W24180  27.381  13.677   8.775 -0.1286 -0.0369  0.0487
    1W        W24181   6.275  12.074   1.628  0.1183  0.4247 -0.0839
    1W        W24182  19.105  13.577   1.002 -0.2899  0.4153 -0.1859
    1W        W24183   3.246   5.434   7.969  0.0463 -0.1196  0.0849
    1W        W24184  24.392  18.286   6.402  0.1550 -0.1383  0.2359
    1W        W24185   2.718  14.747   0.087  0.0165 -0.1633  0.2689
    1W        W24186  10.574  14.402   8.346  0.0830 -0.0677 -0.0615
    1W        W24187  10.200  16.364   7.496  0.2442  0.1951  0.1159
    1W        W24188  23.315  17.372   8.065  0.1347  0.3974  0.0508
    1W        W24189   7.557   8.726   9.588  0.0541 -0.2221 -0.2160
    1W        W24190  10.410   4.950   2.329 -0.1783  0.0947 -0.2999
    1W        W24191   5.596  14.420   0.904 -0.2030 -0.0234  0.0030
    1W        W24192  22.531  26.058   0.015  0.2850  0.0464  0.1468
    1W        W24193   6.189  28.098   8.205 -0.2755 -0.1995 -0.1732
    1W        W24194  27.511   9.528   8.954 -0.2014 -0.1487 -0.4918
    1W        W24195  13.490  11.891   0.089 -0.0706 -0.2658  0.0922
    1W        W24196   5.157  20.724   6.958 -0.0168 -0.1408  0.0720
    1W        W24197  20.986  24.050   8.642  0.2392 -0.1735 -0.0290
    1W        W24198  22.639   5.946   0.102  0.1673 -0.0800 -0.3789
    1W        W24199   3.493  19.150   0.994  0.1765  0.1683 -0.0325
    1W        W24200  18.244   6.059   2.869  0.0664 -0.0326 -0.2446
    1W        W24201   5.884   9.198   9.012  0.0884 -0.2556  0.0781
    1W        W24202   9.439  26.231   8.962  0.3152 -0.1446  0.2830
    1W        W24203  24.650   2.203   8.372 -0.0335  0.0598  0.0859
    1W        W24204   9.979  25.176   6.685 -0.2384  0.0239  0.1018
    1W        W24205   7.715   5.079   8.066  0.2165 -0.0267 -0.1984
    1W        W24206   1.811   8.153   9.509  0.0107 -0.0680 -0.3371
    1W        W24207  20.018  28.119   7.115  0.0739  0.0653 -0.0930
    1W        W24208  21.206  10.904   2.815 -0.2766 -0.1592  0.0237
    1W        W24209  21.166  27.264   7.779 -0.0379  0.0110  0.2556
    1W        W24210  16.072  20.888   9.150  0.0270  0.0236 -0.1517
    1W        W24211   7.016   9.684   8.586 -0.3098  0.0808 -0.1338
    1W        W24212  14.086   9.235   8.549  0.0282 -0.2194  0.2292
    1W        W24213   4.576  23.959   6.220  0.1655 -0.0413 -0.1116
    1W        W24214   8.315  23.762   0.151 -0.1370  0.1057 -0.0852
    1W        W24215   8.022  26.270   8.471 -0.3027 -0.1713  0.0097
    1W        W24216  17.147  23.037   7.683 -0.0938 -0.0992  0.0430
    1W        W24217  10.221  18.224   7.306 -0.1032  0.0096  0.2444
    1W        W24218  16.137  18.991   0.012  0.2991  0.0474 -0.1027
    1W        W24219  12.399   5.110   8.865  0.4296  0.0131 -0.1491
    1W        W24220   8.801  26.958   8.942 -0.0255 -0.1706  0.1330
    1W        W24221  23.918  25.463   8.288  0.0763 -0.0228 -0.0033
    1W        W24222  17.088  11.105   7.531  0.0877  0.1075  0.0834
    1W        W24223   2.643  22.417   6.502  0.0427 -0.2176  0.0327
    1W        W24224   9.931   3.247   1.311  0.0096 -0.1677 -0.0506
    1W        W24225   4.750  22.923   2.007 -0.3344  0.0591  0.2968
    1W        W24226  24.485  15.578   9.229 -0.1643  0.2441  0.1596
    1W        W24227  20.959  11.956   7.494 -0.0304  0.0962 -0.0124
    1W        W24228  12.130  23.869   9.347  0.1753 -0.1076 -0.0002
    1W        W24229  18.258   4.603   1.454 -0.1130  0.0367  0.0128
    1W        W24230  23.426  13.726   2.147  0.4275 -0.1711 -0.1533
    1W        W24231  14.146  27.778   0.682 -0.0023 -0.1733 -0.0087
    1W        W24232  23.329  28.145   0.783  0.1883 -0.1031  0.2026
    1W        W24233  22.766  26.772   8.975  0.1211 -0.0043  0.2256
    1W        W24234  17.938   1.537   8.740 -0.0021  0.3381 -0.0730
    1W        W24235  15.435   7.775   9.312 -0.0383 -0.2355 -0.0331
    1W        W24236  14.064  12.667   1.084 -0.3387  0.0979 -0.1544
    1W        W24237  27.181  13.417   8.303 -0.2235  0.0607 -0.0619
    1W        W24238  20.744  14.137   2.232 -0.1176  0.0521  0.2336
    1W        W24239   0.750  15.967   7.215  0.0059 -0.3030  0.0530
    1W        W24240   6.902  26.410   7.757  0.3288  0.0462  0.1604
    1W        W24241   9.675   9.150   7.023  0.1710 -0.3454  0.0574
    1W        W24242   3.889  14.264   1.227 -0.3448  0.0720  0.1801
    1W        W24243  26.569  27.056   9.527 -0.0424 -0.0295  0.2703
    1W        W24244  26.488  11.295   8.164 -0.0955  0.0242 -0.2189
    1W        W24245  18.433   5.272   2.799  0.1592  0.1168 -0.0687
    1W        W24246   1.658   8.217   8.056  0.1081 -0.2235  0.2566
    1W        W24247   3.986  22.086   6.213  0.0166 -0.1459  0.0129
    1W        W24248  16.230  19.467   7.953 -0.2757 -0.1354  0.2581
    1W        W24249  18.744  16.998   9.309 -0.0626 -0.0027 -0.0537
    1W        W24250  17.909  24.547   2.178 -0.2411  0.0472 -0.3230
    1W        W24251  18.007   3.241   8.832 -0.1009 -0.0430  0.2386
    1W        W24252  14.916  13.288   9.219 -0.4144 -0.2005  0.0906
    1W        W24253   0.649  11.228   9.741 -0.1362  0.1049  0.1782
    1W        W24254  21.678  18.289   9.426  0.1696 -0.0032 -0.1202
    1W        W24255  13.408   0.907   0.871  0.0571  0.4609  0.2302
    1W        W24256  18.350  21.667   9.241 -0.3260 -0.1867  0.0657
    1W        W24257   3.011  25.977   1.176  0.0221  0.0904  0.0282
    1W        W24258   3.865  12.648   7.767  0.2489 -0.0265  0.0299
    1W        W24259   9.466   9.532   0.891 -0.1524  0.1297  0.0813
    1W        W24260   6.852  27.030   0.481 -0.2060  0.0614 -0.1230
    1W        W24261  15.480   1.776   9.487 -0.0389 -0.1526  0.0854
    1W        W24262   5.176  25.901   8.437  0.1066  0.3515  0.0362
    1W        W24263  10.666  23.638   7.465  0.0088 -0.1750  0.1644
    1W        W24264  11.304  12.898   8.557  0.1196  0.0317  0.0604
    1W        W24265   9.435   2.489   1.478 -0.1642 -0.2206  0.0674
    1W        W24266  27.892  24.208   8.731  0.2439  0.1303  0.0246
    1W        W24267  11.747  18.457   0.310 -0.5008  0.1075  0.5648
    1W        W24268   9.899   7.427   8.077  0.0215  0.1066 -0.2847
    1W        W24269  24.267  13.752   7.113 -0.2010  0.0757  0.0942
    1W        W24270   8.638   4.895   7.213 -0.0007  0.0780  0.0988
    1W        W24271  19.856  21.161   7.895  0.0216 -0.1746 -0.1959
    1W        W24272   5.653  15.405   1.615  0.2605  0.0965  0.2601
    1W        W24273  20.285  21.295   0.056  0.0826 -0.0673 -0.1361
    1W        W24274  20.832  18.357   7.443 -0.1584 -0.3391  0.1254
    1W        W24275  14.437   6.854   1.637  0.2638 -0.1171  0.4118
    1W        W24276   6.022  18.455   0.955  0.0195 -0.2162 -0.1950
    1W        W24277  23.064  17.870   3.022 -0.4491 -0.2319  0.1778
    1W        W24278  26.896  19.463   7.034  0.1385  0.0474  0.1678
    1W        W24279  18.193   9.402   9.299  0.1659 -0.0305 -0.0044
    1W        W24280  16.219  14.319   8.572  0.0816  0.1687 -0.1510
    1W        W24281  25.922  22.042   2.526  0.0702  0.0665  0.1282
    1W        W24282   7.951   0.084   2.406  0.0813 -0.1296  0.0659
    1W        W24283  23.822   2.803   9.899  0.1480 -0.2374  0.0046
    1W        W24284   5.046  11.015   8.348 -0.0479  0.1609  0.3245
    1W        W24285  21.757  14.555   7.396  0.4599 -0.0372  0.2681
    1W        W24286  10.392  12.614   2.328 -0.2398  0.0205  0.0904
    1W        W24287   6.016   8.007   6.805  0.1103  0.1610  0.0079
    1W        W24288  20.327  24.023   0.448 -0.1156  0.0357  0.2811
    1W        W24289   1.671  24.872   0.525 -0.2144 -0.2722  0.2815
    1W        W24290  13.692  27.556   8.270 -0.0225  0.1797  0.1474
    1W        W24291  14.487  28.542   9.450 -0.0404 -0.2805  0.0055
    1W        W24292  15.486  24.351   8.686 -0.3338  0.2954  0.0770
    1W        W24293  13.573   0.417   0.913 -0.1662 -0.0139  0.0092
    1W        W24294  22.684   7.227   0.367  0.3574  0.0809  0.2326
    1W        W24295  25.352   6.018   7.543 -0.0712 -0.1925  0.0478
    1W        W24296   7.465   8.857   1.071  0.1865  0.1140  0.1775
    1W        W24297  27.451   5.555   2.086 -0.1191  0.1369 -0.0955
    1W        W24298  20.330  26.471   6.399 -0.1941 -0.0832 -0.1071
    1W        W24299  15.578  12.766   9.376 -0.2573  0.0147 -0.0131
    1W        W24300  25.277  23.642   9.717  0.0944  0.0136 -0.1262
    1W        W24301   7.218  27.013   6.187 -0.0104 -0.0601 -0.2124
    1W        W24302  18.904  14.179   0.564  0.1221  0.1786  0.2002
    1W        W24303   7.777   5.706   0.241 -0.0269  0.0814 -0.0478
    1W        W24304  11.601  13.562   0.347  0.0358 -0.1051 -0.2802
    1W        W24305  19.926  14.825   1.785 -0.0843 -0.1466  0.0799
    1W        W24306   1.580  13.699   2.785 -0.3699  0.0092 -0.1756
    1W        W24307  26.900  23.079   1.745 -0.3433 -0.2409  0.1457
    1W        W24308   8.743  22.637   9.061 -0.0821 -0.1200  0.1632
    1W        W24309   3.113   1.365   8.240  0.0424  0.0900  0.0395
    1W        W24310  12.832  25.317   8.963  0.1624  0.1314  0.3149
    1W        W24311  21.425  13.545   8.995  0.1216 -0.0473  0.0118
    1W        W24312  25.105  11.479   7.943  0.2870 -0.2976 -0.2166
    1W        W24313   0.698  26.852   0.302 -0.1465 -0.1819  0.1335
    1W        W24314  12.929   3.234   2.411  0.0101 -0.0293 -0.2765
    1W        W24315   7.472   4.515   2.440 -0.0026 -0.1204 -0.4196
    1W        W24316   5.116  26.929   8.951 -0.1191  0.1806 -0.1206
    1W        W24317  14.809  20.230   2.832 -0.0131  0.0421  0.0780
    1W        W24318   4.178   4.590   2.578  0.1884 -0.2608  0.3009
    1W        W24319  26.585   0.365   7.861  0.0264  0.1351  0.0419
    1W        W24320   6.043  26.444   6.334 -0.1772 -0.2083 -0.1061
    1W        W24321  20.910  18.559   1.834  0.1689 -0.1067  0.1594
    1W        W24322  16.041  16.466   0.363  0.0955  0.1614  0.1603
    1W        W24323  21.866  20.090   3.543  0.0265 -0.1632  0.3004
    1W        W24324  24.864   1.001   3.781 -0.3462  0.1460 -0.3911
    1W        W24325   9.787  16.573   7.759  0.1345 -0.2269 -0.2621
    1W        W24326  19.979   5.545   3.025  0.2933  0.1925  0.0119
    1W        W24327   5.199  12.577   1.869  0.0942  0.1443  0.2126
    1W        W24328  25.172  25.823   6.845  0.0750  0.0361 -0.2669
    1W        W24329  23.449   1.592   2.760 -0.2243 -0.1818 -0.1446
    1W        W24330  16.204  26.748   8.015 -0.2280 -0.2587 -0.2428
    1W        W24331   9.922  16.317   8.976 -0.2206  0.2541 -0.2966
    1W        W24332   1.852  23.534   1.669  0.1347  0.0132 -0.0446
    1W        W24333  15.795  16.267   2.528  0.0144  0.0784 -0.0938
    1W        W24334  13.398  28.671   0.050  0.1428  0.3287 -0.0039
    1W        W24335  19.453   8.930   0.184 -0.0380 -0.1877 -0.1334
    1W        W24336   0.986  23.367   1.677 -0.2244 -0.0758  0.0626
    1W        W24337  22.483  26.675   7.851  0.1995 -0.0281  0.2184
    1W        W24338  28.352  26.305   0.020 -0.1629  0.1846  0.0171
    1W        W24339  11.528   1.561   9.836  0.0035 -0.0861  0.0170
    1W        W24340   0.961   8.232   2.538 -0.1349 -0.1772  0.1066
    1W        W24341  13.986  21.822   3.813  0.0785  0.1925 -0.2378
    1W        W24342   3.999   3.444   8.816 -0.1851  0.1065  0.0748
    1W        W24343  25.255  10.198   0.572 -0.2810  0.2677 -0.0607
    1W        W24344  25.301   9.000   1.659  0.0594  0.0429  0.0624
    1W        W24345  25.085  18.377   0.979 -0.0852 -0.1598  0.1819
    1W        W24346  27.348  21.602   1.272  0.1637  0.0843  0.2984
    1W        W24347  26.788  23.656   7.424 -0.2050  0.1834  0.0815
    1W        W24348   3.805  20.759   3.008 -0.1602 -0.0376  0.1734
    1W        W24349   5.896   3.073   2.898  0.0647  0.1153 -0.1470
    1W        W24350   6.054  15.362   6.935  0.0391 -0.0408  0.1058
    1W        W24351  17.846   3.983   9.308 -0.3434  0.0703  0.2346
    1W        W24352   7.441  26.810   2.516  0.0485  0.0772 -0.0819
    1W        W24353  11.299  20.535   9.294 -0.0351  0.1156  0.0835
    1W        W24354   9.509  17.279   1.996  0.2574 -0.1015  0.1843
    1W        W24355  13.197  24.443   8.186 -0.0021  0.1725  0.1462
    1W        W24356  11.257  11.917   0.126  0.0420 -0.0935 -0.0189
    1W        W24357  27.194  12.894   6.759  0.2929  0.3688  0.0748
    1W        W24358   5.913   1.690   0.105  0.1916 -0.0597 -0.2956
    1W        W24359  11.721  24.121   1.292  0.0777  0.2939 -0.1875
    1W        W24360  28.241  12.866   0.411  0.1452 -0.1901  0.2031
    1W        W24361   3.340   6.788   9.487  0.1270 -0.1351  0.1581
    1W        W24362  19.668   4.573   2.785 -0.2730  0.1904 -0.0161
    1W        W24363  22.195  26.659   8.373 -0.0961  0.1568  0.1916
    1W        W24364  22.545   1.969   7.190  0.2407 -0.1477 -0.0185
    1W        W24365  25.995  21.854   6.727  0.1220  0.2015  0.1853
    1W        W24366  20.448   4.302   0.912 -0.1357  0.0620  0.1157
    1W        W24367   3.346  20.860   8.940 -0.1117  0.1514  0.1342
    1W        W24368   0.705   6.446   0.719  0.1089  0.0887  0.1139
    1W        W24369   6.637  19.129   0.745 -0.2778 -0.2426 -0.3116
    1W        W24370  12.468   6.580   9.753 -0.0089  0.2064 -0.2404
    1W        W24371  20.291  23.600   7.958 -0.0431  0.0099  0.1430
    1W        W24372  20.221   0.041   9.181 -0.0270  0.3172 -0.0766
    1W        W24373  19.200  22.947   9.288 -0.0823  0.1315 -0.0611
    1W        W24374   2.895  27.540   9.247  0.1540  0.4220 -0.1600
    1W        W24375   5.087  17.654   1.057  0.0976 -0.0285  0.0765
    1W        W24376  21.112   5.259   7.634 -0.1208 -0.2063  0.1291
    1W        W24377  16.905   6.527   0.234  0.0979  0.2437 -0.1472
    1W        W24378  13.867  19.485   0.762  0.2495  0.1643  0.2039
    1W        W24379   6.281   0.921   8.031  0.3444 -0.1272 -0.2149
    1W        W24380   3.264   6.422   9.902 -0.0557  0.1310  0.1403
    1W        W24381  28.291  21.210   7.262 -0.0158 -0.4098  0.1133
    1W        W24382  16.185   1.230   9.443  0.0013 -0.0052  0.1409
    1W        W24383   2.278  15.985   9.655 -0.1365  0.2155  0.1288
    1W        W24384  26.382   0.594   9.943  0.1442  0.1304 -0.3681
    1W        W24385   1.301  11.443   0.693  0.0690  0.5090  0.1064
    1W        W24386   9.481  27.365   0.973  0.1533  0.0346 -0.3335
    1W        W24387  20.140  23.962   1.836 -0.0120  0.0938  0.0107
    1W        W24388   7.881  11.991   9.083 -0.0827  0.0045 -0.0972
    1W        W24389  26.697  24.475   9.767 -0.0886  0.2615  0.1167
    1W        W24390  18.201   2.056   9.782  0.1501  0.1481  0.3982
    1W        W24391  19.686  28.662   2.244 -0.0979  0.2261  0.0712
    1W        W24392  20.293  13.796   9.245 -0.1389  0.0233 -0.0201
    1W        W24393   3.058  26.263   8.186 -0.2928 -0.0463 -0.1291
    1W        W24394  14.181   9.634   9.495  0.1260  0.1373 -0.0086
    1W        W24395   4.509  19.208   6.429 -0.0459  0.0039 -0.1271
    1W        W24396  16.956  25.368   2.604 -0.3094  0.0249  0.0910
    1W        W24397  25.561   9.501   5.422  0.0609  0.2587  0.0141
    1W        W24398  13.814  19.580   2.713 -0.2442 -0.2140 -0.1231
    1W        W24399  26.867   7.177   0.598  0.0720 -0.0074 -0.2430
    1W        W24400  19.957   6.852   8.357  0.0456  0.0244 -0.1637
    1W        W24401  12.118   4.566   4.420 -0.2514 -0.2089 -0.1978
    1W        W24402  13.808  17.047   1.365  0.0727  0.1120  0.0614
    1W        W24403   7.154  21.469   8.816 -0.1150  0.2834 -0.1718
    1W        W24404  14.100  18.629   0.848  0.0433 -0.0275 -0.1606
    1W        W24405  28.533  18.310   1.651 -0.3042 -0.3785 -0.0900
    1W        W24406  11.162  15.343   1.990 -0.1262 -0.2315  0.2367
    1W        W24407   2.104   5.962   0.498 -0.3174 -0.2783  0.0399
    1W        W24408   3.792   7.513   0.247  0.3674  0.1106 -0.2026
    1W        W24409   5.672  15.190   9.616 -0.3375  0.1430  0.0790
    1W        W24410   1.817  16.895   6.366  0.0366  0.1425  0.0058
    1W        W24411  19.494  25.908   2.647  0.0225 -0.0516 -0.3330
    1W        W24412   4.646   3.411   0.270  0.2329  0.2243  0.1808
    1W        W24413  12.628  20.562   7.133 -0.0065  0.0108  0.1522
    1W        W24414   4.758   3.828   9.961  0.2909  0.0737 -0.1264
    1W        W24415  11.846  17.743   1.649 -0.0042  0.2076  0.0111
    1W        W24416   2.740   4.940   9.326  0.1231  0.3161 -0.3213
    1W        W24417  11.508  16.406   7.335 -0.0685  0.3700  0.1358
    1W        W24418  21.973   4.714   2.874  0.0189  0.0020 -0.0970
    1W        W24419   2.579  17.868   2.434  0.0038  0.2920  0.1120
    1W        W24420   3.207   6.577   9.064  0.2301 -0.0264 -0.1131
    1W        W24421  11.928  22.694   6.506  0.0517 -0.1802 -0.1712
    1W        W24422  23.125  20.836   2.404 -0.0467  0.0056 -0.2426
    1W        W24423  21.926  23.131   0.528 -0.0801  0.1490 -0.1901
    1W        W24424   2.485   4.653   0.828  0.0844 -0.0762 -0.0927
    1W        W24425  12.504  16.924   7.181  0.0388  0.0032  0.0266
    1W        W24426  20.920  15.022   2.453 -0.2325 -0.2414 -0.1269
    1W        W24427  13.061   6.601   1.308  0.0313  0.1251 -0.1590
    1W        W24428  21.644  10.528   8.674  0.0997  0.2692 -0.0961
    1W        W24429   4.619  20.705   8.913  0.0633 -0.1983  0.2280
    1W        W24430  26.287  20.377   7.046  0.0735 -0.0641  0.0503
    1W        W24431  26.000   0.091   9.428 -0.0217  0.1505  0.1755
    1W        W24432  11.843   3.196   7.628 -0.1904  0.2641  0.0309
    1W        W24433   4.386   8.855   1.987 -0.0640 -0.2179  0.1634
    1W        W24434   7.968  11.323   0.301  0.0247 -0.1288  0.5159
    1W        W24435  22.934  15.781   8.554  0.1062  0.0144  0.0870
    1W        W24436  11.942  18.156   1.983 -0.1536  0.3397  0.0932
    1W        W24437   9.375  28.683   8.275 -0.1136  0.3788 -0.1684
    1W        W24438   3.410  17.379   6.935 -0.0068  0.0709 -0.0097
    1W        W24439  22.621  25.020   6.687 -0.1592  0.0220 -0.3802
    1W        W24440  12.428  25.402   0.658  0.0453  0.0540 -0.0305
    1W        W24441  14.622  26.068   7.510 -0.0472 -0.0230  0.4621
    1W        W24442  22.761   8.975   0.012  0.0600  0.2990  0.0447
    1W        W24443   3.458   8.399   7.329 -0.0110 -0.2063 -0.0730
    1W        W24444  17.733   5.274   3.827 -0.2480 -0.3334  0.1800
    1W        W24445  13.527  24.545   2.172  0.3732  0.2008  0.1973
    1W        W24446  27.949  24.493   8.306 -0.1094 -0.2181 -0.0959
    1W        W24447  19.392   2.468   9.796  0.0934  0.1680  0.0750
    1W        W24448  23.838  13.588   2.993  0.2351  0.2596 -0.1448
    1W        W24449  11.866  25.519   1.102 -0.0492  0.1189  0.1761
    1W        W24450  12.636  20.179   1.031 -0.0672  0.1546 -0.1858
    1W        W24451  27.832   2.724   1.521  0.1146 -0.0072  0.0026
    1W        W24452  26.973  18.113   8.838  0.1245 -0.0936  0.1754
    1W        W24453  21.761  28.012   7.669 -0.0138  0.1971  0.2925
    1W        W24454   3.167  16.271   8.209  0.2560  0.1123 -0.0842
    1W        W24455  16.715  17.830   9.281 -0.0774 -0.1457  0.0796
    1W        W24456  17.874   3.744   8.345  0.0947 -0.1492 -0.0122
    1W        W24457  27.858  23.492   2.131 -0.0434 -0.0604 -0.0251
    1W        W24458  16.628  25.120   2.930  0.2213 -0.0761  0.0157
    1W        W24459   0.421   4.133   7.912 -0.1341 -0.1377 -0.0132
    1W        W24460   9.187  22.138   8.688 -0.0961 -0.3519  0.0159
    1W        W24461   6.277   9.447   2.074  0.3805  0.2991  0.1979
    1W        W24462   8.263   1.544   2.475  0.1035 -0.1664 -0.4824
    1W        W24463  19.165   7.483   9.272  0.3176  0.0121 -0.2125
    1W        W24464  18.800  23.790   7.601 -0.2487 -0.2622 -0.0406
    1W        W24465  11.568   3.954   2.683 -0.1716  0.2669 -0.1961
    1W        W24466  28.160  21.998   2.262 -0.2038  0.0641 -0.0720
    1W        W24467  20.628  11.079   9.837  0.0398 -0.1144 -0.1021
    1W        W24468   8.078   3.110   0.854  0.1977  0.2306  0.0281
    1W        W24469   5.328  27.317   2.642  0.2199 -0.0263  0.1169
    1W        W24470  14.267   1.769   8.254 -0.1289  0.0243 -0.3460
    1W        W24471  16.051  10.677   2.833 -0.0140  0.1313 -0.1766
    1W        W24472  20.958  27.062   0.758  0.0291 -0.1230  0.0924
    1W        W24473   9.456  18.201   9.925  0.2173  0.0224  0.0637
    1W        W24474   2.204   5.819   9.822  0.1459  0.0226  0.1529
    1W        W24475  23.994  18.345   9.868  0.0170  0.1068  0.0787
    1W        W24476  15.472  26.496   7.754 -0.2876 -0.1158  0.1944
    1W        W24477  26.601   7.983   1.832 -0.1042 -0.0858  0.0202
    1W        W24478  14.256  18.266   1.337  0.2148 -0.0723  0.1327
    1W        W24479  25.325  25.513   8.476 -0.1394  0.1499  0.3209
    1W        W24480   5.100  19.463   7.079 -0.1264  0.0061 -0.3083
    1W        W24481  11.250  24.529   7.352 -0.4052  0.0997 -0.1628
    1W        W24482  10.735   8.375   2.863 -0.1279 -0.0369 -0.1878
    1W        W24483   5.603   0.720   8.487 -0.2134  0.2156  0.0139
    1W        W24484  11.155  22.746   6.093  0.0133  0.0492  0.1469
    1W        W24485   2.582  22.108   9.330  0.2422  0.0868 -0.1161
    1W        W24486  20.488   3.266   2.206 -0.0526  0.0328  0.1799
    1W        W24487  13.697  13.917   7.446 -0.1233 -0.0690  0.2696
    1W        W24488  25.933  17.548   9.552 -0.1379 -0.4372  0.2132
    1W        W24489  21.315   4.935   2.961 -0.2982  0.0400 -0.2467
    1W        W24490   8.992  17.303   0.981  0.1022  0.2881 -0.3523
    1W        W24491   1.929  28.095   0.417 -0.1593  0.0678  0.0816
    1W        W24492  18.301   3.575   1.765  0.1036 -0.1597  0.1507
    1W        W24493  16.500   9.680   8.077  0.0395  0.1517 -0.0997
    1W        W24494  25.666  23.707   2.460 -0.1279  0.2669  0.2036
    1W        W24495  20.179  28.395   2.547  0.1107 -0.2285 -0.0312
    1W        W24496   1.066  25.347   6.583  0.0725 -0.0939 -0.2960
    1W        W24497  13.413  15.838   9.018 -0.1371  0.1432 -0.1232
    1W        W24498   5.872  26.221   1.605  0.0992 -0.0330  0.2460
    1W        W24499  15.226   7.547   8.898  0.0287  0.0306 -0.1060
    1W        W24500  14.107  12.169   8.962  0.1879  0.0384 -0.1211
    1W        W24501  21.124  22.502   7.654 -0.0472 -0.0756  0.0072
    1W        W24502   6.740  13.436   8.373 -0.0948  0.1162 -0.1617
    1W        W24503  14.386  10.737   2.354 -0.0283 -0.2149 -0.1729
    1W        W24504  21.982  26.961   6.938 -0.0304  0.2754 -0.2375
    1W        W24505  11.502  21.087   9.201 -0.2195  0.0919  0.1855
    1W        W24506  17.765  11.339   0.281  0.1433  0.1738 -0.0152
    1W        W24507  24.257  10.175   7.943 -0.2738 -0.2939 -0.0649
    1W        W24508  17.171  22.079   0.200 -0.0975 -0.2495  0.0003
    1W        W24509  24.737  16.245   1.520 -0.1489  0.0425  0.0538
    1W        W24510  17.083   2.357   9.212  0.1543 -0.0024  0.1092
    1W        W24511  11.516  12.832   9.952  0.0812  0.0929  0.1264
    1W        W24512  13.184  24.048   6.974  0.1587  0.0922 -0.0941
    1W        W24513  28.665   2.052   7.478  0.1136  0.0659 -0.3453
    1W        W24514  12.589  15.504   2.004  0.0208  0.2917 -0.1304
    1W        W24515  13.149  28.239   0.953 -0.0574  0.2549  0.2038
    1W        W24516  26.899  12.472   1.347 -0.2242  0.1151  0.2375
    1W        W24517  21.907  23.141   7.227 -0.0518  0.1124  0.1480
    1W        W24518   6.517   4.249   9.396  0.3294 -0.1075 -0.0653
    1W        W24519  14.345  16.355   1.736  0.1462  0.2814 -0.1528
    1W        W24520  15.852  22.111   8.690 -0.0888 -0.1770 -0.1996
    1W        W24521  10.793  18.165   8.769  0.0306 -0.0390  0.1247
    1W        W24522  18.079   5.770   9.193  0.1460  0.0668 -0.2002
    1W        W24523  18.357   0.185   0.749 -0.0371 -0.0435  0.2330
    1W        W24524  20.489  13.722   2.024 -0.1290 -0.2152  0.0362
    1W        W24525   4.986   9.595   8.006  0.1567 -0.0312 -0.1021
    1W        W24526  27.071   8.331   6.584  0.0111  0.3141 -0.0303
    1W        W24527   3.925  21.904   0.519 -0.0051 -0.1576 -0.0761
    1W        W24528   4.213  28.059   7.097 -0.0970  0.0144  0.0593
    1W        W24529  22.103   2.049   2.540 -0.1773  0.2041  0.0875
    1W        W24530   2.196  20.264   2.209 -0.3753 -0.0516  0.0173
    1W        W24531   1.492  14.851   7.050 -0.1810 -0.0412  0.0628
    1W        W24532   0.413   2.019   7.592  0.1589 -0.1084  0.2513
    1W        W24533   0.233  17.215   0.552 -0.1061  0.1935 -0.1236
    1W        W24534  13.646  13.242   9.378  0.0615 -0.3359  0.2241
    1W        W24535  19.211  15.833   7.772 -0.0642 -0.0942  0.2532
    1W        W24536  13.011  19.076   0.434 -0.2672 -0.1584  0.0295
    1W        W24537  27.930   0.100   2.298 -0.1235 -0.0605 -0.2956
    1W        W24538  10.097  18.220   2.296  0.0004 -0.2364  0.0636
    1W        W24539  17.602  20.114   8.151  0.1027  0.0058 -0.1219
    1W        W24540   7.581  19.285   1.113  0.1726  0.1167 -0.2368
    1W        W24541  18.811  25.548   3.738  0.2011  0.1937 -0.3243
    1W        W24542  18.023   9.284   7.393 -0.0395  0.0237 -0.0151
    1W        W24543   7.058  28.445   7.835 -0.0457 -0.0377  0.3581
    1W        W24544  28.536  25.147   8.108  0.0781  0.0079 -0.0587
    1W        W24545   7.276   0.563   3.269 -0.0100  0.0424  0.0478
    1W        W24546  25.986  26.391   2.290 -0.2197 -0.1194  0.1749
    1W        W24547   8.219  12.045   8.151 -0.1392 -0.1895  0.2525
    1W        W24548  19.360  16.862   1.616 -0.0696  0.1399  0.1303
    1W        W24549  28.162  10.725   0.404 -0.1468 -0.1157 -0.2816
    1W        W24550   9.380  12.891   9.778  0.1815 -0.0737 -0.0808
    1W        W24551   5.739  18.631   1.423 -0.3667 -0.1125 -0.3333
    1W        W24552  10.625  24.390   9.161 -0.2467  0.2324  0.0839
    1W        W24553  18.062  11.996   7.114  0.0245  0.3465 -0.0113
    1W        W24554  28.292   0.834   2.962  0.1040 -0.1234  0.1928
    1W        W24555   4.550  16.990   8.679  0.1108  0.0727  0.0955
    1W        W24556  15.408  24.583   1.148  0.0282 -0.0457 -0.0973
    1W        W24557   2.024  28.711   8.838  0.2061  0.1064 -0.1812
    1W        W24558  19.305   8.023   2.591 -0.4031  0.0009  0.0940
    1W        W24559  26.749  20.843   9.292  0.1166  0.0832  0.2066
    1W        W24560  14.205   2.535   2.152 -0.1537  0.1256  0.1093
    1W        W24561  18.503   2.775   0.211 -0.1264  0.0149  0.2440
    1W        W24562   5.101  18.492   5.839  0.2286 -0.0688 -0.1176
    1W        W24563   8.976   4.829   2.050 -0.0567 -0.2227 -0.2658
    1W        W24564   1.029  25.166   9.826 -0.1901  0.1525  0.0586
    1W        W24565  15.937  17.182   2.921  0.1289 -0.0855 -0.0287
    1W        W24566   6.601   0.064   7.846  0.1305  0.0850  0.0490
    1W        W24567  11.397  22.224   7.606 -0.0745 -0.0190  0.2259
    1W        W24568   2.856   1.928   7.480  0.0925 -0.4402  0.2289
    1W        W24569  20.775   7.997   0.115 -0.2882 -0.3431 -0.2818
    1W        W24570   6.804   7.874   7.211 -0.0845 -0.1821 -0.1270
    1W        W24571  12.496  13.852   2.560 -0.0369 -0.1720 -0.1870
    1W        W24572   8.645  27.063   0.492  0.0170  0.1056  0.2090
    1W        W24573  19.271   7.996   9.430 -0.0474  0.1470 -0.1268
    1W        W24574  18.280  13.683   0.990 -0.0949 -0.0055 -0.1132
    1W        W24575  20.340  27.881   1.849 -0.1253  0.1800 -0.0750
    1W        W24576  22.674   0.429   0.310 -0.2125 -0.1548 -0.1875
    1W        W24577  13.534  17.844   1.163  0.2651 -0.1166  0.1062
    1W        W24578   0.958   3.771   1.575  0.0844 -0.1900 -0.0441
    1W        W24579  26.632  25.857   7.112 -0.0604  0.0876 -0.2447
    1W        W24580   8.074   6.365   9.132  0.1619 -0.1131  0.1714
    1W        W24581  13.829  23.791   7.628 -0.2610  0.0852  0.1179
    1W        W24582  17.540  23.949   9.130 -0.1070  0.0932  0.0437
    1W        W24583  24.997   2.151   2.091  0.0120 -0.1083 -0.0391
    1W        W24584  25.867   9.760   2.079 -0.0395  0.0600 -0.0254
    1W        W24585  18.176   9.027   1.183  0.0495 -0.0503 -0.2555
    1W        W24586   4.626   9.569   6.657 -0.1414  0.0465 -0.2640
    1W        W24587  11.783  24.575   0.159 -0.2307 -0.0235 -0.1484
    1W        W24588   7.136  14.278   8.091 -0.0617 -0.1427  0.0734
    1W        W24589  15.048   3.867   9.293 -0.1234  0.2771  0.0539
    1W        W24590  23.523  16.581   8.431  0.2198 -0.0463  0.0347
    1W        W24591   3.578  27.654   2.171  0.2576  0.0090  0.0655
    1W        W24592   6.591  26.127   8.650 -0.2158  0.0337 -0.1390
    1W        W24593   8.753  12.485   0.410 -0.0701  0.1152  0.0830
    1W        W24594  23.291  13.711   8.729 -0.2818  0.1967  0.1080
    1W        W24595   7.456  18.569   9.122 -0.3114 -0.2203 -0.0258
    1W        W24596   9.721   6.131   0.223 -0.3840  0.0196  0.0311
    1W        W24597  19.234   6.172   9.255  0.1646 -0.0853 -0.1258
    1W        W24598   0.805  21.635   9.725 -0.1091 -0.2481 -0.1436
    1W        W24599  12.730  12.887   1.813  0.1629  0.0378  0.0620
    1W        W24600  13.704  13.490   9.801  0.1108 -0.0712  0.0437
    1W        W24601  28.003  18.495   2.112  0.0406 -0.1427 -0.0404
    1W        W24602  13.144  23.564   7.929  0.1747  0.0236  0.0897
    1W        W24603  26.054  21.190   2.463 -0.0708  0.1875  0.3219
    1W        W24604  12.000  26.604   2.450 -0.0753  0.1505 -0.1882
    1W        W24605   7.844   9.616   7.964  0.1114  0.1932 -0.2567
    1W        W24606  26.564  10.590   9.239 -0.2485 -0.0433  0.0831
    1W        W24607   7.987   6.425   1.021 -0.1569 -0.1022 -0.0070
    1W        W24608  23.145   5.010   0.006 -0.2886  0.1289  0.0966
    1W        W24609  18.523  25.608   1.672  0.1373 -0.0723 -0.0122
    1W        W24610  21.828  25.203   2.856  0.1188 -0.0705  0.0594
    1W        W24611  17.527   7.072   8.620  0.0529  0.2749  0.1799
    1W        W24612  12.061  28.295   0.347  0.2218  0.4196 -0.0299
    1W        W24613   1.405   6.836   9.395 -0.0606  0.0109  0.0528
    1W        W24614   6.420  28.436   0.202  0.0432 -0.1298 -0.1185
    1W        W24615  24.586   2.863   2.369  0.3131  0.0344  0.0094
    1W        W24616  26.540  17.408   1.531  0.1990 -0.0439 -0.2107
    1W        W24617  28.212   3.428   2.698 -0.0024 -0.0445  0.0223
    1W        W24618  18.782   0.462   8.297 -0.1555  0.0833  0.2378
    1W        W24619  25.640  25.682   8.820 -0.1492  0.3113  0.2825
    1W        W24620  26.922  14.921   2.430 -0.0800 -0.0064  0.0798
    1W        W24621  18.404   5.334   3.349 -0.1752 -0.1502  0.0588
    1W        W24622  25.642  10.763   9.203  0.0261  0.1271 -0.1451
    1W        W24623   3.030  26.996   0.234  0.1205 -0.1587 -0.0668
    1W        W24624  27.550  22.067   1.286 -0.0522  0.0584 -0.1793
    1W        W24625   2.489   7.201   7.977 -0.2404 -0.1564 -0.1012
    1W        W24626   6.757  24.328   0.982  0.0203  0.2757  0.0160
    1W        W24627  15.974  17.956   1.906  0.1321  0.0465  0.0616
    1W        W24628   1.259  17.841   2.155 -0.1617 -0.2186  0.0577
    1W        W24629  25.850   9.203   8.679 -0.1418 -0.0156  0.0451
    1W        W24630  20.484   6.491   1.491  0.2109 -0.3592  0.0920
    1W        W24631  10.383  17.181   7.949  0.0148 -0.0757 -0.1639
    1W        W24632  20.964  14.738   1.451  0.0957 -0.0029 -0.0320
    1W        W24633  10.704  15.520   2.247 -0.1939  0.1559  0.1586
    1W        W24634  24.362  12.733   8.155  0.0829  0.0706  0.1401
    1W        W24635  20.076   0.405   6.392  0.0733 -0.0470  0.1660
    1W        W24636  21.202  18.655   1.114  0.4832 -0.0362 -0.1462
    1W        W24637   3.478  21.131   9.352 -0.2781  0.3130  0.2286
    1W        W24638  20.437   0.079   8.316 -0.0010  0.1911  0.1007
    1W        W24639   0.635   7.469   8.368  0.0085  0.1253 -0.2071
    1W        W24640  14.272  20.292   2.877  0.1927  0.0101 -0.2744
    1W        W24641   8.267  28.240   1.196 -0.1817  0.2765  0.1559
    1W        W24642   1.679  25.439   7.747 -0.1707  0.1656  0.4680
    1W        W24643   7.906  25.321   2.409  0.1933 -0.1988 -0.0011
    1W        W24644   5.866  23.712   2.588 -0.3073 -0.1705 -0.0761
    1W        W24645  18.088  16.859   1.548 -0.2358  0.0234 -0.0007
    1W        W24646  23.536  15.486   1.665 -0.2942  0.0102  0.0327
    1W        W24647   7.768   1.865   8.861  0.1577  0.0235  0.0528
    1W        W24648   8.506   8.287   7.140  0.0790 -0.1577 -0.0040
    1W        W24649  10.385   8.154   2.504  0.2343 -0.2068 -0.1645
    1W        W24650   3.350  20.385   6.606 -0.3133  0.3316  0.1458
    1W        W24651  17.953  10.092   0.076  0.0011 -0.3117  0.0799
    1W        W24652  20.888  15.231   7.403  0.2108 -0.0154  0.0628
    1W        W24653  21.559   9.553   9.566 -0.0885 -0.0759 -0.2976
    1W        W24654  18.953  28.566   3.166 -0.2790 -0.1843  0.2224
    1W        W24655  19.863   3.411   9.839  0.2970 -0.0220 -0.0518
    1W        W24656  26.924  25.468   8.445 -0.3095 -0.1820 -0.1766
    1W        W24657  18.693  14.625   2.307 -0.0733  0.0171 -0.1963
    1W        W24658   9.862  21.701   8.086  0.3668 -0.2220 -0.2778
    1W        W24659  28.662   5.648   3.030 -0.1111 -0.1539 -0.2017
    1W        W24660   3.520   6.896   3.192  0.1911 -0.3207  0.0833
    1W        W24661   4.777   9.576   2.191 -0.0087 -0.0951  0.0151
    1W        W24662  21.253   0.267   1.325 -0.1005  0.0532  0.1758
    1W        W24663  24.771  10.869   7.523 -0.2990  0.0137  0.0072
    1W        W24664   8.270   6.077   3.639  0.0788  0.1694 -0.0549
    1W        W24665  15.932   4.052   0.297  0.1215 -0.4102  0.0115
    1W        W24666   7.790  10.084   2.305  0.0519 -0.1884 -0.0608
    1W        W24667  18.610  23.708   0.189  0.0090 -0.4670 -0.1611
    1W        W24668   7.194  12.665   7.786 -0.1043  0.0779  0.0097
    1W        W24669  26.455  23.709   7.042 -0.2847  0.3277  0.0922
    1W        W24670   2.632   5.672   9.481 -0.0450 -0.1553 -0.2416
    1W        W24671  22.923  16.427   8.742  0.0470  0.1939 -0.0581
    1W        W24672  20.015   7.668   8.519 -0.2057 -0.0723  0.1311
    1W        W24673   0.477  12.499   2.641 -0.1550  0.2134  0.2346
    1W        W24674  20.622  26.818   1.639  0.0106  0.2025  0.3224
    1W        W24675  12.045  25.731   7.252  0.2407  0.0267 -0.2006
    1W        W24676  25.576  19.670   8.839  0.2469 -0.2422 -0.0333
    1W        W24677  11.322  18.028   1.387 -0.1909  0.1497 -0.0090
    1W        W24678  22.352  17.730   7.564  0.0077  0.0568 -0.1651
    1W        W24679   3.742  21.467   6.096  0.1080 -0.0685 -0.2598
    1W        W24680  21.357  18.596   3.164  0.0876  0.3402  0.1681
    1W        W24681   0.022  23.329   8.065 -0.0227 -0.2037  0.2912
    1W        W24682  11.488   4.827   8.313  0.0838  0.2354  0.0565
    1W        W24683  21.131  27.431   6.889  0.2400  0.2089 -0.0806
    1W        W24684   2.497  19.101   6.810  0.2595 -0.2476  0.3119
    1W        W24685   0.092  25.923   0.966  0.1687  0.0091 -0.1606
    1W        W24686  12.502  17.307   1.301 -0.0268 -0.0426 -0.1184
    1W        W24687   9.610  28.270   2.381 -0.0269 -0.0516  0.0890
    1W        W24688   7.061  19.678   6.670 -0.0636  0.0510  0.1701
    1W        W24689   0.861   9.817   9.324 -0.0268 -0.2508 -0.3349
    1W        W24690   8.693  25.531   8.614  0.0375 -0.1760  0.0951
    1W        W24691  28.088  10.137   9.592  0.4143 -0.0178 -0.0439
    1W        W24692   4.039   6.819   0.281  0.1594 -0.1632  0.0150
    1W        W24693   7.831  11.476   2.501  0.1747 -0.2245 -0.0866
    1W        W24694   2.354  25.010   7.592  0.0746  0.2885  0.2533
    1W        W24695   7.381   4.108   7.209 -0.3555 -0.0556 -0.0370
    1W        W24696  10.381  21.649   8.350 -0.0934 -0.1079 -0.1014
    1W        W24697   8.046  19.780   9.677  0.1446 -0.1756  0.1397
    1W        W24698  24.268  16.218   7.586  0.5673  0.0558  0.0235
    1W        W24699   6.213  19.280   7.175 -0.0020  0.0785 -0.0879
    1W        W24700   3.719   6.611   8.220 -0.0083 -0.0308  0.1735
    1W        W24701  11.215   2.494   0.881 -0.1864  0.1066 -0.2554
    1W        W24702  24.789  15.484   1.144 -0.1137  0.2955 -0.3758
    1W        W24703  25.040  21.223   1.839 -0.2384  0.1669 -0.0515
    1W        W24704  17.237   2.309   8.314 -0.3380 -0.2115  0.0613
    1W        W24705  20.000   4.650   7.458  0.1950  0.1566  0.1513
    1W        W24706  22.062  24.082   1.919  0.0001 -0.1044 -0.3123
    1W        W24707  15.339  20.606   2.078 -0.1046 -0.1974 -0.0277
    1W        W24708  28.449   4.716   6.336 -0.0453  0.0493  0.1164
    1W        W24709  16.807  18.325   9.048 -0.0746 -0.1712  0.2151
    1W        W24710   9.691  22.481   8.499 -0.3168 -0.0466 -0.0123
    1W        W24711  20.386  12.901   2.838 -0.0693 -0.2066 -0.1191
    1W        W24712  22.361  22.060   0.531 -0.2115  0.1670 -0.2925
    1W        W24713  24.989  18.718   8.649 -0.0264  0.4756  0.0558
    1W        W24714  19.577  12.471   0.973 -0.1429 -0.0586 -0.2608
    1W        W24715  19.383  22.377   3.034  0.1086  0.0842  0.3326
    1W        W24716   8.162  14.782   9.192 -0.0270 -0.1494  0.0576
    1W        W24717   4.357   1.617   0.872  0.1025 -0.1016 -0.0443
    1W        W24718   4.876  13.785   5.976 -0.1756  0.0885 -0.1899
    1W        W24719   9.029   2.909   1.129  0.2533 -0.0922  0.2530
    1W        W24720  15.256  12.857   7.451  0.1670  0.0207  0.3019
    1W        W24721  15.460   7.595   7.894 -0.4122  0.0680 -0.3707
    1W        W24722  18.935  13.702   2.330 -0.1160  0.1836  0.1242
    1W        W24723  11.627   3.022   2.169 -0.0816  0.0209 -0.1719
    1W        W24724  27.419   4.209   9.938  0.1371  0.0653  0.0515
    1W        W24725  21.296  13.050   0.778  0.4312  0.0522 -0.3147
    1W        W24726  13.920   2.075   1.221  0.0607 -0.0044 -0.3382
    1W        W24727  13.905  22.774   2.616 -0.2104  0.1780  0.1598
    1W        W24728   3.349  11.489   8.501  0.1530 -0.0067 -0.0535
    1W        W24729   1.323  11.725   7.907 -0.1288  0.0043  0.0212
    1W        W24730  13.885  11.888   2.832  0.1204  0.3395  0.0916
    1W        W24731  25.220   6.065   9.129  0.1253  0.0871  0.0765
    1W        W24732   7.008  24.835   0.749  0.2128  0.0484 -0.1368
    1W        W24733   5.918  20.765   1.857  0.1955  0.1310  0.0618
    1W        W24734   7.512  13.088   8.084 -0.1409  0.1704  0.0370
    1W        W24735   0.699   4.534   7.883 -0.2816  0.2642  0.1786
    1W        W24736  27.150   8.587   0.682 -0.1715 -0.0173  0.0810
    1W        W24737   1.211  25.444   0.965 -0.2564 -0.1804 -0.2251
    1W        W24738   1.910   6.937   1.917  0.2545 -0.0934  0.0042
    1W        W24739   4.979  22.876   6.505  0.2013  0.0468 -0.0019
    1W        W24740   3.653   2.402   9.928  0.0545  0.0062  0.2167
    1W        W24741  13.520   6.986   9.930  0.1786 -0.0141  0.1594
    1W        W24742   3.414   8.038   7.760 -0.1449 -0.4119 -0.4109
    1W        W24743   4.122  12.330   8.770  0.0084 -0.1270  0.0249
    1W        W24744   9.159  18.969   8.286 -0.0904 -0.4596  0.0012
    1W        W24745   4.692  23.815   9.116 -0.0799 -0.1626  0.1155
    1W        W24746  23.961   2.259   2.864  0.0320 -0.4597 -0.1879
    1W        W24747   5.140   1.208   6.774 -0.2773  0.0945 -0.1238
    1W        W24748  25.653  21.347   9.561 -0.0802 -0.1682 -0.0567
    1W        W24749  16.676  14.569   7.217 -0.0687  0.0894 -0.0613
    1W        W24750  24.074  16.422   5.940 -0.1725  0.0800  0.0432
    1W        W24751  22.864  17.194   2.267 -0.1675  0.2481  0.1111
    1W        W24752  13.941  28.244   0.047 -0.1626  0.1270  0.1883
    1W        W24753  20.720  25.875   7.755 -0.1661 -0.1655 -0.1048
    1W        W24754  14.523   1.309   8.210  0.0600  0.1499 -0.3201
    1W        W24755  23.501   0.929   2.111  0.1165 -0.2473 -0.0424
    1W        W24756  19.889  16.515   8.016  0.1694  0.1737 -0.0244
    1W        W24757   6.732  23.585   6.705  0.0589 -0.0075 -0.0492
    1W        W24758   8.116  12.437   7.552  0.1815 -0.0389 -0.0013
    1W        W24759   9.932  28.023   3.301  0.1826 -0.0380  0.0242
    1W        W24760  28.445   4.586   9.807  0.0023  0.0845 -0.0670
    1W        W24761  10.350   5.480   2.185  0.1573 -0.2404  0.2532
    1W        W24762   7.884  21.630   1.599 -0.0864 -0.0895 -0.1861
    1W        W24763   1.832  16.161   9.749  0.1100 -0.2366  0.0858
    1W        W24764  28.148   3.297   9.435  0.2431 -0.0805 -0.0801
    1W        W24765   7.423  23.172   0.414  0.0731 -0.2584 -0.0723
    1W        W24766   5.936  24.408   9.614  0.1686  0.0410  0.0804
    1W        W24767  17.016   9.112   8.943  0.1920  0.2184  0.1859
    1W        W24768  20.489   4.655   7.601 -0.0184  0.0377  0.0789
    1W        W24769   0.933  12.072   0.179  0.3936  0.0861  0.3655
    1W        W24770   2.237   6.201   8.671  0.0017 -0.0780 -0.0979
    1W        W24771   9.817   4.590   7.017 -0.3102  0.1791 -0.1198
    1W        W24772   4.969  14.389   6.663  0.3244  0.1903  0.2579
    1W        W24773  23.845  26.979   1.898  0.0872 -0.4164  0.1802
    1W        W24774   6.694  19.329   8.833  0.1489 -0.0063 -0.1940
    1W        W24775   3.182  27.619   1.639  0.0137  0.0139 -0.1452
    1W        W24776   1.773   6.012   1.753  0.0244  0.3739 -0.1672
    1W        W24777  26.910   7.709   6.500 -0.0145 -0.2414 -0.0082
    1W        W24778  24.029   9.282   8.197 -0.0990 -0.0388 -0.1969
    1W        W24779  26.458  19.812   0.884 -0.0275  0.1413 -0.1137
    1W        W24780  26.175   8.663   0.323 -0.4096  0.1917 -0.0262
    1W        W24781   0.303   9.957   9.539 -0.0239  0.2071  0.0867
    1W        W24782  23.982  23.383   7.004 -0.2461 -0.0800 -0.1334
    1W        W24783  23.967  11.976   8.306  0.0379 -0.0075  0.1737
    1W        W24784   3.735  22.922   8.255  0.1449  0.3035 -0.0235
    1W        W24785   5.384  26.864   9.868 -0.2319  0.1341  0.0142
    1W        W24786   0.104   3.940   6.026 -0.2406  0.0926  0.1235
    1W        W24787  14.903   8.701   8.298 -0.0195  0.1235  0.1885
    1W        W24788   2.716  20.466   7.488 -0.1919 -0.1979 -0.2114
    1W        W24789  13.046  14.476   0.588  0.0085  0.0349 -0.1115
    1W        W24790  17.389  20.992   7.698 -0.0348 -0.0919 -0.2899
    1W        W24791   0.286  10.388   6.296  0.0963 -0.1588  0.0666
    1W        W24792  10.274  12.125   9.355 -0.3082  0.0842 -0.2523
    1W        W24793   7.727  27.227   2.677  0.2519 -0.4088  0.0282
    1W        W24794  11.958  28.157   9.170  0.2542 -0.0456 -0.1527
    1W        W24795   4.031   9.548   8.514  0.0604  0.0742 -0.0952
    1W        W24796  15.099   4.023   8.677  0.1940 -0.1370 -0.1892
    1W        W24797  21.885  13.759   2.643 -0.1847  0.2669  0.0161
    1W        W24798  26.049   7.794   9.299 -0.4007  0.1986  0.0330
    1W        W24799  17.283  27.403   9.164  0.0095  0.0244  0.1965
    1W        W24800  21.045  22.356   3.409 -0.1531  0.4939 -0.1132
    1W        W24801  21.094  23.134   1.203  0.2522 -0.3753 -0.1737
    1W        W24802  11.336   3.103   9.002  0.1401  0.0344 -0.0988
    1W        W24803  28.500  25.616   0.236  0.0745  0.0986 -0.1528
    1W        W24804  16.920  26.016   9.914  0.1431  0.1979  0.2095
    1W        W24805   2.358   4.854   3.578  0.2223  0.0712 -0.1833
    1W        W24806   5.903  20.547   6.540  0.0188 -0.2563  0.2020
    1W        W24807  14.935  22.128   3.449 -0.1617  0.3564 -0.3840
    1W        W24808  25.430  11.439   3.096 -0.2859  0.2278 -0.1187
    1W        W24809  15.636   3.052   7.942 -0.1375  0.0482  0.0052
    1W        W24810  14.424   1.546   9.897 -0.1984  0.2093 -0.4115
    1W        W24811  24.227  19.035   8.487  0.0502 -0.0516 -0.3114
    1W        W24812  24.952   0.470   1.904  0.1413 -0.1028  0.1126
    1W        W24813   6.511  10.251   9.345 -0.0726  0.0590 -0.2845
    1W        W24814  26.897   6.198   0.987  0.0378  0.0262 -0.4386
    1W        W24815   9.678   7.429   8.619 -0.2690 -0.0300 -0.0746
    1W        W24816   7.310  18.165   6.668  0.1612 -0.1001  0.2219
    1W        W24817   2.997   6.819   2.762  0.2997 -0.0035  0.0248
    1W        W24818  15.912  26.552   7.510  0.1814  0.0788  0.0875
    1W        W24819  23.641  12.769   0.954 -0.0142  0.0342  0.0521
    1W        W24820   4.877  13.437   2.314 -0.0295  0.1952  0.0520
    1W        W24821   5.085   1.986   8.124  0.0012  0.2614  0.1678
    1W        W24822   7.887   3.449   3.017 -0.1657  0.0949  0.4389
    1W        W24823  22.190   1.962   7.571 -0.0935  0.1243 -0.0921
    1W        W24824  20.897  28.369   9.626  0.2051  0.2542 -0.3072
    1W        W24825   4.171  28.097   8.234  0.0445  0.1681 -0.1427
    1W        W24826  23.617  22.570   9.807 -0.1768 -0.0393 -0.2657
    1W        W24827   5.820   2.439   7.999  0.0677  0.2638 -0.1405
    1W        W24828  21.909  13.502   7.795  0.0595 -0.3270  0.1058
    1W        W24829   8.118  18.522   0.208  0.1366  0.1039  0.3977
    1W        W24830  16.228   6.692   3.372  0.0865  0.0670 -0.0866
    1W        W24831  19.698   9.501   2.405 -0.0363  0.2743 -0.1860
    1W        W24832  15.370  26.658   1.357  0.1226 -0.1471 -0.2798
    1W        W24833   5.451  22.135   1.849  0.1289  0.0063 -0.1307
    1W        W24834  14.393  10.716   8.594  0.1825 -0.2094 -0.1105
    1W        W24835   9.696  13.632   1.461 -0.1698  0.0446  0.2570
    1W        W24836  27.045  24.271   7.601  0.1653  0.0485 -0.3884
    1W        W24837  26.097  27.438   3.580  0.0967  0.1568 -0.0654
    1W        W24838   0.047  28.036   7.877  0.2014 -0.1498 -0.0071
    1W        W24839   8.619   9.657   0.625 -0.2275 -0.1397  0.4460
    1W        W24840   7.149   7.632   7.583 -0.0397  0.1782  0.2385
    1W        W24841   4.494  25.249   1.767  0.1345 -0.0922 -0.3458
    1W        W24842   3.038  12.168   7.063 -0.0151 -0.2039  0.0609
    1W        W24843   5.425   6.284   7.012  0.0062  0.0226 -0.0484
    1W        W24844   5.253   5.387   1.393 -0.0379 -0.1615  0.2243
    1W        W24845  16.304  13.021   0.130 -0.0708  0.2843  0.2183
    1W        W24846  12.982  15.555   8.869 -0.1195 -0.1842  0.2389
    1W        W24847  20.032  21.277   8.994  0.0231  0.0756  0.0140
    1W        W24848  26.588  17.328   0.206 -0.0420  0.2543 -0.0340
    1W        W24849  12.676   5.406   1.842  0.0934  0.0321 -0.0119
    1W        W24850   5.619  12.402   0.063  0.2650 -0.0678 -0.0516
    1W        W24851  23.978   5.320   8.986  0.1306  0.0045  0.1698
    1W        W24852   5.748  24.896   3.139 -0.0953 -0.1271  0.1522
    1W        W24853  26.207  16.698   6.134  0.1920  0.3024  0.0686
    1W        W24854  22.869  17.068   8.151  0.1786 -0.0902 -0.1118
    1W        W24855  18.742  23.756   8.142 -0.0675  0.1438  0.0503
    1W        W24856  10.597  11.979   1.639 -0.0261 -0.3038  0.1634
    1W        W24857  18.386   3.123   9.784  0.4351  0.0204  0.0109
    1W        W24858  12.848  25.982   7.422 -0.0012 -0.4134  0.0845
    1W        W24859  24.633   5.063   3.595  0.1644 -0.0371 -0.2430
    1W        W24860  17.905  10.578   9.763  0.0001  0.1594  0.0102
    1W        W24861  25.569   5.907   7.122 -0.3986 -0.0091 -0.2326
    1W        W24862  11.659   3.466   3.063 -0.0565  0.0448 -0.0998
    1W        W24863  20.352   9.460   9.822  0.0470  0.1106  0.0276
    1W        W24864  19.528  11.016   0.631 -0.0795  0.0119 -0.0454
    1W        W24865  13.638  13.178   7.597 -0.1624  0.0847 -0.3387
    1W        W24866  28.256   0.980   3.557 -0.1140 -0.1026 -0.5306
    1W        W24867   1.272  17.365   0.484  0.1516 -0.0474  0.3107
    1W        W24868  20.694  13.970   0.310  0.0779 -0.1582 -0.0285
    1W        W24869  14.288   8.217   0.944 -0.0493 -0.3031  0.2457
    1W        W24870   5.449   9.493   7.783 -0.1253 -0.0253 -0.1774
    1W        W24871   1.613  25.320   6.664 -0.2911  0.0680 -0.2929
    1W        W24872  17.752   1.279   0.443 -0.1121  0.0488 -0.0315
    1W        W24873   2.827  24.761   9.831  0.1417  0.0005  0.2500
    1W        W24874  25.958   7.840   8.793  0.3660 -0.0742 -0.1663
    1W        W24875  15.232   0.823   0.468  0.2309 -0.0074 -0.0240
    1W        W24876  13.975  12.442   7.632  0.4230 -0.1089  0.0416
    1W        W24877   2.028  24.309   0.399 -0.0370  0.0618 -0.2326
    1W        W24878   3.702   0.532   9.237  0.2909  0.0182 -0.1054
    1W        W24879  13.891  20.229   2.114 -0.0471  0.4220 -0.1147
    1W        W24880  22.570  20.089   1.122  0.1049 -0.0642 -0.0051
    1W        W24881  19.353  20.914   2.243 -0.0643  0.3725 -0.1992
    1W        W24882   3.688  20.202   7.504 -0.0308 -0.1897  0.0915
    1W        W24883  10.910   0.848   3.126 -0.1391  0.1629 -0.0588
    1W        W24884   3.949   3.652   9.350  0.1045 -0.0955  0.1961
    1W        W24885  12.224   8.551   1.183  0.0545  0.3018 -0.0550
    1W        W24886  10.937  21.843   9.025  0.0767 -0.1906  0.1987
    1W        W24887  13.911  26.529   2.664  0.2021 -0.1773 -0.0457
    1W        W24888   4.553   2.435   1.219 -0.2932 -0.0432  0.0618
    1W        W24889  14.270  12.187   2.439  0.3694 -0.2941  0.0966
    1W        W24890  24.346   5.328   6.584 -0.3575  0.1172 -0.0119
    1W        W24891   2.072  16.928   9.391  0.1592  0.0909  0.0866
    1W        W24892   7.209  28.499   0.152  0.0342  0.0643  0.1083
    1W        W24893   1.449  12.692   7.766  0.0347  0.0541  0.1636
    1W        W24894  24.950  14.619   7.603  0.2320  0.3592  0.1200
    1W        W24895  20.452  14.264   9.073  0.1309 -0.1866  0.0867
    1W        W24896  15.335   7.792   0.015 -0.1050  0.1566  0.1002
    1W        W24897  10.823   4.579   2.557  0.0732  0.0327  0.1033
    1W        W24898   6.646  10.770   7.780  0.1657  0.0998  0.1308
    1W        W24899  11.281  12.436   8.011 -0.1798 -0.1098 -0.3894
    1W        W24900   2.465   3.729   1.451 -0.0303 -0.0414  0.1653
    1W        W24901  19.816  15.132   1.362 -0.0133  0.1184  0.0367
    1W        W24902  23.789  16.514   7.935  0.3068  0.4767 -0.1002
    1W        W24903  27.428   9.638   0.313 -0.0206  0.1542  0.0757
    1W        W24904  17.201  12.696   0.952 -0.1525  0.3263 -0.0553
    1W        W24905   9.210  23.626   8.132 -0.1751 -0.0865 -0.0412
    1W        W24906  10.706   3.125   0.592 -0.4155 -0.1537 -0.2926
    1W        W24907  17.810   4.514   7.876  0.2768 -0.1040 -0.1179
    1W        W24908  27.801  16.125   8.373 -0.3124  0.3283 -0.1107
    1W        W24909  12.049  18.619   0.672  0.2535  0.0679 -0.0650
    1W        W24910  16.535  20.080   7.366  0.2046  0.0298  0.0801
    1W        W24911  16.797   1.783   1.377 -0.0685  0.1625 -0.1084
    1W        W24912  12.663  26.614   8.163  0.0373  0.3179  0.1229
    1W        W24913   5.916  18.012   7.892 -0.2029 -0.0971  0.0302
    1W        W24914   9.423   9.233   9.612  0.1915  0.2128 -0.1109
    1W        W24915  24.756  28.043   0.393 -0.0977  0.0383 -0.1092
    1W        W24916  26.566   7.409   2.062 -0.0723 -0.0990 -0.1099
    1W        W24917   2.971   2.090   1.376 -0.1417  0.1405 -0.1621
    1W        W24918  27.052   5.298   6.387 -0.1974  0.3504 -0.2315
    1W        W24919   3.751   1.828   9.826 -0.0913  0.0001  0.3003
    1W        W24920  16.346  17.571   1.461  0.1193  0.1043 -0.2016
    1W        W24921   9.463  23.988   1.758 -0.1396 -0.1068 -0.1560
    1W        W24922   9.226  12.402   9.714  0.0100  0.2045  0.1572
    1W        W24923  18.105  24.365   0.621  0.2746 -0.0461  0.0813
    1W        W24924  12.334   2.249   8.849  0.2817 -0.4338  0.2657
    1W        W24925   5.304   3.466   2.169  0.1359  0.3013 -0.1445
    1W        W24926  12.105  12.142   2.686  0.0203 -0.1152 -0.2161
    1W        W24927   6.035  19.943   7.641 -0.0169 -0.1576  0.1933
    1W        W24928   5.126  23.862   2.290  0.4228  0.2316 -0.1631
    1W        W24929   3.159  24.605   0.346  0.0200 -0.0533 -0.1872
    1W        W24930   9.083   4.104   0.555  0.3046  0.1823 -0.2527
    1W        W24931   7.007   4.229   9.024  0.0341 -0.0474  0.1377
    1W        W24932  10.063  26.059   0.265 -0.4032  0.1790  0.3188
    1W        W24933  18.885  17.530   8.169  0.0627  0.2198 -0.0843
    1W        W24934   0.568  15.141   1.719 -0.1191 -0.2193 -0.3653
    1W        W24935  23.689   3.057   2.104 -0.1372  0.0591  0.2486
    1W        W24936   0.852  24.984   9.020  0.4578  0.0679 -0.2046
    1W        W24937  18.419  22.974   0.997 -0.1094  0.1389  0.0538
    1W        W24938  27.296  19.952   0.754  0.1240  0.1781 -0.3078
    1W        W24939  19.803  19.026   8.334  0.0158  0.2447  0.2747
    1W        W24940  12.827  16.597   0.485 -0.3846  0.2126 -0.0108
    1W        W24941   0.541  12.658   9.748  0.3678  0.2793  0.2030
    1W        W24942   5.558  11.316   7.552  0.0473 -0.0250 -0.1273
    1W        W24943   7.864  15.928   6.897  0.2873 -0.2263  0.0663
    1W        W24944   5.101   5.432   9.749 -0.0309 -0.1972  0.1744
    1W        W24945  25.395   9.380   7.170 -0.0722 -0.3389 -0.1281
    1W        W24946   5.166   8.445   8.887  0.0733 -0.0109 -0.0338
    1W        W24947  14.050   6.613   1.937  0.0479 -0.2582  0.0040
    1W        W24948   0.111  21.301   8.520 -0.0796  0.0875  0.1775
    1W        W24949   4.320  19.795   2.328  0.2602 -0.0534 -0.0271
    1W        W24950  16.632  19.280   1.233  0.1367  0.2666  0.0214
    1W        W24951   2.782  17.668   9.836 -0.1997  0.1336 -0.0139
    1W        W24952  14.886  22.553   1.043  0.0652  0.1194  0.2722
    1W        W24953  23.653  20.806   1.155 -0.2214  0.1023 -0.4778
    1W        W24954  22.699  13.271   2.339  0.1746  0.1272 -0.0134
    1W        W24955  20.920   7.707   0.508  0.0450  0.2136  0.2930
    1W        W24956  27.965   0.872   8.695 -0.1055  0.1686  0.3493
    1W        W24957   3.839  11.353   0.803 -0.0951  0.0166 -0.0135
    1W        W24958  15.806  21.705   7.780  0.3308 -0.0471  0.0910
    1W        W24959  17.873  24.468   6.795 -0.2153 -0.0157 -0.0993
    1W        W24960  10.350  18.526   1.319  0.1427 -0.0230 -0.0052
    1W        W24961  10.017   6.314   9.698 -0.0710  0.1909 -0.0962
    1W        W24962  22.923   5.201   1.967 -0.1962  0.2984 -0.1422
    1W        W24963   2.828  16.525   0.804 -0.1875 -0.0497 -0.0773
    1W        W24964   7.596  26.572   0.473  0.2339  0.0566  0.0395
    1W        W24965  20.579  20.648   1.165 -0.1699  0.1408  0.2051
    1W        W24966  19.411  27.328   0.578  0.1540  0.4130 -0.2908
    1W        W24967  23.320  26.221   2.665  0.1809  0.1389 -0.1268
    1W        W24968  18.637  25.988   9.585 -0.2807  0.0220 -0.1394
    1W        W24969  15.816  21.651   0.384  0.0966 -0.2446 -0.1687
    1W        W24970  12.407   8.874   0.136  0.2299  0.1259  0.0196
    1W        W24971   1.715  27.437   9.826 -0.0255 -0.1217 -0.2676
    1W        W24972   6.323  28.189   0.796 -0.1466  0.0296 -0.0248
    1W        W24973  22.924   2.845   6.987  0.0467 -0.2181  0.0965
    1W        W24974  17.878  22.994   7.718  0.0998 -0.0650 -0.0538
    1W        W24975  15.929   3.174   0.054 -0.3172  0.1196 -0.2962
    1W        W24976  27.754  16.695   0.449  0.1561 -0.3243  0.0900
    1W        W24977   7.225  12.171   2.272  0.6527 -0.2108  0.4089
    1W        W24978   7.459  14.224   0.710  0.0932 -0.2817 -0.1918
    1W        W24979   1.523  18.665   7.323  0.0988 -0.1478  0.0664
    1W        W24980  21.065  15.887   9.658  0.1469 -0.1436  0.0694
    1W        W24981  26.225  10.993   9.144  0.0020 -0.0084 -0.0280
    1W        W24982  22.755  20.500   0.753 -0.1377  0.0248 -0.0841
    1W        W24983  23.534   1.123   7.339 -0.1869 -0.0317 -0.1253
    1W        W24984   6.258  25.846   7.945  0.0705 -0.3098  0.1755
    1W        W24985  13.200   2.149   2.799 -0.1761  0.0944  0.3680
    1W        W24986  20.205  15.015   1.064 -0.1695 -0.3659  0.0936
    1W        W24987  27.317  20.279   0.371  0.0558  0.1123 -0.1225
    1W        W24988  26.619  18.677   7.533  0.2455  0.0595 -0.1432
    1W        W24989   6.538  15.500   6.858  0.1674  0.4601  0.2141
    1W        W24990   7.757   7.164   0.313  0.0224  0.0058 -0.3797
    1W        W24991  11.856   6.264   9.547  0.2210  0.0314  0.0999
    1W        W24992  23.399   4.297   2.037 -0.2436  0.2063 -0.1398
    1W        W24993  14.222  22.449   1.888 -0.0993  0.0215 -0.2637
    1W        W24994   8.178  21.151   8.840  0.3138 -0.2186  0.1146
    1W        W24995  11.054   7.831   9.821 -0.1638  0.2194 -0.0843
    1W        W24996   8.982  27.204   2.018  0.0278 -0.3341 -0.0967
    1W        W24997  11.780  20.941   2.077  0.0698  0.1698  0.2327
    1W        W24998  28.504   3.033   9.640 -0.2191  0.0309  0.0355
    1W        W24999   6.078   2.239   9.011 -0.1184 -0.0146  0.0657
    1W        W25000  13.517   1.029   8.954 -0.1016  0.0503  0.1702
    1W        W25001   1.775  21.464   8.934  0.2203  0.0863 -0.1461
    1W        W25002  19.564  26.983   8.599  0.0337 -0.0717  0.0996
    1W        W25003  10.820  11.315   7.547 -0.2846 -0.1468 -0.0322
    1W        W25004  17.018  22.519   9.664  0.1531  0.3514  0.1662
    1W        W25005  16.196  21.244   0.147  0.0054 -0.5449 -0.1419
    1W        W25006  19.337   2.914   9.074 -0.1149  0.3951  0.4812
    1W        W25007   3.099  21.661   7.974 -0.3236  0.0496 -0.2500
    1W        W25008   5.308  28.709   8.821  0.1425 -0.1262 -0.4864
    1W        W25009  22.744  11.841   8.583 -0.0998 -0.2490 -0.2460
    1W        W25010   3.576  11.002   7.779 -0.0937 -0.0292 -0.0633
    1W        W25011  18.305  27.137   8.527  0.1311 -0.4110 -0.0764
    1W        W25012  26.888  27.893   7.847  0.0032  0.2907 -0.0123
    1W        W25013  19.449   8.590   2.869 -0.1470  0.4487  0.3559
    1W        W25014   7.850  23.437   8.083 -0.1116 -0.2643 -0.0876
    1W        W25015   0.693  15.465   6.281  0.0356  0.1362 -0.2892
    1W        W25016   1.706  26.169   3.069  0.0111  0.2597 -0.0017
    1W        W25017   3.924  19.213   1.277 -0.1112  0.1821 -0.2724
    1W        W25018  13.714  16.598   8.223 -0.2907 -0.1420 -0.2551
    1W        W25019   7.867   0.743   3.836 -0.1070 -0.1001  0.2146
    1W        W25020  19.510   7.187   7.727 -0.0127 -0.1256  0.0397
    1W        W25021  27.275   6.962   9.892 -0.1951 -0.5337  0.1146
    1W        W25022  26.088  24.831   7.882 -0.1844  0.1936  0.0383
    1W        W25023  12.515  12.691   2.296  0.0585 -0.2009 -0.1565
    1W        W25024   7.543  17.317   6.780  0.0075  0.1361  0.2622
    1W        W25025   7.863  14.200   9.416  0.5943 -0.0686 -0.0152
    1W        W25026  26.078  22.172   8.861 -0.2126  0.2996  0.0651
    1W        W25027   6.953  25.697   8.406  0.1708 -0.2221 -0.0942
    1W        W25028  26.209  17.191   2.728 -0.1864  0.0715  0.3147
    1W        W25029  16.069   6.273   2.935  0.1691  0.1034 -0.0086
    1W        W25030   6.429   3.406   2.319  0.0239 -0.5269  0.1917
    1W        W25031  26.483   3.548   9.835 -0.1815 -0.5084 -0.1288
    1W        W25032   7.313   1.487   8.689 -0.1461 -0.1070  0.0692
    1W        W25033  11.091  13.435   0.637  0.1966 -0.1787 -0.1832
    1W        W25034  20.233   9.048   2.915 -0.1137 -0.1438 -0.2001
    1W        W25035   6.157  16.337   2.511  0.0033  0.1398  0.0577
    1W        W25036   8.637   0.997   1.741  0.1906  0.0307  0.2727
    1W        W25037  15.111  26.609   7.374 -0.2952 -0.0362  0.0690
    1W        W25038  12.012  12.808   9.739 -0.3335  0.0253 -0.0375
    1W        W25039  24.321  26.294   7.487  0.2923 -0.0089 -0.0137
    1W        W25040  23.235  13.012   7.218  0.0871  0.1161  0.2182
    1W        W25041  13.625   7.973   2.984 -0.2016  0.2420 -0.0461
    1W        W25042  13.675   6.202   2.313  0.1185  0.1484 -0.2183
    1W        W25043  14.362  14.342   7.724  0.1196  0.0937  0.1423
    1W        W25044  24.419  11.646   0.297  0.1411  0.2493  0.1525
    1W        W25045   2.737   5.107   0.825  0.2334  0.1520  0.1736
    1W        W25046  24.411  26.802   9.522  0.0803 -0.0619 -0.3565
    1W        W25047  28.065  27.777   9.878 -0.0222  0.0062  0.2972
    1W        W25048   5.213  13.437   8.628  0.0732  0.1239  0.1732
    1W        W25049  26.623   4.121   9.818 -0.1735 -0.0145 -0.2251
    1W        W25050  14.281  23.962   8.984 -0.1178  0.0929  0.0187
    1W        W25051  19.243  27.720   0.280  0.4177  0.4860  0.1053
    1W        W25052   7.520   6.045   2.436 -0.1578  0.3802  0.3512
    1W        W25053  28.649   1.820   6.146 -0.0416 -0.0272  0.2603
    1W        W25054   5.139  12.466   8.175 -0.3047  0.2177  0.1824
    1W        W25055   2.208  11.745   7.658 -0.0871  0.2348 -0.0752
    1W        W25056  12.656  19.180   7.808 -0.1222 -0.1234  0.1858
    1W        W25057   4.130   7.293   9.036  0.1309  0.0932  0.2384
    1W        W25058  23.335   1.090   9.132  0.0679 -0.0367 -0.0216
    1W        W25059  24.288   2.716   7.207 -0.3290  0.1320 -0.0347
    1W        W25060   2.966  25.016   6.461 -0.2296  0.1655  0.0628
    1W        W25061  12.192   9.871   8.167  0.2815  0.1476 -0.0870
    1W        W25062  28.534  20.314   8.138 -0.2390 -0.3754  0.3060
    1W        W25063   3.465  21.713   2.213  0.0460  0.4821 -0.1119
    1W        W25064  16.118  18.123   9.026  0.0349 -0.0547  0.0961
    1W        W25065   9.198  24.305   7.377  0.2595  0.1362 -0.1324
    1W        W25066  23.695   9.724   0.795 -0.0957  0.5224 -0.0566
    1W        W25067   1.967  16.399   6.505  0.0505  0.1246 -0.1865
    1W        W25068   1.479   8.937   9.943  0.0933 -0.1554 -0.0159
    1W        W25069  26.170  20.674   0.177 -0.2887 -0.0225 -0.3737
    1W        W25070  17.277  15.916   7.982  0.2691  0.0659  0.0654
    1W        W25071  13.121  21.499   2.530 -0.0630 -0.1255  0.0824
    1W        W25072  27.621   6.124   2.125 -0.0064 -0.1725  0.0265
    1W        W25073  19.264  11.255   0.270 -0.0450 -0.0803 -0.2599
    1W        W25074  27.391  17.734   2.435 -0.0760 -0.2902 -0.1943
    1W        W25075   4.038  23.390   1.668  0.2787 -0.3280  0.0818
    1W        W25076  14.407  17.613   8.826 -0.0192 -0.0294  0.1100
    1W        W25077  16.110   8.431   0.668 -0.0754 -0.0058 -0.1863
    1W        W25078  11.719  20.578   9.026 -0.3567  0.2086 -0.3068
    1W        W25079  28.036  18.492   7.490  0.5478 -0.1378  0.0992
    1W        W25080   6.399  12.042   8.629 -0.2002 -0.3791 -0.0149
    1W        W25081  24.952  28.532   0.858 -0.1586 -0.0328 -0.0522
    1W        W25082   9.391  19.996   2.779  0.0251 -0.1666  0.2318
    1W        W25083  11.877   4.170   7.885  0.1548  0.0845  0.2342
    1W        W25084   9.765  26.121   1.417 -0.0852  0.3677  0.1046
    1W        W25085  10.296  12.533   1.055  0.0505 -0.1288  0.0633
    1W        W25086  27.140  28.709   7.571  0.2786 -0.1278  0.0753
    1W        W25087   0.753   2.392   0.000  0.0799  0.1464 -0.3382
    1W        W25088  10.463   4.507   1.039  0.0233  0.1943  0.0956
    1W        W25089  19.752  19.997   1.648 -0.0540  0.2365  0.0459
    1W        W25090  27.055  22.123   1.271 -0.1137 -0.0431 -0.2582
    1W        W25091  19.792   6.657   6.820 -0.0929  0.2653  0.0627
    1W        W25092  20.653   6.554   2.318 -0.1032 -0.0150  0.0275
    1W        W25093   4.061  24.981   9.659 -0.1120  0.3496  0.4324
    1W        W25094   2.919   0.196   0.081  0.2315  0.0674 -0.5419
    1W        W25095  20.346   9.066   9.118 -0.1464  0.0526 -0.2927
    1W        W25096  24.739  12.357   6.756  0.1904 -0.2661 -0.2006
    1W        W25097   1.079  28.329   0.630  0.0718  0.0070  0.2878
    1W        W25098  15.550   2.721   8.306  0.1082 -0.0344  0.4108
    1W        W25099  17.483   7.216   4.153 -0.1348 -0.0264 -0.0160
    1W        W25100  25.886  22.654   9.768 -0.0710  0.0974  0.0496
    1W        W25101   7.990   9.094   0.234 -0.1639  0.0650  0.0188
    1W        W25102  16.105  10.257   9.722  0.1438 -0.1455  0.2589
    1W        W25103   4.738   6.790   1.193  0.1167  0.4415 -0.1508
    1W        W25104  15.853  10.541   2.209  0.1402  0.0033 -0.0451
    1W        W25105  15.373  23.717   8.274 -0.2723 -0.1897 -0.2373
    1W        W25106  27.737  24.163   0.413  0.0904 -0.0640  0.1812
    1W        W25107  12.762  28.315   3.288 -0.2699 -0.1500  0.0650
    1W        W25108   7.640   9.439   7.025 -0.0804  0.1982  0.1790
    1W        W25109   1.801  15.243   7.030 -0.1270  0.4580  0.1317
    1W        W25110   3.559  10.532   7.519  0.1922  0.1172  0.0849
    1W        W25111  15.279  21.078   3.035 -0.1039 -0.1710 -0.0876
    1W        W25112  14.861  24.733   7.709 -0.1355 -0.0190  0.0670
    1W        W25113  27.280   9.003   9.001  0.2331  0.0386 -0.0432
    1W        W25114  17.709  12.391   2.058 -0.2892  0.1197 -0.3192
    1W        W25115  23.415   7.872   8.685 -0.0867 -0.0166  0.1583
    1W        W25116   3.242   4.496   8.177 -0.0150  0.0173  0.0544
    1W        W25117  20.634   9.271   9.468  0.1200 -0.0642  0.0991
    1W        W25118  15.235   0.728   2.461  0.2981 -0.0910 -0.2558
    1W        W25119  28.426  15.171   6.133 -0.1133  0.1779 -0.4702
    1W        W25120   2.522  28.505   7.551  0.2075  0.1388 -0.1145
    1W        W25121   1.750  17.775   7.275 -0.2781  0.2690  0.1475
    1W        W25122   2.232  21.499   0.780 -0.0414 -0.2550 -0.0079
    1W        W25123  20.753  27.461   0.414  0.2207 -0.0850  0.1432
    1W        W25124  28.574  28.547   0.337  0.1570 -0.0559 -0.0433
    1W        W25125   6.015   9.367   8.489  0.0586  0.1900  0.1684
    1W        W25126   8.715  16.543   1.829 -0.2203 -0.0431  0.0683
    1W        W25127  16.366   1.848   0.097  0.0038 -0.0778 -0.0173
    1W        W25128  15.435  10.068   1.400 -0.2162  0.0685 -0.0224
    1W        W25129   7.071   6.014   2.701  0.0965  0.0883  0.1162
    1W        W25130  10.496   0.955   1.851 -0.0922 -0.2434  0.2937
    1W        W25131   0.977  23.525   2.145  0.0880 -0.1590  0.3175
    1W        W25132   0.353  15.218   8.860  0.0738 -0.2926 -0.3742
    1W        W25133  14.164  26.780   3.365  0.2069 -0.0842  0.0861
    1W        W25134  20.727  13.348   9.505  0.0308  0.1233  0.0486
    1W        W25135   2.059   2.658   6.588 -0.1996 -0.2799  0.0526
    1W        W25136   3.342  26.955   8.285  0.2122 -0.0801 -0.1952
    1W        W25137  23.501  13.620   9.295 -0.0991 -0.1958  0.0438
    1W        W25138   5.000  20.259   8.547 -0.0323 -0.0251 -0.1059
    1W        W25139   2.638   4.187   7.678  0.0735 -0.4950 -0.2525
    1W        W25140   1.599  21.705   7.922 -0.1255 -0.5067  0.0635
    1W        W25141  23.372   6.393   2.276  0.0139 -0.2352  0.0695
    1W        W25142   7.523  22.422   9.169 -0.1709  0.1688  0.0343
    1W        W25143   0.698   2.408   7.030  0.0147 -0.0864  0.1550
    1W        W25144  17.760  20.419   9.053  0.1023 -0.1296  0.1720
    1W        W25145  27.990  19.231   9.656  0.0801  0.0704  0.1042
    1W        W25146  22.289  21.596   8.140 -0.3599  0.2557  0.1755
    1W        W25147  27.199  20.740   8.091  0.2459 -0.1260  0.1181
    1W        W25148   3.937  16.247   2.467 -0.0882 -0.2327  0.1087
    1W        W25149   5.216   4.526   9.386 -0.1107  0.1410  0.2853
    1W        W25150  27.009   0.627   0.472  0.0539 -0.2622 -0.0471
    1W        W25151  13.238  23.142   2.286  0.0860 -0.1823 -0.1021
    1W        W25152  28.333  18.730   9.720  0.0818  0.1454  0.0936
    1W        W25153  21.421  14.445   2.000 -0.0945 -0.1945  0.0075
    1W        W25154  14.050  23.684   8.631 -0.0081 -0.1837 -0.0551
    1W        W25155  28.116  20.291   9.817 -0.0424  0.3279 -0.1485
    1W        W25156  17.131   0.179   8.989 -0.0591 -0.0690  0.1582
    1W        W25157   7.013  21.388   1.848 -0.0192 -0.0931 -0.1217
    1W        W25158  18.412  16.745   0.194 -0.1573 -0.1498  0.1867
    1W        W25159   5.077  15.022   1.407  0.0107  0.1313 -0.2159
    1W        W25160   5.745  28.272   2.511  0.1102 -0.1186  0.0644
    1W        W25161  10.789   3.176   4.306 -0.0526 -0.0526 -0.0161
    1W        W25162   4.695  17.228   7.508  0.0052 -0.0189  0.1099
    1W        W25163   8.229   7.523   9.650  0.0774 -0.0865 -0.2230
    1W        W25164  25.875  19.240   1.555  0.0648  0.2716 -0.0546
    1W        W25165   5.773  17.082   1.895 -0.1387 -0.0681  0.2840
    1W        W25166   3.185  11.414   1.007 -0.1965 -0.0160 -0.3506
    1W        W25167   6.502   6.737   1.608 -0.1426  0.0847 -0.0613
    1W        W25168  17.954   5.173   0.369  0.0318  0.1119  0.1050
    1W        W25169  24.809   8.712   0.312  0.1627 -0.1305 -0.0880
    1W        W25170  16.311  20.198   1.603 -0.0821  0.0044 -0.2038
    1W        W25171   0.002   3.958   9.770  0.0878 -0.0955  0.2315
    1W        W25172  10.754  19.309   7.845 -0.1332 -0.0130  0.1950
    1W        W25173  17.412   6.823   7.154 -0.1756  0.5174  0.0781
    1W        W25174   5.396   5.908   1.036 -0.0069  0.0623  0.2090
    1W        W25175  23.996  17.397   8.032 -0.2159 -0.0305  0.0636
    1W        W25176  15.624  18.146   8.211  0.1109 -0.1364 -0.3231
    1W        W25177   1.542  13.650   1.887 -0.1995 -0.2456 -0.0607
    1W        W25178  11.521   8.183   2.247  0.0390 -0.0711 -0.3116
    1W        W25179  11.113   0.270   2.392  0.0195  0.0031 -0.2026
    1W        W25180   8.357   5.359   8.940 -0.0493  0.3327 -0.1347
    1W        W25181  23.271   7.172   9.108  0.0739 -0.1778  0.1359
    1W        W25182  21.128  11.634   9.813 -0.2077 -0.2775  0.1054
    1W        W25183  25.814  18.509   7.024 -0.1023 -0.2490 -0.2310
    1W        W25184   6.175   9.972   2.044 -0.0697 -0.0103  0.0789
    1W        W25185   6.872  24.122   9.525 -0.3989 -0.0979 -0.0097
    1W        W25186  12.943  13.656   8.804 -0.1900 -0.0046 -0.1091
    1W        W25187  10.789  27.689   7.849  0.0392  0.3533 -0.2399
    1W        W25188   8.208  18.082   9.230  0.2718  0.0945 -0.0088
    1W        W25189  11.470  14.557   9.370 -0.0608  0.0420 -0.3028
    1W        W25190  22.288  24.630   7.429  0.0300 -0.2017  0.1829
    1W        W25191   4.414  13.473   7.995  0.0867  0.0738  0.1260
    1W        W25192  10.922  27.085   1.915  0.1305 -0.0364 -0.1100
    1W        W25193   1.199  27.532   6.330  0.2685 -0.1074  0.3951
    1W        W25194  14.519   4.688   8.158 -0.3469  0.1584 -0.1781
    1W        W25195  26.595   1.161   1.453 -0.3067  0.4226 -0.2465
    1W        W25196  14.690   5.815   1.621  0.1828  0.0712 -0.1578
    1W        W25197  11.686  23.898   3.508 -0.2017  0.0952  0.0051
    1W        W25198  20.055  27.413   7.715 -0.3415  0.0336  0.1637
    1W        W25199  18.743  23.980   2.914  0.2308 -0.0372 -0.4316
    1W        W25200   5.575   4.696   2.735 -0.2190 -0.1425  0.0484
    1W        W25201   8.932   2.471   1.418 -0.2054  0.0386  0.2456
    1W        W25202   8.698  26.017   9.479 -0.1008  0.2619  0.0751
    1W        W25203   8.066   6.842   3.202  0.2499 -0.1179  0.2902
    1W        W25204  24.689  19.829   8.256  0.1656  0.0542  0.2611
    1W        W25205  23.569   2.713   3.306  0.0146  0.0248  0.1892
    1W        W25206  14.899   4.712   0.965  0.0562  0.0816  0.0407
    1W        W25207  22.863   3.203   0.294  0.0157  0.2230 -0.2986
    1W        W25208  24.852   5.879   7.606  0.1206  0.0409  0.0399
    1W        W25209  23.356  24.234   8.015  0.5096  0.0252 -0.0352
    1W        W25210  12.342  27.906   2.584  0.0931 -0.3440  0.1110
    1W        W25211  12.595   1.384   4.286 -0.0483  0.2592 -0.0711
    1W        W25212  22.304   6.279   0.182 -0.1322  0.0401 -0.0584
    1W        W25213  27.658  22.207   8.813  0.0627  0.0474  0.1770
    1W        W25214  22.033  22.529   0.538 -0.2108 -0.2439 -0.1733
    1W        W25215  26.407  10.697   6.790  0.1597 -0.1448  0.1304
    1W        W25216  28.039  21.234   1.536 -0.0338 -0.1896  0.2401
    1W        W25217   3.643  23.885   7.281  0.0487 -0.1289  0.1551
    1W        W25218  13.834   7.537   3.178  0.0252 -0.1763  0.2224
    1W        W25219   1.508  24.219   8.216 -0.3209 -0.1791 -0.0780
    1W        W25220   6.549   8.615   9.848  0.1631 -0.0910  0.0990
    1W        W25221  25.822  15.270   1.673  0.0810  0.0496  0.0724
    1W        W25222  20.457  21.476   0.575 -0.0427  0.0330  0.1013
    1W        W25223   4.762  22.617   2.390 -0.0160 -0.0176 -0.0635
    1W        W25224  11.540  17.831   6.978  0.0602  0.0815 -0.0454
    1W        W25225   3.016   8.841   9.477 -0.3379  0.0590 -0.3192
    1W        W25226  11.088   6.342   8.924 -0.0543  0.4857 -0.3610
    1W        W25227   7.468  22.469   9.683  0.1010  0.0926 -0.2645
    1W        W25228  17.547  17.842   2.301 -0.2217  0.0568  0.0433
    1W        W25229   4.029  10.621   2.479  0.3835  0.1035  0.0767
    1W        W25230   4.517  17.669   6.810 -0.0175 -0.0547 -0.0870
    1W        W25231   5.395  26.379   7.846 -0.3573  0.0587  0.0592
    1W        W25232  20.126  16.786   0.100  0.1043  0.0730 -0.3379
    1W        W25233  18.398  12.292   0.663  0.0305 -0.0453 -0.0560
    1W        W25234   1.976  20.108   9.407  0.2205 -0.0808  0.0414
    1W        W25235  11.897  16.164   9.597  0.1722 -0.3147  0.0283
    1W        W25236  18.967  19.491   9.474  0.0899  0.1336  0.0199
    1W        W25237   8.591  23.013   2.011  0.1700 -0.0525 -0.1398
    1W        W25238  17.384   0.351   0.841 -0.0050  0.2574  0.0202
    1W        W25239  27.732  14.810   0.404  0.2726  0.0566  0.0217
    1W        W25240   3.322  18.052   7.572 -0.1844 -0.1428 -0.0675
    1W        W25241  20.766  19.790   2.721  0.0784  0.1103  0.0126
    1W        W25242   2.141  18.797   8.057 -0.0909 -0.1251  0.3307
    1W        W25243  28.681   2.976   1.522 -0.0087  0.0753 -0.0253
    1W        W25244  20.418  24.900   9.524 -0.0239  0.0237 -0.2482
    1W        W25245  25.312   9.228   8.963 -0.2102 -0.0412 -0.3883
    1W        W25246  11.628   3.324   3.829 -0.2543 -0.0981 -0.1942
    1W        W25247  25.902   5.361   8.644 -0.0617 -0.1306 -0.1514
    1W        W25248  12.932  11.174   9.829 -0.3968 -0.0424  0.1510
    1W        W25249  14.853  21.169   8.226  0.0278 -0.0566  0.2686
    1W        W25250  28.665  20.052   6.701  0.0490 -0.4561 -0.2711
    1W        W25251  13.103   3.078   9.644 -0.0339  0.1409 -0.2952
    1W        W25252  18.012   1.580   1.295  0.3509  0.0834 -0.1140
    1W        W25253  18.018  15.775   1.151 -0.1594 -0.4835 -0.3722
    1W        W25254   8.376  15.033   1.330  0.0219 -0.2854  0.0190
    1W        W25255  17.089  23.462   7.862 -0.1680 -0.0265  0.0725
    1W        W25256  11.246  15.427   7.010  0.1054  0.0565 -0.2264
    1W        W25257   7.066  21.769   7.104 -0.2206 -0.0929 -0.0902
    1W        W25258   9.491  16.824   1.540  0.0057  0.2799  0.1780
    1W        W25259  15.505   5.622   1.757 -0.1716  0.2921 -0.0082
    1W        W25260  17.670  12.415   8.108 -0.2145 -0.2277 -0.1253
    1W        W25261  12.508   2.680   3.062  0.4448 -0.4397 -0.2622
    1W        W25262  18.211  26.019   2.497 -0.1809  0.2179  0.2129
    1W        W25263  14.187  13.671   8.761 -0.1996 -0.0147  0.1597
    1W        W25264   7.688   7.074   7.869  0.2787  0.1595 -0.0249
    1W        W25265   8.630   5.693   7.750 -0.3922 -0.0451 -0.1051
    1W        W25266   7.512   9.363   1.812  0.1036 -0.0867 -0.1480
    1W        W25267   1.699  24.719   6.531  0.1906  0.4837  0.0223
    1W        W25268  19.761  23.350   2.265  0.0624 -0.2432  0.1141
    1W        W25269  23.787  18.686   7.577 -0.0006 -0.2148 -0.4539
    1W        W25270  25.901   9.695   6.217  0.1878  0.1526 -0.0899
    1W        W25271  14.494  25.333   3.101  0.0798 -0.1095  0.1560
    1W        W25272  20.743  16.329   2.522  0.0258 -0.0227  0.1216
    1W        W25273   3.791  13.681   6.268 -0.0710 -0.1792  0.0939
    1W        W25274  25.526  20.561   7.261 -0.0142  0.0146 -0.0705
    1W        W25275  11.166   3.030   0.137  0.0234  0.2227 -0.2546
    1W        W25276  20.799  16.101   0.085 -0.3491 -0.2631  0.0234
    1W        W25277  16.977   3.850   1.200 -0.1619  0.0051 -0.1889
    1W        W25278  11.895   2.375   7.660 -0.0095  0.4199 -0.0211
    1W        W25279  25.457  21.162   3.379  0.2369 -0.0919  0.0671
    1W        W25280  28.591   4.520   7.272  0.1554 -0.2130 -0.0814
    1W        W25281  13.524  25.889   2.498 -0.0576  0.3042 -0.0098
    1W        W25282  11.165   3.194   2.220  0.0083  0.2078  0.0280
    1W        W25283   8.815   6.781   9.505 -0.1235  0.0548 -0.2555
    1W        W25284  16.214  21.795   8.694  0.0042  0.1902  0.1694
    1W        W25285  16.030  16.146   1.657  0.4157 -0.1498  0.2338
    1W        W25286   6.717   1.140   2.116  0.1066 -0.1234  0.1671
    1W        W25287  17.027   0.523   2.341  0.0318  0.0823  0.2980
    1W        W25288  25.079   2.238   6.684  0.2450 -0.1227 -0.1863
    1W        W25289  16.678  20.689   7.387  0.4073  0.2870  0.1512
    1W        W25290  23.249   0.732   7.338  0.0027 -0.0594 -0.0733
    1W        W25291  15.346  26.302   1.028 -0.1438 -0.2416  0.1200
    1W        W25292   0.726   0.601   7.279  0.0077 -0.0788  0.0786
    1W        W25293  24.158   5.790   6.699 -0.1452 -0.2170  0.0452
    1W        W25294  12.226  11.537   2.021 -0.3092  0.0183  0.0244
    1W        W25295  28.444  20.002   8.966 -0.1200 -0.1805  0.0137
    1W        W25296  19.613  28.312   0.520 -0.0704 -0.2213 -0.3579
    1W        W25297   9.001  25.949   1.732 -0.0329  0.2352 -0.3152
    1W        W25298  10.384  12.839   0.538 -0.5453 -0.4269  0.2604
    1W        W25299  28.539   3.349   9.102  0.0456  0.1368  0.0561
    1W        W25300   9.392  15.685   2.582  0.0703 -0.1539  0.1618
    1W        W25301  11.676  17.456   0.876  0.3182 -0.0257  0.1733
    1W        W25302  26.399  24.231   0.454 -0.0152 -0.1966  0.1661
    1W        W25303  26.428   2.290   7.340 -0.1435 -0.2448 -0.3417
    1W        W25304   1.197  15.879   7.053 -0.0826  0.0921 -0.1008
    1W        W25305  28.159   7.838   9.438  0.0641  0.0965  0.1750
    1W        W25306  23.651   2.877   8.040  0.1413 -0.1052  0.0110
    1W        W25307   9.404  16.673   7.140 -0.1875 -0.0914  0.0474
    1W        W25308  20.479  19.171   3.750  0.1924  0.4405 -0.2473
    1W        W25309  13.651   3.380   1.509 -0.0454 -0.0140  0.0602
    1W        W25310  10.122  18.471   1.865 -0.2776  0.0843  0.0643
    1W        W25311  26.365  24.181   2.339 -0.1413  0.1723  0.3781
    1W        W25312  27.112  15.509   0.234 -0.2095  0.3885  0.0248
    1W        W25313  22.385  17.768   1.137  0.0444  0.0051  0.0835
    1W        W25314  20.769  26.153   8.174  0.1874 -0.0679  0.3255
    1W        W25315  11.621  11.530   0.369 -0.1835  0.2776 -0.1054
    1W        W25316   2.167  15.300   0.865 -0.1695 -0.1892 -0.0816
    1W        W25317  25.426  15.062   0.265  0.2023  0.1665  0.0117
    1W        W25318   2.662   8.343   7.876 -0.3632  0.0375 -0.1333
    1W        W25319  28.137  11.272   1.952  0.2705  0.1185 -0.3056
    1W        W25320  12.123  28.066   1.449 -0.0583  0.4316 -0.3583
    1W        W25321   6.131   1.312   1.488 -0.0340  0.0127 -0.1534
    1W        W25322  11.753  15.930   6.992  0.0388 -0.0907 -0.0062
    1W        W25323   2.191  16.074   7.700  0.0724 -0.0572 -0.2346
    1W        W25324  21.513  24.236   2.865  0.3287  0.0645  0.1180
    1W        W25325   6.208  28.278   2.414 -0.0953 -0.1375  0.3122
    1W        W25326  24.447  22.986   9.858  0.1020  0.1357  0.1458
    1W        W25327   5.421   7.559   9.130  0.0321 -0.1289  0.1348
    1W        W25328  17.354  15.521   9.934  0.0607 -0.2064 -0.2973
    1W        W25329   1.278  26.973   8.261 -0.1915  0.1436  0.0730
    1W        W25330  11.494  20.206   8.765 -0.2802  0.0109  0.1185
    1W        W25331  27.341  25.024   7.314 -0.0652 -0.0435 -0.1478
    1W        W25332  18.351  25.616   2.151  0.5223 -0.2003  0.1948
    1W        W25333  11.564  23.001   7.667  0.0109 -0.1081  0.0158
    1W        W25334  26.309   1.916   7.722 -0.0877 -0.0388 -0.0112
    1W        W25335  21.219  25.382   3.472 -0.1672  0.1179  0.2501
    1W        W25336  21.976   2.798   6.992  0.1008  0.1862 -0.1694
    1W        W25337   6.747  10.148   1.539 -0.1343 -0.2019  0.1251
    1W        W25338  20.095   1.271   8.741  0.1506  0.0816 -0.1625
    1W        W25339  15.250   6.541   0.137 -0.2076  0.1651  0.0682
    1W        W25340   3.155  25.399   7.656 -0.0198  0.3722 -0.3784
    1W        W25341  24.731  26.520   1.916  0.0417 -0.2886 -0.2167
    1W        W25342  10.132  16.848   0.856 -0.0504 -0.2424  0.1830
    1W        W25343  15.808  26.965   9.935  0.1002  0.1527  0.0765
    1W        W25344  14.795  15.826   7.344  0.1010 -0.1543  0.0852
    1W        W25345   9.486  23.850   9.960  0.1556 -0.1490  0.1216
    1W        W25346   3.417   6.884   7.955 -0.0715 -0.0984 -0.1531
    1W        W25347  10.013   3.307   2.896 -0.1252 -0.1671 -0.0827
    1W        W25348  23.715   4.948   7.684  0.2515  0.0501  0.2551
    1W        W25349   4.972  26.774   8.500  0.0268 -0.1388  0.0278
    1W        W25350   6.076   2.866   0.912  0.2434 -0.0821 -0.0580
    1W        W25351  22.848  10.921   8.751  0.0036  0.2635  0.0424
    1W        W25352  21.192  14.840   7.347  0.0390  0.2683  0.2802
    1W        W25353   8.146  18.057   2.212  0.1854  0.1264  0.1409
    1W        W25354  10.836  17.532   7.557  0.1375  0.2293 -0.1132
    1W        W25355  26.972   9.691   1.655 -0.1821  0.2237 -0.0699
    1W        W25356  25.331  11.862   7.668 -0.1962  0.0217 -0.3604
    1W        W25357   3.126   8.225   1.870  0.0587 -0.1812 -0.1930
    1W        W25358   7.767  26.115   7.715  0.0421  0.2067  0.0742
    1W        W25359  28.502  17.577   7.142 -0.1135  0.0770  0.1008
    1W        W25360  11.872  26.974   0.404 -0.1732 -0.1420  0.2719
    1W        W25361  25.842  26.136   8.709  0.2382  0.1754  0.1014
    1W        W25362  23.413  19.323   0.471 -0.2298  0.0313 -0.1553
    1W        W25363  11.836  10.344   9.251  0.0432  0.1237  0.2320
    1W        W25364   7.993   5.342   8.449 -0.1736 -0.4858 -0.0809
    1W        W25365  16.088  24.170   9.437  0.0756  0.1363  0.0688
    1W        W25366  21.610  26.554   2.423 -0.0225  0.0527 -0.1844
    1W        W25367  28.004  27.503   0.863  0.0223 -0.0191 -0.0420
    1W        W25368  11.787  13.096   8.400 -0.0284  0.0080 -0.2729
    1W        W25369  13.527  12.994   1.394 -0.0398 -0.0227  0.1715
    1W        W25370  26.680  17.285   2.349  0.0179 -0.0866  0.0915
    1W        W25371   3.286  22.522   9.256  0.0551 -0.0525  0.2354
    1W        W25372  10.233  13.312   9.606  0.0331 -0.1838  0.2652
    1W        W25373  28.141  10.943   2.281  0.0138 -0.2866  0.0276
    1W        W25374  14.942   3.828   4.339 -0.0857 -0.2088 -0.1538
    1W        W25375  13.969  21.043   1.642 -0.0565  0.2227  0.1021
    1W        W25376  12.972  25.603   1.837  0.1110 -0.1133 -0.2648
    1W        W25377   9.933   0.418   2.808 -0.3915 -0.2447  0.1437
    1W        W25378  18.255   5.610   7.892 -0.2296 -0.0599 -0.1521
    1W        W25379   9.244  15.189   1.761  0.1108 -0.1292  0.0938
    1W        W25380  23.085  22.135   7.535  0.1350 -0.0374  0.1031
    1W        W25381  12.123   6.661   9.400 -0.0680 -0.1802  0.1334
    1W        W25382  24.663  14.742   9.883 -0.1314 -0.0502 -0.3683
    1W        W25383  25.951  20.669   0.798  0.0529 -0.0046 -0.0526
    1W        W25384  23.714   9.682   1.434 -0.1384 -0.2486  0.0906
    1W        W25385  24.155  26.758   0.547  0.4005  0.1848 -0.3508
    1W        W25386  22.268   1.825   1.556 -0.3115  0.2053 -0.0380
    1W        W25387  26.753   6.103   2.212 -0.0831 -0.2190  0.1647
    1W        W25388  10.923   7.421   2.756  0.2328 -0.0295 -0.2572
    1W        W25389   2.545  18.809   8.409 -0.0127  0.0608 -0.1571
    1W        W25390   5.267  21.534   0.650 -0.0857 -0.0934 -0.1851
    1W        W25391  25.308  22.198   8.275  0.0625 -0.0358 -0.0976
    1W        W25392  16.205   4.131   0.736 -0.2647 -0.0885 -0.0780
    1W        W25393   0.437  15.941   9.410  0.2458  0.2107 -0.0549
    1W        W25394   4.758  14.662   3.000 -0.0190 -0.1436 -0.1009
    1W        W25395  20.657  19.840   0.906 -0.2062 -0.1009 -0.1032
    1W        W25396  15.546   3.426   3.414  0.0406  0.0471  0.3397
    1W        W25397  16.179   1.910   2.627  0.2438 -0.4154 -0.2095
    1W        W25398  27.954   6.806   9.321 -0.0547  0.0842  0.0574
    1W        W25399  25.277  22.965   7.569  0.2988 -0.1209 -0.1426
    1W        W25400  16.731   3.939   9.188 -0.2641  0.0689  0.1245
    1W        W25401  23.892   5.770   2.430 -0.0866 -0.2217 -0.0200
    1W        W25402  10.961   3.984   6.816 -0.5188 -0.0830  0.0167
    1W        W25403  17.406  23.266   0.154  0.1066 -0.1257  0.0863
    1W        W25404   9.574  12.331   8.363 -0.1775  0.1070 -0.0679
    1W        W25405  14.639  27.966   0.968  0.2123  0.4778  0.0831
    1W        W25406   8.309  20.976   0.024 -0.0077  0.1690 -0.1046
    1W        W25407   4.919   0.929   3.390 -0.0380 -0.1355 -0.0385
    1W        W25408  18.950   4.059   2.680 -0.1818 -0.0635 -0.1777
    1W        W25409   6.567   8.475   7.978 -0.0528  0.0149 -0.1175
    1W        W25410   1.419   3.020   0.628  0.1521 -0.0469 -0.0146
    1W        W25411   1.048   6.553   0.384 -0.0754 -0.2695  0.3900
    1W        W25412  28.399  27.465   3.409  0.1583 -0.0887 -0.1464
    1W        W25413   6.527   7.951   6.641 -0.0244  0.0337 -0.0895
    1W        W25414  19.367  12.892   8.923 -0.1975  0.1272  0.0182
    1W        W25415  24.505   3.193   2.763  0.1811 -0.1109  0.4125
    1W        W25416   9.817   5.713   8.233 -0.2856  0.0020 -0.2238
    1W        W25417   0.077  27.076   1.131  0.0014 -0.0462 -0.0171
    1W        W25418  20.892  16.903   8.165 -0.0364  0.2008  0.0498
    1W        W25419  23.100   2.289   8.540  0.1090  0.2913  0.0154
    1W        W25420   3.767   8.277   9.026 -0.1869  0.3587  0.2055
    1W        W25421  21.333   3.199   7.682 -0.3891  0.0728 -0.1333
    1W        W25422   6.026  13.282   0.391  0.0631 -0.1759 -0.1851
    1W        W25423  10.358  22.865   0.707 -0.1177  0.1062  0.0679
    1W        W25424  25.232   7.060   0.014  0.3530  0.3111 -0.3905
    1W        W25425  19.061  22.424   2.069 -0.0472  0.0372  0.0376
    1W        W25426  18.149  10.116   0.564  0.0066 -0.0306 -0.1608
    1W        W25427   5.334   8.285   2.555  0.2791  0.0247  0.0261
    1W        W25428  11.535  19.492   1.429 -0.1222  0.0452 -0.1986
    1W        W25429  16.290   4.984   2.806  0.1643  0.0875 -0.2530
    1W        W25430  11.510  11.019   0.194 -0.1749  0.0509 -0.2226
    1W        W25431   8.538  13.377   0.256  0.2943 -0.1485  0.1439
    1W        W25432   1.348   3.094   1.092 -0.2643  0.0896  0.2458
    1W        W25433  25.035  26.067   0.668  0.1907 -0.2819  0.2233
    1W        W25434  14.643   8.805   7.860  0.0838  0.1123 -0.3278
    1W        W25435  12.837   8.020   2.867 -0.0120 -0.2037 -0.0238
    1W        W25436  16.911   1.838   7.626 -0.0794 -0.0274 -0.2396
    1W        W25437  12.342  18.647   0.173  0.1183 -0.0302  0.1149
    1W        W25438   9.230  11.219   9.789 -0.1027 -0.0944  0.0297
    1W        W25439   4.998  16.018   6.913  0.1097 -0.0622 -0.2891
    1W        W25440  12.561  26.597   3.080  0.0889 -0.0246 -0.0937
    1W        W25441  19.066  27.651   3.718  0.1770 -0.0568  0.3135
    1W        W25442   4.383  25.067   8.717 -0.2093  0.2506  0.1398
    1W        W25443  13.473   2.794   9.326  0.1742 -0.1416 -0.1074
    1W        W25444  26.398  17.898   7.549 -0.1161  0.0014 -0.0392
    1W        W25445  20.530  27.202   7.777  0.0999  0.3104 -0.1119
    1W        W25446   1.220   3.214   0.174 -0.2193  0.1198  0.0357
    1W        W25447  25.964   3.511   6.949 -0.0793 -0.0431 -0.0790
    1W        W25448  23.877   8.920   2.328  0.1779  0.2131 -0.2665
    1W        W25449  26.717   5.780   2.646 -0.0519  0.1160  0.0675
    1W        W25450  18.029  27.729   9.802 -0.0454 -0.0127 -0.2046
    1W        W25451  27.644  23.718   9.435 -0.0282 -0.2208  0.1114
    1W        W25452   7.960  26.221   0.995  0.1786  0.0116  0.0707
    1W        W25453   3.459   9.177   9.853  0.3080 -0.1309  0.1172
    1W        W25454  18.934   3.178   1.869  0.2087 -0.0814 -0.0169
    1W        W25455  14.981   9.831   0.281  0.1839 -0.0117 -0.0412
    1W        W25456  12.337  24.190   1.310 -0.1866 -0.0385  0.2139
    1W        W25457   3.172   9.728   7.544  0.0007  0.0152 -0.2161
    1W        W25458  23.033  13.258   0.218  0.0380 -0.1474  0.3318
    1W        W25459   9.335  14.399   3.035  0.1261 -0.2240 -0.1109
    1W        W25460  28.321   8.981   8.761  0.0166  0.0688  0.0082
    1W        W25461  26.786   5.169   0.888  0.1879  0.0619 -0.1518
    1W        W25462  23.198   9.808   6.470  0.1413  0.0636  0.1493
    1W        W25463  26.472   0.287   9.104  0.2587  0.3664 -0.1560
    1W        W25464  11.926  24.676   3.105 -0.2326  0.1706  0.1746
    1W        W25465  20.091  13.792   7.508  0.1114 -0.0415  0.2077
    1W        W25466  26.659  26.698   3.621  0.2986 -0.3229  0.1419
    1W        W25467  18.348   5.280   9.946 -0.2201 -0.0658 -0.0019
    1W        W25468  23.655  11.927   0.615  0.3612 -0.0031  0.0950
    1W        W25469  14.074  13.033   9.421 -0.2628  0.2002 -0.1742
    1W        W25470   9.577  18.756   3.005  0.1327  0.1183 -0.1397
    1W        W25471  12.904   3.924   1.164  0.3990  0.0292  0.1329
    1W        W25472  28.720  23.816   2.207 -0.1031  0.0616  0.0035
    1W        W25473  12.931  28.675   1.385 -0.0691 -0.0632 -0.0889
    1W        W25474   6.500  23.761   5.033 -0.0190 -0.2059  0.3715
    1W        W25475  28.608  22.717   9.672 -0.0266 -0.1634 -0.0887
    1W        W25476  23.979  11.783   1.577 -0.0027 -0.1446 -0.1348
    1W        W25477  16.979   7.614   2.959 -0.0855 -0.5859  0.0287
    1W        W25478  28.462  18.423   9.274  0.2476 -0.4257 -0.1540
    1W        W25479   7.738   3.308   7.738 -0.1961  0.1864  0.2031
    1W        W25480  19.998   3.618   9.158  0.1792  0.0325  0.3152
    1W        W25481  28.359  27.856   8.116  0.0570  0.3081  0.0740
    1W        W25482   9.833  27.860   8.111 -0.0647 -0.0413  0.2332
    1W        W25483   1.839  26.691   0.560  0.1004  0.0877 -0.0545
    1W        W25484  23.898  24.653   7.071 -0.0951 -0.1765  0.1208
    1W        W25485  21.750  25.551   7.727  0.1381 -0.2329 -0.1127
    1W        W25486   3.683  28.644   2.312 -0.2584 -0.1213  0.1690
    1W        W25487   1.246   8.225   1.657  0.0837 -0.1680 -0.1786
    1W        W25488  12.123  20.646   2.327  0.0835 -0.0153  0.2279
    1W        W25489  27.444   3.859   9.211  0.2485 -0.0388 -0.0044
    1W        W25490  16.817  15.151   2.066  0.0599  0.2502  0.3190
    1W        W25491   5.571  25.503   1.867 -0.0577 -0.1245  0.1933
    1W        W25492  10.407   1.592   3.434  0.1316 -0.1150 -0.1501
    1W        W25493  23.809   3.674   0.864 -0.1263 -0.1946  0.2372
    1W        W25494  12.067  12.895   0.390  0.3985  0.2340 -0.2411
    1W        W25495   1.284  12.403   0.946 -0.2249  0.3325 -0.0394
    1W        W25496  17.952  10.968   9.285  0.1163  0.0692  0.4685
    1W        W25497   6.574   0.534   0.191 -0.3575  0.1297 -0.0672
    1W        W25498   6.733  25.736   1.227  0.3633  0.0240  0.2631
    1W        W25499  10.912  21.197   0.679 -0.0648  0.0454 -0.0046
    1W        W25500  25.864  22.815   2.108  0.0619 -0.0197  0.1038
    1W        W25501  23.612  18.264   9.500 -0.0100  0.3111  0.0371
    1W        W25502   1.310   0.320   1.873  0.1157 -0.0382  0.1816
    1W        W25503  22.658  14.511   8.653  0.0956 -0.0869 -0.1378
    1W        W25504  15.119   3.228   7.708  0.0561  0.0136  0.0644
    1W        W25505   0.586  24.000   8.451  0.4272 -0.1028  0.0102
    1W        W25506   4.188  15.670   8.612 -0.2525 -0.1876 -0.0524
    1W        W25507  14.175   7.976   2.404 -0.1501 -0.3389 -0.0012
    1W        W25508  20.246   2.004   9.852 -0.1533  0.0506  0.3764
    1W        W25509  27.642  19.361   6.422  0.1243  0.0212 -0.1937
    1W        W25510  19.035  10.846   7.238  0.1019 -0.3050 -0.1513
    1W        W25511   5.164  24.787   8.759 -0.1383  0.1633  0.2274
    1W        W25512  26.671  26.648   8.829 -0.2249 -0.4158  0.0506
    1W        W25513  17.063  12.570   9.728 -0.0331  0.1960 -0.0577
    1W        W25514   0.207   7.640   8.744 -0.4110  0.0594 -0.1099
    1W        W25515   4.079   9.158   7.710 -0.0029 -0.5919 -0.2033
    1W        W25516  25.765  23.169   1.798 -0.1350  0.0510  0.0493
    1W        W25517  18.036  18.015   2.310 -0.1615 -0.1294 -0.0106
    1W        W25518  22.066   9.981   1.044  0.0496  0.1911  0.3337
    1W        W25519   7.592  22.003   1.431 -0.2564  0.0084 -0.2585
    1W        W25520  21.888  10.873   1.343 -0.0739 -0.1806  0.2410
    1W        W25521  21.208  26.095   6.349  0.3331  0.1050  0.0241
    1W        W25522  23.093  20.335   0.373  0.0885 -0.0870  0.1171
    1W        W25523   0.782   0.101   1.443  0.0874  0.0351  0.0834
    1W        W25524  11.563  18.809   1.784 -0.0484  0.1233 -0.1193
    1W        W25525  22.134   9.502   8.116  0.0126  0.0631 -0.0177
    1W        W25526  21.825  22.758   9.504  0.2269  0.3005 -0.0540
    1W        W25527  26.464  22.971   6.721  0.1082  0.0912 -0.2001
    1W        W25528   1.045   1.124   6.388 -0.1047  0.0982  0.2046
    1W        W25529  26.570   9.632   9.313  0.2159  0.1384 -0.0413
    1W        W25530   6.471  23.442   9.056  0.1700 -0.0552  0.1144
    1W        W25531  27.606   6.292   7.461  0.2193  0.1192  0.1090
    1W        W25532  15.175   6.527   1.242 -0.0277 -0.1975  0.0053
    1W        W25533  17.366  14.244   8.698 -0.3573  0.2512 -0.1957
    1W        W25534  18.038  12.927   9.795  0.3624 -0.1314  0.0460
    1W        W25535  20.679   4.231   2.512  0.1110 -0.2597  0.1189
    1W        W25536  18.845   3.268   9.718  0.0240  0.0744  0.1212
    1W        W25537  27.778   7.523   1.987  0.2198  0.3783  0.3088
    1W        W25538  25.962   1.978   2.308 -0.0299  0.1174 -0.3073
    1W        W25539   5.575   0.580   7.195  0.2997 -0.0306 -0.3113
    1W        W25540   9.988  27.941   9.283  0.3361 -0.1609 -0.0071
    1W        W25541  22.116   5.163   8.941  0.0012 -0.1869  0.2369
    1W        W25542  17.907   5.238   3.285 -0.1997  0.1170 -0.0044
    1W        W25543  19.623  26.097   6.893 -0.3740  0.0915  0.1042
    1W        W25544  16.705   1.014   7.476 -0.1272  0.0236 -0.1167
    1W        W25545   5.385  15.135   8.706  0.2164 -0.0871 -0.2536
    1W        W25546  13.837  23.294   2.007  0.1294 -0.0801  0.1344
    1W        W25547  22.493   2.787   0.330  0.0896  0.2321  0.2308
    1W        W25548   8.864   5.294   7.555  0.1423 -0.0242  0.0130
    1W        W25549   7.182   9.253   8.921  0.3045 -0.0625 -0.2272
    1W        W25550  14.069  19.000   8.088  0.1615  0.2214 -0.0138
    1W        W25551  20.933   4.200   7.591  0.2066 -0.1186  0.3451
    1W        W25552  10.698  11.742   7.878  0.0157  0.2354  0.0881
    1W        W25553  21.805  26.659   9.719 -0.2756  0.0629 -0.0619
    1W        W25554  27.647   7.122   9.573  0.0686 -0.2971  0.2332
    1W        W25555   5.558   1.225   8.491  0.2395  0.1664 -0.0496
    1W        W25556   8.491  12.206   8.696  0.0780 -0.2950 -0.1243
    1W        W25557   5.839  17.058   0.330  0.0684  0.0821  0.4750
    1W        W25558   4.894  22.543   9.153 -0.1203 -0.1386 -0.2218
    1W        W25559   1.743  20.976   8.178 -0.1519  0.0949 -0.2641
    1W        W25560  18.032   8.538   9.239 -0.3880  0.4414  0.2276
    1W        W25561  27.244  14.361   9.793 -0.1228  0.0538 -0.1121
    1W        W25562   8.159   1.704   0.066  0.1103 -0.2557 -0.0168
    1W        W25563  14.232  25.623   7.308 -0.2327  0.2021 -0.1896
    1W        W25564  10.268   3.137   4.099  0.1532  0.0454  0.0841
    1W        W25565  15.460  20.939   1.071  0.0046 -0.0305 -0.1415
    1W        W25566  18.779  11.656   9.506 -0.1555 -0.2697 -0.1664
    1W        W25567   2.387  25.895   1.672 -0.2565  0.0420  0.1685
    1W        W25568  13.583  23.194   0.526  0.2350 -0.0616 -0.2627
    1W        W25569  12.547   3.374   8.070 -0.0558 -0.0476 -0.2760
    1W        W25570   4.658  27.951   1.194 -0.0786  0.2845  0.4477
    1W        W25571  22.302  27.708   0.619  0.0040  0.0171  0.3177
    1W        W25572  28.419  15.576   6.394  0.0433  0.1752  0.0810
    1W        W25573   9.625  13.036   1.476  0.1128 -0.1617  0.1421
    1W        W25574   3.135  10.136   1.943 -0.0765 -0.3014  0.0056
    1W        W25575  27.881   9.745   2.124 -0.1551  0.0203  0.0984
    1W        W25576  22.614  28.054   7.862 -0.3682  0.1942 -0.1091
    1W        W25577   0.134  10.734   3.028  0.0225 -0.1321 -0.0511
    1W        W25578   9.406   3.597   0.135  0.1849 -0.1992  0.0204
    1W        W25579   9.679   3.920   8.300  0.3778  0.1609  0.1877
    1W        W25580  16.585  10.291   7.589 -0.3618  0.0618 -0.2050
    1W        W25581  19.013  11.350   7.389  0.1977 -0.4165 -0.2847
    1W        W25582   2.020  26.730   1.914  0.1542 -0.1715 -0.1193
    1W        W25583  23.646  14.215   7.052 -0.1390  0.0630 -0.3674
    1W        W25584  13.813  21.923   8.653  0.2225  0.2427 -0.0840
    1W        W25585   6.082  16.629   0.763  0.1007  0.1428  0.2118
    1W        W25586  13.266   1.693   2.767  0.0474  0.1233 -0.4375
    1W        W25587  18.502   9.428   9.711 -0.0876 -0.0807  0.1346
    1W        W25588  27.508  24.676   1.063 -0.1755  0.1488 -0.3700
    1W        W25589  26.400  11.727   8.986 -0.0686 -0.1369 -0.1561
    1W        W25590   7.241   6.810   7.809 -0.3735 -0.1936  0.3102
    1W        W25591  13.470  24.095   7.367 -0.0237  0.0171 -0.0214
    1W        W25592  11.082  17.541   2.221  0.1352  0.0280  0.0794
    1W        W25593  19.446   2.172   2.755  0.0381 -0.1755  0.0441
    1W        W25594   0.324  10.707   2.558 -0.1153 -0.2451 -0.0241
    1W        W25595  24.717  27.537   2.444  0.0022  0.2022  0.0026
    1W        W25596  20.404  10.797   8.201  0.1958 -0.0381  0.2162
    1W        W25597  27.186   1.644   7.129 -0.0723 -0.1158  0.0332
    1W        W25598   9.231  24.281   2.912 -0.1367  0.2655  0.2385
    1W        W25599  21.918  23.851   8.179  0.2488 -0.2471  0.0692
    1W        W25600   3.717   9.734   1.013  0.1162  0.1701  0.0780
    1W        W25601   7.045   1.431   0.680 -0.2031 -0.2654  0.4149
    1W        W25602  19.226  25.793   4.195 -0.0146  0.1140 -0.1404
    1W        W25603  21.764  11.613   2.762  0.0203  0.1237 -0.2546
    1W        W25604  27.384   5.878   7.542  0.1427  0.0158  0.0689
    1W        W25605  14.808  17.538   8.034 -0.0224 -0.3332 -0.0874
    1W        W25606  27.299  10.854   2.745  0.0970 -0.1350  0.1676
    1W        W25607  11.223   9.485   1.954  0.0418  0.2585  0.2863
    1W        W25608  24.779   8.313   9.288  0.0906 -0.1428  0.2687
    1W        W25609  18.344  13.990   1.677  0.0534 -0.1768  0.3077
    1W        W25610  10.541  16.507   8.832 -0.0671 -0.3257 -0.0031
    1W        W25611   1.530  26.475   9.611 -0.0691 -0.0012 -0.4065
    1W        W25612   2.988  17.972   0.671  0.2435 -0.0931 -0.4096
    1W        W25613   3.194   0.181   7.665 -0.1108 -0.0043 -0.1083
    1W        W25614  11.819   7.733   2.351 -0.2090 -0.1968  0.2357
    1W        W25615  16.680   8.304   8.173 -0.0450 -0.0499 -0.2300
    1W        W25616  18.536  16.386   8.354  0.0884 -0.3318 -0.0956
    1W        W25617  28.623  24.733   1.877 -0.0832  0.1945  0.2974
    1W        W25618  28.383  14.656   6.834 -0.2377  0.0396  0.0405
    1W        W25619   7.409   4.478   8.479 -0.0537 -0.0272 -0.3694
    1W        W25620  16.573  13.357   9.275  0.0362  0.0296 -0.3357
    1W        W25621  23.685   5.972   9.053  0.1326  0.0096  0.4099
    1W        W25622   0.828  10.461   8.664  0.1158 -0.0632  0.2105
    1W        W25623   7.952   0.533   8.918 -0.0760  0.3115  0.3959
    1W        W25624  26.838   5.554   2.201  0.3165  0.0150 -0.4816
    1W        W25625   7.436   3.749   2.118 -0.0889  0.0043 -0.2022
    1W        W25626  25.103   2.664   1.196  0.2247  0.0994 -0.1356
    1W        W25627  16.191  20.598   2.066 -0.1435  0.1236 -0.2973
    1W        W25628  27.041   2.609   6.834 -0.0115 -0.0673 -0.1041
    1W        W25629  21.833   1.725   1.242  0.0939  0.0110  0.0955
    1W        W25630  23.017  18.049   2.565  0.0918  0.1926  0.0415
    1W        W25631  23.181  26.434   8.194  0.0768 -0.1657 -0.2767
    1W        W25632   7.012  17.478   1.719  0.0774  0.2526 -0.1842
    1W        W25633  25.417   0.784   2.722  0.3607 -0.0739 -0.1200
    1W        W25634  20.722   5.974   8.725 -0.1662  0.5311 -0.0485
    1W        W25635  11.355  10.393   1.408 -0.0778  0.1356  0.2576
    1W        W25636  24.020  21.121   2.638 -0.0694 -0.1048 -0.0264
    1W        W25637   1.893  26.629   3.129  0.2969 -0.2054 -0.1565
    1W        W25638  20.521  12.266   9.615  0.1150  0.3782 -0.1140
    1W        W25639  17.397  10.054   7.687  0.0051 -0.1688 -0.3186
    1W        W25640  17.622   8.257   9.154 -0.1527  0.2645  0.2360
    1W        W25641   2.624  27.196   9.533  0.2407  0.0770 -0.0562
    1W        W25642   8.063  17.900   0.217 -0.1342 -0.1088 -0.0418
    1W        W25643   7.731   0.901   0.347 -0.0216 -0.0650  0.0781
    1W        W25644   6.675  27.336   9.031 -0.0644 -0.0752  0.0876
    1W        W25645  15.980  27.276   3.273 -0.1216  0.3005 -0.0995
    1W        W25646   5.699  10.285   3.068  0.0792  0.3448  0.3628
    1W        W25647  17.210   2.384   1.641 -0.0887 -0.1282  0.0194
    1W        W25648  18.675  27.068   0.095 -0.0893 -0.0039 -0.0527
    1W        W25649  22.673   5.974   3.857 -0.0056  0.0034  0.2167
    1W        W25650  14.090   5.787   8.586 -0.0563 -0.1386  0.1478
    1W        W25651  25.573   0.962   9.891  0.0076  0.0402 -0.0190
    1W        W25652  25.884   9.651   0.209 -0.0866 -0.1067  0.0221
    1W        W25653  17.224  28.106   3.202 -0.1282  0.1511 -0.2362
    1W        W25654  19.933  11.628   7.661  0.1732 -0.2096  0.2873
    1W        W25655   6.327   2.184   2.692 -0.0246 -0.1470  0.1702
    1W        W25656   3.451   9.476   9.473  0.1153  0.1010 -0.1488
    1W        W25657   6.489  14.803   7.549 -0.3346  0.0915 -0.1918
    1W        W25658  24.049  21.815   0.410  0.0759  0.1208  0.3473
    1W        W25659   7.228   5.203   7.070  0.0903 -0.0916  0.1076
    1W        W25660  11.281   5.095   9.620  0.0535 -0.0354  0.1583
    1W        W25661  22.653  16.209   8.398  0.1273 -0.2170  0.1347
    1W        W25662  21.696   8.854   7.552 -0.1509 -0.1381  0.1896
    1W        W25663  12.020   9.305   0.090 -0.3210 -0.0398 -0.0744
    1W        W25664  10.603   8.134   8.665  0.3310 -0.1308 -0.1491
    1W        W25665  14.443  28.455   0.018  0.0893 -0.3105  0.0139
    1W        W25666  25.121  20.629   0.663 -0.1061  0.1781  0.0072
    1W        W25667   3.710  16.639   8.751 -0.0208 -0.1451 -0.0022
    1W        W25668  24.689  26.111   6.983 -0.0586  0.0473  0.1935
    1W        W25669  25.305   3.544   8.262  0.0297 -0.0031 -0.2185
    1W        W25670   3.411  11.097   0.746  0.2240 -0.1299 -0.3749
    1W        W25671   4.548   2.978   7.265  0.2013 -0.2372 -0.0247
    1W        W25672  22.423   3.071   6.955 -0.0501 -0.0475 -0.4207
    1W        W25673  15.328   2.232   0.299  0.4511  0.0629 -0.0038
    1W        W25674   9.090   3.463   3.825 -0.1448 -0.1225 -0.2248
    1W        W25675   8.118   8.721   9.794 -0.1348  0.2615  0.0182
    1W        W25676  13.465  14.197   1.769 -0.0421 -0.3814  0.1500
    1W        W25677  26.959  23.006   2.397 -0.1506 -0.2499  0.5064
    1W        W25678   1.788  11.193   9.925 -0.0796 -0.3364 -0.3097
    1W        W25679  21.330  20.004   1.270 -0.0528  0.0883  0.0685
    1W        W25680  19.426  13.297   9.214  0.2556 -0.2215 -0.1078
    1W        W25681  25.831   3.042   7.564 -0.2539 -0.0937 -0.4905
    1W        W25682  10.032   4.675   2.022 -0.0873 -0.1910  0.1406
    1W        W25683  16.609   4.687   2.389  0.0636  0.1395 -0.0261
    1W        W25684  19.640  12.997   7.868 -0.0237  0.1319 -0.1386
    1W        W25685   7.995  24.947   8.350  0.2334 -0.1005 -0.0239
    1W        W25686  25.102  15.036   9.855  0.0941 -0.0755 -0.1373
    1W        W25687  25.270  17.788   9.724  0.1980  0.2064  0.1268
    1W        W25688  14.159  23.108   3.342  0.1890 -0.0449  0.0464
    1W        W25689  22.187  14.329   0.681 -0.0178 -0.2980 -0.0631
    1W        W25690  13.980  18.837   7.557  0.3511  0.2291 -0.2178
    1W        W25691  14.063  10.041   1.594  0.2777 -0.0620  0.0754
    1W        W25692  15.621   6.074   3.094 -0.3559 -0.0048 -0.2188
    1W        W25693   6.751  11.202   8.549  0.4081  0.1923  0.1011
    1W        W25694  25.943  11.141   6.097 -0.4451  0.1421 -0.0494
    1W        W25695  18.668  15.901   8.418  0.0429 -0.1975  0.2856
    1W        W25696   8.057  12.177   1.277 -0.0155 -0.0202 -0.0578
    1W        W25697  19.086  16.647   8.368  0.0754  0.2232 -0.1943
    1W        W25698   2.604  11.168   0.107  0.3206  0.1901 -0.1552
    1W        W25699  23.719  20.685   8.550 -0.4142 -0.1343 -0.0568
    1W        W25700   9.607  13.171   8.925  0.2779  0.0356  0.3393
    1W        W25701  15.277  19.758   8.275 -0.0098 -0.1647 -0.0785
    1W        W25702   3.204   4.266   6.349  0.1136 -0.0509  0.2087
    1W        W25703   8.938  10.464   9.160  0.2602 -0.1089 -0.1507
    1W        W25704  28.151   0.229   7.530  0.0320 -0.2470 -0.5413
    1W        W25705  11.644   8.546   1.980 -0.0148 -0.1500  0.1162
    1W        W25706   5.423   7.074   9.573  0.0145  0.1615  0.1873
    1W        W25707  27.540  17.900   8.764 -0.1997  0.1973 -0.1858
    1W        W25708   2.440  25.673   3.036  0.0771  0.5527  0.0156
    1W        W25709   8.468  16.117   1.556 -0.0445  0.0886 -0.1768
    1W        W25710  20.926   1.189   8.310 -0.0817 -0.0706 -0.0517
    1W        W25711   4.705  19.904   1.810 -0.1129 -0.1051 -0.3327
    1W        W25712   7.871  16.448   7.004 -0.1999  0.2451 -0.0640
    1W        W25713   3.694  12.659   0.216  0.0731  0.2414  0.1105
    1W        W25714  21.844   4.897   0.556 -0.1018  0.0737  0.3400
    1W        W25715  11.713   0.297   3.988  0.1108  0.0231  0.3157
    1W        W25716   3.006   1.396   0.626 -0.0454  0.0690  0.0181
    1W        W25717  25.399  23.081   0.751  0.1872  0.0183  0.2026
    1W        W25718   9.874   8.364   2.660 -0.1641  0.0289 -0.0507
    1W        W25719   4.940   5.845   3.683  0.4903 -0.0356  0.2028
    1W        W25720  15.095  21.530   9.385  0.0049 -0.2877 -0.2612
    1W        W25721   4.859   7.510   0.762 -0.3528 -0.2170  0.2387
    1W        W25722   9.329  28.098   0.056 -0.1359  0.1021  0.0354
    1W        W25723   0.771  27.485   1.164 -0.0393  0.3505  0.0114
    1W        W25724  17.179  23.192   0.613 -0.0821  0.0241  0.2127
    1W        W25725  18.977  22.547   9.491 -0.1290 -0.1146  0.0091
    1W        W25726   8.939  23.892   5.935  0.2018  0.0173 -0.0579
    1W        W25727  24.822  23.905   2.599  0.2303 -0.3264 -0.0901
    1W        W25728   2.460  19.561   7.527  0.1439  0.1883 -0.0152
    1W        W25729   9.505   5.257   7.524  0.1660 -0.3580 -0.2688
    1W        W25730  10.849  10.678   2.618  0.0100 -0.2475  0.0988
    1W        W25731   8.066  10.245   9.674  0.1735 -0.1926  0.1388
    1W        W25732  14.225   2.518   3.517 -0.1136  0.1379  0.0153
    1W        W25733  26.451   6.060   6.591 -0.0686 -0.1701  0.4794
    1W        W25734  21.980   0.979   1.809  0.0895 -0.0903  0.1639
    1W        W25735  14.405  12.673   0.611 -0.1743  0.1217 -0.3899
    1W        W25736   1.784   5.678   0.215 -0.1511  0.0519  0.1284
    1W        W25737  16.059   6.357   4.001  0.0861  0.0353  0.0811
    1W        W25738  25.425  18.762   1.058 -0.2806 -0.2765 -0.0297
    1W        W25739   4.920   2.442   1.752 -0.0820 -0.0537 -0.1501
    1W        W25740   3.165   3.822   9.263  0.0217 -0.2074 -0.0712
    1W        W25741   0.427  19.402   6.914  0.0860 -0.0336 -0.1367
    1W        W25742   3.342   7.303   7.343  0.2122 -0.2719  0.3135
    1W        W25743  10.588   6.285   7.862 -0.2713 -0.0148 -0.0400
    1W        W25744   5.019  21.209   5.667  0.2203  0.1865 -0.1334
    1W        W25745   9.303  18.396   7.869  0.1437  0.3074  0.1318
    1W        W25746  21.911  14.188   9.559  0.0066  0.1153  0.0417
    1W        W25747  14.226  18.792   9.857 -0.2784  0.0612  0.1504
    1W        W25748  22.697   2.362   0.213 -0.2095 -0.1413  0.0534
    1W        W25749  28.043  19.510   0.320  0.1145  0.1322  0.2479
    1W        W25750   8.747  14.701   2.218 -0.0158 -0.2389 -0.0252
    1W        W25751  13.781  14.543   8.991 -0.1169 -0.4019  0.0712
    1W        W25752  17.573   4.188   8.963  0.2822  0.0651  0.3138
    1W        W25753   5.275  21.887   7.694  0.0567  0.0849  0.1428
    1W        W25754  17.560  24.233   2.381  0.1746  0.2404 -0.2102
    1W        W25755  27.861  16.728   9.858  0.0912  0.0793 -0.2770
    1W        W25756   1.031   6.088   0.490  0.1821  0.0665  0.0954
    1W        W25757  20.800  24.054   0.611 -0.1547  0.0273 -0.1130
    1W        W25758  17.536   1.859   6.750  0.2795 -0.2504 -0.0296
    1W        W25759   9.656   0.608   9.012 -0.0510  0.1964 -0.1076
    1W        W25760  24.921  25.398   7.607  0.1586 -0.2542  0.1924
    1W        W25761   9.595  19.421   9.477  0.1390 -0.0320  0.2617
    1W        W25762  25.349   4.151   9.386 -0.2271 -0.2907  0.0314
    1W        W25763  20.132  22.273   7.719 -0.4546 -0.2450 -0.2155
    1W        W25764  18.599   3.614   9.380 -0.1270 -0.1343  0.2077
    1W        W25765  12.952   2.632   2.781 -0.1020  0.2647 -0.2290
    1W        W25766  28.697  16.969   7.514 -0.1982  0.0972 -0.0783
    1W        W25767   4.363  27.358   8.986 -0.1514 -0.2433  0.0988
    1W        W25768  23.648  14.417   0.718  0.5002  0.1428  0.3270
    1W        W25769   9.014   0.815   9.901  0.1570  0.1266  0.0552
    1W        W25770  11.664   7.292   0.140  0.4669  0.2439  0.2988
    1W        W25771  21.562   7.107   9.886 -0.1444  0.0358  0.0138
    1W        W25772  14.375  25.956   0.140  0.1901 -0.0073  0.3456
    1W        W25773   1.887   9.567   1.829 -0.0202 -0.3982  0.1465
    1W        W25774  14.613   1.654   9.438 -0.1782  0.1283 -0.1275
    1W        W25775   4.514   4.807   1.883 -0.2580 -0.0539 -0.0338
    1W        W25776   0.702   7.807   2.483 -0.2445  0.1121 -0.0710
    1W        W25777  16.823  20.108   9.441 -0.1785  0.2967  0.1401
    1W        W25778  18.836  24.638   9.407  0.1205  0.0506 -0.0724
    1W        W25779   2.605   3.197   7.857 -0.0932 -0.2195 -0.1129
    1W        W25780   9.389   4.746   2.316 -0.0196 -0.0775  0.0044
    1W        W25781  20.055  23.943   9.881  0.0917 -0.2828  0.3156
    1W        W25782   1.498  17.746   6.833  0.0379  0.0217 -0.1692
    1W        W25783  10.759  21.932   2.320  0.0539 -0.2327 -0.1809
    1W        W25784  11.287  21.871   8.541 -0.1648  0.0715  0.1762
    1W        W25785  13.736   4.043   2.918 -0.1779  0.2320 -0.0678
    1W        W25786   3.250   4.588   2.418 -0.0779  0.3944  0.0150
    1W        W25787  15.972   3.656   9.954  0.0112 -0.2505  0.0502
    1W        W25788  21.609   5.565   9.002 -0.2282  0.1374 -0.0510
    1W        W25789   7.391  19.047   8.394  0.0429  0.1974 -0.5940
    1W        W25790   8.704  21.965   6.101 -0.2089 -0.1501 -0.1581
    1W        W25791  26.022  16.018   2.858  0.2240  0.0691 -0.2113
    1W        W25792  26.087   0.227   7.212 -0.4147  0.1701  0.2216
    1W        W25793   9.875  19.472   0.343  0.1537  0.1359 -0.0882
    1W        W25794  12.183  11.768   7.288  0.2048 -0.1817 -0.0206
    1W        W25795   8.128  11.803   8.585  0.0283  0.2284 -0.0740
    1W        W25796  13.771  21.811   0.508 -0.0591 -0.0410  0.0621
    1W        W25797  27.803  10.477   0.775  0.2501  0.0288 -0.1798
    1W        W25798   9.039  18.157   6.260  0.0107  0.0112  0.1458
    1W        W25799  28.165   6.815   8.109  0.0365 -0.0458 -0.0947
    1W        W25800   6.561  28.362   2.756 -0.1029 -0.0493 -0.2046
    1W        W25801   5.026   7.536   8.826 -0.0804  0.1826 -0.0117
    1W        W25802   7.486  22.273   1.016 -0.1104  0.0704 -0.0063
    1W        W25803   4.908  25.874   2.887 -0.2097 -0.1029  0.4508
    1W        W25804   9.419  26.505   6.646 -0.1846 -0.2577 -0.1085
    1W        W25805  11.001  26.643   9.196  0.1874 -0.1037  0.2584
    1W        W25806  27.159  12.055   6.414 -0.0632 -0.1523 -0.1240
    1W        W25807  20.634  10.321   0.709 -0.0088  0.0478  0.2647
    1W        W25808   3.204  28.310   7.695  0.3556 -0.1678 -0.0858
    1W        W25809  14.271  15.306   1.617  0.2006 -0.2775  0.0137
    1W        W25810   8.125  23.984   6.946  0.4177  0.3516  0.0671
    1W        W25811   8.631  11.172   8.004 -0.0521  0.0961  0.2119
    1W        W25812  12.103   6.116   0.408  0.1663 -0.3030 -0.1744
    1W        W25813   5.225   0.774   0.275 -0.0043  0.2121  0.0424
    1W        W25814  24.764   3.112   0.116 -0.2336 -0.1122 -0.0398
    1W        W25815   2.716   8.181   6.963 -0.1069  0.1288  0.3000
    1W        W25816  20.444  11.582   2.656 -0.2696 -0.0100  0.0479
    1W        W25817   7.171   2.284   0.430 -0.0043  0.0913 -0.2659
    1W        W25818  18.548   9.743   8.265  0.1455 -0.4491  0.0888
    1W        W25819   5.213  26.971   1.519 -0.1226 -0.1358 -0.1558
    1W        W25820  20.503   3.707   6.793 -0.1621  0.1124 -0.3027
    1W        W25821  27.509  22.582   2.575  0.1622  0.0837  0.2355
    1W        W25822  24.673   3.666   9.020  0.1850 -0.0087  0.1533
    1W        W25823  15.206   2.100   9.770  0.1342 -0.1773 -0.0827
    1W        W25824  17.477  19.052   8.516 -0.0343  0.2481  0.1650
    1W        W25825   4.073   3.036   0.201 -0.1499 -0.2795  0.0987
    1W        W25826  16.132   0.432   2.349  0.2225 -0.0603  0.0602
    1W        W25827  25.424   9.396   7.700 -0.1605  0.2883  0.2257
    1W        W25828  15.465   6.456   3.456  0.1422  0.0724 -0.0537
    1W        W25829  24.455  28.607   8.414  0.4158 -0.0267  0.2195
    1W        W25830  13.393  23.071   8.362  0.3486 -0.0927 -0.0614
    1W        W25831  10.004  27.373   0.906  0.0415 -0.0865  0.1083
    1W        W25832  12.297  11.582   1.501 -0.4637  0.1459 -0.1834
    1W        W25833  12.029   8.350   8.888 -0.0754 -0.0930 -0.2881
    1W        W25834  19.373   8.562   2.409  0.1235 -0.2238  0.1826
    1W        W25835  22.205   4.020   7.471 -0.0396 -0.2552 -0.0619
    1W        W25836   5.614  16.470   0.887 -0.0074  0.1572 -0.1022
    1W        W25837  22.929  17.662   7.849  0.0768  0.2580  0.1105
    1W        W25838  22.721  20.237   0.103  0.0045  0.2766  0.0695
    1W        W25839   7.042  27.372   1.681  0.1560  0.2332 -0.1050
    1W        W25840   9.250   6.020   6.869  0.0963 -0.0168 -0.0554
    1W        W25841  22.421  21.330   6.724  0.2566 -0.2388 -0.2118
    1W        W25842  16.192  16.399   1.216  0.1667 -0.1301 -0.1651
    1W        W25843  24.568   1.899   3.429 -0.1101  0.0917  0.0574
    1W        W25844  23.605  22.859   7.649 -0.1766  0.1193  0.0943
    1W        W25845  28.309  27.925   7.573  0.0889 -0.0247  0.0595
    1W        W25846  11.225   2.156   9.339  0.2320 -0.0279  0.0193
    1W        W25847  11.142  12.238   9.397 -0.0170 -0.0092 -0.0553
    1W        W25848  14.594  15.053   0.036 -0.1074  0.2330  0.0251
    1W        W25849   4.653   2.659   2.674 -0.2751 -0.0405  0.1412
    1W        W25850   5.708  26.802   3.230 -0.1865  0.1533 -0.1427
    1W        W25851  18.588  24.438   8.840  0.0843 -0.1022 -0.0035
    1W        W25852  15.381  23.081   8.597  0.0052  0.0198 -0.3570
    1W        W25853  26.162   1.045   2.275  0.0698  0.1916  0.1013
    1W        W25854  25.165  11.111   6.989 -0.0385  0.0467 -0.2561
    1W        W25855  15.434  20.647   2.596  0.2274  0.0190 -0.2923
    1W        W25856   9.859  12.112   7.305 -0.2080 -0.2909  0.0600
    1W        W25857  28.118   3.591   6.190 -0.2819  0.1820 -0.4227
    1W        W25858   5.902   7.328   3.065 -0.0368  0.2191 -0.0725
    1W        W25859  14.074   7.707   2.790 -0.0034  0.1371 -0.0318
    1W        W25860  20.859  25.105   7.967  0.2991 -0.1770 -0.1090
    1W        W25861  16.877  25.761   8.260  0.0738 -0.0854 -0.0902
    1W        W25862   7.899  12.098   0.287 -0.1472  0.1374 -0.1474
    1W        W25863  10.385  14.083   8.823 -0.2722 -0.1754  0.1626
    1W        W25864  14.587  11.372   2.449 -0.1060  0.0402 -0.0838
    1W        W25865   8.917   2.676   2.321 -0.0754  0.1199  0.3295
    1W        W25866  18.639  16.966   1.057 -0.2490 -0.0706  0.0444
    1W        W25867   0.643   7.216   0.676 -0.1359 -0.1160 -0.1756
    1W        W25868  16.707  28.316   3.195 -0.0118 -0.0986  0.0836
    1W        W25869   6.684  24.942   7.540  0.0001 -0.0594  0.2974
    1W        W25870   3.337   0.872   7.445  0.0393  0.0660 -0.2977
    1W        W25871   5.750   4.245   1.150  0.2529 -0.0227  0.0591
    1W        W25872   3.964   7.618   6.308 -0.0071 -0.0984 -0.0964
    1W        W25873  25.761  10.029   0.632  0.2198 -0.2790  0.0669
    1W        W25874  20.948   3.195   3.477  0.0576 -0.2574 -0.2501
    1W        W25875   6.878  26.560   0.251 -0.1135  0.1200  0.1636
    1W        W25876   3.102   3.551   2.105  0.1625  0.0657  0.0549
    1W        W25877  16.081  25.427   1.111 -0.2108 -0.1169  0.0586
    1W        W25878   1.118   0.060   7.366  0.1261  0.2113  0.1628
    1W        W25879  16.897   4.376   1.437 -0.1762 -0.2466  0.4424
    1W        W25880  12.120  27.095   3.164 -0.1196 -0.0759  0.1038
    1W        W25881  22.097  19.784   8.529  0.0310 -0.1804  0.0366
    1W        W25882  18.045  15.615   1.793  0.0272  0.2928  0.0913
    1W        W25883  12.342  28.678   2.574 -0.0187  0.2006 -0.0398
    1W        W25884  11.342  23.852   2.025  0.1670  0.2406  0.1297
    1W        W25885  13.115  11.962   9.289 -0.2140  0.0388 -0.1373
    1W        W25886  23.198   8.082   2.452  0.1410  0.1756 -0.0001
    1W        W25887   2.678  18.291   6.721  0.3866 -0.3654 -0.0248
    1W        W25888   5.987   2.864   7.682  0.1570  0.1399  0.2463
    1W        W25889   5.772   5.609   2.025  0.4012  0.0412  0.0305
    1W        W25890   5.935  22.946   9.752  0.0010  0.1492  0.0892
    1W        W25891  13.489   3.578   9.588 -0.0100 -0.1756  0.1643
    1W        W25892  19.765  21.125   8.553  0.3012  0.0492 -0.0583
    1W        W25893   1.377  15.959   0.155 -0.0123  0.2923  0.2466
    1W        W25894  28.674   4.709   9.194  0.0166  0.0774  0.2703
    1W        W25895  27.311  10.976   8.709 -0.1293 -0.3279 -0.1352
    1W        W25896  14.465  25.627   6.880  0.0481 -0.1816  0.1603
    1W        W25897  22.368   2.161   0.554 -0.1981 -0.0277  0.2052
    1W        W25898   6.674   5.367   6.249 -0.1602  0.4241 -0.1691
    1W        W25899  23.719   5.809   3.684 -0.0299  0.3175 -0.0472
    1W        W25900  21.330   9.468   3.009  0.0773 -0.0211 -0.2586
    1W        W25901  20.434  24.123   7.078  0.1087  0.0529 -0.1512
    1W        W25902   1.209   2.337   2.709 -0.1037 -0.0879  0.2001
    1W        W25903   8.733  25.339   0.385 -0.0594  0.2098  0.0620
    1W        W25904  16.116   2.556   2.614  0.1009 -0.0153  0.3148
    1W        W25905   6.363  16.198   8.586 -0.1583  0.0115 -0.0853
    1W        W25906   0.936  23.802   0.665  0.0268  0.1544 -0.0527
    1W        W25907  12.772   0.394   8.498 -0.1474 -0.5595 -0.2650
    1W        W25908   5.319  22.897   8.982  0.0339  0.0553 -0.1112
    1W        W25909  22.443  17.730   9.130 -0.0803 -0.1344 -0.3134
    1W        W25910  28.383   8.307   9.235  0.1716 -0.0073  0.0720
    1W        W25911  10.483  11.873   8.458  0.1540  0.0945  0.1565
    1W        W25912  14.308  26.217   2.522 -0.0447  0.0881  0.3153
    1W        W25913  13.128   5.291   8.876  0.1787 -0.0698 -0.2281
    1W        W25914  22.806  27.941   1.464 -0.0470 -0.4188  0.2916
    1W        W25915  18.859  10.534   0.042 -0.0803  0.1867 -0.0933
    1W        W25916   6.858   7.779   0.965 -0.0549 -0.2816  0.0471
    1W        W25917   4.271   4.780   0.556 -0.1698  0.3724 -0.2431
    1W        W25918  18.733  15.121   7.857  0.2788  0.0442  0.1922
    1W        W25919   1.497  12.831   1.958  0.1236 -0.3625 -0.1160
    1W        W25920  19.170  20.797   1.731  0.2520 -0.0035 -0.0924
    1W        W25921  13.920   7.684   9.406  0.1552 -0.1079  0.0397
    1W        W25922  20.602  22.641   7.477  0.0504  0.1553 -0.1806
    1W        W25923  14.321  26.980   0.860 -0.1240 -0.0659 -0.0075
    1W        W25924  18.163  27.314   9.562 -0.0261 -0.1775 -0.0276
    1W        W25925   3.885   6.664   0.766 -0.2172 -0.1938  0.1546
    1W        W25926  14.332   4.300   9.322  0.0265 -0.0213 -0.0819
    1W        W25927  12.136  24.199   1.840 -0.0231 -0.2186 -0.1018
    1W        W25928  28.502  22.710   6.994 -0.0059 -0.1567  0.1137
    1W        W25929  25.680  27.485   0.942  0.0700  0.0057  0.0831
    1W        W25930   8.496  14.924   0.844 -0.0306 -0.0298 -0.1555
    1W        W25931  19.899   7.585   1.522  0.3171 -0.3005 -0.2997
    1W        W25932   0.378   4.707   0.641  0.0761  0.2509 -0.2408
    1W        W25933  26.541  21.098   3.125  0.3062 -0.0304 -0.0281
    1W        W25934  20.614  16.831   2.377  0.3910 -0.0676 -0.1194
    1W        W25935   0.231   4.047   7.119  0.3694  0.1649  0.1466
    1W        W25936   2.281  16.456   8.611  0.3947 -0.1323  0.1182
    1W        W25937  11.021   5.382   0.083  0.2309 -0.0955  0.0647
    1W        W25938  23.075   1.002   9.692  0.1012  0.1006  0.0816
    1W        W25939  12.629  10.736   2.566 -0.1193 -0.0884  0.2027
    1W        W25940  23.559   0.779   0.513  0.2906  0.2893 -0.1515
    1W        W25941  13.271  28.141   7.723  0.1152 -0.0332  0.1064
    1W        W25942  14.559  15.046   7.788  0.0445  0.2010 -0.0867
    1W        W25943  26.045  15.806   8.465  0.1863  0.0166  0.1709
    1W        W25944  10.247  17.398   7.432  0.1527  0.0355  0.1962
    1W        W25945  16.438  15.558   2.319 -0.2910 -0.0721  0.0397
    1W        W25946   7.611  22.736   5.835 -0.4467  0.3030 -0.0499
    1W        W25947  18.729  15.673   9.791  0.1274  0.0637 -0.2243
    1W        W25948  12.191  12.118   9.431  0.0483  0.1028 -0.2755
    1W        W25949  17.681  24.162   7.153  0.1778  0.2455  0.0207
    1W        W25950  15.188   1.309   1.036 -0.3064  0.0344 -0.1397
    1W        W25951  21.474  19.521   1.180  0.2945 -0.0819  0.0211
    1W        W25952   2.089  22.264   9.531 -0.2225 -0.2045 -0.1991
    1W        W25953  25.307  27.554   7.596 -0.1044 -0.0225  0.0169
    1W        W25954  26.669  25.196   2.670  0.0933 -0.1438 -0.0847
    1W        W25955  28.609  21.161   9.753  0.1498 -0.0430 -0.1931
    1W        W25956   0.791   4.762   8.725  0.4427 -0.0737  0.1407
    1W        W25957  11.375   8.244   1.015 -0.2195  0.0375  0.3565
    1W        W25958  14.634  26.513   9.438  0.0732  0.0971  0.2246
    1W        W25959  21.844  19.393   9.931 -0.0791 -0.0406 -0.2312
    1W        W25960  15.659   7.304   9.213  0.0191 -0.0625  0.1764
    1W        W25961  27.927  23.412   8.479  0.1679 -0.1347  0.0787
    1W        W25962  12.698  24.339   1.862  0.1145  0.2187  0.1327
    1W        W25963  26.040   5.904   7.008 -0.2860 -0.0037 -0.1411
    1W        W25964   9.991   9.476   7.297  0.2125 -0.0191  0.1396
    1W        W25965   3.736  17.461   9.167  0.0126  0.0929  0.0140
    1W        W25966  13.771  11.094   1.827 -0.0439  0.2602  0.0283
    1W        W25967   1.345   2.385   8.719 -0.3241 -0.0654  0.1170
    1W        W25968   1.158  24.200   2.319 -0.3036 -0.0641  0.0603
    1W        W25969  18.719  19.673   8.378  0.2381 -0.1950 -0.0272
    1W        W25970   3.107  22.767   1.725  0.0215  0.2259  0.1305
    1W        W25971   6.078   6.406   0.738 -0.0081  0.1022  0.2494
    1W        W25972  14.658  22.213   2.888 -0.3928  0.1042  0.1286
    1W        W25973  18.956  24.090   8.410 -0.0219 -0.0110 -0.2198
    1W        W25974  15.609   3.725   8.467 -0.0012  0.0423 -0.1630
    1W        W25975   2.340   5.113   2.196 -0.2949 -0.0178  0.2670
    1W        W25976  10.619  14.573   1.170 -0.0327 -0.1773 -0.0020
    1W        W25977  17.494  21.693   7.599 -0.0702 -0.1672 -0.2697
    1W        W25978  26.738   3.599   3.317  0.0930 -0.1880  0.1620
    1W        W25979  24.995  16.324   9.482  0.2117  0.1151  0.1173
    1W        W25980  12.868   1.960   3.572 -0.1441  0.0568 -0.0731
    1W        W25981  24.082   2.085   3.346 -0.0279  0.1789 -0.1818
    1W        W25982   6.660   0.383   9.183  0.1440 -0.0110 -0.0651
    1W        W25983   0.356   9.577   8.502  0.0708  0.0094  0.2605
    1W        W25984  12.098  20.718   1.736 -0.0278  0.2733 -0.0206
    1W        W25985   2.179  28.165   7.175 -0.0687  0.0894  0.1675
    1W        W25986   5.334   4.200   1.751  0.0598  0.4955 -0.2655
    1W        W25987  16.742  23.277   8.155  0.1365 -0.1291  0.1538
    1W        W25988  16.243   7.766   9.732  0.2826  0.0338  0.0650
    1W        W25989   3.124   4.217   7.772 -0.0926 -0.3184  0.0201
    1W        W25990   5.589  11.372   6.198  0.0101  0.0749  0.1899
    1W        W25991   5.789  19.461   7.407 -0.1987  0.0790 -0.3675
    1W        W25992   0.228  21.373   2.309 -0.1419 -0.0185 -0.4040
    1W        W25993   3.326  27.983   1.300  0.1668  0.3824  0.0205
    1W        W25994  20.913  17.809   1.312  0.1279  0.1582 -0.1750
    1W        W25995  16.660   7.958   3.826 -0.1904 -0.3320 -0.1586
    1W        W25996  18.538   8.730   0.452 -0.1372  0.3776  0.0306
    1W        W25997  19.398   9.710   9.835  0.0272  0.2770 -0.0560
    1W        W25998   4.451  10.526   9.341  0.0210 -0.0057  0.2216
    1W        W25999  21.204  11.812   1.931 -0.2425  0.0881 -0.1438
    1W        W26000  10.195  14.610   9.646  0.2231 -0.1190  0.2602
    1W        W26001  10.291   7.190   9.883  0.0655  0.1101 -0.3764
    1W        W26002  11.372   7.066   8.536  0.1027  0.0395 -0.3226
    1W        W26003   7.582  21.819   8.501  0.2402 -0.0732  0.3522
    1W        W26004  19.823   6.979   1.196 -0.1052  0.0471  0.0328
    1W        W26005  16.483   4.158   9.594 -0.1885 -0.1781  0.1293
    1W        W26006   8.787  24.348   9.579  0.1225  0.0115  0.0560
    1W        W26007  21.826  22.170   6.922 -0.0632 -0.2660 -0.1938
    1W        W26008   7.733  25.467   8.360  0.6240 -0.2759 -0.1517
    1W        W26009  20.864  12.067   0.703 -0.0554 -0.3210  0.1664
    1W        W26010  14.858  16.092   1.423  0.1051  0.2960  0.0117
    1W        W26011  26.578  26.708   9.892 -0.0920 -0.2484  0.1620
    1W        W26012  17.630  16.646   7.093 -0.0494 -0.1769  0.2259
    1W        W26013   4.360  21.938   1.832  0.3048  0.0914 -0.0484
    1W        W26014  20.158  11.194   0.660 -0.0205 -0.1830 -0.3638
    1W        W26015  26.994  13.338   1.249  0.1316 -0.3204 -0.0929
    1W        W26016   4.248  28.004   2.151 -0.2569 -0.0555 -0.1207
    1W        W26017  13.126   9.496   8.948  0.0810 -0.2050 -0.0873
    1W        W26018   6.317  18.592   6.499 -0.0581  0.2117  0.1713
    1W        W26019  12.239   5.381   2.040 -0.1906 -0.1297  0.0922
    1W        W26020   0.088  16.655   9.509 -0.1404  0.1871  0.0585
    1W        W26021  13.479   2.626   8.514  0.1555  0.0971 -0.0228
    1W        W26022   9.484  12.350   1.972  0.2509  0.0837  0.1232
    1W        W26023  13.966  13.056   9.962 -0.0486 -0.4366  0.0515
    1W        W26024   4.920  23.527   9.525  0.0754 -0.2267  0.0657
    1W        W26025  16.293  10.693   2.350 -0.0434  0.0136 -0.0389
    1W        W26026   9.785  12.860   8.357 -0.0800  0.2048  0.3884
    1W        W26027   5.817  26.129   9.267 -0.2006 -0.0050 -0.2907
    1W        W26028  21.454  21.704   2.780  0.1983  0.1562  0.0390
    1W        W26029   0.866  27.824   0.708  0.0415 -0.2920 -0.0478
    1W        W26030  17.091   3.096   2.652  0.2280  0.0652 -0.3041
    1W        W26031   3.864   9.179   7.185  0.1232  0.1153 -0.0418
    1W        W26032   3.095  23.280   1.490 -0.0757  0.0152  0.3468
    1W        W26033   9.974   9.718   1.085  0.1804 -0.0049  0.1691
    1W        W26034  13.725  14.431   2.164  0.0164 -0.2335  0.1849
    1W        W26035  23.380  15.297   6.963 -0.1199 -0.0277  0.0822
    1W        W26036  28.458  23.207   7.574 -0.0088  0.2022  0.1431
    1W        W26037  17.327  23.465   2.584 -0.0646  0.0282  0.3206
    1W        W26038  24.588  25.569   1.971 -0.0196  0.0496 -0.0705
    1W        W26039  18.762  16.560   7.912  0.1575 -0.1188  0.0419
    1W        W26040  26.737  19.652   9.283 -0.3276  0.0768  0.0452
    1W        W26041   2.989   1.578   9.897  0.0735 -0.3804 -0.1922
    1W        W26042  14.948  18.659   1.658  0.0184 -0.2389 -0.1100
    1W        W26043   1.892  17.032   8.057 -0.0098 -0.0905  0.0371
    1W        W26044  19.477   1.112   7.992 -0.1047 -0.2132  0.0198
    1W        W26045   7.115  22.222   0.286 -0.0658  0.1095  0.3993
    1W        W26046   4.282   9.203   9.189 -0.3636  0.1751  0.0962
    1W        W26047  22.667  16.918   1.884  0.1982 -0.0848  0.0404
    1W        W26048   7.080  20.134   8.583 -0.1412 -0.1549 -0.0411
    1W        W26049   0.280  21.034   8.027  0.0576  0.3072  0.0509
    1W        W26050  21.936   0.700   9.797  0.0598 -0.2432  0.3103
    1W        W26051  25.979  12.083   9.111  0.4008  0.1106  0.0815
    1W        W26052  25.401  28.385   0.696 -0.0838  0.0958 -0.0075
    1W        W26053   5.616  24.646   2.291  0.1136  0.0035  0.2016
    1W        W26054  20.265   6.538   8.097  0.1860  0.0564  0.0570
    1W        W26055  12.276   8.961   1.563  0.3468 -0.0002  0.3005
    1W        W26056   0.203  18.599   0.366  0.3455 -0.0875 -0.2703
    1W        W26057   4.136  11.323   2.959 -0.2292  0.1519  0.0004
    1W        W26058   8.542  27.784   1.730  0.1746  0.1920 -0.1812
    1W        W26059  26.994  15.623   1.818  0.1149  0.0105 -0.0539
    1W        W26060  10.237   6.726   3.102 -0.0562 -0.0851 -0.0073
    1W        W26061  27.264  16.286   7.018 -0.3109  0.1745  0.1152
    1W        W26062   1.407  17.157   2.654  0.0119 -0.0187  0.2724
    1W        W26063  15.127  20.751   8.326 -0.1545 -0.0811  0.0231
    1W        W26064  26.602  13.401   6.048 -0.0780 -0.0800 -0.0239
    1W        W26065  25.148  14.041   7.430 -0.1793  0.1526 -0.0716
    1W        W26066  11.853  15.508   7.844  0.4556 -0.1705 -0.1315
    1W        W26067  11.754   6.503   0.241  0.1697 -0.0035  0.0706
    1W        W26068   5.382   4.355   8.498  0.3197  0.1102 -0.3430
    1W        W26069   6.012  12.915   3.059  0.0637  0.2186  0.2864
    1W        W26070  17.953   1.555   2.649 -0.0415 -0.0647  0.0119
    1W        W26071  23.837  13.444   9.662  0.0548 -0.0282  0.2087
    1W        W26072   6.531   4.546   0.437  0.1497  0.2153  0.0671
    1W        W26073  13.770  10.586   1.695  0.1263  0.2163  0.1211
    1W        W26074  24.732  28.329   9.906 -0.1945 -0.1833  0.3247
    1W        W26075   7.116  21.736   0.406 -0.0184 -0.4044  0.1268
    1W        W26076  10.287  12.444   7.117 -0.1565  0.2158 -0.0154
    1W        W26077   0.757   5.318   5.914 -0.0393  0.1192  0.0093
    1W        W26078   3.242  17.148   0.408  0.0592 -0.0894 -0.0306
    1W        W26079   8.049   3.527   1.156 -0.4309 -0.0774  0.0763
    1W        W26080  21.461  11.060   7.630  0.2214  0.1346  0.0351
    1W        W26081  22.446  23.798   6.886 -0.0054  0.3217 -0.0002
    1W        W26082  14.316   8.145   8.839  0.1159  0.2975  0.2764
    1W        W26083  14.728   2.998   7.961  0.0061 -0.4004  0.1360
    1W        W26084  22.487  15.481   9.670 -0.1900 -0.0893 -0.1600
    1W        W26085  28.101  27.729   3.045 -0.1777  0.2005  0.0157
    1W        W26086   6.013  27.773   6.512  0.1576  0.0596 -0.1037
    1W        W26087  26.218   3.995   8.578 -0.0512  0.1895  0.0044
    1W        W26088  20.015  23.673   3.247  0.4415  0.2411  0.1360
    1W        W26089  26.909   6.494   8.923  0.0503  0.0369  0.1210
    1W        W26090  24.264   8.783   0.240  0.1260 -0.0022  0.1831
    1W        W26091  11.792  15.600   9.651  0.1697  0.0136 -0.0102
    1W        W26092  15.873  18.298   0.088  0.3128  0.0159 -0.3988
    1W        W26093   4.181  23.915   9.255 -0.0202 -0.0827  0.2741
    1W        W26094  19.693   4.188   1.560  0.0234  0.3113 -0.2093
    1W        W26095  16.298  18.921   3.005 -0.1661  0.0612 -0.1166
    1W        W26096   6.539   1.938   6.994 -0.1929 -0.0034  0.2657
    1W        W26097  19.086  19.331   8.636 -0.0237 -0.1321 -0.1502
    1W        W26098   2.909   3.839   1.685  0.0497  0.0305  0.0821
    1W        W26099   2.612  16.890   7.883  0.4535 -0.0242 -0.0208
    1W        W26100   8.025  12.353   8.522 -0.3618  0.3443  0.1131
    1W        W26101   0.638  18.968   0.501 -0.3259 -0.1925 -0.0384
    1W        W26102   7.455  20.262   8.057  0.2380 -0.5197 -0.0482
    1W        W26103  11.127   3.093   9.479  0.1286  0.1468  0.3306
    1W        W26104  21.093   3.405   1.246 -0.0496 -0.0837 -0.3004
    1W        W26105  26.659  11.282   0.034 -0.0905  0.0026  0.0845
    1W        W26106  14.455  28.370   7.287  0.0888 -0.0131 -0.1382
    1W        W26107   8.463  15.511   1.450  0.0909 -0.1500 -0.0080
    1W        W26108  16.492  25.827   0.782 -0.2517  0.2504 -0.0782
    1W        W26109   9.042  25.799   7.632 -0.0746  0.0235  0.2819
    1W        W26110  25.499   9.630   8.685  0.0171  0.0930  0.2144
    1W        W26111  26.903  12.003   2.589  0.0415 -0.1374 -0.1808
    1W        W26112  11.947  25.482   0.295  0.0252 -0.2521  0.0906
    1W        W26113  19.430   9.439   1.197  0.0526 -0.1497 -0.0141
    1W        W26114   8.921   1.750   8.682 -0.1740 -0.2733  0.1966
    1W        W26115   2.884  25.751   1.646  0.1245  0.5379 -0.0079
    1W        W26116  23.006  15.058   0.250  0.0309 -0.0102  0.0837
    1W        W26117  14.471  18.780   1.205  0.0106 -0.1815 -0.1671
    1W        W26118  25.033   6.019   0.660 -0.0990  0.4079  0.0417
    1W        W26119  11.789  18.760   9.320  0.0446 -0.2816  0.1895
    1W        W26120   4.084  14.317   9.358 -0.1053  0.0684 -0.0378
    1W        W26121  26.969   6.723   7.633 -0.3225 -0.0113 -0.0684
    1W        W26122  14.220  19.473   2.390  0.0682 -0.1019 -0.0496
    1W        W26123   5.784  11.528   9.915  0.1574 -0.1988 -0.1837
    1W        W26124  15.651   9.449   9.300  0.0734  0.2056  0.1976
    1W        W26125   3.052   1.869   6.304 -0.2000 -0.2101  0.0791
    1W        W26126  27.079   5.476   1.758  0.1700 -0.2138 -0.3381
    1W        W26127  13.839  19.538   8.232 -0.0281  0.1359 -0.2328
    1W        W26128  26.925  15.429   2.305 -0.3461 -0.3415  0.0293
    1W        W26129  23.570  12.214   9.500  0.0029 -0.0521  0.2597
    1W        W26130   5.220  11.253   0.683  0.0004 -0.0600  0.0135
    1W        W26131  19.764  15.465   8.937  0.1064  0.1195  0.0803
    1W        W26132  15.510   0.502   0.077 -0.2131 -0.2826 -0.1227
    1W        W26133   6.153  28.370   8.641 -0.1467  0.0875 -0.0760
    1W        W26134  26.342  16.521   0.470  0.1476  0.3113 -0.0845
    1W        W26135  26.693  12.993   1.096  0.0991 -0.1678  0.2352
    1W        W26136  19.362  27.680   9.726  0.2903  0.1519  0.1116
    1W        W26137  10.913  14.799   8.420  0.4193  0.1381 -0.1137
    1W        W26138   3.065  16.255   1.154  0.2456  0.0061 -0.0796
    1W        W26139  20.683  10.772   0.313 -0.2016 -0.1310 -0.1520
    1W        W26140   9.342  24.995   0.766  0.0318 -0.0118  0.1458
    1W        W26141   2.120   6.354   1.938  0.3650  0.0313  0.0589
    1W        W26142  11.682  15.652   2.002 -0.2627 -0.0696 -0.1120
    1W        W26143  28.049   4.647   1.450  0.0311  0.1613 -0.3047
    1W        W26144  18.344  17.657   2.667 -0.0149 -0.1935 -0.0069
    1W        W26145  20.680  15.707   7.967 -0.1910  0.0914 -0.0987
    1W        W26146  22.356   1.366   1.993  0.0626  0.1629  0.3248
    1W        W26147   1.148  21.589   0.734 -0.1996  0.1178 -0.0849
    1W        W26148  11.013  28.288   8.637  0.1239  0.2323  0.3161
    1W        W26149   8.406  20.547   7.109 -0.1653  0.3914  0.1605
    1W        W26150   8.973  26.598   7.996 -0.0077  0.2704 -0.0143
    1W        W26151  19.055   5.555   8.580  0.0517 -0.1924 -0.1023
    1W        W26152   4.688  11.366   8.127  0.0707 -0.0237 -0.0989
    1W        W26153   3.902  13.641   7.710  0.1105 -0.0795 -0.0974
    1W        W26154   7.989  20.801   6.273  0.1257 -0.1454  0.0091
    1W        W26155  20.761   0.839   1.105  0.1414 -0.1018  0.0577
    1W        W26156  13.854   3.385   3.020  0.1454  0.2592 -0.0219
    1W        W26157   8.751  24.222   6.983  0.2088 -0.0315  0.0360
    1W        W26158   4.850  18.768   1.358  0.0825  0.1209  0.2059
    1W        W26159  26.715   5.057   7.470  0.0254  0.1598  0.0482
    1W        W26160  12.901   6.324   8.805 -0.1022  0.0425 -0.0437
    1W        W26161  13.693  22.400   8.767 -0.2727  0.1447  0.0445
    1W        W26162  28.072  12.630   2.475 -0.1076  0.2163 -0.0638
    1W        W26163  21.248   6.714   1.166  0.2269 -0.2552  0.0792
    1W        W26164   9.261  24.519   6.588 -0.0360  0.1557  0.2461
    1W        W26165   8.376  13.748   7.664  0.1258  0.1233 -0.0460
    1W        W26166   5.731   6.238   1.947  0.3890 -0.0792  0.1269
    1W        W26167   5.815  15.657   1.228 -0.0151  0.0584  0.0072
    1W        W26168   5.090  28.054   0.556  0.0155 -0.0810  0.0323
    1W        W26169   1.418   6.948   7.941 -0.0435 -0.2184 -0.0637
    1W        W26170   7.603  13.349   1.850  0.1301 -0.0322  0.0366
    1W        W26171  24.253   8.054   1.430 -0.2309 -0.0162 -0.0659
    1W        W26172  21.339   6.723   9.199 -0.1118  0.0678  0.2532
    1W        W26173  15.653  22.895   3.407 -0.2070  0.0285 -0.3477
    1W        W26174  23.036   4.867   0.920 -0.1122 -0.0160  0.1991
    1W        W26175   7.725   4.839   9.349  0.1407 -0.0321  0.0577
    1W        W26176  27.077   1.154   7.242 -0.0259  0.0544 -0.1839
    1W        W26177  20.338  24.111   1.331  0.1473  0.0519 -0.0214
    1W        W26178  26.953  16.513   0.546  0.0549 -0.1066 -0.2462
    1W        W26179  13.244   0.313   2.931  0.0095  0.1706 -0.4383
    1W        W26180  10.804  19.688   7.445 -0.0157 -0.1231 -0.0561
    1W        W26181  23.269  22.165   8.174 -0.1212  0.2453 -0.1730
    1W        W26182   3.005  21.456   0.120  0.1731 -0.0747  0.2929
    1W        W26183   3.988   0.624   3.369 -0.2360 -0.0005  0.1561
    1W        W26184  26.582  17.065   9.499  0.1145  0.3115  0.0626
    1W        W26185   1.857   7.584   3.322  0.2243  0.1218  0.4178
    1W        W26186  10.696   4.474   7.899  0.0639 -0.1913 -0.2411
    1W        W26187  25.281  10.461   8.316 -0.2219 -0.0488 -0.0895
    1W        W26188  10.925   4.518   9.071 -0.0457  0.2060  0.0862
    1W        W26189  22.326   7.128   8.798  0.2779 -0.0459  0.1922
    1W        W26190   5.095  20.483   0.645  0.0867  0.0240  0.0873
    1W        W26191   6.563  25.417   8.189 -0.0240  0.2633 -0.1932
    1W        W26192   2.288  12.825   1.833 -0.0677 -0.3561 -0.2637
    1W        W26193  28.573  19.685   0.466  0.1090  0.0748 -0.3296
    1W        W26194  13.751  18.300   1.261  0.0330 -0.2819  0.1573
    1W        W26195  24.201  24.961   7.481 -0.1367  0.0015 -0.0704
    1W        W26196  11.466  26.919   2.008 -0.1945  0.1967  0.0463
    1W        W26197  15.618   9.213   2.477  0.0600  0.0959 -0.1051
    1W        W26198   2.081  23.501   7.866  0.1654  0.3177  0.1331
    1W        W26199  16.919   1.958   8.528 -0.5685 -0.2974  0.1965
    1W        W26200   0.063  28.126   9.278 -0.0027 -0.6958  0.1001
    1W        W26201   6.567  11.237   3.292  0.3652 -0.0393  0.1200
    1W        W26202  27.503  25.541   3.197  0.2190  0.1603  0.0003
    1W        W26203  25.977  16.179   2.327 -0.0431 -0.0457 -0.3561
    1W        W26204  17.597  11.168   8.995  0.0744  0.1502  0.1831
    1W        W26205   0.388  18.428   1.576  0.0456  0.1976  0.3225
    1W        W26206  24.339   9.464   1.792  0.1396  0.0506 -0.0554
    1W        W26207  13.521  19.769   9.289  0.1787  0.0782  0.0946
    1W        W26208   7.485  23.045   7.047 -0.0165 -0.0736 -0.0897
    1W        W26209  25.912   4.746   2.980 -0.2038 -0.1406  0.1488
    1W        W26210  21.282   8.182   9.773 -0.2720 -0.0965 -0.0932
    1W        W26211  19.558   3.111   8.535  0.0064  0.1590  0.0198
    1W        W26212  22.474  23.851   1.301  0.2538  0.4858 -0.0054
    1W        W26213  13.936  26.518   9.340  0.0650 -0.0378 -0.0878
    1W        W26214  20.324  26.636   2.612 -0.2154  0.0439  0.1802
    1W        W26215  24.443  27.077   9.098  0.1723 -0.0429 -0.0662
    1W        W26216   5.313  17.484   2.355  0.0221 -0.0087 -0.0460
    1W        W26217  11.077  10.720   1.178  0.3199  0.2768 -0.2790
    1W        W26218  23.866   7.905   7.599  0.0158  0.1093  0.0793
    1W        W26219   9.410   2.743   9.038  0.3442 -0.3421 -0.0498
    1W        W26220  14.313   5.039   3.255  0.0503 -0.2523 -0.1809
    1W        W26221  24.719  13.678   0.562  0.0019  0.0060  0.0624
    1W        W26222  18.452  28.027   8.345 -0.1425  0.0551 -0.2164
    1W        W26223  28.318  19.973   7.787 -0.0659 -0.3992  0.0532
    1W        W26224  12.282  20.482   1.314 -0.1956 -0.0376 -0.0977
    1W        W26225  10.952  12.207   9.832 -0.0756 -0.1140  0.0049
    1W        W26226  25.290  13.014   0.422 -0.1096 -0.2025  0.0868
    1W        W26227   4.648  11.715   8.589  0.0121  0.0147  0.3416
    1W        W26228  28.451  27.294   2.942 -0.0042 -0.3067 -0.1477
    1W        W26229  27.696  11.072   2.189 -0.0235 -0.2699  0.3631
    1W        W26230  27.328  24.162   1.733  0.1288  0.2996 -0.1553
    1W        W26231   9.341  11.840   9.892  0.2555 -0.0799  0.1322
    1W        W26232  14.056   0.356   9.113 -0.2094  0.0491  0.0370
    1W        W26233  14.149  14.843   0.285  0.2046  0.0930 -0.0612
    1W        W26234   8.156   6.974   0.976  0.1498 -0.1143 -0.0792
    1W        W26235  18.245  21.616   9.804  0.1764  0.1920  0.2545
    1W        W26236  14.709   9.557   9.541  0.0257 -0.1307 -0.0662
    1W        W26237  12.658   0.574   9.019  0.2438  0.0781  0.1892
    1W        W26238  18.548  14.966   1.450 -0.0261  0.0129  0.5403
    1W        W26239  10.219  22.526   7.606  0.0463  0.0252 -0.0112
    1W        W26240  28.642   9.162   7.561 -0.1393  0.2205  0.2617
    1W        W26241  20.547  15.627   0.901  0.2009 -0.0232  0.0694
    1W        W26242  24.366  23.739   1.344  0.1982 -0.2677  0.3699
    1W        W26243   1.385   5.347   7.330  0.1928 -0.1892  0.0049
    1W        W26244  11.524  11.747   2.740 -0.0647 -0.1076 -0.0194
    1W        W26245  12.596  11.857   1.915  0.1123 -0.2735 -0.1169
    1W        W26246  28.010   0.435   1.287  0.0042 -0.1798  0.2265
    1W        W26247  23.645   6.285   5.966 -0.0431  0.0077 -0.0351
    1W        W26248   1.852  24.711   0.107  0.2280  0.2797 -0.1464
    1W        W26249  19.445   1.330   9.961 -0.0814 -0.1378  0.1452
    1W        W26250  23.390  27.094   1.842  0.1138 -0.0510 -0.0901
    1W        W26251  23.125   9.395   9.686 -0.2434 -0.1947 -0.2485
    1W        W26252  15.906   0.568   9.269  0.1248 -0.2608 -0.2031
    1W        W26253  10.255   9.138   8.645 -0.0155 -0.1886 -0.3103
    1W        W26254  11.275  26.781   6.527 -0.0020  0.0389 -0.2394
    1W        W26255  22.336  22.368   0.967  0.2612  0.1276 -0.0028
    1W        W26256  20.654   2.458   2.434  0.0669 -0.0371  0.0596
    1W        W26257   1.651  25.294   7.188  0.0865 -0.1872 -0.0405
    1W        W26258  24.085  11.316   0.004 -0.2464 -0.0565  0.1728
    1W        W26259  23.836   7.366   2.141 -0.2100  0.1340 -0.2962
    1W        W26260  25.752  15.533   7.612  0.1865  0.0822  0.1638
    1W        W26261  21.492  17.869   9.064  0.2691  0.1711 -0.0564
    1W        W26262  25.651  24.971   2.393  0.1871 -0.2427  0.2234
    1W        W26263   9.339  21.052   1.541  0.0305  0.0625 -0.2148
    1W        W26264   1.892   7.415   8.849  0.0365  0.0183  0.1626
    1W        W26265  26.057  20.296   8.130  0.0678 -0.0804 -0.0524
    1W        W26266  17.319  24.805   9.281 -0.0115  0.0887  0.2516
    1W        W26267  22.473  15.901   2.337 -0.5387  0.2327 -0.1450
    1W        W26268   3.458  22.736   6.363 -0.1626 -0.2670  0.0022
    1W        W26269   1.544  20.250   6.555 -0.0785 -0.0069  0.0596
    1W        W26270   6.388  10.712   1.161  0.1048 -0.0009  0.3366
    1W        W26271   7.049  15.006   7.400 -0.0159  0.0222  0.2788
    1W        W26272   4.822  26.249   9.236 -0.2301 -0.2294 -0.1411
    1W        W26273  11.358  13.380   9.915  0.1629  0.0205 -0.0683
    1W        W26274  21.975   4.078   2.071 -0.0061 -0.0583  0.1296
    1W        W26275   8.923   9.927   3.353 -0.2072  0.1006  0.1485
    1W        W26276  17.319  22.938   9.679  0.0524 -0.0630 -0.0045
    1W        W26277  14.169  21.540   1.079  0.2040  0.1718  0.0996
    1W        W26278  10.266  23.459   8.887  0.4906  0.3677 -0.1542
    1W        W26279   9.241  10.554   0.647  0.3180 -0.2518  0.2936
    1W        W26280  10.133  26.771   8.900 -0.0265 -0.0776  0.2887
    1W        W26281  19.378  20.355   7.894  0.0193 -0.1249 -0.1244
    1W        W26282  27.710  18.134   7.410  0.1545 -0.0028  0.0615
    1W        W26283  17.781   5.305   8.253  0.1170  0.3870 -0.1483
    1W        W26284  15.689  13.880   9.197  0.0382  0.3653  0.1022
    1W        W26285  14.730   1.861   2.771  0.0428 -0.0782  0.0449
    1W        W26286   5.630   7.053   9.093  0.0188 -0.1915 -0.0680
    1W        W26287  25.569   8.548   2.524 -0.1680 -0.0134  0.3411
    1W        W26288  26.780  20.944   0.572  0.0767 -0.1159 -0.2534
    1W        W26289   3.883   7.326   3.275 -0.1237  0.3567  0.0846
    1W        W26290  22.681  23.558   1.624  0.1121  0.1121  0.0150
    1W        W26291  10.624  24.895   7.828  0.1047  0.0669  0.0846
    1W        W26292  12.772   5.917   1.636  0.0444 -0.0088  0.0134
    1W        W26293  26.038  28.188   9.449 -0.0091 -0.0407 -0.0130
    1W        W26294  22.648  10.462   7.447 -0.0003 -0.0348  0.0754
    1W        W26295   8.791  12.291   9.936  0.2773 -0.0827  0.1360
    1W        W26296   1.130  24.345   8.513  0.0882 -0.1555  0.1682
    1W        W26297  27.813  24.866   8.626 -0.1427  0.0712 -0.3835
    1W        W26298  21.745  20.148   8.392  0.0584 -0.0596  0.0794
    1W        W26299  14.816  24.172   2.870  0.3859  0.1826  0.2044
    1W        W26300  22.103  24.539   1.731  0.0872  0.2112  0.0414
    1W        W26301   7.129  11.724   0.812  0.0740  0.0094  0.0420
    1W        W26302   0.929  27.668   7.925 -0.1482 -0.1979  0.0071
    1W        W26303  11.848   0.522   8.788  0.2828 -0.0325 -0.0229
    1W        W26304  13.356   1.707   1.872  0.2001  0.1671 -0.0183
    1W        W26305  14.300  23.557   2.205 -0.0791 -0.2493  0.3226
    1W        W26306  23.979  12.419   7.527  0.2571  0.1512  0.1283
    1W        W26307  12.377   8.967   2.880 -0.0341  0.3103  0.0899
    1W        W26308  16.320  20.731   3.580 -0.0074  0.0906  0.0773
    1W        W26309  15.305  13.126   8.880 -0.2186  0.2388 -0.1346
    1W        W26310  14.197  10.842   9.431  0.1920 -0.3160  0.0297
    1W        W26311   9.447   5.058   0.801  0.0518 -0.4331  0.1091
    1W        W26312  27.780  18.966   7.921  0.5344  0.0498 -0.1145
    1W        W26313  13.570  11.359   1.382 -0.2757 -0.3041  0.0780
    1W        W26314  21.911  26.137   1.786 -0.1041 -0.0645  0.3471
    1W        W26315  11.034   6.706   7.203  0.0037  0.0021 -0.3417
    1W        W26316  14.278  12.299   8.161  0.2899 -0.0405  0.0566
    1W        W26317   8.698  16.364   2.336 -0.1734 -0.2888 -0.2687
    1W        W26318   1.247  13.414   6.907 -0.0231  0.0346  0.1766
    1W        W26319  27.244   7.509   6.199  0.1550 -0.2180  0.1432
    1W        W26320  21.619  10.643   1.655  0.3048  0.1466  0.2962
    1W        W26321   6.443  15.042   8.074  0.0273  0.0396  0.0978
    1W        W26322  27.976   2.743   6.943  0.1347  0.0851 -0.0960
    1W        W26323  26.441  13.111   0.639  0.0589  0.1747  0.1501
    1W        W26324  20.067  24.673   7.654  0.0250 -0.4572 -0.2052
    1W        W26325   6.044  20.624   9.802 -0.0530 -0.0914 -0.1870
    1W        W26326   2.956   9.355   7.849  0.1068  0.3816 -0.0005
    1W        W26327  26.192  16.851   7.037 -0.4025 -0.1122  0.2924
    1W        W26328  28.481   3.931   1.970 -0.1055  0.1718  0.1849
    1W        W26329   2.864  21.485   7.568 -0.1348  0.0834 -0.0726
    1W        W26330  27.999  26.742   1.959  0.3847 -0.4272 -0.1789
    1W        W26331   7.169   6.491   0.928  0.1323 -0.2070  0.0433
    1W        W26332  10.056   1.468   3.083  0.0615  0.2062  0.1830
    1W        W26333  24.497  13.792   0.086 -0.0957 -0.0877  0.1016
    1W        W26334  12.584   8.438   8.565  0.3061 -0.2164 -0.2663
    1W        W26335  20.398   5.272   3.375  0.0070  0.1757 -0.0544
    1W        W26336  14.590  19.538   0.212 -0.2824 -0.1071  0.0121
    1W        W26337  10.210  15.496   8.150  0.2101 -0.1948 -0.0435
    1W        W26338  12.145   8.487   9.861 -0.0416  0.2292  0.0237
    1W        W26339   1.932  24.848   7.292  0.1094 -0.2221 -0.0950
    1W        W26340   8.556  11.569   2.683 -0.0925  0.1827  0.2569
    1W        W26341  21.483  28.571   1.640 -0.2367  0.0879 -0.0284
    1W        W26342  23.636   1.796   1.952 -0.0347 -0.2478 -0.1818
    1W        W26343   4.431   0.866   2.048 -0.0209 -0.1005  0.2427
    1W        W26344  19.445  16.280   8.425  0.0174  0.2138 -0.3845
    1W        W26345   5.518  24.682   9.442  0.1350 -0.2324  0.2040
    1W        W26346   1.438  22.596   8.407 -0.1140 -0.0398 -0.0800
    1W        W26347  24.020  28.157   7.309  0.0450  0.0863  0.1832
    1W        W26348  13.778  27.090   0.856  0.0005 -0.1615  0.1454
    1W        W26349   0.652  22.274   8.953  0.0411  0.2447  0.0831
    1W        W26350  26.949   6.967   7.191  0.0142  0.1710 -0.1134
    1W        W26351  15.547  21.581   2.274 -0.1203  0.0043  0.0687
    1W        W26352  25.002  13.377   1.313  0.0346  0.2553  0.0500
    1W        W26353   6.029  19.947   8.662  0.1627  0.0519 -0.0904
    1W        W26354  21.205   1.688   9.352 -0.0749  0.0069  0.3933
    1W        W26355   2.245   9.414   7.458  0.0910 -0.0480  0.1829
    1W        W26356  25.768  18.021   6.574  0.0704  0.2885 -0.0387
    1W        W26357   2.417  26.038   0.843  0.0569  0.0433  0.3549
    1W        W26358   6.794  28.131   2.021 -0.0503  0.1131  0.2793
    1W        W26359  15.909  25.409   8.648  0.2414  0.2776  0.3476
    1W        W26360   3.605  11.908   2.482 -0.1842  0.0987 -0.1738
    1W        W26361   3.517  13.116   2.412  0.0861  0.2206 -0.2255
    1W        W26362  21.375  28.377   9.954 -0.0480 -0.7126 -0.0651
    1W        W26363  27.597   7.030   9.063 -0.1816 -0.1622 -0.1095
    1W        W26364  27.525  24.263   9.525 -0.0319  0.0574  0.0526
    1W        W26365  21.740  27.543   7.512  0.0788  0.2344 -0.0661
    1W        W26366  26.670  20.718   8.751  0.0683  0.2128  0.1707
    1W        W26367  21.339  27.906   2.314 -0.2435 -0.2540  0.1782
    1W        W26368   4.472   9.079   2.531 -0.2416 -0.1534  0.1785
    1W        W26369  28.565  12.942   0.800 -0.1268 -0.3739  0.0944
    1W        W26370  23.272  19.232   8.463 -0.0450  0.0138 -0.0855
    1W        W26371   2.232  20.041   7.210  0.0432  0.4479  0.4546
    1W        W26372  14.924  17.580   1.941  0.0923 -0.1635  0.2367
    1W        W26373  20.133   4.626   8.570  0.2843  0.0723  0.0759
    1W        W26374  20.412  10.839   9.406 -0.1416  0.2574 -0.1254
    1W        W26375  25.992   7.345   1.897 -0.0830 -0.0502 -0.0664
    1W        W26376   0.334  15.025   9.421 -0.3729 -0.3695  0.2355
    1W        W26377  26.751  20.476   0.220 -0.0250  0.1201  0.0714
    1W        W26378  12.597  16.323   7.195  0.1685 -0.0628 -0.1639
    1W        W26379  16.026   6.716   2.632  0.2441 -0.2402  0.2622
    1W        W26380  14.261  11.491   1.138 -0.1342 -0.1266  0.2953
    1W        W26381   2.493  19.126   0.235 -0.1201 -0.1159  0.0045
    1W        W26382  21.377  28.477   7.052  0.0766  0.1592 -0.0060
    1W        W26383  13.850   9.915   2.410  0.0683 -0.0878 -0.5810
    1W        W26384  28.124  10.751   6.390  0.0276  0.3624 -0.2003
    1W        W26385  23.323   4.107   6.661 -0.1525  0.0179  0.1298
    1W        W26386  21.697  15.380   8.292 -0.1826 -0.0585 -0.0824
    1W        W26387   3.627  19.664   9.788  0.0986  0.1246  0.2448
    1W        W26388  25.422  21.573   0.357 -0.0159  0.0443  0.0662
    1W        W26389  16.814  21.269   9.537 -0.0910  0.0349 -0.1910
    1W        W26390  11.477   3.234   1.725  0.1524  0.1269  0.2637
    1W        W26391   3.437  24.226   0.679 -0.0820 -0.1485  0.1674
    1W        W26392   4.920  18.325   8.689  0.0620  0.0943  0.1109
    1W        W26393   1.341   1.387   6.128 -0.0480  0.0338  0.1545
    1W        W26394  13.109  21.309   8.129 -0.0139 -0.1661  0.1278
    1W        W26395  18.771  26.806   0.575 -0.0862 -0.2621  0.2681
    1W        W26396  22.572  13.468   0.314 -0.4370 -0.2278 -0.2602
    1W        W26397  27.776   2.225   9.625 -0.0539 -0.0354 -0.0433
    1W        W26398  19.899   1.307   1.576 -0.1049 -0.2783  0.1463
    1W        W26399  18.958   7.646   7.229  0.0172  0.0273 -0.0509
    1W        W26400  24.108   7.867   7.112  0.0763  0.0259 -0.2511
    1W        W26401   8.191  14.352   7.922 -0.0598  0.0235 -0.0850
    1W        W26402   1.424   9.674   0.388  0.2764  0.1147  0.1018
    1W        W26403   0.800   9.945   8.497 -0.2602 -0.1511  0.3643
    1W        W26404  14.705  24.004   1.108  0.0637  0.3375  0.0450
    1W        W26405  11.689   0.972   7.204  0.3147  0.0557 -0.4804
    1W        W26406  10.977  10.522   7.742 -0.1204  0.0228 -0.3081
    1W        W26407  21.264  14.311   1.284  0.1569  0.1385  0.1529
    1W        W26408  26.299   9.875   2.812  0.2674  0.4880 -0.0584
    1W        W26409  10.977  13.577   3.172  0.0897  0.0229 -0.0126
    1W        W26410  10.121   2.756   7.614  0.0691 -0.0039 -0.0951
    1W        W26411  18.857   6.110   9.594 -0.2741 -0.3259  0.0823
    1W        W26412   0.175   9.754   7.279  0.0832  0.4664 -0.1742
    1W        W26413  16.775   4.884   1.501  0.1597  0.2774 -0.2755
    1W        W26414  23.484  22.371   2.754  0.0399  0.1938 -0.1973
    1W        W26415  10.874   8.188   9.498  0.0805 -0.1198  0.0294
    1W        W26416  25.687  11.518   1.269  0.0210  0.1051  0.0463
    1W        W26417  22.439  13.868   0.633 -0.1383 -0.1641 -0.0066
    1W        W26418  19.333   7.261   8.292  0.5159  0.1037 -0.0570
    1W        W26419   0.797   3.103   9.861 -0.0590  0.2737  0.0884
    1W        W26420   2.713  16.865   8.580 -0.1093 -0.1562  0.0432
    1W        W26421   4.336   5.214   1.681  0.0717  0.1224  0.1621
    1W        W26422  15.313  24.325   2.689  0.2037 -0.4130 -0.2623
    1W        W26423  22.290   4.497   0.742  0.2733  0.0827 -0.2908
    1W        W26424  17.182  16.944   2.660 -0.0141  0.0719 -0.0225
    1W        W26425  16.332  11.215   1.550  0.2333 -0.1176  0.4681
    1W        W26426   1.918   4.122   1.314 -0.1619  0.1177  0.1670
    1W        W26427  23.608  26.960   6.731  0.0284 -0.1695 -0.1260
    1W        W26428   8.513  16.871   7.452  0.2082 -0.1366 -0.2235
    1W        W26429  17.075  11.357   7.934 -0.2414  0.0610 -0.2564
    1W        W26430  22.256  20.254   8.458  0.1872 -0.1576 -0.1235
    1W        W26431  17.493  28.577   0.978 -0.2148 -0.2666  0.0129
    1W        W26432  14.790  14.737   0.895 -0.0292  0.3400 -0.0251
    1W        W26433  17.800   7.907   1.096 -0.1700 -0.2237  0.0801
    1W        W26434   0.661   6.321   6.999  0.1332 -0.4450  0.1062
    1W        W26435   3.254   7.662   1.989  0.2148  0.0318 -0.3971
    1W        W26436   4.041   4.046   2.584 -0.0295 -0.0176  0.3988
    1W        W26437   1.757   1.527   9.727 -0.0407  0.1777  0.1457
    1W        W26438  13.506   2.150   9.498  0.3790  0.0577 -0.0330
    1W        W26439  11.244  19.103   9.809 -0.1405  0.0634 -0.0113
    1W        W26440   5.213   0.957   8.162 -0.3930  0.0727 -0.3944
    1W        W26441  22.011  20.308   3.093 -0.1880 -0.0787 -0.2490
    1W        W26442  12.905   1.032   7.343  0.0567 -0.0074  0.0401
    1W        W26443   2.571   4.497   2.913  0.0409  0.0688  0.3091
    1W        W26444  14.025  20.111   1.554 -0.0349 -0.0448 -0.0134
    1W        W26445  28.046  13.756   1.377 -0.2361  0.0631 -0.5801
    1W        W26446  21.654   0.386   2.901  0.1587 -0.0995  0.4234
    1W        W26447  25.325  22.385   1.967  0.2053  0.1635 -0.2658
    1W        W26448  25.996   5.803   6.357  0.2101 -0.2596  0.1934
    1W        W26449   2.145  13.128   5.819 -0.2028 -0.3914  0.0496
    1W        W26450  16.094  18.474   3.095  0.1391 -0.0449 -0.1677
    1W        W26451  28.051  14.329   7.058  0.3350 -0.0641 -0.2254
    1W        W26452  20.936  12.195   2.623  0.4473 -0.0768 -0.2935
    1W        W26453  16.213  25.766   3.216 -0.2124 -0.0760 -0.1163
    1W        W26454  19.582  16.933   2.549 -0.0052  0.4649  0.1403
    1W        W26455  17.837  25.891   7.685  0.1962 -0.3138  0.2519
    1W        W26456   4.822   7.571   2.031 -0.0548  0.1427  0.0241
    1W        W26457   6.462  22.900   2.052 -0.0823 -0.1074  0.1083
    1W        W26458  16.295  19.427   9.842 -0.1791 -0.0481  0.0995
    1W        W26459  21.259   0.056   7.985 -0.2167 -0.3302 -0.3502
    1W        W26460  15.218   5.108   3.250 -0.0445  0.2572  0.3186
    1W        W26461  15.715   8.150   2.305 -0.1920  0.1835 -0.0685
    1W        W26462  15.693  16.272   1.978 -0.0148  0.0293  0.0158
    1W        W26463   6.558  23.614   5.905  0.3714 -0.4777 -0.0767
    1W        W26464  17.657  25.085   1.147 -0.1272 -0.1662  0.0949
    1W        W26465  23.583  26.995   9.907  0.0248 -0.0779  0.1157
    1W        W26466  11.710  16.569   0.504 -0.1744 -0.1395 -0.1343
    1W        W26467   9.074   1.989   1.502 -0.1842 -0.2240  0.1187
    1W        W26468  20.747  18.229   2.787 -0.0452  0.0777 -0.1028
    1W        W26469   8.565   1.008   7.548  0.0485  0.3466 -0.0268
    1W        W26470  27.813  25.058   2.280 -0.4469  0.0723 -0.1016
    1W        W26471  14.499  14.284   8.211  0.1275 -0.0324 -0.1488
    1W        W26472   0.527  24.879   2.674 -0.0937  0.0585 -0.0742
    1W        W26473  11.311  13.943   8.426 -0.0061 -0.0610 -0.2053
    1W        W26474  16.504   5.419   7.215 -0.0671  0.1530 -0.0824
    1W        W26475   3.534   0.836   9.631  0.0011 -0.1793 -0.0516
    1W        W26476   2.324  26.024   7.661 -0.1923 -0.1492 -0.1743
    1W        W26477   0.047   6.597   0.246 -0.1516  0.0139  0.2461
    1W        W26478  25.041  17.203   9.820  0.1934  0.1386 -0.0534
    1W        W26479  24.727  16.033   3.218  0.0184 -0.0204 -0.3033
    1W        W26480   8.156  17.567   9.777  0.1187  0.0947  0.0701
    1W        W26481   8.675  28.216   8.302  0.0943 -0.2804  0.2210
    1W        W26482   3.837  14.985   9.750 -0.2508 -0.2981 -0.2450
    1W        W26483  26.387   7.328   0.605 -0.1415  0.0559 -0.0178
    1W        W26484   6.322   3.228   8.519 -0.0956 -0.3362  0.0410
    1W        W26485   1.393   5.324   2.192 -0.1020 -0.0687  0.1160
    1W        W26486   4.267  18.826   9.609  0.0852  0.0364 -0.1003
    1W        W26487  28.678  20.108   9.671  0.2709  0.3331  0.0649
    1W        W26488   6.264  11.886   3.175 -0.0207 -0.2156 -0.2206
    1W        W26489   1.518   3.775   6.611  0.0361 -0.0871 -0.2081
    1W        W26490  24.404   9.077   2.476 -0.0982  0.0275  0.0931
    1W        W26491  17.155  12.413   0.388 -0.0524  0.0271  0.1662
    1W        W26492  19.005   6.968   9.495  0.0341 -0.0529  0.0140
    1W        W26493   5.563  18.370   0.744 -0.1671  0.2982 -0.1031
    1W        W26494  27.767  12.836   7.409 -0.1211  0.1928 -0.1009
    1W        W26495   6.169   5.961   7.582  0.2877  0.0404 -0.0678
    1W        W26496  23.502  19.719   8.550 -0.1983  0.0839  0.1343
    1W        W26497  15.067  18.874   8.212  0.0616 -0.0305  0.1147
    1W        W26498   4.908  21.849   8.013 -0.0303 -0.1280  0.2311
    1W        W26499  11.912   0.890   3.206 -0.0580  0.0921 -0.1145
    1W        W26500   3.896   6.349   2.584 -0.0833  0.0632 -0.2700
    1W        W26501  21.650  10.428   7.396 -0.3052 -0.2449  0.0086
    1W        W26502  12.910   2.335   1.853  0.2059  0.3471  0.5764
    1W        W26503  14.587   3.914   9.137 -0.1682  0.1039 -0.1299
    1W        W26504  15.340   6.649   8.424  0.1303 -0.2276  0.2032
    1W        W26505  14.663  18.525   8.282 -0.0062  0.0878  0.2951
    1W        W26506   6.780  24.374   9.060  0.0715  0.4193 -0.1439
    1W        W26507  27.428  20.312   8.132 -0.3546 -0.0908 -0.0503
    1W        W26508   4.425  11.100   1.991 -0.1042  0.0312 -0.2623
    1W        W26509  18.437   1.306   8.785 -0.2568  0.0528  0.2134
    1W        W26510   9.117   1.984   2.254  0.2690  0.3389 -0.2634
    1W        W26511   3.155  11.503   1.827  0.3105 -0.0917  0.0721
    1W        W26512  18.338  28.357   1.235  0.3652 -0.1400 -0.1684
    1W        W26513  15.768  14.151   0.447 -0.0828  0.0759 -0.2395
    1W        W26514   4.918   9.246   7.679 -0.0039 -0.3375  0.1192
    1W        W26515   3.209  25.080   0.230 -0.3266  0.0033  0.2754
    1W        W26516  20.244  19.481   1.124 -0.0805  0.0852  0.1652
    1W        W26517  24.882  28.230   2.086  0.0795 -0.0154 -0.1707
    1W        W26518  20.019  10.140   9.543 -0.1330  0.1394 -0.1286
    1W        W26519  24.459   9.797   9.496 -0.0088 -0.2286 -0.1267
    1W        W26520  25.864  11.086   2.481 -0.0312 -0.2976  0.0157
    1W        W26521  26.693   3.140   9.831 -0.0629 -0.0678  0.1077
    1W        W26522   2.198  14.204   7.296 -0.1158  0.0740 -0.0031
    1W        W26523  20.129  15.653   2.205 -0.3529  0.0470  0.4495
    1W        W26524  20.203  18.689   8.046  0.0497  0.1045  0.1131
    1W        W26525   8.966   7.184   1.572  0.1232 -0.2422  0.2363
    1W        W26526  17.165  23.466   8.362  0.0168 -0.2953  0.3164
    1W        W26527   6.236   0.551   8.398  0.0173  0.1850 -0.0140
    1W        W26528  10.252  15.359   1.971 -0.0048  0.2269 -0.0154
    1W        W26529   9.800   6.471   8.239 -0.0536  0.2841 -0.1995
    1W        W26530   4.907  23.117   9.156 -0.2139 -0.2848 -0.0756
    1W        W26531  11.993  17.108   2.294  0.4709 -0.0612 -0.2309
    1W        W26532  11.043   2.991   3.476 -0.2244  0.2547 -0.0756
    1W        W26533  14.490  25.499   7.739 -0.0395 -0.1054  0.0803
    1W        W26534  23.073   3.444   6.038  0.1946 -0.0590 -0.1458
    1W        W26535  22.644  16.542   2.323 -0.1712 -0.1360  0.2647
    1W        W26536  27.955  20.494   8.166  0.0130  0.3746  0.1584
    1W        W26537  20.004  20.803   9.282  0.1222  0.1103  0.0185
    1W        W26538   7.862  15.393   8.048  0.4163  0.1838 -0.2664
    1W        W26539   2.848  26.732   1.527  0.4925 -0.2513  0.1877
    1W        W26540  12.424   3.991   1.206  0.1172  0.1196 -0.0724
    1W        W26541   4.040  12.405   0.677 -0.0332  0.0262 -0.1446
    1W        W26542   6.183   0.269   9.560 -0.0780 -0.1549 -0.1471
    1W        W26543  21.537   1.816   0.707 -0.0379 -0.0077 -0.0890
    1W        W26544  27.818  25.523   7.285 -0.4259 -0.2287  0.1905
    1W        W26545  25.869   9.321   7.771 -0.1334  0.1389 -0.0202
    1W        W26546   2.832   7.698   7.157 -0.1715 -0.1135 -0.1720
    1W        W26547   1.839   7.871   2.930  0.0562  0.2897 -0.0800
    1W        W26548  27.522  15.260   0.442 -0.1031 -0.1563  0.1226
    1W        W26549   4.203   6.436   8.167 -0.0159 -0.1221 -0.0087
    1W        W26550  26.360  25.446   3.468 -0.0320 -0.0377 -0.0853
    1W        W26551  20.970  14.671   9.881  0.1273 -0.1227 -0.1027
    1W        W26552  22.157   3.589   8.169  0.1439  0.0418  0.1895
    1W        W26553  19.838  15.969   8.672  0.0794 -0.0700  0.2586
    1W        W26554   5.311  23.283   7.585 -0.0829  0.1033 -0.2133
    1W        W26555  14.275   1.089   7.841 -0.1524  0.2005 -0.0619
    1W        W26556  13.296  10.238   1.886 -0.0275 -0.1253  0.1778
    1W        W26557  17.128  21.171   3.623  0.0944 -0.1500  0.2502
    1W        W26558   9.696   5.257   9.747 -0.0489  0.3155 -0.0845
    1W        W26559   4.708  19.673   1.353  0.1809  0.2467 -0.3365
    1W        W26560  22.603   1.265   2.567  0.0940 -0.0632 -0.1698
    1W        W26561  13.726  27.105   1.438  0.2392  0.3851 -0.2086
    1W        W26562  27.546  14.402   7.079 -0.0296 -0.1178 -0.1227
    1W        W26563  24.068  13.495   0.925 -0.0960  0.2210  0.2933
    1W        W26564  13.478  19.266   8.477 -0.1153  0.1169 -0.1568
    1W        W26565  14.456  21.180   8.548  0.1270 -0.0042  0.2529
    1W        W26566  18.277   1.726   8.394  0.1015 -0.2123 -0.3465
    1W        W26567  15.475  27.991   3.107  0.0521 -0.0137  0.0342
    1W        W26568  13.309  19.496   2.169  0.2411  0.0633  0.0962
    1W        W26569  13.569  14.951   9.293 -0.1924 -0.2385 -0.0164
    1W        W26570   3.158  23.143   6.585 -0.1384 -0.0908 -0.0211
    1W        W26571  22.033   1.332   6.863  0.2983 -0.0667  0.1858
    1W        W26572  11.041  22.309   0.771 -0.1117  0.1586 -0.1208
    1W        W26573  17.455   9.983   0.221 -0.2054 -0.1062 -0.1513
    1W        W26574   2.828  13.744   8.879  0.0919 -0.0394  0.1467
    1W        W26575   8.723   3.863   9.021 -0.0738 -0.1380 -0.0375
    1W        W26576   1.296   3.010   9.096  0.1684 -0.0089 -0.2059
    1W        W26577   3.388   0.965   6.929 -0.0927 -0.0097  0.0608
    1W        W26578  28.016   6.646   0.714  0.0650  0.0586 -0.0979
    1W        W26579  27.381  10.779   7.306 -0.1017  0.1029 -0.2408
    1W        W26580   5.516  18.623   7.579  0.0687 -0.0665  0.1636
    1W        W26581   2.622  23.082   6.663  0.0281 -0.1574 -0.3004
    1W        W26582  19.509  24.276   9.141  0.0631  0.1727  0.0300
    1W        W26583  19.917  16.853   9.029 -0.1556  0.2032 -0.2853
    1W        W26584  11.790  24.765   6.649 -0.2655  0.0443  0.2297
    1W        W26585  26.404  27.466   9.716  0.0110  0.2297 -0.0178
    1W        W26586   9.724   3.340   8.255 -0.1068 -0.1390  0.1030
    1W        W26587   5.950  21.777   8.617 -0.2874  0.0838 -0.0347
    1W        W26588   6.329   0.253   2.628 -0.2235  0.0768 -0.1233
    1W        W26589   4.735  13.810   9.952 -0.0280 -0.1616 -0.2531
    1W        W26590   3.687   3.269   2.035 -0.2662 -0.0694  0.0632
    1W        W26591   4.951  26.789   7.079  0.2828  0.0465  0.2592
    1W        W26592   6.495   6.251   1.702 -0.0529 -0.1015 -0.0571
    1W        W26593   3.132  14.870   0.362  0.2801  0.3738  0.0363
    1W        W26594  11.736  11.556   8.150  0.0889  0.1183 -0.3141
    1W        W26595  12.436  27.268   1.797 -0.2273 -0.1321  0.0520
    1W        W26596  18.011  11.643   2.227  0.2831  0.0610  0.0431
    1W        W26597   4.482  21.502   7.614 -0.0809  0.1387  0.1234
    1W        W26598  12.473  27.618   4.445  0.1922 -0.0329  0.1053
    1W        W26599  26.667  24.238   8.546  0.1122 -0.3625  0.0518
    1W        W26600   5.346   2.576   3.428  0.2245 -0.1289 -0.0928
    1W        W26601  15.966   3.031   2.379  0.1708  0.3144  0.3216
    1W        W26602  21.623  16.379   7.334  0.0847 -0.1262  0.1655
    1W        W26603   4.998   4.638   2.482 -0.0045 -0.0333 -0.1006
    1W        W26604  17.645   8.454   8.690 -0.0640  0.1747  0.0570
    1W        W26605  19.750  16.026   8.005  0.0593 -0.2712  0.0833
    1W        W26606  16.194   7.618   4.076 -0.1258  0.4375  0.3062
    1W        W26607  11.086   5.607   9.576  0.2498  0.0131 -0.0650
    1W        W26608   7.364  26.590   9.653 -0.0060  0.1445  0.0982
    1W        W26609  25.930  28.058   7.491 -0.2036  0.2353  0.0669
    1W        W26610   2.647  10.757   8.219 -0.1132  0.1228 -0.1083
    1W        W26611  12.596  20.770   2.141 -0.0741  0.0538  0.0098
    1W        W26612  27.634   8.733   0.220 -0.0661 -0.0457 -0.0688
    1W        W26613   6.391  22.000   8.336 -0.2032 -0.0663  0.1281
    1W        W26614  10.934   6.070   0.319  0.0581  0.0856  0.1139
    1W        W26615   9.361  16.948   2.356  0.2582  0.2389 -0.1149
    1W        W26616   7.055  24.130   8.664  0.2272  0.2933  0.0707
    1W        W26617   1.733  28.329   2.527  0.0639  0.2336 -0.2126
    1W        W26618  27.676  13.889   7.848  0.2839 -0.0857  0.0075
    1W        W26619   4.803   4.600   9.748  0.0180 -0.4987  0.1826
    1W        W26620   7.130   3.461   1.649 -0.2782  0.0401 -0.2330
    1W        W26621  11.124   0.117   0.437 -0.2065  0.0912  0.0504
    1W        W26622  24.137  15.449   1.858 -0.2786 -0.1667  0.0984
    1W        W26623   0.642   9.937   6.117 -0.0894 -0.3284  0.0346
    1W        W26624  13.156  25.751   8.188  0.2114 -0.5063 -0.0905
    1W        W26625  25.789  25.360   2.678 -0.0165  0.1283 -0.0790
    1W        W26626   4.289  14.342   8.515  0.2102  0.0498 -0.2854
    1W        W26627   9.989  22.295   1.391 -0.0818 -0.2681 -0.0419
    1W        W26628   2.159   1.324   0.032  0.0420 -0.4418 -0.0569
    1W        W26629  16.755  22.381   1.171  0.0877 -0.0499  0.0471
    1W        W26630   7.149  16.506   6.406  0.1323 -0.3484  0.2376
    1W        W26631  21.403  11.547   9.371 -0.1645 -0.0615 -0.0904
    1W        W26632  12.963   5.004   3.124 -0.0888 -0.0911  0.1601
    1W        W26633   5.439   2.121   7.811 -0.1541 -0.2841  0.2423
    1W        W26634  25.301  21.632   1.656 -0.1606 -0.0275  0.0185
    1W        W26635   1.967  25.740   7.431 -0.3338  0.2352 -0.1693
    1W        W26636  24.153  20.971   8.452 -0.5015 -0.2439 -0.3645
    1W        W26637  16.374  18.675   0.389 -0.2945  0.0379  0.2492
    1W        W26638  20.049  27.263   3.534  0.4751 -0.0124 -0.2204
    1W        W26639  23.843   8.429   9.215 -0.0707 -0.1892 -0.4111
    1W        W26640   2.933  28.580   7.330 -0.1963  0.2036 -0.0084
    1W        W26641   5.774  23.573   1.306  0.1463  0.0168 -0.0121
    1W        W26642  24.241   0.254   2.083  0.1694 -0.1099 -0.1202
    1W        W26643   6.150  26.847   3.442  0.0803 -0.1975  0.0156
    1W        W26644  15.953  27.576   1.040  0.0938  0.0437  0.0977
    1W        W26645   0.970   6.538   7.821  0.2181 -0.2865  0.1959
    1W        W26646   9.479   8.466   9.865 -0.0014  0.0353  0.0800
    1W        W26647  28.058  21.169   2.029  0.1445  0.1071 -0.0306
    1W        W26648  13.332  15.350   1.879 -0.0032  0.1856 -0.1726
    1W        W26649  14.661  11.866   1.328 -0.0921 -0.0420  0.1215
    1W        W26650  13.054  10.591   2.779  0.0077 -0.2346 -0.1769
    1W        W26651  11.105   4.866   7.993 -0.1392 -0.4505  0.1843
    1W        W26652   1.990  11.805   8.133 -0.4553  0.2634  0.4183
    1W        W26653  12.413  23.703   0.614 -0.1494 -0.0491  0.0675
    1W        W26654   6.421   6.645   8.744  0.0480 -0.0763  0.0812
    1W        W26655   7.255  25.470   7.019 -0.1931 -0.0890  0.0405
    1W        W26656  26.769  22.701   6.982  0.1222  0.3285 -0.2578
    1W        W26657  10.451   4.007   1.474  0.0183  0.0412 -0.2161
    1W        W26658  27.683   2.526   1.069  0.0256 -0.1714  0.1331
    1W        W26659   8.963   5.191   8.485 -0.0179 -0.2396 -0.1930
    1W        W26660   5.271   8.737   2.271  0.0323  0.0470  0.0113
    1W        W26661  21.363  15.232   0.785 -0.0111 -0.0015  0.1280
    1W        W26662  24.934  10.045   9.449 -0.2710  0.4468 -0.1615
    1W        W26663  15.533  13.606   7.239 -0.1594  0.0545  0.0723
    1W        W26664   7.525  22.084   0.546  0.0892  0.1663  0.0854
    1W        W26665  23.174  10.419   7.185  0.0185  0.0044  0.0207
    1W        W26666  26.724  10.776   0.953  0.0898 -0.2725 -0.2066
    1W        W26667  25.423  19.728   1.753 -0.2038 -0.0921 -0.2450
    1W        W26668  21.511   2.987   2.177  0.0775 -0.1387  0.1734
    1W        W26669   4.687   5.017   9.551  0.4021 -0.1222  0.0243
    1W        W26670   1.592   5.386   9.240 -0.2834  0.2807  0.2251
    1W        W26671   3.951   2.477   2.553 -0.1844 -0.0641 -0.2141
    1W        W26672   5.528  18.337   8.082 -0.1132 -0.3067  0.2901
    1W        W26673  12.374  22.849   0.091 -0.1139  0.1924 -0.1315
    1W        W26674   7.992  23.723   9.633 -0.1719 -0.0903  0.2337
    1W        W26675   1.051   0.518   9.392 -0.0680  0.0495  0.3042
    1W        W26676  19.633  11.804   1.685  0.2090 -0.0919 -0.0960
    1W        W26677  13.336   7.355   9.506  0.1935  0.0385  0.0037
    1W        W26678  22.688  11.248   1.519  0.3752 -0.1581 -0.3264
    1W        W26679   1.592  23.427   0.426  0.2388  0.0457  0.0601
    1W        W26680  27.759  19.022   8.617 -0.0798 -0.1201  0.1113
    1W        W26681  19.695  28.168   8.056  0.4297  0.2720 -0.4551
    1W        W26682  23.244   4.272   2.769  0.2249 -0.2714 -0.0032
    1W        W26683  10.836   7.025   0.136  0.2105  0.2505  0.2186
    1W        W26684   8.117   6.785   3.786 -0.4240  0.3035 -0.0975
    1W        W26685  13.098   1.281   3.978 -0.0825 -0.0509  0.0101
    1W        W26686   6.435  17.954   9.951 -0.1133  0.0865  0.0808
    1W        W26687  15.732  23.458   1.530  0.0895  0.0548 -0.1736
    1W        W26688  28.006   1.686   8.643 -0.0525  0.0951  0.2809
    1W        W26689  19.776  12.612   2.126 -0.1214 -0.0926  0.1017
    1W        W26690   1.736  15.200   8.432 -0.0923 -0.0924 -0.1505
    1W        W26691  19.761  19.560   1.127  0.0868  0.0245  0.2856
    1W        W26692   2.684   5.110   9.847 -0.0450 -0.0498 -0.0806
    1W        W26693  27.878   1.440   1.414 -0.0724 -0.0416  0.1110
    1W        W26694   6.555  19.589   9.228  0.2709 -0.1686 -0.0252
    1W        W26695   4.916  11.348   8.840  0.0979 -0.0754  0.1203
    1W        W26696   0.239  20.505   7.998 -0.2047  0.0603  0.1640
    1W        W26697   3.440  15.408   1.114  0.2483 -0.2429  0.2462
    1W        W26698   3.027  13.134   6.717 -0.1146 -0.1377  0.4160
    1W        W26699   9.090  15.662   9.665  0.1897  0.1787  0.3981
    1W        W26700  24.185  20.207   1.609 -0.1480 -0.0488  0.2536
    1W        W26701  22.161   4.754   7.968 -0.2204 -0.1413 -0.2033
    1W        W26702  10.253   0.027   8.459 -0.0551  0.2244  0.0168
    1W        W26703   6.648  12.972   1.363  0.2687 -0.0729 -0.2320
    1W        W26704  21.147  25.043   1.602  0.0320 -0.0776 -0.2084
    1W        W26705  28.291  26.119   8.965 -0.0851  0.0432 -0.0721
    1W        W26706  10.768   2.299   2.227 -0.2643 -0.0897 -0.1290
    1W        W26707  11.908   9.907   2.799  0.1524 -0.0375 -0.1264
    1W        W26708  18.833  11.186   9.591  0.0395  0.0734  0.1364
    1W        W26709  25.945  16.166   1.263  0.2582  0.0819  0.0926
    1W        W26710   7.829  11.218   8.543  0.0130  0.1731  0.0576
    1W        W26711  11.964  11.164   0.203 -0.0039  0.1853  0.0899
    1W        W26712   5.497   8.099   6.808 -0.0287 -0.0655 -0.0707
    1W        W26713   6.182   3.605   0.026 -0.1082  0.0183  0.0542
    1W        W26714   2.909  12.523   8.868  0.0154 -0.0659  0.1158
    1W        W26715  23.680  28.442   1.438  0.2928 -0.0643 -0.2667
    1W        W26716  20.957  10.490   9.464 -0.0694  0.3442  0.0429
    1W        W26717  21.661  28.266   9.528  0.0436  0.0089  0.1884
    1W        W26718  12.224   3.781   1.623  0.3508  0.0758  0.1706
    1W        W26719  21.697  19.928   3.028 -0.1088  0.3372 -0.2264
    1W        W26720  26.597   0.642   1.423  0.0472  0.4865 -0.2305
    1W        W26721   1.285  20.182   2.156  0.1707 -0.0655  0.0929
    1W        W26722  26.493   7.772   8.952 -0.1927  0.0806  0.2377
    1W        W26723  19.685  13.465   9.636  0.1767 -0.3431  0.0653
    1W        W26724   3.677  14.900   8.236  0.2628 -0.1697  0.1682
    1W        W26725  18.449  11.694   8.022 -0.0159 -0.0786 -0.2444
    1W        W26726   3.419   6.255   9.360  0.0808  0.0972  0.3610
    1W        W26727  10.918  16.464   8.082  0.0824  0.0191 -0.0123
    1W        W26728  28.401   3.071   7.777  0.3368  0.1118 -0.1429
    1W        W26729  10.841   8.528   9.860  0.0991 -0.0295  0.2539
    1W        W26730  17.202  11.059   1.649  0.2257 -0.2750 -0.1108
    1W        W26731   6.238  17.863   1.796 -0.1240  0.2519  0.1399
    1W        W26732  24.278   5.064   6.991  0.1433  0.1136 -0.4005
    1W        W26733  15.197  12.095   2.552  0.3124 -0.0724 -0.1892
    1W        W26734   5.350  19.004   1.500 -0.0196  0.1179  0.1483
    1W        W26735  20.100  27.365   1.977 -0.3107  0.2421  0.1458
    1W        W26736  23.179  11.367   9.952 -0.0444  0.2586 -0.2490
    1W        W26737  27.103   6.642   1.699 -0.4056  0.5450 -0.0945
    1W        W26738  27.577   7.944   2.161  0.0899  0.0509 -0.0402
    1W        W26739   2.505  14.278   9.383 -0.1282  0.2410  0.1289
    1W        W26740  21.015   6.331   1.336  0.3804  0.0205 -0.0379
    1W        W26741   5.923   2.692   9.916 -0.3179 -0.1266 -0.2473
    1W        W26742  13.458  26.911   1.965  0.1467  0.0599 -0.0237
    1W        W26743  19.486   2.171   7.836  0.0856  0.2911 -0.0142
    1W        W26744  15.897  18.830   2.095 -0.1300 -0.0863  0.0263
    1W        W26745  22.986  15.002   0.842  0.1334 -0.0035  0.1360
    1W        W26746  24.231  18.144   8.295  0.2322 -0.1774 -0.2703
    1W        W26747  23.287  21.546   7.523 -0.1509  0.2290 -0.1398
    1W        W26748  12.215   2.826   9.437 -0.1133 -0.2894  0.2859
    1W        W26749  13.226  18.320   2.935  0.0541  0.0305 -0.0174
    1W        W26750  25.634   0.687   0.981 -0.0926  0.1112 -0.0914
    1W        W26751   1.894  13.424   8.563  0.0772 -0.1463 -0.0395
    1W        W26752  17.934  17.932   7.670 -0.1376  0.2513 -0.0052
    1W        W26753   5.807  24.012   6.888  0.1771  0.1645  0.1021
    1W        W26754  19.499  27.171   9.596 -0.1402 -0.3415 -0.1477
    1W        W26755   1.309   0.126   7.869 -0.0110  0.0551  0.0858
    1W        W26756   2.149   7.052   8.601  0.2103  0.4628  0.0442
    1W        W26757   5.182   6.551   2.654  0.2931  0.1675 -0.2846
    1W        W26758  20.958   5.440   3.876 -0.0821 -0.0496  0.1211
    1W        W26759   0.635  11.588   6.397 -0.1114 -0.1009  0.2913
    1W        W26760   6.928  10.186   9.033  0.2499 -0.1503  0.0172
    1W        W26761  19.448  28.241   1.985 -0.0946  0.1812 -0.0967
    1W        W26762  18.924  22.422   2.536  0.0623  0.2969 -0.1016
    1W        W26763  21.715   1.834   8.385  0.1699 -0.0000 -0.0997
    1W        W26764  18.831  13.502   7.617  0.2398  0.0145 -0.2246
    1W        W26765   6.470  23.506   1.063  0.1238  0.1318 -0.0115
    1W        W26766  10.273   5.443   8.187  0.1927  0.0710 -0.2216
    1W        W26767  15.748   5.097   7.499 -0.1594 -0.0354  0.0403
    1W        W26768  28.284  20.459   7.033 -0.4026  0.5862  0.1496
    1W        W26769  18.257   6.259   9.331  0.2878 -0.0360  0.1103
    1W        W26770  19.433   0.068   6.991  0.0015 -0.1375 -0.2821
    1W        W26771   9.871  14.599   1.814  0.0556 -0.1215  0.4049
    1W        W26772  11.091   5.056   2.667 -0.0644  0.2512  0.0028
    1W        W26773  23.618  19.875   2.450 -0.2064  0.0704  0.0346
    1W        W26774   3.880  28.595   1.453 -0.0679 -0.2928 -0.0966
    1W        W26775   3.367  12.720   7.976  0.1555  0.1049  0.2784
    1W        W26776   2.706  15.158   9.524  0.0784  0.0708 -0.1726
    1W        W26777   3.903  13.527   9.432  0.3361  0.1795 -0.1577
    1W        W26778  23.179  17.767   9.795  0.1614  0.0252 -0.1951
    1W        W26779  18.501   1.684   2.627  0.0504  0.2526  0.0434
    1W        W26780  24.200  12.784   9.388  0.1725 -0.0737  0.0547
    1W        W26781  26.362  11.121   2.265  0.0587  0.1896  0.0785
    1W        W26782  28.636  14.564   8.269 -0.0341 -0.0347  0.0197
    1W        W26783  21.633   1.519   0.348 -0.0936  0.2463 -0.0389
    1W        W26784   1.071   6.811   8.279 -0.1046  0.1141 -0.4157
    1W        W26785  15.893  12.134   9.336 -0.0787 -0.0541 -0.0772
    1W        W26786  13.262   4.204   3.008  0.0143 -0.2711 -0.2574
    1W        W26787   0.475   1.205   9.770  0.1659 -0.0854  0.2225
    1W        W26788  24.501  12.088   8.332  0.3126 -0.2618 -0.0432
    1W        W26789   9.679  15.540   9.626  0.0648 -0.0859  0.0914
    1W        W26790  13.862  11.105   9.776  0.1870 -0.0009 -0.0783
    1W        W26791   0.297  15.338   8.323 -0.3364 -0.0739  0.2097
    1W        W26792  21.470   6.644   2.398  0.0977  0.1659  0.1856
    1W        W26793   0.102  16.794   8.019 -0.3660  0.1651  0.0357
    1W        W26794   5.464  16.172   0.080  0.0863  0.2266 -0.1538
    1W        W26795  23.265   5.744   8.805 -0.1864 -0.0466 -0.0747
    1W        W26796  22.139  18.622   8.878 -0.1010 -0.1040 -0.0456
    1W        W26797   6.201  21.504   8.238  0.1651 -0.1462  0.1566
    1W        W26798   9.370   9.662   8.130  0.3392 -0.2277 -0.2819
    1W        W26799  11.818  24.458   3.595  0.1117 -0.0397  0.0475
    1W        W26800  23.810  21.473   7.332 -0.4010  0.1067  0.3410
    1W        W26801  21.949  21.989   3.526 -0.5025  0.2072 -0.1126
    1W        W26802   1.329   3.622   1.208 -0.1009 -0.1732  0.2752
    1W        W26803   0.184   5.134   0.540 -0.1326 -0.1745  0.2498
    1W        W26804  21.767   1.026   0.360 -0.0922  0.3979  0.0841
    1W        W26805  26.265  27.425   1.993  0.1112 -0.3207  0.0146
    1W        W26806  27.153  26.108   0.249  0.2415 -0.0477 -0.0583
    1W        W26807  14.661  17.260   9.202  0.0300 -0.2178 -0.3048
    1W        W26808   5.178   2.767   0.888  0.3219 -0.0450 -0.2702
    1W        W26809   5.795  24.144   8.906  0.0679 -0.2423  0.0875
    1W        W26810  10.937  12.534   2.362  0.1523  0.0937  0.1281
    1W        W26811  26.376  21.967   1.290  0.1313 -0.1297 -0.2627
    1W        W26812  10.236  28.396   0.458 -0.0278  0.2375 -0.1591
    1W        W26813   0.653  24.064   7.943  0.0439 -0.1139 -0.2002
    1W        W26814   9.785  14.710   2.298 -0.0887 -0.0461  0.1936
    1W        W26815  18.797  15.521   1.977 -0.2075  0.1786 -0.0288
    1W        W26816  13.613   3.794   1.970 -0.1941  0.1057  0.3598
    1W        W26817  23.685   4.780   9.810 -0.0453  0.2158  0.0701
    1W        W26818   8.111  27.159   9.333 -0.1068 -0.2935  0.0142
    1W        W26819   5.820   1.386   9.656  0.2412  0.3572 -0.0651
    1W        W26820   4.823  13.659   7.225  0.1170 -0.4134  0.1192
    1W        W26821  22.625   4.816   3.659 -0.1341  0.1724  0.2167
    1W        W26822   6.037  13.775   2.309  0.1311 -0.2068  0.2676
    1W        W26823  28.322  13.726   9.027 -0.0603  0.0129  0.1255
    1W        W26824   2.405  27.553   1.615 -0.1231 -0.2492  0.0553
    1W        W26825   2.715   8.824   1.218  0.0246 -0.1534 -0.0730
    1W        W26826   0.128  25.617   3.012 -0.3360  0.0909  0.1675
    1W        W26827  27.569   8.480   2.158  0.0276  0.2143 -0.3239
    1W        W26828  18.408  18.523   1.519  0.2191 -0.0751  0.0799
    1W        W26829  25.231  20.303   0.339 -0.0749 -0.1069 -0.0003
    1W        W26830   2.927  12.826   9.325 -0.1065 -0.2370  0.2067
    1W        W26831  17.182  10.114   9.647  0.3469 -0.1285  0.0962
    1W        W26832  26.110   7.660   6.883  0.0810  0.0782 -0.1011
    1W        W26833  25.323   1.638   7.266  0.1852  0.2077  0.0274
    1W        W26834  21.029  17.540   9.189  0.2173  0.1518  0.3720
    1W        W26835   8.932   3.384   1.044 -0.0987  0.1158  0.1711
    1W        W26836   7.588  24.064   6.177  0.0692  0.3126  0.0964
    1W        W26837   4.822  23.584   8.635  0.1633 -0.3179  0.2144
    1W        W26838   9.474  24.329   0.240 -0.0553  0.0533 -0.2493
    1W        W26839  26.745  19.108   8.050  0.3479  0.0435 -0.2153
    1W        W26840  21.666  26.732   8.423 -0.1040  0.0563 -0.0197
    1W        W26841  26.161  13.142   7.282 -0.2592 -0.4806 -0.0671
    1W        W26842   5.961  12.768   9.637 -0.2995 -0.2375 -0.0394
    1W        W26843  22.047  13.749   1.852 -0.2999 -0.1032 -0.0829
    1W        W26844   3.199  22.858   5.874  0.0320  0.3865  0.4277
    1W        W26845   7.948  14.654   8.294  0.4616  0.0930 -0.0088
    1W        W26846  28.109   6.293   0.250 -0.0605 -0.0829  0.1350
    1W        W26847  10.256   4.420   8.198 -0.0911  0.0636  0.2235
    1W        W26848  22.230  13.448   8.207 -0.0854  0.0323 -0.0085
    1W        W26849   9.130   4.454   1.582 -0.0067 -0.4429  0.0139
    1W        W26850  19.405   1.726   8.093  0.1646 -0.0176  0.1034
    1W        W26851  25.416   4.465   2.213  0.1752 -0.1727  0.0797
    1W        W26852  18.276  27.207   9.104 -0.2999  0.2130  0.0159
    1W        W26853   5.853   0.253   8.275  0.1460  0.2472  0.3057
    1W        W26854   6.306  19.646   0.040 -0.2361  0.2036  0.2526
    1W        W26855  28.042  19.517   8.063  0.0281 -0.0404  0.4130
    1W        W26856  19.062   4.016   7.297  0.0872 -0.2285  0.1761
    1W        W26857   7.449  17.735   0.834  0.0333  0.2236  0.0921
    1W        W26858  24.486  13.457   1.772  0.0310  0.1678 -0.1674
    1W        W26859  25.784   0.669   3.077 -0.1012  0.2003  0.0657
    1W        W26860  19.462   1.273   2.938 -0.3212 -0.1446  0.1285
    1W        W26861  10.846  13.720   9.240  0.2122  0.3820 -0.1826
    1W        W26862  16.868   4.339   0.150 -0.0601  0.0836 -0.0002
    1W        W26863  18.889   4.655   7.915 -0.1056 -0.0582  0.1476
    1W        W26864  15.771  22.511   9.018 -0.3081 -0.0292 -0.2339
    1W        W26865  27.898   2.145   2.576 -0.1637  0.2787  0.0220
    1W        W26866  13.946  18.555   0.359 -0.0702 -0.2282  0.0777
    1W        W26867  18.395  22.589   9.331 -0.2516 -0.1030  0.0223
    1W        W26868  10.463  13.113   1.642 -0.0592  0.0412  0.0108
    1W        W26869  20.279  20.440   1.530 -0.2418 -0.1637  0.2286
    1W        W26870   7.790   6.495   2.475  0.0127  0.2043  0.2027
    1W        W26871  24.551   3.762   7.262 -0.0113  0.2370 -0.1596
    1W        W26872  18.820   5.477   8.121 -0.0231 -0.0908  0.1007
    1W        W26873  17.870   7.381   2.651  0.1259  0.1016  0.1634
    1W        W26874  25.268  26.280   2.866  0.1350  0.1358  0.1065
    1W        W26875  22.912  21.846   7.955 -0.2194  0.5954  0.2812
    1W        W26876  24.996  27.035   6.792 -0.2266 -0.0275 -0.1048
    1W        W26877   3.835   0.477   8.049 -0.0806  0.0982 -0.1787
    1W        W26878  25.547   9.440   1.881 -0.1970  0.0771 -0.0999
    1W        W26879   5.655  11.877   7.439 -0.0130  0.2126 -0.2893
    1W        W26880  26.191  18.274   7.310 -0.0525 -0.1118 -0.0822
    1W        W26881  14.629  27.990   2.268 -0.0753  0.2178  0.0910
    1W        W26882  22.015   6.517   8.604 -0.0064 -0.0272  0.0202
    1W        W26883   7.403  12.647   2.515  0.0220 -0.0801 -0.3905
    1W        W26884  22.419  25.922   7.700  0.0333 -0.1228 -0.1342
    1W        W26885  22.830  22.320   8.000 -0.1065 -0.6509 -0.1760
    1W        W26886  19.697   4.976   0.557  0.1720 -0.0408  0.1710
    1W        W26887  16.544  22.278   8.667  0.1414  0.0646 -0.1460
    1W        W26888  23.696  17.075   7.246 -0.0556 -0.1316 -0.0704
    1W        W26889  18.196  16.313   3.133 -0.1289 -0.2095  0.0959
    1W        W26890  19.107  24.497   7.460  0.0932  0.2661  0.2210
    1W        W26891  18.337   6.523   3.183 -0.1374  0.0680 -0.0507
    1W        W26892   9.137  18.423   6.622 -0.1816 -0.0738 -0.0068
    1W        W26893   3.404  28.598   1.205  0.0561 -0.0258 -0.3377
    1W        W26894  26.305   5.098   0.733 -0.0775  0.0351  0.3061
    1W        W26895  10.587   6.237   3.535  0.2822 -0.1011  0.0230
    1W        W26896   2.609   9.267   8.237 -0.0901  0.1054  0.1108
    1W        W26897  18.310  17.059   9.098 -0.1053  0.0308  0.0047
    1W        W26898  24.029   7.887   0.298  0.1440 -0.1466  0.0451
    1W        W26899   6.475  23.286   7.195  0.2804 -0.1077 -0.0998
    1W        W26900   3.696  12.998   0.639 -0.1736  0.0549  0.1020
    1W        W26901   1.694   3.970   0.465 -0.0263 -0.1017  0.0639
    1W        W26902  16.197  19.749   3.499 -0.1586  0.1145  0.0468
    1W        W26903   8.778  22.951   0.662 -0.0737  0.2366  0.0419
    1W        W26904  21.128  11.682   3.402 -0.1000  0.0246  0.1240
    1W        W26905  17.465  25.990   9.909 -0.0709 -0.1826  0.1250
    1W        W26906  27.160  19.905   7.114 -0.3646  0.2530 -0.0727
    1W        W26907  14.674  27.949   7.110 -0.3133 -0.3598  0.0929
    1W        W26908   0.969   8.598   6.960 -0.0682  0.3005  0.3721
    1W        W26909   4.743   1.143   8.066 -0.1287 -0.0847 -0.3522
    1W        W26910   6.039  15.107   1.080  0.0377 -0.2235  0.2361
    1W        W26911  25.506  25.793   2.666 -0.1107 -0.1964  0.1636
    1W        W26912  22.038  12.537   9.317  0.2383  0.0503 -0.0929
    1W        W26913   8.276  10.808   9.685 -0.2887  0.3813  0.2363
    1W        W26914  28.433  14.083   1.113  0.1787 -0.0473 -0.0805
    1W        W26915   2.516   1.062   8.130  0.2153 -0.2864  0.0326
    1W        W26916   7.267  12.868   8.532 -0.1506 -0.0279 -0.1320
    1W        W26917   5.304  12.148   2.741  0.1987  0.0044  0.0335
    1W        W26918  27.269   4.441   7.111  0.0707  0.1695 -0.0490
    1W        W26919   7.286   2.733   0.150  0.1425 -0.1359 -0.1287
    1W        W26920  25.173   4.865   0.008 -0.1205 -0.1836  0.3256
    1W        W26921  27.714   4.114   8.355 -0.1899  0.2377  0.1076
    1W        W26922   7.417  12.300   8.686  0.3271  0.0212 -0.2300
    1W        W26923   0.002  26.634   9.279 -0.1686 -0.0424  0.1104
    1W        W26924  12.013   0.878   9.682  0.0554  0.0430  0.0622
    1W        W26925  21.027  22.407   0.699 -0.3852 -0.0428  0.0913
    1W        W26926  24.199   2.153   2.004 -0.2993 -0.1953  0.1282
    1W        W26927   8.272  25.826   0.267 -0.0352  0.1053  0.1018
    1W        W26928  19.927   2.052   9.000  0.1362 -0.0685 -0.3716
    1W        W26929  27.220  13.078   5.810 -0.1166 -0.1527  0.0727
    1W        W26930   9.377  17.195   7.192  0.0810  0.0772  0.2220
    1W        W26931  23.917  22.505   3.510 -0.0076  0.1175 -0.0264
    1W        W26932   4.626  17.779   1.279 -0.1415  0.0109 -0.0590
    1W        W26933  23.512   6.110   1.654 -0.2792 -0.0108 -0.1048
    1W        W26934  23.017  25.142   1.391  0.1986  0.1343 -0.0541
    1W        W26935  15.137  10.646   7.804  0.2161 -0.2308 -0.1982
    1W        W26936  28.162  21.060   1.047  0.1201 -0.0783 -0.0816
    1W        W26937   7.407   2.276   0.012  0.0129 -0.2837 -0.2012
    1W        W26938   7.819  22.710   6.493 -0.0953  0.3004 -0.0274
    1W        W26939  13.262  13.397   9.056  0.0305  0.0815 -0.5304
    1W        W26940  14.118  15.934   7.929 -0.0475 -0.1775  0.0361
    1W        W26941  26.188   5.238   7.691  0.4509  0.2397  0.2275
    1W        W26942  11.427   5.362   4.110 -0.2750  0.2809  0.2466
    1W        W26943  13.200   8.477   0.271 -0.1653  0.1583 -0.2146
    1W        W26944   9.623  16.081   2.391 -0.1294 -0.0688  0.1653
    1W        W26945  17.106   4.246   0.948 -0.2049 -0.3393 -0.4313
    1W        W26946  19.851  26.367   7.737  0.0610  0.2222  0.2055
    1W        W26947  28.564   6.530   2.342 -0.1977  0.2429 -0.3258
    1W        W26948  19.565  10.370   9.469  0.2021 -0.2789  0.1431
    1W        W26949   6.367  11.632   8.084 -0.0378  0.1674 -0.2895
    1W        W26950  24.062  20.768   2.187 -0.0162 -0.1985  0.1416
    1W        W26951   9.688  12.198   1.407  0.0587 -0.2163  0.1349
    1W        W26952  16.618   7.072   8.985 -0.0905 -0.4131  0.0559
    1W        W26953  23.352   5.625   8.308 -0.0300 -0.1898  0.1584
    1W        W26954  20.731  21.669   0.170  0.2335 -0.0765  0.1307
    1W        W26955  19.454  26.875   7.472  0.1523 -0.2375  0.0714
    1W        W26956   9.023   9.372   0.779 -0.1134  0.0390  0.0343
    1W        W26957  20.764  14.261   9.478  0.0191 -0.2690  0.1671
    1W        W26958  10.276   2.437   4.154 -0.2369  0.0005  0.2718
    1W        W26959  27.586  23.208   7.249  0.1028 -0.0880  0.0567
    1W        W26960   8.504  13.554   9.058  0.0142  0.4263  0.0831
    1W        W26961   9.087  19.094   2.258 -0.5231  0.0123 -0.2572
    1W        W26962  18.464   0.214   7.976  0.1876 -0.2173 -0.2259
    1W        W26963   0.159  27.535   2.315 -0.0646  0.0411  0.0427
    1W        W26964   6.500  18.142   8.725  0.0644  0.2082  0.0110
    1W        W26965   4.195   6.914   8.039  0.0398  0.0634 -0.3099
    1W        W26966  13.118   2.644   0.947 -0.1381 -0.2556  0.2278
    1W        W26967   9.733   0.368   2.315  0.0848  0.2570 -0.2506
    1W        W26968  27.244  17.008   6.593 -0.3669  0.1409 -0.0398
    1W        W26969   9.874  11.335   8.601 -0.0506 -0.0699  0.2607
    1W        W26970  26.249   3.851   7.624  0.1144  0.0979  0.2176
    1W        W26971   0.350  22.543   6.851 -0.2942  0.0969  0.0673
    1W        W26972  14.897   1.463   1.496  0.2197 -0.0715  0.0310
    1W        W26973   0.967  15.681   2.004  0.2092 -0.0877 -0.0348
    1W        W26974   6.425  18.204   6.159 -0.0369 -0.0819  0.2199
    1W        W26975   8.070  23.037   6.816 -0.1331  0.0134  0.0405
    1W        W26976  22.807   6.012   9.577 -0.0005 -0.4495  0.0105
    1W        W26977  15.183  15.552   8.858 -0.2329 -0.1184 -0.2669
    1W        W26978   5.621   9.968   7.640 -0.1355  0.0604 -0.0463
    1W        W26979  24.784  18.439   1.752  0.0120  0.1500 -0.2133
    1W        W26980  16.427  17.188   0.222 -0.3016 -0.1959  0.3381
    1W        W26981   7.764  23.172   1.246  0.0917 -0.0703  0.0549
    1W        W26982  17.291  20.210   9.307  0.3349 -0.0302 -0.0840
    1W        W26983  25.725   3.756   7.856 -0.3411 -0.0492 -0.2811
    1W        W26984  15.992   7.245   1.219  0.0548  0.0028  0.0372
    1W        W26985  26.484  28.234   0.724 -0.1899 -0.0751  0.1093
    1W        W26986   3.281  13.992   9.806 -0.0640  0.1354  0.2372
    1W        W26987   9.718  10.643   0.598 -0.0932 -0.4395 -0.0791
    1W        W26988  19.504  21.087   9.129 -0.1316 -0.0995 -0.0656
    1W        W26989  21.931   6.225   1.494 -0.0644 -0.0478  0.0241
    1W        W26990  27.044  11.399   8.821  0.1793 -0.0695  0.1932
    1W        W26991  13.476  15.394   8.724 -0.0983  0.0767  0.2229
    1W        W26992   1.262   5.709   0.194 -0.0717  0.0356  0.3950
    1W        W26993  22.342  25.195   2.935  0.0014  0.0952  0.1092
    1W        W26994  15.780  19.764   8.377  0.0015  0.1879  0.0063
    1W        W26995   8.489  21.492   8.739  0.1187  0.0110  0.0665
    1W        W26996   5.976   9.869   9.286 -0.2713 -0.0273 -0.0129
    1W        W26997  14.710  27.621   9.637 -0.0830 -0.2886 -0.2787
    1W        W26998   2.884   8.336   1.016 -0.0325 -0.1246  0.0934
    1W        W26999   1.424   4.600   3.336  0.0546  0.2470  0.0266
    1W        W27000  25.991  24.814   8.819 -0.1207  0.0920 -0.2410
    1W        W27001  12.741   4.391   2.829  0.0792 -0.1109 -0.2822
    1W        W27002  26.137  20.163   0.913 -0.2980 -0.0599  0.1836
    1W        W27003   3.898   1.866   0.855  0.0632 -0.1698 -0.0431
    1W        W27004   6.661  26.082   8.121  0.2998  0.4428 -0.1564
    1W        W27005  19.126   1.287   8.327 -0.3446 -0.1109 -0.3377
    1W        W27006   3.747  11.032   2.463  0.1899 -0.1474 -0.0034
    1W        W27007   5.065  10.400   7.247 -0.2435 -0.0338  0.0240
    1W        W27008   6.394  22.530   8.124 -0.1777 -0.0576 -0.0858
    1W        W27009  24.761  19.314   8.333 -0.0021  0.1147 -0.0012
    1W        W27010  21.357  18.243   0.818  0.1704 -0.0696  0.1736
    1W        W27011  17.166   7.254   9.083  0.1957 -0.1464  0.0486
    1W        W27012  10.059  22.156   8.510 -0.1838  0.0937  0.1698
    1W        W27013   4.869   4.103   8.800  0.1431  0.2252  0.1177
    1W        W27014  24.704  15.020   0.812  0.0880 -0.3869  0.0691
    1W        W27015  10.717  11.922   0.752  0.1880 -0.0301 -0.1740
    1W        W27016   6.708   8.304   2.794 -0.0936 -0.0080  0.3060
    1W        W27017  18.749   2.918   1.127  0.2637 -0.0163 -0.2010
    1W        W27018   9.567  19.792   7.758  0.0679  0.1066 -0.1516
    1W        W27019  26.209   5.600   9.847  0.1699 -0.1613  0.1939
    1W        W27020  24.177   0.508   9.797  0.0772 -0.0698 -0.2529
    1W        W27021  19.726  18.498   8.314  0.0979  0.0611  0.0322
    1W        W27022  28.460  25.067   7.561 -0.2160  0.0027  0.1447
    1W        W27023  18.394  17.659   0.231  0.4503  0.1924 -0.0498
    1W        W27024   1.358  23.819   7.199 -0.1448 -0.2768 -0.0242
    1W        W27025   9.493   2.481   8.249  0.1953  0.1773 -0.0153
    1W        W27026   1.492  21.944   6.952 -0.1824  0.2262  0.1190
    1W        W27027  20.631  27.747   3.243  0.0542  0.0770 -0.2421
    1W        W27028  14.435  20.480   7.807  0.0611  0.0458 -0.1259
    1W        W27029  24.734  16.160   7.808 -0.1380  0.0271 -0.0277
    1W        W27030  21.387  26.517   3.259  0.0697  0.0403  0.4522
    1W        W27031  24.846   5.560   0.571  0.1892  0.0390  0.0277
    1W        W27032  11.416  11.304   8.941 -0.1775  0.0556  0.2694
    1W        W27033   6.768  21.390   7.113  0.0700 -0.1119  0.1526
    1W        W27034  26.783  23.163   8.140 -0.0496 -0.2662  0.2472
    1W        W27035  10.947  15.745   9.353 -0.1573  0.2030 -0.0633
    1W        W27036   5.674   6.506   8.984 -0.1608 -0.1705 -0.2979
    1W        W27037   9.429   6.015   8.173  0.1734  0.2766 -0.0029
    1W        W27038  15.361   9.329   0.472 -0.0329  0.1219 -0.1691
    1W        W27039   9.586  23.855   5.995  0.1794 -0.2032  0.0319
    1W        W27040  22.903  19.291   7.993  0.0162  0.3957 -0.0207
    1W        W27041  15.759  23.605   7.798 -0.1268 -0.4489 -0.1621
    1W        W27042   5.603  26.298   6.369  0.0927 -0.0568  0.0054
    1W        W27043  27.383  14.351   0.288  0.0133  0.1634 -0.3679
    1W        W27044  12.947   5.688   9.145  0.2105 -0.3869 -0.0174
    1W        W27045   4.563  15.533   0.940  0.1904  0.2259  0.1185
    1W        W27046  14.137   6.725   8.802 -0.1445 -0.1406  0.2443
    1W        W27047  19.301   3.840   8.961  0.3141  0.0260  0.1219
    1W        W27048  18.349  24.649   8.403 -0.3086 -0.1716 -0.5086
    1W        W27049  10.369  22.937   2.360 -0.0534  0.0012  0.0771
    1W        W27050  14.848  10.719   3.106 -0.1374  0.0912  0.0986
    1W        W27051   9.330   1.234   9.189  0.0575  0.0836 -0.3495
    1W        W27052   3.079  28.568   9.065 -0.2394 -0.1713 -0.2701
    1W        W27053  25.269  26.461   1.899  0.1994  0.0477 -0.1919
    1W        W27054  21.895   0.571   0.499  0.3388 -0.0542  0.2755
    1W        W27055  28.557  10.168   7.514  0.2034 -0.0547  0.0467
    1W        W27056  20.447  12.910   0.610  0.1033 -0.2726 -0.0727
    1W        W27057  13.946  13.428   2.513 -0.0765 -0.3083  0.1312
    1W        W27058  21.671   7.136   9.382  0.1421 -0.1674  0.0677
    1W        W27059  18.985  15.501   0.229  0.0074 -0.0021  0.0221
    1W        W27060  16.998  21.607   7.485  0.0363 -0.5064 -0.2078
    1W        W27061   3.508  23.246   1.022 -0.0051 -0.2769  0.0066
    1W        W27062   7.515  17.789   6.940  0.3698 -0.0657 -0.3339
    1W        W27063   1.139  17.736   8.330  0.0826 -0.0733  0.2332
    1W        W27064  12.876  24.815   8.988  0.0062  0.1030 -0.0725
    1W        W27065  28.282  16.184   1.037  0.0005  0.2057  0.0559
    1W        W27066   6.613   3.945   2.489 -0.1693  0.3958  0.3335
    1W        W27067   8.279  17.300   1.183  0.2035 -0.0708 -0.1493
    1W        W27068   3.310  22.586   8.685 -0.0953  0.0509  0.1028
    1W        W27069   5.814  16.299   7.651 -0.0073 -0.0526  0.1907
    1W        W27070  11.693  20.385   9.607 -0.2918 -0.3566 -0.0031
    1W        W27071  26.189  25.547   9.696 -0.2703 -0.0565  0.3057
    1W        W27072  18.798   8.482   1.766  0.2919  0.3655  0.0176
    1W        W27073  10.369  24.518   7.387  0.2988 -0.2214 -0.1061
    1W        W27074  24.542   5.263   1.967 -0.0514 -0.0950 -0.2113
    1W        W27075   6.246   2.898   1.906 -0.0200  0.0884  0.3762
    1W        W27076  26.235  16.967   0.299 -0.2940 -0.1370 -0.0457
    1W        W27077  15.710   8.059   9.689  0.0652 -0.0106  0.1117
    1W        W27078  25.836   8.920   7.336  0.1261 -0.1734 -0.1491
    1W        W27079  20.084   7.723   8.027 -0.2926 -0.4008 -0.0580
    1W        W27080  15.870  19.768   9.656  0.0566  0.0397 -0.1372
    1W        W27081  10.995   6.823   0.696  0.1207 -0.2268  0.0964
    1W        W27082  18.263  12.296   9.189  0.2888 -0.0927 -0.3178
    1W        W27083  19.654  22.163   8.693  0.1206 -0.2628  0.1007
    1W        W27084  13.099  13.203   2.578 -0.1718  0.3331  0.3021
    1W        W27085  10.891  25.316   9.298 -0.1273  0.0543  0.0733
    1W        W27086  25.911   2.162   2.773  0.0214 -0.1438  0.0385
    1W        W27087   1.405  28.350   7.789 -0.0824  0.1222 -0.0471
    1W        W27088   8.046  20.261   6.224 -0.1044 -0.0715 -0.2479
    1W        W27089  22.075  15.340   1.299 -0.1009 -0.1462  0.0131
    1W        W27090  24.317  26.139   2.653 -0.2390  0.2133  0.0731
    1W        W27091  23.669  17.801   9.680  0.0851  0.1193  0.0524
    1W        W27092  10.087  21.791   1.335 -0.3079 -0.3788  0.1130
    1W        W27093  10.492  19.097   8.373 -0.2855 -0.0606 -0.1967
    1W        W27094   9.601  19.912   0.286 -0.2661  0.0244  0.0509
    1W        W27095  26.874  28.460   1.014 -0.1833  0.2862 -0.2840
    1W        W27096  21.123   6.984   9.619 -0.2414  0.0763 -0.1604
    1W        W27097  10.277  16.633   0.448 -0.2152  0.0627  0.0326
    1W        W27098  23.334  14.640   7.990 -0.3285  0.3402  0.1364
    1W        W27099  24.179  15.594   6.574 -0.1168 -0.0610  0.3382
    1W        W27100  13.575  15.984   7.581 -0.0559 -0.0760  0.2052
    1W        W27101  17.380   4.978   9.041 -0.0714 -0.1374 -0.0661
    1W        W27102  23.368  28.125   7.297 -0.0341  0.0899  0.0975
    1W        W27103   9.256  14.894   3.250 -0.0607 -0.1427  0.1152
    1W        W27104  25.116  10.775   2.260  0.2100  0.2616 -0.2624
    1W        W27105   1.962  25.299   0.322  0.0463  0.1853  0.0698
    1W        W27106   6.942  23.452   0.658  0.2795 -0.0264 -0.1186
    1W        W27107  27.910  25.462   1.570 -0.0625 -0.1504 -0.0132
    1W        W27108  13.069  13.858   9.301  0.1029 -0.0525 -0.3027
    1W        W27109  21.915   5.214   6.784 -0.3026  0.1774  0.0785
    1W        W27110  12.912   4.753   3.663  0.0983  0.1071 -0.0512
    1W        W27111  17.390  12.337   9.462 -0.2183  0.1018  0.2223
    1W        W27112   3.557  26.454   6.611 -0.3437 -0.1523  0.2154
    1W        W27113  27.434  21.544   0.723  0.0993 -0.1896 -0.1145
    1W        W27114  12.535  12.256   8.172 -0.1584 -0.0804  0.0343
    1W        W27115  23.375   0.122   2.077 -0.0137  0.0038 -0.0241
    1W        W27116   1.221   2.535   6.849 -0.2377 -0.3636 -0.1404
    1W        W27117  22.787   3.410   2.062  0.0648  0.1267 -0.1867
    1W        W27118  28.587  20.161   0.787  0.2491  0.0431  0.0615
    1W        W27119  17.403  12.092   0.023 -0.0271  0.0795  0.3866
    1W        W27120  27.687  27.876   2.786 -0.3200  0.1904 -0.1180
    1W        W27121  16.104  22.149   3.431  0.1892 -0.1627 -0.2690
    1W        W27122   4.369   2.433   8.719 -0.1963  0.1585 -0.1504
    1W        W27123  22.073  20.233   8.012  0.2911  0.1605 -0.2953
    1W        W27124  27.334   9.854   1.361  0.3057  0.1825 -0.0069
    1W        W27125  28.466   6.252   9.696  0.1446  0.0376 -0.0802
    1W        W27126   8.168  19.787   2.094 -0.0209 -0.0154  0.2857
    1W        W27127   8.825  11.760   3.161  0.0319  0.0165  0.0460
    1W        W27128  11.694  11.131   8.486  0.1487  0.2289  0.4219
    1W        W27129  28.241  16.441   2.196 -0.3854 -0.2193  0.2547
    1W        W27130  26.518  15.739   9.351 -0.2139  0.3785 -0.2161
    1W        W27131   8.570  11.410   8.881  0.1000 -0.0352  0.0412
    1W        W27132   4.061  16.054   6.794  0.1650 -0.2188 -0.1567
    1W        W27133  24.144  12.070   0.440  0.0745  0.1241 -0.2694
    1W        W27134  11.374   5.624   9.143 -0.0491 -0.0838  0.1362
    1W        W27135  18.388   7.734   9.124  0.1317 -0.3530  0.0271
    1W        W27136  27.268   3.519   7.670  0.2107  0.0524 -0.0878
    1W        W27137   5.626  15.015   0.733  0.0544 -0.0879 -0.0965
    1W        W27138  15.997   4.503   0.554  0.0685  0.3294  0.0202
    1W        W27139  28.496  28.159   6.662  0.1897 -0.2222  0.0105
    1W        W27140  19.780   1.909   1.178  0.0972 -0.2399  0.0918
    1W        W27141  23.239   6.705   7.883 -0.0322  0.2636 -0.2226
    1W        W27142   2.308   3.317   1.667  0.2412 -0.3576 -0.1682
    1W        W27143  15.735  12.800   7.525 -0.0675 -0.0831  0.1543
    1W        W27144  11.004   2.198   0.101  0.2687  0.0083  0.1977
    1W        W27145  27.385  19.773   1.276 -0.3557  0.0111 -0.1073
    1W        W27146  18.870  27.553   9.802  0.1985 -0.0752  0.0877
    1W        W27147  27.020   7.282   7.603  0.0216 -0.2692 -0.2564
    1W        W27148   1.151  17.255   9.264 -0.0236 -0.0730 -0.2771
    1W        W27149  11.184   3.957   0.904  0.0205  0.1336  0.4977
    1W        W27150  10.071  22.400   0.566  0.0309 -0.0259 -0.3547
    1W        W27151  25.953  22.476   9.279  0.1801  0.1934  0.0723
    1W        W27152   3.985  26.086   7.934  0.2383 -0.0123  0.0316
    1W        W27153  14.992   8.131   7.288 -0.1131 -0.1543  0.4924
    1W        W27154  10.889  21.079   2.187  0.1404 -0.1572 -0.0377
    1W        W27155   8.286  19.933   9.279 -0.1494  0.1079 -0.3505
    1W        W27156  20.290   3.596   8.726 -0.1836 -0.1009 -0.0329
    1W        W27157   8.381   9.457   2.576 -0.0355  0.3638  0.0114
    1W        W27158  27.423  28.115   9.628 -0.0606 -0.1914 -0.1822
    1W        W27159  22.511  18.930   7.758  0.1667  0.1097  0.2064
    1W        W27160  21.535  26.345   0.084 -0.1839  0.1150 -0.1284
    1W        W27161   4.065   7.482   8.562 -0.2569 -0.0311  0.1863
    1W        W27162   4.020   4.443   0.750  0.3808 -0.1632 -0.1001
    1W        W27163  25.020   8.770   8.514 -0.1189  0.1209  0.1760
    1W        W27164   8.322   4.550   8.553  0.2229 -0.2512  0.0150
    1W        W27165   0.892   5.913   7.963 -0.2348  0.1289 -0.2580
    1W        W27166   3.440   7.470   0.644 -0.0023 -0.0480 -0.0055
    1W        W27167   5.436   9.287   2.776  0.0317  0.0005  0.2582
    1W        W27168   5.919  27.912   2.259  0.1498  0.0387 -0.1716
    1W        W27169   5.938  15.925   1.661 -0.3697  0.2170  0.3021
    1W        W27170  14.636  21.611   8.133  0.1098  0.1967  0.1414
    1W        W27171  13.138  15.716   0.912  0.2975 -0.0884 -0.3297
    1W        W27172  23.436  26.808   0.823 -0.2650  0.1187  0.0409
    1W        W27173  13.061  15.207   7.369  0.0904  0.0925  0.3413
    1W        W27174  23.541   9.148   0.745 -0.1020 -0.0086  0.0564
    1W        W27175   8.094  12.419   9.511  0.2090 -0.0851 -0.0423
    1W        W27176   8.267  13.904   9.688  0.3007 -0.1470 -0.3106
    1W        W27177   3.375   1.977   7.095  0.2084 -0.0848  0.1129
    1W        W27178   0.720  25.678   2.209  0.1022 -0.3249 -0.1876
    1W        W27179  14.574  21.101   2.459 -0.3448  0.1233 -0.0706
    1W        W27180  24.128   7.960   2.869 -0.3065  0.1720  0.4138
    1W        W27181   0.243  13.709   7.831 -0.0358 -0.1225 -0.0354
    1W        W27182  15.230  16.180   7.544  0.3250  0.0829 -0.0311
    1W        W27183  14.654   9.400   1.150 -0.0930 -0.0642  0.0935
    1W        W27184   8.276  16.018   8.467  0.2651  0.2405 -0.0193
    1W        W27185   6.542  17.207   9.112 -0.2746  0.0711  0.0328
    1W        W27186  20.342  11.536   7.913 -0.1967  0.1672  0.4336
    1W        W27187   8.929   5.960   3.893  0.1268 -0.1771 -0.0377
    1W        W27188  14.194  16.078   2.089  0.1258  0.0331  0.2309
    1W        W27189  12.890   4.468   2.063 -0.0524 -0.0332  0.0622
    1W        W27190   1.184  19.361   9.944 -0.3496  0.0813  0.0181
    1W        W27191  17.765  25.474   8.380 -0.1586 -0.3032  0.0914
    1W        W27192  22.843   0.264   2.882  0.0869 -0.1897 -0.3631
    1W        W27193   6.302  15.527   2.405 -0.2205 -0.0553 -0.1805
    1W        W27194  25.012  12.770   7.777 -0.0948  0.1256  0.0619
    1W        W27195  21.422  17.284   1.791  0.0188 -0.0945 -0.1201
    1W        W27196  25.494  14.031   7.049  0.1168  0.0900  0.0859
    1W        W27197  23.935   2.336   9.703 -0.3002 -0.1577 -0.2134
    1W        W27198  21.046  24.959   2.708  0.1789 -0.1747 -0.0599
    1W        W27199  27.007   2.022   7.465 -0.3143  0.0254 -0.1601
    1W        W27200  20.750  20.065   7.655 -0.0026  0.0440 -0.0530
    1W        W27201  22.980  10.089   9.677  0.0288 -0.1145  0.0524
    1W        W27202  15.540  21.288   0.671 -0.0454 -0.0021 -0.2657
    1W        W27203   8.728  23.148   9.122 -0.0067 -0.6278 -0.2964
    1W        W27204   1.949  23.870   8.574 -0.3505 -0.0848  0.3822
    1W        W27205   9.089  11.580   0.820  0.1721  0.0765  0.1642
    1W        W27206   4.744  25.700   7.902  0.1012 -0.1107  0.3553
    1W        W27207  25.715   8.062   1.469 -0.1538 -0.0377 -0.1733
    1W        W27208   3.807  16.060   1.705 -0.1758  0.1661  0.1287
    1W        W27209   9.523  17.135   2.847  0.1317  0.2518 -0.0281
    1W        W27210   9.127  22.573   0.896 -0.0798 -0.0618  0.1990
    1W        W27211  27.883  16.997   8.871  0.1418 -0.0532  0.0777
    1W        W27212  12.828   5.181   1.377 -0.1048  0.1203  0.0218
    1W        W27213   2.949  22.643   2.250 -0.0039  0.1704 -0.2950
    1W        W27214  17.829  27.226   8.852 -0.3029 -0.1268 -0.0800
    1W        W27215  24.528   8.572   8.439 -0.1560  0.1072  0.0164
    1W        W27216  25.323  27.559   8.537  0.0959  0.1084  0.0017
    1W        W27217   6.361  16.523   5.918  0.0809  0.0490  0.1787
    1W        W27218  23.170   9.182   9.238  0.0977  0.0106 -0.0171
    1W        W27219  22.063   7.403   8.303  0.2724  0.2626 -0.0673
    1W        W27220  28.221  17.103   1.503  0.1222 -0.0343  0.1247
    1W        W27221  24.599   6.243   8.013 -0.2931  0.0728  0.2863
    1W        W27222  17.827   5.328   9.218 -0.1041  0.1704 -0.1217
    1W        W27223   1.561   0.278   9.955  0.1712 -0.1764 -0.3615
    1W        W27224  14.980  25.705   8.708  0.4545 -0.1871 -0.1406
    1W        W27225  20.659  26.916   0.354  0.2573 -0.2484 -0.3358
    1W        W27226  19.960  16.809   1.058 -0.2636  0.1224 -0.0385
    1W        W27227  19.452  22.913   2.189 -0.2084 -0.3290  0.2460
    1W        W27228  25.950  26.783   0.791 -0.1295 -0.0174 -0.2527
    1W        W27229  14.437  27.918   9.919 -0.0140  0.2384 -0.0053
    1W        W27230  21.081   8.470   2.609 -0.1809  0.0408 -0.1944
    1W        W27231  11.364   0.511   1.495 -0.0763  0.0026  0.4493
    1W        W27232  17.360   2.867   3.068  0.0071  0.0873 -0.1164
    1W        W27233  13.234  27.706   0.833  0.0680  0.0384 -0.2424
    1W        W27234  25.558  12.013   8.135 -0.2676  0.1776 -0.2892
    1W        W27235   3.023  21.353   9.521 -0.1092 -0.0981 -0.0408
    1W        W27236  27.579  18.708   8.290 -0.4743  0.2304  0.1196
    1W        W27237  21.660  23.758   8.643 -0.2231 -0.3923 -0.2754
    1W        W27238   6.006  15.164   2.338  0.4652 -0.0952  0.0344
    1W        W27239   3.366   4.012   2.566 -0.3611 -0.2581  0.0216
    1W        W27240  12.204  11.331   8.249 -0.2497  0.3133 -0.4565
    1W        W27241  20.485  24.945   7.583  0.1807  0.1340  0.2294
    1W        W27242  28.598   9.367   6.409 -0.2358  0.1000 -0.1015
    1W        W27243   2.607   0.948   1.333 -0.1321 -0.1603  0.0480
    1W        W27244   6.899  23.810   8.309  0.1097 -0.1074  0.0997
    1W        W27245  20.821   6.716   9.319 -0.0544  0.2848 -0.0541
    1W        W27246  10.625   8.808   2.999 -0.0482 -0.1998 -0.4292
    1W        W27247  14.054  22.235   0.433  0.0099  0.0188  0.2624
    1W        W27248   1.806  25.916   9.633  0.2449 -0.2663  0.0170
    1W        W27249  20.392   6.973   1.333 -0.0260  0.0206  0.0959
    1W        W27250  28.400   9.491   0.288 -0.1546 -0.0327  0.2741
    1W        W27251  18.261  22.457   1.083  0.3095  0.1586 -0.0486
    1W        W27252  23.746  22.443   2.318  0.0057 -0.1567 -0.0700
    1W        W27253  11.664  15.437   8.696  0.0967 -0.2775 -0.1078
    1W        W27254   6.627  20.015   8.123 -0.3371 -0.1099  0.0889
    1W        W27255   3.259   9.735   3.234  0.4400  0.0147  0.0855
    1W        W27256  10.112  26.380   8.392 -0.2232  0.0047 -0.1666
    1W        W27257  26.821  28.661   3.356  0.2546 -0.2154 -0.4810
    1W        W27258  18.457   3.514   0.261 -0.1220  0.0373  0.0113
    1W        W27259  24.616  25.414   0.806  0.0557  0.0738  0.0763
    1W        W27260  17.582   6.817   9.100 -0.1289 -0.0335  0.1243
    1W        W27261  11.856   9.472   0.890 -0.0732  0.7359  0.0702
    1W        W27262   2.147   5.211   6.933  0.2122  0.0121 -0.3249
    1W        W27263  21.201   0.604   9.239 -0.2165 -0.1477 -0.0758
    1W        W27264   8.947  13.833   1.950 -0.1713 -0.1138 -0.0227
    1W        W27265   4.891   8.423   1.406  0.0433 -0.0774 -0.0895
    1W        W27266  22.494  26.355   6.804  0.0060 -0.3860  0.0506
    1W        W27267  16.894   2.345   3.757  0.1588  0.0882 -0.0196
    1W        W27268   5.725   6.315   9.777 -0.0704 -0.0460 -0.0218
    1W        W27269  12.634   2.489   0.487 -0.0160  0.0470  0.0136
    1W        W27270  26.128   8.300   9.021  0.2210  0.2146 -0.3207
    1W        W27271   2.940  21.229   9.033 -0.1445 -0.1361  0.1652
    1W        W27272  15.188  23.442   7.082 -0.3269  0.0635  0.2691
    1W        W27273  20.493  16.281   1.578 -0.1821 -0.2108  0.0193
    1W        W27274  23.179   5.630   1.476 -0.1670  0.2017 -0.2710
    1W        W27275  20.465   3.826   2.258 -0.0705 -0.0670  0.0644
    1W        W27276  14.576   8.015   9.423 -0.0385 -0.0861 -0.2416
    1W        W27277  23.791  16.542   1.527  0.1360 -0.1198 -0.0299
    1W        W27278   2.397   4.204   1.145  0.3147  0.1097  0.1252
    1W        W27279  18.937   5.030   8.332  0.2387 -0.1549 -0.0762
    1W        W27280  12.312  15.374   7.880 -0.1735  0.0942  0.2355
    1W        W27281   6.529  20.040   8.620  0.2386 -0.1806 -0.0969
    1W        W27282  22.938  13.736   7.439 -0.0599  0.0827 -0.0920
    1W        W27283   4.508  17.068   0.814 -0.1338 -0.0464  0.1721
    1W        W27284  23.896   0.128   8.164  0.1470  0.1610 -0.0069
    1W        W27285  16.636   0.390   2.646  0.1418 -0.1042 -0.0995
    1W        W27286  21.913  14.249   8.333  0.1231  0.0700 -0.1479
    1W        W27287   0.337  11.646   9.630  0.0991  0.0609  0.0442
    1W        W27288  24.623  15.897   2.779 -0.1819 -0.0976  0.1174
    1W        W27289  21.410   3.946   1.935 -0.1657 -0.1093 -0.2232
    1W        W27290  15.853   1.457   9.778 -0.1938  0.1756 -0.2104
    1W        W27291  25.325   6.337   6.909  0.0558 -0.0407 -0.1282
    1W        W27292   6.317  27.910   7.735 -0.3205  0.2911 -0.0145
    1W        W27293   1.512  21.145   9.244 -0.2248  0.0962 -0.0308
    1W        W27294  27.930   8.801   6.593 -0.0048  0.1545 -0.0085
    1W        W27295   1.913  23.952   7.877 -0.0486  0.2447 -0.0545
    1W        W27296  16.544   8.276   1.034 -0.1209 -0.0054 -0.0858
    1W        W27297  22.418   3.308   1.695 -0.1657 -0.2236 -0.0314
    1W        W27298  27.967  20.124   7.270  0.3719  0.2443 -0.3717
    1W        W27299  26.432  11.359   0.539  0.0995  0.1833 -0.0566
    1W        W27300  25.465  18.535   5.997  0.0580  0.0385  0.0234
    1W        W27301  17.163   1.291   7.573  0.2207 -0.1536 -0.0077
    1W        W27302  24.112  11.009   9.017 -0.0688 -0.1674 -0.0389
    1W        W27303  24.187   0.724   2.147  0.1182 -0.1080 -0.3210
    1W        W27304   7.726  20.695   1.292  0.0475  0.0623  0.0936
    1W        W27305   7.603  12.440   9.159  0.1852 -0.1180  0.0261
    1W        W27306  21.165  27.455   2.127  0.0287 -0.2269  0.1218
    1W        W27307   2.786  20.862   8.587  0.0290 -0.3165  0.1734
    1W        W27308  26.829   8.832   7.691  0.0566  0.0982 -0.0897
    1W        W27309  24.412  20.169   6.844  0.2051 -0.1929 -0.0959
    1W        W27310  19.531  14.521   1.278 -0.3337  0.1760  0.1157
    1W        W27311   7.707  13.675   8.249 -0.0687 -0.1168  0.1626
    1W        W27312  20.296  14.711   7.248 -0.2214 -0.5268 -0.2080
    1W        W27313   0.010  11.310   7.004 -0.3346 -0.1484  0.0939
    1W        W27314  25.491   7.907   2.484 -0.0517  0.0931 -0.0710
    1W        W27315  21.866   4.541   8.724 -0.0321 -0.2326  0.1491
    1W        W27316  22.574  25.767   8.216 -0.1063  0.1810 -0.1574
    1W        W27317  19.214  13.628   9.562 -0.0811  0.5901 -0.1231
    1W        W27318  20.032  22.950   8.216 -0.1416 -0.2437  0.2126
    1W        W27319   4.431  26.101   7.635  0.2667 -0.0807  0.1553
    1W        W27320  23.165   8.913   6.885  0.0351  0.0541 -0.1218
    1W        W27321  27.720  23.650   2.614  0.0534 -0.1403 -0.0374
    1W        W27322  15.348  16.091   1.366 -0.2755  0.2980 -0.0339
    1W        W27323   8.094   9.475   9.197 -0.0927  0.0764  0.5464
    1W        W27324  20.887   7.014   7.376  0.2329  0.2191 -0.2075
    1W        W27325  17.722  16.466   3.230 -0.1233 -0.0318 -0.2860
    1W        W27326  18.418  21.681   8.716 -0.2576  0.0482 -0.0614
    1W        W27327  21.081  11.390   8.984 -0.2882  0.2757 -0.0181
    1W        W27328  22.836   8.701   0.543 -0.0459  0.2187 -0.1438
    1W        W27329   2.821  27.241   1.666 -0.1770 -0.0560 -0.2854
    1W        W27330  13.332  20.258   7.284 -0.0958 -0.4190 -0.0120
    1W        W27331  22.703   1.507   1.573  0.0800 -0.0519 -0.0232
    1W        W27332   6.991   7.707   8.136  0.2751  0.1300  0.2428
    1W        W27333   5.092  14.074   9.440 -0.0781  0.2316  0.1076
    1W        W27334  28.200  13.292   6.254  0.1548  0.3435  0.1846
    1W        W27335  22.575  27.371   1.419  0.1008  0.1454 -0.3465
    1W        W27336   0.014  26.103   2.347 -0.0093  0.2112 -0.1030
    1W        W27337  27.470   1.532   9.708 -0.1110  0.0784  0.0611
    1W        W27338   4.658   5.765   2.871 -0.2926 -0.0512 -0.2678
    1W        W27339  25.008  12.810   6.843 -0.1057  0.2224  0.2024
    1W        W27340   2.121  17.772   6.744  0.1314 -0.3096 -0.0138
    1W        W27341   2.483   5.025   6.215  0.0948 -0.1833  0.1281
    1W        W27342  12.317   0.904   3.548  0.1442 -0.0089  0.1856
    1W        W27343  18.475  24.178   8.274 -0.1011 -0.0106 -0.3335
    1W        W27344   0.680  14.314   1.045 -0.0999  0.0379 -0.2219
    1W        W27345   5.750  13.257   1.301  0.0056  0.1618  0.0630
    1W        W27346  20.548  23.323   1.021 -0.1072 -0.0034  0.0497
    1W        W27347  14.684  14.333   1.867 -0.0377  0.1613  0.2770
    1W        W27348  11.694  11.370   0.810  0.0621 -0.0892 -0.1742
    1W        W27349  27.750   1.316   8.828  0.1806  0.1769  0.3399
    1W        W27350   0.087  17.168   7.107  0.4513 -0.1383 -0.0376
    1W        W27351  24.487  11.519   8.703  0.0736  0.0187 -0.1337
    1W        W27352   2.247   5.440   0.161 -0.0701 -0.0058 -0.0675
    1W        W27353  10.161  16.575   8.568 -0.2890 -0.1385  0.0699
    1W        W27354  19.933  15.760   7.553 -0.1583  0.2490 -0.0316
    1W        W27355  14.420  27.829   1.823 -0.1857 -0.2434 -0.1505
    1W        W27356  27.834  26.932   2.415  0.4460 -0.1161  0.1321
    1W        W27357  17.430   1.549   0.094  0.1632  0.1644 -0.2991
    1W        W27358   3.579   1.324   1.573  0.1995 -0.1414 -0.3445
    1W        W27359   5.878  12.502   3.936  0.1685  0.1392  0.0418
    1W        W27360   0.120  22.628   2.848 -0.0768 -0.0254  0.0460
    1W        W27361  12.914  24.100   3.445  0.0407  0.0975 -0.1156
    1W        W27362  24.374   8.049   8.479 -0.2617  0.1481  0.2258
    1W        W27363   8.513  26.213   0.012 -0.0177  0.1632  0.1017
    1W        W27364  14.706   3.848   3.225  0.0963  0.0270 -0.0102
    1W        W27365  10.105  27.552   3.341  0.1409  0.3663 -0.1509
    1W        W27366  21.989  27.336   0.428  0.4211 -0.1320 -0.1573
    1W        W27367   5.472  17.396   0.472 -0.1431 -0.0380 -0.1392
    1W        W27368  15.091  23.971   9.587  0.0118 -0.1275 -0.1521
    1W        W27369   4.322  12.845   9.002  0.3492  0.0696  0.2751
    1W        W27370  19.469   0.012   2.701  0.1669  0.0281  0.0503
    1W        W27371  18.420  23.504   3.992  0.1954  0.0784 -0.4963
    1W        W27372  26.630   1.914   1.856  0.0605 -0.0038  0.1668
    1W        W27373  25.724   1.635   6.610 -0.4624  0.1463 -0.1266
    1W        W27374   3.905   0.074   9.889 -0.1476  0.0103 -0.0670
    1W        W27375  24.658   8.631   9.786  0.2042 -0.1528 -0.2069
    1W        W27376  15.680  11.680   8.172 -0.2563 -0.1113 -0.4496
    1W        W27377  26.603  18.971   3.172  0.0379 -0.0402 -0.2329
    1W        W27378  19.212   5.196   2.116  0.0382  0.0223  0.2604
    1W        W27379   0.103  20.305   9.226 -0.2848  0.1155 -0.0419
    1W        W27380  13.037   6.650   2.692  0.1204  0.1374 -0.3030
    1W        W27381  27.663   8.500   6.285  0.0764  0.0666 -0.0890
    1W        W27382  17.463   2.796   8.374 -0.0532  0.0464 -0.2201
    1W        W27383   7.858   9.902   9.024  0.0260 -0.0443  0.0572
    1W        W27384   4.110  26.388   8.996 -0.1059 -0.0237  0.1409
    1W        W27385   5.053   5.466   2.912  0.0913 -0.2586 -0.1443
    1W        W27386  10.811   7.904   2.597 -0.0442  0.0387  0.0797
    1W        W27387  10.785  11.438   8.298  0.1658 -0.0083  0.0092
    1W        W27388   3.199  13.671   1.933  0.2579 -0.2326 -0.2266
    1W        W27389  24.627  25.941   0.883 -0.4009 -0.2113  0.0957
    1W        W27390   4.924  25.256   6.983 -0.0549  0.0523  0.0872
    1W        W27391  21.056  21.933   8.565 -0.3392 -0.1440 -0.1170
    1W        W27392   2.476  18.124   2.934 -0.3376  0.1261  0.2198
    1W        W27393  14.648   6.365   3.433  0.0144 -0.0224  0.0006
    1W        W27394  13.852   5.058   9.693 -0.0867 -0.3618  0.0070
    1W        W27395  17.423  25.639   1.325  0.0413 -0.0706 -0.1305
    1W        W27396   9.829  23.820   8.313 -0.0432  0.2112  0.0261
    1W        W27397  21.838  14.778   8.297  0.3354  0.0383  0.0618
    1W        W27398  10.089  28.319   2.527  0.1595 -0.3196  0.0846
    1W        W27399  11.104  11.227   0.459  0.3752  0.2417 -0.0750
    1W        W27400  28.419   3.655   5.865 -0.0993 -0.0462  0.2090
    1W        W27401  26.061  14.320   0.320  0.0575 -0.1015  0.0270
    1W        W27402   2.656  11.421   9.623 -0.0851 -0.0724 -0.1439
    1W        W27403   0.056  10.618   7.522 -0.2167  0.4626  0.4296
    1W        W27404  26.931   7.200   9.472 -0.1039 -0.1340  0.0307
    1W        W27405  18.627  11.935   9.090 -0.1956  0.0607 -0.2187
    1W        W27406   8.075   2.311   1.624 -0.2211 -0.1361 -0.2872
    1W        W27407  24.503   4.287   7.265 -0.0412 -0.2252  0.3024
    1W        W27408   0.747  25.558   9.859 -0.0730 -0.1224  0.0403
    1W        W27409  19.634  19.124   2.045 -0.1340  0.1006 -0.0069
    1W        W27410  27.845   9.589   2.585  0.1185 -0.1150  0.1903
    1W        W27411   5.060  10.490   8.489  0.0581  0.1183  0.1243
    1W        W27412  23.789   5.001   7.180 -0.3197 -0.1328  0.0881
    1W        W27413   9.653  24.712   0.498 -0.1115 -0.3943 -0.0281
    1W        W27414  28.209   8.897   7.770 -0.3368 -0.1869  0.0080
    1W        W27415  14.494  19.702   9.685 -0.0741  0.1765  0.1995
    1W        W27416   5.490   6.268   4.116  0.0196 -0.3401  0.0777
    1W        W27417  22.437   8.143   1.308  0.1437 -0.0839 -0.1066
    1W        W27418  18.276  24.170   2.231  0.0969 -0.0939  0.2023
    1W        W27419  13.728  12.842   8.497 -0.0417 -0.0242  0.1222
    1W        W27420   5.417   1.713   8.508  0.2302 -0.1044 -0.0703
    1W        W27421   6.189  25.723   9.476  0.0855  0.0482 -0.0215
    1W        W27422  24.976   2.015   7.536 -0.0610  0.0622  0.1764
    1W        W27423  19.147   6.378   0.027  0.1767  0.1413 -0.1481
    1W        W27424   1.847   6.995   1.125 -0.1146  0.1206 -0.1450
    1W        W27425   0.363   0.143   9.682 -0.3452 -0.1694 -0.2349
    1W        W27426   4.598  25.116   8.268 -0.5152 -0.2676 -0.0465
    1W        W27427   5.070  14.624   7.670  0.0309  0.2410  0.0299
    1W        W27428   2.430   0.369   8.584  0.0542  0.1098  0.0638
    1W        W27429  15.410   9.134   1.986  0.0966 -0.2155  0.1532
    1W        W27430   0.188  27.439   3.316  0.0528  0.0649  0.0605
    1W        W27431  18.840  20.336   1.815 -0.0748  0.2410 -0.0689
    1W        W27432  21.271   5.773   7.735 -0.0505 -0.1414 -0.3080
    1W        W27433  15.907  23.321   9.279  0.2544  0.1529 -0.0985
    1W        W27434  21.403  26.103   1.911 -0.1364 -0.2069 -0.1760
    1W        W27435  14.555  20.911   1.807  0.0564 -0.0453 -0.1139
    1W        W27436  20.950  12.891   0.317 -0.0579  0.1567 -0.0045
    1W        W27437  27.340  24.889   2.048 -0.0567  0.0944  0.0062
    1W        W27438  25.267   0.962   8.475 -0.1257  0.2180  0.0467
    1W        W27439  21.413  14.017   1.695 -0.5042  0.0818  0.0675
    1W        W27440   6.392  12.033   2.691  0.3247  0.0439 -0.1562
    1W        W27441  27.722  21.329   1.147  0.2973  0.1419 -0.2173
    1W        W27442  27.346  16.794   7.148  0.0442 -0.1741  0.2560
    1W        W27443  23.978  13.599   9.170  0.0999  0.1401 -0.1541
    1W        W27444  15.798  24.491   9.089 -0.1090 -0.1664  0.2089
    1W        W27445   0.803  16.789   0.528 -0.1072 -0.0370 -0.0511
    1W        W27446  11.610  16.231   7.974  0.0842 -0.0366  0.1538
    1W        W27447  18.330  23.665   2.053  0.0388  0.0784 -0.2978
    1W        W27448  10.620  20.170   7.136  0.0149  0.2261 -0.2746
    1W        W27449  17.329   5.472   8.265  0.3700  0.1569  0.0086
    1W        W27450   1.253  20.771   9.468  0.2636 -0.0680 -0.1370
    1W        W27451  24.188  28.218   8.894 -0.3636  0.2729 -0.2169
    1W        W27452  24.674  12.750   0.758 -0.2239 -0.0792  0.1605
    1W        W27453  19.373  11.591   7.032 -0.3109  0.1605 -0.1167
    1W        W27454  14.104  26.393   7.287 -0.0037  0.3576 -0.0641
    1W        W27455  21.712  24.560   7.441 -0.0285  0.1714 -0.2359
    1W        W27456  24.225   3.045   0.175 -0.3817  0.1735  0.1369
    1W        W27457   5.366  26.227   9.349  0.1837 -0.1853  0.3342
    1W        W27458  13.974   4.239   0.826 -0.2354  0.1976 -0.2978
    1W        W27459  28.147   7.956   7.655 -0.0093  0.2261  0.0407
    1W        W27460   3.070  14.856   6.601 -0.0599  0.3810 -0.3286
    1W        W27461  10.321  24.994   1.034 -0.0646  0.1777  0.0464
    1W        W27462  20.877  17.338   0.652 -0.0476 -0.0998  0.0714
    1W        W27463   4.005  11.667   9.481 -0.3467  0.0856  0.0420
    1W        W27464  12.120  21.660   2.310  0.0272 -0.1009 -0.0995
    1W        W27465  20.174  12.085   7.985 -0.0246  0.0966  0.3058
    1W        W27466   7.757   6.098   9.867  0.1403 -0.2756  0.0204
    1W        W27467  16.530  25.982   0.252  0.1558  0.0429  0.0920
    1W        W27468   0.754  16.631   0.997  0.5198  0.3877 -0.1236
    1W        W27469  16.981  26.752   9.838 -0.1979  0.0018 -0.1421
    1W        W27470  16.028  12.675   8.773 -0.1882 -0.2697  0.0281
    1W        W27471  14.786  18.877   2.828  0.0391  0.0876 -0.0895
    1W        W27472  21.716  24.248   8.487  0.0865 -0.0057  0.1324
    1W        W27473  12.027  14.074   8.001  0.2013  0.2574  0.1386
    1W        W27474  27.080  26.772   9.748  0.0529 -0.2063  0.1747
    1W        W27475  27.822  19.249   7.490  0.0564  0.0551  0.0313
    1W        W27476  13.766  23.529   9.136 -0.0564  0.2087 -0.1562
    1W        W27477  26.799  13.672   7.199 -0.1667  0.0697 -0.2872
    1W        W27478   6.612   7.519   8.400  0.0996 -0.3488  0.1036
    1W        W27479   4.546  21.085   8.451 -0.0151 -0.0295  0.0644
    1W        W27480  13.402   3.890   4.078  0.0997 -0.0947 -0.0592
    1W        W27481  26.956  10.363   8.897 -0.0116 -0.1808 -0.0663
    1W        W27482  22.519  16.783   7.962  0.1421 -0.0434  0.0679
    1W        W27483   8.943  23.192   7.858  0.0124 -0.0912 -0.0221
    1W        W27484  27.264  22.144   2.723 -0.0206 -0.0061  0.2234
    1W        W27485   1.195   3.746   0.207  0.0448 -0.0489  0.1548
    1W        W27486  23.080   6.315   0.402 -0.5062 -0.1650 -0.3129
    1W        W27487   6.535   2.784   0.782  0.0418  0.2755 -0.2282
    1W        W27488  28.361  10.372   9.122 -0.1885 -0.2669 -0.1277
    1W        W27489  24.789  26.557   9.711  0.0456  0.1332  0.1841
    1W        W27490   2.315  26.431   0.440  0.2615  0.0512 -0.1626
    1W        W27491  18.467   8.699   1.444 -0.0386 -0.0697 -0.1334
    1W        W27492  10.224   0.321   7.262 -0.0246  0.1188  0.2066
    1W        W27493  17.457  27.128   8.439 -0.0906 -0.0546  0.1894
    1W        W27494   0.021   6.902   8.033 -0.1310  0.0484  0.2514
    1W        W27495  18.757   9.665   7.042 -0.0659  0.0368 -0.0413
    1W        W27496  28.277  25.341   7.205 -0.1202  0.0632  0.2002
    1W        W27497  20.928  18.386   3.370 -0.1507  0.2019 -0.2326
    1W        W27498  25.386   1.527   0.692  0.0835 -0.2269 -0.0502
    1W        W27499  19.517  23.477   3.101 -0.2271 -0.1174  0.2335
    1W        W27500  14.667   7.727   1.186 -0.1210 -0.1584 -0.4772
    1W        W27501  20.807  28.137   1.485  0.2691 -0.1274  0.0468
    1W        W27502  17.703   7.613   1.930 -0.1560  0.0844 -0.1260
    1W        W27503   3.857  23.852   7.723  0.0301 -0.5408 -0.1312
    1W        W27504  16.836   1.563   9.234 -0.1301  0.0021 -0.2531
    1W        W27505   1.231   7.928   8.052 -0.1739  0.2375  0.1955
    1W        W27506  25.082  17.521   0.890 -0.1391  0.2631 -0.2918
    1W        W27507  19.042  20.489   7.505 -0.2264  0.0606 -0.0292
    1W        W27508  21.749  20.289   0.115 -0.1104  0.1019 -0.0127
    1W        W27509   9.898   5.878   9.502 -0.0910 -0.0928  0.0833
    1W        W27510  24.679  27.982   6.702  0.0905 -0.2007  0.0812
    1W        W27511   4.838  26.405   0.932 -0.2193  0.1287 -0.2791
    1W        W27512  24.830  28.653   8.048  0.1750 -0.2403 -0.0075
    1W        W27513   4.130  27.097   1.847  0.1320 -0.0809  0.2714
    1W        W27514  26.400   3.713   2.954 -0.0548 -0.2067  0.0225
    1W        W27515  10.506  15.248   8.477 -0.1072  0.0995 -0.0860
    1W        W27516  19.048   4.195   0.394  0.3795 -0.0750  0.0133
    1W        W27517   9.314  27.104   8.060  0.1715 -0.0009  0.0392
    1W        W27518  11.992  19.270   1.702 -0.1778  0.2451  0.0161
    1W        W27519  23.235  23.661   9.490 -0.1674 -0.1097 -0.1074
    1W        W27520   8.542   9.195   0.847 -0.3313  0.0234  0.0056
    1W        W27521  19.723  26.722   2.823  0.0446  0.0754  0.1111
    1W        W27522   3.966   8.843   2.303 -0.2489  0.0761 -0.0830
    1W        W27523  26.407   7.436   0.151 -0.1894 -0.0674  0.2192
    1W        W27524  18.239  19.593   2.840  0.1682 -0.3197 -0.3549
    1W        W27525   4.025   3.691   7.584  0.1855  0.2770 -0.2552
    1W        W27526  21.424  10.146   7.737 -0.0656  0.0430  0.0920
    1W        W27527  19.639   5.367   2.243  0.1558  0.1713 -0.0175
    1W        W27528  24.752   2.873   7.128  0.1444  0.2521  0.0891
    1W        W27529  15.260  12.518   8.332  0.1375  0.3860 -0.0380
    1W        W27530   5.048  22.370   6.712 -0.0365 -0.0310  0.0885
    1W        W27531   7.977  16.018   7.933  0.4390 -0.0778  0.0237
    1W        W27532   0.839  22.133   7.049  0.0392 -0.1463 -0.0606
    1W        W27533  11.175   8.863   0.354 -0.0307  0.2031 -0.3828
    1W        W27534   3.785  22.660   7.491  0.3303 -0.0032  0.2787
    1W        W27535  14.794   2.752   8.388 -0.2625 -0.1005 -0.0712
    1W        W27536  10.820  26.879   6.790 -0.3373 -0.1375  0.1782
    1W        W27537   8.019  16.988   8.532 -0.0401  0.1839 -0.0968
    1W        W27538  22.307  11.065   2.199 -0.1318 -0.0548 -0.3158
    1W        W27539  19.604  27.327   7.596  0.4617 -0.1344  0.0826
    1W        W27540  28.680  24.916   0.075  0.0155 -0.1953 -0.0060
    1W        W27541  16.371  18.226   7.814  0.2371  0.0074 -0.1951
    1W        W27542  16.380  16.883   7.847  0.0036 -0.0523  0.3860
    1W        W27543  10.070  20.024   0.121  0.0897 -0.2173 -0.1781
    1W        W27544  20.921  28.190   0.179  0.1059  0.2238 -0.1868
    1W        W27545   3.375   3.343   2.484 -0.3939 -0.2615 -0.3524
    1W        W27546  18.868   6.044   2.316  0.2338 -0.3092 -0.2610
    1W        W27547   4.040  19.817   8.963 -0.0218  0.2993  0.2280
    1W        W27548   3.082  15.762   1.163 -0.0503  0.3363 -0.0766
    1W        W27549  28.124  24.898   0.931  0.1335 -0.0636 -0.1476
    1W        W27550  12.132  21.096   1.239  0.0090  0.1596 -0.0068
    1W        W27551   4.832  17.938   5.877 -0.0965  0.2925  0.2082
    1W        W27552  24.512  23.997   1.722  0.2459 -0.1581 -0.2781
    1W        W27553   2.071  19.069   1.806  0.1650  0.1705  0.0365
    1W        W27554   4.098  16.909   1.093  0.0150  0.1032  0.1131
    1W        W27555   4.264   8.421   2.215  0.0809 -0.3099 -0.1062
    1W        W27556  17.219  26.550   8.061  0.1689  0.0226  0.0640
    1W        W27557   9.934   5.656   1.980  0.0852  0.2054  0.0630
    1W        W27558  28.296  24.760   2.359 -0.1750 -0.1029  0.1073
    1W        W27559  23.855  28.722   2.290 -0.0568  0.0470  0.3011
    1W        W27560  24.437   4.030   6.731 -0.1456  0.0879 -0.0305
    1W        W27561  24.923  14.977   0.323 -0.3035 -0.1117 -0.0288
    1W        W27562  19.577  15.129   8.546 -0.0812 -0.0060 -0.0710
    1W        W27563   2.541   2.917   1.504  0.0403  0.0211 -0.4018
    1W        W27564  22.831   1.146   2.116  0.2130 -0.1290 -0.5923
    1W        W27565  19.918   9.104   2.054  0.0840 -0.2906  0.0981
    1W        W27566  24.128   3.051   7.777 -0.0276 -0.2037 -0.0654
    1W        W27567  27.204   5.894   2.357 -0.1422  0.1622  0.1386
    1W        W27568  16.799  19.369   2.277  0.0908 -0.0909  0.1376
    1W        W27569   9.863  12.579   1.708 -0.0771 -0.0924 -0.1154
    1W        W27570  23.987  14.019   1.848 -0.3050  0.4068  0.1080
    1W        W27571   5.762  20.142   1.853  0.2362 -0.1063 -0.0807
    1W        W27572  16.603   9.779   7.577 -0.2839  0.3200  0.0530
    1W        W27573   7.266  12.902   0.859 -0.0542 -0.3573 -0.2850
    1W        W27574   4.759   4.330   7.702  0.0539 -0.1168  0.0916
    1W        W27575   5.392   3.695   7.629  0.2927  0.2892 -0.1334
    1W        W27576  26.994   9.938   6.872 -0.0099  0.1395 -0.2987
    1W        W27577  20.472  13.684   2.970 -0.1782  0.0019  0.2286
    1W        W27578   9.026  17.635   1.793 -0.5327 -0.1103 -0.0663
    1W        W27579  13.940   9.154   9.505  0.1801  0.2062  0.0370
    1W        W27580   8.188  22.551   7.615 -0.0047  0.2231  0.1053
    1W        W27581  22.617  16.767   8.489  0.3696  0.2728  0.0026
    1W        W27582  28.705   0.092   1.660  0.0765  0.1762 -0.0211
    1W        W27583   5.357   6.287   1.585  0.0041  0.0581  0.2883
    1W        W27584   1.374   6.207   0.145  0.3236  0.0003 -0.0031
    1W        W27585  28.413  10.536   7.224  0.1318 -0.1907  0.0768
    1W        W27586  22.883  26.844   2.397 -0.1589 -0.1107 -0.1067
    1W        W27587  14.131   1.958   7.433  0.3204 -0.0199 -0.3882
    1W        W27588  21.801  18.315   3.052 -0.1131 -0.0557 -0.0643
    1W        W27589  15.557  28.210   0.888 -0.1189 -0.1128 -0.1888
    1W        W27590  23.757  11.819   7.446  0.3230 -0.3785  0.2470
    1W        W27591   5.431  12.257   0.623  0.0725 -0.2312 -0.2429
    1W        W27592  19.830  22.926   1.844 -0.0994 -0.1030  0.1262
    1W        W27593  10.946   7.589   1.751  0.0923 -0.0962  0.0797
    1W        W27594  12.603   2.642   8.997 -0.3216  0.2834 -0.3336
    1W        W27595  16.899  13.061   9.595  0.1027  0.0548 -0.0796
    1W        W27596  10.492  15.905   9.354 -0.3671 -0.0190  0.3005
    1W        W27597  18.463  23.702   1.101  0.4139 -0.2466  0.1019
    1W        W27598  16.503  10.461   0.003 -0.0362  0.0148 -0.1582
    1W        W27599   6.479  26.739   0.554 -0.0965  0.2456 -0.3659
    1W        W27600  12.442   3.313   9.358  0.0377  0.0380 -0.1095
    1W        W27601   8.319  28.012   3.698  0.0419  0.1698 -0.0648
    1W        W27602   4.632  28.527   2.437 -0.2188 -0.0931 -0.2411
    1W        W27603   8.743   1.260   2.322  0.0466  0.1640  0.2737
    1W        W27604  22.324   7.585   0.517  0.0046  0.0851  0.0266
    1W        W27605  11.029  23.459   1.892  0.0604 -0.1075  0.0549
    1W        W27606   6.386  19.934   0.510  0.2314 -0.2430  0.1087
    1W        W27607   3.644  16.831   1.841 -0.0712 -0.2855  0.0244
    1W        W27608  12.675  26.097   0.362 -0.0710  0.4012 -0.0107
    1W        W27609  25.386   1.100   9.314  0.1815 -0.2029 -0.0729
    1W        W27610  12.516  26.853   9.614  0.0663 -0.1071  0.1469
    1W        W27611   1.559  13.274   1.460 -0.2091  0.3100  0.1706
    1W        W27612   6.694   6.561   7.714  0.1475  0.2723 -0.1864
    1W        W27613  22.470  14.038   9.456 -0.1160  0.3976  0.0996
    1W        W27614  12.992  17.958   8.501 -0.1780 -0.1445 -0.0087
    1W        W27615   2.740  10.932   9.591 -0.0324 -0.1688 -0.0303
    1W        W27616   2.084   6.144   6.723 -0.0578 -0.1044 -0.2943
    1W        W27617  11.643   6.908   1.751 -0.0808 -0.2443  0.0590
    1W        W27618  24.073   0.380   9.015  0.1056 -0.1239 -0.1467
    1W        W27619  22.487  20.902   9.796  0.0126  0.0356  0.1300
    1W        W27620   3.216  23.953   9.769 -0.2239 -0.0626 -0.0994
    1W        W27621  15.285  24.888   7.414 -0.2791  0.2093  0.1853
    1W        W27622  13.650  15.002   0.999  0.4388  0.0402 -0.0460
    1W        W27623  12.041  16.963   8.551  0.4916  0.0546 -0.0556
    1W        W27624   9.252  10.094   9.154  0.2317 -0.2138 -0.0704
    1W        W27625  11.429   2.654   2.418 -0.0939 -0.1997  0.3252
    1W        W27626  22.063   7.358   1.820  0.0457 -0.1788 -0.1246
    1W        W27627  23.751  13.708   7.020 -0.1645  0.2958 -0.0268
    1W        W27628   9.394   0.004   7.221 -0.1194  0.1358 -0.1899
    1W        W27629   5.903  15.188   7.918  0.0955  0.1306  0.3493
    1W        W27630  13.472  17.959   8.776 -0.1314 -0.1334 -0.3718
    1W        W27631  13.653  16.862   0.423  0.1082 -0.2838  0.3634
    1W        W27632  26.835  18.934   2.064 -0.2897 -0.0874  0.0586
    1W        W27633  23.884   7.803   8.467 -0.0711  0.2327 -0.0050
    1W        W27634   7.482  11.116   8.126  0.0719 -0.0932  0.3004
    1W        W27635  27.072   1.541   0.671  0.0012  0.1287 -0.3217
    1W        W27636  15.893   9.806   9.660 -0.0946 -0.3513  0.0670
    1W        W27637   0.367   2.272   9.655  0.4421  0.1887  0.0575
    1W        W27638  18.812   2.377   2.018  0.1439 -0.1505 -0.0553
    1W        W27639  17.172   5.727   3.224 -0.0015  0.1381 -0.1732
    1W        W27640  20.486   8.760   9.675 -0.0845  0.1560 -0.2069
    1W        W27641  26.900   4.782   6.330 -0.0722  0.0437  0.3174
    1W        W27642   5.511  21.084   6.483 -0.0565 -0.2283 -0.0860
    1W        W27643  20.319   9.864   2.160 -0.0000 -0.0362  0.2793
    1W        W27644   0.077  20.587   6.610 -0.4770 -0.2088  0.0157
    1W        W27645   8.452   2.602   9.114  0.0713 -0.0484 -0.1389
    1W        W27646  10.082  17.319   2.084 -0.2291  0.0448  0.3062
    1W        W27647  23.740  18.125   7.524  0.0457  0.0339  0.1279
    1W        W27648  12.178   2.675   1.160  0.0046  0.0620  0.1047
    1W        W27649  25.496   7.221   1.934  0.0846  0.0875  0.1019
    1W        W27650   9.930   0.049   7.985 -0.2110 -0.0887  0.3037
    1W        W27651  11.594  27.842   3.338  0.0718 -0.1014 -0.3440
    1W        W27652  16.169  26.204   4.043 -0.1386  0.0881  0.0588
    1W        W27653   1.228  13.908   7.566 -0.2464 -0.2103  0.3470
    1W        W27654  20.508   9.007   3.350  0.0787 -0.0490 -0.0494
    1W        W27655  24.904  22.454   0.200 -0.3434  0.3523  0.1351
    1W        W27656   3.314   2.644   7.585  0.3973  0.0706  0.0635
    1W        W27657   8.306  12.796   7.886  0.3806 -0.2096 -0.0706
    1W        W27658  12.284  13.361   8.217 -0.1452 -0.1724  0.0589
    1W        W27659  13.345  11.932   7.521  0.1808  0.0620  0.0769
    1W        W27660  27.012  11.160   8.256  0.4458  0.0513 -0.0921
    1W        W27661   7.064   3.681   0.475  0.2604  0.0897  0.0151
    1W        W27662   3.117   4.375   7.211  0.0111  0.2633 -0.1003
    1W        W27663   9.151  14.797   7.909 -0.1837  0.3231  0.3345
    1W        W27664   1.853   7.548   2.043 -0.1596  0.0560 -0.1211
    1W        W27665  26.575  27.643   8.309 -0.2565 -0.0778 -0.0975
    1W        W27666   1.395  22.918   1.861 -0.0093  0.2883 -0.0346
    1W        W27667   1.299   2.976   7.356  0.0152  0.2575 -0.1433
    1W        W27668   4.210  27.089   0.414  0.0816 -0.1924 -0.1082
    1W        W27669  12.542   3.487   9.858  0.0669 -0.0070 -0.1502
    1W        W27670   7.994   5.657   2.638 -0.0457 -0.0689  0.0978
    1W        W27671  14.698  24.742   0.343  0.5888  0.0315  0.1720
    1W        W27672  19.895  16.948   1.567  0.3675  0.1606  0.0275
    1W        W27673   7.912  18.270   9.723 -0.0494 -0.0931  0.0132
    1W        W27674  12.661   0.259   9.912 -0.1170 -0.0521 -0.0867
    1W        W27675   4.338  21.889   7.268  0.3568 -0.4059  0.0799
    1W        W27676  28.535   7.905   7.959  0.2671 -0.3177  0.0468
    1W        W27677  17.413   2.053   7.907  0.3193  0.1297 -0.0311
    1W        W27678   0.838   2.819   6.821 -0.0950  0.2512  0.1445
    1W        W27679   6.926  14.662   2.662  0.0584 -0.2121  0.1881
    1W        W27680   5.405  17.297   9.079  0.0343  0.1572 -0.0894
    1W        W27681  12.806  26.085   8.475  0.2025  0.2167 -0.0289
    1W        W27682  17.061   3.760   4.204 -0.1777  0.0394  0.1492
    1W        W27683  16.449  23.195   9.000 -0.0475  0.3123 -0.4007
    1W        W27684  14.209  18.695   8.514  0.0313  0.1292  0.3152
    1W        W27685  21.794   8.800   2.900  0.0695  0.1642  0.0623
    1W        W27686   2.817  23.249   0.989  0.0218 -0.0310  0.0885
    1W        W27687  27.346   3.006   2.722  0.1306  0.0337 -0.2045
    1W        W27688   3.555  24.853   2.497 -0.2035  0.4137 -0.1390
    1W        W27689   0.385  15.210   9.945 -0.1094 -0.1961  0.2931
    1W        W27690  22.017  20.874   7.270  0.1296 -0.1184 -0.0451
    1W        W27691   5.357  24.366   9.127  0.1002 -0.0449 -0.0628
    1W        W27692  22.993   9.743   0.055  0.1914 -0.3043  0.1502
    1W        W27693  26.529  17.622   1.969  0.0613 -0.1388  0.0266
    1W        W27694   3.197  24.598   6.117  0.2132 -0.2937  0.0455
    1W        W27695   1.113  20.405   7.381 -0.2037  0.1860  0.0255
    1W        W27696   4.609  19.652   6.146  0.0689  0.0976 -0.0030
    1W        W27697   4.617   0.386   9.068  0.1738  0.0881  0.0102
    1W        W27698  26.011   2.157   9.088  0.0600  0.2284  0.0429
    1W        W27699   6.824  13.307   1.015 -0.1068 -0.0280  0.2207
    1W        W27700  11.379  18.658   0.663  0.0298 -0.0233  0.0351
    1W        W27701   4.956  10.769   0.606  0.0486 -0.0164 -0.1407
    1W        W27702  26.495  10.332   0.808  0.1535  0.2490 -0.1930
    1W        W27703  17.068  21.753   8.837  0.1041 -0.1460 -0.0189
    1W        W27704  17.481   4.237   1.403 -0.0691  0.3079 -0.1021
    1W        W27705  20.892  21.315   9.302 -0.2080 -0.2058  0.0019
    1W        W27706  26.221  11.573   1.355  0.0250 -0.3632 -0.2618
    1W        W27707   4.383  17.467   6.180 -0.0062 -0.1921 -0.1420
    1W        W27708  14.242   7.095   1.232 -0.1441  0.1214 -0.0284
    1W        W27709  24.506  27.987   2.313  0.2334 -0.0243 -0.1492
    1W        W27710  15.330  24.662   9.069 -0.0963 -0.1137  0.0871
    1W        W27711  14.914  20.718   7.848 -0.1642 -0.1133 -0.1079
    1W        W27712  13.367   6.805   3.776  0.1247  0.3502  0.2038
    1W        W27713   9.586  11.706   0.689 -0.0440  0.1026  0.1719
    1W        W27714  17.535  17.319   2.183 -0.0383 -0.1067 -0.1462
    1W        W27715  26.335  26.611   2.590 -0.1446  0.1805 -0.0456
    1W        W27716  20.844  28.555   7.848  0.0448 -0.0346 -0.0778
    1W        W27717  15.402  14.873   8.299  0.0261 -0.0444  0.2677
    1W        W27718  15.960   9.873   1.691 -0.1175 -0.0843 -0.0687
    1W        W27719  14.871  25.354   2.066  0.0444 -0.1722 -0.0214
    1W        W27720   5.507  15.792   7.294  0.1576  0.1282  0.4085
    1W        W27721   2.137  17.589   8.710  0.0432 -0.2645 -0.3400
    1W        W27722  23.990  21.344   0.457  0.2499  0.0876 -0.0155
    1W        W27723  20.690   2.393   9.240  0.1501  0.2955  0.2248
    1W        W27724  28.087  20.175   5.457  0.0076 -0.1114 -0.0391
    1W        W27725  10.785  20.101   2.667 -0.0583  0.1096 -0.2685
    1W        W27726   7.394  20.700   8.435 -0.2975  0.1024  0.2925
    1W        W27727  16.954   4.616   1.919  0.0360  0.0163 -0.0508
    1W        W27728  21.521  23.359   2.874  0.1315 -0.0933  0.0503
    1W        W27729  10.633  12.374   2.759  0.1410 -0.0259  0.0862
    1W        W27730  25.388   1.703   1.189 -0.0406  0.2019 -0.2158
    1W        W27731  13.197   4.750   7.579  0.3927  0.0170  0.0124
    1W        W27732   2.850  26.152   9.605  0.2916 -0.1182 -0.0052
    1W        W27733   9.948   3.528   0.771 -0.0255 -0.1210  0.0458
    1W        W27734  24.248   9.009   2.013  0.0099 -0.1800  0.3130
    1W        W27735  19.937  21.900   7.405 -0.2285 -0.2838  0.2041
    1W        W27736  20.969   5.932   2.140  0.1965  0.1675 -0.0526
    1W        W27737   4.275  19.093   7.604 -0.2272 -0.0625  0.0378
    1W        W27738   2.725   1.452   2.645 -0.2153  0.2041  0.2108
    1W        W27739  24.064  26.619   1.476  0.1142  0.0914 -0.0049
    1W        W27740  17.345   0.021   9.843 -0.1140  0.0641  0.0542
    1W        W27741   9.079  20.212   7.884  0.0982  0.0979 -0.0388
    1W        W27742   0.820   1.649   8.264  0.1540  0.1197 -0.0628
    1W        W27743   6.045  15.036   9.345  0.1559  0.0366 -0.0466
    1W        W27744   8.962  12.334   1.953  0.0572 -0.0437 -0.1082
    1W        W27745  25.368  16.044   1.419 -0.0309 -0.1179 -0.1177
    1W        W27746  17.581  22.088   9.056  0.1490  0.1577  0.0130
    1W        W27747  16.232  12.785   0.532 -0.1025  0.1266  0.0937
    1W        W27748  20.704  21.611   8.220  0.0468 -0.2744 -0.1126
    1W        W27749  24.743  11.124   1.443 -0.0228 -0.1164  0.2140
    1W        W27750  19.085   5.986   2.773 -0.0524 -0.0495  0.2275
    1W        W27751   1.700   3.078   9.396  0.1563 -0.2522 -0.0750
    1W        W27752  16.213   1.117   7.647 -0.1570  0.0224 -0.1002
    1W        W27753  25.795  25.388   2.145  0.0442  0.0011 -0.0843
    1W        W27754   3.947  28.216   8.669  0.5259 -0.0632  0.0247
    1W        W27755  20.309   0.216   0.592  0.1130  0.0257  0.0130
    1W        W27756   6.004  13.253   9.830  0.0248 -0.0606 -0.2822
    1W        W27757  17.769  24.604   1.401  0.3864 -0.1825  0.0269
    1W        W27758   4.608  19.970   6.948 -0.2382  0.0269  0.0402
    1W        W27759  23.911  20.567   0.733 -0.0784 -0.0638  0.1278
    1W        W27760  18.671  14.044   8.500 -0.2069  0.4613  0.4041
    1W        W27761   3.545  25.234   7.956 -0.1304 -0.2058 -0.2230
    1W        W27762   5.142  15.524   8.147  0.0018  0.1539 -0.1784
    1W        W27763  22.020  10.067   2.146 -0.2902 -0.3881 -0.0476
    1W        W27764   6.098   4.282   8.025 -0.0850 -0.1698 -0.0147
    1W        W27765  19.718  15.307   9.893 -0.3436 -0.3273 -0.0015
    1W        W27766  16.515  12.265   9.197  0.2389  0.2717  0.2384
    1W        W27767  15.206  16.311   2.188  0.2642 -0.1466 -0.0119
    1W        W27768   1.524  25.421   0.530  0.2690 -0.0806 -0.0730
    1W        W27769   0.948   1.124   8.018 -0.0190  0.2695  0.0012
    1W        W27770  27.350   1.962   9.445  0.2177 -0.1233 -0.2742
    1W        W27771   2.397   7.483   1.961  0.1667  0.1982 -0.0012
    1W        W27772   3.807  10.191   9.797 -0.0484  0.2638  0.0716
    1W        W27773  19.642  10.010   2.380  0.1306  0.1438 -0.0088
    1W        W27774  14.942  21.306   1.684 -0.1093  0.0300  0.0010
    1W        W27775   3.939   7.418   7.866  0.2068  0.0124  0.1066
    1W        W27776  12.053   2.178   3.135  0.3241  0.2065 -0.1034
    1W        W27777  12.757   0.478   2.028  0.0818  0.0999 -0.1418
    1W        W27778  27.796   7.627   9.828 -0.0079 -0.1560  0.0951
    1W        W27779  24.148  23.500   8.783  0.1703  0.1737 -0.2525
    1W        W27780   0.454  23.411   0.028 -0.0780 -0.0785 -0.1319
    1W        W27781  21.820  28.660   8.055  0.1835 -0.0207  0.3209
    1W        W27782  13.333   3.578   1.057 -0.1460  0.1414 -0.3160
    1W        W27783   8.532   2.337   7.832  0.2252 -0.1900 -0.3340
    1W        W27784  24.817  18.546   7.596 -0.2780  0.2591  0.1752
    1W        W27785   1.927   2.332   8.753 -0.0859 -0.1276  0.0104
    1W        W27786  22.239  26.928   2.149  0.1405 -0.1029 -0.0413
    1W        W27787   0.814  22.110   1.041  0.1297 -0.2112 -0.2698
    1W        W27788  28.157  26.257   7.809  0.1262 -0.0819 -0.1685
    1W        W27789  11.721  11.700   2.220  0.2746  0.0444  0.0741
    1W        W27790   6.889  21.186   8.016  0.1892  0.0455 -0.0753
    1W        W27791  28.559  11.448   8.318  0.0383  0.0479 -0.0697
    1W        W27792  23.268   2.218   9.077  0.0990 -0.1725 -0.2644
    1W        W27793  24.976  11.360   7.390  0.2794 -0.1043  0.3136
    1W        W27794   6.358  24.421   1.297  0.1342 -0.2151  0.2230
    1W        W27795  21.431   5.739   1.243  0.0686  0.1256 -0.0768
    1W        W27796  15.875  19.977   1.530 -0.0051  0.0245 -0.1397
    1W        W27797  24.997   0.857   6.837 -0.3395 -0.2123  0.0042
    1W        W27798   7.121   7.384   0.171 -0.3162 -0.1459 -0.1814
    1W        W27799  14.960  22.365   8.627 -0.0409 -0.0615  0.1785
    1W        W27800   9.706   8.357   8.582 -0.5504  0.0884 -0.0415
    1W        W27801  23.219   1.199   0.170 -0.1703 -0.2540 -0.1799
    1W        W27802  15.760   5.642   0.634  0.0898  0.1795 -0.0438
    1W        W27803  20.736   9.206   6.906  0.0372  0.2771 -0.1556
    1W        W27804  18.466  21.271   0.149 -0.3821 -0.0920  0.1631
    1W        W27805   7.528   8.563   7.802 -0.1136 -0.0647  0.0782
    1W        W27806   8.277   5.423   8.024 -0.0079 -0.1531  0.1438
    1W        W27807   0.895  22.887   2.558  0.2280 -0.0653 -0.3446
    1W        W27808  19.722  26.239   1.845 -0.0857  0.0102  0.0550
    1W        W27809  22.063  11.310   1.281 -0.1767 -0.2481 -0.0094
    1W        W27810   9.649  18.508   2.130 -0.1873  0.0567 -0.1132
    1W        W27811  23.905  10.563   3.471 -0.0080 -0.1636  0.1970
    1W        W27812  19.294   0.930   1.099  0.1032  0.0729  0.0366
    1W        W27813  13.381  25.109   1.799  0.1051 -0.1315  0.1248
    1W        W27814  18.995  11.443   7.890  0.0394  0.2432 -0.1816
    1W        W27815  20.517  17.364   2.329 -0.2291 -0.0324  0.2475
    1W        W27816  11.482  21.028   8.391 -0.0342 -0.3590  0.2277
    1W        W27817   8.002  11.825   0.662  0.0311 -0.1308 -0.1336
    1W        W27818  28.499  25.913   9.728  0.1010 -0.0165  0.0619
    1W        W27819   8.644  11.157   1.871  0.0520  0.2803 -0.0037
    1W        W27820  13.938   3.115   0.336  0.0861  0.1266  0.0696
    1W        W27821  23.078  24.324   7.545  0.2824 -0.2559 -0.2582
    1W        W27822  23.734  24.117   2.765 -0.3837  0.0743  0.1107
    1W        W27823  23.000   1.919   6.800 -0.0270 -0.0132 -0.2336
    1W        W27824  16.369  28.194   9.900  0.0214  0.2550 -0.2464
    1W        W27825  25.771  15.719   1.940  0.1844 -0.1586 -0.0042
    1W        W27826  27.564   1.316   1.971 -0.0651  0.1010  0.2115
    1W        W27827  27.382  20.914   8.539 -0.2301 -0.3381 -0.1005
    1W        W27828  26.242   5.510   0.457 -0.2078 -0.0752  0.1343
    1W        W27829  11.442   4.803   2.314  0.4580 -0.0058  0.0519
    1W        W27830  14.096  16.694   8.611  0.0235 -0.4277 -0.0377
    1W        W27831  14.311  26.383   7.803 -0.2544  0.1740  0.0717
    1W        W27832  24.840  22.941   8.376  0.0365  0.3200  0.0848
    1W        W27833   7.124   6.167   9.020 -0.0053  0.3952  0.0598
    1W        W27834  23.093  17.353   0.653  0.1582 -0.2237  0.2261
    1W        W27835  12.258  13.004   7.334 -0.1850  0.0426 -0.2039
    1W        W27836   9.539  19.207   8.606  0.0778  0.2082 -0.0244
    1W        W27837  28.063  27.096   7.409  0.0044  0.2490  0.0480
    1W        W27838   1.009   4.446   7.495  0.0809 -0.0197  0.0954
    1W        W27839   2.472  18.496   9.437  0.1418 -0.0082  0.3365
    1W        W27840   0.049   6.596   1.514  0.1129  0.2254 -0.3809
    1W        W27841  12.552   8.261   1.824  0.0085 -0.1548  0.0076
    1W        W27842   0.340   9.626   5.784 -0.1066  0.1348  0.2511
    1W        W27843  16.974  26.400   2.951 -0.0745 -0.0950  0.0247
    1W        W27844   6.372   5.066   0.499 -0.1138 -0.1581 -0.1473
    1W        W27845  15.220  23.059   3.806 -0.0780  0.1583 -0.0437
    1W        W27846   0.967  19.314   0.887  0.2047  0.1425  0.4584
    1W        W27847  19.846  10.840   7.437 -0.0490  0.0237  0.3807
    1W        W27848  12.426   8.424   2.852  0.1137  0.1535  0.0640
    1W        W27849  25.287  13.312   6.727 -0.2258  0.2351  0.0288
    1W        W27850  12.398   0.291   1.259  0.2483 -0.3049  0.1711
    1W        W27851  10.000  18.387   0.042  0.1262  0.2778 -0.1542
    1W        W27852  15.452  11.901   0.181  0.0624  0.0492  0.1019
    1W        W27853   7.132   9.677   2.399  0.1410  0.3054  0.1600
    1W        W27854   5.986  13.984   7.437  0.1203  0.3640  0.1290
    1W        W27855  25.052   4.027   8.987 -0.1863  0.1252 -0.0467
    1W        W27856  27.761  14.878   7.168 -0.0492 -0.1082  0.1943
    1W        W27857  16.820  13.595   0.608  0.2566 -0.1725 -0.3615
    1W        W27858  27.017  17.659   0.144 -0.0793 -0.1735  0.1499
    1W        W27859   8.679  16.831   8.822  0.1890 -0.1681 -0.0473
    1W        W27860   1.187   4.201   2.950 -0.0912 -0.3516  0.2144
    1W        W27861   8.417   1.218   8.006 -0.2405  0.3176 -0.3979
    1W        W27862  23.574  20.883   0.403 -0.3213 -0.1793 -0.0798
    1W        W27863   9.719   2.690   8.619 -0.0343  0.3716  0.0404
    1W        W27864  10.058   9.852   8.724  0.2308 -0.0016 -0.0484
    1W        W27865  20.496  26.894   9.154 -0.0903 -0.2529  0.0346
    1W        W27866   8.586  27.967   0.224  0.0882  0.1326 -0.3305
    1W        W27867  10.815   2.234   1.118 -0.0196 -0.1985  0.0226
    1W        W27868   5.036  18.787   9.267 -0.3099 -0.0328 -0.0629
    1W        W27869  13.287  27.852   8.145  0.2289 -0.0819 -0.0618
    1W        W27870   6.167  21.448   7.334  0.0263 -0.0741  0.0613
    1W        W27871  21.761  12.260   7.499  0.0434  0.1616  0.2145
    1W        W27872   4.738   2.330   7.416  0.0191 -0.0341  0.1620
    1W        W27873  27.486   3.913   2.800  0.2456 -0.1583 -0.2340
    1W        W27874  15.699  22.347   7.478  0.3881  0.2237 -0.4161
    1W        W27875   6.698   2.532   1.487 -0.0658  0.0150 -0.0284
    1W        W27876  22.057  17.480   7.879  0.0514  0.3858  0.0686
    1W        W27877  18.597  24.674   7.990  0.2954 -0.1731  0.2095
    1W        W27878  10.595   8.922   8.904 -0.1066  0.0726  0.0780
    1W        W27879   8.263   5.244   2.660 -0.1073 -0.0716  0.1086
    1W        W27880  11.943  19.021   2.198 -0.1033 -0.1504 -0.0092
    1W        W27881  12.084  22.545   0.980  0.0673 -0.0767 -0.2492
    1W        W27882  24.411  14.729   1.615  0.0011  0.1320 -0.1949
    1W        W27883  23.916  17.336   1.034  0.1162 -0.2922 -0.1683
    1W        W27884  10.116  17.663   1.756 -0.2208 -0.0757  0.2690
    1W        W27885  23.709  21.336   9.155 -0.1287  0.0031  0.0451
    1W        W27886  28.614   3.669   6.914  0.1282 -0.2039  0.4301
    1W        W27887  18.685  21.081   1.758  0.2023  0.2424  0.2034
    1W        W27888  21.782   1.797   7.862  0.1544 -0.0231 -0.4888
    1W        W27889  18.541  28.038   1.575  0.2687  0.1111  0.0704
    1W        W27890  17.090   9.692   7.585 -0.0506  0.0488  0.0928
    1W        W27891   6.997  20.446   8.216  0.2113 -0.0396  0.0302
    1W        W27892  22.151  27.909   2.036 -0.1764  0.2185 -0.0910
    1W        W27893  26.485  25.890   3.268 -0.2525  0.2361 -0.2446
    1W        W27894  20.422  16.798   1.459  0.1982  0.0343 -0.5739
    1W        W27895  13.800   5.966   0.230 -0.1287  0.1310 -0.3566
    1W        W27896  22.569  16.365   9.248 -0.0862 -0.2255 -0.0940
    1W        W27897  21.738  21.281   7.353 -0.2068 -0.1452 -0.0785
    1W        W27898   4.663   8.138   6.903  0.0216  0.0727 -0.1808
    1W        W27899   3.334   1.432   7.251 -0.0046 -0.1795  0.0962
    1W        W27900   8.820   4.690   9.799  0.1719  0.5006 -0.2019
    1W        W27901   4.305   7.651   7.619  0.1636 -0.1595 -0.1138
    1W        W27902   8.586  22.997   6.127  0.2139  0.1229  0.6812
    1W        W27903   5.570  10.250   2.578  0.0490  0.1125  0.0652
    1W        W27904  11.412   7.273   0.757  0.1290  0.1063  0.3158
    1W        W27905  11.643  24.502   0.691  0.1485  0.0806 -0.1721
    1W        W27906  12.111  17.740   7.080 -0.0892 -0.0329 -0.1793
    1W        W27907  14.883  20.373   0.500 -0.0946 -0.3393 -0.1046
    1W        W27908  18.630   4.712   2.857  0.2181  0.1717 -0.1231
    1W        W27909  28.681  12.577   0.565  0.1956  0.1768  0.2088
    1W        W27910   9.436   5.717   0.086  0.0019  0.3585  0.2641
    1W        W27911  16.447  22.952   0.086 -0.1419  0.1286 -0.0954
    1W        W27912   9.721   1.511   9.857 -0.1757 -0.0850 -0.1845
    1W        W27913  13.427   2.945   1.673 -0.2744  0.0749 -0.1487
    1W        W27914   2.615   6.417   1.256 -0.0175 -0.2297  0.1563
    1W        W27915  26.801  13.923   6.755 -0.0882 -0.2821 -0.1919
    1W        W27916  24.663  22.949   2.705 -0.3495  0.0044 -0.0316
    1W        W27917  27.242   1.304   3.390  0.1936 -0.3052  0.4307
    1W        W27918   2.281   5.084   1.682  0.0621 -0.0292 -0.2366
    1W        W27919  19.895  18.343   9.127  0.4579  0.1023 -0.2811
    1W        W27920   1.909   4.978   7.797 -0.0261 -0.0967  0.0794
    1W        W27921   9.440   6.401   2.340 -0.1056  0.0690 -0.0647
    1W        W27922  15.129  21.765   8.137  0.0154 -0.0309  0.1619
    1W        W27923  13.601  26.412   7.193  0.1945 -0.0450 -0.0340
    1W        W27924  16.202   4.595   9.507 -0.1099  0.0537  0.1818
    1W        W27925  12.504  15.654   1.549 -0.0316 -0.0307  0.1651
    1W        W27926  22.269  14.844   9.827  0.1471  0.0793  0.1127
    1W        W27927   0.368   6.726   2.152  0.3108 -0.0364 -0.0339
    1W        W27928  15.567  19.192   8.936  0.2727  0.0676  0.0449
    1W        W27929  20.648  18.054   7.102  0.1014  0.1277 -0.0884
    1W        W27930   3.051   1.144   1.272 -0.1923 -0.4072 -0.0539
    1W        W27931  18.552  16.518   9.018 -0.0508  0.0043  0.0248
    1W        W27932   7.543  27.310   6.578 -0.3981 -0.0943 -0.0763
    1W        W27933  26.696   7.557   7.988  0.0731 -0.1000  0.1603
    1W        W27934   5.268  28.165   3.309  0.1226  0.0544  0.1299
    1W        W27935  27.198   4.969   7.367 -0.2061 -0.2751 -0.1523
    1W        W27936   5.864  12.653   6.668  0.0345 -0.0810 -0.1186
    1W        W27937  25.501  12.638   7.096 -0.3050  0.1218  0.3169
    1W        W27938  20.743   8.057   7.524  0.1183 -0.0192 -0.1101
    1W        W27939   1.791   1.688   9.213 -0.0713  0.0685 -0.1826
    1W        W27940  25.948  19.913   8.455  0.3711 -0.0578 -0.0533
    1W        W27941   6.682   6.511   7.103 -0.0049  0.2160  0.3041
    1W        W27942   5.326  11.771   0.691 -0.0587  0.1043 -0.0850
    1W        W27943   7.506  21.487   9.167  0.2935  0.3508  0.1182
    1W        W27944  25.761  21.378   8.068 -0.0985 -0.2126  0.1092
    1W        W27945   5.500  22.952   7.248 -0.2365  0.0585 -0.2282
    1W        W27946  24.563  20.269   6.233 -0.1524 -0.2103 -0.3033
    1W        W27947  20.127  26.539   1.779  0.2377  0.2739  0.1491
    1W        W27948  16.253  26.003   9.330  0.1912 -0.2857 -0.2758
    1W        W27949  25.739  19.127   1.108  0.3125  0.3410  0.1595
    1W        W27950  24.446  14.891   7.519 -0.3408 -0.3934 -0.0558
    1W        W27951   9.917   9.581   0.146  0.3626  0.2071  0.2632
    1W        W27952   3.561  18.797   9.699 -0.0853 -0.1483 -0.0089
    1W        W27953  28.691   7.970   9.039 -0.3062  0.0461  0.1711
    1W        W27954   5.116  16.761   7.412 -0.1139  0.0021  0.0152
    1W        W27955  10.383   0.386   9.279  0.1547  0.0900 -0.0767
    1W        W27956  26.349  25.677   7.826 -0.3722  0.0537  0.2153
    1W        W27957  23.774  17.541   7.600 -0.0480  0.0875  0.1306
    1W        W27958  28.527  11.515   2.047 -0.1156  0.1033 -0.0554
    1W        W27959  20.109   3.056   2.385 -0.0506 -0.1105 -0.0258
    1W        W27960   6.737   9.907   2.207 -0.1233 -0.2395  0.1814
    1W        W27961  10.715  20.687   7.116  0.1361 -0.1492  0.0771
    1W        W27962  10.669   8.485   9.143  0.1070 -0.1325  0.0174
    1W        W27963  27.114  15.742   0.686  0.1628  0.3142  0.0382
    1W        W27964  19.317  24.417   7.000  0.1879 -0.3587  0.0887
    1W        W27965  19.575   9.070   8.380 -0.2319  0.1000 -0.1745
    1W        W27966   5.101  27.381   7.721  0.3518  0.3109 -0.1611
    1W        W27967  15.755  26.208   1.346 -0.0076 -0.0565 -0.2557
    1W        W27968   2.486  14.534   0.500  0.1818  0.0117  0.1597
    1W        W27969  20.759   1.926   9.126 -0.0512 -0.1665 -0.2136
    1W        W27970  23.213  18.186   9.211  0.2847 -0.0277 -0.1305
    1W        W27971  10.054  28.103   2.059 -0.1918 -0.0060 -0.0205
    1W        W27972  25.161  17.050   8.144  0.0324  0.0998  0.0074
    1W        W27973  21.066  18.848   7.564 -0.1252 -0.0364  0.0497
    1W        W27974  24.765  19.758   8.729  0.2123  0.0602 -0.2183
    1W        W27975   5.636   9.833   9.664  0.0391 -0.0570  0.0171
    1W        W27976   1.036  18.026   7.841 -0.0681  0.4117  0.0483
    1W        W27977  15.016  14.009   8.187 -0.2474 -0.2764 -0.0470
    1W        W27978   8.397  12.545   2.575 -0.3523  0.0133  0.0929
    1W        W27979   0.207  17.102   8.876 -0.2355 -0.0749  0.1422
    1W        W27980   2.193  20.907   8.035 -0.0620  0.1491 -0.0765
    1W        W27981   2.708  24.993   0.336 -0.0742 -0.1528 -0.0675
    1W        W27982   5.923   6.886   2.066 -0.0433 -0.0801  0.0944
    1W        W27983   5.477   0.017   2.561  0.1528 -0.0988 -0.0733
    1W        W27984  10.565   1.719   8.181 -0.2573 -0.1912  0.2958
    1W        W27985  20.299  19.979   2.733  0.0524  0.1397 -0.0400
    1W        W27986  13.144  22.727   2.009 -0.0237 -0.1918 -0.2220
    1W        W27987  13.438  20.284   1.896 -0.1748  0.0612  0.1082
    1W        W27988  21.093  18.389   8.241  0.3049 -0.1418 -0.2295
    1W        W27989   5.851   9.441   7.496 -0.1843  0.0960 -0.0528
    1W        W27990  17.115  23.966   8.016  0.0462 -0.2284 -0.2066
    1W        W27991  27.307   9.382   1.536 -0.3057 -0.0708  0.1868
    1W        W27992  25.911  11.132   1.980  0.0567 -0.1408 -0.0100
    1W        W27993  27.703   5.808   9.145 -0.1045 -0.0842 -0.1491
    1W        W27994   6.519   3.310   3.419 -0.2957  0.1859  0.1342
    1W        W27995  12.941   2.329   7.006  0.1814 -0.1001 -0.0597
    1W        W27996  26.132  11.243   6.839 -0.2867 -0.0688  0.1796
    1W        W27997  28.496  21.090   9.241  0.1755  0.2760 -0.0668
    1W        W27998   8.531   7.998   2.713  0.1311  0.1476 -0.1280
    1W        W27999   5.146  25.010   0.143 -0.3037  0.4824 -0.2061
    1W        W28000  11.379  21.760   1.837 -0.2782 -0.1240  0.0799
    1W        W28001  15.211  19.691   3.110  0.2395 -0.3589 -0.0656
    1W        W28002  15.210   6.090   9.741 -0.2210  0.2850 -0.1094
    1W        W28003  28.066   5.737   7.065 -0.0438 -0.0171  0.2768
    1W        W28004   4.272  14.817   2.952 -0.3194 -0.2298  0.2808
    1W        W28005  13.151  16.716   8.227  0.2481  0.0924  0.1927
    1W        W28006   1.061  22.449   8.735  0.1407 -0.2764  0.2581
    1W        W28007  16.445  25.512   8.563  0.0491 -0.0466  0.1416
    1W        W28008  27.480  11.249   7.378  0.0172  0.0086  0.1898
    1W        W28009  24.926  22.757   2.249 -0.1021  0.1027  0.0461
    1W        W28010   2.166  17.895   6.101  0.0522  0.1796 -0.3650
    1W        W28011   1.566   2.534   0.753 -0.0791  0.0014 -0.1087
    1W        W28012  28.137  15.310   7.332 -0.3256  0.2976 -0.2150
    1W        W28013   2.555  28.675   9.822  0.3957 -0.2215  0.1647
    1W        W28014  25.048  28.491   7.649 -0.2063 -0.0626  0.0218
    1W        W28015  26.172  12.973   1.095  0.0315  0.0684  0.0253
    1W        W28016  20.844  17.555   0.213  0.3044 -0.0810  0.2202
    1W        W28017  26.628  14.455   9.746  0.0507  0.0890  0.2352
    1W        W28018   1.277  19.165   9.075 -0.0135  0.3048  0.0105
    1W        W28019  20.341  15.186   7.432  0.0942  0.2725  0.0897
    1W        W28020  28.258  16.752   7.633  0.0247 -0.0039  0.1002
    1W        W28021  20.424  12.595   8.119  0.0798 -0.1433 -0.0206
    1W        W28022  20.039  25.149   2.599  0.1078  0.3820  0.0310
    1W        W28023  12.253   9.722   0.610 -0.0645  0.2278  0.1120
    1W        W28024  28.531  11.631   7.290  0.0726  0.1083 -0.0417
    1W        W28025   8.333  22.515   1.743 -0.1245  0.1794 -0.4301
    1W        W28026  24.211  12.242   2.481 -0.1589 -0.2952  0.0389
    1W        W28027   4.808  22.927   7.325 -0.0623 -0.0987  0.0999
    1W        W28028  25.671  13.849   0.609 -0.0788  0.1463  0.1510
    1W        W28029  28.340   9.613   2.262  0.0016 -0.2786 -0.0083
    1W        W28030  16.113   9.355   9.071  0.0745 -0.2718  0.0911
    1W        W28031  12.247  19.234   0.787 -0.1508 -0.1124  0.3330
    1W        W28032  25.304  21.331   9.231 -0.1443 -0.2408 -0.0572
    1W        W28033  21.166   9.902   3.235  0.1491  0.0176 -0.1117
    1W        W28034   2.161   2.472   8.295  0.1486  0.1615  0.0087
    1W        W28035  11.297  17.880   0.814 -0.1276  0.0442  0.0529
    1W        W28036  27.133  19.852   9.529  0.2483  0.0962 -0.3060
    1W        W28037   2.958  24.542   2.579 -0.0094 -0.1409  0.1541
    1W        W28038   0.258   7.998   6.635  0.1417  0.0267 -0.0990
    1W        W28039  19.992   1.367   0.314 -0.2981  0.1594 -0.1763
    1W        W28040   1.323  28.097   0.256 -0.0565  0.3215 -0.4830
    1W        W28041   1.182  15.406   6.554  0.1752  0.0785  0.0589
    1W        W28042  23.841  21.939   2.956 -0.2651  0.2480 -0.0710
    1W        W28043  15.983  28.131   3.206  0.2835 -0.4662  0.0605
    1W        W28044  23.870  21.757   9.370 -0.4220 -0.0175 -0.0512
    1W        W28045  26.300   9.942   0.534 -0.0887 -0.0911 -0.0274
    1W        W28046   2.490  13.223   1.765 -0.3940  0.3351 -0.1615
    1W        W28047   2.098   2.403   0.925 -0.0095 -0.2664 -0.0195
    1W        W28048  19.354   4.833   2.428 -0.1437  0.0395  0.3426
    1W        W28049   3.425  11.925   6.486 -0.3784  0.1573  0.0656
    1W        W28050  13.044  19.868   7.481  0.4941  0.1912 -0.0862
    1W        W28051  26.728  12.048   6.868  0.1550  0.1631 -0.3022
    1W        W28052  23.924  22.177   8.034  0.1528 -0.0279 -0.1475
    1W        W28053  13.050   2.557   9.213  0.4521  0.1473 -0.4029
    1W        W28054  20.294   1.194   6.652  0.2879  0.1097 -0.0977
    1W        W28055  28.267   2.038   9.235 -0.0513 -0.0219  0.2168
    1W        W28056  23.463  16.653   7.526  0.1328  0.2409 -0.2512
    1W        W28057  24.362  25.579   8.564  0.1963 -0.2086 -0.1388
    1W        W28058   3.441   8.787   6.721  0.0055  0.0945  0.2269
    1W        W28059   7.735   5.521   7.785 -0.0899 -0.1826 -0.0661
    1W        W28060  18.441  22.658   1.512  0.1126 -0.1213 -0.0013
    1W        W28061   3.440  16.665   6.719  0.0529 -0.0543 -0.0577
    1W        W28062   2.769  19.623   1.236 -0.0697 -0.3462 -0.0806
    1W        W28063  10.480   7.307   2.040 -0.0733  0.0567  0.0520
    1W        W28064  11.153  18.469   1.665  0.0314 -0.4297 -0.0542
    1W        W28065  15.677  27.232   1.304  0.2884  0.0371 -0.1487
    1W        W28066  26.492  27.370   7.472  0.2026 -0.3755  0.1076
    1W        W28067   6.192  11.525   0.799 -0.1390 -0.2693  0.3742
    1W        W28068  10.539   1.922   0.019  0.0958 -0.0771  0.0109
    1W        W28069   1.635  19.099   9.503  0.0174 -0.0796  0.0753
    1W        W28070   2.519  13.824   1.772 -0.0469  0.0431 -0.1239
    1W        W28071  16.208  17.306   9.730  0.0562 -0.3372  0.0079
    1W        W28072  20.351   5.551   7.939 -0.2334 -0.0295 -0.2639
    1W        W28073   4.847   5.196   1.614  0.0929 -0.1568  0.2481
    1W        W28074  12.849  22.949   6.751 -0.0300  0.4764 -0.1917
    1W        W28075  24.827  18.159   8.945 -0.0964 -0.2563  0.4258
    1W        W28076  17.854  13.492   9.748 -0.0785 -0.3329 -0.0839
    1W        W28077   9.236  28.493   9.713 -0.1671 -0.0392 -0.1723
    1W        W28078  27.406   5.037   8.618 -0.1016  0.1312 -0.1202
    1W        W28079  23.728  28.077   6.480 -0.1182 -0.1064  0.1644
    1W        W28080  16.280   9.819   1.292  0.2946 -0.0224  0.0209
    1W        W28081   0.373  18.949   6.680  0.2863  0.2507  0.1285
    1W        W28082  22.519   2.952   2.093 -0.0404 -0.2031  0.0431
    1W        W28083   3.419  24.093   6.536  0.0707  0.3513  0.1414
    1W        W28084   7.572  25.576   6.566 -0.0146 -0.1712 -0.0544
    1W        W28085   5.128   1.186   7.719  0.0915  0.0827  0.0530
    1W        W28086  19.763  24.713   3.533  0.2418 -0.4508 -0.0301
    1W        W28087  10.258  22.794   2.864  0.2813 -0.1912  0.0384
    1W        W28088  25.321  11.631   8.393  0.0805 -0.0166 -0.2120
    1W        W28089  12.432   1.934   1.859 -0.0889  0.0571 -0.0543
    1W        W28090  16.251  23.315   8.063 -0.3349 -0.2696 -0.0920
    1W        W28091   2.372   3.700   3.079 -0.2347 -0.2202 -0.0987
    1W        W28092  17.063  11.681   8.399  0.0152  0.0034  0.1775
    1W        W28093  22.497   2.672   3.074 -0.0043  0.1632  0.0730
    1W        W28094  26.775  17.928   3.267  0.2162 -0.0089 -0.1657
    1W        W28095   9.480  18.113   6.535  0.2351  0.0188  0.0545
    1W        W28096   4.685   9.376   1.714  0.1645  0.2585  0.0048
    1W        W28097   5.717  10.862   1.689  0.1103  0.0010 -0.1793
    1W        W28098   2.692  19.954   7.346 -0.1218 -0.2788  0.0515
    1W        W28099   8.047   2.151   7.069 -0.1891 -0.0927  0.0954
    1W        W28100   4.752  13.401   6.374  0.1364  0.2161  0.0533
    1W        W28101  17.020  20.995   1.811  0.1486  0.0460 -0.1557
    1W        W28102  18.113   1.997   2.401  0.3008  0.0901  0.0497
    1W        W28103   0.270   2.228   0.224 -0.0271  0.0988 -0.4140
    1W        W28104  13.507   5.765   2.141  0.3799 -0.1146  0.0538
    1W        W28105   8.911  24.249   8.235 -0.0047 -0.0408 -0.3235
    1W        W28106  26.156   3.849   9.611 -0.1410 -0.1885  0.1641
    1W        W28107  15.851   2.499   3.486 -0.0884  0.2431  0.3029
    1W        W28108  28.674   8.118   7.536  0.2284 -0.1269 -0.0875
    1W        W28109   4.680   1.864   0.641 -0.0728 -0.2417  0.1236
    1W        W28110  14.192  27.359   8.242  0.1197 -0.1576 -0.2827
    1W        W28111  17.531  23.894   2.797  0.1693 -0.0546 -0.0310
    1W        W28112   8.701  25.700   1.236  0.1481 -0.0496 -0.1315
    1W        W28113  27.503   6.830   1.349 -0.1820 -0.2912  0.2504
    1W        W28114  20.192  22.961   9.720  0.0173  0.2130  0.1425
    1W        W28115  23.671  27.261   7.833  0.0345 -0.2457  0.3099
    1W        W28116  10.919  20.274   9.519 -0.0340 -0.2501  0.1143
    1W        W28117   9.818  20.319   2.678  0.0651 -0.0135 -0.0045
    1W        W28118  10.186  12.837   1.979  0.0618  0.2615  0.0678
    1W        W28119  14.909  13.649   3.033  0.0387 -0.2388  0.3585
    1W        W28120  10.818  21.294   1.217  0.0082  0.0071  0.4649
    1W        W28121  22.223  23.431   8.252 -0.1091 -0.0901  0.2116
    1W        W28122  24.642   5.121   1.496 -0.1355 -0.0224  0.0550
    1W        W28123   2.022  27.019   0.989  0.3492 -0.0080 -0.0457
    1W        W28124   3.461  17.919   0.493 -0.1135 -0.1467 -0.1972
    1W        W28125   4.664  11.560   1.830 -0.1782  0.3143 -0.2741
    1W        W28126  10.508  13.088   2.369  0.2002 -0.2329 -0.1871
    1W        W28127  19.982   9.355   8.382 -0.2082  0.3227 -0.1385
    1W        W28128  18.569   8.576   7.887 -0.0210 -0.3158  0.3885
    1W        W28129  24.434  16.484   6.960 -0.3651 -0.0645 -0.0340
    1W        W28130  21.285   8.842   8.457 -0.1762  0.1801  0.0908
    1W        W28131  20.785   1.789   7.707 -0.1729 -0.1725  0.2293
    1W        W28132  26.721  20.577   1.471 -0.3301  0.0162  0.0673
    1W        W28133   3.802   4.824   2.331 -0.0768 -0.0500  0.0174
    1W        W28134   6.622   3.438   7.027  0.4128 -0.0744 -0.1791
    1W        W28135   4.880  25.160   2.515 -0.4030  0.0780 -0.1245
    1W        W28136   5.503  28.222   0.310  0.4243  0.2223 -0.1342
    1W        W28137  25.285   7.675   6.682 -0.1222  0.2859 -0.1451
    1W        W28138   7.061  23.313   7.061 -0.1290  0.2186  0.0594
    1W        W28139  18.721  25.493   9.537  0.1024 -0.1152 -0.1266
    1W        W28140  27.884  18.267   0.538  0.1446 -0.0972  0.0455
    1W        W28141  26.320  22.845   0.020 -0.1939  0.1472 -0.1231
    1W        W28142  20.055  11.142   7.801 -0.0261  0.1956  0.0936
    1W        W28143   1.915  27.935   0.912  0.2238  0.1595 -0.1009
    1W        W28144   2.224  19.905   0.664  0.0696 -0.0637 -0.3799
    1W        W28145  24.092  16.708   1.077  0.1788  0.1156  0.1074
    1W        W28146  13.868  10.003   9.430 -0.0715 -0.2579 -0.1787
    1W        W28147   0.996  23.419   5.953 -0.0089 -0.2130 -0.1205
    1W        W28148   7.842  10.961   9.942  0.2125 -0.0964 -0.1856
    1W        W28149   8.750   2.402   9.431  0.0845  0.1180 -0.1839
    1W        W28150  28.392   5.396   6.731 -0.4085 -0.3129  0.0379
    1W        W28151   7.001  26.393   1.896 -0.0109 -0.0944 -0.3790
    1W        W28152   0.439  10.730   1.202 -0.1044 -0.3636  0.2827
    1W        W28153  21.338   1.412   8.114  0.2156  0.0764 -0.2625
    1W        W28154  20.823  18.875   1.388  0.0298  0.0395 -0.0726
    1W        W28155  27.548  21.628   7.977  0.2094 -0.0166 -0.0747
    1W        W28156  17.637  12.238   2.904 -0.1817  0.1898  0.0036
    1W        W28157  13.159  22.225   0.124  0.2063 -0.3726 -0.0437
    1W        W28158   8.285  22.697   0.313  0.0363  0.0859  0.3168
    1W        W28159  23.710  28.697   6.478 -0.1042  0.1845 -0.4575
    1W        W28160   5.933  27.926   8.679 -0.1840  0.1540  0.0094
    1W        W28161   1.314  19.848   6.707 -0.3330  0.2521 -0.2672
    1W        W28162  14.154  22.288   8.547 -0.0191 -0.2159  0.0292
    1W        W28163  23.345  13.371   1.796 -0.0911 -0.1135 -0.1448
    1W        W28164   0.970  11.938   6.286 -0.0104  0.0072 -0.1296
    1W        W28165  22.452   7.145   3.197 -0.0779  0.1345  0.0054
    1W        W28166   3.655  25.152   1.577 -0.0391 -0.0566  0.2176
    1W        W28167  17.992   7.023   8.211 -0.0044 -0.0715  0.0290
    1W        W28168   0.737   2.591   1.149 -0.1306  0.2578  0.2151
    1W        W28169   7.951  22.343   1.418 -0.1011  0.0278  0.2012
    1W        W28170  24.361  19.108   8.023  0.0119  0.1465 -0.3368
    1W        W28171  24.645   7.728   0.159  0.2401 -0.1350 -0.1803
    1W        W28172  16.862   0.445   9.488  0.1094 -0.3601  0.1461
    1W        W28173   3.784   2.377   0.845 -0.0663  0.0488  0.2132
    1W        W28174   0.431  23.344   7.254 -0.2654  0.1190  0.0399
    1W        W28175   0.913  25.455   1.420  0.0721 -0.3401 -0.1818
    1W        W28176   6.564  14.830   9.135  0.0194  0.0051 -0.1166
    1W        W28177  10.882  11.512   2.281 -0.1222 -0.1676  0.2376
    1W        W28178   6.591  23.102   1.554 -0.1287 -0.0876 -0.1386
    1W        W28179   3.202  16.663   0.465 -0.2618 -0.3050  0.0035
    1W        W28180  21.692   4.441   0.375 -0.0160 -0.1151  0.0312
    1W        W28181  15.826  28.016   1.321  0.0784 -0.2116  0.0778
    1W        W28182  14.210   3.154   9.097 -0.3915 -0.3376  0.2369
    1W        W28183  16.665  28.349   0.389 -0.3080 -0.0706 -0.1460
    1W        W28184  24.630   3.629   9.621 -0.1438  0.1084 -0.0883
    1W        W28185   3.437  25.362   2.750 -0.0887 -0.2113 -0.0038
    1W        W28186  28.441   8.090   2.143 -0.1198 -0.0469  0.0575
    1W        W28187  23.774  10.737   2.984 -0.2377 -0.0479 -0.0694
    1W        W28188  13.834  14.129   1.158  0.0509  0.0815  0.3181
    1W        W28189   4.414   8.233   1.396  0.2741 -0.1814 -0.1027
    1W        W28190   4.870   1.080   8.538 -0.0726 -0.1055  0.4563
    1W        W28191  22.929  15.567   2.589 -0.2954 -0.0089 -0.1033
    1W        W28192   2.815   7.330   0.116  0.0878 -0.2143  0.0868
    1W        W28193   7.935  13.588   0.515  0.2972 -0.2119  0.4239
    1W        W28194   8.441  27.982   2.494  0.0200 -0.0647  0.2521
    1W        W28195  10.021  24.083   1.685 -0.2629 -0.0753  0.0617
    1W        W28196  22.787   5.838   0.664  0.1531 -0.0752  0.2285
    1W        W28197  11.904  27.957   2.263  0.0412 -0.0030 -0.1698
    1W        W28198  23.223   3.631   0.341 -0.0903  0.0653 -0.3498
    1W        W28199  24.953   6.081   6.552  0.0693 -0.2231 -0.1033
    1W        W28200  11.442  21.687   9.057 -0.1656  0.4648  0.1116
    1W        W28201   5.114  18.343   0.507  0.0440  0.0620 -0.0487
    1W        W28202  27.342   7.451   9.883  0.0962 -0.0272  0.0250
    1W        W28203   5.593  27.125   1.189  0.0993  0.0675  0.0487
    1W        W28204  25.496   2.324   7.744  0.4134  0.4905  0.2826
    1W        W28205  20.698   4.203   3.495  0.0843 -0.1873 -0.1042
    1W        W28206  19.985  23.473   1.758  0.2864 -0.3197  0.1141
    1W        W28207  24.118   5.477   2.047  0.0073 -0.1619 -0.0854
    1W        W28208  22.961  16.598   9.354 -0.0101  0.0162  0.2812
    1W        W28209  16.790   6.176   7.122  0.1979 -0.0143  0.0704
    1W        W28210   5.951   6.752   8.601  0.1385  0.1188 -0.0782
    1W        W28211   0.131  15.610   9.733  0.0048  0.1421 -0.5270
    1W        W28212  16.700   6.973   0.382 -0.0286 -0.3118 -0.5806
    1W        W28213   0.450  17.798   5.828 -0.2747  0.1914  0.1471
    1W        W28214  28.106  25.903   7.020 -0.2731  0.1268  0.1071
    1W        W28215   6.528   3.762   0.574  0.0579 -0.2597  0.0315
    1W        W28216  23.662   3.198   9.457 -0.0551 -0.0350  0.2915
    1W        W28217   3.805  28.352   1.920 -0.0537 -0.0691 -0.2413
    1W        W28218   2.087  21.873   8.658 -0.1823  0.2220  0.1708
    1W        W28219  13.699   4.814   8.527  0.0308  0.5895  0.0545
    1W        W28220  17.530  15.231   8.224 -0.1332  0.1249 -0.0671
    1W        W28221  10.363   2.366   3.210 -0.2355 -0.0794 -0.0458
    1W        W28222  23.257  14.663   2.094  0.2928 -0.1324  0.2514
    1W        W28223   3.848  24.954   9.134 -0.0078 -0.5089 -0.1860
    1W        W28224  24.248  11.926   7.525  0.0738  0.0689 -0.2703
    1W        W28225  20.643  17.968   9.951 -0.0498  0.0969 -0.5429
    1W        W28226  26.810  11.808   9.804 -0.0943 -0.1256  0.1798
    1W        W28227   8.751  21.488   6.076  0.4453 -0.0196 -0.1718
    1W        W28228  13.391   3.181   3.192 -0.3772  0.2450  0.2854
    1W        W28229  12.661  22.583   2.858 -0.2623  0.1212 -0.1539
    1W        W28230  21.104   5.669   9.158 -0.4470  0.0756  0.1033
    1W        W28231  13.649  11.821   1.261 -0.2090 -0.1947  0.0319
    1W        W28232  10.831  12.178   8.138 -0.2305  0.2787 -0.2435
    1W        W28233   5.565  14.855   7.180  0.0373  0.1950 -0.4609
    1W        W28234   8.780  21.821   7.720  0.0848  0.2084  0.2607
    1W        W28235  10.821  21.464   1.793 -0.0332  0.1024 -0.0993
    1W        W28236  27.827   7.125   7.794  0.2680 -0.1112  0.0326
    1W        W28237   4.126  18.608   7.687  0.2387 -0.0228  0.2754
    1W        W28238  12.125  23.813   3.061  0.0784 -0.0973  0.1969
    1W        W28239  23.422  26.756   7.899  0.2682  0.0723 -0.0382
    1W        W28240   7.887  18.934   0.336  0.0413  0.1254  0.3126
    1W        W28241  21.971  23.664   7.299 -0.1450 -0.1220 -0.0975
    1W        W28242  23.698  26.032   7.486  0.0377  0.1350  0.1980
    1W        W28243   3.992  13.874   0.306  0.0458  0.0609  0.1083
    1W        W28244  17.184  26.434   3.499  0.2425 -0.0103  0.2876
    1W        W28245  21.445  21.127   8.335 -0.0639  0.0421 -0.1554
    1W        W28246  23.398  16.645   8.886 -0.4252 -0.0643  0.2143
    1W        W28247  12.746  13.432   9.358  0.1098  0.4024  0.0850
    1W        W28248  24.435  16.694   0.088 -0.2278 -0.2176  0.1451
    1W        W28249   9.669   2.375   2.142 -0.0007 -0.0837  0.0477
    1W        W28250   4.527   7.963   0.564  0.1602 -0.0572  0.1982
    1W        W28251  13.506  12.786   7.936 -0.2497 -0.1075 -0.0153
    1W        W28252   9.914  15.822   7.370  0.1926 -0.0771 -0.3255
    1W        W28253   9.174  20.296   0.290 -0.2526 -0.1473 -0.2874
    1W        W28254   2.718  27.028   3.108  0.0852  0.1331 -0.1468
    1W        W28255  19.532   4.638   1.397 -0.1109 -0.1194 -0.0661
    1W        W28256   6.421   5.642   2.982  0.0731  0.2180  0.0396
    1W        W28257  21.663  27.292   8.053 -0.0646 -0.1277 -0.0647
    1W        W28258  16.189  12.150   7.827  0.2759  0.0313  0.2315
    1W        W28259   5.675   9.312   1.609 -0.0329 -0.1799 -0.0347
    1W        W28260   0.391  27.354   1.664  0.1411  0.1228  0.2553
    1W        W28261  28.173  13.038   8.493 -0.1111  0.1551 -0.0558
    1W        W28262   9.576  13.555   1.982 -0.0072 -0.1608  0.3281
    1W        W28263  19.399   3.479   7.946  0.2943 -0.1668  0.0635
    1W        W28264  11.084   8.725   2.667  0.2577 -0.1131  0.2236
    1W        W28265   4.467   3.883   0.538 -0.0170 -0.0404 -0.0089
    1W        W28266  23.195   2.360   0.476 -0.0237 -0.0415 -0.2896
    1W        W28267  26.233  23.957   0.029 -0.0059  0.1263  0.0872
    1W        W28268  20.386  19.479   2.484 -0.0837 -0.0728  0.4404
    1W        W28269  20.013  10.350   7.403 -0.0185  0.2482 -0.0088
    1W        W28270  12.242  23.125   9.062  0.1038  0.1138 -0.1957
    1W        W28271   0.032   0.578   2.911  0.0259 -0.2044 -0.2415
    1W        W28272   3.162  20.326   7.103 -0.3337 -0.1532 -0.0261
    1W        W28273   6.201  21.229   1.690  0.2068 -0.1223  0.3375
    1W        W28274  25.663   3.735   9.458 -0.0065 -0.0633  0.3073
    1W        W28275  17.525  11.209   7.754  0.0665 -0.3129  0.1378
    1W        W28276  24.135  10.102   6.145  0.0180  0.4484  0.1258
    1W        W28277   9.700  20.799   7.589 -0.0044  0.0011 -0.4189
    1W        W28278  17.206   6.938   9.473  0.3030  0.0692 -0.0953
    1W        W28279   5.530  13.169   7.822  0.2131  0.1797  0.0174
    1W        W28280  27.701  17.736   1.870 -0.0643  0.3639 -0.0660
    1W        W28281   2.384   6.977   2.052 -0.1043  0.1649 -0.0110
    1W        W28282  15.246  26.885   4.133 -0.2748 -0.1015 -0.2800
    1W        W28283  19.667  26.108   3.125 -0.1003 -0.0301 -0.1032
    1W        W28284   6.713  15.106   0.379  0.2935  0.1666  0.0146
    1W        W28285   3.929   7.822   9.785 -0.0621 -0.0134  0.3140
    1W        W28286  23.652   0.777   0.025  0.1079  0.1460  0.0878
    1W        W28287  10.551   2.488   7.757 -0.1411 -0.2675  0.0688
    1W        W28288   8.888  14.223   2.283 -0.0795 -0.0014  0.2348
    1W        W28289  11.117  19.824   1.362 -0.2641 -0.2243 -0.3309
    1W        W28290  20.531  24.423   7.549  0.1387  0.1402 -0.0004
    1W        W28291  27.861  11.045   8.696  0.0487 -0.2269 -0.1861
    1W        W28292  14.245  17.290   7.974 -0.0174  0.2728 -0.1802
    1W        W28293  17.891  14.538   7.479  0.3841 -0.2186  0.0444
    1W        W28294   3.990  13.988   9.772  0.0027  0.2417 -0.0793
    1W        W28295  19.792   7.027   3.905  0.1622 -0.0724 -0.2355
    1W        W28296   3.933  11.320   2.076  0.2038 -0.3618  0.1379
    1W        W28297  18.131  12.430   7.843  0.4229  0.0407  0.3035
    1W        W28298   0.732  16.438   7.445 -0.3938 -0.0787 -0.4197
    1W        W28299  13.800   1.844   8.189 -0.0538  0.2056 -0.1497
    1W        W28300   6.141  14.545   9.119  0.1949 -0.2696  0.2017
    1W        W28301  11.257  18.849   9.004  0.0362 -0.0326 -0.0093
    1W        W28302  20.184   3.883   1.381 -0.1949  0.0700 -0.1568
    1W        W28303  10.387   9.433   0.953 -0.0667  0.0330  0.1131
    1W        W28304  15.179  16.397   7.022  0.2633  0.1416 -0.3459
    1W        W28305   7.215  14.600   6.574 -0.1257 -0.2321 -0.0302
    1W        W28306  24.854  15.434   7.084  0.1354 -0.2036 -0.0056
    1W        W28307  16.997   7.091   8.592 -0.2306  0.3155  0.0138
    1W        W28308   4.773  13.096   1.590 -0.0361 -0.1573  0.0911
    1W        W28309  17.296   7.241   2.828  0.1742  0.1131 -0.0171
    1W        W28310  26.158  18.914   7.821 -0.0108 -0.2035 -0.2714
    1W        W28311  15.762   7.106   2.946  0.1367  0.1106 -0.1357
    1W        W28312   6.868   3.932   8.531  0.0240  0.0178  0.0570
    1W        W28313  16.504   6.691   1.705  0.2216  0.0357 -0.0921
    1W        W28314   6.950  16.176   6.660  0.0113  0.2037  0.1846
    1W        W28315  15.036  17.586   9.505 -0.0653  0.2273  0.0533
    1W        W28316   0.299   5.480   6.079 -0.1628  0.0439 -0.2023
    1W        W28317  14.409  24.974   2.428  0.2321 -0.2372 -0.2082
    1W        W28318   2.465   3.504   8.230  0.1099 -0.0775  0.0704
    1W        W28319  23.296  11.305   9.433  0.0700  0.2008  0.1635
    1W        W28320  16.800  26.575   7.169  0.1237 -0.1514 -0.0933
    1W        W28321   2.757   1.650   1.381 -0.0693 -0.0956  0.0972
    1W        W28322   1.512  17.706   2.607 -0.2886 -0.1082  0.1680
    1W        W28323   1.459  25.722   6.875  0.1789  0.1168  0.0605
    1W        W28324  25.203   5.347   6.419 -0.0758 -0.0558 -0.0988
    1W        W28325  26.376   8.271   0.494  0.1505 -0.0216 -0.2411
    1W        W28326  27.625  27.901   2.213 -0.1497  0.3119  0.0449
    1W        W28327   5.398  27.810   7.279 -0.0170 -0.0528  0.1718
    1W        W28328   4.778   5.588   3.287  0.1006 -0.0834 -0.4150
    1W        W28329  22.157  27.368   9.072 -0.2555  0.3301  0.1074
    1W        W28330  13.633   2.851   9.853 -0.1857 -0.0699  0.3810
    1W        W28331  23.651  11.604   9.901 -0.1176  0.0197 -0.0460
    1W        W28332  10.359  25.012   7.365  0.4651 -0.1141 -0.0938
    1W        W28333   6.321   2.376   1.090  0.0874 -0.1368  0.1210
    1W        W28334   8.288  14.686   7.552 -0.1602  0.1082 -0.0709
    1W        W28335  22.013   7.326   0.967  0.2033  0.0694  0.1825
    1W        W28336   8.872  26.467   9.656  0.0439 -0.0945  0.4450
    1W        W28337  26.553  21.600   3.035 -0.0984  0.1297 -0.2663
    1W        W28338  16.252  10.261   2.033 -0.1916 -0.0309  0.3047
    1W        W28339  12.868  16.750   2.490  0.2593  0.3125 -0.0231
    1W        W28340   6.042  15.623   0.392 -0.2198  0.0315 -0.1077
    1W        W28341  16.794  17.136   0.668 -0.0945  0.0184  0.0038
    1W        W28342  12.966   0.826   8.246  0.3207  0.2476 -0.1377
    1W        W28343  22.189  22.923   8.372  0.2250 -0.0512  0.2395
    1W        W28344  23.084   3.055   0.821 -0.1381  0.0976 -0.0052
    1W        W28345  22.433  25.803   9.557  0.0996 -0.0921  0.4468
    1W        W28346   6.767  24.399   1.629  0.1424  0.2561  0.0975
    1W        W28347   9.741  19.781   0.715 -0.2060 -0.3554 -0.0169
    1W        W28348  17.711  19.480   8.282  0.0245  0.1358  0.0528
    1W        W28349  23.031  11.515   6.545  0.1825 -0.1604  0.1735
    1W        W28350  23.014  16.057   2.221 -0.1146  0.0005  0.1700
    1W        W28351  12.247  23.031   0.977 -0.2923  0.0884  0.0231
    1W        W28352  17.221   6.961   3.530  0.3283  0.1304  0.0029
    1W        W28353  18.249  27.367   0.952  0.4710 -0.4539  0.2861
    1W        W28354  14.943  17.257   7.620 -0.1212  0.0527 -0.3332
    1W        W28355  11.938  14.991   7.890  0.1139 -0.0272 -0.0241
    1W        W28356  10.672  19.471   9.394 -0.2211  0.0697 -0.0245
    1W        W28357   8.859  11.123   9.169 -0.0924 -0.1556  0.1439
    1W        W28358   1.569  27.237   7.893  0.3013  0.5483  0.2037
    1W        W28359  14.147   0.775   6.892  0.0932 -0.4211  0.0606
    1W        W28360   6.516  16.859   1.121  0.2311  0.1487  0.3184
    1W        W28361  11.515   7.610   8.168  0.1637 -0.2711  0.4540
    1W        W28362  10.406  17.730   9.343 -0.0874 -0.0556  0.0762
    1W        W28363  27.068   5.376   9.165 -0.0992 -0.2220 -0.2018
    1W        W28364   3.917  16.671   2.170 -0.1305 -0.0581 -0.0102
    1W        W28365   3.120  25.638   9.674  0.1985  0.0873 -0.2121
    1W        W28366  18.256  22.809   9.882 -0.1674 -0.4162  0.1530
    1W        W28367  16.835  18.766   3.388 -0.1459 -0.1612  0.0313
    1W        W28368   7.588   0.464   9.612  0.1214 -0.0220  0.0619
    1W        W28369   2.671  24.590   7.953  0.4554 -0.0155 -0.2162
    1W        W28370  12.151  27.018   1.216 -0.0961 -0.0756 -0.1464
    1W        W28371  27.119  21.275   2.370 -0.4355  0.2107  0.0855
    1W        W28372   6.502  23.423   1.922  0.2028 -0.3683  0.0513
    1W        W28373  12.825  25.297   2.248  0.0993 -0.2858  0.2968
    1W        W28374   4.556   7.113   7.170  0.1911  0.2863  0.1973
    1W        W28375  17.487  24.420   9.028 -0.2920  0.0573 -0.2088
    1W        W28376  18.873  22.460   3.041 -0.4167  0.0427 -0.1119
    1W        W28377  22.345  14.110   1.498  0.0402  0.2071 -0.2226
    1W        W28378  22.788  10.485   9.948  0.1697  0.1089  0.0146
    1W        W28379   2.507   6.873   0.250  0.1998  0.0310  0.0023
    1W        W28380  27.422  18.867   6.719  0.2805 -0.0729 -0.3547
    1W        W28381  18.130  12.554   1.689  0.4267 -0.3538 -0.0664
    1W        W28382   0.042  28.479   2.369 -0.0976 -0.1622 -0.2039
    1W        W28383   6.765  28.083   7.562 -0.2213 -0.2057 -0.2859
    1W        W28384   4.528  22.374   7.465 -0.0448 -0.5443  0.1843
    1W        W28385  17.486  23.516   7.075  0.0279  0.0038  0.1568
    1W        W28386  23.490   5.431   9.106  0.0653 -0.2235 -0.0299
    1W        W28387   7.468   0.577   1.724 -0.2791 -0.0878  0.0936
    1W        W28388  13.316  16.924   9.143 -0.1491 -0.0969  0.1886
    1W        W28389   6.459   8.739   1.652  0.3705 -0.1421  0.0404
    1W        W28390   0.946  13.430   8.010  0.1114  0.1934  0.1612
    1W        W28391  13.103  11.179   1.413  0.1083 -0.6436 -0.0174
    1W        W28392   2.606  13.453   9.946  0.0117  0.0509  0.1629
    1W        W28393  23.900  21.112   9.909  0.0524  0.1300  0.0007
    1W        W28394   2.899   7.317   1.892  0.0415 -0.1020 -0.0025
    1W        W28395   5.919   6.841   0.502  0.0568  0.0521 -0.0721
    1W        W28396  18.343  18.559   3.830 -0.0330  0.2076  0.2225
    1W        W28397  19.879  27.247   8.192 -0.1721  0.1895 -0.1140
    1W        W28398   0.514   2.754   0.747 -0.0556  0.0434  0.2298
    1W        W28399   9.905   1.450   7.158  0.1469  0.0892  0.0508
    1W        W28400   8.004   5.689   9.008 -0.0326 -0.0653 -0.1739
    1W        W28401  19.009  25.304   3.387  0.5529 -0.0991  0.1820
    1W        W28402   5.386   9.312   9.936  0.2430  0.2804  0.2538
    1W        W28403  26.086  10.677   9.520  0.0511 -0.1143 -0.0784
    1W        W28404  25.145   4.945   2.275 -0.0617 -0.2582  0.3316
    1W        W28405   6.959  26.095   0.951 -0.1506  0.3465  0.0068
    1W        W28406  12.605  19.214   8.353  0.0923  0.0638  0.5463
    1W        W28407   0.805  13.014   0.495  0.0258  0.0735  0.1672
    1W        W28408  14.956   0.894   8.855  0.2287 -0.3022 -0.3498
    1W        W28409  20.353  14.939   1.537 -0.2714 -0.2731  0.2651
    1W        W28410  14.557  26.715   1.312  0.0067  0.2072  0.1573
    1W        W28411  19.626   0.719   8.304 -0.2588 -0.1816  0.1366
    1W        W28412   1.109  23.317   0.757 -0.0021 -0.2189 -0.0621
    1W        W28413   3.754   5.994   1.942  0.0177  0.1448  0.1104
    1W        W28414  23.632   7.951   1.490 -0.0916 -0.1538  0.3970
    1W        W28415  23.378   1.856   2.332  0.2824  0.0058 -0.1188
    1W        W28416  11.328  17.116   1.100  0.1915  0.0336  0.0779
    1W        W28417   4.579   7.592   3.439 -0.1095  0.2045 -0.1186
    1W        W28418  20.458  24.633   8.033 -0.0342  0.0575  0.1965
    1W        W28419  25.555  16.357   1.000  0.2007 -0.0464 -0.1167
    1W        W28420  26.616  18.622   8.073  0.3067 -0.3668 -0.1660
    1W        W28421   3.006   8.231   7.450  0.0090 -0.2736  0.3087
    1W        W28422   1.032  13.125   6.530  0.3569  0.0748  0.1248
    1W        W28423   4.205  17.390   1.049 -0.1769 -0.2675  0.2104
    1W        W28424   4.608  22.105   6.792  0.0363 -0.0767 -0.2674
    1W        W28425  14.874   6.323   9.355 -0.0758 -0.0507 -0.0254
    1W        W28426  27.350  28.086   1.775  0.0466  0.0462 -0.1035
    1W        W28427  18.725   5.090   2.043 -0.1271 -0.1799  0.1254
    1W        W28428  28.679   2.111   1.117 -0.0125  0.0880 -0.0621
    1W        W28429  24.374  28.647   8.975 -0.0637 -0.0930  0.0143
    1W        W28430  16.109  10.106   7.804  0.2870 -0.2197  0.1605
    1W        W28431  18.596  15.330   8.338  0.2258  0.1115  0.1331
    1W        W28432  18.151  19.290   2.406 -0.1277 -0.3576  0.1643
    1W        W28433   3.007   3.111   2.697 -0.0066 -0.2080  0.1044
    1W        W28434   0.193  14.009   1.680 -0.1615  0.0449  0.1099
    1W        W28435  23.192   6.003   0.012  0.0312 -0.2854  0.1984
    1W        W28436   2.178  15.144   9.255  0.2944 -0.1834 -0.1012
    1W        W28437  21.206  13.397   9.426  0.2187  0.0785 -0.1919
    1W        W28438  21.830   6.808   1.916  0.3227  0.2851 -0.0143
    1W        W28439  17.698  12.597   7.595  0.4395  0.1751  0.1413
    1W        W28440   7.196  20.200   0.811 -0.0149 -0.0666 -0.1223
    1W        W28441  22.961   4.748   6.541  0.3152  0.3939 -0.1764
    1W        W28442  26.470  25.727   8.316 -0.0982 -0.3318  0.3771
    1W        W28443   8.902   3.559   2.450 -0.2880  0.1321 -0.2018
    1W        W28444   6.010   1.593   2.040  0.3083 -0.0745  0.0220
    1W        W28445   2.795   3.873   8.492  0.1063 -0.0292 -0.1118
    1W        W28446   7.923   4.997   3.518  0.2422  0.2678  0.1164
    1W        W28447  25.013  24.316   8.171 -0.0760  0.0632  0.2398
    1W        W28448  24.364  21.548   7.335  0.0459  0.2376  0.6049
    1W        W28449  15.619  27.314   0.299  0.3589  0.1624  0.3119
    1W        W28450   0.498   0.965   8.761 -0.0163  0.1941 -0.0359
    1W        W28451   7.274  21.275   7.137  0.0575  0.0639 -0.0105
    1W        W28452   0.762  13.502   1.626  0.1829 -0.0003 -0.0427
    1W        W28453   7.254   5.864   1.497  0.2030  0.0147  0.2478
    1W        W28454  28.667   7.360   7.153 -0.2788 -0.1155 -0.0670
    1W        W28455  20.135   7.902   1.080  0.0512  0.2102 -0.0157
    1W        W28456   4.344  27.517   0.168 -0.0123 -0.0976 -0.2676
    1W        W28457  11.881  22.833   1.988 -0.0174 -0.0120 -0.1789
    1W        W28458  26.173   1.966   0.115  0.2348 -0.0373  0.0069
    1W        W28459  14.144   9.518   0.842  0.0330 -0.1212  0.0208
    1W        W28460  17.598  18.028   0.466  0.1136 -0.1098  0.1073
    1W        W28461  11.649   0.511   9.807 -0.1516  0.0826 -0.1417
    1W        W28462   8.922  23.692   2.508 -0.1255  0.2230 -0.0339
    1W        W28463   7.305  20.975   1.576 -0.0187  0.0239 -0.2866
    1W        W28464   8.254   4.220   8.910 -0.2245 -0.1725 -0.1210
    1W        W28465   5.913   4.973   2.553 -0.2993  0.1026  0.0548
    1W        W28466  20.105   7.874   8.998  0.3302  0.1166  0.1850
    1W        W28467  28.161  24.575   6.975  0.0374  0.1342 -0.1273
    1W        W28468   3.350  19.294   0.039  0.1670 -0.4418  0.1203
    1W        W28469  23.048   6.101   8.541 -0.0519 -0.0878  0.1893
    1W        W28470  27.473   5.576   8.658 -0.2263 -0.1576 -0.1276
    1W        W28471   4.106  14.052   2.079  0.1659 -0.0424 -0.1396
    1W        W28472   0.819  25.343   1.901  0.7427  0.0628  0.2942
    1W        W28473   0.807  12.078   2.265 -0.2712  0.0110  0.0343
    1W        W28474   2.147  22.129   1.369  0.1703 -0.0435 -0.1044
    1W        W28475   7.353  26.056   9.505  0.1310 -0.1741  0.1171
    1W        W28476  22.063  18.336   2.608  0.1736  0.3605 -0.0392
    1W        W28477  10.565  26.059   1.602  0.0109 -0.1889 -0.0350
    1W        W28478  11.904   3.117   8.556  0.0058 -0.0971  0.2770
    1W        W28479   8.227  22.674   7.075 -0.0841  0.1324 -0.0903
    1W        W28480  22.064  18.859   0.986  0.2257 -0.3143  0.0017
    1W        W28481   1.455   0.487   7.446  0.0792  0.0106 -0.3867
    1W        W28482  28.160   4.214   2.454 -0.0404  0.0262  0.1317
    1W        W28483   6.314   3.812   3.387  0.1268 -0.0604 -0.0982
    1W        W28484  13.439   3.928   8.310 -0.0362 -0.1061  0.2400
    1W        W28485   1.558  22.860   6.730  0.0101  0.2931 -0.0062
    1W        W28486   5.467  10.904   0.966  0.1572  0.3578  0.0538
    1W        W28487  20.509   9.673   2.545  0.0570 -0.0831 -0.0240
    1W        W28488  24.503  19.678   7.050  0.0015 -0.0535 -0.3034
    1W        W28489  20.879   3.667   2.517 -0.2964  0.1227  0.0450
    1W        W28490   9.393   5.749   2.772  0.1459  0.0155  0.0747
    1W        W28491  18.018   8.213   8.415  0.2278  0.3251  0.2550
    1W        W28492  22.246  16.342   1.027  0.4653 -0.1153 -0.2476
    1W        W28493   2.223  12.802   6.634 -0.0952 -0.0090 -0.2179
    1W        W28494  15.941   4.670   1.620  0.3936  0.0016  0.3991
    1W        W28495  13.430  25.335   2.276 -0.2281 -0.3578  0.2118
    1W        W28496  13.927   2.932   1.594 -0.1066  0.0700 -0.0078
    1W        W28497   6.917   0.246   0.503  0.1152 -0.0390  0.0132
    1W        W28498  28.488  17.542   9.499  0.1253  0.1458 -0.3867
    1W        W28499  18.636  28.275   2.499 -0.0350 -0.0057 -0.1990
    1W        W28500   9.180  27.015   2.393 -0.0356 -0.0346 -0.2594
    1W        W28501  19.569  14.446   7.540 -0.0183 -0.0828 -0.0070
    1W        W28502  17.637  13.887   2.216  0.2972  0.0755 -0.0621
    1W        W28503   7.700  27.247   0.159  0.0855 -0.0594 -0.2333
    1W        W28504   9.072   1.301   0.255 -0.0637 -0.0757  0.1469
    1W        W28505  20.277   7.768   7.491 -0.3794  0.0082 -0.0418
    1W        W28506   6.542  13.920   2.169  0.0715 -0.0740 -0.0156
    1W        W28507  13.330   0.158   7.944 -0.1102 -0.1490 -0.3701
    1W        W28508  14.907   2.287   1.929  0.1592  0.1051 -0.2789
    1W        W28509  18.349  11.815   8.604 -0.0161 -0.0748 -0.2112
    1W        W28510  17.952   9.173   2.693  0.2131  0.3646  0.1173
    1W        W28511   5.731  11.231   4.301 -0.2934 -0.0988  0.1459
    1W        W28512   4.911  14.209   0.152 -0.1341  0.1304 -0.0608
    1W        W28513  16.631  17.374   1.804 -0.0475  0.0134  0.1209
    1W        W28514   9.725   3.336   1.910 -0.0290 -0.0319 -0.2620
    1W        W28515  14.979   3.866   1.142 -0.0980 -0.1780  0.0243
    1W        W28516   6.356  14.664   9.630 -0.1678  0.0636 -0.3729
    1W        W28517   4.881   0.572   1.787  0.2516  0.0437  0.2348
    1W        W28518  26.801  25.954   9.504 -0.1660  0.1120  0.1423
    1W        W28519  20.107   0.143   8.672  0.1175 -0.0185 -0.2990
    1W        W28520  14.646  28.410   0.679 -0.2471 -0.2866 -0.4984
    1W        W28521   6.676  19.454   9.707 -0.1836  0.0082 -0.0969
    1W        W28522  28.701  26.564   7.719  0.0334  0.0107 -0.0357
    1W        W28523   5.656  26.733   1.597 -0.0008 -0.0372  0.0180
    1W        W28524   2.584  10.052   7.878  0.1037  0.0472  0.0512
    1W        W28525   1.862  23.958   2.936 -0.0686  0.3637  0.1192
    1W        W28526  10.327  16.350   9.311 -0.1291 -0.0678 -0.2188
    1W        W28527   4.839  13.756   0.938 -0.3539  0.0716  0.2543
    1W        W28528   1.324   3.003   6.771  0.1464  0.1812  0.1239
    1W        W28529  10.462  18.093   1.093  0.1048 -0.1602  0.1735
    1W        W28530  16.130  27.046   1.515 -0.0591 -0.0261 -0.0221
    1W        W28531   9.611   3.845   2.008  0.4440  0.0729 -0.2761
    1W        W28532   1.153  24.312   1.785  0.0587  0.0913  0.1273
    1W        W28533  10.576  16.526   7.239 -0.0260 -0.0444 -0.1155
    1W        W28534  25.431   5.345   1.961 -0.1021 -0.0434 -0.1182
    1W        W28535  12.055  17.830   0.133 -0.1620  0.0339 -0.2380
    1W        W28536   1.314  10.356   9.564 -0.0741  0.2630 -0.0695
    1W        W28537  18.483   8.292   6.953 -0.3313 -0.2612  0.1269
    1W        W28538  14.626  14.347   9.776 -0.1629  0.3161 -0.2145
    1W        W28539  14.038   0.615   1.349 -0.0993  0.0647 -0.2050
    1W        W28540  27.783  25.771   7.761  0.2180 -0.0318  0.1926
    1W        W28541   7.290  20.191   2.121  0.0097  0.1553 -0.1056
    1W        W28542   0.965  18.279   8.430 -0.2067 -0.1796 -0.2995
    1W        W28543   4.370  27.707   2.965  0.0440  0.0623  0.1107
    1W        W28544  27.614  25.133   7.776  0.0410  0.0784 -0.2931
    1W        W28545  15.998   5.499   9.817  0.3876  0.2392  0.1637
    1W        W28546   8.745  15.039   3.050 -0.0040 -0.2940 -0.1725
    1W        W28547  18.094  28.178   7.915 -0.0718  0.0449 -0.4610
    1W        W28548   1.811  24.349   1.249  0.2089  0.0821  0.1354
    1W        W28549   5.061  24.883   8.231  0.2631  0.2425 -0.0564
    1W        W28550   3.454   9.029   1.201  0.1615  0.0906 -0.3501
    1W        W28551  12.012   3.380   3.480 -0.1541  0.0388 -0.0215
    1W        W28552  15.430  13.124   1.002 -0.0395 -0.4726  0.2904
    1W        W28553   9.052  28.458   8.570  0.0405 -0.0932 -0.0685
    1W        W28554   6.769  13.424   1.579 -0.2444 -0.1878 -0.2038
    1W        W28555  21.641  18.769   8.845 -0.0894  0.2870  0.0062
    1W        W28556  22.846  15.992   7.957  0.2997 -0.4077  0.1350
    1W        W28557  15.722  10.856   7.969 -0.0097 -0.0796  0.1084
    1W        W28558   5.422  19.173   7.624  0.0577  0.2272 -0.0918
    1W        W28559  28.028  20.397   8.965  0.1343  0.0459 -0.2809
    1W        W28560  10.599  10.432   0.710  0.2505 -0.1695 -0.0957
    1W        W28561  11.089  24.937   6.923 -0.1503  0.2438  0.2712
    1W        W28562  26.070  16.277   8.618  0.1653  0.0648  0.1741
    1W        W28563  21.333   4.614   8.951 -0.0823  0.0201 -0.0214
    1W        W28564   5.015   6.350   1.184  0.2324  0.0903  0.1242
    1W        W28565  10.068  14.516   8.130  0.0663 -0.0140 -0.0911
    1W        W28566   6.150   1.219   0.038 -0.3518 -0.1417  0.1479
    1W        W28567  17.765   6.302   9.067 -0.2159  0.4622  0.2318
    1W        W28568   4.960  28.560   9.566  0.2300 -0.3580 -0.0915
    1W        W28569   2.479  21.563   1.307 -0.3750  0.0541  0.1615
    1W        W28570   2.096   3.587   0.584  0.1111 -0.2816 -0.2148
    1W        W28571  22.416   0.970   8.482 -0.1625  0.0285 -0.1582
    1W        W28572   3.733  28.050   9.535 -0.1462  0.0039 -0.1474
    1W        W28573  25.655   1.480   1.588 -0.0863 -0.2248 -0.1039
    1W        W28574  27.801  26.106   8.129 -0.2568  0.0138 -0.1063
    1W        W28575   5.038  13.202   7.154 -0.3218 -0.1211 -0.3502
    1W        W28576  23.299  13.598   7.813  0.1235 -0.0929  0.2768
    1W        W28577   1.617   1.653   1.118 -0.2824  0.1599  0.0637
    1W        W28578  16.843  15.197   9.841 -0.2945  0.0454  0.0127
    1W        W28579   2.204   3.009   8.186  0.3147  0.0732 -0.2830
    1W        W28580  21.875  22.700   2.233 -0.0958  0.2654  0.1463
    1W        W28581  22.604  23.872   1.963  0.1662 -0.1125 -0.1262
    1W        W28582  24.540  10.228   6.766  0.1035  0.2333 -0.2504
    1W        W28583  27.472   7.463   7.932  0.0864  0.0675  0.0996
    1W        W28584  27.848   6.411   8.360 -0.3049 -0.2105  0.0562
    1W        W28585   0.793   5.516   2.888 -0.0668  0.1325 -0.1468
    1W        W28586   8.047   0.664   9.416 -0.1803 -0.3165  0.1422
    1W        W28587  20.784   3.243   0.787  0.0471 -0.2399  0.0980
    1W        W28588  13.927   9.671   9.952 -0.1030 -0.3025 -0.3680
    1W        W28589  17.668  28.515   0.140 -0.0579 -0.2032 -0.2769
    1W        W28590  25.961  26.038   1.423  0.1490 -0.1074  0.0392
    1W        W28591  20.709  27.666   7.812  0.0758  0.0368 -0.0477
    1W        W28592   9.660  16.460   9.856  0.0417  0.1979 -0.1070
    1W        W28593  11.838  27.896   8.663 -0.2246 -0.4457  0.1384
    1W        W28594   9.916  25.781   7.570 -0.2399  0.1570 -0.1310
    1W        W28595  19.956  18.771   2.186  0.2888 -0.0969 -0.0126
    1W        W28596   4.531   2.344   0.491 -0.1511  0.0289  0.1760
    1W        W28597  15.792   9.023   0.170 -0.0484 -0.0188  0.1994
    1W        W28598   9.354   9.001   2.121  0.2975  0.0498 -0.0876
    1W        W28599  18.894   1.796   3.507  0.0398 -0.2662  0.3167
    1W        W28600   7.909  18.426   8.897  0.0298  0.3571 -0.0371
    1W        W28601  18.827  23.643   9.610 -0.1515 -0.0910  0.1500
    1W        W28602  11.467  22.738   1.624  0.1344 -0.3020  0.0892
    1W        W28603  11.526  18.010   2.357  0.0806 -0.1465 -0.0048
    1W        W28604  13.523  18.989   8.913  0.2716 -0.0079  0.0368
    1W        W28605  25.114  22.873   1.114 -0.0755 -0.1669 -0.1600
    1W        W28606  24.841  26.386   7.409  0.0497  0.0887  0.0385
    1W        W28607  18.193   9.072   8.820  0.2643 -0.0426  0.1241
    1W        W28608  21.604  24.374   9.326 -0.4115 -0.0494  0.1228
    1W        W28609   5.456  25.331   9.527  0.0953  0.0028  0.2546
    1W        W28610   6.309  18.878   1.976 -0.1782  0.0910 -0.3615
    1W        W28611   9.106   3.923   1.983  0.0124 -0.1315 -0.0136
    1W        W28612   8.092  24.319   5.815 -0.0378  0.2257  0.0241
    1W        W28613  15.971   6.923   1.619 -0.3689 -0.0438  0.1390
    1W        W28614   3.795  25.801   9.869 -0.0282  0.0513 -0.2679
    1W        W28615   1.059  11.200   5.630 -0.1798 -0.1885  0.1134
    1W        W28616  23.523  13.094   0.054 -0.0383 -0.0386  0.2512
    1W        W28617  16.468  21.071   8.567  0.3046  0.4046 -0.0731
    1W        W28618  28.584  15.213   9.609 -0.2369 -0.1459 -0.1331
    1W        W28619  15.545  27.702   3.510 -0.2327 -0.1895  0.1283
    1W        W28620   8.258  15.691   1.898  0.3221  0.4121  0.1522
    1W        W28621  17.231   0.509   9.848  0.4651  0.1705 -0.0391
    1W        W28622   5.487   8.851   9.088 -0.4493 -0.1844  0.0612
    1W        W28623  10.883  26.480   1.334 -0.2267 -0.6094  0.0033
    1W        W28624   9.038  21.944   7.044  0.1858 -0.0074 -0.1078
    1W        W28625  26.664   9.531   9.793  0.0485  0.3434  0.3673
    1W        W28626   9.309  26.397   7.149  0.0799 -0.1142 -0.0760
    1W        W28627  20.879  14.194   6.833  0.0134  0.0793 -0.1718
    1W        W28628  23.670  13.791   1.472 -0.0546 -0.0771  0.0400
    1W        W28629  14.036  10.537   0.384 -0.1634 -0.0136  0.0443
    1W        W28630  18.487   8.703   9.418  0.2801  0.1628  0.1158
    1W        W28631  22.040  15.633   6.707  0.2237  0.1651 -0.2058
    1W        W28632   9.068   9.157   8.873  0.2986  0.1207 -0.1436
    1W        W28633  23.617   1.500   1.526  0.2091  0.3801 -0.3014
    1W        W28634  22.015  15.188   2.912 -0.2414 -0.1048  0.0688
    1W        W28635   3.336  12.896   7.448  0.2136  0.1468  0.0575
    1W        W28636  24.883  14.598   1.505 -0.1087  0.1300  0.0302
    1W        W28637  10.010   4.051   9.124  0.0899  0.3818 -0.0641
    1W        W28638  19.627   7.167   3.066 -0.0576 -0.1889  0.4349
    1W        W28639  26.057  12.202   7.145  0.2215  0.0930 -0.0668
    1W        W28640   2.191  25.284   7.236  0.3859 -0.0222  0.2185
    1W        W28641   6.984  14.595   0.592  0.1357  0.0698  0.2078
    1W        W28642  17.527  13.720   0.308 -0.0246  0.1972  0.3145
    1W        W28643   0.579   7.406   7.560 -0.3267 -0.0654  0.1481
    1W        W28644   6.683  12.635   8.141  0.4512  0.2055 -0.0130
    1W        W28645  16.433   7.933   7.673  0.1378  0.0997 -0.1916
    1W        W28646   5.629  27.425   7.580  0.4479  0.2606 -0.2050
    1W        W28647  13.652  12.376   7.267 -0.2464  0.0161  0.1071
    1W        W28648   2.635  11.885   7.505 -0.0436  0.1210  0.0619
    1W        W28649  28.292  23.030   0.012 -0.0004 -0.1325 -0.0516
    1W        W28650   5.402   9.938   8.087  0.0874  0.0739  0.1465
    1W        W28651   8.723  28.033   1.017 -0.2367  0.0477  0.1255
    1W        W28652  14.413   6.036   1.227 -0.1365 -0.2490 -0.4011
    1W        W28653   5.935  16.461   1.667 -0.2093 -0.0932 -0.0840
    1W        W28654   3.895  19.915   8.494 -0.0964  0.0940  0.1802
    1W        W28655  16.650  28.269   2.273  0.1500  0.0445  0.3881
    1W        W28656  23.011  22.674   2.699 -0.0605 -0.0730 -0.1894
    1W        W28657  14.738   5.278   3.522  0.0540 -0.0009 -0.1013
    1W        W28658   1.745  11.347   7.946 -0.1874  0.1283  0.3464
    1W        W28659   1.462  15.736   2.173  0.0286  0.1802  0.2032
    1W        W28660   1.090  27.024   6.382  0.3914 -0.2236 -0.2336
    1W        W28661  13.064  16.117   8.948 -0.0030 -0.0607 -0.0015
    1W        W28662   3.538   9.068   2.305 -0.1597  0.3352 -0.1116
    1W        W28663  16.333  11.725   2.977  0.0880 -0.0852  0.1866
    1W        W28664  18.344  16.923   8.165  0.1414  0.0473  0.1861
    1W        W28665  16.829  18.857   2.901  0.1333  0.0115  0.0684
    1W        W28666   9.980  22.883   0.379 -0.3378  0.2723  0.0100
    1W        W28667  18.778  10.331   1.837 -0.1074  0.0128 -0.0287
    1W        W28668   8.122   7.711   9.205  0.2168 -0.2961  0.0827
    1W        W28669  24.076  25.179   0.028  0.0909 -0.0515 -0.1854
    1W        W28670  21.034  27.119   1.561 -0.1146  0.1874 -0.2312
    1W        W28671  19.094  23.290   8.514  0.3117 -0.0958 -0.0154
    1W        W28672  19.074   1.665   2.169 -0.1237 -0.0567  0.0684
    1W        W28673  24.945  15.724   1.528  0.2919  0.0624  0.0831
    1W        W28674   8.491  18.852   9.299  0.3623  0.2657  0.1287
    1W        W28675   9.457   0.271   2.773 -0.1917  0.1055 -0.2987
    1W        W28676  11.277  25.469   8.342  0.2384 -0.2632  0.1082
    1W        W28677   4.556  28.554   1.144  0.1669  0.2733 -0.1268
    1W        W28678   7.720   3.899   1.775  0.0514 -0.0784  0.0214
    1W        W28679  13.954   1.534   7.735 -0.0063  0.2894 -0.2764
    1W        W28680  26.705   6.526   7.246  0.2530 -0.2933 -0.0190
    1W        W28681  18.354  12.808   0.777 -0.1663 -0.1685  0.1120
    1W        W28682  19.035   2.765   0.664 -0.5139  0.1188  0.2645
    1W        W28683  18.963  20.640   7.986 -0.0692  0.0290 -0.3538
    1W        W28684   0.707   9.948   9.812  0.0460 -0.2171 -0.0531
    1W        W28685  22.168  17.150   0.468  0.0988 -0.0231 -0.0109
    1W        W28686  10.284  28.127   9.651 -0.1537  0.1783 -0.0063
    1W        W28687  25.054  25.756   7.306 -0.0817  0.1260 -0.1469
    1W        W28688  22.823   7.995   6.844 -0.3421  0.4346 -0.0865
    1W        W28689   6.686  10.335   3.628  0.1728 -0.0542 -0.1005
    1W        W28690  10.954  13.686   0.229  0.0774  0.1064 -0.1885
    1W        W28691  16.561  13.416   7.533  0.2089  0.0485  0.5991
    1W        W28692  18.514   8.857   1.900  0.4693  0.3867  0.2124
    1W        W28693   0.867  18.948   6.625  0.1702 -0.3459 -0.0130
    1W        W28694  19.794  20.882   9.762 -0.0753 -0.1984 -0.0890
    1W        W28695  21.982  23.949   6.846  0.2084 -0.1830  0.0869
    1W        W28696   8.570  19.650   1.297 -0.0019  0.0602 -0.0542
    1W        W28697  27.531  17.667   7.179  0.0492  0.1955 -0.2266
    1W        W28698   2.200  17.117   0.241 -0.0255 -0.0973 -0.0026
    1W        W28699  11.995  13.297   1.269  0.0369  0.0266  0.0356
    1W        W28700  23.530  22.593   8.096 -0.3649  0.0291  0.1705
    1W        W28701   7.703   9.750   7.448  0.2561 -0.0960 -0.2166
    1W        W28702   0.885  14.438   1.516 -0.0928  0.0949  0.0630
    1W        W28703  14.775  23.607   9.361  0.1862 -0.1235  0.2607
    1W        W28704   9.317   1.777   8.387 -0.2580  0.1687 -0.1841
    1W        W28705  19.840  26.620   8.259  0.0277  0.0738  0.1374
    1W        W28706  18.617  12.664   7.002  0.3343 -0.2020 -0.0628
    1W        W28707  14.048   4.655   1.581 -0.1132  0.0814 -0.1801
    1W        W28708  16.898   0.120   8.064  0.4206 -0.1830  0.0196
    1W        W28709   7.972   0.873   0.999 -0.0336 -0.3694 -0.2086
    1W        W28710  22.310  24.960   0.683  0.3297 -0.0052  0.1829
    1W        W28711  13.129  19.360   7.634  0.4450 -0.4049  0.1255
    1W        W28712  15.790  12.332   0.321  0.1932  0.2512 -0.2421
    1W        W28713  12.227  12.055   1.584 -0.0885  0.0542 -0.0505
    1W        W28714   4.463  25.770   9.819  0.1052  0.2738  0.1154
    1W        W28715  22.117  22.303   2.638 -0.0479 -0.0358 -0.1519
    1W        W28716  12.906  27.550   1.677  0.0052 -0.0036 -0.3014
    1W        W28717  20.983  15.833   2.418  0.2563  0.1342  0.1089
    1W        W28718  21.008  16.344   1.620 -0.0707  0.2299  0.2801
    1W        W28719  18.056  17.456   8.797  0.0880 -0.1009 -0.1782
    1W        W28720  12.978   7.140   1.936  0.0394  0.1562  0.1042
    1W        W28721  10.428  18.946   9.439 -0.2289  0.1203 -0.1669
    1W        W28722  24.772  12.029   1.981 -0.0526  0.0736 -0.0984
    1W        W28723  23.949  14.421   9.712 -0.0696 -0.0035 -0.2612
    1W        W28724  26.696  18.916   8.631 -0.3465 -0.0021  0.1484
    1W        W28725  26.847   3.947   8.256  0.0522 -0.0316  0.2442
    1W        W28726  17.423  10.741   8.605 -0.0327 -0.2075  0.1269
    1W        W28727   2.976  19.263   6.840  0.1348  0.2078 -0.2558
    1W        W28728   5.659  19.938   9.001  0.0686 -0.3049  0.1724
    1W        W28729   6.380  18.202   8.124 -0.0508  0.1101  0.1579
    1W        W28730   7.055  20.942   9.057  0.1598 -0.3593  0.0212
    1W        W28731  23.128  20.836   7.104  0.0905 -0.0388  0.0548
    1W        W28732   3.131  13.680   9.299 -0.3046  0.1223  0.0512
    1W        W28733  14.530  15.051   1.218  0.1324  0.0467 -0.1862
    1W        W28734   2.917  17.899   5.446  0.0962 -0.1279 -0.1896
    1W        W28735   8.590  15.707   9.613  0.0090  0.1901 -0.3922
    1W        W28736  10.385   8.032   0.443  0.1269  0.0141  0.0186
    1W        W28737   3.527  11.711   9.341  0.2414 -0.1612  0.3803
    1W        W28738  22.457  25.685   2.646 -0.0850  0.1113 -0.0262
    1W        W28739   6.735  21.334   0.148  0.1521  0.0479  0.2289
    1W        W28740  27.914   8.411   9.393 -0.0427  0.1224 -0.3819
    1W        W28741   7.266  17.952   7.888 -0.0625 -0.2778 -0.0751
    1W        W28742  10.762   1.252   0.513  0.3143 -0.1345 -0.2140
    1W        W28743   6.901  14.418   7.396 -0.1430 -0.1484  0.1936
    1W        W28744  14.990  27.516   8.845 -0.0130 -0.2407 -0.1927
    1W        W28745  28.697  15.086   8.089 -0.2262  0.1265  0.1227
    1W        W28746  23.357  13.986   7.360  0.0036 -0.2395  0.3511
    1W        W28747  27.318  10.754   8.066 -0.1012 -0.0649 -0.2243
    1W        W28748  11.005  22.991   1.598  0.2457  0.0203  0.0200
    1W        W28749  19.944  17.648   1.351  0.1102  0.0573  0.1580
    1W        W28750  25.661  15.803   0.171 -0.0684  0.2586 -0.3548
    1W        W28751  13.348  28.234   9.709 -0.1752 -0.0721  0.0058
    1W        W28752  12.848   2.937   1.211  0.0182  0.0257 -0.1779
    1W        W28753  14.726   3.158   0.579 -0.4434  0.1024  0.2195
    1W        W28754  13.526  26.297   2.951 -0.0217 -0.3092  0.0780
    1W        W28755   2.842  18.756   6.852  0.1124  0.0694 -0.1662
    1W        W28756  10.804  25.006   6.522  0.3429  0.2402 -0.0701
    1W        W28757  24.293   0.301   0.299 -0.1457 -0.0791 -0.2967
    1W        W28758   1.949   8.277   2.608  0.1795  0.3228 -0.4127
    1W        W28759  17.494  22.940   9.226 -0.0994  0.0062 -0.1218
    1W        W28760   0.844  13.468   0.162 -0.0111 -0.3061  0.2029
    1W        W28761   6.512   6.938   2.645  0.1265 -0.0808  0.2233
    1W        W28762  25.235   3.207   0.590 -0.1512 -0.1013  0.0749
    1W        W28763  18.111  24.385   7.998 -0.0706 -0.0888  0.1330
    1W        W28764  11.946  11.764   3.036  0.0815 -0.0035 -0.1122
    1W        W28765  17.545  14.679   8.856  0.1486 -0.4248  0.0060
    1W        W28766  15.029   7.978   0.437  0.0485 -0.1702  0.1157
    1W        W28767  21.300  14.380   7.591 -0.0398  0.1998 -0.4185
    1W        W28768  16.452  27.591   0.874 -0.3024 -0.2699 -0.0424
    1W        W28769  11.626  11.111   7.941  0.0954 -0.0052 -0.1659
    1W        W28770  11.448  15.764   7.793  0.2059  0.0377 -0.3233
    1W        W28771  23.509  11.752   1.346 -0.2095  0.0315  0.2061
    1W        W28772  10.887  12.182   2.002  0.0430  0.3782 -0.4766
    1W        W28773  10.046   4.297   1.171 -0.2594  0.2023 -0.2122
    1W        W28774  11.061  21.890   7.742  0.1843 -0.0339  0.0064
    1W        W28775  23.995   3.552   7.747  0.1939 -0.0375 -0.1012
    1W        W28776  10.889  19.601   8.251 -0.1221 -0.0170  0.0966
    1W        W28777  26.237   6.084   2.608 -0.0468 -0.0862  0.1683
    1W        W28778   0.714   8.033   8.168 -0.3509  0.3486 -0.0250
    1W        W28779  26.616   2.633   2.310 -0.1226  0.3710 -0.1402
    1W        W28780  15.376  25.165   1.159 -0.2231 -0.0085  0.0260
    1W        W28781   3.532  15.915   1.315 -0.0830 -0.2240 -0.2391
    1W        W28782   2.680  22.008   5.533 -0.1463 -0.0729  0.1814
    1W        W28783  15.277  21.205   2.470  0.1040  0.0177 -0.0889
    1W        W28784   3.989  16.069   3.167  0.1812 -0.0175  0.1607
    1W        W28785  16.213  21.086   2.887  0.0276  0.1017 -0.0090
    1W        W28786  28.443  14.246   9.762 -0.0288  0.2335  0.1118
    1W        W28787   4.968  10.577   9.241 -0.3226  0.1895  0.1486
    1W        W28788  13.129  19.957   2.173  0.0427 -0.1193 -0.1774
    1W        W28789  14.193   6.267   2.275 -0.0953 -0.1374 -0.0468
    1W        W28790  18.096  25.857   0.709  0.0207  0.3724 -0.3623
    1W        W28791   8.978   6.093   7.974 -0.1635  0.0842 -0.1824
    1W        W28792   5.848  28.107   7.800 -0.4464 -0.3090  0.0543
    1W        W28793  24.327   7.174   8.042  0.4638  0.2070 -0.0536
    1W        W28794  24.710  27.038   9.869 -0.3930 -0.3822 -0.0827
    1W        W28795   1.826   1.333   0.802 -0.1461  0.0221  0.0006
    1W        W28796  23.326  27.206   8.164 -0.0997 -0.1256 -0.0007
    1W        W28797  13.791   1.646   7.205 -0.2573 -0.0229  0.0998
    1W        W28798  11.976  23.424   3.324 -0.1092  0.0659  0.3212
    1W        W28799  25.265   4.227   2.670  0.3168  0.1753  0.1946
    1W        W28800  19.865  23.305   3.572  0.0689  0.2234 -0.1298
    1W        W28801   6.256  19.421   0.532  0.2669  0.1904  0.1057
    1W        W28802   6.286  28.622   9.189  0.0202  0.1543 -0.1037
    1W        W28803  17.792  21.248   7.498  0.2887  0.0205 -0.1275
    1W        W28804  11.298   5.537   3.581 -0.0029 -0.2586  0.2814
    1W        W28805   5.135  13.864   6.401 -0.2251 -0.1414  0.1096
    1W        W28806   1.591  15.762   8.528 -0.1796  0.2843 -0.2642
    1W        W28807  15.321  18.915   1.977 -0.0947  0.1065  0.0630
    1W        W28808  24.116  11.556   9.003 -0.2644  0.2835  0.1435
    1W        W28809  15.190  19.259   1.275  0.1525 -0.4023  0.1706
    1W        W28810  24.425  11.468   7.258 -0.2022  0.2104 -0.1599
    1W        W28811   6.175  19.281   7.687  0.0601  0.0623 -0.0764
    1W        W28812  18.158   5.677   3.117  0.0595  0.0879 -0.3307
    1W        W28813  23.003   1.134   0.611  0.0566  0.1557 -0.1370
    1W        W28814   4.597  18.436   7.575 -0.2545 -0.0773 -0.2760
    1W        W28815  13.628  18.757   2.930  0.0486  0.2624  0.0308
    1W        W28816  21.092  18.627   0.499 -0.0849 -0.0326  0.2234
    1W        W28817  15.205  19.352   9.377  0.2524 -0.0444 -0.0017
    1W        W28818  11.592   0.737   8.403  0.0768 -0.1020  0.0293
    1W        W28819  10.489   7.168   2.874 -0.0089  0.1485 -0.1389
    1W        W28820   8.633   1.515   0.348  0.0324 -0.2045  0.1394
    1W        W28821  27.517   2.092   7.490 -0.1363  0.2921 -0.1533
    1W        W28822   1.810   8.462   1.626 -0.1371 -0.0406  0.1655
    1W        W28823   4.282   9.468   7.302  0.0825  0.1358 -0.3225
    1W        W28824  27.940  25.519   6.780  0.0004 -0.2961 -0.2517
    1W        W28825   2.551  20.319   8.858  0.2774  0.1446 -0.0171
    1W        W28826  27.766  26.762   7.646  0.1232 -0.0420 -0.0394
    1W        W28827   8.564  15.415   0.985  0.1465 -0.2920  0.2322
    1W        W28828  13.369   6.367   0.241 -0.0594  0.2375  0.0889
    1W        W28829  21.681  19.059   1.189 -0.1116 -0.0739 -0.1138
    1W        W28830   8.667  17.098   0.243  0.1980  0.0732  0.1030
    1W        W28831  22.536  10.080   0.906 -0.2514 -0.0549  0.2126
    1W        W28832  21.241  28.307   0.638 -0.0063 -0.1072  0.2798
    1W        W28833   1.862  25.484   8.919 -0.1521  0.2320 -0.2745
    1W        W28834   1.635  17.676   8.666 -0.0806 -0.7255 -0.0118
    1W        W28835  25.466  25.679   1.424  0.2826 -0.1448 -0.1721
    1W        W28836  22.825  24.315   7.962 -0.2490  0.3567  0.0307
    1W        W28837  28.151   4.300   7.399  0.2983  0.0035  0.0477
    1W        W28838  11.411  14.348   0.922 -0.1183 -0.1012  0.2954
    1W        W28839   7.925  14.914   8.737 -0.1146  0.1479  0.0196
    1W        W28840  10.768   6.788   1.845 -0.0143  0.1209  0.0689
    1W        W28841  12.379   5.705   8.281  0.1216 -0.0721 -0.0735
    1W        W28842  13.327  20.137   0.512  0.1369  0.2606  0.1956
    1W        W28843  23.587  16.766   2.132 -0.2373 -0.0281  0.0522
    1W        W28844  28.046  10.695   1.124 -0.1269 -0.2019  0.2085
    1W        W28845  10.869   5.427   2.035  0.2579  0.0506 -0.1169
    1W        W28846  18.767  14.232   1.603 -0.0306  0.2092  0.0927
    1W        W28847   7.052   9.648   0.683 -0.0460  0.0204 -0.0496
    1W        W28848  19.607  21.816   2.548  0.0361  0.0392  0.0471
    1W        W28849  10.626  20.854   7.970  0.3363 -0.3281  0.4885
    1W        W28850   1.364  10.325   3.399  0.0398 -0.3057  0.0797
    1W        W28851   2.158  15.756   2.132  0.1876 -0.0486 -0.0801
    1W        W28852   7.203  13.154   1.571 -0.0688  0.2635  0.0663
    1W        W28853  24.371  10.989   0.983  0.2375  0.0536 -0.1823
    1W        W28854   2.888   2.124   8.975 -0.2545 -0.0924  0.0248
    1W        W28855   9.043  19.438   8.426  0.3399  0.1465  0.0659
    1W        W28856   9.845  23.066   2.658  0.0951 -0.1609 -0.0046
    1W        W28857  26.006   4.115   2.228 -0.0914 -0.1196  0.4188
    1W        W28858   6.183  20.864   1.356 -0.2816  0.0792 -0.1853
    1W        W28859  19.259  27.989   7.869  0.0948  0.1130  0.1946
    1W        W28860  22.958  25.615   8.484  0.1403  0.1968 -0.2964
    1W        W28861  18.610  28.685   3.608  0.0044 -0.0832  0.0753
    1W        W28862  21.205  24.068   0.110 -0.3090 -0.2885  0.0473
    1W        W28863  17.842   4.286   0.662  0.2284  0.1400 -0.3690
    1W        W28864   5.347   6.711   1.284  0.1895  0.1452 -0.0436
    1W        W28865  14.002  18.003   0.976 -0.0648  0.1079  0.1781
    1W        W28866   2.654   2.742   7.499  0.0063  0.0396  0.2281
    1W        W28867   1.067   3.746   7.046  0.3572  0.1747  0.2161
    1W        W28868  10.259   4.707   7.005 -0.0952  0.2419 -0.2482
    1W        W28869   7.168  15.323   1.986  0.0773  0.0238  0.0433
    1W        W28870  16.762  26.694   7.814  0.0380  0.1763 -0.2625
    1W        W28871  16.216  19.991   1.134 -0.2725 -0.2267  0.1289
    1W        W28872  14.257  11.722   2.319  0.1832  0.0638 -0.1401
    1W        W28873   1.915  18.330   7.939 -0.3077 -0.2996  0.1798
    1W        W28874   6.874   3.847   7.668  0.2108  0.2873  0.2159
    1W        W28875  17.738  23.564   1.275  0.1526  0.1338 -0.5412
    1W        W28876  17.458  20.945   1.074 -0.2935 -0.3151  0.0916
    1W        W28877   6.154  17.664   8.409  0.1077 -0.2961  0.1366
    1W        W28878   3.924  25.502   0.984 -0.3860  0.0290 -0.0838
    1W        W28879   3.944  21.918   1.601  0.2419 -0.0982 -0.0112
    1W        W28880   7.760  12.709   8.738  0.0161  0.0155  0.0071
    1W        W28881  25.262  14.117   0.450 -0.1495  0.0447 -0.1890
    1W        W28882   2.960  25.445   1.176  0.2346 -0.1925 -0.0110
    1W        W28883  26.930  26.922   7.949  0.1427 -0.1461 -0.3892
    1W        W28884   8.972   8.559   9.696 -0.0437  0.0383 -0.0784
    1W        W28885  10.742   2.227   9.601  0.2426 -0.1662 -0.1906
    1W        W28886  11.786   4.776   2.677 -0.0641 -0.0417  0.1211
    1W        W28887   8.598  27.675   8.484  0.0709 -0.1089 -0.0505
    1W        W28888   2.683  10.618   1.300  0.1644 -0.0637  0.0845
    1W        W28889   2.119  15.500   7.906  0.0233  0.0256  0.5777
    1W        W28890  16.110  16.594   2.195 -0.2602 -0.1519  0.4727
    1W        W28891  25.037   3.936   8.082  0.1824  0.0322  0.1841
    1W        W28892  24.742   0.469   9.543  0.0861 -0.0989 -0.0434
    1W        W28893  23.969   0.610   1.718 -0.2836 -0.0928  0.0397
    1W        W28894   9.759  22.241   8.009 -0.0958  0.1342 -0.0061
    1W        W28895  25.255   8.339   8.520 -0.2374 -0.2094 -0.1906
    1W        W28896  11.279  19.397   0.556  0.0122  0.0320 -0.1048
    1W        W28897  10.482  21.126   8.379 -0.0436  0.0897  0.0324
    1W        W28898   4.388  11.959   0.402 -0.1228 -0.1429 -0.0467
    1W        W28899  15.050  23.024   2.793 -0.0486 -0.0208 -0.1144
    1W        W28900  21.472  23.288   0.379  0.1313  0.1171  0.0148
    1W        W28901   9.666  16.054   8.677 -0.1266  0.0417 -0.2717
    1W        W28902  19.717  16.490   2.349  0.2277 -0.0408 -0.2598
    1W        W28903  13.450   1.771   2.338  0.0164 -0.0439  0.0345
    1W        W28904  24.431  20.516   0.741  0.2866 -0.0445 -0.0458
    1W        W28905  22.232  18.471   7.831  0.0222  0.2401  0.4142
    1W        W28906  24.590  17.915   1.854  0.0607 -0.0760  0.0499
    1W        W28907   8.061   7.577   2.134 -0.4023 -0.1151 -0.2546
    1W        W28908  15.841   7.597   8.804  0.3449 -0.0925 -0.0029
    1W        W28909  15.726   1.044   9.346 -0.0638 -0.0104  0.0408
    1W        W28910  17.819   8.950   8.500 -0.0236  0.2218  0.2469
    1W        W28911  27.980  20.784   6.525  0.1716  0.0206  0.1103
    1W        W28912   4.903   7.999   8.680 -0.0029 -0.0717 -0.1276
    1W        W28913  15.234  27.962   1.412 -0.2125  0.0456 -0.1114
    1W        W28914  13.961  25.924   6.842  0.2288 -0.2113 -0.1118
    1W        W28915  27.716  26.003   8.625  0.3387  0.1271 -0.1941
    1W        W28916   5.260   7.188   1.499  0.1101 -0.0295 -0.1198
    1W        W28917  16.676   1.935   3.563  0.1650  0.2273  0.2616
    1W        W28918  25.054   0.589   8.180  0.0609 -0.0012  0.1420
    1W        W28919   4.872  26.224   7.185 -0.0042 -0.0124  0.0864
    1W        W28920   5.718  11.590   9.192 -0.0871 -0.1401  0.2483
    1W        W28921  17.377  28.179   1.792 -0.1339 -0.2511  0.2842
    1W        W28922  21.170  12.340   1.020  0.1550  0.1597  0.0549
    1W        W28923  19.308   6.572   0.470 -0.3456 -0.0744 -0.2708
    1W        W28924  26.901  21.853   1.788  0.2369  0.0537  0.0517
    1W        W28925   7.388   8.251   9.294 -0.1159 -0.1365  0.0144
    1W        W28926  22.519  25.212   1.042 -0.0081 -0.0086  0.2583
    1W        W28927   1.922   7.284   0.226  0.0632  0.1284  0.1942
    1W        W28928  23.102  27.067   1.394  0.0288 -0.1925 -0.0425
    1W        W28929   7.615  21.011   7.481  0.1814  0.0198  0.2368
    1W        W28930  26.145  10.408   9.062 -0.2162  0.0523  0.0141
    1W        W28931  25.863  10.236   9.580  0.0673 -0.2402  0.2415
    1W        W28932  18.090   7.541   2.202 -0.1529 -0.0387  0.2623
    1W        W28933  16.565  10.791   8.900  0.0128  0.3139 -0.2846
    1W        W28934  28.304  12.709   6.639 -0.0104 -0.0039  0.0332
    1W        W28935  25.516  14.348   1.430 -0.0973  0.0746 -0.0795
    1W        W28936   3.544  25.861   0.393 -0.0910  0.1800  0.1074
    1W        W28937  13.350  24.809   9.838  0.2579 -0.1151  0.2609
    1W        W28938  25.877  24.780   2.040 -0.0539  0.1739  0.0178
    1W        W28939  21.598  26.722   7.132  0.1682  0.0249  0.0784
    1W        W28940  22.780  27.526   0.295  0.2921 -0.2271 -0.0368
    1W        W28941   1.848   5.489   9.679  0.2954  0.0950  0.0533
    1W        W28942  13.465  28.039   2.332 -0.1118  0.1046  0.2857
    1W        W28943   1.901   1.750   6.574  0.2959 -0.5159 -0.0990
    1W        W28944  23.319  17.214   7.608 -0.2301  0.2408 -0.3346
    1W        W28945   6.143   8.396   6.027  0.1669  0.0277 -0.1436
    1W        W28946   6.322   5.727   1.947  0.1428 -0.1140 -0.1664
    1W        W28947  16.350  11.387   7.447 -0.0855 -0.1122  0.0355
    1W        W28948   5.933  27.701   9.143 -0.1123  0.1063  0.0957
    1W        W28949  23.657  20.784   2.646 -0.0019 -0.1470  0.2296
    1W        W28950  19.830   4.933   7.971  0.2256  0.4045 -0.2833
    1W        W28951  22.696   2.164   9.678  0.1016 -0.0740 -0.1465
    1W        W28952  23.762  12.564   3.060  0.0773 -0.1810  0.0848
    1W        W28953   1.355   3.115   2.654  0.3136 -0.2721 -0.1806
    1W        W28954  24.403  27.338   9.485 -0.3062 -0.4128  0.1763
    1W        W28955  11.794  26.077   0.837  0.2115  0.1012  0.0714
    1W        W28956  25.745   1.357   2.132 -0.1257  0.1315 -0.0848
    1W        W28957   3.266  27.921   0.794 -0.0617  0.1754 -0.1702
    1W        W28958   4.162  20.165   1.905  0.0346  0.1340  0.2142
    1W        W28959   5.251  22.800   9.459 -0.0891 -0.2680 -0.0186
    1W        W28960  16.277   8.394   7.880  0.1481 -0.1010  0.0222
    1W        W28961  20.912  19.341   2.981  0.1499 -0.1255  0.4288
    1W        W28962   8.099  13.805   9.219  0.0096 -0.0269 -0.3736
    1W        W28963  25.293  17.643   8.817  0.0477  0.1081  0.0339
    1W        W28964  19.274   6.434   8.447 -0.0745  0.0058 -0.3375
    1W        W28965  19.010   8.070   9.925  0.4639 -0.0594  0.1961
    1W        W28966  18.058  27.693   2.166 -0.2727  0.0979  0.1982
    1W        W28967  21.503  17.168   0.773  0.4144 -0.2608  0.0037
    1W        W28968  13.679  24.914   2.592  0.0874  0.1088  0.0147
    1W        W28969  16.545   4.786   3.378  0.1976 -0.0874 -0.0826
    1W        W28970  17.395   9.566   1.091 -0.2865 -0.0282  0.1281
    1W        W28971   4.288   1.819   0.373 -0.0891 -0.1677  0.0575
    1W        W28972  26.633   4.646   9.690  0.0215 -0.2305 -0.3550
    1W        W28973  12.772   2.998   3.767 -0.0909 -0.0620  0.2291
    1W        W28974  20.076  18.924   2.868  0.1172  0.2771  0.1164
    1W        W28975   7.763   4.565   8.091 -0.2885 -0.1163  0.2529
    1W        W28976  23.060  12.888   2.566 -0.1094 -0.0833  0.1862
    1W        W28977  20.683   1.312   7.422  0.1371 -0.0021  0.1281
    1W        W28978  13.467   9.192   9.198 -0.0841  0.3133 -0.2306
    1W        W28979  13.513  20.911   0.115  0.0074 -0.0559 -0.0394
    1W        W28980  19.584   5.682   9.385  0.4072 -0.0719 -0.1111
    1W        W28981  21.836   9.751   2.611 -0.1003  0.0135  0.1280
    1W        W28982  11.607   1.126   0.877  0.0542 -0.1788 -0.1024
    1W        W28983   2.649  28.494   9.295 -0.1278 -0.1011  0.0250
    1W        W28984   5.385  15.725   0.416  0.1551 -0.0178  0.1784
    1W        W28985   9.827  28.277   8.413  0.1927 -0.2004 -0.0810
    1W        W28986  25.712   5.360   6.332  0.0415  0.0265  0.0486
    1W        W28987  26.866   4.846   0.125  0.2792 -0.3255  0.1535
    1W        W28988   8.677   5.007   9.097  0.2255 -0.1912  0.0193
    1W        W28989  21.968   2.754   2.055 -0.1878  0.0192 -0.0422
    1W        W28990   2.010  25.026   6.838 -0.1469  0.3430 -0.3818
    1W        W28991  18.503   6.340   7.917 -0.1403  0.1124 -0.0392
    1W        W28992  21.762  16.356   2.841 -0.0250 -0.0205  0.0781
    1W        W28993  24.787  26.927   8.318  0.0893  0.1416 -0.1111
    1W        W28994  28.183  10.082   1.599 -0.0284  0.1407 -0.0002
    1W        W28995  12.983   8.698   8.003 -0.0060  0.0046 -0.0518
    1W        W28996   6.791  22.838   7.933 -0.0811 -0.3862  0.2004
    1W        W28997  10.416   6.103   7.365  0.2073 -0.2616 -0.3117
    1W        W28998  24.299   7.375   0.123 -0.1517  0.2328  0.0800
    1W        W28999  21.954   8.051   0.804 -0.3683  0.0257  0.0799
    1W        W29000  14.668  25.359   1.562 -0.1921 -0.0817 -0.2399
    1W        W29001  22.251   5.561   0.837 -0.5937  0.0240 -0.2902
    1W        W29002   8.730   5.902   9.548 -0.0336  0.0006 -0.0243
    1W        W29003  12.328   9.518   1.048  0.0992  0.1220 -0.0225
    1W        W29004   3.955   6.384   1.574  0.0090  0.1042 -0.1746
    1W        W29005  24.359  11.898   9.283 -0.1612  0.6795  0.0489
    1W        W29006  17.241  18.971   0.748  0.2647  0.1187  0.1660
    1W        W29007  13.691  14.678   8.532  0.0024  0.3376  0.2656
    1W        W29008  22.451  24.463   0.842  0.3260 -0.1094  0.2490
    1W        W29009   3.890  24.701   1.530 -0.1455  0.1433  0.2167
    1W        W29010  25.806  22.886   7.006  0.1734  0.0636  0.0909
    1W        W29011  20.736  16.060   1.203 -0.2360 -0.0454 -0.1940
    1W        W29012   8.065  23.040   7.399  0.1404 -0.1944  0.1910
    1W        W29013  25.126  16.177   8.146 -0.2619  0.3046 -0.1662
    1W        W29014  16.996  14.651   2.228 -0.0249  0.0090  0.0689
    1W        W29015  25.684  18.545   9.401 -0.2514 -0.0212 -0.2137
    1W        W29016   4.612   6.128   0.888  0.5434  0.0011  0.0157
    1W        W29017  16.748   8.470   7.729 -0.1681  0.0291  0.0121
    1W        W29018  13.157  20.547   0.096 -0.0441 -0.0244  0.0037
    1W        W29019   7.427  10.705   0.016 -0.2911 -0.2031  0.1269
    1W        W29020  24.172  28.655   7.377 -0.1841 -0.5337 -0.2670
    1W        W29021  18.220  28.455   8.344 -0.1556  0.0072  0.1666
    1W        W29022   1.892  19.467   0.758  0.1086  0.1402 -0.1902
    1W        W29023  18.477   3.095   1.871 -0.0234 -0.4346  0.0987
    1W        W29024  27.530   7.110   6.175 -0.3177 -0.0581  0.1284
    1W        W29025  22.546  16.907   1.337 -0.1872 -0.1620 -0.0236
    1W        W29026  14.350  23.017   0.422  0.2886 -0.0573 -0.1456
    1W        W29027  16.194   4.835   7.446 -0.0936  0.0517 -0.1947
    1W        W29028   9.573   3.343   9.613  0.1113 -0.0518  0.1086
    1W        W29029   6.745   6.182   8.664 -0.0947  0.1601 -0.0318
    1W        W29030  13.332   4.865   8.841 -0.1918  0.1171  0.0518
    1W        W29031   2.562   0.098   2.334 -0.2753 -0.0667  0.0807
    1W        W29032   6.313  18.158   7.597 -0.1909  0.0285 -0.0588
    1W        W29033  19.808  28.650   1.813 -0.1186 -0.2255  0.2233
    1W        W29034  17.829  24.016   1.459  0.0928  0.1396 -0.3668
    1W        W29035  14.838  10.929   2.406  0.1110 -0.1072  0.0270
    1W        W29036  27.013  14.470   7.304 -0.1295  0.0370 -0.2131
    1W        W29037  11.683   7.548   2.888  0.2498  0.2453 -0.2275
    1W        W29038  24.325   9.654   0.357 -0.2081  0.0182 -0.2267
    1W        W29039   2.706   5.628   0.054  0.0778  0.0271  0.2845
    1W        W29040  17.271   9.642   9.831  0.0382 -0.0438 -0.3350
    1W        W29041  16.403   8.779   0.919  0.0905 -0.0824  0.0274
    1W        W29042  26.850   2.603   1.334 -0.0224 -0.1803  0.1523
    1W        W29043  25.910   0.989   7.466 -0.1601 -0.2271 -0.1103
    1W        W29044  27.708   7.723   9.321  0.3597  0.2615  0.1515
    1W        W29045  15.343   9.405   1.027 -0.2736 -0.0440 -0.1300
    1W        W29046  24.289  24.936   6.896  0.2032  0.3133  0.0889
    1W        W29047  22.004  17.673   0.740  0.0488  0.0509  0.2333
    1W        W29048  25.596   1.955   6.145 -0.2688  0.3989 -0.0202
    1W        W29049  27.213  25.545   0.263 -0.3183  0.2525  0.0313
    1W        W29050  25.864  19.778   9.225  0.0384  0.1525 -0.2339
    1W        W29051   3.645  28.291   0.923  0.0044  0.1853  0.2021
    1W        W29052  13.272  22.425   3.691  0.1291 -0.3392 -0.1051
    1W        W29053   1.502   8.041   7.635  0.0922 -0.0784 -0.2354
    1W        W29054  11.654   9.075   8.359 -0.0385 -0.1431 -0.0190
    1W        W29055   5.182  14.539   9.285 -0.0754  0.0334 -0.2081
    1W        W29056  19.185   9.808   7.209  0.3233 -0.0841  0.2821
    1W        W29057  17.955  17.249   8.300 -0.2619 -0.0289  0.0478
    1W        W29058  15.356  27.272   3.285  0.1116  0.0142  0.2782
    1W        W29059  18.371  10.378   0.180  0.0134 -0.0683 -0.1905
    1W        W29060  13.039   8.116   9.325  0.1272 -0.1223  0.0154
    1W        W29061  20.946  21.805   9.555  0.0670  0.1433  0.1961
    1W        W29062  18.122  20.064   8.093 -0.1767 -0.0661  0.2846
    1W        W29063  28.023   2.784   9.581 -0.0979 -0.0441 -0.0972
    1W        W29064  19.232   9.974   6.690 -0.2692  0.2075 -0.1071
    1W        W29065  26.991  11.627   6.642 -0.2652 -0.0364  0.2094
    1W        W29066   6.144   5.405   0.832 -0.2145 -0.2593 -0.2466
    1W        W29067  22.765  20.879   2.922  0.4351 -0.0840 -0.0843
    1W        W29068   2.759   4.015   9.012  0.4300  0.0800  0.0652
    1W        W29069  23.227   0.499   9.935  0.0016 -0.0469 -0.1578
    1W        W29070  22.356   2.262   8.809 -0.0184  0.2021  0.0364
    1W        W29071  17.454   9.472   1.686  0.1761  0.0224 -0.0081
    1W        W29072   8.777  20.551   8.190  0.0474  0.1178  0.4789
    1W        W29073  16.486   8.184   3.377  0.1250  0.0883 -0.0394
    1W        W29074  15.514  19.301   9.737  0.1034  0.0069 -0.0045
    1W        W29075   0.128  17.119   1.052  0.1196 -0.2333  0.0581
    1W        W29076   0.406  21.971   6.169  0.1975  0.0937  0.0308
    1W        W29077  23.913  16.262   9.320  0.0337  0.2058  0.1646
    1W        W29078   9.582  26.000   0.958 -0.0505 -0.0688  0.0023
    1W        W29079  11.766  13.740   9.699  0.4282 -0.0589 -0.0090
    1W        W29080   6.347  17.647   2.255  0.2233  0.2012  0.0738
    1W        W29081  22.019   6.623   2.371  0.1808 -0.0755  0.1521
    1W        W29082   0.327   1.439   8.904 -0.2315 -0.0187 -0.0043
    1W        W29083   2.605  11.784   8.319  0.1461 -0.0770 -0.1459
    1W        W29084   8.734  25.206   8.271  0.4304  0.3221 -0.2290
    1W        W29085   1.238  26.320   8.076 -0.2531  0.0648  0.0232
    1W        W29086   1.502  13.910   6.186 -0.0199  0.0470 -0.0427
    1W        W29087  13.565  27.001   8.298  0.1717  0.1410  0.1382
    1W        W29088  24.246  22.336   6.548 -0.2539 -0.0369 -0.1758
    1W        W29089  12.981  19.131   8.693 -0.0107  0.0160 -0.2448
    1W        W29090   2.024  23.467   7.384  0.0104 -0.3464 -0.1699
    1W        W29091  22.745  28.151   0.533 -0.2238  0.1710  0.1604
    1W        W29092   5.142  22.011   9.190  0.1949  0.0520  0.0160
    1W        W29093  12.894  10.319   8.441  0.0053  0.1135  0.2040
    1W        W29094   1.609   8.886   7.487  0.2370  0.2206  0.0873
    1W        W29095   3.831  25.811   2.095 -0.1973  0.2751  0.1846
    1W        W29096  11.476   6.211   1.409 -0.0498  0.0120  0.1019
    1W        W29097   7.239  11.061   3.055 -0.0946 -0.1524 -0.1722
    1W        W29098   8.434  12.530   8.285  0.1034 -0.2951 -0.0856
    1W        W29099  18.585  27.358   7.927 -0.1362  0.3032  0.0411
    1W        W29100  18.535  26.526   6.721  0.0795 -0.1656  0.0375
    1W        W29101   7.609   6.132   0.803 -0.0274 -0.2736 -0.2784
    1W        W29102   4.010   5.475   0.759 -0.1095  0.1078  0.3312
    1W        W29103   4.640  20.583   9.839  0.0548 -0.3840 -0.1309
    1W        W29104  12.068  23.469   2.653 -0.1409 -0.4970  0.0162
    1W        W29105  24.932  19.768   1.957 -0.0357  0.2060  0.0790
    1W        W29106   7.813  14.736   7.825  0.1504  0.3440 -0.1099
    1W        W29107  25.865   9.771   6.747  0.0198  0.4239  0.3775
    1W        W29108  10.825  18.638   9.107  0.1338 -0.1409 -0.0357
    1W        W29109   2.161  14.970   8.782  0.0653 -0.0043  0.1403
    1W        W29110  15.763   2.341   1.092  0.0401 -0.3896  0.0486
    1W        W29111  13.680  19.678   8.702  0.0194  0.1725 -0.2034
    1W        W29112  26.376   4.028   6.672  0.1395  0.2181 -0.1512
    1W        W29113  17.913   2.846   8.196  0.0691  0.1625  0.3377
    1W        W29114   1.819  18.269   7.460  0.0027 -0.0990 -0.3524
    1W        W29115   3.314  12.744   1.509 -0.0214 -0.0829 -0.0953
    1W        W29116   2.156   2.751   7.596 -0.0406 -0.0282  0.1823
    1W        W29117  24.413   2.167   9.400  0.1063 -0.3877  0.0250
    1W        W29118  11.830  22.477   7.824  0.0140  0.0440 -0.0700
    1W        W29119   1.178   2.961   8.643 -0.0178 -0.0566 -0.1590
    1W        W29120  12.761   2.628   0.008  0.0646  0.1435  0.1877
    1W        W29121  11.822  20.605   0.834 -0.2267 -0.1208 -0.1463
    1W        W29122  25.490  21.716   6.567 -0.3154  0.1864  0.1672
    1W        W29123  27.604  19.275   0.181 -0.1172 -0.2494 -0.6052
    1W        W29124  14.194  14.887   2.894 -0.1177  0.5228  0.0943
    1W        W29125  19.366  25.184   6.319 -0.0129 -0.2111  0.1993
    1W        W29126   3.186  17.984   9.152  0.1462  0.0086  0.0882
    1W        W29127   8.770  28.053   8.795  0.2515 -0.1980  0.0016
    1W        W29128  17.865   2.576   7.504  0.1673  0.3539 -0.0007
    1W        W29129  19.377   6.109   3.990  0.0929  0.1715 -0.2038
    1W        W29130   4.434  26.663   8.386  0.3456 -0.0470  0.0575
    1W        W29131  11.377   7.316   2.520 -0.4617  0.1784 -0.1923
    1W        W29132   2.057  25.612   0.719  0.2621 -0.3244 -0.0135
    1W        W29133   0.605   5.772   2.531 -0.2988 -0.0667 -0.0136
    1W        W29134  13.862   2.972   2.512  0.2169  0.1216  0.0053
    1W        W29135  21.133  22.742   1.509  0.0633 -0.4677  0.1622
    1W        W29136  27.530  16.834   1.999  0.0859 -0.1140  0.1240
    1W        W29137  16.399   3.761   0.374 -0.0661 -0.3048 -0.2633
    1W        W29138  22.083  18.888   1.517 -0.0584 -0.2206 -0.1749
    1W        W29139   8.030  26.679   8.050 -0.2053 -0.0139 -0.1236
    1W        W29140   9.098  19.682   1.577 -0.1928  0.0792 -0.2364
    1W        W29141   8.645  23.358   0.930 -0.2533 -0.0656  0.0408
    1W        W29142  26.900   0.862   0.046 -0.2073  0.0091  0.1392
    1W        W29143   8.448  10.731   8.137 -0.0045  0.3065  0.1737
    1W        W29144  24.483  22.582   7.374 -0.0448 -0.0858  0.0846
    1W        W29145  19.852  14.559   9.361  0.2112 -0.0434 -0.1731
    1W        W29146  10.589   4.538   2.045  0.4077  0.2081  0.1001
    1W        W29147  23.999  10.559   2.571  0.2552 -0.1955  0.2990
    1W        W29148  23.643   5.550   1.406 -0.0915  0.0686  0.4459
    1W        W29149  12.358  28.558   3.299  0.2763 -0.4151 -0.3042
    1W        W29150  22.883   7.414   8.030  0.1006 -0.1295  0.0497
    1W        W29151  13.464   8.435   2.578  0.2135 -0.2057 -0.0117
    1W        W29152   8.880   6.246   8.936  0.2686 -0.0672  0.1737
    1W        W29153   5.926   2.779   9.072  0.3435  0.0813 -0.0443
    1W        W29154  21.130  15.004   8.764 -0.3662  0.0843 -0.0049
    1W        W29155  16.974   3.233   3.619  0.1806  0.1313  0.1408
    1W        W29156  17.497  25.274   9.522 -0.0868  0.2668  0.1565
    1W        W29157   3.107  19.762   0.147  0.0763  0.0532  0.1590
    1W        W29158  20.483   1.714   7.235  0.3253 -0.0527 -0.5284
    1W        W29159  23.307  11.912   6.373 -0.3039  0.1255 -0.2375
    1W        W29160  25.789  24.508   7.672 -0.1836  0.0192 -0.1548
    1W        W29161   8.196  16.827   1.140  0.3238  0.0648  0.1858
    1W        W29162  18.070  11.053   1.712 -0.1722  0.0723  0.1735
    1W        W29163  11.739   0.377   7.067 -0.1684  0.3238 -0.0566
    1W        W29164  22.361  24.106   2.346  0.1129  0.3084 -0.0286
    1W        W29165  20.346  10.009   7.655  0.2478 -0.1787  0.1363
    1W        W29166  13.586  27.280   6.921  0.1081 -0.1650  0.2940
    1W        W29167  28.342  14.732   2.307  0.0658  0.1992 -0.1101
    1W        W29168  11.234  10.577   2.901  0.1555 -0.1520 -0.2917
    1W        W29169  23.054   1.021   6.913 -0.3208 -0.2147  0.0485
    1W        W29170  13.782  25.198   8.186  0.1026  0.3368  0.2429
    1W        W29171  18.449  13.173   1.521  0.1066  0.2070 -0.1464
    1W        W29172  10.461   5.366   7.623  0.1148  0.3500 -0.0485
    1W        W29173  13.613   8.775   2.937  0.1029  0.2299  0.1515
    1W        W29174   3.724   2.783   1.056 -0.1088 -0.0810 -0.1418
    1W        W29175  24.486  27.834   9.552 -0.0738 -0.0696  0.2410
    1W        W29176  13.696  25.689   9.628  0.1439 -0.1331 -0.2184
    1W        W29177  21.842   1.204   1.301 -0.2104  0.1269 -0.4031
    1W        W29178   6.014   9.885   2.506  0.0270 -0.4086 -0.1538
    1W        W29179  10.354  18.615   6.870  0.1803  0.2013 -0.1856
    1W        W29180   5.721   7.726   2.280 -0.2957 -0.2411 -0.2640
    1W        W29181  27.556  27.021   9.710 -0.0976  0.0417 -0.0825
    1W        W29182   3.422  13.771   0.305 -0.1631  0.2907 -0.0125
    1W        W29183   7.558   5.571   1.234  0.0128 -0.1156 -0.2910
    1W        W29184  28.713   9.501   1.887  0.1820  0.0945 -0.1658
    1W        W29185   3.851  17.240   6.115 -0.2258  0.3533 -0.1084
    1W        W29186  23.237   1.858   8.695 -0.0930  0.3324 -0.2873
    1W        W29187  13.612   9.797   0.839  0.2759  0.0979  0.0107
    1W        W29188  19.603  26.536   3.755 -0.1407 -0.0606 -0.0630
    1W        W29189  15.639  25.269   0.327  0.1275  0.1183  0.1133
    1W        W29190  13.494   5.603   8.935  0.1434  0.2463 -0.0191
    1W        W29191   9.223  19.630   0.733 -0.0137 -0.0577 -0.0437
    1W        W29192   0.547  18.478   2.499 -0.0171 -0.0189 -0.2310
    1W        W29193   5.286   5.633   0.202  0.1743  0.1923 -0.3902
    1W        W29194   7.878  21.881   7.491 -0.0960  0.0244 -0.1075
    1W        W29195  20.112  25.904   3.202  0.1317 -0.0779  0.1775
    1W        W29196  20.681   4.435   3.046  0.1716 -0.0771  0.2161
    1W        W29197  18.891  23.291   8.993  0.2309 -0.3642 -0.0755
    1W        W29198  17.421  15.046   9.841  0.1359 -0.1846  0.1136
    1W        W29199   4.072   3.067   1.784  0.0683  0.0126  0.1206
    1W        W29200  22.463   6.331   7.424 -0.3144 -0.1412 -0.2487
    1W        W29201   0.145  18.794   1.812 -0.2979  0.0107  0.0236
    1W        W29202  24.320   2.705   8.213 -0.2187  0.0145 -0.1742
    1W        W29203  17.104  19.085   9.120  0.1698 -0.2255  0.0617
    1W        W29204  18.844  12.019   8.109  0.3199 -0.0981 -0.2227
    1W        W29205   0.269   7.353   6.011 -0.2689 -0.4378 -0.0662
    1W        W29206  27.578   2.692   9.943 -0.0838  0.0250  0.2203
    1W        W29207  18.042   4.401   9.074 -0.5141 -0.1019 -0.0082
    1W        W29208  21.668   7.103   0.588 -0.3725 -0.2752 -0.2115
    1W        W29209  10.539  22.351   6.532  0.2936 -0.2610  0.0435
    1W        W29210  22.802  13.927   0.290 -0.0810  0.2121  0.1098
    1W        W29211   0.726  22.201   9.671 -0.0038 -0.0725 -0.1533
    1W        W29212  13.251  23.117   7.730  0.1465 -0.0092 -0.1056
    1W        W29213   8.716  23.426   7.439  0.0939  0.1286 -0.0300
    1W        W29214  27.687  26.259   7.549 -0.0265  0.1308 -0.2490
    1W        W29215  19.344  16.999   2.996  0.0428 -0.0373 -0.0142
    1W        W29216  27.985   0.849   1.639  0.1125 -0.0143 -0.0330
    1W        W29217   9.512  26.592   6.122  0.0554  0.0220 -0.0814
    1W        W29218  21.958   1.457   1.679 -0.1798 -0.0573 -0.3721
    1W        W29219  26.306   7.390   8.748  0.0661  0.1032 -0.2202
    1W        W29220  16.584   6.541   8.933  0.0765 -0.0962 -0.2700
    1W        W29221   9.828  11.264   0.564 -0.2318 -0.3784  0.0517
    1W        W29222   1.995  15.610   9.370  0.2272  0.1066 -0.3656
    1W        W29223  23.437   3.661   8.571  0.4256  0.0458  0.1265
    1W        W29224  25.915   5.366   9.482  0.3604  0.1427 -0.2938
    1W        W29225  25.297  18.697   6.689 -0.0710  0.0105 -0.1269
    1W        W29226  18.724   5.741   9.904  0.1150 -0.1096  0.1769
    1W        W29227  15.039   0.742   9.938  0.1440 -0.5594 -0.0274
    1W        W29228   0.162   2.895   7.636 -0.4047 -0.1042  0.1473
    1W        W29229   9.884  16.630   9.423 -0.2171  0.3862 -0.0701
    1W        W29230  12.869  19.759   9.366 -0.1192  0.0732  0.1765
    1W        W29231  12.717   5.261   9.238 -0.0362  0.2952 -0.2020
    1W        W29232   2.388   9.642   8.476 -0.0478 -0.1739  0.1915
    1W        W29233  26.461  13.056   7.812 -0.0878  0.2494  0.1213
    1W        W29234   1.232  28.313   9.425  0.0511 -0.1689 -0.2191
    1W        W29235   8.297   2.199   0.865  0.1262  0.2200 -0.1445
    1W        W29236   1.726  20.825   0.704 -0.0377  0.4584 -0.0279
    1W        W29237  10.374  16.748   9.599 -0.0783  0.0231  0.0673
    1W        W29238  23.141  28.701   9.220  0.1134  0.0101  0.1502
    1W        W29239  23.243   9.567   6.901  0.3777  0.0756 -0.2080
    1W        W29240   4.869  27.531   2.702 -0.1702 -0.0210 -0.2198
    1W        W29241  20.221  13.463   8.878 -0.0517  0.0899  0.1517
    1W        W29242  15.928  18.292   9.518  0.1176  0.1672 -0.2110
    1W        W29243  19.837  25.766   7.784 -0.0045  0.0673  0.4385
    1W        W29244  12.840  26.808   2.744 -0.0930  0.0991 -0.2860
    1W        W29245  22.977  14.744   1.691 -0.3301 -0.0260 -0.0129
    1W        W29246  27.309  25.466   7.559  0.3693 -0.1125  0.1559
    1W        W29247  23.755  25.660   7.140 -0.1541  0.2283 -0.1520
    1W        W29248   5.303  15.499   9.899  0.0157  0.4498 -0.1975
    1W        W29249  25.973   3.132   1.227 -0.2539  0.0700  0.0644
    1W        W29250  27.783  26.553   9.550 -0.0049 -0.0428  0.1212
    1W        W29251   8.757  23.972   0.026  0.1297 -0.0271 -0.0296
    1W        W29252  11.359  23.944   6.907 -0.0961 -0.1463 -0.2273
    1W        W29253   6.761  15.393   2.233 -0.1063 -0.2127 -0.0166
    1W        W29254  11.847  20.702   1.322 -0.0416 -0.0008 -0.1155
    1W        W29255  11.435  10.373   8.663 -0.1069  0.1063 -0.1240
    1W        W29256  27.229   1.613   0.194  0.0166 -0.0826 -0.1812
    1W        W29257  26.082  10.652   0.069 -0.0812  0.0044  0.0618
    1W        W29258  10.996   3.560   8.254 -0.1541 -0.0693 -0.1786
    1W        W29259  23.366   8.171   9.156  0.1060 -0.4465 -0.2450
    1W        W29260   6.159  24.620   0.363 -0.0843  0.1847  0.3485
    1W        W29261  12.190   0.298   9.712  0.2820 -0.3930  0.0668
    1W        W29262  22.572  12.308   8.629  0.4178  0.3319  0.0241
    1W        W29263  12.422  11.314   9.932 -0.3348 -0.0735 -0.1121
    1W        W29264  25.474  21.300   8.480  0.1162  0.0772 -0.2063
    1W        W29265   0.237  26.333   6.906 -0.0088 -0.0606  0.2802
    1W        W29266  13.594   6.085   0.727 -0.0263  0.3253  0.1193
    1W        W29267  16.331  25.967   8.770  0.3815 -0.1443  0.2043
    1W        W29268   7.552   7.598   3.611 -0.3435 -0.1363 -0.1918
    1W        W29269  13.093  27.928   4.137 -0.0863  0.0432  0.0732
    1W        W29270   6.483   4.216   1.480  0.0085 -0.0668 -0.2275
    1W        W29271  23.656  12.410   8.752 -0.1497 -0.3289  0.2452
    1W        W29272  24.366  24.359   3.260 -0.1085  0.1276 -0.4106
    1W        W29273  11.295   7.543   9.487  0.1006 -0.5475 -0.3189
    1W        W29274   7.125   2.772   7.222 -0.0316  0.0989  0.0192
    1W        W29275  18.302   1.825   7.290  0.1910  0.0245 -0.2128
    1W        W29276  17.614  24.254   1.852  0.1954  0.1906  0.0759
    1W        W29277  26.293   6.543   6.573 -0.1193  0.0742  0.0260
    1W        W29278   6.677  19.847   6.967  0.1573 -0.0976  0.2480
    1W        W29279  16.631   1.846   2.376  0.6254  0.2575 -0.2647
    1W        W29280   6.025  19.851   6.314  0.0005 -0.1060 -0.1663
    1W        W29281  25.348  24.049   2.690 -0.1174 -0.0640  0.1506
    1W        W29282  21.282  21.936   0.104  0.0416  0.0764  0.1394
    1W        W29283   2.947  23.054   0.519 -0.2861  0.0634 -0.1246
    1W        W29284  10.124  23.269   0.610  0.0398 -0.3624  0.0976
    1W        W29285  20.531  11.268   0.400  0.2487 -0.1168  0.3537
    1W        W29286   2.119   2.997   9.679  0.0803  0.0432  0.1684
    1W        W29287   7.319  12.278   9.650 -0.1169  0.1205  0.1137
    1W        W29288  14.227  19.738   2.949  0.1914 -0.0163 -0.0707
    1W        W29289   5.048  12.858   7.779  0.1238  0.1190  0.1084
    1W        W29290   9.581   7.411   3.200 -0.1269 -0.1539 -0.1934
    1W        W29291  27.142  17.876   7.954 -0.1066  0.0504  0.1861
    1W        W29292  19.273  13.847   0.615  0.0146  0.0087 -0.0678
    1W        W29293   2.018  19.309   7.737 -0.2418  0.0514  0.1384
    1W        W29294   0.734  25.596   3.362  0.0595  0.3453 -0.1328
    1W        W29295  10.398  23.619   0.829  0.1356  0.0513  0.1803
    1W        W29296   7.286  11.737   9.681 -0.3828 -0.2857 -0.1156
    1W        W29297  19.762   8.130   2.955 -0.0083 -0.0207 -0.0403
    1W        W29298   7.786  14.773   7.281  0.0118 -0.1894  0.0745
    1W        W29299  22.829  11.153   2.036  0.4710  0.0452 -0.0783
    1W        W29300  21.979   4.109   8.525 -0.0874  0.0351 -0.0436
    1W        W29301  10.150   7.485   7.198 -0.0825 -0.1587 -0.0532
    1W        W29302  16.824   5.682   9.167 -0.2324 -0.0143 -0.0112
    1W        W29303  14.204  10.468   1.438  0.0672  0.0562  0.0802
    1W        W29304  10.335  20.817   3.027 -0.1895  0.0413 -0.1914
    1W        W29305   2.651  12.654   1.489  0.1347 -0.1759  0.1179
    1W        W29306   5.954   8.487   7.031 -0.0807  0.5693  0.1011
    1W        W29307  19.248  12.528   1.448 -0.1052 -0.1422  0.1505
    1W        W29308   6.886   4.705   8.184 -0.0881  0.2742 -0.2789
    1W        W29309  14.603   2.735   9.246  0.2432  0.1599  0.2478
    1W        W29310  17.261  20.725   8.717 -0.2816 -0.0647 -0.0826
    1W        W29311  13.154   7.806   2.615 -0.1523 -0.1241  0.3080
    1W        W29312   3.631  26.292   2.250  0.0968 -0.0923 -0.0747
    1W        W29313   9.424   0.689   0.870  0.2215 -0.0054 -0.0183
    1W        W29314   3.225  18.044   6.392 -0.2529  0.1892 -0.2576
    1W        W29315  10.618   8.293   8.155  0.2518  0.1843  0.1907
    1W        W29316  20.706  24.202   6.434 -0.2433  0.0173 -0.2745
    1W        W29317   9.180  25.210   0.285  0.2687 -0.3118  0.0323
    1W        W29318  16.526  25.352   8.081  0.3790  0.2468 -0.4707
    1W        W29319   8.120  14.475   8.730  0.1359  0.1915 -0.2287
    1W        W29320   0.039   3.366   1.257 -0.1902 -0.1266 -0.2405
    1W        W29321  18.951  24.906   7.706 -0.2030 -0.2220 -0.1654
    1W        W29322   7.628   3.479   8.225 -0.1474  0.0887 -0.2035
    1W        W29323  23.310  23.397   7.089 -0.0451 -0.0255  0.0515
    1W        W29324  17.423   3.023   7.900  0.1767 -0.0742  0.0011
    1W        W29325  28.315  20.729   2.513  0.2280 -0.1755 -0.3292
    1W        W29326   4.755   0.051   8.710 -0.1751 -0.0140 -0.0812
    1W        W29327  28.100   1.235   0.374 -0.0985  0.0204 -0.1729
    1W        W29328  24.787  28.597   9.440  0.1441 -0.1167 -0.0527
    1W        W29329  13.015  16.535   0.974 -0.0437 -0.0782  0.3936
    1W        W29330  18.160   2.497   7.978  0.0118 -0.1452  0.1463
    1W        W29331  11.482  25.026   9.244  0.0039  0.0024 -0.1389
    1W        W29332   6.069  13.806   3.118 -0.0986 -0.0680 -0.0290
    1W        W29333   4.449  17.402   1.612  0.0794 -0.0802  0.2076
    1W        W29334  20.915  18.092   2.313 -0.0462 -0.0296 -0.3106
    1W        W29335   0.842   3.114   6.395  0.0819 -0.0723 -0.3401
    1W        W29336  22.798  21.614   1.319 -0.0222 -0.0513  0.0024
    1W        W29337  17.042   1.787   0.473 -0.0925 -0.2040  0.0724
    1W        W29338  13.337  18.294   8.357 -0.2359  0.2442  0.1125
    1W        W29339   0.179  26.556   2.115  0.4764 -0.2590 -0.3575
    1W        W29340  19.469  27.735   1.827  0.0483 -0.1711  0.1355
    1W        W29341  27.416  23.851   6.787  0.0473 -0.1117 -0.0479
    1W        W29342   6.509  25.750   7.399  0.0500  0.0555  0.1666
    1W        W29343  14.644  18.267   0.188 -0.1726  0.0868  0.1087
    1W        W29344  24.293   9.709   7.715 -0.3898 -0.2987 -0.0349
    1W        W29345  21.413  13.512   8.505 -0.0410  0.1074 -0.2401
    1W        W29346   4.617  22.425   0.355  0.0095  0.1200  0.2919
    1W        W29347  13.929  17.858   8.900 -0.1755  0.4452 -0.1469
    1W        W29348  13.654   5.410   1.776 -0.3756  0.1691 -0.1472
    1W        W29349  25.643   9.622   9.181 -0.0973  0.2115  0.0955
    1W        W29350   1.350  25.184   8.129  0.0905  0.2866  0.0160
    1W        W29351  27.932  12.773   6.280 -0.1366 -0.0927 -0.2265
    1W        W29352  23.414  26.793   8.417 -0.2906  0.2803  0.4248
    1W        W29353   5.252  17.340   8.577  0.0981  0.1271  0.1145
    1W        W29354  27.948  10.574   2.027  0.0286 -0.1725 -0.0709
    1W        W29355  23.934  10.706   1.196 -0.0015  0.2532 -0.0638
    1W        W29356  14.042  26.897   8.539 -0.0293  0.1711 -0.0500
    1W        W29357  15.986   8.562   1.709 -0.1150  0.2189 -0.2285
    1W        W29358  12.614  10.546   1.341  0.0610  0.0451  0.1488
    1W        W29359  10.784   8.876   9.477 -0.2750  0.1385  0.0432
    1W        W29360   3.273   5.566   2.426 -0.0079  0.1804 -0.2446
    1W        W29361   8.392   4.258   2.242 -0.0639 -0.3237 -0.1950
    1W        W29362  11.579  17.345   8.964  0.1032  0.0660  0.0678
    1W        W29363   6.568  25.534   1.686  0.0004  0.0656  0.0816
    1W        W29364   9.355  26.224   2.580 -0.1486  0.1303  0.0671
    1W        W29365  10.363  19.699   0.354 -0.1065 -0.0662  0.0216
    1W        W29366   4.397  22.363   7.958  0.2143  0.1826 -0.2614
    1W        W29367   3.775  19.712   1.479  0.0083  0.0119  0.2032
    1W        W29368  26.420   7.913   9.822 -0.3037  0.1985 -0.2378
    1W        W29369   5.375   1.888   9.620 -0.0563 -0.2032 -0.1054
    1W        W29370  21.020  19.020   6.706 -0.1510  0.0461 -0.1408
    1W        W29371   6.436  15.058   6.646 -0.3223 -0.1206  0.0266
    1W        W29372  18.727  12.556   1.013  0.0496  0.1635  0.0665
    1W        W29373  28.117   0.435   8.462  0.0735 -0.1732  0.0492
    1W        W29374   3.190   3.071   2.077 -0.0243 -0.0328  0.3405
    1W        W29375   5.017   5.291   7.539  0.2981 -0.0605  0.2367
    1W        W29376  14.859  22.226   9.817  0.1123  0.1739 -0.1009
    1W        W29377  25.056   8.638   1.881  0.1254  0.3290  0.1449
    1W        W29378   4.863  25.196   8.748 -0.0697  0.1003 -0.1919
    1W        W29379  18.291   4.577   7.609 -0.1741 -0.2156 -0.2734
    1W        W29380   6.081   6.026   2.846 -0.0928  0.0920  0.1690
    1W        W29381  22.736  27.189   2.064 -0.3015  0.0062 -0.0027
    1W        W29382  13.184   1.323   2.161  0.3073 -0.0145 -0.3380
    1W        W29383  15.359  25.753   1.075  0.3325  0.3469 -0.2387
    1W        W29384   0.173  15.642   7.168  0.1504 -0.1371 -0.0165
    1W        W29385  16.155   2.211   7.696 -0.0400  0.1260 -0.2698
    1W        W29386   7.171   7.566   1.808  0.0644 -0.0198  0.0702
    1W        W29387   9.959  21.998   0.874 -0.0441  0.0157  0.2204
    1W        W29388  26.958  20.754   9.774 -0.1368 -0.0469 -0.0859
    1W        W29389  21.338  27.690   8.023 -0.2418  0.1867  0.1007
    1W        W29390   6.195   1.123   1.938  0.0465 -0.1345 -0.3167
    1W        W29391   3.490  11.098   1.964  0.1121 -0.1309  0.3129
    1W        W29392  27.784  14.113   1.820 -0.4355 -0.2251 -0.0879
    1W        W29393  24.685  19.958   3.460  0.1604 -0.0138 -0.0994
    1W        W29394   9.315  25.916   1.367 -0.0644  0.0643  0.0253
    1W        W29395   6.608  16.713   7.095  0.3795 -0.1320 -0.1622
    1W        W29396   0.273  27.493   0.658 -0.2242  0.2188 -0.1083
    1W        W29397  26.069  24.486   1.436 -0.1591  0.0140 -0.0790
    1W        W29398  10.242  14.123   9.801  0.3189  0.0374 -0.1852
    1W        W29399   3.843  18.397   6.325 -0.1022 -0.0855  0.1728
    1W        W29400   0.332  12.905   0.703 -0.0034  0.2779  0.4469
    1W        W29401  22.169   1.132   6.427 -0.1709  0.3337 -0.2575
    1W        W29402   1.972   6.544   1.444 -0.0276  0.2094 -0.1737
    1W        W29403  16.971   4.261   9.495 -0.2026 -0.0773 -0.0030
    1W        W29404  17.720  28.217   7.573  0.1066  0.2423 -0.0203
    1W        W29405   2.178   0.049   9.342 -0.3260 -0.1136  0.1317
    1W        W29406  15.383  26.127   8.777  0.0459 -0.0526  0.0160
    1W        W29407   1.768   0.095   2.604  0.0171 -0.2186 -0.1177
    1W        W29408   6.678  26.908   8.120  0.0432 -0.2484  0.1936
    1W        W29409   6.642   7.606   7.698  0.3295  0.1027 -0.0519
    1W        W29410  12.398  23.370   3.079  0.2441  0.0461  0.2525
    1W        W29411   5.478  24.117   0.368  0.3143 -0.2673  0.0131
    1W        W29412  24.445  20.862   9.249  0.1740  0.0181  0.0750
    1W        W29413  15.765  23.841   9.212  0.0014 -0.1227  0.0000
    1W        W29414  23.697  11.714   8.650  0.3831  0.0511  0.1576
    1W        W29415   8.317  19.090   7.133  0.3961  0.1437 -0.1896
    1W        W29416   0.136   6.627   8.455 -0.2099  0.2857  0.0473
    1W        W29417  16.523   5.683   0.123  0.1145  0.2553  0.0829
    1W        W29418  20.574  10.060   1.130  0.0544  0.2087 -0.2671
    1W        W29419   1.493   5.222   2.706  0.1437 -0.2048 -0.0296
    1W        W29420  20.024  19.469   2.891 -0.1560  0.1008 -0.0408
    1W        W29421  14.292  23.216   8.809 -0.0651  0.0119  0.0485
    1W        W29422  27.001  17.516   0.710 -0.2877  0.1376  0.0371
    1W        W29423  13.647  20.679   2.201 -0.0291  0.0050  0.1825
    1W        W29424  18.643  10.819   2.511 -0.1563  0.1742  0.2771
    1W        W29425   1.467  16.586   6.542  0.0735  0.0931 -0.0701
    1W        W29426  21.838   2.392   7.310  0.0872 -0.4565  0.3602
    1W        W29427   5.576   9.602   3.236  0.0235  0.0803 -0.0629
    1W        W29428  13.347   3.448   0.441 -0.0802  0.1087 -0.0456
    1W        W29429   5.677   5.859   7.547 -0.3769  0.0637  0.0937
    1W        W29430   0.530  26.105   9.578  0.3417 -0.1132 -0.0062
    1W        W29431  24.414  28.291   7.005  0.3259  0.2572  0.0638
    1W        W29432   1.246   1.169   2.311 -0.0201 -0.1306  0.0400
    1W        W29433   7.917   8.464   0.591  0.1141 -0.0412 -0.1947
    1W        W29434  27.302  27.288   0.067 -0.1849 -0.2236 -0.0454
    1W        W29435   5.645  25.043   9.870  0.0364 -0.1826  0.1815
    1W        W29436  14.351   6.294   1.733 -0.1176  0.0558 -0.0877
    1W        W29437   7.616   2.120   1.849  0.1015 -0.0825 -0.0690
    1W        W29438  19.405  23.464   1.219 -0.0233 -0.1475  0.1309
    1W        W29439  22.384   2.820   8.811 -0.1686 -0.1335 -0.1359
    1W        W29440   3.209  15.853   6.342 -0.2432  0.0697  0.0163
    1W        W29441   2.900   3.723   0.644  0.0434  0.0738  0.0865
    1W        W29442  10.659  16.237   7.658 -0.0306  0.0445  0.1004
    1W        W29443  17.366  21.442   9.750 -0.0910 -0.2415  0.1562
    1W        W29444   7.766  19.006   7.146  0.0568  0.0220  0.2015
    1W        W29445   4.413  20.039   5.918 -0.1342 -0.0720 -0.0143
    1W        W29446  27.050  16.943   6.019  0.0340 -0.0202  0.1885
    1W        W29447  22.873  14.224   6.753  0.1244  0.0307  0.1679
    1W        W29448   2.253  15.585   7.455 -0.0242  0.0906  0.2076
    1W        W29449   2.964  11.634   7.124  0.0959  0.0722 -0.0710
    1W        W29450   1.990   9.895   8.517 -0.0676 -0.3059  0.0060
    1W        W29451   4.029   1.444   1.698  0.1162  0.2139  0.1904
    1W        W29452   4.582  18.147   8.335  0.1990  0.1483  0.1362
    1W        W29453  27.144  22.993   9.906  0.1663  0.0619  0.1202
    1W        W29454   4.369  24.017   8.799  0.0728 -0.0802  0.0122
    1W        W29455   8.332   8.202   8.203  0.3445  0.1557  0.1198
    1W        W29456  26.016  17.743   1.772  0.4176  0.0389  0.3500
    1W        W29457  10.528   9.185   8.102 -0.1012 -0.0569 -0.0239
    1W        W29458  22.127  12.721   0.136  0.4172  0.2349 -0.0923
    1W        W29459  27.118  23.635   2.630  0.1773 -0.1824 -0.2684
    1W        W29460  24.810  14.267   6.343 -0.0859 -0.1695 -0.0984
    1W        W29461  20.919  17.060   2.043 -0.0053  0.0158 -0.1900
    1W        W29462  12.487  11.751   2.489 -0.1429 -0.0606 -0.0413
    1W        W29463   6.075   2.389   1.776 -0.2169 -0.1943 -0.0102
    1W        W29464  16.538   8.625   1.966 -0.1081 -0.3179  0.2344
    1W        W29465  25.410  22.669   2.370 -0.0397  0.0787  0.0094
    1W        W29466  21.994  11.335   3.133  0.0366  0.1446 -0.0039
    1W        W29467  17.387   7.176   0.054  0.1627  0.2465 -0.1907
    1W        W29468  15.626  21.621   1.115 -0.2512  0.0905  0.1018
    1W        W29469  24.570  15.291   1.569  0.2511 -0.3108  0.0461
    1W        W29470  24.819   1.044   8.300  0.4009  0.2686 -0.2560
    1W        W29471  26.246  20.858   2.799 -0.2559  0.3256 -0.0041
    1W        W29472  17.574  21.749   8.149 -0.0879  0.2151  0.0029
    1W        W29473  18.596  20.060   0.260  0.0946 -0.2022 -0.2086
    1W        W29474   1.559   8.242   0.890 -0.0013  0.0801  0.0388
    1W        W29475  22.069   7.633   7.794  0.1442 -0.2546 -0.0674
    1W        W29476  24.939   5.318   0.147 -0.0413 -0.0820 -0.0805
    1W        W29477  16.902  21.229   8.295 -0.1465  0.0377 -0.2092
    1W        W29478  14.951  10.286   0.592  0.2254 -0.2001  0.1541
    1W        W29479  15.905  26.692   9.147 -0.0506 -0.2230 -0.1777
    1W        W29480   8.182   0.364   3.162  0.1303  0.1888  0.2626
    1W        W29481  26.044  10.891   8.696 -0.0894  0.1778 -0.1988
    1W        W29482   1.738   4.396   2.957  0.3096 -0.2095  0.1261
    1W        W29483  13.273   7.929   0.986 -0.1715 -0.2299 -0.0624
    1W        W29484   3.651  10.004   1.992 -0.1242 -0.1431  0.1707
    1W        W29485  27.526  12.276   0.399 -0.1289  0.1270 -0.2628
    1W        W29486  28.248  24.280   7.956  0.0130 -0.2658 -0.0394
    1W        W29487  19.551  21.462   7.622 -0.3811  0.0008 -0.1089
    1W        W29488  19.204   0.674   8.015  0.2089  0.1748 -0.1518
    1W        W29489  28.718  27.857   3.129  0.0605 -0.2121  0.5217
    1W        W29490  21.034  21.836   7.881  0.0311  0.0371 -0.5688
    1W        W29491  28.676  26.050   0.462 -0.2178  0.2106 -0.4546
    1W        W29492  11.138  24.394   9.080 -0.4794 -0.0491  0.0662
    1W        W29493   7.499  12.872   1.850 -0.1884  0.1538 -0.1949
    1W        W29494  10.365  26.316   8.837  0.2208  0.0918 -0.1004
    1W        W29495  22.678  12.873   7.216 -0.1470 -0.2409 -0.1360
    1W        W29496   9.335  10.591   8.359  0.0736 -0.0838 -0.0921
    1W        W29497  28.425  16.388   9.277  0.0780 -0.0648 -0.1304
    1W        W29498   8.687  19.295   6.864 -0.0290 -0.0967  0.1264
    1W        W29499  21.129   7.225   9.171 -0.3938  0.3474 -0.0040
    1W        W29500   4.439   6.060   0.256  0.5359  0.2448  0.2919
    1W        W29501   5.808   3.879   3.376  0.0241 -0.0147  0.1749
    1W        W29502  10.210  24.613   6.014 -0.1085  0.0739 -0.4959
    1W        W29503   4.476   1.542   9.859  0.1568 -0.1094  0.0668
    1W        W29504  15.044  12.110   9.943 -0.1222  0.0372  0.0965
    1W        W29505  12.792  11.411   1.699  0.3685 -0.3097  0.1240
    1W        W29506  21.430  19.328   1.649 -0.1821 -0.2260  0.2943
    1W        W29507  24.530  18.805   0.683 -0.0514 -0.0375 -0.0197
    1W        W29508  26.113   9.190   8.207 -0.2421 -0.0664 -0.1854
    1W        W29509  25.460   0.132   7.708 -0.1892 -0.4260 -0.2930
    1W        W29510  27.589  20.020   9.441  0.0999 -0.1361 -0.3773
    1W        W29511  16.675  12.592   1.113 -0.2193 -0.0461 -0.4155
    1W        W29512   2.597  19.168   6.247  0.3624  0.1631  0.0940
    1W        W29513  23.795   6.844   1.654 -0.2718  0.2290 -0.0591
    1W        W29514  11.876  18.018   9.629  0.0673  0.0300 -0.3712
    1W        W29515  25.784  27.604   2.246  0.2914  0.0685 -0.1072
    1W        W29516  26.864   2.491   7.489 -0.0749 -0.3082 -0.0466
    1W        W29517   3.816  15.024   1.466 -0.2387 -0.0623 -0.2395
    1W        W29518   6.795   7.144   7.525 -0.0152 -0.1929 -0.0770
    1W        W29519   3.021  13.202   2.433  0.1742  0.0690 -0.0623
    1W        W29520   0.402  13.546   7.352 -0.1669  0.0168 -0.1615
    1W        W29521  27.847   3.319   7.958  0.0681 -0.1540  0.1822
    1W        W29522  21.273   5.817   7.186  0.2654 -0.0497 -0.0702
    1W        W29523  16.008   3.364   3.882 -0.1718  0.1099  0.1452
    1W        W29524   2.422  16.862   2.690 -0.0792  0.1131  0.0349
    1W        W29525  11.361  24.781   6.428  0.1434 -0.0107 -0.2209
    1W        W29526  25.264  25.648   7.952 -0.1073  0.3249  0.1110
    1W        W29527  28.538  24.404   0.070 -0.1466 -0.2050 -0.1268
    1W        W29528   4.934   4.253   8.301 -0.0235  0.0604 -0.1055
    1W        W29529  24.813   1.014   9.328 -0.1749 -0.1559 -0.0253
    1W        W29530  16.258  23.886   0.415 -0.0950  0.0472 -0.1126
    1W        W29531  17.043  15.177   8.197 -0.0060  0.1733 -0.1860
    1W        W29532  26.514  28.389   2.062 -0.1203 -0.2078  0.0091
    1W        W29533  26.754   2.399   8.300  0.2384  0.1330  0.0410
    1W        W29534   1.230  11.092   9.302 -0.0088 -0.3630  0.0668
    1W        W29535  15.603  16.575   7.428  0.3254 -0.3094  0.0963
    1W        W29536  11.429  13.481   1.898 -0.1134 -0.1785 -0.0762
    1W        W29537  20.318  10.690   6.952 -0.2505 -0.0177 -0.1042
    1W        W29538   5.840  20.473   7.344  0.0259 -0.1794 -0.0701
    1W        W29539  28.636   5.483   9.405 -0.2887 -0.1964  0.1868
    1W        W29540   8.568   6.217   7.752  0.0269  0.1153  0.0512
    1W        W29541  26.650  17.370   8.267 -0.1324  0.2579 -0.0994
    1W        W29542   4.224   2.754   2.229 -0.1684 -0.1064  0.0783
    1W        W29543  24.893  16.750   7.024  0.2081  0.0454 -0.0116
    1W        W29544  24.805  21.639   1.645 -0.2620 -0.1437 -0.1879
    1W        W29545  10.710   2.652   0.787 -0.0180 -0.1768 -0.0292
    1W        W29546  21.968  20.494   1.806  0.3948 -0.0797 -0.0538
    1W        W29547   6.423  26.104   2.419 -0.0690  0.1304  0.0280
    1W        W29548  17.348   4.831   7.480  0.1125  0.1965  0.0164
    1W        W29549  25.165  14.549   0.143  0.0689 -0.1469  0.3532
    1W        W29550  13.370  17.909   2.089  0.0122  0.0845  0.2028
    1W        W29551  23.072  27.119   0.085 -0.1409 -0.0026 -0.2321
    1W        W29552  22.708   2.056   3.181 -0.2086  0.2780  0.0732
    1W        W29553  10.037  13.931   0.350 -0.0496  0.3674  0.1061
    1W        W29554  20.061  24.038   9.352 -0.0650 -0.1005  0.1562
    1W        W29555  24.350  20.628   9.777  0.0558 -0.0341  0.0777
    1W        W29556   6.564  18.210   6.724 -0.1225 -0.0116  0.0261
    1W        W29557  23.947   4.538   1.381  0.2116 -0.0374 -0.2814
    1W        W29558   7.592  19.064   7.926  0.0038 -0.0427  0.1743
    1W        W29559  24.734   9.552   8.582  0.2560 -0.1388 -0.0866
    1W        W29560  17.206  13.824   9.058  0.0682 -0.0836  0.1240
    1W        W29561  12.212  24.199   7.188 -0.2172 -0.1384 -0.0079
    1W        W29562   7.764  10.418   7.458  0.0166 -0.0971 -0.2857
    1W        W29563   5.364   4.977   2.385  0.0875 -0.2177  0.0646
    1W        W29564   1.929  13.750   9.255 -0.2377  0.2752 -0.1335
    1W        W29565  15.506   2.795   1.688  0.1052  0.3406 -0.2743
    1W        W29566  25.131   7.369   7.091  0.1480  0.0917  0.3676
    1W        W29567   3.417  21.903   0.923 -0.0591  0.0499 -0.0022
    1W        W29568   5.640  26.323   0.702 -0.0287 -0.1710 -0.1044
    1W        W29569   4.077   7.798   1.321 -0.0124  0.2357  0.0986
    1W        W29570   3.340  19.757   5.286 -0.1929 -0.2187 -0.0176
    1W        W29571  11.076   3.913   3.519  0.1424  0.4451 -0.0902
    1W        W29572  27.825   4.452   1.026  0.0203 -0.1040  0.0609
    1W        W29573   6.102   1.445   7.640  0.1854  0.3547 -0.0166
    1W        W29574  24.312  22.127   9.458 -0.2697  0.3656  0.0486
    1W        W29575   4.494  15.217   8.487  0.0041  0.0007  0.0257
    1W        W29576  22.673  27.106   7.617 -0.2775 -0.3088  0.0173
    1W        W29577   6.218  10.831   1.890 -0.0352 -0.0285 -0.0099
    1W        W29578   5.164   1.493   1.546 -0.2598  0.2829  0.1663
    1W        W29579  24.146  17.536   9.726 -0.0783 -0.0882 -0.1657
    1W        W29580  23.150  12.159   7.870  0.0967  0.2651  0.1052
    1W        W29581  22.807   5.893   8.156  0.3090  0.4185 -0.0352
    1W        W29582   0.081  10.539   0.927  0.0330 -0.1831  0.0525
    1W        W29583  25.784   0.833   3.614 -0.0622 -0.0095  0.3253
    1W        W29584  18.700   7.518   9.547  0.2042 -0.2245  0.2476
    1W        W29585  25.984  21.666   1.033  0.0077  0.1889  0.1941
    1W        W29586  22.544  10.770   9.575 -0.3202 -0.1967  0.0778
    1W        W29587  22.615   6.156   2.027  0.2575 -0.2547 -0.0405
    1W        W29588  25.275  18.307   9.592  0.1010  0.0012 -0.1048
    1W        W29589  18.870   8.293   3.471 -0.1430  0.0647  0.0250
    1W        W29590  10.783   3.468   3.399 -0.0207  0.1710  0.0840
    1W        W29591  26.522  15.813   5.723  0.3079 -0.1069  0.1651
    1W        W29592   2.533   1.517   7.922 -0.0755  0.1753  0.1970
    1W        W29593  22.118   2.057   9.355 -0.0491  0.3184  0.1736
    1W        W29594  25.720   8.377   8.744  0.0309  0.0428 -0.0196
    1W        W29595  28.621   0.302   1.201 -0.1479  0.4244  0.2994
    1W        W29596   2.975   3.622   2.643  0.0396 -0.0324 -0.1323
    1W        W29597  14.331   8.890   2.159 -0.5917  0.4040 -0.0033
    1W        W29598  26.424  17.552   9.452 -0.1707  0.2861  0.0731
    1W        W29599   9.533  19.697   1.260  0.0843  0.1526  0.0363
    1W        W29600  19.547  22.004   8.244 -0.0060  0.1457  0.1046
    1W        W29601  10.346   8.588   9.659  0.1511  0.1728 -0.3531
    1W        W29602   9.954  23.630   9.833  0.1014 -0.1542  0.0637
    1W        W29603   0.234   3.440   8.348 -0.1854  0.1280 -0.0054
    1W        W29604  17.386   3.242   8.810 -0.2008  0.1092  0.4470
    1W        W29605  22.811  22.833   6.614  0.0712 -0.0063  0.2357
    1W        W29606  27.376  21.042   2.777 -0.0429  0.4153 -0.0118
    1W        W29607  16.217  24.377   0.411 -0.1400  0.2625 -0.1755
    1W        W29608  14.324  24.007   0.256 -0.3772  0.1039 -0.0119
    1W        W29609   1.879   1.758   2.690 -0.0883  0.3845 -0.2386
    1W        W29610  21.380  10.884   3.280 -0.0305 -0.0523 -0.2229
    1W        W29611  27.976   8.687   1.220 -0.1578  0.2509  0.3353
    1W        W29612  19.739  15.890   9.216 -0.0600  0.0966  0.0234
    1W        W29613   4.450   8.687   0.171  0.0390 -0.1477 -0.3517
    1W        W29614   7.786  18.262   6.572 -0.0795  0.1211  0.0661
    1W        W29615  28.649  23.651   0.812  0.0386 -0.2100 -0.1130
    1W        W29616  18.266   5.966   9.808  0.1605  0.0112  0.3044
    1W        W29617   8.519  20.906   0.949  0.1888 -0.0346  0.0175
    1W        W29618   2.035  22.677   0.487  0.0404 -0.0602 -0.1034
    1W        W29619  21.605  27.202   0.085 -0.1224 -0.2393 -0.0513
    1W        W29620   5.633  11.632   7.895 -0.2948 -0.2329  0.0723
    1W        W29621   6.501   1.983   9.292  0.1690 -0.0159 -0.1307
    1W        W29622   4.086  11.842   9.928  0.0505  0.1581 -0.0811
    1W        W29623   3.964  17.433   1.921 -0.0353 -0.1529  0.2003
    1W        W29624  26.151   7.003   8.997  0.1660 -0.0039  0.2269
    1W        W29625   4.305   9.360   2.082  0.1113  0.0789 -0.0247
    1W        W29626  15.542  21.922   0.015  0.2543  0.0968  0.2548
    1W        W29627  10.121  15.860   1.068  0.0789 -0.0397  0.1239
    1W        W29628  27.169  16.986   1.184 -0.0429 -0.1979 -0.2399
    1W        W29629   7.921  12.238   1.783  0.1006 -0.1813 -0.1560
    1W        W29630  14.045  18.720   1.481  0.3596  0.1918  0.1176
    1W        W29631  11.455  26.866   9.333 -0.1186  0.0147 -0.1712
    1W        W29632   4.127  21.423   0.565  0.3378 -0.0353 -0.2441
    1W        W29633  17.725   1.608   9.447 -0.0738  0.0908 -0.3616
    1W        W29634  15.585  21.583   9.485  0.0826 -0.0842  0.1514
    1W        W29635  28.364  21.559   0.503 -0.0136  0.3611  0.1633
    1W        W29636   0.168   4.436   1.563  0.0044 -0.1270 -0.1630
    1W        W29637  16.631   8.092   1.876  0.0886  0.3179 -0.0207
    1W        W29638  12.722   1.623   7.779 -0.0362  0.0988 -0.0715
    1W        W29639  12.507   3.048   2.662 -0.0960  0.6985 -0.0070
    1W        W29640   2.437   5.581   0.615  0.0610  0.1163  0.0859
    1W        W29641  23.375  17.249   1.127 -0.3730  0.0181 -0.0511
    1W        W29642   8.981  10.287   7.563 -0.5169  0.3084 -0.1049
    1W        W29643  16.062  27.140   7.634  0.1742 -0.1420  0.3579
    1W        W29644  13.138   1.669   8.280  0.3157 -0.0018  0.1467
    1W        W29645  25.837  13.930   9.583  0.0545 -0.1608 -0.4028
    1W        W29646   3.287  16.218   6.022 -0.0931  0.0592  0.4381
    1W        W29647  17.975  10.807   8.777  0.1352  0.3880  0.0795
    1W        W29648  19.950   9.761   9.819  0.3451 -0.3384  0.1856
    1W        W29649   3.987   1.482   0.127 -0.3520 -0.3127  0.1856
    1W        W29650  13.145  22.968   0.766 -0.2275 -0.0666 -0.3183
    1W        W29651  21.315   6.192   9.948 -0.2054  0.0789 -0.1380
    1W        W29652  15.289  21.000   8.817  0.4155  0.1661 -0.1636
    1W        W29653   3.159  16.187   1.682 -0.2431 -0.0417  0.0975
    1W        W29654  19.405  18.293   9.362  0.0827  0.2121 -0.2893
    1W        W29655   8.650  20.658   9.685  0.0044 -0.2209  0.1705
    1W        W29656   8.395   5.155   1.532  0.3205  0.3179  0.2040
    1W        W29657   1.052   3.240   8.233 -0.0610  0.1432  0.0092
    1W        W29658   2.782  28.260   9.771 -0.4201 -0.0894 -0.2535
    1W        W29659  16.240   6.971   8.045 -0.1451  0.1274 -0.1312
    1W        W29660   3.363  15.724   2.895 -0.0768  0.0853 -0.0310
    1W        W29661   1.629  28.656   7.480  0.0791 -0.1326 -0.3903
    1W        W29662   3.631  23.613   1.332 -0.3350  0.2617  0.3102
    1W        W29663  24.479  22.532   0.002  0.0294 -0.0030  0.1454
    1W        W29664  23.225   5.457   0.236  0.0057  0.2801 -0.1024
    1W        W29665  13.420  23.113   9.675 -0.0493 -0.2123  0.0221
    1W        W29666  23.059  12.806   9.936 -0.0455  0.3860  0.0866
    1W        W29667  14.726   8.525   2.003  0.2085  0.3617 -0.0006
    1W        W29668  16.405  27.426   1.353 -0.0406  0.1170 -0.2040
    1W        W29669  27.678  13.972   9.159  0.0977 -0.0673  0.1659
    1W        W29670   9.955  10.917   0.217  0.3315  0.0937 -0.0101
    1W        W29671  23.647   1.286   0.791 -0.0100  0.3668 -0.1212
    1W        W29672  15.527   5.248   1.406  0.0326 -0.2794  0.0319
    1W        W29673   2.724  18.933   1.741  0.0902  0.3194 -0.0017
    1W        W29674   2.266   8.796   0.917 -0.1674 -0.0273  0.2433
    1W        W29675  20.804   4.624   0.711  0.1236  0.1346  0.0578
    1W        W29676  27.675   7.986   7.910 -0.1341 -0.0836 -0.0003
    1W        W29677  18.190   9.938   1.429  0.2673  0.0495 -0.0959
    1W        W29678   2.460  16.587   0.405  0.1245 -0.0703  0.0900
    1W        W29679  19.506   2.095   8.588 -0.0601  0.0211  0.1205
    1W        W29680  20.937  20.741   7.134 -0.0982  0.1355  0.2350
    1W        W29681   5.130  16.170   2.115 -0.1539  0.1340  0.0421
    1W        W29682  12.625  21.434   1.219 -0.0581  0.0165 -0.0446
    1W        W29683  26.021   5.400   8.143  0.0438  0.1166  0.1720
    1W        W29684  21.779   3.954   8.075  0.3599  0.0608  0.1917
    1W        W29685   9.274  21.162   7.551 -0.1792 -0.1091  0.2066
    1W        W29686  11.017  24.610   5.790  0.1906 -0.0858 -0.0183
    1W        W29687   1.083   9.361   0.750 -0.2818 -0.0441  0.0459
    1W        W29688   2.170   5.570   1.458  0.1409  0.0159 -0.0849
    1W        W29689  13.262  27.237   0.698 -0.2359 -0.2810 -0.0937
    1W        W29690  27.588  21.208   8.911  0.0160 -0.2370  0.4840
    1W        W29691  26.719   3.271   7.421  0.1187  0.0353  0.2570
    1W        W29692   4.677   0.967   7.491  0.1225 -0.0352 -0.0587
    1W        W29693  20.228  21.450   8.076 -0.2007 -0.0067  0.0941
    1W        W29694   6.911  27.045   2.534 -0.1564 -0.0487  0.1543
    1W        W29695   6.450  13.079   8.086 -0.1225 -0.0892 -0.1516
    1W        W29696  14.747   4.885   2.960  0.2085  0.0250  0.0665
    1W        W29697  26.082  20.308   2.663  0.2483  0.2736 -0.1613
    1W        W29698   2.368   9.648   9.373 -0.1750 -0.0836 -0.0510
    1W        W29699  23.162  28.398   6.513 -0.1436 -0.1583  0.0771
    1W        W29700  26.720  13.392   0.282  0.3634  0.2044  0.2583
    1W        W29701  11.046   3.047   8.079  0.0877 -0.3774  0.0836
    1W        W29702   6.449  25.347   7.696 -0.1909 -0.2607 -0.1685
    1W        W29703   9.962  18.354   1.017  0.0486  0.2766  0.1638
    1W        W29704  14.948   9.152   0.729 -0.2103  0.1386  0.1092
    1W        W29705   5.570  14.701   8.480  0.1180  0.1129 -0.0260
    1W        W29706  13.161   3.304   4.118  0.1061 -0.0955  0.0480
    1W        W29707  19.612  23.020   7.774  0.1363 -0.1077 -0.1722
    1W        W29708  13.803   5.298   8.042  0.1529  0.1796 -0.2352
    1W        W29709  20.951  26.152   3.685  0.0618 -0.0232  0.1386
    1W        W29710  10.808  27.415   1.510  0.0983  0.1165 -0.1164
    1W        W29711  19.291  26.888   0.693  0.2381  0.0420  0.0424
    1W        W29712  19.517   2.992   8.051 -0.0667 -0.0551 -0.1808
    1W        W29713  16.759  11.512   2.837 -0.2620  0.2023 -0.1208
    1W        W29714  21.559   1.734   6.507 -0.0051  0.1786  0.1108
    1W        W29715  27.239   8.329   0.180  0.1257  0.2128 -0.0593
    1W        W29716  26.741  10.356   6.763  0.0942  0.0257 -0.1004
    1W        W29717   5.994   8.307   1.335  0.1284 -0.1409 -0.1308
    1W        W29718   8.419  15.166   1.891  0.2238 -0.0326 -0.1234
    1W        W29719   3.735  21.072   9.784  0.1015 -0.0086 -0.2347
    1W        W29720   8.432  20.740   0.457 -0.1070 -0.2490 -0.2337
    1W        W29721  20.788  15.933   1.900 -0.0483  0.0097  0.0161
    1W        W29722   6.424   4.856   3.590 -0.2901 -0.0715  0.0681
    1W        W29723   6.248  22.488   0.834 -0.0332 -0.0958  0.1132
    1W        W29724   2.689  19.763   8.852  0.0706 -0.0481  0.0312
    1W        W29725  25.233  20.180   7.376  0.2816 -0.2638  0.3556
    1W        W29726  11.977  23.465   0.826 -0.2414  0.1243 -0.1207
    1W        W29727  13.611  18.103   7.957  0.1796 -0.1158 -0.0615
    1W        W29728  25.326  26.838   2.856  0.2894  0.1374  0.1963
    1W        W29729   7.039   2.753   2.679  0.3974  0.0599 -0.0318
    1W        W29730  14.137   4.185   2.512  0.0863 -0.1576 -0.1174
    1W        W29731  26.956   6.056   7.396  0.2205 -0.0104  0.0421
    1W        W29732  13.921  22.063   1.699  0.0477 -0.2788  0.3667
    1W        W29733   8.800   5.653   0.784  0.0576 -0.3460 -0.2524
    1W        W29734  21.492   7.792   2.503 -0.0404  0.2013  0.2529
    1W        W29735  24.535  22.134   2.072 -0.1943 -0.1247 -0.1393
    1W        W29736   8.055  24.122   0.376 -0.0600  0.5485 -0.2100
    1W        W29737  13.040   1.265   7.971  0.1425 -0.2583 -0.0192
    1W        W29738   3.010  18.957   6.388 -0.2355 -0.1088 -0.0156
    1W        W29739   6.146  22.552   1.706 -0.0925 -0.0184  0.0601
    1W        W29740  17.723   8.160   0.635 -0.1252  0.1748  0.1304
    1W        W29741  14.115  28.268   0.848 -0.1412  0.1734 -0.2620
    1W        W29742  16.892   6.629   8.488 -0.0224 -0.0248  0.1132
    1W        W29743   3.672  22.292   8.558 -0.2391  0.1190 -0.1172
    1W        W29744   9.224  25.438   1.210 -0.1500  0.3078 -0.0378
    1W        W29745   3.408   3.797   0.811 -0.0725  0.0068  0.1491
    1W        W29746   8.458   3.836   2.540 -0.0551 -0.0316  0.1052
    1W        W29747  15.317  16.547   2.675  0.0626 -0.1579 -0.1169
    1W        W29748   5.552  23.964   1.645  0.2509  0.0888 -0.2045
    1W        W29749  15.424   4.871   7.871  0.0057 -0.2856 -0.0769
    1W        W29750   4.347   0.757   0.584  0.2591  0.0021 -0.0198
    1W        W29751  17.467   7.733   1.473  0.0418 -0.0067 -0.0823
    1W        W29752  18.557   7.963   8.721  0.0722 -0.1593  0.1487
    1W        W29753   7.282   1.949   8.835 -0.0151 -0.1813  0.2081
    1W        W29754  10.975  26.136   0.493 -0.0714  0.1271 -0.1563
    1W        W29755  25.119   2.558   2.437  0.0338  0.5630  0.2764
    1W        W29756   0.407  14.526   1.550 -0.1446  0.0994  0.0123
    1W        W29757  11.182   2.118   3.762 -0.1640 -0.1184 -0.1379
    1W        W29758   1.688  15.781   8.061 -0.1593  0.2418  0.1429
    1W        W29759   8.278   7.158   9.207  0.1555  0.1782  0.2292
    1W        W29760   7.925  23.494   0.339  0.0767  0.1171  0.0259
    1W        W29761   9.035  27.708   1.172  0.1069 -0.0689  0.1905
    1W        W29762   8.245  12.780   1.113 -0.0862 -0.1327  0.1223
    1W        W29763  20.267  17.988   2.647 -0.1134  0.1361  0.0277
    1W        W29764   1.597  14.090   9.000  0.0034  0.1431 -0.0609
    1W        W29765  11.579  24.907   7.623 -0.0983 -0.2957 -0.0170
    1W        W29766  12.203  11.288   8.762 -0.2325  0.0253  0.2139
    1W        W29767  22.611  18.564   8.098 -0.0680 -0.1530 -0.1168
    1W        W29768  19.203  10.191   2.142 -0.1248  0.1779  0.2433
    1W        W29769   0.495  16.949   8.423 -0.1040  0.1088 -0.3651
    1W        W29770   1.152  22.402   0.700  0.0885 -0.3341  0.0310
    1W        W29771  24.596  23.070   9.398 -0.0591 -0.1549 -0.1806
    1W        W29772   2.278  19.018   2.763  0.0381  0.0506  0.0845
    1W        W29773  17.776  25.491   6.918  0.0873 -0.0827  0.1724
    1W        W29774  24.791  20.181   0.616 -0.0140 -0.1600 -0.1515
    1W        W29775  20.262  25.959   7.582 -0.2415 -0.2400  0.3646
    1W        W29776   5.493   8.202   2.047 -0.5138 -0.1883 -0.4366
    1W        W29777   3.019  26.956   6.626 -0.0736 -0.1306  0.0892
    1W        W29778  16.646  17.440   7.869 -0.0372  0.3153  0.0431
    1W        W29779  20.218  14.672   0.314 -0.0329 -0.0517 -0.3542
    1W        W29780   0.586   2.003   2.486 -0.3052  0.1077 -0.0905
    1W        W29781  13.298  11.918   2.012 -0.1186 -0.0807 -0.0252
    1W        W29782  18.475  15.784   1.006 -0.0263 -0.1117  0.2011
    1W        W29783  23.033  25.169   7.049  0.0333 -0.1914  0.0729
    1W        W29784  17.148  26.937   3.437 -0.0506 -0.0693 -0.1147
    1W        W29785  20.632   3.822   1.558  0.1628  0.2003  0.1276
    1W        W29786   2.219  20.523   7.253  0.3742  0.3920 -0.2208
    1W        W29787  13.483  11.907   0.704 -0.1936  0.1484  0.2186
    1W        W29788   3.768   1.534   2.583 -0.0011  0.2874 -0.0780
    1W        W29789  15.714  22.212   1.847  0.1974  0.1382  0.1470
    1W        W29790   8.552   3.422   9.393  0.0888 -0.1111  0.0878
    1W        W29791  28.129  15.714   1.118  0.0263 -0.0383  0.0730
    1W        W29792   0.233  14.770   2.095  0.0428 -0.0218  0.2713
    1W        W29793  26.459  12.009   9.380 -0.0855 -0.0323 -0.2172
    1W        W29794  11.285   5.799   0.092 -0.0048  0.0018 -0.0494
    1W        W29795  13.474   2.350   0.112  0.0871  0.0471  0.2610
    1W        W29796  27.507  26.246   0.606  0.1246 -0.2368 -0.0925
    1W        W29797   5.612  16.216   1.349 -0.1110 -0.2475 -0.0494
    1W        W29798   8.790  23.962   7.468 -0.1192  0.2294 -0.1668
    1W        W29799  21.618   4.055   9.474  0.6221 -0.2743  0.0294
    1W        W29800  26.844  24.281   0.629  0.1355 -0.1795 -0.2377
    1W        W29801  17.629   5.419   6.806 -0.0384  0.2016 -0.3609
    1W        W29802  24.182  21.680   2.730  0.0228  0.2257 -0.1369
    1W        W29803  22.931  13.257   2.855 -0.1673 -0.1398  0.0023
    1W        W29804  24.473  26.278   1.578  0.1901 -0.2381 -0.1475
    1W        W29805   7.566  10.087   7.094 -0.0806  0.0395 -0.2046
    1W        W29806  13.684   4.352   1.800 -0.0065 -0.1236  0.4632
    1W        W29807   4.600  26.575   8.916 -0.1711  0.1491 -0.0863
    1W        W29808  27.418  17.542   7.628 -0.1389  0.0017 -0.3229
    1W        W29809  10.789  22.918   9.231  0.0049 -0.1824  0.1037
    1W        W29810  17.548   7.889   8.531 -0.1486 -0.1045 -0.0484
    1W        W29811  11.608  14.040   9.311 -0.1021 -0.2229  0.2341
    1W        W29812  20.152   9.780   1.299  0.1025  0.0914  0.3159
    1W        W29813   6.201  16.225   7.349  0.1189  0.2155 -0.0672
    1W        W29814   6.926   4.004   2.902 -0.0686  0.0679  0.3985
    1W        W29815  20.459  21.015   0.820  0.2710 -0.1136  0.2263
    1W        W29816  13.789  23.040   0.067 -0.1680  0.4124 -0.0362
    1W        W29817  10.603   0.419   3.056 -0.2039  0.1724 -0.1843
    1W        W29818   1.424  13.697   9.298  0.3001  0.0532  0.0529
    1W        W29819  24.373  26.956   8.560 -0.2401  0.6042 -0.1615
    1W        W29820   4.521  25.568   6.928 -0.1795  0.3179 -0.0290
    1W        W29821   4.060  21.462   7.257 -0.1864 -0.1761  0.3811
    1W        W29822  28.116   4.953   1.832  0.0165 -0.0612  0.0659
    1W        W29823   1.429   2.510   9.434 -0.1761  0.0287  0.2375
    1W        W29824   6.768  22.842   7.319  0.0478 -0.0397 -0.3353
    1W        W29825  15.811  17.639   2.738  0.1509  0.0762  0.1249
    1W        W29826  23.793  27.419   9.950  0.0665 -0.2203 -0.1425
    1W        W29827   8.879   2.300   2.827  0.1480  0.2154  0.1882
    1W        W29828   2.216  23.659   5.751 -0.0616 -0.1044  0.2682
    1W        W29829   1.053   0.229   9.947  0.2995 -0.1247 -0.0011
    1W        W29830  11.613  15.200   8.207 -0.2453  0.1350  0.0157
    1W        W29831  23.390   7.384   8.578  0.0571 -0.0837  0.0008
    1W        W29832  21.520  17.584   2.245 -0.1448 -0.1972  0.2209
    1W        W29833  17.712  18.451   0.046  0.0197 -0.0743  0.1765
    1W        W29834   2.754   7.248   7.062  0.0576  0.1554 -0.0390
    1W        W29835   4.031  22.878   1.520 -0.1710  0.0239  0.4039
    1W        W29836  24.543   9.410   8.045 -0.1488  0.2974 -0.1548
    1W        W29837  27.952  10.572   9.291  0.1826  0.0114  0.2247
    1W        W29838  10.150  25.208   2.289 -0.0020  0.0008  0.2069
    1W        W29839  11.690  16.953   8.078 -0.1343  0.1014  0.0072
    1W        W29840  18.425   0.855   1.390  0.0165 -0.0125 -0.0247
    1W        W29841  24.341  26.288   9.656 -0.0976  0.0674  0.0126
    1W        W29842  24.708   9.986   1.065 -0.3685 -0.0917 -0.0900
    1W        W29843  17.799  17.964   9.952  0.0667 -0.5480  0.0663
    1W        W29844  21.055   6.928   0.128 -0.3408  0.3298  0.0383
    1W        W29845  14.791  19.816   0.569 -0.2734 -0.0615  0.1016
    1W        W29846   4.597  27.414   7.643  0.2667 -0.0263 -0.1198
    1W        W29847   4.692  18.518   9.517 -0.2569 -0.0459  0.0448
    1W        W29848  22.837  14.358   9.165 -0.0133 -0.0737 -0.3369
    1W        W29849  25.434  23.293   2.155 -0.0575 -0.2223 -0.0428
    1W        W29850  26.374   9.497   0.275 -0.1561 -0.0919 -0.1791
    1W        W29851   4.046  25.736   7.118  0.2612  0.2004  0.0673
    1W        W29852   1.815  12.860   2.719 -0.0549  0.0568  0.3416
    1W        W29853  20.135  27.320   9.178 -0.0189 -0.0491  0.0310
    1W        W29854   5.021  24.338   8.202 -0.0663  0.1144 -0.0158
    1W        W29855  14.640   9.916   2.119  0.2288 -0.1620  0.1257
    1W        W29856  18.046  11.501   9.824 -0.0963 -0.1387 -0.0444
    1W        W29857  25.459  11.743   9.913  0.1048 -0.0224 -0.1024
    1W        W29858   2.622  16.326   9.859 -0.0721  0.0870 -0.1595
    1W        W29859   0.374  16.808   1.398  0.0698  0.0882  0.0444
    1W        W29860  26.682  13.197   2.042  0.0755  0.0425 -0.0336
    1W        W29861  17.491   1.343   3.438  0.1109 -0.5199 -0.0543
    1W        W29862   7.724   8.975   2.779 -0.1100  0.0869  0.2985
    1W        W29863  26.079  16.562   6.649 -0.1674  0.1234 -0.2507
    1W        W29864  25.785  10.925   8.195 -0.3375 -0.1622  0.2512
    1W        W29865  18.995  26.263   0.516 -0.0139  0.1763 -0.1827
    1W        W29866   0.866   3.076   0.963 -0.2101 -0.0846 -0.1197
    1W        W29867  23.450  18.559   7.907 -0.0326  0.0720 -0.2620
    1W        W29868  12.907   6.914   3.061 -0.1683 -0.2521 -0.3223
    1W        W29869   8.088   9.893   2.787  0.2901 -0.0757 -0.0309
    1W        W29870  10.815  24.411   7.593  0.0388  0.1521  0.0610
    1W        W29871  12.636  17.308   9.529  0.1660 -0.3187 -0.0717
    1W        W29872   8.599  20.056   7.795  0.2720  0.0615 -0.0249
    1W        W29873  17.780  16.740   8.164 -0.2566  0.0937 -0.2822
    1W        W29874   3.220   4.161   2.019  0.0191  0.0519 -0.1305
    1W        W29875  12.473  23.331   9.590  0.1522 -0.0402  0.1281
    1W        W29876   4.022  13.091   6.828  0.1618  0.0421 -0.0332
    1W        W29877   5.151  22.211   6.111 -0.0852  0.1175 -0.2087
    1W        W29878  17.544  19.338   0.820 -0.4782  0.1259  0.1543
    1W        W29879  19.668  22.470   3.893 -0.1126  0.2172 -0.4553
    1W        W29880   6.328  10.570   9.012  0.1741  0.1376 -0.0809
    1W        W29881  21.526   5.751   0.651  0.0903  0.0808  0.1443
    1W        W29882   5.323  14.404   1.914 -0.0580  0.2166  0.2108
    1W        W29883   9.949  16.061   0.246  0.3699 -0.0602 -0.0325
    1W        W29884   5.233   4.263   7.537  0.0412 -0.0118 -0.4023
    1W        W29885  15.567  13.530   1.250 -0.0087 -0.1529  0.0324
    1W        W29886   9.425   4.367   1.964 -0.2247  0.2549 -0.1966
    1W        W29887  14.643  23.368   0.785 -0.1890 -0.0728  0.1092
    1W        W29888  24.953  11.268   8.510 -0.1176  0.3436  0.0636
    1W        W29889  27.253  26.941   8.815 -0.1055  0.0096  0.1005
    1W        W29890   7.915  16.448   8.416 -0.2964 -0.1320  0.2136
    1W        W29891   6.114   0.585   9.074 -0.0664  0.0949 -0.0448
    1W        W29892   7.784  26.279   9.479 -0.1199  0.0271 -0.0115
    1W        W29893  18.090   4.383   1.840  0.2568  0.0572 -0.1987
    1W        W29894   4.349  21.926   9.056 -0.0104 -0.0255  0.0129
    1W        W29895  27.492  15.978   7.362 -0.1965 -0.3746 -0.2807
    1W        W29896  10.941   3.136   7.163  0.0378  0.1136  0.4018
    1W        W29897  26.799   0.310   0.168  0.1398 -0.1184  0.2476
    1W        W29898   1.481  16.242   0.564 -0.0273 -0.0738  0.0420
    1W        W29899  18.023  12.067   1.847  0.0499  0.0126 -0.1256
    1W        W29900   6.670  16.370   7.521 -0.0744  0.0042 -0.2813
    1W        W29901  19.902   3.169   1.946 -0.1091  0.2091  0.1522
    1W        W29902  25.135  24.703   9.680 -0.0057  0.0538 -0.0786
    1W        W29903  11.290   0.852   1.156 -0.3658  0.1637 -0.1077
    1W        W29904  22.608   5.321   6.424 -0.0150 -0.3728  0.0715
    1W        W29905   6.822   6.989   8.560  0.0093 -0.2909  0.1596
    1W        W29906   0.398   5.315   8.397 -0.1667  0.2438  0.0228
    1W        W29907  26.033  23.993   0.633  0.0366  0.4054  0.1696
    1W        W29908  12.014  14.161   2.159 -0.0736 -0.2243 -0.0143
    1W        W29909   5.375  25.480   8.710 -0.1366  0.2052 -0.0412
    1W        W29910  16.440  28.068   7.834  0.3085  0.1125 -0.0798
    1W        W29911  17.413   6.512   1.075  0.2757 -0.2297  0.0408
    1W        W29912   6.644  28.314   8.195 -0.0148 -0.0075 -0.0187
    1W        W29913   4.433   3.874   7.744 -0.1447  0.0169  0.0416
    1W        W29914  25.088  15.779   8.501  0.0686 -0.0853 -0.0770
    1W        W29915  22.986  18.846   0.693  0.2407 -0.1077 -0.1266
    1W        W29916   5.821   7.244   7.982  0.0444  0.1071 -0.1985
    1W        W29917  28.029  17.536   6.884 -0.1401 -0.2421 -0.0150
    1W        W29918   1.920  23.137   1.974  0.3024  0.0244  0.1312
    1W        W29919   5.701   2.624   3.015  0.2637  0.0286  0.0907
    1W        W29920  12.767  16.051   1.913  0.2063  0.5494  0.1138
    1W        W29921  19.575  25.308   2.743 -0.2970  0.2805  0.0501
    1W        W29922  13.014  24.892   7.645 -0.0657 -0.2118 -0.0312
    1W        W29923  21.223  18.983   2.817  0.1256  0.1445 -0.2592
    1W        W29924   9.589   2.055   9.212  0.1330 -0.0841  0.1622
    1W        W29925   1.350  23.404   6.920  0.0843 -0.1536  0.0851
    1W        W29926  10.194  28.180   8.100 -0.0071  0.0307 -0.1919
    1W        W29927  10.942  25.437   0.050  0.0325 -0.1100  0.1789
    1W        W29928  23.001  20.728   0.028 -0.2067 -0.0542  0.0728
    1W        W29929  25.601  15.468   0.594 -0.0984 -0.0587 -0.0005
    1W        W29930  14.794   1.866   8.233 -0.1494  0.0564  0.0093
    1W        W29931   6.879   8.649   0.263  0.3833 -0.1705 -0.2098
    1W        W29932   4.400   3.256   8.461 -0.0658 -0.1474 -0.2116
    1W        W29933   0.925   5.363   8.404 -0.0188  0.1063 -0.0738
    1W        W29934  10.133  22.705   7.131  0.0367  0.0090 -0.0442
    1W        W29935  19.220  22.632   3.916 -0.2885  0.0469  0.1806
    1W        W29936   3.043  20.831   0.328 -0.4601  0.0123 -0.3025
    1W        W29937   6.094  24.129   1.584  0.2107  0.0795  0.0852
    1W        W29938  21.757   0.120   7.061  0.1280 -0.0485  0.0912
    1W        W29939   7.911  18.774   8.205 -0.1620 -0.0854 -0.3675
    1W        W29940  14.578  23.429   7.849  0.1014  0.4587  0.0961
    1W        W29941   7.620  22.133   8.075  0.0005 -0.1811  0.1811
    1W        W29942   7.512   4.140   8.865  0.1246  0.2021 -0.0041
    1W        W29943  26.339  22.784   9.439 -0.0391 -0.0468 -0.1480
    1W        W29944  28.389  17.113   8.791  0.0400 -0.2596  0.4065
    1W        W29945   0.895   5.708   2.071  0.2638  0.2407  0.0242
    1W        W29946   5.258   4.039   9.173 -0.0486 -0.1280 -0.2852
    1W        W29947   4.018  16.597   1.603  0.2158 -0.3835  0.0973
    1W        W29948   9.271   0.704   9.359  0.0211 -0.1510 -0.1413
    1W        W29949   0.677   3.598   6.576  0.2133  0.2625 -0.1252
    1W        W29950  27.829  12.595   0.722 -0.1310 -0.1624 -0.0694
    1W        W29951  10.510   1.774   9.459 -0.1377  0.1761  0.1789
    1W        W29952   8.845   5.392   1.386  0.0568  0.0275  0.2854
    1W        W29953  21.037   3.080   9.128 -0.3493 -0.2895 -0.1107
    1W        W29954  24.539  11.507   4.782  0.0174 -0.1913 -0.2299
    1W        W29955  27.252  16.526   6.073  0.2083  0.2481 -0.1491
    1W        W29956   9.248   0.740   3.477 -0.1079  0.1251  0.1632
    1W        W29957  10.502  21.513   9.916  0.3153 -0.1671 -0.0864
    1W        W29958   1.106   2.201   8.308 -0.0401  0.0892  0.0585
    1W        W29959  25.399   4.991   6.142  0.0622  0.0309  0.3646
    1W        W29960   0.300   7.610   0.007 -0.0739 -0.1579  0.2007
    1W        W29961  18.998  17.550   8.696 -0.3071 -0.0452  0.0899
    1W        W29962  22.854   7.063   7.007  0.0895  0.2070  0.1305
    1W        W29963  28.705  12.994   0.302  0.0744 -0.1524 -0.1444
    1W        W29964  18.054  21.365   0.382 -0.1365 -0.1613 -0.2733
    1W        W29965  22.389  10.888   1.319 -0.2266  0.0344 -0.1260
    1W        W29966   7.963   2.728   9.707 -0.1005  0.3263  0.0193
    1W        W29967  20.953   6.155   3.964  0.6288 -0.1021 -0.0453
    1W        W29968  21.019  20.412   3.435  0.0454  0.2727  0.0185
    1W        W29969  22.194  23.681   3.168 -0.0742 -0.1418  0.0036
    1W        W29970  11.171  10.514   1.827 -0.0423  0.2333 -0.3124
    1W        W29971  15.645   5.163   1.932 -0.0785 -0.1564 -0.1523
    1W        W29972  19.194   9.624   8.322  0.1306  0.0820  0.1837
    1W        W29973   0.873  10.121   7.545 -0.1827  0.0291  0.1691
    1W        W29974   5.052  19.981   6.775 -0.4241  0.2741 -0.0063
    1W        W29975   2.784  14.938   2.216 -0.1383  0.0284  0.4209
    1W        W29976  16.750  16.703   9.889 -0.1310  0.0463 -0.1045
    1W        W29977   8.683  23.466   9.863  0.0844  0.1082 -0.1991
    1W        W29978  11.727  11.751   9.294  0.2822 -0.0124 -0.0965
    1W        W29979   6.195  25.070   8.054 -0.1248 -0.1664 -0.3839
    1W        W29980  17.183   4.466   8.565 -0.0960 -0.1490  0.0844
    1W        W29981   0.262   4.441   2.543  0.0114  0.2088 -0.2736
    1W        W29982  21.387   9.165   8.780 -0.0043  0.0955 -0.3185
    1W        W29983   6.780  21.116   2.157  0.3039 -0.3432 -0.0388
    1W        W29984   3.072  25.235   6.027  0.0027 -0.1051 -0.0456
    1W        W29985   0.784   1.885   7.292  0.1635  0.0998 -0.1796
    1W        W29986  18.841  12.156   2.457  0.2639 -0.1631  0.0206
    1W        W29987  13.948   6.235   8.594  0.0840 -0.1764 -0.2257
    1W        W29988  23.640  24.355   8.984  0.4837 -0.0616  0.1749
    1W        W29989   1.914  17.207   2.011 -0.0328 -0.0006  0.0435
    1W        W29990  11.061  15.199   2.464  0.1027 -0.2016  0.1017
    1W        W29991  12.712  20.345   9.066  0.1014  0.0014  0.0734
    1W        W29992   3.513   4.572   0.634 -0.2758 -0.0106 -0.1351
    1W        W29993  15.644   8.641   3.043  0.0240 -0.0690 -0.1266
    1W        W29994   0.883  28.480   1.094  0.0444 -0.0429 -0.2410
    1W        W29995  28.499  25.691   2.658 -0.0827  0.2923  0.2782
    1W        W29996  14.225  19.388   9.405 -0.0973  0.0800 -0.0064
    1W        W29997  25.298  12.765   2.577  0.0558  0.0509  0.0150
    1W        W29998  24.530  11.182   1.925 -0.0870 -0.1022 -0.1422
    1W        W29999  18.430  20.236   2.236 -0.0207 -0.0563  0.0279
    1W        W30000  23.265  12.916   1.984 -0.1397  0.2849  0.1442
    1W        W30001   0.340  20.288   2.881 -0.0707 -0.0591  0.0253
    1W        W30002  22.934   9.843   8.588 -0.1615  0.0586 -0.0805
    1W        W30003   0.742   6.158   1.155 -0.2102  0.0004 -0.3627
    1W        W30004  19.967   1.841   7.169 -0.0691  0.0146 -0.1115
    1W        W30005  16.920   7.937   3.358  0.3265 -0.3478 -0.0746
    1W        W30006  22.763  17.159   6.968  0.0038  0.2971  0.0450
    1W        W30007  11.013   6.217   8.095  0.2557 -0.0323 -0.1561
    1W        W30008  12.248  10.014   9.453 -0.1211  0.1954  0.0106
    1W        W30009  19.220   9.270   9.844 -0.1795  0.0116 -0.0119
    1W        W30010  11.021  13.025   0.070 -0.0997 -0.0088  0.0584
    1W        W30011   4.750  17.657   9.264  0.1241 -0.1195  0.0617
    1W        W30012   4.254   2.347   7.749 -0.0923  0.0342  0.1705
    1W        W30013  14.722  12.131   9.079  0.1565 -0.0109 -0.1263
    1W        W30014  27.569  26.985   3.942  0.2778  0.0574 -0.5051
    1W        W30015  26.204   9.524   8.885 -0.1675  0.1368 -0.1078
    1W        W30016  25.602  23.926   9.377 -0.0365  0.2475 -0.2901
    1W        W30017  19.242  12.347   8.160 -0.5427  0.1853 -0.0980
    1W        W30018  16.686   2.560   9.374 -0.0049  0.0556 -0.0091
    1W        W30019   9.339   9.183   2.721 -0.0460 -0.3394 -0.0316
    1W        W30020   6.653   1.115   7.628  0.2254  0.0068 -0.1165
    1W        W30021  16.194   9.558   7.315  0.1629  0.0747 -0.1186
    1W        W30022  14.532  20.067   0.163 -0.2354  0.1341  0.0990
    1W        W30023  18.641  27.589   8.445 -0.3191 -0.0415 -0.0422
    1W        W30024   3.121  27.855   2.109  0.1810  0.2516 -0.1321
    1W        W30025  23.010   6.187   7.253 -0.0792  0.0743 -0.0107
    1W        W30026  21.477  11.313   8.055 -0.3826 -0.0701  0.2136
    1W        W30027  18.700  25.986   1.420  0.1713 -0.1189 -0.1934
    1W        W30028   6.936  19.738   2.698 -0.1353  0.2456  0.2671
    1W        W30029   4.140  12.359   1.364  0.2337  0.0644 -0.1590
    1W        W30030   7.250  20.164   6.411  0.2883 -0.1328  0.2588
    1W        W30031   2.431  17.169   2.086 -0.0215 -0.2277 -0.2628
    1W        W30032  13.077  26.470   8.483 -0.3299  0.2981  0.0552
    1W        W30033  15.034  14.663   9.208 -0.0948  0.2097  0.0687
    1W        W30034  28.295   0.443   1.949 -0.0712  0.2041 -0.1686
    1W        W30035   3.421  25.151   8.911 -0.3479  0.3101  0.0751
    1W        W30036   0.749   8.515   7.423  0.1299  0.1215  0.0884
    1W        W30037   0.706  21.780   9.254  0.1140  0.1406  0.2457
    1W        W30038  26.453  11.106   1.295  0.3455 -0.0046  0.1262
    1W        W30039   6.769   7.229   0.485 -0.0207 -0.1326  0.0181
    1W        W30040   6.955   0.735   7.746 -0.1052  0.2752  0.2045
    1W        W30041   3.370   5.119   1.608 -0.0248  0.0940  0.3077
    1W        W30042   7.880   5.911   1.172  0.0549  0.1621  0.2231
    1W        W30043  20.445   6.274   8.448 -0.0063 -0.3052  0.1949
    1W        W30044  21.879   6.139   8.964 -0.1378 -0.3123  0.1225
    1W        W30045  12.408   1.151   9.394 -0.1424  0.0889  0.1570
    1W        W30046  20.060  21.914   2.594  0.0551  0.0519 -0.2983
    1W        W30047  20.268   7.137   8.114  0.0122 -0.0668 -0.1722
    1W        W30048  14.464  19.015   0.774  0.4304  0.0405  0.0229
    1W        W30049   5.975  17.612   0.399  0.1594 -0.1823  0.0473
    1W        W30050   0.126   0.575   1.929  0.2486  0.2454 -0.2293
    1W        W30051  11.294  17.423   7.926  0.0785  0.1437  0.1211
    1W        W30052  25.567   7.915   0.242 -0.1134  0.0070 -0.1487
    1W        W30053  22.335  24.175   3.222 -0.2277  0.1051  0.0730
    1W        W30054  21.721   6.726   2.794 -0.0250  0.0931 -0.1244
    1W        W30055   7.790  21.173   1.297 -0.0369  0.0451 -0.2934
    1W        W30056   6.234   6.938   7.919  0.0229 -0.0872  0.0846
    1W        W30057  16.541  14.171   8.074 -0.1396  0.0300  0.0877
    1W        W30058   0.036   5.662   6.446  0.0085  0.0689  0.0716
    1W        W30059   4.686  10.994   9.068  0.3375  0.4859 -0.1546
    1W        W30060   0.010  16.874   8.465 -0.2040  0.0191  0.0455
    1W        W30061  26.427  10.412   6.368 -0.0072  0.0545 -0.2445
    1W        W30062   4.791  16.594   0.641  0.0629 -0.1561 -0.2134
    1W        W30063   0.015  13.627   1.244  0.2059 -0.1623  0.0225
    1W        W30064   3.601  24.478   0.234  0.1496  0.1199 -0.0021
    1W        W30065  13.391   7.440   1.762 -0.1705  0.0655  0.1914
    1W        W30066   6.529  20.826   6.594 -0.2500 -0.2169 -0.3832
    1W        W30067  28.386  27.444   9.511  0.3627 -0.1611 -0.0489
    1W        W30068  14.443  18.994   0.291 -0.0294 -0.2002  0.0720
    1W        W30069  26.331  14.800   8.442 -0.5523  0.5023  0.0121
    1W        W30070  18.874  10.005   8.063 -0.1705  0.2453 -0.2165
    1W        W30071   9.385   3.740   9.199  0.4444 -0.1041 -0.0077
    1W        W30072   4.254   7.084   7.588  0.0264 -0.1251  0.0121
    1W        W30073   4.255  17.185   7.259  0.0569  0.5324 -0.1433
    1W        W30074   9.200   3.811   3.391  0.1570 -0.0313  0.2425
    1W        W30075  28.285   5.650   8.804 -0.2014  0.1152  0.1842
    1W        W30076   4.271  16.224   1.460 -0.2102  0.2908 -0.0095
    1W        W30077   6.640   3.440   7.518 -0.2041  0.0039  0.1534
    1W        W30078   2.132  16.437   9.453  0.0856 -0.2011 -0.4622
    1W        W30079  25.146   9.897   8.352  0.0764 -0.3699 -0.1495
    1W        W30080  25.637  13.146   9.440 -0.5167  0.0230 -0.2786
    1W        W30081  14.775  28.218   9.722 -0.2897 -0.1763 -0.0789
    1W        W30082  18.854  12.167   0.676  0.1215  0.0650 -0.0045
    1W        W30083  22.674  19.855   6.421 -0.0809 -0.0890 -0.2139
    1W        W30084  18.589  25.324   2.461 -0.3731 -0.0053  0.3559
    1W        W30085  12.186  25.385   2.923  0.0775 -0.1286  0.3523
    1W        W30086  27.440  16.870   9.669 -0.0922 -0.2013  0.1723
    1W        W30087  12.580  23.911   2.061  0.0168  0.0651 -0.3575
    1W        W30088  23.332  25.815   9.801 -0.0738 -0.0944  0.3675
    1W        W30089  18.949  27.298   0.478  0.0509 -0.2666  0.2687
    1W        W30090  26.538  28.227   8.081  0.0986 -0.0587 -0.1037
    1W        W30091   7.809   5.209   8.888  0.1173  0.0219 -0.2674
    1W        W30092  27.945   4.229   9.366  0.0342  0.0322 -0.0680
    1W        W30093   7.064  23.830   9.856  0.1248 -0.0528  0.4882
    1W        W30094   4.406  10.893   3.316  0.1170 -0.0660 -0.0664
    1W        W30095  18.624  10.135   9.631 -0.0086  0.1413  0.0434
    1W        W30096   5.595  23.237   8.575 -0.0284 -0.0948  0.2987
    1W        W30097   4.789   2.869   1.406 -0.1144 -0.1034 -0.3536
    1W        W30098   4.035  21.082   2.692 -0.1480  0.1058  0.0285
    1W        W30099  22.289  26.083   1.378  0.0586  0.1440  0.0030
    1W        W30100  24.453  28.722   0.817 -0.2934  0.1479 -0.1352
    1W        W30101  23.031   2.722   8.313 -0.0400 -0.2074 -0.0708
    1W        W30102  19.078  27.058   7.733 -0.0180 -0.1977  0.1290
    1W        W30103   4.726  11.134   7.627 -0.0757  0.1778  0.0899
    1W        W30104  22.583   0.250   7.585 -0.1202  0.2384  0.0586
    1W        W30105  16.604  24.337   2.002  0.0577  0.0607 -0.0773
    1W        W30106  15.672  28.193   9.294 -0.0797 -0.0160  0.0194
    1W        W30107  14.898  15.047   8.534 -0.0228 -0.2142  0.0893
    1W        W30108   4.412  20.693   2.590 -0.0377 -0.1827  0.2556
    1W        W30109  14.682  10.685   0.778 -0.2292  0.0382  0.0694
    1W        W30110  27.359   3.179   2.236 -0.0919  0.1993 -0.0579
    1W        W30111   9.050  21.621   9.371 -0.0336  0.1345 -0.0971
    1W        W30112  27.603  11.367   1.124 -0.3559  0.2343  0.2331
    1W        W30113  16.577  25.202   7.596  0.0311 -0.0229  0.1712
    1W        W30114   9.115   9.798   0.582  0.1428 -0.2505 -0.1569
    1W        W30115   6.672  15.447   1.610 -0.1347 -0.0516 -0.0386
    1W        W30116   7.748  11.726   1.563 -0.2490 -0.1453  0.4155
    1W        W30117  26.243   9.496   5.359  0.2177  0.0568  0.0166
    1W        W30118  14.364  14.054   1.464  0.1990  0.3778 -0.3671
    1W        W30119   1.412  26.529   8.590  0.2076  0.1368 -0.2746
    1W        W30120  14.989  19.875   0.077  0.3459 -0.2026  0.0825
    1W        W30121  23.897   4.600   1.876  0.0419  0.0669  0.1275
    1W        W30122   6.835  18.175   2.432  0.2703 -0.3140  0.0531
    1W        W30123  21.932  21.349   2.952 -0.0053  0.3370 -0.1354
    1W        W30124   6.818   7.881   1.488  0.0727  0.0342  0.0313
    1W        W30125  10.495  17.048   2.273  0.3156  0.2133 -0.0136
    1W        W30126  14.188  15.234   7.500 -0.1626  0.0052  0.0353
    1W        W30127  20.286   3.497   0.894  0.2939 -0.0569 -0.1588
    1W        W30128  22.280  23.951   0.792  0.2593  0.0573  0.0578
    1W        W30129   4.318   4.327   8.961 -0.0129  0.0422 -0.1198
    1W        W30130  20.928  25.584   8.092 -0.2427 -0.1562  0.0827
    1W        W30131   7.110  19.221   0.170 -0.1052  0.3879  0.0017
    1W        W30132   7.238  13.429   8.244  0.4852 -0.1096 -0.1408
    1W        W30133  22.102   8.636   2.048 -0.0956  0.2179  0.2516
    1W        W30134   1.833  16.167   6.922 -0.1235  0.0330  0.2600
    1W        W30135   4.156  24.194   6.348  0.0883  0.2998 -0.2697
    1W        W30136  27.306   0.789   6.940 -0.0447  0.0924 -0.0556
    1W        W30137   6.198  20.803   7.406 -0.2754  0.0610  0.1221
    1W        W30138  19.399   3.041   3.153  0.1970  0.0412  0.2708
    1W        W30139  23.886   3.132   7.050 -0.0133 -0.0354 -0.0308
    1W        W30140   4.852  13.176   0.606 -0.0843  0.1333  0.1728
    1W        W30141   6.422  13.465   2.393  0.1004  0.1901  0.2205
    1W        W30142   0.439  28.020   2.162  0.2420  0.1892  0.0516
    1W        W30143   8.529   8.371   2.349 -0.2102  0.0797 -0.0712
    1W        W30144  16.319   3.191   8.845 -0.1027  0.0015 -0.0725
    1W        W30145  17.099  26.751   2.459  0.2945 -0.2196  0.1662
    1W        W30146  10.974  11.902   8.585 -0.1512 -0.2318  0.3245
    1W        W30147  24.328   9.997   0.712 -0.1758  0.0375 -0.1350
    1W        W30148   8.258  14.303   0.227  0.0238 -0.3706 -0.0533
    1W        W30149   8.076  20.519   7.525 -0.1771 -0.2109  0.0944
    1W        W30150   3.743  10.722   0.902  0.0888  0.1179 -0.0543
    1W        W30151   6.785  11.000   7.276 -0.0485 -0.0221  0.4368
    1W        W30152   4.466  23.231   7.724 -0.2689 -0.3255 -0.1183
    1W        W30153  19.982  13.718   0.867  0.1337 -0.0321  0.0256
    1W        W30154   7.156   5.356   3.027  0.1260 -0.3042  0.1596
    1W        W30155  25.540   4.830   8.898 -0.0909 -0.1022 -0.0262
    1W        W30156  10.711   0.326   9.653 -0.1096  0.0513 -0.0936
    1W        W30157  22.297   1.003   2.950  0.1261 -0.0317 -0.0423
    1W        W30158  21.069   3.941   8.663 -0.0783  0.0068  0.0809
    1W        W30159  23.452  19.649   0.889  0.0896  0.3765 -0.0379
    1W        W30160   1.650  10.678   1.286  0.0030  0.1131  0.0498
    1W        W30161   2.481  21.389   0.366 -0.0522 -0.0525 -0.1397
    1W        W30162  25.032  24.935   7.436 -0.1299 -0.2077  0.1873
    1W        W30163  23.116   4.387   1.241 -0.1985  0.2398 -0.0046
    1W        W30164   4.650   0.309   9.637  0.3396 -0.1995  0.1331
    1W        W30165  12.372   9.511   7.837 -0.1214  0.1342  0.1035
    1W        W30166  26.400  19.216   0.482 -0.3779  0.0500  0.5167
    1W        W30167  18.280   2.862   2.424  0.1094 -0.1325  0.2811
    1W        W30168  10.429  12.454   9.013 -0.1030 -0.3184  0.0361
    1W        W30169  15.846  15.077   8.271  0.0782 -0.2234 -0.0401
    1W        W30170   1.392  14.567   1.432  0.2785  0.1974  0.0259
    1W        W30171   0.309   9.551   6.370 -0.1089  0.3933  0.2512
    1W        W30172  20.262   3.743   8.082 -0.0411 -0.3744 -0.1837
    1W        W30173  28.422  13.808   9.527 -0.0339 -0.0548 -0.1749
    1W        W30174   5.875  17.502   0.954  0.2009 -0.1644 -0.2508
    1W        W30175  18.928  16.304   8.707  0.2385  0.1349 -0.1485
    1W        W30176   8.921  19.444   7.357  0.2372  0.3044  0.1729
    1W        W30177  17.704   8.018   9.618  0.2803  0.3245  0.0511
    1W        W30178  27.911   4.420   9.939 -0.0492 -0.0826  0.0200
    1W        W30179  15.446  23.337   2.517  0.1838 -0.1538  0.1897
    1W        W30180   9.166   1.170   3.282  0.0951 -0.3257 -0.0743
    1W        W30181  13.106   1.946   7.864  0.3432  0.1120  0.0803
    1W        W30182  25.520  13.740   0.121 -0.3581 -0.0217  0.1532
    1W        W30183   9.773  25.294   9.850  0.0511 -0.0374  0.0867
    1W        W30184   5.839  21.507   9.189 -0.0903 -0.3242  0.2300
    1W        W30185   5.524   1.569   2.498 -0.0293 -0.1589 -0.0241
    1W        W30186   6.808   6.823   0.742  0.3538  0.0505  0.2266
    1W        W30187  18.841  16.685   7.429 -0.0082 -0.3475  0.0104
    1W        W30188  12.527  28.197   1.675  0.0791  0.2301 -0.2814
    1W        W30189   5.755  22.233   0.929 -0.1444  0.0940 -0.0203
    1W        W30190   9.927   9.655   7.846  0.1912 -0.0369 -0.1137
    1W        W30191   6.623  20.131   9.136  0.1053  0.5198 -0.1764
    1W        W30192   3.980   3.213   1.176  0.1285  0.3597  0.0757
    1W        W30193  20.410  25.922   8.968 -0.2257  0.0463  0.1980
    1W        W30194  22.623  25.125   8.073 -0.1567 -0.1407 -0.1986
    1W        W30195  26.328  27.159   9.076  0.0246 -0.0853 -0.0267
    1W        W30196   4.143   4.955   3.392 -0.0969 -0.0994 -0.1035
    1W        W30197  25.257   3.819   7.658 -0.2743 -0.2066 -0.0255
    1W        W30198  13.775   9.164   7.677  0.1154 -0.0199 -0.0730
    1W        W30199  12.469  19.913   2.527 -0.0597 -0.3786 -0.0042
    1W        W30200  25.808  22.925   9.260  0.2181  0.0088 -0.0344
    1W        W30201   9.526  20.600   1.540 -0.0524 -0.1172 -0.2797
    1W        W30202   7.081  24.661   7.950  0.1629  0.0023 -0.1299
    1W        W30203  13.666  22.749   7.526 -0.2215  0.0813 -0.0550
    1W        W30204   5.619  17.108   9.558 -0.0733  0.1744 -0.0445
    1W        W30205   2.557  18.417   1.501 -0.0551 -0.1145 -0.2118
    1W        W30206   3.851   7.905   2.072  0.0483  0.4135 -0.0328
    1W        W30207  27.162  27.431   0.562 -0.2369  0.1521  0.0990
    1W        W30208  13.292  11.553   0.435 -0.1189  0.2249  0.1424
    1W        W30209  25.279  27.267   1.335 -0.0837  0.0454 -0.2087
    1W        W30210  19.401  24.125   1.235  0.2973 -0.0134  0.1052
    1W        W30211   6.853   8.666   2.434 -0.2233  0.3868  0.0132
    1W        W30212  25.615   4.947   2.144  0.2318 -0.2903 -0.2710
    1W        W30213   5.441  28.372   7.557  0.2279 -0.3132 -0.2475
    1W        W30214   9.063   0.316   8.499 -0.0311  0.0955  0.1442
    1W        W30215  13.003   0.191   2.536  0.1274  0.0886  0.0786
    1W        W30216  17.207  13.931   0.672  0.2438  0.0070 -0.1184
    1W        W30217   6.214  14.195   2.419 -0.2840  0.1325 -0.1421
    1W        W30218  10.797   6.003   8.552 -0.0682  0.1866 -0.0419
    1W        W30219   5.590  22.394   8.738 -0.1067  0.2275  0.1504
    1W        W30220   6.844  15.475   0.053 -0.1718 -0.3276  0.1430
    1W        W30221  14.957  22.373   9.185  0.2390 -0.1541  0.1257
    1W        W30222   9.461  22.026   8.310 -0.2533 -0.1851  0.1032
    1W        W30223   0.911   6.643   9.008  0.1760 -0.0801 -0.1513
    1W        W30224   4.308  25.022   9.211 -0.1867  0.0808 -0.1839
    1W        W30225  11.647   8.899   0.618  0.1203  0.3016 -0.3262
    1W        W30226  16.504   9.182   8.884 -0.3240 -0.1014 -0.0709
    1W        W30227   2.990  17.408   5.728  0.3894  0.0310 -0.1383
    1W        W30228   0.963   6.586   1.252 -0.1302 -0.2027  0.1402
    1W        W30229  14.794  13.870   1.182 -0.4332 -0.1051  0.1681
    1W        W30230  18.080  22.643   3.429 -0.0667 -0.0777  0.2150
    1W        W30231  24.528  21.944   2.554 -0.0265  0.0606  0.1281
    1W        W30232  11.018   1.094   9.571  0.2146  0.1054 -0.3484
    1W        W30233   3.086   0.903   0.617  0.1289 -0.0747 -0.2201
    1W        W30234  28.454  24.390   1.548 -0.0504 -0.0652  0.0173
    1W        W30235   6.445  27.376   2.515 -0.1194  0.0760 -0.2135
    1W        W30236   1.225  16.310   1.292  0.1708  0.0103 -0.2868
    1W        W30237  24.144  18.982   7.259 -0.0763 -0.1875  0.2065
    1W        W30238  26.482   8.671   5.318  0.1712  0.1207 -0.1664
    1W        W30239  11.585  28.306   0.075  0.1596  0.1460 -0.1995
    1W        W30240  11.476  21.252   2.342  0.0867  0.0285 -0.1234
    1W        W30241  17.931   7.733   8.065 -0.3196  0.0085 -0.1776
    1W        W30242  28.297  15.566   9.783  0.5155  0.1560 -0.0016
    1W        W30243  21.633   0.808   9.305 -0.2235  0.0163  0.0233
    1W        W30244   3.916  19.158   9.733  0.1674 -0.1422 -0.1220
    1W        W30245  27.586  14.039   1.245  0.0392  0.3980 -0.0797
    1W        W30246  25.335  22.273   3.355  0.1734  0.0188 -0.0443
    1W        W30247   7.965  10.458   0.650 -0.0951  0.4303 -0.2637
    1W        W30248  10.416  11.195   7.801  0.1659 -0.2986 -0.0576
    1W        W30249  17.483   5.327   1.946 -0.3990 -0.1706  0.0345
    1W        W30250  27.858   3.219   8.401  0.1357  0.0495 -0.1922
    1W        W30251  27.301   5.933   8.133 -0.0164  0.0579  0.0401
    1W        W30252   4.693  14.425   0.610  0.3113 -0.0028  0.3289
    1W        W30253  25.132   2.378   1.630 -0.1200  0.0156  0.1131
    1W        W30254  22.525   6.688   2.363 -0.1850  0.0235 -0.4884
    1W        W30255   0.570   3.655   9.088  0.0703  0.1649  0.3126
    1W        W30256  21.630  12.875   1.392 -0.1237 -0.0647 -0.0298
    1W        W30257  21.643   9.990   9.828 -0.0511  0.0828  0.2498
    1W        W30258   4.148   0.165   7.704  0.0265  0.0554 -0.4002
    1W        W30259  26.803   1.359   0.211 -0.0678  0.2102  0.0599
    1W        W30260  28.467   9.644   7.531 -0.2012  0.0115  0.0149
    1W        W30261  15.472   1.063   9.926  0.1129  0.0175 -0.1506
    1W        W30262  10.887  22.887   8.599  0.0973 -0.2955 -0.0685
    1W        W30263   2.298  25.034   0.014  0.3746  0.1522 -0.2540
    1W        W30264  21.413   7.791   0.074  0.2464  0.2141  0.0200
    1W        W30265   7.131  18.361   7.605  0.0615 -0.0300 -0.0954
    1W        W30266  20.534  23.723   6.264 -0.1050  0.3421 -0.0420
    1W        W30267  28.212  25.120   1.333  0.1463 -0.2681  0.2456
    1W        W30268  13.567   9.585   2.768  0.0525  0.0171 -0.3100
    1W        W30269  22.848  23.441   2.079  0.1266  0.2179  0.0285
    1W        W30270  24.462   5.335   2.470 -0.0786  0.1071 -0.1833
    1W        W30271   9.772  27.612   2.950 -0.2092 -0.0276 -0.0507
    1W        W30272   2.851   8.869   8.078  0.0517  0.2305 -0.1442
    1W        W30273  25.139  24.910   9.229  0.2487 -0.1985 -0.2739
    1W        W30274  17.241  18.135   0.764 -0.2262 -0.0664 -0.1134
    1W        W30275  23.979   6.491   7.269  0.2089 -0.1253 -0.1554
    1W        W30276  28.025   8.913   8.328 -0.0191 -0.1463  0.2102
    1W        W30277  12.623   2.580   9.504  0.1402  0.1589 -0.1818
    1W        W30278  11.148  10.813   9.796 -0.1038  0.4708 -0.3066
    1W        W30279  13.214  21.110   2.918  0.1056 -0.0603 -0.0540
    1W        W30280  20.214  25.514   3.495  0.0624 -0.0308  0.0186
    1W        W30281  20.811   2.223   7.899  0.0410 -0.3677 -0.0394
    1W        W30282   5.909   3.096   8.252  0.0937  0.1745 -0.0676
    1W        W30283  19.544  23.142   2.702  0.2139 -0.0620 -0.0167
    1W        W30284  17.541  16.291   9.448  0.0651  0.3605  0.2147
    1W        W30285   1.415   8.185   2.725 -0.0884 -0.2850 -0.3596
    1W        W30286   9.514  25.251   8.943 -0.3918  0.0315 -0.1021
    1W        W30287   5.183   7.757   8.336 -0.0286 -0.1670  0.2514
    1W        W30288  26.458   2.636   6.956  0.0126 -0.3536 -0.2133
    1W        W30289   4.045   5.860   1.440  0.4264 -0.2007  0.3268
    1W        W30290  26.538   4.787   9.201  0.1233 -0.0194  0.2536
    1W        W30291  16.714  25.404   8.981  0.1837  0.0112  0.0808
    1W        W30292  13.231  13.757   8.337 -0.0543 -0.0781 -0.1010
    1W        W30293  14.743  28.717   0.305  0.2738  0.3014 -0.2067
    1W        W30294  19.031   9.519   8.981 -0.0050 -0.2754  0.1152
    1W        W30295  14.874  23.978   9.040  0.2473  0.1689  0.0810
    1W        W30296   2.131   2.453   7.189 -0.1112 -0.3820  0.1527
    1W        W30297   5.963  12.332   7.448  0.0136 -0.1585 -0.0276
    1W        W30298   4.344   4.669   9.506  0.0192  0.0338  0.0116
    1W        W30299   5.721  13.577   7.594  0.0618  0.1735  0.1343
    1W        W30300   5.013   3.114   0.535  0.3948 -0.2648 -0.0097
    1W        W30301   5.775  20.258   6.077  0.0252 -0.0897  0.0955
    1W        W30302  18.588  19.240   7.781 -0.0498  0.1607 -0.3562
    1W        W30303   6.801  24.487   0.023  0.4174  0.1223  0.1431
    1W        W30304   1.018  22.513   1.241 -0.2556  0.1686 -0.3174
    1W        W30305   7.060   4.895   1.727 -0.1351  0.1734 -0.1212
    1W        W30306  17.030  16.232   0.268 -0.0509 -0.0310  0.0181
    1W        W30307  18.919  24.285   7.890 -0.0265 -0.3048 -0.0681
    1W        W30308  27.050  17.146   9.515  0.2045  0.1965 -0.1452
    1W        W30309  25.860  11.602   5.964 -0.2228  0.0295 -0.2128
    1W        W30310  18.135  20.428   8.570 -0.1820  0.1078  0.4400
    1W        W30311  19.228  15.302   8.946 -0.3579 -0.3055  0.0009
    1W        W30312  10.534  23.839   9.053  0.0737  0.2906  0.1164
    1W        W30313  25.133   1.435   8.368  0.0211 -0.1782  0.0663
    1W        W30314  26.240  15.005   8.939 -0.1577 -0.0744 -0.4303
    1W        W30315   6.636   9.327   0.744  0.2708  0.0130  0.2601
    1W        W30316  22.376  16.829   7.465  0.0902 -0.3779  0.2538
    1W        W30317  18.912  25.772   0.335  0.0904 -0.0593  0.1022
    1W        W30318   3.484  16.828   8.354  0.1669 -0.0450  0.0531
    1W        W30319  22.500  10.793   1.819  0.0809 -0.0902 -0.0397
    1W        W30320  12.893  11.970   8.371 -0.0867 -0.1420 -0.1638
    1W        W30321  16.263  16.165   0.729  0.2116 -0.2199  0.1576
    1W        W30322  22.047  28.390   1.746 -0.1025  0.3116 -0.0590
    1W        W30323  10.122  10.441   9.682 -0.0147 -0.1808 -0.2099
    1W        W30324  16.563   0.976   1.843  0.3089  0.0586  0.0832
    1W        W30325  17.807   3.419   9.346  0.1202  0.1179 -0.0820
    1W        W30326  27.395  15.777   9.823  0.1147  0.2153 -0.1826
    1W        W30327  23.746  22.379   9.406 -0.2020  0.0405  0.3779
    1W        W30328  25.042   4.817   8.575 -0.0677  0.0070  0.2337
    1W        W30329   5.807  16.125   0.445  0.2572 -0.0210  0.0448
    1W        W30330   3.354  17.385   7.452  0.2121 -0.0440 -0.0647
    1W        W30331  18.255   3.791   9.017 -0.4888  0.0648  0.0919
    1W        W30332   7.870   5.037   2.967 -0.2857  0.3506 -0.2173
    1W        W30333   6.145   0.984   8.658  0.2378 -0.1633 -0.0857
    1W        W30334  10.575  25.842   0.197 -0.1338  0.0644  0.1511
    1W        W30335   1.113  19.453   6.450  0.2144 -0.2004  0.1234
    1W        W30336  18.048  10.650   7.380  0.0138 -0.2509 -0.0421
    1W        W30337  20.473   8.489   7.447  0.0156  0.2325 -0.0885
    1W        W30338  12.286   4.639   2.767  0.0840  0.0793 -0.1977
    1W        W30339  11.306   4.268   8.859  0.0851 -0.0963 -0.0905
    1W        W30340  25.579  24.131   6.874  0.2408  0.0903  0.0303
    1W        W30341   0.572  22.582   2.604  0.2399 -0.2173 -0.1313
    1W        W30342  21.139   1.573   7.345 -0.3121 -0.1414 -0.2600
    1W        W30343  15.508  12.343   0.776  0.2017  0.0574  0.2723
    1W        W30344  18.384   1.185   2.879  0.0826 -0.1048 -0.0571
    1W        W30345  21.594  24.981   9.935  0.2791 -0.4164  0.3135
    1W        W30346  16.575  21.818   1.393  0.2583  0.0171 -0.0167
    1W        W30347  23.218  19.692   8.124  0.2429  0.1787 -0.0866
    1W        W30348  25.863  20.212   6.798 -0.0912 -0.1317 -0.1209
    1W        W30349  16.556   0.993   0.714 -0.2272 -0.1623 -0.1046
    1W        W30350  19.775  23.797   1.431 -0.0247 -0.3452 -0.0431
    1W        W30351  12.340   0.975   2.608 -0.1617  0.1988  0.2701
    1W        W30352  20.082   0.643   8.609  0.0958 -0.1379  0.0309
    1W        W30353  17.356  21.221   1.555 -0.1477  0.1508  0.0785
    1W        W30354  26.182   9.691   7.929 -0.1351 -0.1599  0.2298
    1W        W30355  21.055   5.320   7.114  0.0861  0.3902 -0.1970
    1W        W30356  26.950  13.106   2.516 -0.0490  0.1771 -0.0815
    1W        W30357  27.885  15.003   1.695  0.2408  0.0149  0.2839
    1W        W30358  10.735  15.601   7.225  0.2069 -0.2390  0.2552
    1W        W30359   6.950  15.550   8.583 -0.2831  0.2660 -0.2312
    1W        W30360   3.009  24.255   8.181  0.0844 -0.0844  0.0471
    1W        W30361   8.875  21.252   6.551 -0.0978 -0.0444  0.3335
    1W        W30362  20.392   0.367   0.091 -0.2296 -0.0350 -0.0803
    1W        W30363  11.497  23.624   1.103  0.2637  0.0838  0.3043
    1W        W30364  25.408  12.275   6.206 -0.0829 -0.0478 -0.2677
    1W        W30365  16.872   3.080   9.688 -0.0713 -0.0413  0.1607
    1W        W30366  11.505  19.608   9.145  0.1370  0.0710 -0.2627
    1W        W30367   8.078   3.739   2.155 -0.2341  0.1255 -0.0708
    1W        W30368  13.845   5.902   9.122  0.1948 -0.0091 -0.0616
    1W        W30369  24.493  15.753   1.671  0.2815  0.0317 -0.1326
    1W        W30370  19.963  10.291   0.960  0.3242 -0.0544 -0.1751
    1W        W30371  13.155   8.854   1.296 -0.1499  0.2670  0.2658
    1W        W30372  27.219  27.266   3.043  0.1677 -0.2414  0.1659
    1W        W30373   1.229  20.795   1.398  0.0035  0.1161 -0.0024
    1W        W30374   0.593   6.968   8.306 -0.1150  0.0549 -0.0690
    1W        W30375  15.990  24.463   4.197  0.1453  0.0311 -0.0589
    1W        W30376  12.753   0.592   0.404  0.0870 -0.0951  0.0557
    1W        W30377   6.239   4.887   9.552 -0.0752 -0.4168  0.0307
    1W        W30378  25.803   7.572   2.294 -0.0281  0.4655 -0.1392
    1W        W30379  19.347  26.403   2.812 -0.3089  0.0454 -0.0246
    1W        W30380   9.700   1.472   0.461  0.0097 -0.0836  0.0118
    1W        W30381  19.173  28.690   1.767  0.0720 -0.2792  0.1640
    1W        W30382  18.886  16.844   1.449  0.0058 -0.2582  0.1471
    1W        W30383  28.551  21.562   9.464 -0.0265  0.2730  0.2647
    1W        W30384  28.188   9.725   1.267  0.2330  0.0023  0.1529
    1W        W30385  25.754   4.293   2.793  0.1711  0.0543  0.2182
    1W        W30386  22.303  25.511   0.042 -0.3241 -0.3436  0.2484
    1W        W30387   0.210   9.399   9.534  0.2494 -0.0349 -0.0987
    1W        W30388   2.170  19.924   8.896 -0.1155  0.1304 -0.0537
    1W        W30389  27.279  27.793   3.169 -0.2783 -0.0811 -0.4830
    1W        W30390  11.400   0.118   9.919  0.0278 -0.3293 -0.0185
    1W        W30391  14.532   4.415   9.773  0.1468  0.4066 -0.0623
    1W        W30392  20.939   9.347   7.384 -0.1205 -0.0675  0.1374
    1W        W30393   6.373  15.964   1.290  0.0532 -0.0363  0.1070
    1W        W30394   8.435   4.882   3.104 -0.1477 -0.0490  0.0309
    1W        W30395  26.621  17.974   1.657 -0.1778  0.0507  0.1916
    1W        W30396  17.508  26.458   1.627 -0.0969 -0.1328 -0.0783
    1W        W30397  10.428  14.770   8.746 -0.2923  0.0437 -0.1735
    1W        W30398   9.408   4.505   0.585 -0.1220 -0.0623  0.0245
    1W        W30399  26.677   2.671   8.803  0.0443  0.0089 -0.0390
    1W        W30400   5.397  12.845   9.835 -0.3604  0.1572 -0.0180
    1W        W30401  16.301  25.173   1.955 -0.0131 -0.0178  0.0005
    1W        W30402  23.096  11.599   2.213 -0.1070  0.1767  0.1836
    1W        W30403  17.755   0.698   7.217  0.0238  0.0959 -0.3139
    1W        W30404  21.905   2.153   0.862 -0.0090 -0.1783  0.0037
    1W        W30405   8.264  21.030   9.499 -0.1275  0.0189  0.1315
    1W        W30406  20.286  28.641   6.785 -0.1457  0.0236 -0.2457
    1W        W30407  19.297  28.274   2.914 -0.1095 -0.2369 -0.1135
    1W        W30408  11.435  27.353   1.697 -0.0979 -0.1448  0.2191
    1W        W30409   6.499   6.613   8.219 -0.0901  0.2638  0.2860
    1W        W30410  19.563   4.161   1.058 -0.0350  0.3517  0.0065
    1W        W30411   6.097  24.936   0.717  0.1772 -0.0268 -0.0028
    1W        W30412   0.549   8.782   9.480  0.0299  0.1227 -0.0753
    1W        W30413  23.244   6.496   9.887  0.2286  0.1727  0.0717
    1W        W30414   8.517  12.118   1.886  0.1104 -0.0125 -0.1027
    1W        W30415   0.938  19.310   8.608  0.1091 -0.0973  0.3222
    1W        W30416  27.918  22.930   8.614  0.0423 -0.3387 -0.2004
    1W        W30417   1.585  22.080   9.453  0.2033  0.1713  0.2350
    1W        W30418   8.053  10.807   2.495  0.2826 -0.0505 -0.1152
    1W        W30419  24.236   5.208   9.375  0.0323 -0.0674 -0.0650
    1W        W30420   3.448   4.389   8.953 -0.0109 -0.0815 -0.3636
    1W        W30421  17.787   3.146   9.748  0.1874 -0.1547 -0.2027
    1W        W30422  19.672  17.235   1.101 -0.0877  0.0324  0.0973
    1W        W30423  26.858  16.552   1.297  0.0935 -0.1053  0.2680
    1W        W30424  17.959  26.292   0.889 -0.0449 -0.0844 -0.3037
    1W        W30425   5.182  12.952   0.958 -0.0767  0.1249  0.2973
    1W        W30426  13.008  13.046   1.348 -0.0937  0.0911 -0.1944
    1W        W30427   7.196   5.083   7.564  0.2267  0.1031 -0.1388
    1W        W30428   8.878  10.216   0.603 -0.1530  0.1046 -0.1317
    1W        W30429  13.229  13.430   9.571 -0.0473 -0.0444  0.1284
    1W        W30430  24.146   2.348   1.527 -0.1622  0.0451  0.0187
    1W        W30431   0.017  11.390   5.736 -0.0866 -0.0850  0.3376
    1W        W30432  21.436  22.947   7.026  0.0260  0.1007  0.1651
    1W        W30433   4.724   1.241   9.498  0.0577  0.0257  0.0587
    1W        W30434   2.773  21.914   6.562  0.0168 -0.0712  0.1735
    1W        W30435   2.589  11.663   9.179 -0.3350  0.0675  0.1572
    1W        W30436  15.572  11.775   2.561  0.2484  0.1623 -0.2184
    1W        W30437  19.986  12.901   3.097 -0.1151  0.0190 -0.2726
    1W        W30438   8.178  17.638   0.803 -0.0056 -0.0656 -0.0553
    1W        W30439   2.909   4.640   0.514 -0.1696  0.2669  0.1337
    1W        W30440  18.821  22.767   9.079 -0.3767 -0.3356  0.2335
    1W        W30441  12.556  20.162   9.615 -0.0552  0.0044 -0.2315
    1W        W30442   2.783  27.463   2.899 -0.4102  0.0720  0.1716
    1W        W30443  27.755  25.137   9.775  0.1492  0.1292 -0.0948
    1W        W30444   2.887  12.550   0.971  0.2669  0.0892  0.5933
    1W        W30445   7.662  11.024   2.323 -0.0979 -0.3481 -0.0386
    1W        W30446  26.878  10.663   9.644  0.1170  0.2295  0.0113
    1W        W30447  25.466  18.573   8.683  0.1916 -0.0557  0.0492
    1W        W30448  28.449  24.031   7.596  0.1690  0.1686  0.0586
    1W        W30449  26.110  18.062   0.287  0.0757  0.0496 -0.2966
    1W        W30450  12.494   5.734   2.758  0.1227 -0.0642  0.0099
    1W        W30451  26.175  24.457   9.824 -0.2638 -0.0403  0.0091
    1W        W30452  15.296  22.171   1.006  0.0756 -0.2293 -0.2203
    1W        W30453   1.178  22.892   9.684 -0.0822  0.2475 -0.2812
    1W        W30454  22.869  12.282   3.002 -0.0535 -0.1431  0.1356
    1W        W30455  23.883  12.788   7.953 -0.0435  0.0224 -0.2764
    1W        W30456  22.148  14.809   0.386 -0.1000 -0.3302 -0.1025
    1W        W30457  25.608  11.439   8.061  0.1785  0.2128  0.2112
    1W        W30458  28.600   1.363   9.120  0.3005  0.0162  0.7133
    1W        W30459  19.176  14.627   8.548  0.1766 -0.2124  0.2429
    1W        W30460  16.183  19.108   1.162 -0.1229  0.0635 -0.6070
    1W        W30461   7.858   2.293   3.802 -0.1541 -0.1837 -0.1875
    1W        W30462  24.205  15.254   7.908  0.2142 -0.1058  0.0839
    1W        W30463   6.418   6.643   1.100  0.0991 -0.0325  0.3011
    1W        W30464   7.101  13.161   9.904  0.2242  0.0268 -0.1064
    1W        W30465   7.881   8.258   8.486  0.1772  0.3520  0.1145
    1W        W30466   4.270  23.586   8.608  0.1161 -0.2115 -0.0559
    1W        W30467   9.958  16.083   6.889  0.1646 -0.0229  0.1220
    1W        W30468  13.348  17.431   2.238  0.1289 -0.1816 -0.4678
    1W        W30469  23.585  11.166   2.841  0.1409  0.1711 -0.0373
    1W        W30470  15.149   2.142   7.692 -0.0314 -0.0818  0.0287
    1W        W30471   5.973  10.470   2.613 -0.1234  0.0854  0.0705
    1W        W30472  18.515  19.544   3.787  0.0084 -0.0135 -0.0968
    1W        W30473  15.697  26.062   9.563 -0.0732  0.2001  0.0749
    1W        W30474   0.392  18.049   9.151 -0.1618 -0.1573  0.1799
    1W        W30475   0.403  12.384   0.746 -0.1486  0.1512 -0.1758
    1W        W30476   7.716  12.783   7.687 -0.2054  0.1438 -0.1626
    1W        W30477   3.907  22.039   8.929 -0.1324  0.2482  0.1672
    1W        W30478  16.327   0.615   7.429 -0.0222 -0.1358 -0.1583
    1W        W30479  16.750  11.248   9.452 -0.1990  0.1826  0.2611
    1W        W30480   9.910  16.923   2.346 -0.2737  0.1232  0.1824
    1W        W30481  27.004  16.046   9.656  0.1879  0.1986 -0.3189
    1W        W30482   2.583  21.544   1.874  0.1769  0.2359  0.1148
    1W        W30483  24.333  11.222   0.484 -0.3215  0.2448  0.0200
    1W        W30484  20.101   3.068   0.695  0.0676 -0.5192  0.0591
    1W        W30485   0.365  10.083   7.580  0.2751 -0.2461  0.1830
    1W        W30486  28.562  15.361   0.192 -0.1425  0.0131 -0.0622
    1W        W30487   1.727   4.888   7.280 -0.0136 -0.1758 -0.2181
    1W        W30488   7.408   1.879   8.338 -0.3206  0.1670 -0.2380
    1W        W30489  17.615  10.721   1.621 -0.1919  0.0812  0.0141
    1W        W30490   3.771   6.147   8.420  0.0266 -0.0259 -0.4685
    1W        W30491   2.627  24.513   9.017  0.1957 -0.2705  0.2812
    1W        W30492  19.392  26.174   6.448 -0.1486  0.0869  0.1452
    1W        W30493  21.859   0.282   8.691 -0.2234 -0.0216 -0.1323
    1W        W30494   0.298  15.044   7.617  0.2216 -0.0589 -0.1526
    1W        W30495  21.475  21.241   6.433 -0.0873  0.1637 -0.0944
    1W        W30496  27.672  24.716   3.291  0.2111 -0.0465 -0.0742
    1W        W30497  14.089  14.895   9.254  0.1921  0.0249  0.1273
    1W        W30498  28.369  22.492   2.325  0.1242 -0.1504  0.1922
    1W        W30499   9.907  12.079   1.929  0.0505 -0.3640 -0.0288
    1W        W30500  18.211  13.690   8.661 -0.0264 -0.0372  0.1722
    1W        W30501  19.696  23.663   2.669 -0.1277 -0.1493 -0.1546
    1W        W30502  25.263  22.090   6.861 -0.0062 -0.2805 -0.0070
    1W        W30503  16.373  25.713   1.679 -0.0403 -0.0664  0.0245
    1W        W30504  22.090  12.375   9.770  0.2520 -0.2625  0.3968
    1W        W30505  20.814  10.639   8.419 -0.2075  0.4180  0.1595
    1W        W30506  21.493  25.527   8.180 -0.2725 -0.1751  0.3208
    1W        W30507  15.394  18.357   0.572 -0.0929  0.0466 -0.3858
    1W        W30508  25.210   2.548   2.987 -0.0129 -0.1751  0.0107
    1W        W30509  14.938  22.496   2.514 -0.1884  0.1041 -0.0011
    1W        W30510  22.595   9.464   2.606 -0.0433 -0.0598  0.2423
    1W        W30511  19.512  16.598   1.163 -0.1748  0.0286 -0.3248
    1W        W30512  27.560  28.488   9.294  0.2795 -0.0792  0.0537
    1W        W30513  22.499   8.198   6.481  0.0787  0.0469  0.0418
    1W        W30514  11.131   4.748   8.695  0.0988  0.0187  0.0528
    1W        W30515  27.319   1.048   0.730  0.1565  0.2323  0.1465
    1W        W30516   6.878  20.555   1.518  0.0198  0.1471 -0.2266
    1W        W30517   1.349   2.647   2.348  0.2628  0.4138  0.1286
    1W        W30518  27.908   8.583   7.945  0.1734 -0.0824  0.0230
    1W        W30519  12.928  23.100   8.103 -0.0839 -0.3458 -0.1122
    1W        W30520  15.892  13.671   3.208  0.0744 -0.0594 -0.0992
    1W        W30521  22.603  19.767   0.023  0.0688  0.1223 -0.4078
    1W        W30522   1.537  10.840   2.585 -0.3691 -0.2525 -0.1605
    1W        W30523  21.875   9.715   0.632  0.1242 -0.1983 -0.0936
    1W        W30524  15.866  25.942   8.563  0.1368  0.2680 -0.2217
    1W        W30525  18.638  19.347   2.104 -0.0620  0.0069  0.0729
    1W        W30526   9.897  11.339   7.611 -0.1369 -0.0787  0.3067
    1W        W30527  20.038  21.571   6.703  0.0839 -0.0864 -0.0363
    1W        W30528  24.013  24.284   8.694  0.2360  0.0696 -0.2206
    1W        W30529   9.646  14.713   1.298 -0.0488 -0.2535 -0.0027
    1W        W30530   3.841  15.535   1.441 -0.2822 -0.0617  0.0847
    1W        W30531  13.628  24.974   1.205  0.0977  0.1647  0.0402
    1W        W30532  21.771   5.224   1.894  0.1649 -0.1822  0.0061
    1W        W30533   9.510  23.208   1.427  0.1018  0.3449 -0.2241
    1W        W30534   7.564  12.294   7.502  0.0605 -0.1349 -0.3498
    1W        W30535  10.046   9.828   2.748 -0.1752 -0.1918 -0.1925
    1W        W30536  22.931  19.552   8.543  0.1681  0.2076 -0.1328
    1W        W30537  15.637   5.898   9.601 -0.0119  0.2870  0.0706
    1W        W30538   1.605  16.146   5.703  0.0285  0.1593  0.0424
    1W        W30539  13.455  23.977   7.935  0.1611 -0.3933 -0.1381
    1W        W30540  22.237   6.711   1.489  0.2280  0.2437 -0.0331
    1W        W30541   0.188  20.823   9.414  0.1569  0.1431 -0.0074
    1W        W30542   8.171   9.128   1.208  0.1548  0.0144  0.0254
    1W        W30543   5.144   9.200   2.405 -0.1403  0.1045  0.0652
    1W        W30544  15.530   0.551   7.577 -0.0847 -0.6243  0.0180
    1W        W30545  20.050   9.175   3.344 -0.0053 -0.2838 -0.2920
    1W        W30546  11.185  18.288   9.157 -0.2190 -0.1589  0.0127
    1W        W30547   9.993  25.182   1.451  0.0398  0.3127  0.1108
    1W        W30548  17.595  23.386   7.600  0.1549  0.6918 -0.0679
    1W        W30549   0.079  23.656   1.643  0.1832  0.3007  0.1428
    1W        W30550  11.032   2.236   2.647  0.0987 -0.0247 -0.1506
    1W        W30551   6.306  12.914   8.933 -0.2159 -0.0381  0.0604
    1W        W30552  14.736  19.026   9.837 -0.1191 -0.0542 -0.1531
    1W        W30553   5.196   8.447   3.587 -0.1152 -0.0839  0.0391
    1W        W30554  22.241  28.062   6.541 -0.0319 -0.2855 -0.2196
    1W        W30555  25.757  10.929   7.534  0.2016 -0.1833 -0.1514
    1W        W30556  23.200  17.302   7.124 -0.2318  0.1325  0.0725
    1W        W30557  16.968  13.013   8.074 -0.0476  0.2739  0.0359
    1W        W30558   5.631  22.122   7.333 -0.2594 -0.1690 -0.0509
    1W        W30559  19.897   7.140   6.713  0.1997 -0.1210  0.0658
    1W        W30560   0.497   6.332   0.238 -0.1158  0.1309 -0.1420
    1W        W30561   9.299  27.064   6.562 -0.4247  0.0035 -0.0948
    1W        W30562   1.787  20.764   1.835  0.0617  0.0462 -0.0195
    1W        W30563  11.101  15.585   1.476 -0.1447  0.2900 -0.1040
    1W        W30564   4.184   2.702   0.849  0.1466  0.1364  0.1361
    1W        W30565  25.199  10.273   1.086 -0.1268  0.0897  0.3712
    1W        W30566   4.776   7.389   7.515  0.0650 -0.0069  0.0096
    1W        W30567  20.914   0.532   6.655 -0.1280  0.0961  0.0274
    1W        W30568  13.684   7.566   7.407  0.1600  0.1348 -0.0690
    1W        W30569   8.633  24.098   0.568 -0.1308  0.2902  0.0755
    1W        W30570  23.793  24.191   2.074  0.1895 -0.1247 -0.1619
    1W        W30571  24.128   7.530   2.489  0.1697  0.4763 -0.0535
    1W        W30572   0.114  23.876   9.158 -0.1230 -0.2112 -0.4406
    1W        W30573  22.940  21.117   7.540  0.0009 -0.1202  0.2385
    1W        W30574   8.135  26.811   2.280 -0.3298 -0.0475  0.0697
    1W        W30575  10.808  15.440   0.419  0.0651 -0.1766  0.0090
    1W        W30576  25.056  25.225   8.096 -0.0210 -0.1679  0.3689
    1W        W30577  27.811  15.526   9.650  0.1189 -0.0634 -0.2511
    1W        W30578  22.607  26.559   2.040 -0.5055 -0.1471  0.0310
    1W        W30579  22.475  12.033   9.954  0.0141  0.0531  0.0259
    1W        W30580   2.286  26.743   8.225  0.0861 -0.1887  0.0778
    1W        W30581   4.011  18.533   6.763 -0.1294  0.2492 -0.0499
    1W        W30582  26.159  10.763   1.008 -0.0910  0.0592 -0.0988
    1W        W30583   4.985   5.707   2.381  0.2287  0.3414  0.0653
    1W        W30584  24.105  21.568   3.185 -0.1230  0.0500 -0.2713
    1W        W30585  11.706  12.106   8.137  0.0733  0.1950 -0.1193
    1W        W30586  14.691   0.489   2.591 -0.4520 -0.2426 -0.2777
    1W        W30587   5.004   1.941   7.282 -0.2262  0.3612 -0.1016
    1W        W30588  11.536   5.682   1.535  0.3399  0.1997  0.0028
    1W        W30589   1.058   2.693   9.675  0.1343 -0.2731 -0.3340
    1W        W30590   2.691  16.069   1.406  0.1214 -0.2252 -0.0803
    1W        W30591  19.519  23.299   1.792  0.0188 -0.0901  0.2381
    1W        W30592   9.622   6.640   2.828  0.2756 -0.1386  0.1971
    1W        W30593  13.960  17.394   9.793 -0.4752 -0.3157  0.1278
    1W        W30594   9.106  17.216   0.450 -0.1798 -0.0077 -0.1740
    1W        W30595  22.233  19.496   9.610  0.2918 -0.1978 -0.0092
    1W        W30596   0.054   7.020   1.275 -0.1406  0.0890  0.1339
    1W        W30597  26.007   2.323   9.544 -0.4861  0.0595 -0.0167
    1W        W30598  27.125   2.721   2.416  0.0027 -0.3701  0.2592
    1W        W30599  19.206   6.900   2.781  0.0525  0.1708  0.2463
    1W        W30600   3.710   8.533   8.600 -0.0310  0.0288  0.1292
    1W        W30601  12.239   6.045   9.321  0.1598 -0.0293 -0.0179
    1W        W30602   1.779  25.428   8.276  0.0679 -0.1050 -0.1495
    1W        W30603  19.796  23.432   8.051 -0.0020 -0.0715  0.2037
    1W        W30604  24.676   1.223   8.846 -0.2293 -0.0493  0.2007
    1W        W30605   3.713  14.786   2.872 -0.2649  0.0205 -0.1389
    1W        W30606  21.904  19.110   6.199  0.0744 -0.0551 -0.2128
    1W        W30607  26.423  22.304   9.315 -0.1217  0.0328 -0.1487
    1W        W30608  12.456   5.609   1.442 -0.0108  0.1205 -0.1768
    1W        W30609  15.613  15.444   9.125  0.3143  0.2079  0.0358
    1W        W30610   9.913   5.280   7.769 -0.0359 -0.2891 -0.3360
    1W        W30611  21.374   4.425   7.444 -0.0460 -0.0974 -0.1133
    1W        W30612  28.060   3.181   0.030 -0.1220  0.1955  0.2027
    1W        W30613   2.420   5.142   7.659  0.1456 -0.0531 -0.1122
    1W        W30614  12.428  26.592   1.180 -0.1811 -0.0678 -0.1124
    1W        W30615  27.461  17.483   9.848  0.1142 -0.0808 -0.1730
    1W        W30616  25.558   3.530   0.423 -0.1563  0.1421 -0.2386
    1W        W30617  25.972  25.368   9.038 -0.1962  0.4238  0.2109
    1W        W30618  10.075  20.924   6.465 -0.3164  0.2302  0.0515
    1W        W30619  24.343   7.578   8.274 -0.1773  0.0131 -0.3790
    1W        W30620  28.236   9.601   1.744  0.0490  0.1491 -0.0564
    1W        W30621   4.695   5.973   8.534 -0.2862  0.0128  0.2523
    1W        W30622   0.778  14.798   9.201  0.2898 -0.2247 -0.1219
    1W        W30623  18.825  15.588   7.981  0.1494  0.1186  0.0545
    1W        W30624  17.538  12.758   9.171 -0.1201  0.1100  0.0300
    1W        W30625  16.464   1.366   1.390 -0.1768  0.0377  0.0884
    1W        W30626   7.095  14.863   0.159 -0.2865  0.1974 -0.0116
    1W        W30627  13.417  11.584   9.109 -0.2828  0.3239 -0.3983
    1W        W30628  18.785   6.555   8.243  0.1316  0.1664 -0.1848
    1W        W30629  24.438   5.457   0.002 -0.0584 -0.1272  0.0574
    1W        W30630  27.585   5.335   9.181 -0.1786  0.1956  0.0076
    1W        W30631  22.267   4.443   8.319 -0.0195  0.1304 -0.1226
    1W        W30632   8.471  16.027   7.890 -0.0239  0.2772  0.1235
    1W        W30633   3.232   0.010   6.907 -0.0245 -0.1189  0.3272
    1W        W30634   6.220   8.278   9.080 -0.0167  0.2044  0.1585
    1W        W30635   3.143  16.734   1.288 -0.0405  0.2307  0.0967
    1W        W30636  26.354  14.085   1.031 -0.1106 -0.0534  0.0340
    1W        W30637  24.937  24.238   1.790  0.3335  0.0032  0.2952
    1W        W30638  13.898  12.609   9.217 -0.3348  0.1277  0.1795
    1W        W30639   1.388  21.521   1.331 -0.0660  0.3296  0.2036
    1W        W30640  23.724   4.210   2.831  0.0592 -0.2175 -0.4030
    1W        W30641   5.718  21.070   7.367  0.2815 -0.0244 -0.1517
    1W        W30642  27.876  21.663   0.220 -0.0949  0.1381 -0.0614
    1W        W30643   6.797   6.627   6.612 -0.1153  0.2747 -0.3420
    1W        W30644  25.039   7.134   1.592 -0.2465  0.0756 -0.1562
    1W        W30645  21.768   8.256   2.171  0.0501 -0.0932  0.1443
    1W        W30646  27.134   4.295   6.064  0.1339 -0.1170 -0.1125
    1W        W30647  14.081   5.161   1.868  0.0925 -0.0279  0.2003
    1W        W30648  10.241  15.672   1.533 -0.0573 -0.1560  0.1333
    1W        W30649  11.144  18.203   9.654 -0.1536 -0.0080  0.2634
    1W        W30650  28.333  14.084   8.663  0.0425  0.0860  0.0258
    1W        W30651  19.536   8.439   7.441  0.2692 -0.0466  0.1199
    1W        W30652  26.779  11.485   2.672 -0.2365  0.2338 -0.2045
    1W        W30653  20.935   2.330   1.218 -0.0168 -0.2432 -0.2124
    1W        W30654  26.686   9.726   7.767 -0.1309  0.0582 -0.1536
    1W        W30655  12.544   6.922   1.848 -0.1635 -0.0127 -0.2407
    1W        W30656  15.714  25.109   9.769  0.1581  0.2935  0.1336
    1W        W30657  17.868   9.511   1.358 -0.0582 -0.0593 -0.0188
    1W        W30658   2.491  18.607   0.364  0.3429  0.0358  0.0483
    1W        W30659  24.399   5.761   8.062 -0.0351 -0.2444  0.0150
    1W        W30660   2.021  19.221   6.294  0.0407  0.1175 -0.0400
    1W        W30661   3.144   4.992   9.692  0.1075  0.0014 -0.0729
    1W        W30662  23.518  24.516   8.489  0.0074  0.3112 -0.0709
    1W        W30663  20.683  27.221   9.910 -0.0014 -0.1171 -0.2496
    1W        W30664  27.736  28.025   4.092 -0.0156 -0.0496  0.0253
    1W        W30665  25.808  23.637   1.989  0.2923  0.2118 -0.3911
    1W        W30666  13.153  13.195   7.638  0.1931 -0.1062  0.1046
    1W        W30667  21.646  12.777   3.180  0.1323 -0.0859 -0.1278
    1W        W30668  15.109   0.579   2.985  0.0158  0.1452  0.2919
    1W        W30669  22.722   1.255   9.339 -0.0317 -0.1990 -0.3954
    1W        W30670   9.606  18.895   7.405  0.4796  0.1431  0.1893
    1W        W30671   9.333  21.678   2.494  0.2342 -0.1466  0.0011
    1W        W30672   4.545   7.272   1.101 -0.1743 -0.2286 -0.2420
    1W        W30673  25.175  13.270   7.684  0.0674  0.0584  0.0132
    1W        W30674   9.218  16.212   8.996 -0.1269  0.0337 -0.0697
    1W        W30675   8.615  21.741   0.530  0.0719  0.0437  0.1318
    1W        W30676  25.713  17.692   0.025  0.0295  0.1347 -0.1518
    1W        W30677  14.160  20.021   7.636 -0.1555 -0.2005  0.1183
    1W        W30678   7.589  13.273   9.123  0.2068  0.0931  0.2439
    1W        W30679   9.088   8.892   0.902  0.1584 -0.0501  0.2900
    1W        W30680  13.154  12.928   2.176  0.2552  0.0444  0.0442
    1W        W30681   1.305  15.261   8.853  0.2214 -0.0627  0.1911
    1W        W30682  13.338  12.963   9.708 -0.0218 -0.0490  0.0225
    1W        W30683   1.370   3.639   3.305 -0.2589  0.1863 -0.2301
    1W        W30684   6.116  20.597   6.959 -0.2112  0.0389  0.0552
    1W        W30685   6.751   1.422   1.620 -0.1089  0.1608 -0.0800
    1W        W30686   1.232  12.072   1.299  0.3582  0.2007  0.0380
    1W        W30687  27.477  26.695   0.801 -0.0047  0.3077  0.0940
    1W        W30688  24.549   9.901   2.033 -0.3424  0.0296 -0.2598
    1W        W30689  20.471   0.912   7.041 -0.0336 -0.1165  0.0367
    1W        W30690   6.093   4.169   0.672 -0.3215 -0.1063 -0.0566
    1W        W30691  28.574   6.849   1.940 -0.0998  0.0609  0.0578
    1W        W30692  25.040  14.981   9.316 -0.1167 -0.0578 -0.1609
    1W        W30693  23.940  20.431   0.154  0.0703  0.1462  0.0524
    1W        W30694  19.857   0.869   2.553  0.3423 -0.2681 -0.0657
    1W        W30695  18.980  26.381   8.068  0.0517  0.1949 -0.0958
    1W        W30696  21.209   8.054   6.844  0.0984 -0.1482 -0.3140
    1W        W30697  20.113   8.293   1.470 -0.0141  0.2296 -0.2113
    1W        W30698  16.110  10.055   8.803 -0.3871  0.1607 -0.2107
    1W        W30699  18.305  18.961   9.304 -0.2413 -0.0952 -0.0059
    1W        W30700   1.931  13.249   1.803  0.1121 -0.1096  0.2653
    1W        W30701  15.651   6.255   9.959  0.2541  0.0153 -0.3387
    1W        W30702  28.011  24.845   7.419  0.0612 -0.0461  0.1094
    1W        W30703  27.595  23.805   8.576  0.1367 -0.0103  0.0207
    1W        W30704  25.799  21.987   6.210  0.2039  0.0526  0.2117
    1W        W30705  17.652   2.109   9.484 -0.2005  0.1584 -0.0705
    1W        W30706  10.530   0.222   0.297 -0.1899  0.1897  0.3352
    1W        W30707  24.165   8.367   6.932  0.1394  0.2379  0.0967
    1W        W30708  27.594   2.150   7.975  0.0396 -0.1239  0.0771
    1W        W30709  14.705  25.692   9.447 -0.1833 -0.2155  0.0923
    1W        W30710   8.023   8.573   2.570 -0.0329  0.3123 -0.1781
    1W        W30711   8.357  10.971   8.584 -0.1971  0.0764  0.0878
    1W        W30712  25.366  17.137   1.797  0.0879 -0.1033  0.2624
    1W        W30713  22.113  19.305   7.753  0.1927  0.1001  0.0767
    1W        W30714  26.163  11.128   7.805  0.2864  0.0534  0.0203
    1W        W30715  14.997  11.545   1.059  0.2041  0.1507 -0.3302
    1W        W30716   1.917   8.188   8.984  0.0416  0.1450 -0.0174
    1W        W30717  28.483   6.129   7.395  0.0565 -0.4009 -0.0330
    1W        W30718  15.478  25.901   0.597 -0.1907 -0.0309  0.0649
    1W        W30719  18.669   0.043   1.111  0.2851 -0.1627 -0.1118
    1W        W30720  15.691  17.817   8.627  0.1245 -0.0840  0.0013
    1W        W30721  10.417  11.339   2.015 -0.1910 -0.0008 -0.0079
    1W        W30722   7.347   8.737   7.366 -0.1980 -0.1223  0.0965
    1W        W30723  26.539   7.117   8.443 -0.0672  0.1048  0.0575
    1W        W30724  14.385  25.593   1.219  0.0729  0.1078  0.0008
    1W        W30725  24.302   8.082   9.414  0.3174  0.2782 -0.1915
    1W        W30726   4.769   4.897   7.705 -0.3546  0.2886  0.0442
    1W        W30727  11.173  11.433   9.922  0.0058 -0.0004  0.1199
    1W        W30728  15.011   6.851   1.589 -0.0832 -0.1234  0.0306
    1W        W30729  14.693  23.715   3.023 -0.4458  0.0858 -0.0157
    1W        W30730   7.605  12.479   2.116 -0.1463 -0.2364  0.1487
    1W        W30731  10.795  20.682   2.817 -0.0878  0.1568 -0.0352
    1W        W30732   5.392  25.993   7.412 -0.0222 -0.0794 -0.1286
    1W        W30733  15.140  19.828   2.625  0.2766  0.2023 -0.2004
    1W        W30734   5.762  13.300   2.411  0.3737 -0.4295  0.1930
    1W        W30735  25.737  18.481   6.511 -0.1885  0.2480  0.1403
    1W        W30736  27.696  21.070   9.374  0.1503 -0.3989  0.2629
    1W        W30737  27.549  18.517   0.781 -0.0039 -0.1912 -0.0105
    1W        W30738   0.716   8.104   7.070 -0.1764 -0.0032 -0.1189
    1W        W30739  19.196  28.237   0.226  0.1305 -0.1659 -0.2104
    1W        W30740  16.054  13.558   0.752 -0.2515 -0.0405  0.2483
    1W        W30741   6.181  26.867   2.448  0.3177 -0.1156  0.0459
    1W        W30742   5.002  28.133   1.885  0.1547  0.2842  0.0764
    1W        W30743  16.163  18.752   9.504 -0.4117 -0.0049 -0.0996
    1W        W30744  13.883  10.780   2.204 -0.1738  0.0462 -0.0888
    1W        W30745  24.645   4.982   9.875  0.0424 -0.0341 -0.2431
    1W        W30746  27.088   3.605   8.977  0.0697 -0.0244  0.3237
    1W        W30747  15.866  25.956   6.969 -0.0617  0.2382  0.3400
    1W        W30748  22.270  20.462   7.034 -0.1291 -0.4694  0.0514
    1W        W30749  17.196   3.732   9.037 -0.2401 -0.1633 -0.0498
    1W        W30750  17.795  21.644   9.941 -0.3963  0.2287 -0.2432
    1W        W30751   0.294   8.991   1.944  0.2499 -0.2086 -0.0778
    1W        W30752  13.551  20.017   7.704 -0.1588 -0.1974 -0.1610
    1W        W30753  10.449   5.831   1.858  0.0662 -0.3081  0.1271
    1W        W30754  17.981   8.928   9.548 -0.0806 -0.2184  0.2404
    1W        W30755  15.453  17.938   7.492  0.0283 -0.0914 -0.0282
    1W        W30756  14.549  27.126   8.571 -0.1617  0.1044 -0.1268
    1W        W30757  14.434  17.542   9.612 -0.1525 -0.2700  0.0775
    1W        W30758  21.506   6.866   6.907  0.0663 -0.2356  0.1080
    1W        W30759  20.974   9.753   1.299 -0.1460  0.0167  0.3062
    1W        W30760   2.975  19.836   6.891  0.0868 -0.2051 -0.0671
    1W        W30761   2.021  21.870   7.659 -0.1388 -0.1467 -0.2374
    1W        W30762  14.907   1.723   9.907  0.3162  0.0473  0.2023
    1W        W30763  12.757  22.197   0.454 -0.1676 -0.0465  0.2206
    1W        W30764  17.398   3.110   1.014  0.2000 -0.1980 -0.0655
    1W        W30765   0.937  21.937   8.790  0.0756  0.0211 -0.2838
    1W        W30766  25.605  18.978   7.296  0.0492  0.2282  0.0148
    1W        W30767  25.518  11.889   6.713  0.0023  0.0369 -0.0798
    1W        W30768  20.203  12.959   1.500 -0.0250 -0.1151  0.0972
    1W        W30769   2.610  16.111   0.359  0.0564 -0.0803  0.1912
    1W        W30770   5.961  27.381   2.621 -0.1052  0.1515 -0.0108
    1W        W30771  13.158   1.346   1.309  0.0317  0.2401 -0.0338
    1W        W30772  21.771  20.984   8.705  0.0108 -0.0042 -0.3427
    1W        W30773   3.817  17.330   2.921  0.0486  0.0783 -0.0406
    1W        W30774  12.341   3.778   0.246 -0.2839 -0.0674 -0.0213
    1W        W30775   2.262  13.688   0.321 -0.1216  0.1448  0.0016
    1W        W30776   2.454  20.776   9.531 -0.0498 -0.0753 -0.2165
    1W        W30777   6.131  24.806   1.730 -0.0747  0.5006 -0.2964
    1W        W30778   5.483  24.199   9.688  0.0839  0.1352  0.1356
    1W        W30779   4.404  13.581   6.924 -0.3287 -0.2932 -0.2098
    1W        W30780  19.228  18.569   8.997 -0.0655  0.1948  0.1685
    1W        W30781  26.658  18.400   2.948 -0.1723  0.1886 -0.4499
    1W        W30782  10.735   4.202   2.301  0.0087  0.2958 -0.0044
    1W        W30783   4.462  12.150   9.746  0.2501 -0.1337 -0.2443
    1W        W30784  27.110  18.837   8.286 -0.0938  0.1320  0.0713
    1W        W30785   3.379   0.762   1.404  0.1195 -0.1560 -0.2466
    1W        W30786  11.201  22.589   2.831 -0.0186  0.0225  0.1063
    1W        W30787   9.295   7.599   9.615 -0.0513  0.0703  0.0170
    1W        W30788  27.665  26.272   1.903  0.0125  0.2918 -0.1027
    1W        W30789  17.736  27.047   2.859 -0.1718  0.1221 -0.2255
    1W        W30790  20.079  26.793   0.271 -0.1162  0.1242  0.0222
    1W        W30791  21.505   9.093   0.457  0.0619  0.1457 -0.0971
    1W        W30792   0.425  10.863   8.694 -0.1316 -0.0020 -0.1044
    1W        W30793   5.205  20.629   8.861  0.2017 -0.0443  0.3081
    1W        W30794  23.624  24.444   1.663 -0.1075  0.0135 -0.0047
    1W        W30795  27.264  12.330   8.769  0.2640  0.1891  0.1020
    1W        W30796  27.179  18.633   1.102  0.1148 -0.3864  0.0173
    1W        W30797  18.759  12.622   0.437  0.2441  0.3704 -0.3831
    1W        W30798  22.920   4.041   9.655  0.1313 -0.1359 -0.1391
    1W        W30799   8.789   4.099   1.503 -0.2085 -0.2236 -0.0013
    1W        W30800  24.253  13.420   9.916  0.0580 -0.1093  0.0135
    1W        W30801   7.650   1.267   1.160  0.0554  0.0053 -0.0065
    1W        W30802   1.448  27.521   9.433 -0.1013  0.2302 -0.2149
    1W        W30803   9.376  10.580   7.852 -0.1210  0.1400 -0.2057
    1W        W30804  13.288   2.372   7.558  0.1759  0.3277  0.2607
    1W        W30805  15.512   4.645   3.476  0.1300 -0.1976  0.2057
    1W        W30806   8.873   4.185   9.908 -0.2718  0.2117 -0.0595
    1W        W30807  25.045   3.664   0.630 -0.1578 -0.2087 -0.1088
    1W        W30808  19.221  11.360   0.768  0.0746  0.0150 -0.0429
    1W        W30809  26.675  19.110   7.358 -0.1777 -0.1187  0.2866
    1W        W30810  26.864   8.201   9.006  0.0903 -0.2638  0.1444
    1W        W30811  17.056  26.981   8.221  0.0041  0.0405  0.0102
    1W        W30812   4.081  25.418   9.919  0.0014 -0.0202  0.2564
    1W        W30813  16.852  18.207   8.082  0.0156 -0.0688  0.0059
    1W        W30814  20.796  11.438   8.152  0.0072 -0.1573 -0.0344
    1W        W30815  22.264  25.541   0.546 -0.0343 -0.0471  0.3574
    1W        W30816  25.855  12.802   1.459  0.0608 -0.1776  0.1230
    1W        W30817   4.999  19.350   1.761 -0.0656  0.1461  0.1544
    1W        W30818  10.370  18.459   7.851 -0.2396  0.2333 -0.2681
    1W        W30819  16.044   0.143   1.921  0.3148 -0.0798  0.2046
    1W        W30820  26.548  14.878   0.595  0.0678 -0.1134 -0.1704
    1W        W30821  26.408  11.246   8.743  0.1585 -0.0840  0.0776
    1W        W30822   8.479  26.149   0.962  0.2925  0.1038  0.0394
    1W        W30823   0.072  12.697   7.800 -0.1182 -0.2643 -0.0198
    1W        W30824  18.060   5.612   2.063  0.5098  0.2485 -0.0176
    1W        W30825  16.688  13.234   8.408 -0.2096  0.1814  0.1267
    1W        W30826  12.172  23.735   9.869 -0.3089  0.2302  0.2767
    1W        W30827   9.125   4.907   7.834  0.0606  0.2076 -0.1848
    1W        W30828   8.347   9.948   9.156  0.1692  0.1824 -0.0026
    1W        W30829  18.425  24.620   2.029  0.2897  0.2590 -0.0828
    1W        W30830  12.748  25.758   0.765 -0.0580  0.1056 -0.2733
    1W        W30831   8.660  25.637   9.872  0.0045  0.2175  0.2932
    1W        W30832  17.171  28.139   2.269 -0.2346 -0.1179 -0.0357
    1W        W30833  25.327  16.790   9.665  0.0326 -0.3536  0.0562
    1W        W30834  10.181  21.878   8.939  0.1840 -0.0373 -0.0920
    1W        W30835   9.570   2.879   1.198 -0.0037  0.0025 -0.0939
    1W        W30836  21.471   8.022   1.022 -0.1255 -0.2267  0.1834
    1W        W30837   9.210  21.620   7.399 -0.1534 -0.1045 -0.0138
    1W        W30838  19.032  18.462   2.308 -0.0554  0.0453  0.0931
    1W        W30839  23.081  15.003   7.724  0.0479 -0.1086  0.3790
    1W        W30840   6.050  17.005   7.088 -0.0545 -0.1574  0.1645
    1W        W30841  18.317  25.736   9.324  0.0285  0.0782  0.3315
    1W        W30842  12.400  22.388   3.331 -0.0427 -0.0327 -0.0039
    1W        W30843  25.418  21.453   1.177  0.1441 -0.0122  0.1076
    1W        W30844  18.415   5.921   1.847  0.1089  0.3618  0.0119
    1W        W30845   7.506  10.709   2.872  0.1632  0.3430  0.3441
    1W        W30846   7.608   4.265   7.668 -0.0775 -0.4485  0.2040
    1W        W30847   3.744   1.565   3.039 -0.1893  0.2319  0.2105
    1W        W30848   2.915   7.784   9.799  0.0911  0.0622 -0.0175
    1W        W30849  19.793   1.827   0.229  0.1717  0.2037 -0.0275
    1W        W30850   4.145  15.312   1.856 -0.1077  0.0463 -0.2322
    1W        W30851   8.295   3.968   9.329  0.1029  0.0810  0.0931
    1W        W30852   2.192  16.956   8.796  0.0896 -0.2901  0.1441
    1W        W30853   1.327  11.545   9.452  0.0170  0.2687 -0.2882
    1W        W30854   1.501   0.712   2.100  0.0385 -0.2697 -0.1035
    1W        W30855  21.924  26.886   0.286  0.2423  0.1125 -0.0512
    1W        W30856   9.855  13.797   9.860  0.2014  0.2511  0.0677
    1W        W30857  10.841  28.130   0.851  0.0392 -0.0901 -0.0375
    1W        W30858  19.081   1.123   9.300 -0.0701 -0.0925 -0.0887
    1W        W30859   2.917   0.766   8.932  0.1003 -0.3221 -0.2014
    1W        W30860  24.101  25.291   3.001  0.2770 -0.0303  0.0269
    1W        W30861   7.078   1.882   0.811  0.0998 -0.1315  0.0125
    1W        W30862  24.637  15.819   8.790 -0.0335  0.2362  0.0046
    1W        W30863  15.678   6.342   2.637  0.2739 -0.0618  0.0150
    1W        W30864   8.737  23.565   9.365 -0.0943 -0.2885 -0.3188
    1W        W30865  26.530  25.298   8.103  0.1025 -0.0648  0.1404
    1W        W30866  13.620  25.068   8.799 -0.2239 -0.0270  0.1058
    1W        W30867  12.871  24.955   9.471 -0.0209 -0.0907 -0.0827
    1W        W30868   4.151   9.054   1.255 -0.2739  0.2675 -0.0046
    1W        W30869  15.456  15.411   2.457  0.0941 -0.2490  0.1270
    1W        W30870   1.257   1.433   1.588  0.3743  0.1836  0.2687
    1W        W30871  20.897  15.455   0.573 -0.1600  0.1672 -0.1352
    1W        W30872   0.869  13.912   8.070 -0.0600 -0.2500 -0.2803
    1W        W30873  21.717   1.785   9.819 -0.1491  0.1023 -0.0662
    1W        W30874  24.564   2.858   7.614  0.1284  0.2360 -0.0553
    1W        W30875  25.263  21.112   0.575 -0.2374 -0.2892 -0.1940
    1W        W30876   4.649   8.434   1.831  0.0115 -0.0870 -0.2555
    1W        W30877  27.570  21.004   7.660 -0.2731  0.2546  0.2307
    1W        W30878   3.683   7.210   9.303  0.2323  0.0377 -0.1996
    1W        W30879   8.062  26.652   0.702 -0.1050 -0.2424 -0.1310
    1W        W30880  20.220  24.715   2.998 -0.1178  0.0494  0.0084
    1W        W30881   7.529  13.437   0.161  0.1364 -0.1948  0.2115
    1W        W30882  22.447  27.104   0.250  0.2996  0.0618 -0.0582
    1W        W30883   8.715  22.053   8.694  0.0246  0.0958  0.2308
    1W        W30884   8.958  25.397   1.644  0.0832  0.2069  0.0829
    1W        W30885   9.321   4.831   2.918 -0.1750 -0.2372  0.0583
    1W        W30886  10.764   7.679   0.240  0.2986 -0.1026 -0.0601
    1W        W30887  17.712  28.238   1.410 -0.4705  0.0233  0.0457
    1W        W30888   6.688   7.234   1.152  0.1821 -0.1513 -0.3164
    1W        W30889  11.853  28.582   2.779  0.2420 -0.1004 -0.3785
    1W        W30890  11.630  24.979   2.318  0.0145 -0.2230  0.0983
    1W        W30891  22.131  28.664   7.433 -0.1108 -0.1229  0.1207
    1W        W30892  15.226  15.493   1.982  0.1800  0.3837 -0.1171
    1W        W30893   6.587  27.860   2.921 -0.1126 -0.2102 -0.0859
    1W        W30894  16.671  14.774   0.390 -0.3588  0.1396  0.0122
    1W        W30895  16.939  17.715   1.390 -0.3160 -0.0151  0.0301
    1W        W30896   7.204  17.344   2.169  0.5061  0.3941  0.0490
    1W        W30897   1.759   9.718   7.854  0.0595 -0.2759  0.2578
    1W        W30898   2.989  21.766   9.145 -0.0908 -0.3155  0.0334
    1W        W30899   1.406   5.652   6.553 -0.0723 -0.4333 -0.2556
    1W        W30900  24.622  10.524   7.903  0.2671 -0.1157 -0.0391
    1W        W30901  11.171   6.171   2.164 -0.2636 -0.0569  0.0465
    1W        W30902   1.598  10.464   6.952  0.0262 -0.0581 -0.1895
    1W        W30903  21.236  23.693   0.516 -0.0597 -0.1593 -0.1356
    1W        W30904   6.635  22.921   5.859 -0.3606  0.0844  0.0972
    1W        W30905   0.377   1.730   8.493  0.1516 -0.0170  0.0470
    1W        W30906  21.115  22.847   8.509 -0.2081 -0.1053 -0.1893
    1W        W30907  12.910  16.524   1.540 -0.0296  0.1390  0.0075
    1W        W30908  11.571  14.759   1.333 -0.1287  0.3343 -0.1252
    1W        W30909  27.183  14.547   8.451  0.1377 -0.1205 -0.0050
    1W        W30910  20.387  11.355   8.379  0.4002  0.2463  0.3078
    1W        W30911  17.859   3.297   0.827  0.1388 -0.1069  0.1085
    1W        W30912  22.208  11.333   7.363 -0.1868 -0.1952  0.1970
    1W        W30913   7.793  17.290   7.309 -0.1691 -0.2977 -0.1900
    1W        W30914  14.045  13.655   9.411 -0.0531 -0.0211  0.0236
    1W        W30915  26.275  26.031   7.413  0.0628 -0.0017 -0.0273
    1W        W30916  24.427  26.839   1.714  0.1438  0.0084  0.2476
    1W        W30917  15.065   5.298   2.732 -0.0740 -0.2233  0.0650
    1W        W30918  15.633  18.192   9.052 -0.0625 -0.1164 -0.1627
    1W        W30919  14.759  24.707   1.709  0.0062 -0.2962 -0.2590
    1W        W30920  19.312   3.423   9.870  0.1036 -0.0424  0.2845
    1W        W30921   1.093  26.548   0.010  0.0342  0.0622 -0.0297
    1W        W30922  17.193  15.473   7.822  0.2239  0.1721 -0.2976
    1W        W30923  24.264   1.994   9.874  0.1187 -0.0757 -0.0844
    1W        W30924  26.257  16.015   6.796  0.0451 -0.1062 -0.0209
    1W        W30925  24.712  16.524   1.949  0.3006 -0.0794 -0.0128
    1W        W30926  27.961  16.929   2.314  0.2814  0.0368 -0.1258
    1W        W30927   1.786   7.867   6.586  0.1049  0.2586 -0.3795
    1W        W30928  23.534   5.858   7.211 -0.1996  0.0295  0.0733
    1W        W30929  21.351   0.643   0.398  0.0347 -0.1234  0.0789
    1W        W30930   4.266  20.651   5.873 -0.0386 -0.0467 -0.1960
    1W        W30931   7.278  16.669   9.473 -0.0940 -0.0304  0.1583
    1W        W30932   4.715  18.440   6.936  0.0409  0.1917 -0.1965
    1W        W30933  28.343   4.241   1.656  0.2730  0.0083  0.0718
    1W        W30934  19.566  27.300   1.654 -0.0004 -0.0512  0.0289
    1W        W30935  25.944  14.550   9.120 -0.3793  0.3745  0.1298
    1W        W30936  25.935  14.309   0.848 -0.0240  0.2455 -0.2491
    1W        W30937   6.147  21.457   0.840 -0.1917  0.3815 -0.0452
    1W        W30938  13.424  28.378   8.130 -0.1424 -0.0264  0.0971
    1W        W30939  17.758  24.048   9.647 -0.0049  0.1969 -0.2755
    1W        W30940  15.968  20.653   3.012 -0.0114  0.1688 -0.0473
    1W        W30941   5.061  19.342   1.181  0.1157  0.1472  0.2044
    1W        W30942  25.693   8.417   1.881 -0.0330 -0.3977 -0.2852
    1W        W30943   7.534   7.949   2.702 -0.0001 -0.2413 -0.0824
    1W        W30944   3.212   9.651   1.936  0.1007 -0.2275 -0.0384
    1W        W30945   6.304  28.406   7.841  0.4376 -0.0247 -0.1532
    1W        W30946  12.915  15.279   1.593  0.0509 -0.2780 -0.2845
    1W        W30947  27.387   9.459   5.501  0.1233 -0.1501  0.1687
    1W        W30948   0.279   9.461   8.977 -0.0323 -0.0532 -0.0692
    1W        W30949  11.004  11.773   7.472  0.1393  0.0455  0.0749
    1W        W30950  22.512   7.715   7.558  0.0051  0.1424 -0.1428
    1W        W30951  19.079  18.794   0.864 -0.1299 -0.1113 -0.2353
    1W        W30952  15.064  18.858   2.404  0.0150 -0.0579 -0.1259
    1W        W30953  13.748  24.135   2.458  0.0270  0.2254 -0.1655
    1W        W30954  15.842  20.532   7.905  0.1366 -0.2137  0.0742
    1W        W30955  10.568   9.767   2.872  0.0801  0.0460 -0.4107
    1W        W30956  19.157   8.148   1.540  0.3377 -0.0768  0.1280
    1W        W30957   8.178   5.866   7.706 -0.2459  0.0635 -0.3165
    1W        W30958   7.404   0.899   9.750 -0.1737  0.2755  0.1140
    1W        W30959  15.055  23.953   6.957 -0.1226  0.1489 -0.2460
    1W        W30960  17.327   3.242   9.447 -0.0015 -0.0939 -0.2213
    1W        W30961  25.319  17.505   0.215  0.0477  0.0798  0.0288
    1W        W30962  14.803   6.141   0.914 -0.2483  0.1297 -0.1004
    1W        W30963   1.002  15.408   1.436 -0.2057  0.1258  0.1258
    1W        W30964  21.802  17.139   8.056  0.2095 -0.2764  0.1399
    1W        W30965  10.638  26.747   1.721  0.1305 -0.0378  0.0630
    1W        W30966   5.866  11.488   2.830  0.1503  0.0420  0.1669
    1W        W30967  16.583  10.999   0.833 -0.2467  0.1107 -0.1081
    1W        W30968  13.652  10.078   2.955  0.1774 -0.2397 -0.0334
    1W        W30969  17.794  10.269   1.517 -0.0558  0.0616 -0.0967
    1W        W30970   4.872   3.679   6.796 -0.0697 -0.1005  0.1357
    1W        W30971  14.446  27.789   7.989  0.1286 -0.1554  0.1091
    1W        W30972  17.081  14.698   9.944  0.0166 -0.1256  0.3684
    1W        W30973  20.450  10.079   7.090  0.2440 -0.1159  0.2525
    1W        W30974  11.919  12.501   0.138  0.2336  0.1988  0.1839
    1W        W30975   4.368  28.397   8.852  0.3253  0.0081  0.0220
    1W        W30976  21.554   2.800   7.297  0.1274  0.1006 -0.2806
    1W        W30977  20.389  27.918   0.328  0.0974  0.1876 -0.1317
    1W        W30978  21.747  15.359   1.646  0.3321 -0.1275 -0.1234
    1W        W30979  16.409   0.760   9.490  0.1387 -0.1547 -0.0397
    1W        W30980  13.086  11.724   8.784 -0.0826 -0.0431  0.2192
    1W        W30981  11.711  20.057   9.226 -0.3609 -0.0902 -0.0461
    1W        W30982   9.417  27.751   7.373 -0.0180 -0.2552  0.0263
    1W        W30983  15.971   4.572   2.887 -0.1530 -0.0713  0.0248
    1W        W30984  17.296  21.576   3.435  0.0125 -0.1309  0.2075
    1W        W30985  17.395  13.326   2.077 -0.0862  0.0416 -0.1451
    1W        W30986  22.638  18.566   8.650  0.0583 -0.1490 -0.3424
    1W        W30987  24.457  17.293   8.799 -0.0745 -0.1476 -0.0804
    1W        W30988  23.333   2.988   2.435 -0.2646  0.2139 -0.0045
    1W        W30989   4.435  12.656   8.482  0.1978  0.1269  0.6460
    1W        W30990  22.744   8.375   2.688  0.0642  0.1269  0.1037
    1W        W30991  21.218   2.059   9.707 -0.1858 -0.2858 -0.4296
    1W        W30992   0.247  24.648   2.283 -0.1221  0.3496 -0.0222
    1W        W30993   6.280  15.425   8.427  0.0336 -0.1453 -0.2411
    1W        W30994  20.473   5.533   1.708  0.0725 -0.0111  0.1219
    1W        W30995   3.400   5.438   2.872 -0.2140 -0.0085  0.0823
    1W        W30996   3.111  10.800   7.917 -0.1121  0.1335 -0.0512
    1W        W30997   3.296  11.800   1.336  0.0491 -0.3432  0.0660
    1W        W30998  24.433  10.707   1.522  0.0219  0.1060 -0.1241
    1W        W30999   5.564  18.918   8.809 -0.0250  0.0513 -0.1227
    1W        W31000   2.834  21.707   8.459 -0.2048 -0.2529  0.1968
    1W        W31001  20.617  25.759   8.478 -0.0074  0.2137  0.2335
    1W        W31002  18.838  15.002   8.895  0.0592 -0.1292  0.2530
    1W        W31003   2.406  11.633   1.110 -0.0914 -0.5453 -0.0317
    1W        W31004   2.735   3.259   2.267  0.0443  0.1171 -0.4833
    1W        W31005  13.198   2.482   2.262 -0.2978 -0.0315  0.1303
    1W        W31006  12.110  24.670   9.703  0.0255 -0.0781 -0.1078
    1W        W31007   8.033  24.460   8.354 -0.0245 -0.2340 -0.0388
    1W        W31008   6.163   1.070   3.316  0.2302 -0.2743 -0.1718
    1W        W31009   3.649   5.089   7.239  0.1694  0.0969  0.0413
    1W        W31010   6.576   2.888   2.497  0.2466 -0.1666 -0.0284
    1W        W31011  24.328   4.799   1.515 -0.0146  0.0244 -0.1366
    1W        W31012   4.364  18.974   0.574 -0.1751  0.0143 -0.0177
    1W        W31013  14.005   8.260   1.411  0.2626 -0.2841  0.0274
    1W        W31014   9.160   6.401   8.341 -0.2710  0.0838  0.0025
    1W        W31015  11.968  13.418   1.746  0.5881  0.1872  0.1043
    1W        W31016  19.569   4.346   7.661  0.2853 -0.0484 -0.1048
    1W        W31017  16.612  18.738   7.713  0.2375  0.2782 -0.2732
    1W        W31018   2.309  22.235   6.804 -0.1766  0.0920  0.1645
    1W        W31019   3.294   5.831   7.549 -0.0935 -0.0917 -0.3923
    1W        W31020  15.830  14.245   8.886  0.0112  0.1281 -0.1102
    1W        W31021   2.850  19.284   7.709  0.2767  0.0945 -0.2517
    1W        W31022  11.106   5.197   8.431  0.0210 -0.1475 -0.0710
    1W        W31023  12.369   8.004   8.713  0.0070  0.0104  0.3900
    1W        W31024   6.363   0.053   7.390 -0.2428 -0.1898  0.0299
    1W        W31025   5.306   4.004   3.411  0.0975 -0.1943  0.0559
    1W        W31026   2.840  18.373   5.746  0.0403  0.0291  0.2819
    1W        W31027  18.321   2.395   7.426 -0.0688  0.0416  0.0950
    1W        W31028  22.854   6.349   7.940  0.1308 -0.0452  0.0479
    1W        W31029   8.329  11.886   9.046 -0.4103 -0.0865  0.1151
    1W        W31030   1.018  10.759   9.573 -0.1723  0.2376  0.2668
    1W        W31031  23.818   1.841   6.219  0.0397  0.2913 -0.0130
    1W        W31032   4.615  18.697   8.001  0.2642  0.1214  0.0318
    1W        W31033  17.352  22.197   3.852  0.2454 -0.2019  0.1036
    1W        W31034  11.833   1.988   8.543  0.1124 -0.2550  0.1150
    1W        W31035   9.086   6.079   2.439  0.2357  0.2955  0.0544
    1W        W31036   8.560  18.318   1.855  0.1635 -0.1643 -0.2278
    1W        W31037  10.638   3.965   7.636 -0.0721  0.1327 -0.0126
    1W        W31038  22.671   7.466   1.804  0.0432  0.1424 -0.2030
    1W        W31039  14.554  24.439   2.480  0.2028 -0.1710 -0.0271
    1W        W31040  11.451   9.939   1.172 -0.1976  0.1491  0.3132
    1W        W31041  26.834  24.334   2.550  0.0317 -0.0494  0.1051
    1W        W31042   7.306  22.717   1.821  0.2300  0.0522  0.3154
    1W        W31043  22.129  15.322   8.514  0.4011 -0.4191  0.2333
    1W        W31044   7.937   2.481   2.714 -0.2375  0.1815 -0.1165
    1W        W31045  11.773  27.417   2.071 -0.0830  0.2795  0.2760
    1W        W31046   3.744  13.028   9.255 -0.0650  0.0895 -0.1314
    1W        W31047  18.681  10.953   1.449  0.2163  0.0286  0.0047
    1W        W31048   9.410  18.345   0.837  0.1811 -0.0276 -0.0681
    1W        W31049  20.638   4.980   0.389 -0.0568  0.4346  0.3753
    1W        W31050   5.450  18.566   8.482  0.2194  0.0210 -0.1410
    1W        W31051  27.753  13.545   6.972 -0.0496  0.0635 -0.2300
    1W        W31052  20.554  24.727   1.453 -0.0497 -0.2246  0.3088
    1W        W31053  22.087  28.029   0.963  0.1302 -0.1344 -0.3797
    1W        W31054  11.021  26.606   2.150  0.0112 -0.0191  0.4513
    1W        W31055  23.858  26.910   8.628 -0.1585  0.0083  0.1961
    1W        W31056  24.724   1.432   2.020  0.0786 -0.2246 -0.0662
    1W        W31057  28.307  11.069   0.037  0.2339  0.0759  0.0904
    1W        W31058  15.783  23.663   0.973 -0.2830  0.1116  0.2540
    1W        W31059   5.446  15.169   8.225  0.0178  0.0447  0.1494
    1W        W31060   1.463   4.459   9.417 -0.4463 -0.0484 -0.2384
    1W        W31061   4.246   7.225   3.629  0.2953  0.0260 -0.0826
    1W        W31062   3.608  16.290   2.056 -0.1857 -0.1135 -0.1670
    1W        W31063  11.385  17.615   1.769  0.3381  0.0528  0.2525
    1W        W31064   9.149  17.208   9.891 -0.1776  0.0900  0.0831
    1W        W31065   3.557   7.548   2.381 -0.2670  0.0757 -0.1007
    1W        W31066  28.231  24.736   7.911 -0.1381 -0.0967 -0.3346
    1W        W31067   0.136  17.612   0.985 -0.0094  0.2174 -0.0860
    1W        W31068  18.820  26.848   9.135  0.3563 -0.2677  0.3626
    1W        W31069  26.446  23.662   9.317  0.2004 -0.1719 -0.2318
    1W        W31070   3.531  28.475   8.619  0.1311 -0.0942  0.2029
    1W        W31071  14.578  13.844   0.021  0.0109  0.0797 -0.2697
    1W        W31072  19.485  23.595   7.642  0.4282  0.0945 -0.0772
    1W        W31073   1.731  16.022   1.348 -0.1666 -0.2627 -0.1587
    1W        W31074  18.825  14.978   0.888 -0.0887  0.0597  0.0156
    1W        W31075  17.372  24.823   7.649 -0.0621 -0.2391  0.2426
    1W        W31076  14.941   7.292   8.608 -0.1200 -0.1232 -0.3446
    1W        W31077  13.196   0.484   0.642 -0.1577  0.1295  0.0132
    1W        W31078   2.400   8.522   7.528 -0.0685  0.1413  0.2331
    1W        W31079  13.477  23.655   1.912  0.0303 -0.1004 -0.0243
    1W        W31080  21.702  24.277   6.595  0.0842  0.1658  0.0112
    1W        W31081   1.982  25.587   6.912 -0.0031 -0.0871 -0.1327
    1W        W31082  13.719   0.280   7.659 -0.2244  0.2038  0.0719
    1W        W31083  10.209   2.042   9.140  0.0198  0.1031  0.0706
    1W        W31084   3.177   2.922   0.982 -0.0016 -0.4452 -0.1803
    1W        W31085  28.422   8.019   0.537  0.0784  0.0833 -0.2672
    1W        W31086   0.556   6.276   5.785  0.1272  0.1056 -0.0470
    1W        W31087  12.320   7.690   3.538 -0.4228 -0.0325 -0.0298
    1W        W31088  13.898  13.048   8.949  0.1411  0.1866  0.1349
    1W        W31089  11.921  28.544   2.277  0.2993 -0.1929 -0.3016
    1W        W31090   8.245  19.507   0.306  0.2958  0.1627  0.1618
    1W        W31091   4.531  21.248   9.128 -0.1279  0.0779 -0.0165
    1W        W31092  17.403   5.387   1.085  0.2795 -0.3740  0.1509
    1W        W31093  24.608  12.444   2.182  0.0563  0.1941  0.1710
    1W        W31094   6.075  17.419   8.966 -0.2265  0.1850 -0.3193
    1W        W31095   1.934   3.821   7.485 -0.0798  0.1771  0.1643
    1W        W31096   3.112  10.132   7.930  0.1519  0.1350  0.1023
    1W        W31097  20.830  26.765   7.719 -0.2449  0.0060  0.0746
    1W        W31098  23.263  13.510   9.819 -0.1758 -0.0265 -0.1329
    1W        W31099   0.852  12.195   7.217  0.1155 -0.0712 -0.0714
    1W        W31100  15.887  23.196   9.774 -0.1316  0.3331  0.3084
    1W        W31101  13.457  25.471   8.437 -0.4708 -0.2280  0.1408
    1W        W31102   4.971  16.186   9.298  0.2661  0.1869 -0.0547
    1W        W31103   6.357   9.585   7.412  0.0702 -0.1275 -0.1400
    1W        W31104  15.374  15.070   9.411 -0.1410 -0.2171 -0.1096
    1W        W31105  27.260   8.670   2.590  0.0562 -0.0399 -0.2327
    1W        W31106  21.934  15.012   7.443 -0.0738  0.1245 -0.1036
    1W        W31107  15.269   3.125   2.830 -0.0762  0.0171 -0.2017
    1W        W31108  17.052  15.508   8.928 -0.2485  0.0342  0.1141
    1W        W31109  16.651  21.570   8.587 -0.0579  0.1546  0.0144
    1W        W31110   1.691  12.396   1.222  0.2619 -0.3466 -0.0482
    1W        W31111  27.237  19.246   2.174 -0.2660 -0.0229 -0.2711
    1W        W31112   6.820  11.401   8.079 -0.0445 -0.1446 -0.0789
    1W        W31113  20.265  24.731   2.446 -0.1868 -0.0831  0.0430
    1W        W31114  13.663   5.179   0.906  0.2454 -0.0201  0.1971
    1W        W31115   4.330   7.862   9.510 -0.0835  0.1876  0.0651
    1W        W31116   9.808   6.951   8.322 -0.1353 -0.1795 -0.1452
    1W        W31117   9.319   1.544   3.592 -0.0003  0.2246  0.0629
    1W        W31118  21.425  25.225   2.506  0.2073  0.0321 -0.1119
    1W        W31119  12.498  16.928   8.784  0.0771 -0.0648  0.0389
    1W        W31120  28.534   0.935   9.437  0.1214 -0.2096  0.0439
    1W        W31121   5.606   9.737   1.201  0.3902  0.0273  0.0473
    1W        W31122   1.837  13.776   2.297 -0.3397 -0.3000  0.0201
    1W        W31123  16.001  16.417   8.159 -0.1387 -0.0301  0.3461
    1W        W31124  19.399  27.163   6.523  0.0881 -0.1389  0.2053
    1W        W31125  17.114  28.619   3.120 -0.1383 -0.0034 -0.0973
    1W        W31126  23.027  12.018   7.324 -0.0946  0.1467  0.2006
    1W        W31127  19.044  23.311   7.524  0.2367  0.3161  0.3671
    1W        W31128  28.472  25.745   9.240 -0.0756  0.4229 -0.3261
    1W        W31129  11.290  22.181   8.974 -0.1509  0.0613  0.1119
    1W        W31130  12.947   7.470   2.932  0.0386 -0.1871  0.1584
    1W        W31131  15.692  15.305   2.022  0.1652  0.0525  0.1919
    1W        W31132   3.749   7.214   8.298  0.2781 -0.0852 -0.1166
    1W        W31133   2.509   7.467   7.498 -0.0607  0.0930 -0.1610
    1W        W31134  27.000  18.864   1.537  0.0155 -0.3468 -0.0777
    1W        W31135   3.941  14.955   6.792 -0.1645  0.1069 -0.1797
    1W        W31136  22.415  14.534   9.384 -0.1964 -0.0432 -0.2094
    1W        W31137  11.914   3.466   0.812 -0.1890 -0.3179  0.0150
    1W        W31138   6.406   6.040   3.262  0.4357 -0.1885 -0.1917
    1W        W31139  22.008   6.364   1.027 -0.1327  0.0586  0.1563
    1W        W31140   2.020  23.155   6.394 -0.1678  0.2828 -0.0408
    1W        W31141   7.715  13.096   2.289  0.0259 -0.1185 -0.1909
    1W        W31142   0.701  11.935   6.760 -0.0053  0.0422  0.0086
    1W        W31143  20.627  20.476   7.434  0.2232  0.1159  0.1147
    1W        W31144   1.499   5.219   0.237 -0.2810 -0.0298  0.0873
    1W        W31145  14.597  12.232   8.559 -0.0984  0.0484 -0.2576
    1W        W31146  21.183  10.955   1.437  0.1283  0.1202  0.0176
    1W        W31147  11.073   6.343   1.048 -0.0538 -0.1350  0.0414
    1W        W31148   9.589  11.055   7.876  0.2882  0.0403 -0.1227
    1W        W31149  20.538  27.537   2.231 -0.0622  0.0714  0.1984
    1W        W31150   2.575  14.702   3.086  0.1961 -0.1085  0.1575
    1W        W31151  26.589   6.794   9.288 -0.1383  0.1683  0.2558
    1W        W31152  19.032  28.142   7.455 -0.0928  0.3118  0.1662
    1W        W31153   6.784   4.852   7.693  0.0528  0.0633  0.0205
    1W        W31154  27.887   8.160   1.067  0.1492 -0.0278  0.0857
    1W        W31155   8.710   0.835   2.600 -0.1673 -0.2036  0.0724
    1W        W31156   1.785  10.847   7.984  0.1739  0.0711  0.2216
    1W        W31157  21.474  23.383   0.893  0.1544  0.0429  0.0238
    1W        W31158  26.283   2.697   0.644  0.2026 -0.0950 -0.1146
    1W        W31159   7.949   6.157   0.410 -0.0740  0.2433 -0.0786
    1W        W31160   3.331   8.160   8.297 -0.1270  0.0322  0.0900
    1W        W31161  28.109  27.481   1.651 -0.1837  0.0425  0.1615
    1W        W31162  20.622  19.958   2.217  0.0333  0.0024 -0.0365
    1W        W31163  16.852  25.400   2.005 -0.0050  0.2114  0.1233
    1W        W31164  16.740  24.259   8.200 -0.1248 -0.1181 -0.3915
    1W        W31165  22.745  24.778   0.465  0.1928 -0.2219  0.0722
    1W        W31166  23.643   2.183   8.742  0.3222  0.2379  0.0735
    1W        W31167   0.543   7.436   2.186 -0.1420 -0.0830  0.1914
    1W        W31168  28.215  10.851   8.958  0.0257  0.0314 -0.1406
    1W        W31169  28.627  16.828   0.587  0.2664 -0.0690 -0.3181
    1W        W31170  11.667   9.362   8.854  0.3557 -0.0315 -0.0799
    1W        W31171  15.434   7.586   8.470  0.1019  0.0081  0.0073
    1W        W31172  23.900  17.483   9.264  0.1892 -0.0521 -0.0712
    1W        W31173   3.501  10.229   1.181  0.0008 -0.0387 -0.1230
    1W        W31174   3.662   4.158   7.399  0.1601 -0.0144  0.1186
    1W        W31175   5.390   2.991   2.001  0.0154 -0.3197  0.0095
    1W        W31176  22.056  15.661   8.043  0.3039  0.2361 -0.0217
    1W        W31177  18.920  15.514   9.309 -0.0533  0.1057 -0.4247
    1W        W31178   4.460  16.521   8.898  0.0786 -0.1840 -0.2886
    1W        W31179   1.762  24.180   2.170 -0.0481 -0.2162 -0.0441
    1W        W31180  18.621  21.983   3.181  0.1848  0.1261  0.4171
    1W        W31181   3.606  24.839   1.970 -0.4052  0.1313  0.0681
    1W        W31182  10.033   7.658   9.021  0.1512  0.1257  0.3222
    1W        W31183  17.850  17.459   1.433  0.0811  0.1036 -0.0827
    1W        W31184  26.911  21.153   7.172 -0.0337  0.0322 -0.1851
    1W        W31185   5.900  22.102   6.575 -0.0364 -0.3709 -0.0204
    1W        W31186  13.741  20.949   0.617  0.2681  0.0896  0.0133
    1W        W31187  16.225  20.203   2.820  0.1630 -0.1638 -0.2035
    1W        W31188  20.223   5.907   0.293  0.1407  0.0004 -0.3195
    1W        W31189  14.403  13.138   0.223 -0.1838 -0.0656  0.0257
    1W        W31190   6.616   6.442   3.992 -0.2233 -0.1362  0.1019
    1W        W31191   7.247  23.666   7.432  0.1826  0.0418 -0.1692
    1W        W31192  13.669  22.826   0.909 -0.0109 -0.1614 -0.0999
    1W        W31193   7.237  24.206   8.145  0.2470  0.1086  0.2559
    1W        W31194   8.927   7.824   3.060 -0.1838  0.3254  0.1006
    1W        W31195  25.618   8.199   8.265 -0.1315 -0.0565  0.4152
    1W        W31196  20.183  20.913   0.414  0.0381  0.1626 -0.1959
    1W        W31197   5.891  26.002   0.971  0.1769  0.1860  0.0012
    1W        W31198  19.982   4.423   1.234 -0.1627  0.0333 -0.2403
    1W        W31199   8.868  27.014   7.805 -0.0483  0.1616 -0.1042
    1W        W31200   9.378  12.601   9.319  0.0423  0.0932  0.0913
    1W        W31201  14.720   5.543   2.482  0.1422 -0.3168  0.0391
    1W        W31202  12.416  20.994   0.035 -0.1747  0.1514 -0.0780
    1W        W31203   9.112  21.986   2.923 -0.3203 -0.0820  0.1739
    1W        W31204  26.469  10.848   0.569  0.4136  0.0174  0.2454
    1W        W31205   9.371   1.310   8.192 -0.0500  0.2099 -0.0356
    1W        W31206  25.811  17.297   7.075  0.0512 -0.1829 -0.0645
    1W        W31207   6.517  24.199   0.379 -0.2272  0.1357  0.0544
    1W        W31208  23.439  26.567   7.270  0.0841 -0.0374  0.1919
    1W        W31209  27.863  19.882   1.444  0.1713  0.3678  0.3527
    1W        W31210  25.831   1.990   7.567  0.0398 -0.2762 -0.2751
    1W        W31211   7.046  25.573   2.364 -0.0201 -0.1548 -0.2226
    1W        W31212  24.943   6.904   8.654  0.3534  0.2354 -0.0220
    1W        W31213  21.112  11.749   0.401 -0.0005 -0.2423 -0.0590
    1W        W31214   1.456  18.664   5.934 -0.0144  0.4366  0.3103
    1W        W31215  16.943  21.968   1.683  0.4057 -0.1305  0.3314
    1W        W31216  20.198  12.947   2.190 -0.2069  0.0812 -0.0083
    1W        W31217   6.916   6.494   2.671 -0.0805  0.2347 -0.1332
    1W        W31218  20.155   7.947   7.066  0.2425  0.1190 -0.1263
    1W        W31219   6.053  23.033   1.749 -0.0123 -0.1969 -0.0921
    1W        W31220  17.681  11.171   1.423  0.1011  0.0285  0.0399
    1W        W31221  24.659  14.582   1.067  0.1526 -0.0599  0.1318
    1W        W31222  27.994   8.784   1.864 -0.0839 -0.2061 -0.2210
    1W        W31223  10.831   9.967   1.705 -0.0704 -0.3945  0.0530
    1W        W31224  16.805  23.757   0.158  0.0295  0.0360  0.0917
    1W        W31225  12.906   1.768   3.109 -0.0240 -0.0299  0.0794
    1W        W31226  28.218  13.338   6.780  0.2869 -0.1272  0.2966
    1W        W31227  22.735   9.341   1.140 -0.4389  0.1690  0.1667
    1W        W31228  25.048  26.533   2.508 -0.2097 -0.2183 -0.0202
    1W        W31229  25.014  11.922   6.835 -0.1112 -0.0827 -0.2945
    1W        W31230  25.273  14.539   7.229 -0.2560 -0.0626 -0.0448
    1W        W31231  27.424   1.940   6.266 -0.1358  0.3796  0.0391
    1W        W31232   2.628  20.352   7.024  0.0212 -0.1451 -0.0194
    1W        W31233   9.070   7.349   2.908 -0.1942 -0.1498 -0.2023
    1W        W31234  13.743  21.800   3.341 -0.0548  0.0068 -0.2386
    1W        W31235  25.626   4.845   7.462 -0.0260 -0.0756  0.2432
    1W        W31236  18.485   6.275   8.553 -0.2816 -0.0004  0.1112
    1W        W31237  17.228  12.219   2.009 -0.1944  0.1866  0.1414
    1W        W31238   8.887  16.837   8.348 -0.0905 -0.0807  0.1424
    1W        W31239  26.301   9.166   9.198  0.1467  0.5444 -0.3222
    1W        W31240   6.918   5.396   9.948  0.1245  0.2743 -0.0794
    1W        W31241  14.304  17.038   9.632  0.0952 -0.0951  0.1776
    1W        W31242  19.491  11.657   0.064 -0.0557 -0.2186 -0.2325
    1W        W31243  15.344   2.302   3.356 -0.2935  0.0844 -0.1224
    1W        W31244   7.412   9.878   2.055  0.0158 -0.3168  0.0321
    1W        W31245  14.008  27.753   0.161  0.1253  0.2261 -0.1533
    1W        W31246   6.197  15.131   8.907 -0.3844  0.1238  0.1213
    1W        W31247  18.683   9.310   8.007  0.3142 -0.0241 -0.1774
    1W        W31248   9.824   0.856   8.204  0.1838  0.0051  0.1778
    1W        W31249  24.693  10.465   7.274  0.1249  0.2218  0.1594
    1W        W31250  21.297  20.402   8.219  0.2427 -0.1575  0.0490
    1W        W31251  23.052  26.848   7.225  0.1410  0.2158 -0.1011
    1W        W31252   9.626  23.424   0.274  0.3382  0.1066 -0.3383
    1W        W31253  22.667   9.987   9.091 -0.1617 -0.0928 -0.1546
    1W        W31254  16.369   7.113   7.559 -0.1213  0.5000 -0.3088
    1W        W31255  19.351   5.641   1.043 -0.0964  0.2789 -0.0083
    1W        W31256  21.230   0.365   2.688 -0.0890 -0.2455 -0.2492
    1W        W31257  24.444   8.634   6.645 -0.1921  0.0647  0.1425
    1W        W31258  10.423  19.610   9.868  0.1629  0.0145 -0.2189
    1W        W31259  19.730   0.259   8.380  0.1708 -0.0751  0.2674
    1W        W31260   6.017  11.389   0.382 -0.2268  0.0067  0.0035
    1W        W31261  22.860   2.105   0.728 -0.0635  0.2483 -0.1683
    1W        W31262  13.594   1.461   8.611  0.1072  0.0145  0.0252
    1W        W31263  22.324  12.543   7.569 -0.1686  0.0220  0.0323
    1W        W31264  13.813  16.591   9.497 -0.0518  0.0115 -0.2995
    1W        W31265  23.502  25.134   7.728  0.0984  0.0314 -0.1027
    1W        W31266  16.260   0.834   2.662 -0.1402  0.0765  0.1539
    1W        W31267  11.885   7.090   0.566  0.1223 -0.1620  0.0417
    1W        W31268   3.388  19.371   5.626 -0.0050 -0.1502 -0.1068
    1W        W31269   2.859   8.921   2.342 -0.2199  0.0874  0.0639
    1W        W31270  24.185  10.810   5.976  0.2112 -0.0862  0.0325
    1W        W31271  21.193  24.236   9.581 -0.1395  0.0698 -0.0187
    1W        W31272  18.332  26.984   8.097 -0.0339 -0.0932  0.3678
    1W        W31273   9.670  17.852   8.839  0.0143 -0.0053 -0.0171
    1W        W31274  27.677  21.173   2.413  0.1254  0.2178  0.1226
    1W        W31275  22.031   8.504   7.598 -0.2552  0.2420 -0.1686
    1W        W31276   1.025  20.933   5.913 -0.0576  0.0386 -0.0305
    1W        W31277  16.360   7.544   2.298  0.0557  0.1889  0.1637
    1W        W31278   2.230   7.128   1.624  0.0068 -0.1482  0.1915
    1W        W31279  12.322   9.950   1.747  0.0888  0.1507  0.1769
    1W        W31280   2.328  23.249   6.001 -0.1397  0.1268  0.2135
    1W        W31281  17.815  11.642   7.521  0.0722 -0.1268 -0.2499
    1W        W31282  23.186   3.525   1.671  0.1214  0.0502  0.0446
    1W        W31283   4.453  14.387   6.495  0.0765 -0.0168  0.1735
    1W        W31284  15.428   2.943   0.088 -0.1318 -0.1252 -0.2042
    1W        W31285   0.077  10.295   6.997  0.1105  0.2260 -0.0748
    1W        W31286   9.472  23.911   7.331 -0.0827  0.1950  0.1395
    1W        W31287  16.663  12.498   0.585  0.0711  0.3170  0.1209
    1W        W31288  10.631   5.962   0.768  0.5622 -0.0582  0.2594
    1W        W31289   9.178   8.237   8.804 -0.0481 -0.0355 -0.2042
    1W        W31290  23.740   7.439   8.982 -0.1352 -0.2632  0.1192
    1W        W31291  16.032  20.198   8.359 -0.0008 -0.1993  0.0159
    1W        W31292   8.729   7.004   2.662  0.1386  0.1104  0.3325
    1W        W31293  16.556  25.866   7.711 -0.1891 -0.0576 -0.2558
    1W        W31294   5.573  21.700   6.928 -0.0249  0.0549 -0.0910
    1W        W31295   1.713   7.290   1.604  0.5097 -0.1364  0.0279
    1W        W31296  16.942  24.538   2.320  0.1536  0.0943 -0.3367
    1W        W31297   5.032   4.591   8.840 -0.2938 -0.0644  0.0045
    1W        W31298  22.991  24.721   7.268 -0.1426 -0.1592 -0.0105
    1W        W31299  23.844  23.808   1.188  0.0211 -0.0234  0.0149
    1W        W31300   0.113  14.430   0.793 -0.0207  0.0713  0.2286
    1W        W31301  26.792  11.324   2.069 -0.1184  0.0035 -0.1725
    1W        W31302  22.815  12.979   9.181 -0.1064  0.0176 -0.1290
    1W        W31303   2.668   4.783   7.962  0.0798 -0.0051  0.1487
    1W        W31304  21.203  13.944   0.394 -0.2149 -0.0321 -0.0709
    1W        W31305  20.001  10.208   1.489  0.1736 -0.2298 -0.2659
    1W        W31306  17.412   5.014   8.529 -0.1714 -0.0417 -0.2063
    1W        W31307  26.365  26.946   8.481 -0.1855  0.2873 -0.3056
    1W        W31308  24.868   0.696   8.719  0.1397  0.0915 -0.0920
    1W        W31309   1.820   4.551   8.084  0.1820  0.0246  0.0989
    1W        W31310  16.034   3.592   8.938 -0.4888  0.1286 -0.2187
    1W        W31311  24.241  24.377   9.133 -0.0346  0.2064  0.1447
    1W        W31312  22.464   6.159   1.538  0.0793 -0.0508  0.0785
    1W        W31313  12.818   4.470   9.946 -0.0330 -0.0493  0.1847
    1W        W31314  21.793  14.628   0.901  0.3120  0.0974  0.0171
    1W        W31315   1.102  21.557   7.807 -0.3662 -0.1272  0.1944
    1W        W31316   6.004  23.733   0.029 -0.0207 -0.3361  0.0069
    1W        W31317  10.781   9.112   0.643 -0.1879  0.1395  0.0252
    1W        W31318   2.737  15.888   2.007 -0.0431 -0.0932  0.1461
    1W        W31319   9.144   3.626   1.419  0.0142  0.1744  0.0750
    1W        W31320   4.988   1.994   2.074  0.2646 -0.3011  0.0537
    1W        W31321   5.108  10.498   1.062  0.1052 -0.2534 -0.0094
    1W        W31322  11.153  11.141   2.642  0.0250  0.0001  0.0192
    1W        W31323  15.059  25.434   8.234  0.1042  0.0219  0.3103
    1W        W31324   9.824  10.839   9.693 -0.0299  0.0201 -0.2474
    1W        W31325  27.302  11.900   0.136 -0.3747 -0.0168  0.2221
    1W        W31326  27.852  12.495   9.149  0.0695 -0.1561  0.1870
    1W        W31327  22.502   8.594   7.651 -0.0852  0.0757 -0.0047
    1W        W31328  23.282  22.705   9.193 -0.0569 -0.2684 -0.0101
    1W        W31329  18.922   3.652   0.143  0.0039 -0.1032  0.0306
    1W        W31330   5.557  21.487   1.650 -0.0091  0.1233  0.0098
    1W        W31331  17.723   3.265   8.448  0.0181 -0.0504 -0.0585
    1W        W31332   6.950   0.959   1.052 -0.2581 -0.4056 -0.2485
    1W        W31333  18.975   3.232   8.007 -0.0905 -0.3731  0.1109
    1W        W31334   2.695  17.226   8.250 -0.1084  0.1652 -0.1310
    1W        W31335   0.798  24.011   1.150  0.0118  0.2436  0.2242
    1W        W31336   7.552  23.975   1.193  0.0594 -0.1765 -0.1012
    1W        W31337  10.371   9.751   1.895 -0.0207 -0.0007 -0.3589
    1W        W31338   1.842   3.423   2.824  0.2004  0.0327  0.1054
    1W        W31339   7.985  10.003   0.885 -0.3867 -0.2840  0.1934
    1W        W31340  27.476  22.682   8.881  0.0992  0.0047 -0.1529
    1W        W31341  10.540   2.081   1.516  0.1890  0.2802 -0.2530
    1W        W31342   8.996  18.122   9.640 -0.1584  0.1592  0.2594
    1W        W31343  26.843   4.947   8.348 -0.1560 -0.2164 -0.0381
    1W        W31344  10.018   4.903   3.036  0.0585  0.1312  0.0079
    1W        W31345   8.106  13.450   0.019 -0.5112  0.0584 -0.0856
    1W        W31346  16.227  20.293   3.377  0.1625 -0.1676 -0.0984
    1W        W31347   0.246  28.464   7.057 -0.1039  0.0642  0.0035
    1W        W31348  24.910   8.375   3.155  0.1306  0.0561  0.0390
    1W        W31349  11.032  10.251   0.404 -0.1509 -0.3413  0.0088
    1W        W31350   4.820   7.947   1.660  0.0050  0.2132  0.0319
    1W        W31351   4.942  20.303   9.374  0.1997  0.0899 -0.0608
    1W        W31352   7.656  22.827   7.587 -0.2770  0.0485 -0.1713
    1W        W31353  13.137  24.928   0.893  0.0561  0.1807 -0.4745
    1W        W31354  18.451   0.559   2.716 -0.0787 -0.0194 -0.1311
    1W        W31355   8.139   9.519   0.615 -0.0272 -0.1780  0.0749
    1W        W31356   3.335   9.995   9.532  0.1360 -0.0496  0.2545
    1W        W31357  26.625  14.442   7.595 -0.1902 -0.2153  0.0879
    1W        W31358   0.505  23.688   8.867  0.2453 -0.0433  0.1740
    1W        W31359  15.739   5.753   8.795 -0.0473  0.2991  0.3138
    1W        W31360  17.499  26.639   2.747 -0.3900  0.3263  0.0421
    1W        W31361  24.861  23.054   1.795  0.2709 -0.1865 -0.0795
    1W        W31362  26.846   9.954   0.970 -0.1352 -0.0343  0.0840
    1W        W31363  12.770   8.635   9.072  0.1738  0.1147 -0.2164
    1W        W31364  27.900  28.206   9.529  0.0391  0.3820  0.1248
    1W        W31365  13.438  10.376   8.187  0.1385 -0.0886 -0.2089
    1W        W31366  18.437   4.462   3.351 -0.6263 -0.0837 -0.1980
    1W        W31367  26.222  17.462   9.007  0.1310  0.5153 -0.0692
    1W        W31368  24.197  14.893   8.605 -0.1649 -0.1794  0.0870
    1W        W31369  25.661  11.936   0.953  0.0576 -0.0810 -0.1732
    1W        W31370  16.596  15.549   9.137  0.1949  0.1113  0.2477
    1W        W31371  27.123  21.943   7.598 -0.0006 -0.0252 -0.0532
    1W        W31372  16.426   1.363   8.995 -0.0286 -0.0429 -0.1009
    1W        W31373   6.896   3.786   2.063 -0.0134 -0.0240  0.3498
    1W        W31374  20.238   2.166   1.153  0.3890  0.1986  0.1469
    1W        W31375  26.628  23.761   2.549 -0.0504 -0.2107  0.1802
    1W        W31376  19.963  25.017   9.485  0.3313  0.3789  0.0318
    1W        W31377  23.932   7.402   0.451  0.0226 -0.3769 -0.0515
    1W        W31378  25.543  17.262   9.751  0.0364  0.3243  0.1671
    1W        W31379   8.009   4.824   0.706  0.2355 -0.0057  0.1739
    1W        W31380  23.625   2.482   1.268 -0.3055 -0.1448 -0.3380
    1W        W31381  15.398  26.973   1.779 -0.1245  0.0878 -0.0082
    1W        W31382  28.113  10.230   1.130 -0.0946  0.2759  0.0556
    1W        W31383  19.111  25.198   9.718  0.1607 -0.0549 -0.3075
    1W        W31384   0.088   2.753   0.513  0.0439 -0.1143 -0.0603
    1W        W31385   2.316   9.606   7.942 -0.1679 -0.0665 -0.1950
    1W        W31386  10.301  13.990   8.303 -0.2388 -0.0928  0.2507
    1W        W31387   1.326  27.082   7.301  0.1036  0.0239 -0.1562
    1W        W31388  18.800   7.984   1.926  0.0009 -0.1016  0.0154
    1W        W31389  20.732  16.616   1.895  0.0637 -0.1468  0.0262
    1W        W31390  15.875   2.914   2.905  0.0344  0.3040 -0.2252
    1W        W31391  18.303  23.029   7.991 -0.5415  0.1700 -0.0077
    1W        W31392   0.126  11.315   0.131  0.3098 -0.1309  0.0748
    1W        W31393   5.826  12.172   6.950  0.0432 -0.3534  0.0762
    1W        W31394  12.675   8.886   8.426  0.2248  0.3614 -0.0078
    1W        W31395   5.329  15.718   1.248  0.1806  0.1384  0.1555
    1W        W31396   8.534  22.280   0.406 -0.0143 -0.1434  0.2362
    1W        W31397  24.947   3.974   9.827  0.0377  0.3267 -0.0461
    1W        W31398  27.165  24.737   0.677  0.0676  0.2344 -0.1062
    1W        W31399  25.578  25.053   9.033  0.2060 -0.2005 -0.1713
    1W        W31400  14.546  16.451   7.927  0.2412  0.1379  0.0296
    1W        W31401   8.327   9.616   1.018 -0.0628 -0.1047 -0.0522
    1W        W31402  24.521  22.058   7.397  0.2788  0.2421 -0.0363
    1W        W31403  13.992  27.684   9.642  0.0151  0.0768  0.0792
    1W        W31404  17.232  26.971   7.754 -0.1138  0.0671  0.2566
    1W        W31405  23.151  27.873   2.388 -0.2211  0.2974  0.1156
    1W        W31406  19.601   7.100   2.590  0.1788 -0.0745 -0.0645
    1W        W31407  11.731  21.105   7.373 -0.2677  0.0593 -0.1823
    1W        W31408  15.506  18.614   2.412 -0.2045 -0.1518 -0.0416
    1W        W31409  25.603  24.439   0.724 -0.0353  0.3065  0.4625
    1W        W31410  12.685  27.158   1.321  0.4538  0.1269  0.2241
    1W        W31411   6.646  28.136   9.311  0.0296  0.0972 -0.2066
    1W        W31412  16.417   2.827   2.250 -0.1792  0.1209 -0.0114
    1W        W31413  28.711   4.342   2.169 -0.2908 -0.0863  0.1322
    1W        W31414  17.992   4.669   2.302  0.1020  0.2306 -0.3754
    1W        W31415   3.873  14.659   2.226  0.0190  0.1634  0.2354
    1W        W31416  17.342   9.636   0.606  0.2057 -0.0037 -0.4159
    1W        W31417   2.685  22.457   1.862  0.0183  0.1468 -0.0454
    1W        W31418  13.502   5.739   3.383  0.2043 -0.0556  0.0130
    1W        W31419   8.173  28.126   8.064 -0.2108  0.4340 -0.0181
    1W        W31420  12.728   8.657   0.481  0.0180  0.0434 -0.1179
    1W        W31421   1.368   1.088   0.499  0.2020  0.2173  0.0800
    1W        W31422  23.744  28.016   1.096 -0.0755 -0.1259 -0.0393
    1W        W31423  23.047   9.289   6.480  0.0863  0.0937 -0.0087
    1W        W31424  10.810  22.905   0.337 -0.0115 -0.0921 -0.1930
    1W        W31425  11.264  15.064   0.278  0.1964  0.0677  0.0224
    1W        W31426  19.120   5.653   9.625 -0.1288 -0.2155 -0.0819
    1W        W31427  14.223   2.127   4.343  0.2303  0.3169 -0.2834
    1W        W31428  25.540  23.277   7.897  0.1945 -0.0342  0.3196
    1W        W31429  23.060   7.232   0.685  0.2116  0.2302 -0.1346
    1W        W31430   6.383   4.477   9.823  0.0968 -0.2302  0.0471
    1W        W31431  23.375  14.721   9.935 -0.0065 -0.0438  0.3539
    1W        W31432  12.932  14.409   9.562  0.0480  0.3088  0.0624
    1W        W31433   8.128  20.957   6.710 -0.1956  0.1611 -0.0975
    1W        W31434   0.581  17.593   0.849 -0.1689 -0.1741 -0.2419
    1W        W31435   6.886  27.814   8.919 -0.0006 -0.1761  0.0229
    1W        W31436  11.505  12.027   3.180 -0.0167  0.0568 -0.0368
    1W        W31437  19.163   9.238   8.032 -0.2976  0.1004  0.0481
    1W        W31438   5.036   5.876   7.128  0.0790 -0.2114 -0.0871
    1W        W31439   9.855   6.133   8.615 -0.0512 -0.0029  0.0985
    1W        W31440  26.293  24.868   1.249 -0.0013 -0.3199  0.2849
    1W        W31441   9.264  20.423   8.387  0.0308 -0.0267 -0.0088
    1W        W31442  17.370  13.481   0.874  0.3660 -0.0735  0.0678
    1W        W31443   8.195  19.759   8.435 -0.1847 -0.0955  0.2392
    1W        W31444   9.154   8.120   0.114  0.1169 -0.3409  0.1728
    1W        W31445  23.284   6.795   2.552  0.2274 -0.0524 -0.2314
    1W        W31446  27.634   5.521   8.108 -0.0306  0.1910  0.4017
    1W        W31447  23.740  17.005   7.827  0.0382  0.4924 -0.1371
    1W        W31448   2.774  27.221   7.152 -0.2955  0.0400 -0.1912
    1W        W31449  20.354  21.579   2.376  0.0416 -0.1184  0.0165
    1W        W31450  11.522  19.019   0.340 -0.0922 -0.3418  0.1530
    1W        W31451  28.672  27.976   2.211  0.1306  0.1853 -0.0744
    1W        W31452  17.234  18.643   8.812 -0.3134 -0.0854 -0.0280
    1W        W31453  26.749  10.856   1.635 -0.1545  0.2336 -0.0112
    1W        W31454  27.478   6.871   7.491 -0.0308 -0.0840  0.1884
    1W        W31455  18.139   4.903   3.660  0.0677  0.2777 -0.2784
    1W        W31456  22.596   9.410   3.200 -0.1010 -0.1871 -0.1695
    1W        W31457  23.392   5.985   2.618 -0.2825 -0.1482 -0.1861
    1W        W31458   0.704  26.361   6.733 -0.0368 -0.1731 -0.4023
    1W        W31459  21.259  23.209   1.755 -0.1468 -0.0305  0.0440
    1W        W31460  17.149  16.096   0.866 -0.0101 -0.0967 -0.0346
    1W        W31461  26.091  13.265   8.671  0.1261  0.0806  0.0015
    1W        W31462  21.124   6.310   2.383 -0.0780 -0.0387  0.0586
    1W        W31463  28.274  10.712   8.516 -0.0199  0.1578 -0.2823
    1W        W31464  16.824   8.770   8.467 -0.1313  0.0690 -0.2335
    1W        W31465  16.957  21.213   2.259  0.0397  0.3061 -0.0481
    1W        W31466  24.672   1.821   2.296  0.1174  0.1845 -0.0705
    1W        W31467  24.093  17.588   7.205  0.1716 -0.2648 -0.1379
    1W        W31468  25.269  19.362   0.866 -0.1859  0.0280 -0.0349
    1W        W31469  15.804  26.722   1.095 -0.2091 -0.0255 -0.0238
    1W        W31470  27.820  17.903   2.324 -0.1923  0.2069  0.1619
    1W        W31471  26.733  26.280   2.521 -0.1581 -0.0664 -0.1399
    1W        W31472   6.751  19.846   0.124  0.1961 -0.1616 -0.4341
    1W        W31473   2.369  10.428   2.616  0.0809  0.1311  0.0292
    1W        W31474   4.865  17.577   7.113 -0.2612  0.0098  0.2153
    1W        W31475   2.683  14.671   6.291 -0.2005  0.0243  0.1026
    1W        W31476  17.746   4.235   0.039 -0.2382  0.0191 -0.2272
    1W        W31477   4.851  14.392   2.222  0.1288 -0.0295  0.1891
    1W        W31478   2.632  24.914   9.383 -0.0863 -0.1301 -0.1948
    1W        W31479  12.597  22.331   7.502 -0.1241  0.3183  0.0076
    1W        W31480  28.420  22.772   8.712  0.0111 -0.1909 -0.1306
    1W        W31481  23.618   9.225   9.094 -0.0470  0.3413 -0.2417
    1W        W31482  19.646  17.834   1.861  0.2153  0.0304 -0.3561
    1W        W31483  13.310   6.172   8.064  0.0400 -0.0813 -0.2822
    1W        W31484  16.756   8.876   0.345 -0.4678 -0.1583  0.0436
    1W        W31485  14.791   5.079   2.334  0.2724  0.1923  0.1231
    1W        W31486  27.877  15.472   0.175 -0.1879 -0.1229 -0.0807
    1W        W31487   5.751   1.325   0.412  0.3002 -0.3122 -0.0077
    1W        W31488   3.326  21.514   8.928  0.2597  0.0488 -0.2076
    1W        W31489   9.869  26.470   1.095 -0.0202  0.0478 -0.2313
    1W        W31490  14.818   2.067   3.296  0.0065  0.0369 -0.0449
    1W        W31491   0.376   1.530   2.645  0.3204  0.3817 -0.1415
    1W        W31492  12.511  22.824   7.224  0.1025 -0.1885 -0.1427
    1W        W31493   2.248  26.127   7.023 -0.3595 -0.2186 -0.1084
    1W        W31494   6.788  11.895   8.059  0.2958  0.0254 -0.1740
    1W        W31495  20.626  27.712   9.020  0.0273 -0.0732  0.1306
    1W        W31496  12.904  25.681   1.332 -0.0847 -0.0594  0.1703
    1W        W31497   3.186  12.392   7.476 -0.0622  0.1617 -0.1681
    1W        W31498   4.875   6.183   2.476 -0.0246 -0.0557 -0.0221
    1W        W31499  15.825   9.433   8.441 -0.1800  0.3041  0.2327
    1W        W31500   1.461   3.392   7.067 -0.1547  0.1762  0.0096
    1W        W31501  24.911   3.744   6.829  0.0635 -0.2054  0.1315
    1W        W31502  20.180  14.186   9.514  0.1458 -0.2159 -0.2798
    1W        W31503   9.796  24.688   9.884 -0.0845  0.1449 -0.2623
    1W        W31504   5.461  24.357   5.878  0.1418  0.2963  0.0443
    1W        W31505   5.290   0.228   1.677 -0.1597 -0.2097  0.2351
    1W        W31506  16.514  10.343   8.706 -0.0520  0.0337  0.2097
    1W        W31507  10.239  22.321   8.044  0.1241 -0.2503  0.2182
    1W        W31508  17.674  17.793   9.419 -0.1421 -0.2620  0.1433
    1W        W31509   2.863  21.516   6.304 -0.0563 -0.4312 -0.0256
    1W        W31510   0.629  28.608   8.218 -0.2964  0.0740  0.1544
    1W        W31511  11.506  26.551   1.679 -0.2090  0.2917 -0.2470
    1W        W31512  19.545   0.049   3.174  0.0814  0.0634 -0.2065
    1W        W31513  18.024  17.206   1.953 -0.2297 -0.2436 -0.2058
    1W        W31514  23.641  28.330   6.924  0.3930  0.1694 -0.0532
    1W        W31515   9.653  28.526   9.382 -0.1296 -0.0397 -0.3181
    1W        W31516   3.373  17.593   8.801 -0.2636  0.0243 -0.2243
    1W        W31517  26.190  16.409   8.119  0.0425 -0.1219 -0.0514
    1W        W31518   7.498  22.921   9.937  0.0923 -0.2629  0.0392
    1W        W31519  26.958   0.393   3.168  0.1845  0.0008  0.2574
    1W        W31520   8.219   3.824   8.535 -0.0449  0.3574 -0.0112
    1W        W31521  13.477  26.430   2.440 -0.1582 -0.0662  0.1713
    1W        W31522  22.433   3.499   6.571 -0.2779  0.0302  0.2250
    1W        W31523  21.013  14.764   9.394  0.3488 -0.2708  0.0498
    1W        W31524  22.030   5.676   8.762 -0.1728 -0.2546  0.0081
    1W        W31525   9.691  22.381   7.497 -0.3198  0.1770 -0.0873
    1W        W31526  25.406  19.592   6.734 -0.1392 -0.0053  0.1172
    1W        W31527  11.802  14.471   0.472 -0.2341 -0.0628 -0.2621
    1W        W31528  18.401  13.261   0.572 -0.0041  0.0999 -0.2627
    1W        W31529  20.820  25.572   9.700  0.2789  0.0276  0.2808
    1W        W31530  17.100  19.377   8.705 -0.1585 -0.3750  0.0192
    1W        W31531  11.783   5.887   3.004  0.0122 -0.0290  0.0058
    1W        W31532   1.618  23.533   7.721  0.2601 -0.0053  0.1326
    1W        W31533  28.000  27.095   9.494 -0.0755  0.0625 -0.0802
    1W        W31534   9.463  15.082   0.910 -0.3648  0.0081  0.2614
    1W        W31535  14.727   6.881   7.685 -0.0416 -0.0112  0.0733
    1W        W31536   3.611  23.713   6.236  0.4127  0.0747 -0.0264
    1W        W31537  28.305  24.810   8.447  0.2009 -0.2838 -0.0282
    1W        W31538  20.160  17.235   1.167  0.0443  0.0533 -0.1611
    1W        W31539  24.139  12.956   0.904  0.1162  0.2133  0.0414
    1W        W31540  20.805   6.403   1.867 -0.1951 -0.0757 -0.0260
    1W        W31541  18.168  21.490   1.190  0.5072 -0.1255  0.0721
    1W        W31542   6.032   8.207   1.970 -0.3406  0.0873  0.2119
    1W        W31543  17.929  28.022   9.388 -0.2332 -0.0254 -0.2336
    1W        W31544  12.365  19.549   8.017 -0.1973  0.4851  0.0617
    1W        W31545  26.783   2.777   9.313  0.1207  0.1057  0.0118
    1W        W31546  28.552  24.736   8.986  0.0137  0.0103 -0.0502
    1W        W31547  11.262   5.830   3.023 -0.0009  0.2173  0.1415
    1W        W31548  11.003   9.106   8.429  0.3443 -0.0852 -0.0854
    1W        W31549  11.818  16.511   8.355  0.1021  0.1376  0.2194
    1W        W31550   2.058   2.181   9.217 -0.0338  0.3362  0.1051
    1W        W31551   5.637  25.411   6.181  0.3200  0.4284  0.1582
    1W        W31552  26.930  19.791   1.039  0.0669 -0.1644 -0.1701
    1W        W31553  27.921  27.363   2.123 -0.2769  0.0558 -0.0334
    1W        W31554  12.668  26.861   2.248  0.1341  0.2300 -0.1375
    1W        W31555   1.782  21.502   7.344  0.0826  0.2081 -0.1592
    1W        W31556   1.194  10.928   8.816 -0.3530  0.0900 -0.2168
    1W        W31557   4.296  15.638   5.999  0.2810  0.2044 -0.0933
    1W        W31558  18.911  21.900   2.368 -0.0790 -0.0251 -0.2372
    1W        W31559  23.620   9.078   6.923  0.3086 -0.0582 -0.1315
    1W        W31560   5.443   5.503   7.956 -0.0742  0.2303 -0.0380
    1W        W31561   9.535   0.424   8.144 -0.1536  0.1839 -0.1671
    1W        W31562   8.663   8.936   1.231 -0.1365  0.0888  0.4692
    1W        W31563   9.078  10.136   2.653  0.5086 -0.0587  0.0484
    1W        W31564  17.037  27.261   8.732  0.3790  0.0811  0.2088
    1W        W31565   3.596  13.933   9.415 -0.1142  0.1811 -0.1648
    1W        W31566  14.160  21.946   0.832 -0.2023  0.1907  0.1548
    1W        W31567  11.675  17.271   8.480 -0.3071 -0.1172 -0.2668
    1W        W31568   9.375  23.709   2.221  0.0616 -0.2867 -0.2960
    1W        W31569  25.138   7.197   9.001 -0.4297  0.0148  0.1120
    1W        W31570  13.742   2.021   2.782  0.0970 -0.1304 -0.1203
    1W        W31571  24.685  18.053   8.471  0.1407  0.0142 -0.1743
    1W        W31572  28.607  11.730   8.718  0.0882 -0.1418 -0.1041
    1W        W31573  27.683  22.073   0.387 -0.1740  0.2128 -0.1808
    1W        W31574  13.811   8.004   1.031  0.2518 -0.0978 -0.3662
    1W        W31575  24.882  27.173   7.815  0.3503 -0.1477 -0.1347
    1W        W31576  16.294  27.699   8.549 -0.1290  0.1712  0.0476
    1W        W31577  21.541   0.224   0.591 -0.1615 -0.0541  0.0243
    1W        W31578   6.424  21.595   9.791  0.2743  0.1910  0.1679
    1W        W31579  22.741  21.264   8.896 -0.1314 -0.1691 -0.1962
    1W        W31580  20.364   4.137   9.952  0.0318 -0.0157 -0.0121
    1W        W31581  12.183   3.979   0.692  0.0089  0.1109 -0.0202
    1W        W31582   9.219   8.854   8.060 -0.0299  0.1233  0.1484
    1W        W31583   1.276  15.780   5.746  0.0545 -0.4076 -0.0108
    1W        W31584  28.095   7.547   0.300  0.1211  0.1442 -0.1562
    1W        W31585  12.730   9.855   8.080  0.0556  0.0133  0.1075
    1W        W31586   2.641   1.259   6.360 -0.2850 -0.0122  0.1121
    1W        W31587  26.429  14.663   9.386  0.1890  0.2825  0.3495
    1W        W31588  25.549   7.213   6.755 -0.1500  0.0420 -0.1641
    1W        W31589   7.861  26.688   7.553  0.5662  0.1610  0.1118
    1W        W31590  15.603   2.597   0.347 -0.2630  0.1463 -0.0324
    1W        W31591  13.938  26.431   6.800 -0.1920  0.0459 -0.0110
    1W        W31592  21.383  26.998   1.933 -0.1175 -0.0996 -0.0214
    1W        W31593  25.695  10.091   8.209 -0.1253 -0.0057  0.1392
    1W        W31594  20.398  26.857   8.567  0.0428 -0.0052  0.0372
    1W        W31595  22.028   3.637   8.788  0.3242 -0.2033 -0.0938
    1W        W31596  26.901   9.353   1.234  0.1510 -0.0885 -0.0318
    1W        W31597  12.818  20.379   0.635  0.0024  0.0241  0.2714
    1W        W31598   9.710   3.930   9.817 -0.0999  0.0756 -0.1573
    1W        W31599   3.263  28.065   8.300 -0.0546  0.0676 -0.1342
    1W        W31600  25.915   1.124   9.387 -0.0457  0.0272  0.1668
    1W        W31601  10.369   2.590   9.097 -0.2183 -0.0359 -0.3083
    1W        W31602  17.158  18.889   9.619 -0.1668  0.5038  0.0975
    1W        W31603  11.629  10.656   8.219 -0.0145  0.0259  0.2532
    1W        W31604  20.332  27.286   7.298 -0.0195 -0.1483 -0.1901
    1W        W31605  25.802  22.090   1.341  0.0917 -0.1618 -0.0793
    1W        W31606  24.291  25.715   2.416 -0.0323  0.1248 -0.1240
    1W        W31607  13.982  15.721   7.489  0.2439 -0.2441 -0.1657
    1W        W31608  19.799  16.037   0.472  0.1591  0.2224  0.1037
    1W        W31609  28.357   5.895   9.216  0.0746  0.0015 -0.0167
    1W        W31610   6.857  24.885   9.048 -0.2094 -0.2304 -0.0447
    1W        W31611   2.266   2.643   2.042 -0.1961  0.0898 -0.0161
    1W        W31612   6.923   2.446   0.847  0.1423  0.0952 -0.2533
    1W        W31613  12.902  11.245   9.203  0.1698 -0.0351  0.2648
    1W        W31614  19.478   9.387   8.772 -0.2004  0.0322  0.3961
    1W        W31615   9.850  12.908   9.362 -0.0383 -0.0656 -0.1419
    1W        W31616  16.081  15.568   8.328  0.0402  0.3255  0.1502
    1W        W31617  17.113   5.243   7.677 -0.2008 -0.1775 -0.0529
    1W        W31618  27.716  10.446   9.691  0.0654 -0.1082 -0.1415
    1W        W31619  18.604  19.086   0.881 -0.1009  0.2421 -0.2212
    1W        W31620  13.097  10.280   9.542  0.0576  0.0033  0.0470
    1W        W31621  15.635  12.177   8.957 -0.2040 -0.0215  0.2247
    1W        W31622  11.136  14.810   9.662 -0.0604  0.1565 -0.1278
    1W        W31623   2.378  11.557   8.711  0.0248  0.1123  0.2340
    1W        W31624   5.451  21.839   0.024  0.0759  0.1721 -0.3442
    1W        W31625  18.196  23.644   8.314  0.1496 -0.1849 -0.1353
    1W        W31626  18.375   9.661   7.342  0.2240 -0.1003 -0.6412
    1W        W31627  10.993   3.481   0.349 -0.1439  0.6356  0.1918
    1W        W31628  26.643   5.810   0.297  0.0978 -0.0542  0.2953
    1W        W31629  20.865  21.728   7.323 -0.1484 -0.1631  0.3567
    1W        W31630  12.344  23.275   1.422 -0.1464 -0.0373  0.1526
    1W        W31631  24.096   0.846   0.426  0.0279  0.0883  0.0329
    1W        W31632   6.039  11.240   7.805 -0.2551 -0.2650  0.0400
    1W        W31633   9.120  11.307   1.269  0.1728  0.0904  0.2123
    1W        W31634  22.031   3.195   6.701 -0.1355 -0.1515  0.2425
    1W        W31635   5.292  12.095   9.293 -0.2065  0.1832  0.0317
    1W        W31636   9.477  14.792   0.072 -0.0306 -0.3930  0.3851
    1W        W31637  19.521   4.395   7.206 -0.0731 -0.2059  0.0589
    1W        W31638   1.780  26.038   7.093 -0.0332 -0.2694  0.0798
    1W        W31639  12.807  15.665   7.771 -0.1003 -0.0200  0.2534
    1W        W31640  13.584  25.183   0.785 -0.1241  0.0004  0.0553
    1W        W31641  13.318   7.690   3.169 -0.0051 -0.2959  0.0901
    1W        W31642  21.540  20.450   1.031 -0.0338 -0.1689 -0.2628
    1W        W31643  24.066  21.427   6.545  0.0160  0.0794  0.0034
    1W        W31644   1.265   9.713   2.255  0.3640  0.0776  0.4228
    1W        W31645  14.019  28.572   0.413  0.2533 -0.1513 -0.1710
    1W        W31646   6.841  25.693   7.828 -0.1796 -0.0143  0.2246
    1W        W31647   1.523  10.001   1.284 -0.0607 -0.1858  0.0946
    1W        W31648  10.950   3.872   9.611 -0.5652 -0.1304  0.0469
    1W        W31649  17.739  21.968   2.760  0.2121  0.0577 -0.1380
    1W        W31650  24.149   4.770   9.591  0.2002  0.0086 -0.1213
    1W        W31651  16.499   3.024   9.352  0.2367 -0.1727 -0.2242
    1W        W31652   6.810   7.372   8.884  0.0966 -0.1354  0.0783
    1W        W31653  19.718  26.545   7.193 -0.2548 -0.1765  0.0254
    1W        W31654   5.002  17.247   0.633  0.0825 -0.0011 -0.1625
    1W        W31655  20.732   2.523   1.860 -0.0225  0.3751  0.1691
    1W        W31656   7.187   9.633   7.718 -0.1157 -0.0774 -0.0696
    1W        W31657  16.971  24.204   8.880 -0.0944  0.1652 -0.1499
    1W        W31658  25.729  17.146   7.881 -0.2815 -0.0497 -0.3542
    1W        W31659   6.886  13.216   2.467 -0.1676 -0.3048  0.1116
    1W        W31660   1.687  23.576   6.484 -0.2556  0.0033 -0.1258
    1W        W31661  12.750  17.907   0.118 -0.2413 -0.3224  0.0408
    1W        W31662  26.727  13.819   5.756 -0.0843 -0.4922  0.0859
    1W        W31663  12.764  20.248   7.574 -0.0119  0.2495  0.0191
    1W        W31664   8.956  13.142   8.272 -0.0594  0.1553  0.0103
    1W        W31665  28.342  22.734   7.458 -0.2620 -0.2540  0.2876
    1W        W31666  14.638  22.296   1.580 -0.2774 -0.3092 -0.5601
    1W        W31667  18.368  16.349   2.280  0.1667 -0.0148  0.2707
    1W        W31668   7.946  10.641   1.542 -0.4809  0.2105  0.2299
    1W        W31669  18.589   1.330   9.307 -0.1526 -0.0400  0.0048
    1W        W31670  10.503   2.631   1.247 -0.2066  0.0700  0.0022
    1W        W31671   2.178  23.920   1.939 -0.0230 -0.0226 -0.0722
    1W        W31672  21.416  22.406   8.489  0.2216 -0.0115  0.1659
    1W        W31673   2.134  12.111   2.091 -0.0121  0.2823  0.0070
    1W        W31674  24.697  13.679   6.319 -0.0526  0.0939  0.2238
    1W        W31675  28.520  14.296   6.467 -0.0674 -0.2776  0.0150
    1W        W31676  27.818   7.141   0.689 -0.0343  0.1250  0.3949
    1W        W31677  15.052  23.954   3.279 -0.0436 -0.0307 -0.0935
    1W        W31678  20.592  27.343   1.756 -0.1830 -0.2475  0.0671
    1W        W31679   3.691  19.414   5.108 -0.2108 -0.4088  0.2499
    1W        W31680   0.576  16.088   6.329 -0.0445 -0.0166  0.0210
    1W        W31681  18.884  18.481   1.693 -0.2768  0.0806  0.3023
    1W        W31682  27.964  11.179   6.559 -0.4784 -0.3093  0.3011
    1W        W31683  21.307  18.120   3.010 -0.0891 -0.1233  0.3089
    1W        W31684  11.649  10.608   9.654 -0.3022  0.0340 -0.1188
    1W        W31685  13.005  27.389   8.841  0.2385 -0.1276 -0.1530
    1W        W31686   7.302  28.663   2.707  0.0690 -0.0663 -0.2373
    1W        W31687  18.533   5.481   2.326 -0.0157 -0.0947 -0.0519
    1W        W31688  28.413   1.275   2.481 -0.2209 -0.0912 -0.0356
    1W        W31689  25.454  16.686   0.250 -0.1317  0.0179  0.0335
    1W        W31690  20.314   0.516   6.805  0.1022 -0.3135 -0.0245
    1W        W31691   5.101  22.549   8.636 -0.0082 -0.2178 -0.1020
    1W        W31692  21.831  16.667   1.157 -0.2237 -0.1402  0.0671
    1W        W31693   9.044   5.564   9.680  0.0207 -0.0595  0.2978
    1W        W31694  24.480   4.745   6.104 -0.1980 -0.1765 -0.0597
    1W        W31695  17.221  14.121   0.134  0.1095 -0.2929 -0.3156
    1W        W31696   8.201   2.313   9.368 -0.0399  0.1228  0.1000
    1W        W31697   9.049  20.712   7.709 -0.1227 -0.1776 -0.0645
    1W        W31698   2.446  10.677   0.814 -0.0240  0.0838 -0.0767
    1W        W31699  15.696   5.390   9.225  0.0440 -0.0002  0.0642
    1W        W31700   4.973  19.966   8.016  0.4588  0.1239 -0.3009
    1W        W31701  14.054  19.421   0.322  0.0741  0.0092 -0.0746
    1W        W31702   5.911   1.706   7.200 -0.0565 -0.0956 -0.0541
    1W        W31703   3.249   2.041   9.879 -0.0679  0.3182 -0.1712
    1W        W31704   6.753   9.911   0.154 -0.0651  0.2134 -0.0103
    1W        W31705   5.697  14.014   0.596  0.3016  0.1644 -0.0777
    1W        W31706  16.147  28.623   9.762  0.0338  0.1317  0.0413
    1W        W31707  22.524  17.256   7.785 -0.0073  0.0229  0.2781
    1W        W31708   2.632  13.788   9.373  0.2030 -0.3565  0.0344
    1W        W31709   1.964  21.357   7.930 -0.5011  0.3272  0.1019
    1W        W31710  15.865  26.629   1.698  0.1654 -0.0355  0.1474
    1W        W31711  25.211   3.973   1.898  0.0022  0.0882 -0.1138
    1W        W31712   8.851   1.371   8.310 -0.0883  0.0293 -0.0013
    1W        W31713  14.253  14.693   2.394  0.3437  0.2777 -0.1733
    1W        W31714  17.784  14.813   2.411 -0.1125  0.1824 -0.1325
    1W        W31715  14.146  27.311   0.513 -0.0486  0.2169  0.0534
    1W        W31716   1.213   9.583   8.601 -0.2659 -0.1814  0.1263
    1W        W31717  19.842   5.792   7.800 -0.1856  0.2285  0.1039
    1W        W31718  26.554  13.022   9.015 -0.0087  0.0691 -0.0871
    1W        W31719  23.726   8.814   8.164 -0.0666 -0.0870  0.1619
    1W        W31720   1.416  18.388   7.708 -0.0331  0.0352 -0.1475
    1W        W31721  15.598  12.788   1.766  0.1069 -0.0236  0.2197
    1W        W31722   3.965   0.774   1.901 -0.1400  0.3087  0.0822
    1W        W31723  25.645  27.654   1.439  0.1116  0.1309  0.0006
    1W        W31724   7.163  26.942   7.208  0.2803  0.0669  0.1350
    1W        W31725  13.337   4.814   0.766 -0.3766  0.2284 -0.2752
    1W        W31726  16.776   8.874   1.455  0.1363  0.0843 -0.1626
    1W        W31727  11.001   0.579   7.604 -0.1869 -0.1803 -0.2049
    1W        W31728  18.265  18.361   8.649 -0.1497 -0.1566 -0.1166
    1W        W31729  25.272  26.706   9.072  0.0888  0.0212  0.1426
    1W        W31730  10.602   6.139   1.263  0.2408 -0.0263 -0.0692
    1W        W31731   8.283  27.126   1.464  0.2702  0.1272 -0.2148
    1W        W31732  25.195   3.133   6.291  0.2131  0.0783  0.1919
    1W        W31733  12.098   5.459   9.144  0.3245  0.2217  0.1344
    1W        W31734  14.940  22.973   2.276  0.0003 -0.1279 -0.2957
    1W        W31735   5.842  22.214   1.513  0.2490  0.0569 -0.0298
    1W        W31736   5.503  12.118   7.880  0.2651 -0.0451  0.1766
    1W        W31737  10.762  21.405   8.044  0.1220  0.1234  0.0441
    1W        W31738  24.558  16.414   0.986 -0.0389  0.2109  0.0765
    1W        W31739  28.529   4.289   1.207 -0.0803 -0.2346 -0.2884
    1W        W31740  27.524  22.180   2.316  0.0409 -0.0024  0.2720
    1W        W31741   4.905  22.249   1.230 -0.1827  0.0103  0.0835
    1W        W31742   3.918  15.606   6.973 -0.2771 -0.1031  0.0168
    1W        W31743   3.845  14.427   1.743 -0.0361  0.3019 -0.2032
    1W        W31744   7.170   4.324   8.059 -0.1131 -0.3668  0.1205
    1W        W31745  22.007  17.334   2.901  0.0950  0.0799 -0.3844
    1W        W31746  10.619  22.494   0.601  0.1092 -0.1527 -0.2633
    1W        W31747   0.818   8.574   2.133 -0.2926  0.0400 -0.0547
    1W        W31748  26.370   4.363   1.335  0.0743  0.0435  0.0499
    1W        W31749   0.375  14.705   8.951  0.1614  0.3654 -0.0007
    1W        W31750  24.213   6.639   9.611 -0.1161 -0.4305  0.0459
    1W        W31751  22.908   3.918   6.985  0.1496  0.0851 -0.2009
    1W        W31752  28.042  20.362   1.651  0.1068  0.2390 -0.0955
    1W        W31753  12.894  25.637   7.769  0.1061 -0.0745 -0.1557
    1W        W31754   1.060  12.012   8.313 -0.1812  0.1309  0.1577
    1W        W31755  24.966   5.569   1.681 -0.0463  0.2887 -0.0859
    1W        W31756  12.549   0.032   2.176  0.1391 -0.0428  0.3177
    1W        W31757   4.030  20.888   0.677 -0.0522 -0.1288  0.2429
    1W        W31758  26.225  14.752   5.975  0.0791 -0.1647 -0.0071
    1W        W31759  27.348  21.703   0.186 -0.1496 -0.1637  0.1221
    1W        W31760  21.829  21.764   9.220 -0.0254 -0.3972 -0.2144
    1W        W31761  14.060   0.517   0.508  0.1980  0.1226 -0.0145
    1W        W31762   7.857  22.711   8.824  0.0669 -0.1898  0.3971
    1W        W31763  24.288  10.486   0.950  0.4140 -0.2414 -0.2878
    1W        W31764  17.948  26.496   1.390  0.0740 -0.0075 -0.1876
    1W        W31765  26.368  10.564   1.436  0.1502  0.3939 -0.0618
    1W        W31766  21.665  15.507   1.114  0.3269  0.1141  0.0795
    1W        W31767  21.274  26.380   8.868  0.1454  0.2251  0.0645
    1W        W31768   4.557  14.418   7.675 -0.2747  0.1847  0.2131
    1W        W31769  18.347  23.868   7.856 -0.0793  0.1153  0.0346
    1W        W31770   9.406  24.517   1.046  0.1627 -0.2640 -0.1583
    1W        W31771   6.611  14.638   0.163  0.0643 -0.1920 -0.2530
    1W        W31772  15.972   3.140   3.316  0.3906  0.0044  0.0405
    1W        W31773  17.176  21.605   8.392  0.1664 -0.2283  0.0448
    1W        W31774   2.795   7.876   1.773  0.1110  0.2618  0.1829
    1W        W31775  28.466   2.925   7.281  0.0355 -0.0703  0.1149
    1W        W31776  11.779   2.326   6.922  0.2890  0.0053  0.0811
    1W        W31777  18.802  17.140   0.234  0.2826 -0.0254  0.2171
    1W        W31778   4.354   4.339   1.644  0.1802 -0.1604  0.0228
    1W        W31779   0.263   6.316   9.788  0.2118  0.0325 -0.1949
    1W        W31780  14.569  21.214   0.302  0.0291 -0.0060  0.2430
    1W        W31781   6.308  26.025   7.042 -0.0162  0.1801 -0.0444
    1W        W31782  22.040   5.849   0.024 -0.2846  0.0117  0.0761
    1W        W31783   6.157  10.282   8.429 -0.1258 -0.1249 -0.1108
    1W        W31784   1.938  12.008   6.888 -0.2019 -0.0760  0.3879
    1W        W31785  24.207   5.206   7.546  0.3195 -0.0116  0.2795
    1W        W31786   6.750   9.155   1.220  0.3464  0.0472 -0.3115
    1W        W31787   7.531  11.482   0.659 -0.1006  0.0488 -0.3123
    1W        W31788  10.217  16.445   8.077  0.1059  0.0545 -0.0543
    1W        W31789  12.248  14.857   9.077 -0.1515  0.2566  0.3672
    1W        W31790  24.840   6.195   9.436 -0.0638  0.0803  0.1145
    1W        W31791  26.538  24.457   1.328 -0.4221  0.2580  0.1915
    1W        W31792   1.761  15.648   1.724 -0.0261 -0.4124 -0.2278
    1W        W31793  10.468  12.062   9.814  0.2605 -0.0218  0.0685
    1W        W31794  13.489   1.710   3.456 -0.1185  0.3321  0.0730
    1W        W31795  24.918   1.988   9.312  0.0183 -0.0949 -0.2224
    1W        W31796  10.685  25.782   9.681  0.1152  0.1017  0.1291
    1W        W31797   6.420  28.575   1.971  0.4290  0.1112 -0.0085
    1W        W31798  11.974  25.497   7.789  0.2896  0.0202 -0.2014
    1W        W31799  12.996   7.731   9.642  0.0486  0.2304  0.1203
    1W        W31800  27.514  20.019   7.665  0.2067 -0.2247 -0.2064
    1W        W31801  13.875   6.719   3.061  0.0074 -0.0546  0.4621
    1W        W31802   0.617   5.608   1.222 -0.1118 -0.0398  0.3681
    1W        W31803   3.389  13.220   1.414 -0.1233  0.0663 -0.1275
    1W        W31804  19.054  16.038   9.918 -0.0316 -0.0297  0.1458
    1W        W31805   4.605  18.371   5.952 -0.0073 -0.1718 -0.1654
    1W        W31806   8.989  21.607   8.881 -0.0448 -0.0948  0.0446
    1W        W31807   1.272  17.312   1.395  0.2588 -0.0575 -0.2474
    1W        W31808  12.618   9.867   0.294 -0.0002 -0.0316  0.2163
    1W        W31809   7.358  19.596   7.718 -0.3935 -0.2262  0.0323
    1W        W31810   1.934  21.873   6.672  0.1210 -0.3125  0.0410
    1W        W31811   6.530  24.549   2.062 -0.1816 -0.0848 -0.1350
    1W        W31812  24.170   8.359   8.836  0.3844 -0.0035  0.1974
    1W        W31813   6.115  23.356   8.683  0.0375  0.3731 -0.1806
    1W        W31814  11.759  15.705   0.917 -0.0588  0.0415 -0.0497
    1W        W31815  13.443  12.434   2.159 -0.2065 -0.2833  0.1896
    1W        W31816  23.164  22.613   7.675  0.1218 -0.0230 -0.2963
    1W        W31817  19.901  22.249   9.182  0.2236  0.6051  0.3318
    1W        W31818  27.852  17.181   9.700 -0.0720  0.3844  0.1539
    1W        W31819  16.513   5.370   9.596  0.1666 -0.1127 -0.0296
    1W        W31820   1.082   2.661   0.810 -0.1698 -0.1645 -0.1042
    1W        W31821  14.359  28.464   6.800  0.2186  0.3644 -0.2132
    1W        W31822  26.210  22.547   6.959  0.1421 -0.0067  0.1889
    1W        W31823   2.822   7.287   1.132  0.2966 -0.1171 -0.3641
    1W        W31824  16.438  14.998   2.355 -0.1338  0.0200 -0.1374
    1W        W31825  28.004  27.303   9.004  0.2209  0.1065 -0.0530
    1W        W31826  17.922  16.047   9.195 -0.1978  0.1998 -0.0707
    1W        W31827  20.957  17.584   2.199 -0.1328 -0.2241 -0.0180
    1W        W31828  25.090  20.259   1.763  0.0511 -0.0631  0.2940
    1W        W31829  14.616   8.703   7.374 -0.1544 -0.2547  0.1482
    1W        W31830   3.810   8.026   7.171 -0.2019  0.1197 -0.2156
    1W        W31831   7.556   8.954   8.577 -0.2623  0.0816 -0.0655
    1W        W31832   5.220   6.844   8.750  0.1356 -0.1401  0.1586
    1W        W31833  16.311  28.199   2.648  0.1812  0.3655  0.0674
    1W        W31834  12.660  11.836   9.062  0.1893  0.1011 -0.0323
    1W        W31835   5.806  27.233   8.515  0.1491 -0.0808 -0.0899
    1W        W31836   9.720   5.806   1.583  0.1040 -0.0609  0.0934
    1W        W31837   6.702  20.095   0.900 -0.0868 -0.0687  0.0946
    1W        W31838   8.573  21.839   6.914 -0.0821  0.1977 -0.0920
    1W        W31839  19.616   6.547   3.870  0.1499 -0.1178 -0.1212
    1W        W31840   1.545   9.951   1.960  0.1805  0.1570  0.0558
    1W        W31841  27.999  23.693   0.369  0.0486 -0.0517  0.1518
    1W        W31842  19.160  14.900   2.503 -0.3029  0.1662  0.2407
    1W        W31843  18.930   6.545   1.010 -0.0210  0.0042 -0.2092
    1W        W31844  24.064   8.836   6.882 -0.4009  0.1080 -0.0330
    1W        W31845  21.369  21.401   2.383  0.3990 -0.3065 -0.1882
    1W        W31846   4.554  21.391   0.188  0.4354  0.1188  0.1307
    1W        W31847   3.722  14.725   7.675  0.1361  0.1907 -0.0332
    1W        W31848   0.398  26.339   0.150 -0.0131  0.0536  0.1178
    1W        W31849  12.029  22.689   2.482  0.0683  0.2137  0.2282
    1W        W31850  20.920  20.815   9.406 -0.0298 -0.0074  0.1120
    1W        W31851   5.288  18.404   9.549 -0.0049  0.1908  0.2189
    1W        W31852  13.622  16.093   9.444  0.0406  0.0928  0.1548
    1W        W31853   7.219  26.464   6.993  0.1643  0.0088 -0.1161
    1W        W31854   4.771  14.859   9.535 -0.0775  0.0732  0.0918
    1W        W31855  15.902  11.054   1.977 -0.2351 -0.5239  0.2902
    1W        W31856   8.527  20.702   9.011 -0.0002 -0.3237 -0.2560
    1W        W31857  22.584  25.930   7.161 -0.0186 -0.0687 -0.1057
    1W        W31858   0.827  18.665   9.561  0.1874  0.0272  0.1926
    1W        W31859  25.638  27.985   1.021  0.3394  0.0372  0.2660
    1W        W31860  19.399  15.773   0.327 -0.2145  0.2057 -0.0676
    1W        W31861   3.051  22.309   0.753 -0.1636 -0.1803 -0.0180
    1W        W31862   0.578   4.021   6.749  0.0457  0.2225 -0.2511
    1W        W31863   3.930  20.033   5.925 -0.0914 -0.0344  0.5130
    1W        W31864  17.464  12.818   0.530 -0.0236 -0.1480 -0.1445
    1W        W31865   5.191  28.318   7.158 -0.2082  0.0266 -0.2237
    1W        W31866  15.959  13.050   1.497 -0.0837 -0.0264  0.2046
    1W        W31867  24.487   2.629   9.295 -0.3250 -0.0658  0.0127
    1W        W31868   3.360   8.524   7.865  0.0764 -0.3246 -0.2769
    1W        W31869  19.764   3.520   0.849 -0.0738 -0.3047  0.0875
    1W        W31870   6.563  26.694   2.709 -0.3480 -0.3720 -0.0369
    1W        W31871   2.946  19.948   9.299  0.1180 -0.1400  0.1366
    1W        W31872   2.258  16.299   1.270  0.2173  0.0596  0.1380
    1W        W31873  27.025  19.347   1.720 -0.1008 -0.1383  0.1315
    1W        W31874  10.575  23.974   6.178 -0.2080  0.1913 -0.2428
    1W        W31875  24.093  28.528   0.536 -0.1729  0.0678 -0.1603
    1W        W31876  21.651  22.511   3.525 -0.1978 -0.3449  0.1003
    1W        W31877  14.422   9.809   1.260  0.0615  0.0066  0.0324
    1W        W31878  22.615   4.294   1.289 -0.0817 -0.3214 -0.1690
    1W        W31879   6.398   5.143   6.603  0.1645 -0.0106 -0.0863
    1W        W31880  16.384  11.831   2.087 -0.2661  0.0293 -0.1838
    1W        W31881  18.504  26.393   3.934 -0.0774 -0.0259 -0.0246
    1W        W31882   7.833  12.588   1.399 -0.0106  0.0241 -0.0878
    1W        W31883  20.029  25.270   3.105  0.1195 -0.1799  0.0098
    1W        W31884   5.100  24.933   9.559 -0.0276 -0.1171 -0.1862
    1W        W31885  18.787   9.276   8.595  0.0902 -0.2150  0.1181
    1W        W31886  21.461   8.037   7.317 -0.2008 -0.2961 -0.4313
    1W        W31887  26.875   3.790   2.233  0.2926  0.1116 -0.1923
    1W        W31888  15.376   8.074   7.626  0.2387  0.2688 -0.2595
    1W        W31889  13.396  17.757   8.297  0.1927  0.1745  0.0636
    1W        W31890  25.903   6.218   9.063  0.0840  0.1544  0.3488
    1W        W31891  23.739  25.101   9.590  0.5119  0.1598 -0.1283
    1W        W31892   4.371  18.938   1.101  0.0666  0.2452  0.0502
    1W        W31893  18.919   5.789   3.173 -0.1970  0.5335  0.3405
    1W        W31894  18.800   4.115   2.105  0.1055  0.1383  0.0003
    1W        W31895  19.912  12.277   7.520  0.2156  0.0518  0.0350
    1W        W31896  27.907   8.991   0.611 -0.0757 -0.0191 -0.1308
    1W        W31897  17.080  18.828   7.648 -0.0243 -0.0656 -0.2925
    1W        W31898   1.160  18.191   1.003 -0.0015 -0.1483 -0.1426
    1W        W31899   4.111  10.258   2.055  0.3694 -0.1152  0.1744
    1W        W31900  11.226  10.397   0.879 -0.0285 -0.2417 -0.0062
    1W        W31901   3.690  14.716   0.182 -0.0877  0.0325  0.3691
    1W        W31902  21.708   0.139   0.101  0.2499 -0.0931 -0.3968
    1W        W31903  19.708  23.535   9.444 -0.1165  0.2753  0.1143
    1W        W31904   7.755  10.230   1.319 -0.2970 -0.0721 -0.0165
    1W        W31905  14.422   8.665   2.699 -0.2874 -0.0684  0.0596
    1W        W31906  11.965  14.592   8.179  0.0570 -0.2023 -0.1703
    1W        W31907   0.304  24.539   9.880 -0.1094 -0.0493  0.1283
    1W        W31908  15.998  24.865   8.453  0.1461  0.1664  0.0452
    1W        W31909  23.526   2.056   0.731 -0.0492 -0.0112  0.2023
    1W        W31910   9.403  13.295   2.443  0.4700 -0.0565 -0.1084
    1W        W31911   0.061  19.254   8.357  0.0326 -0.0831  0.0071
    1W        W31912  26.235   1.724   8.863  0.1870 -0.1535 -0.1436
    1W        W31913   5.782  23.695   8.681 -0.2772 -0.1345  0.1894
    1W        W31914  20.368  13.616   0.582  0.2951  0.1516 -0.0952
    1W        W31915   8.187  21.115   2.644 -0.2307  0.3509  0.0696
    1W        W31916  21.378  27.299   7.298 -0.0931  0.2642 -0.0337
    1W        W31917  25.091  12.347   7.125  0.2178 -0.2159  0.3114
    1W        W31918   5.570   5.722   2.919  0.1112 -0.0797  0.1232
    1W        W31919   1.873  16.510   8.134 -0.0928 -0.0185  0.4899
    1W        W31920  15.784   9.353   0.744  0.0111 -0.0756  0.3652
    1W        W31921  21.548  24.471   2.235 -0.0771 -0.0985 -0.0703
    1W        W31922   8.432   6.725   2.282  0.0826  0.2433  0.1740
    1W        W31923  21.809  22.154   7.668  0.1891 -0.1070 -0.0266
    1W        W31924   0.677  15.504   8.594 -0.1039  0.4552  0.4985
    1W        W31925  17.613   1.427   1.553 -0.2581 -0.0049  0.3141
    1W        W31926   1.202   1.003   1.801  0.1919  0.1892 -0.0390
    1W        W31927  16.190   3.731   4.694 -0.2042  0.2092  0.2497
    1W        W31928  24.363  20.114   8.532  0.1829  0.0614  0.0252
    1W        W31929   8.821   5.315   1.908 -0.0222 -0.1512  0.0310
    1W        W31930   9.139   1.720   0.029 -0.0772 -0.2444  0.0454
    1W        W31931  10.489  24.242   5.817  0.2712 -0.2130  0.0042
    1W        W31932  16.031  24.401   8.607 -0.0569 -0.0009 -0.4008
    1W        W31933  21.836  22.257   8.861  0.3752 -0.1890  0.0726
    1W        W31934  14.779  27.085   9.828 -0.1406  0.0370  0.0233
    1W        W31935  18.282  26.277   3.497 -0.3209  0.1559 -0.1687
    1W        W31936  11.228  20.313   1.905 -0.0092  0.2020 -0.0717
    1W        W31937   2.578  25.479   7.751 -0.0954 -0.2096  0.1420
    1W        W31938   2.461  26.311   9.957 -0.2035  0.0079  0.1299
    1W        W31939  22.829  22.564   8.508  0.0178 -0.1331 -0.1189
    1W        W31940   9.982   5.488   7.359 -0.3933  0.0987 -0.0053
    1W        W31941  14.974  16.994   1.100  0.2927  0.2543  0.1242
    1W        W31942  23.386   4.669   0.223 -0.3384 -0.0263 -0.3885
    1W        W31943  19.732  22.590   9.466  0.1662 -0.2273  0.1683
    1W        W31944  27.307   1.292   6.212  0.1093  0.1009 -0.0837
    1W        W31945  22.738  20.541   2.334 -0.0205 -0.0919  0.1175
    1W        W31946  21.741  17.087   9.527  0.0473 -0.2393  0.0050
    1W        W31947  10.403   5.876   6.417  0.2619  0.0618  0.0577
    1W        W31948  20.624   6.200   9.750 -0.0557  0.1530 -0.1983
    1W        W31949  17.788  13.355   0.684  0.0708 -0.0332 -0.0503
    1W        W31950   2.412  28.606   8.056  0.1633 -0.2128 -0.0153
    1W        W31951  20.685  21.480   7.731 -0.1526 -0.0218 -0.2097
    1W        W31952  27.091  23.821   8.722  0.1771 -0.0602 -0.2003
    1W        W31953   4.383  26.991   1.388  0.2643 -0.0035 -0.0223
    1W        W31954   4.345   8.068   7.258 -0.2495 -0.2612 -0.3237
    1W        W31955   4.904  12.738   3.467  0.3385  0.1213  0.0202
    1W        W31956  16.398  18.290   9.384 -0.1956  0.1433 -0.1732
    1W        W31957   3.844   0.937   0.373  0.1738  0.2572 -0.0790
    1W        W31958   3.850   9.352   0.172 -0.3285 -0.2264 -0.3174
    1W        W31959   8.773   8.513   0.665  0.2417  0.2556 -0.3479
    1W        W31960   3.144  26.063   0.655  0.1603 -0.1820 -0.2443
    1W        W31961  26.094  20.553   8.566  0.1503 -0.0279 -0.0179
    1W        W31962   2.215  28.066   6.309  0.3376  0.0882  0.0734
    1W        W31963   1.262  12.885   0.758 -0.4727 -0.2351  0.2033
    1W        W31964   6.402  23.830   7.582 -0.4489  0.2754  0.2111
    1W        W31965   3.249   4.004   3.087  0.1746  0.0929  0.1752
    1W        W31966   1.825   3.824   9.947  0.1937 -0.3106 -0.2953
    1W        W31967  14.781  19.075   1.448 -0.0338 -0.1332 -0.2477
    1W        W31968  26.826   6.133   6.311 -0.2193 -0.3640 -0.0620
    1W        W31969   5.115   3.572   9.091  0.0433  0.0891 -0.2833
    1W        W31970   4.644  12.237   8.487 -0.0144  0.1492  0.1590
    1W        W31971   2.048  28.407   8.378  0.0410 -0.1510 -0.3174
    1W        W31972   8.903   3.651   0.164  0.1082  0.0417  0.1334
    1W        W31973  15.599  27.374   8.085  0.0184 -0.2573 -0.1233
    1W        W31974  28.668   3.435   1.752  0.0452 -0.0635 -0.2885
    1W        W31975  24.859  14.899   7.161 -0.2357  0.0117  0.0818
    1W        W31976  13.834  11.057   0.401  0.0561 -0.1594 -0.1518
    1W        W31977  10.179  27.400   2.414 -0.0046  0.2361  0.2929
    1W        W31978   1.703   7.174   3.168  0.0705 -0.1820 -0.1513
    1W        W31979  16.128  28.061   8.211 -0.0521 -0.1502 -0.0910
    1W        W31980  17.645   7.446   0.416  0.0944 -0.2954  0.2181
    1W        W31981  24.337   5.933   9.493 -0.0675 -0.0693  0.0553
    1W        W31982  10.870  11.747   9.618  0.0634 -0.2093 -0.0290
    1W        W31983  18.857   0.289   8.778  0.0155  0.0001  0.1029
    1W        W31984  22.604  15.558   8.194  0.1462  0.1420 -0.0782
    1W        W31985  24.710   9.540   5.975  0.0684 -0.0630 -0.0273
    1W        W31986  20.774   5.778   3.151 -0.0777 -0.2702 -0.1339
    1W        W31987   9.356   4.095   0.158 -0.2381  0.0914  0.3460
    1W        W31988   3.302  18.412   9.774 -0.2993 -0.2621  0.0416
    1W        W31989  16.799  23.321   2.372 -0.0944  0.2922  0.0727
    1W        W31990   7.319  13.819   7.923 -0.1695 -0.2236 -0.4493
    1W        W31991  22.185  13.973   7.998 -0.0660  0.0856 -0.0087
    1W        W31992  24.310   1.447   2.605  0.0074  0.1345  0.0831
    1W        W31993  16.959  18.184   8.557  0.0316 -0.1182 -0.0369
    1W        W31994  22.776  22.188   7.128 -0.2222  0.3245 -0.2446
    1W        W31995  28.652  17.666   9.020 -0.1117  0.3027 -0.0509
    1W        W31996  10.523   8.196   1.126  0.0641  0.1925 -0.0286
    1W        W31997   0.664  19.948   1.120 -0.2296  0.0877 -0.1194
    1W        W31998  28.355  20.883   6.852 -0.0286  0.2423 -0.0254
    1W        W31999  25.478  17.617   6.608  0.0770  0.1393  0.0006
    1W        W32000   8.827  16.876   2.333 -0.1041  0.1719  0.1065
    1W        W32001  10.370  26.983   2.231 -0.4596  0.3388 -0.1306
    1W        W32002   0.666  25.107   0.241 -0.0765  0.0126 -0.2179
    1W        W32003   5.210  15.221   0.373  0.0374  0.2007 -0.0483
    1W        W32004   6.969   2.553   3.787  0.1023  0.0795 -0.0800
    1W        W32005  23.028  28.397   1.549  0.1871  0.4555 -0.1865
    1W        W32006  27.283   6.219   0.637 -0.1101 -0.0767 -0.1748
    1W        W32007  15.768   4.162   2.636  0.0947  0.2481 -0.0400
    1W        W32008  18.652  13.240   1.058  0.2018  0.0252 -0.1284
    1W        W32009  28.685  18.551   1.196  0.0854  0.0507  0.3421
    1W        W32010   4.508  16.902   1.376 -0.0373  0.0419 -0.0800
    1W        W32011  20.138  24.743   9.129  0.1070 -0.0046 -0.0993
    1W        W32012  22.778   5.872   7.637 -0.2210 -0.0084 -0.2344
    1W        W32013   0.478  14.530   7.062  0.2216 -0.0604  0.3677
    1W        W32014   5.756  19.288   7.989  0.3153  0.0558 -0.1174
    1W        W32015   5.766  16.219   8.233 -0.1191 -0.0027 -0.1752
    1W        W32016  10.264  20.232   6.306  0.2918 -0.1379  0.4569
    1W        W32017  15.296  19.956   3.550 -0.1217 -0.1772 -0.3319
    1W        W32018   9.596   0.668   3.945 -0.1843 -0.2070  0.0453
    1W        W32019  24.030   8.943   9.046 -0.0393  0.0806  0.2477
    1W        W32020  15.442   0.585   9.495 -0.0973 -0.2821 -0.3720
    1W        W32021  17.715   3.693   9.745 -0.2261 -0.0151  0.1095
    1W        W32022  11.107   4.502   1.974  0.2251  0.0307  0.1009
    1W        W32023   3.153   9.692   2.691 -0.1701 -0.2647 -0.0630
    1W        W32024   6.005  26.829   9.822 -0.1976  0.1072  0.3620
    1W        W32025   4.816  20.474   6.701 -0.0146 -0.0587  0.1175
    1W        W32026   1.800  20.286   1.927  0.0340  0.1129 -0.1177
    1W        W32027   8.962   9.675   2.825 -0.1128 -0.0150  0.2204
    1W        W32028  26.951  21.791   0.500  0.2459 -0.0994  0.2559
    1W        W32029   7.253  13.666   1.789 -0.1445  0.2353  0.1911
    1W        W32030  26.552  14.311   0.600 -0.1491  0.0133  0.2382
    1W        W32031  21.658   1.507   9.410 -0.2719  0.0643  0.0075
    1W        W32032  10.858  17.004   9.117 -0.1500 -0.2570 -0.0143
    1W        W32033  12.275   2.958   3.412  0.2836  0.1415 -0.0272
    1W        W32034   2.025   1.838   0.161 -0.0071  0.0095  0.1694
    1W        W32035  11.364   1.165   3.669  0.0155  0.2012 -0.0509
    1W        W32036  23.440  16.521   9.362  0.0216  0.0915 -0.0359
    1W        W32037  24.019  22.676   7.925 -0.1048  0.2182  0.0835
    1W        W32038   6.604  10.344   1.996  0.1487  0.2337 -0.1933
    1W        W32039   0.846   4.867   9.745 -0.3281 -0.0325 -0.2604
    1W        W32040  27.079  17.601   8.678  0.0940 -0.0585 -0.0144
    1W        W32041  25.643  19.021   7.841 -0.3258  0.0168 -0.1309
    1W        W32042  10.903  22.065   6.852  0.2870  0.0166  0.1113
    1W        W32043  14.685   8.286   7.638 -0.0562  0.0444 -0.0515
    1W        W32044  15.343  16.007   9.105 -0.2268 -0.4642 -0.0303
    1W        W32045   6.377  25.194   2.189  0.0661  0.1235 -0.0423
    1W        W32046  27.624   0.418   8.545  0.1948 -0.2023  0.2859
    1W        W32047   2.290  27.850   7.563 -0.1097 -0.3565  0.0704
    1W        W32048  22.950  15.449   1.662 -0.0765 -0.0513  0.1680
    1W        W32049  26.484   4.769   1.106 -0.2601 -0.1774 -0.0604
    1W        W32050  24.534   0.087   2.466  0.1519 -0.1918 -0.2264
    1W        W32051  21.518  27.377   1.549  0.5048  0.1666 -0.1854
    1W        W32052  20.080  13.279   2.674  0.0633  0.0854  0.0898
    1W        W32053  17.869  19.265   9.632 -0.0658 -0.0120 -0.0099
    1W        W32054   6.485  14.251   8.109 -0.1005 -0.4023 -0.0183
    1W        W32055  26.721  16.954   6.774 -0.0813  0.0668  0.2391
    1W        W32056  20.837   0.019   1.833  0.0601  0.0140  0.5160
    1W        W32057  28.005   6.388   9.646 -0.0773 -0.1731  0.1080
    1W        W32058   4.245  16.682   0.680  0.2079  0.0760  0.1691
    1W        W32059   6.943  21.561   7.601  0.6103 -0.1026  0.1128
    1W        W32060   2.607  14.971   9.033 -0.0963 -0.1558 -0.1223
    1W        W32061  20.532  20.112   8.465  0.1273  0.2838 -0.1327
    1W        W32062  18.606  25.006   9.712 -0.3969  0.1923  0.3425
    1W        W32063  13.204   9.881   7.485 -0.2998  0.1191 -0.1329
    1W        W32064  26.104  10.095   7.205  0.0335 -0.0484  0.1662
    1W        W32065  26.395   0.861   7.854  0.1045 -0.2060 -0.2403
    1W        W32066  11.745   3.347   1.320  0.2575  0.0027  0.0914
    1W        W32067  22.300  28.311   9.240  0.0764  0.0563  0.0163
    1W        W32068  18.597   1.295   1.808  0.0058  0.3570  0.0614
    1W        W32069   2.546   2.720   8.020 -0.1998  0.0019 -0.0795
    1W        W32070   9.609  18.120   2.474  0.1359 -0.0411 -0.1836
    1W        W32071   7.715  14.162   2.858 -0.2935 -0.2988 -0.1090
    1W        W32072  18.410  15.659   9.374 -0.2091 -0.2272 -0.0419
    1W        W32073   3.530  19.820   9.344 -0.0504  0.2220  0.0074
    1W        W32074  15.289   9.255   8.389  0.1741  0.2992 -0.0064
    1W        W32075  26.597  18.585   1.659 -0.1307  0.1463  0.2241
    1W        W32076  25.199  12.974   7.303  0.0287  0.1479  0.1025
    1W        W32077   2.714  25.392   6.340 -0.0849 -0.0591  0.0449
    1W        W32078   8.522   3.303   8.786 -0.1423 -0.0024 -0.0255
    1W        W32079  21.362  22.557   2.457 -0.0457  0.0339  0.0040
    1W        W32080  21.234  24.610   3.040  0.1265  0.0158  0.1948
    1W        W32081  26.500  21.548   0.324 -0.2711  0.0063 -0.0213
    1W        W32082   3.867  11.075   1.617  0.3349  0.1648  0.2708
    1W        W32083  18.223  11.969   7.603 -0.0059 -0.0459 -0.0135
    1W        W32084  27.690  17.956   6.746  0.1156  0.1723  0.1167
    1W        W32085  21.223  25.922   8.401 -0.0045  0.3805  0.3260
    1W        W32086  18.456   6.832   7.832  0.0921  0.0145 -0.2241
    1W        W32087   7.207  20.546   1.167 -0.1043  0.0574  0.2063
    1W        W32088   3.913  11.806   8.042  0.1191 -0.0339  0.1374
    1W        W32089  25.651  19.162   0.235 -0.0999 -0.0085 -0.0764
    1W        W32090   9.626  25.821   0.355  0.1076  0.0152  0.1558
    1W        W32091   5.936  17.738   7.348 -0.0941  0.0873 -0.1207
    1W        W32092  23.329  14.158   9.169  0.3193  0.0285  0.0834
    1W        W32093  14.221   4.588   3.006  0.0484  0.2249 -0.1293
    1W        W32094  20.134   4.080   1.869  0.0371  0.3588 -0.2965
    1W        W32095  20.008   3.149   7.371  0.1808  0.0451 -0.0173
    1W        W32096   2.073  12.738   0.199  0.0941  0.1502 -0.0949
    1W        W32097   7.292  10.079   2.630 -0.0093  0.2270  0.1388
    1W        W32098   0.778  24.249   6.692 -0.0922 -0.3880  0.2158
    1W        W32099  27.773  27.438   1.275  0.4232  0.4694  0.0591
    1W        W32100  18.394  26.229   7.240  0.1244 -0.1801  0.3593
    1W        W32101   5.192  20.115   8.920 -0.1176 -0.0180 -0.6240
    1W        W32102   1.038  13.817   1.898  0.0991 -0.2967  0.0954
    1W        W32103  26.461  10.398   0.252  0.2551 -0.0268 -0.0874
    1W        W32104   0.358   0.371   7.500  0.3937 -0.1525 -0.1653
    1W        W32105   5.327  26.908   8.073  0.1739  0.3740 -0.3928
    1W        W32106  28.610  26.031   7.768 -0.0202  0.5301 -0.0744
    1W        W32107   0.455  17.207   6.439 -0.1020  0.0423  0.0194
    1W        W32108  26.382   9.118   8.682 -0.2889  0.2024 -0.1162
    1W        W32109   2.058  14.275   2.430  0.1128 -0.0800  0.1648
    1W        W32110  24.086  27.687   0.876 -0.0085 -0.5207  0.2047
    1W        W32111  26.876   4.356   0.252 -0.0449 -0.0701 -0.2048
    1W        W32112   3.706   1.805   9.296 -0.0105 -0.0044 -0.0624
    1W        W32113   9.741  19.511   9.044  0.2947  0.2379 -0.1576
    1W        W32114  22.190   3.657   9.317 -0.0011  0.0175 -0.0750
    1W        W32115  19.849  21.798   7.892  0.0452 -0.0067 -0.0105
    1W        W32116  26.489   8.803   9.619 -0.2321 -0.0302  0.0968
    1W        W32117  18.550   5.774   0.954 -0.1610  0.0772 -0.2672
    1W        W32118   6.383  17.799   5.754 -0.1615  0.3646  0.1171
    1W        W32119   3.028   0.979   2.846 -0.1263 -0.0909 -0.2170
    1W        W32120   7.579  25.920   3.143  0.2804  0.4899  0.0066
    1W        W32121  27.058  22.773   7.931  0.3215 -0.1094  0.1132
    1W        W32122  17.449  25.860   8.106 -0.1342 -0.3604 -0.0615
    1W        W32123   9.360  16.941   8.238 -0.3882 -0.0881  0.1811
    1W        W32124  22.061  24.737   8.408  0.2389 -0.1907 -0.0993
    1W        W32125  20.920   9.265   1.010 -0.1626 -0.0739  0.0803
    1W        W32126  16.108   1.208   0.887 -0.2161  0.1246  0.0627
    1W        W32127  11.135   2.502   8.837 -0.3563 -0.0861 -0.1197
    1W        W32128   9.961  10.243   0.678 -0.1627 -0.1211 -0.0569
    1W        W32129  28.066   3.515   8.873  0.0191  0.1829 -0.2294
    1W        W32130   3.305  26.737   2.230 -0.3939 -0.2637 -0.1823
    1W        W32131  21.361  21.414   1.403 -0.1214  0.1688  0.2123
    1W        W32132   5.815  12.916   8.701  0.0658 -0.3022  0.0779
    1W        W32133  26.378  20.003   2.157 -0.3360 -0.1466 -0.0052
    1W        W32134  19.990  28.253   2.108 -0.1217  0.1696 -0.0356
    1W        W32135  14.409  22.350   1.041  0.0841 -0.2426  0.0493
    1W        W32136   5.983  13.940   7.986  0.2492  0.2061  0.2962
    1W        W32137  26.668   3.127   3.307  0.0217 -0.0393 -0.0354
    1W        W32138  20.171  25.321   1.862  0.2922 -0.0268  0.0915
    1W        W32139  26.902  25.812   8.039  0.3569 -0.0488 -0.2044
    1W        W32140  21.722  15.513   0.305  0.2503  0.0186  0.1344
    1W        W32141  16.632  18.257   2.253  0.1447 -0.0999 -0.1053
    1W        W32142  17.901  22.796   9.517  0.3492 -0.0919  0.2815
    1W        W32143  26.578  25.193   1.618  0.0351 -0.0616 -0.4232
    1W        W32144  19.159  23.510   7.999 -0.0295 -0.3031  0.1907
    1W        W32145  21.780  13.245   8.281  0.4692 -0.0702  0.0750
    1W        W32146  23.800  21.003   8.090  0.3460 -0.2052 -0.3675
    1W        W32147  24.957  14.154   2.302 -0.1923  0.1311 -0.1995
    1W        W32148  24.351   9.720   6.827 -0.0711  0.2790 -0.3393
    1W        W32149  11.487  15.840   1.355 -0.1123  0.3277  0.1474
    1W        W32150   6.695   3.768   1.546 -0.0998 -0.1917  0.0477
    1W        W32151   2.115   3.367   0.093  0.0781  0.0607  0.2644
    1W        W32152  20.699  11.840   1.169 -0.0754  0.0300 -0.0558
    1W        W32153   3.444  16.988   2.778 -0.2864 -0.0218  0.0078
    1W        W32154  28.384   8.802   5.675  0.2723  0.5294  0.4485
    1W        W32155  11.639  26.350   2.694  0.1888  0.1047  0.0347
    1W        W32156  12.603   6.121   3.044 -0.2948  0.1169  0.1140
    1W        W32157  15.687  23.892   8.611 -0.0363 -0.0756  0.1410
    1W        W32158   8.143  28.369   0.349  0.2319 -0.0578  0.1301
    1W        W32159  14.358   2.698   3.027 -0.1017 -0.3426  0.3588
    1W        W32160   2.953  18.056   9.568 -0.1894 -0.0173 -0.2726
    1W        W32161  27.579  19.483   8.898  0.1359 -0.0269  0.2366
    1W        W32162  27.828   6.275   9.182 -0.2535  0.1718  0.1795
    1W        W32163  24.619   5.044   7.348  0.1909  0.1292 -0.0915
    1W        W32164  11.669  22.322   2.025  0.2220 -0.1308  0.0289
    1W        W32165  24.845  22.141   3.397 -0.0823  0.0745  0.2551
    1W        W32166   7.577  23.579   1.513 -0.3366  0.3421  0.2123
    1W        W32167  19.381  11.442   2.426 -0.3564  0.0431  0.2487
    1W        W32168   9.996  10.336   2.660 -0.1559 -0.0830 -0.3761
    1W        W32169  25.374   2.825   9.550  0.2286 -0.1763 -0.0402
    1W        W32170   2.637   7.611   2.425  0.0589  0.2389  0.0188
    1W        W32171  10.765  23.217   2.818  0.1909  0.0255  0.0565
    1W        W32172  15.804  28.399   2.623  0.1858 -0.1513  0.0556
    1W        W32173  25.175  23.621   2.409 -0.0586 -0.0142  0.1464
    1W        W32174  19.973  24.340   0.261  0.1850  0.1583 -0.3616
    1W        W32175  25.148   7.739   8.971  0.3910  0.0013  0.1112
    1W        W32176  12.786   0.545   7.154  0.0776  0.2853  0.1598
    1W        W32177  20.053  17.490   1.897 -0.0070 -0.1497  0.0888
    1W        W32178  20.291   3.436   1.772 -0.0971 -0.1007 -0.3051
    1W        W32179   2.286  20.828   1.136 -0.0890 -0.1708 -0.2970
    1W        W32180   0.349  17.621   0.327 -0.2953  0.0149 -0.1335
    1W        W32181   3.801  26.137   7.035  0.2415 -0.2715  0.0340
    1W        W32182  16.928  27.427   7.673  0.1122 -0.0033  0.1677
    1W        W32183   5.870  18.333   6.641  0.0318  0.2600 -0.0821
    1W        W32184  16.157  25.021   2.441  0.0207 -0.0186 -0.1088
    1W        W32185   2.550   1.095   0.342 -0.1037 -0.1997 -0.1443
    1W        W32186   9.493  16.062   7.779  0.0659 -0.2898  0.2690
    1W        W32187   9.162   9.469   1.859  0.1714 -0.0535 -0.1315
    1W        W32188   5.045  17.772   0.467 -0.0012  0.0475 -0.3863
    1W        W32189   4.875  13.804   2.676 -0.1594  0.1412  0.0472
    1W        W32190  18.914   6.132   1.692 -0.3338  0.1753 -0.1456
    1W        W32191  23.178   4.343   8.225  0.1534  0.0607  0.2293
    1W        W32192  25.774  12.329   6.788  0.2120 -0.4393  0.2629
    1W        W32193   2.740   0.238   9.155 -0.0006  0.0461 -0.0425
    1W        W32194  18.730   4.835   7.486  0.0927 -0.0033  0.1431
    1W        W32195  11.506  21.785   0.125 -0.0852  0.0952  0.0082
    1W        W32196  27.296  22.762   2.113 -0.1263  0.1568  0.0628
    1W        W32197  23.990   0.253   0.775  0.1033  0.0515  0.2029
    1W        W32198  15.829   6.701   3.708  0.2751  0.1230  0.3628
    1W        W32199  24.517   3.475   1.629  0.1838 -0.1408 -0.2701
    1W        W32200  27.062  13.895   9.117  0.2064  0.2428  0.1881
    1W        W32201  18.341  25.199   7.374  0.2540 -0.2810 -0.3092
    1W        W32202  20.039   3.688   0.456 -0.0299 -0.0846  0.0629
    1W        W32203  16.060  13.451   9.123  0.0312 -0.0763 -0.0572
    1W        W32204  21.909   9.457   7.604  0.2202 -0.1258 -0.0256
    1W        W32205  14.330   3.796   7.249 -0.1761 -0.2086 -0.1630
    1W        W32206  14.576   4.571   7.503 -0.0759 -0.1318  0.2777
    1W        W32207   3.692  23.402   2.201  0.0002  0.2217  0.1399
    1W        W32208  19.869  28.273   3.711 -0.0652 -0.4491 -0.1453
    1W        W32209  24.710  21.475   1.220 -0.0505  0.2491 -0.1074
    1W        W32210  27.221  17.771   9.151  0.2023 -0.1065 -0.1931
    1W        W32211   0.471   6.635   7.964 -0.0278  0.0136 -0.0445
    1W        W32212  10.601  18.372   2.284  0.1889 -0.1224 -0.2324
    1W        W32213  26.844  13.447   0.813 -0.0485  0.2550 -0.2690
    1W        W32214  13.869  15.744   2.413  0.0707  0.0479 -0.0207
    1W        W32215  22.823  17.374   9.684  0.0199 -0.1454  0.5123
    1W        W32216  10.593  23.275   0.535 -0.0391  0.0701 -0.0687
    1W        W32217  15.350  19.361   1.745  0.1861 -0.1614  0.0683
    1W        W32218  21.572   2.053   9.306  0.1579  0.1048 -0.2008
    1W        W32219  11.533  27.972   7.717 -0.1385 -0.2047  0.2221
    1W        W32220  24.057  13.090   8.495  0.1558  0.0375  0.1575
    1W        W32221  11.619  24.780   1.774  0.1927 -0.3213  0.0008
    1W        W32222   3.861  21.486   8.884  0.2428  0.2413  0.1595
    1W        W32223  24.883   8.829   6.809 -0.0690  0.0609  0.2155
    1W        W32224  12.712   6.766   2.284 -0.1651  0.0576 -0.2446
    1W        W32225  25.241   1.702   7.812 -0.1037  0.1479 -0.0103
    1W        W32226  25.047  13.178   5.728  0.1870  0.0499  0.6230
    1W        W32227  16.525  19.402   8.813 -0.1376  0.0928 -0.2511
    1W        W32228  10.778  10.457   2.157  0.0511 -0.1382  0.1837
    1W        W32229   3.853   2.235   9.476 -0.2116 -0.2422  0.2621
    1W        W32230  19.431  20.857   7.763 -0.0193  0.0069  0.0709
    1W        W32231  27.907   4.132   1.975  0.2279  0.1402  0.1092
    1W        W32232   3.433  24.553   2.847  0.0898 -0.1002 -0.0949
    1W        W32233  15.897   1.578   3.706  0.0438 -0.1362  0.0625
    1W        W32234  16.978   7.036   7.344  0.0320 -0.0239 -0.1139
    1W        W32235   5.458  20.401   9.233  0.0681 -0.2429  0.1383
    1W        W32236  21.139   2.860   1.758  0.0282 -0.2141 -0.0108
    1W        W32237  13.681  18.160   9.705 -0.0988  0.2881  0.0468
    1W        W32238   8.444   3.084   2.983  0.0424 -0.0624 -0.0499
    1W        W32239   0.489  11.264   1.180 -0.0061 -0.0835  0.0263
    1W        W32240   8.050  18.593   7.269 -0.1906  0.0237 -0.2651
    1W        W32241  11.571   2.039   8.000 -0.0050  0.2753  0.0619
    1W        W32242   3.982  28.026   7.668  0.3127  0.0908  0.4477
    1W        W32243  24.182  17.443   6.225  0.1434 -0.1072  0.2139
    1W        W32244   4.960   3.890   7.923  0.1078 -0.3028 -0.2601
    1W        W32245  11.093   0.919   8.018  0.2390 -0.2069  0.1613
    1W        W32246  24.218   3.211   1.004 -0.0408 -0.0691 -0.0423
    1W        W32247  27.338   2.646   8.300 -0.2527  0.0937  0.2945
    1W        W32248   6.738  22.951   6.777  0.1923  0.2116 -0.1626
    1W        W32249  27.874  26.193   9.877 -0.0810  0.4662 -0.2145
    1W        W32250  13.813  15.915   0.080  0.1664  0.2265 -0.0728
    1W        W32251  16.461   2.811   6.990  0.1321 -0.2264  0.1905
    1W        W32252   9.872  26.088   8.804  0.1861  0.1350  0.1155
    1W        W32253  26.720  21.554   2.153 -0.0674  0.1623  0.1224
    1W        W32254   2.630  22.092   1.562 -0.0308  0.0143  0.2223
    1W        W32255  18.220  10.432   7.815 -0.2304  0.1964 -0.0040
    1W        W32256  19.947  15.513   8.438 -0.0431  0.0531  0.1918
    1W        W32257  16.144   8.020   3.036  0.0445  0.1924  0.0339
    1W        W32258  22.313  15.399   0.867 -0.0793 -0.2488  0.0992
    1W        W32259  16.035   7.498   3.153  0.0177  0.2118  0.2960
    1W        W32260   8.436  23.248   7.107  0.2812 -0.0216 -0.3585
    1W        W32261  21.145   2.215   9.147  0.3681  0.1971  0.1869
    1W        W32262   6.763  14.755   6.354 -0.1169  0.3662  0.0978
    1W        W32263   5.440   3.033   8.439  0.1941 -0.1108 -0.0288
    1W        W32264  18.964   8.258   2.307 -0.1471  0.1778 -0.2171
    1W        W32265   9.655  15.592   6.965  0.1797 -0.1745  0.2265
    1W        W32266   0.613   5.256   0.787  0.0035 -0.2210 -0.2731
    1W        W32267  18.625   4.230   7.867 -0.0345  0.3162  0.1259
    1W        W32268   1.115   6.065   8.894 -0.0370 -0.2543  0.3266
    1W        W32269   6.874   8.327   0.655  0.0770 -0.0340 -0.1161
    1W        W32270  14.636   3.248   6.937 -0.2009  0.1612  0.0374
    1W        W32271  12.715   4.888   2.676 -0.0551 -0.1780  0.4333
    1W        W32272  26.142   4.156   0.038  0.0016  0.0129 -0.1543
    1W        W32273  21.661  18.432   7.846 -0.4210  0.0183 -0.2141
    1W        W32274  28.496   3.932   7.302  0.0769  0.1706 -0.1278
    1W        W32275  17.033  22.307   3.072 -0.0488 -0.2432 -0.0584
    1W        W32276   8.105   2.405   7.566  0.1236 -0.0279  0.0054
    1W        W32277   6.325  20.240   7.225  0.0073  0.1332  0.0993
    1W        W32278   7.740  11.112   2.816 -0.0422  0.0035  0.0514
    1W        W32279  28.184   7.710   1.720  0.1237  0.1069  0.2089
    1W        W32280  22.996  10.318   2.973  0.1492  0.3132  0.0465
    1W        W32281  25.564  26.583   8.553 -0.2570 -0.1073  0.0856
    1W        W32282  20.583   3.376   1.241 -0.1791  0.1454 -0.0596
    1W        W32283  14.594  15.658   1.346 -0.4581 -0.1855 -0.1478
    1W        W32284   4.570  21.496   6.032 -0.0898 -0.1831 -0.0711
    1W        W32285   2.459  26.926   1.843  0.0398 -0.1511  0.2447
    1W        W32286  24.124   9.161   0.528  0.2384  0.1058  0.1110
    1W        W32287   7.924   8.646   8.789 -0.0871 -0.0558 -0.3100
    1W        W32288   2.423   5.418   9.081  0.5642  0.0956 -0.1380
    1W        W32289   6.241  20.065   1.846 -0.1939 -0.1106  0.0499
    1W        W32290   6.374  18.175   2.191 -0.0756  0.2202  0.3056
    1W        W32291  20.931  10.944   9.128 -0.0312 -0.1400  0.0963
    1W        W32292   8.283  20.352   1.949  0.3084 -0.0073 -0.0781
    1W        W32293   0.606  26.381   1.838 -0.2529  0.3180  0.0623
    1W        W32294  13.084  23.480   0.443 -0.1019 -0.1738 -0.0053
    1W        W32295  12.572  13.970   8.659 -0.0900 -0.0711  0.1674
    1W        W32296  25.526   3.885   2.323 -0.0219 -0.2998 -0.0658
    1W        W32297  17.676  17.198   9.829 -0.0748  0.0874 -0.2224
    1W        W32298  19.084  23.580   6.717 -0.2481  0.5487  0.1502
    1W        W32299  25.720  25.842   8.279 -0.0339 -0.0953  0.2489
    1W        W32300   6.547  27.706   1.647 -0.0224  0.1115 -0.1465
    1W        W32301   7.024   0.689   8.926 -0.0034  0.0798 -0.1459
    1W        W32302  25.555  23.397   9.309 -0.3042  0.1099 -0.1234
    1W        W32303   4.971   7.444   6.951  0.1814  0.0602 -0.0416
    1W        W32304  23.041  11.208   8.433  0.1141 -0.0838  0.0533
    1W        W32305  17.764  13.394   6.943 -0.1196 -0.0833  0.2297
    1W        W32306   8.114  26.006   3.275  0.2864 -0.5369  0.1324
    1W        W32307   7.109  20.665   0.705  0.0877  0.1473 -0.0582
    1W        W32308   8.432  24.011   6.002  0.3799 -0.0528  0.2082
    1W        W32309  16.155  14.606   0.749 -0.1484  0.1054  0.2855
    1W        W32310  23.606  11.357   7.178  0.0266  0.1176 -0.0031
    1W        W32311   0.616  27.766   2.563 -0.0966  0.2322 -0.0646
    1W        W32312  24.851   7.189   8.237 -0.0896  0.2813  0.2131
    1W        W32313  28.564  26.561   1.603 -0.1971  0.1955 -0.0661
    1W        W32314   0.386   9.328   1.021  0.1929  0.1965 -0.1724
    1W        W32315   5.282   3.451   8.136 -0.1033  0.0227  0.0380
    1W        W32316  23.530  15.315   7.929 -0.1262 -0.1314  0.1549
    1W        W32317   5.392  16.675   1.294 -0.2015 -0.1282 -0.1800
    1W        W32318   5.361  16.256   7.413  0.0245 -0.1035  0.1784
    1W        W32319  11.653  12.589   8.314 -0.1547  0.0514  0.1369
    1W        W32320  19.703  23.008   9.736  0.0982 -0.1018  0.1373
    1W        W32321  26.950   8.535   7.236 -0.1270 -0.0322 -0.1843
    1W        W32322   4.428   0.388   2.159  0.0672  0.1172  0.2320
    1W        W32323   3.789  28.564   0.484  0.2598 -0.3730  0.3326
    1W        W32324  22.285  17.354   9.483  0.3214  0.1627  0.1762
    1W        W32325  22.126  20.293   0.960  0.0664  0.0068 -0.0962
    1W        W32326  18.583  17.373   8.863  0.0308  0.0833 -0.0052
    1W        W32327   7.627  23.852   7.810  0.1232  0.0734 -0.3235
    1W        W32328   6.595  18.256   9.536 -0.0198 -0.0767  0.0074
    1W        W32329  19.619  10.029   7.403 -0.0138 -0.1496 -0.0956
    1W        W32330  16.608  16.550   8.970  0.1341  0.2120  0.0600
    1W        W32331  10.324  16.066   8.875  0.0914  0.3255 -0.0472
    1W        W32332   5.395   6.749   7.355 -0.0449 -0.0395 -0.2155
    1W        W32333   6.163   4.550   1.372 -0.2578  0.0613  0.1502
    1W        W32334  17.884  23.522   6.794 -0.3564 -0.2214  0.1410
    1W        W32335  23.447  23.058   8.068 -0.0748  0.2382 -0.2573
    1W        W32336  25.289  20.067   1.305 -0.0807 -0.0515 -0.0722
    1W        W32337   7.095  18.305   7.104  0.0545 -0.2660 -0.0315
    1W        W32338  27.612  21.053   8.133  0.1461 -0.0769  0.2269
    1W        W32339   3.082   5.396   1.963 -0.0311  0.1624 -0.1341
    1W        W32340   7.428   2.762   6.773 -0.1554  0.0087  0.1354
    1W        W32341   6.964  23.030   1.899 -0.0744 -0.2361  0.1987
    1W        W32342  17.220  17.967   9.138 -0.0665 -0.1757 -0.0316
    1W        W32343   3.712   1.286   9.502  0.0982 -0.2094 -0.0197
    1W        W32344   0.400  23.500   2.940  0.1192  0.0700 -0.2535
    1W        W32345   6.442  21.691   8.729  0.2189 -0.1428 -0.1724
    1W        W32346   8.196  16.324   1.191  0.0393  0.0884  0.0613
    1W        W32347   4.489   7.634   7.113  0.1618  0.1046 -0.6059
    1W        W32348  19.248  23.808   8.793  0.0491 -0.0083  0.3783
    1W        W32349  19.996  28.011   0.614  0.1934  0.0805  0.0693
    1W        W32350  26.553  12.791   7.340  0.0818  0.1677  0.1050
    1W        W32351   8.661  22.144   1.919 -0.1129 -0.0017 -0.0758
    1W        W32352  15.945  15.121   8.887  0.1428  0.0138  0.1182
    1W        W32353  23.756  27.007   0.409  0.5518 -0.2994  0.1975
    1W        W32354  26.834  20.950   1.922 -0.0403  0.1265  0.1632
    1W        W32355  23.364   5.175   7.971  0.1886 -0.0194  0.2457
    1W        W32356  18.074  13.144   1.044 -0.0511  0.0612 -0.0607
    1W        W32357   0.136  16.185   8.072  0.0506  0.0439 -0.0434
    1W        W32358   5.192   8.931   9.545 -0.1434  0.0473 -0.0388
    1W        W32359  22.287  20.734   0.735 -0.0052 -0.3837 -0.0961
    1W        W32360   7.618   3.678   9.673 -0.1148  0.1568  0.3836
    1W        W32361  23.907   4.347   9.748  0.2069  0.0394 -0.0217
    1W        W32362   3.189  18.298   6.869  0.2511  0.0812  0.1169
    1W        W32363  18.917   3.337   1.356  0.0182 -0.3309 -0.1747
    1W        W32364   8.900   8.675   8.658  0.0567  0.1014 -0.3287
    1W        W32365  26.891   9.489   7.356 -0.0454  0.0571  0.4308
    1W        W32366  12.280  20.682   8.408 -0.1387  0.0741  0.1544
    1W        W32367   7.251  16.796   8.896 -0.1098 -0.1733 -0.2682
    1W        W32368   2.893  22.059   6.077 -0.2363 -0.1829 -0.0016
    1W        W32369   9.565  10.825   1.922 -0.0680 -0.0396 -0.4873
    1W        W32370  11.686  22.465   9.118 -0.1395 -0.1593 -0.1608
    1W        W32371   3.280   7.978   3.134  0.2134 -0.1151 -0.1214
    1W        W32372  19.858   5.960   7.271  0.0108 -0.1588  0.2938
    1W        W32373  15.657  27.866   7.911 -0.0184  0.2537  0.1965
    1W        W32374  17.061  15.720   0.588 -0.2333  0.1031  0.0183
    1W        W32375  12.237   9.741   9.888  0.0672 -0.1623  0.0681
    1W        W32376  22.122   0.113   0.427 -0.1017  0.1192 -0.2683
    1W        W32377  18.670  21.594   1.630  0.0666  0.1420 -0.1043
    1W        W32378   3.696  17.861   8.468 -0.1064  0.3188 -0.1960
    1W        W32379   4.967  21.761   0.286 -0.0069  0.1710 -0.3060
    1W        W32380   4.664  18.530   0.543 -0.0047 -0.1350 -0.0598
    1W        W32381   2.537   8.991   6.743  0.0942  0.1349  0.0017
    1W        W32382  11.745  17.928   1.126  0.2326 -0.3695  0.2022
    1W        W32383  28.045   9.462   8.966 -0.0419 -0.4428 -0.0933
    1W        W32384  25.543   5.957   1.011  0.0780 -0.1474 -0.0977
    1W        W32385  12.748  15.486   1.122  0.1561 -0.1254 -0.2622
    1W        W32386  19.257  13.925   2.610  0.0103 -0.1452  0.1923
    1W        W32387  24.475  12.422   9.073 -0.1145 -0.0167 -0.0223
    1W        W32388  20.741  22.771   6.494  0.1284  0.1083  0.0564
    1W        W32389  27.174   4.447   7.620  0.1520  0.1710 -0.0376
    1W        W32390  27.115  12.642   9.439 -0.0594  0.1608  0.1066
    1W        W32391   5.995  27.197   9.279  0.2064 -0.0496 -0.2004
    1W        W32392  16.212   1.286   1.860 -0.0320  0.0042  0.2258
    1W        W32393  11.537   6.283   0.881 -0.0355 -0.1199  0.4299
    1W        W32394  10.590   6.258   8.958  0.1540 -0.1760 -0.1014
    1W        W32395  23.351   2.465   7.913  0.0068 -0.3015 -0.1459
    1W        W32396  14.791  21.917   7.805  0.1597  0.1060 -0.2099
    1W        W32397  17.109   3.781   2.749  0.2786  0.0278 -0.0172
    1W        W32398  28.145   7.214   9.661  0.0979 -0.1103  0.0436
    1W        W32399   1.625  28.166   8.218 -0.1319  0.2625 -0.1255
    1W        W32400  23.506   7.313   3.133 -0.0456  0.0998  0.1257
    1W        W32401  18.447  19.934   1.835 -0.3066  0.2615 -0.2812
    1W        W32402  11.977  27.516   7.419 -0.2201 -0.0673 -0.1210
    1W        W32403  16.589  11.378   7.873  0.1262  0.3873  0.1368
    1W        W32404  15.714  17.387   0.723  0.1824 -0.2852  0.1765
    1W        W32405  19.517  23.534   8.483 -0.2381  0.0893  0.2261
    1W        W32406   1.405   5.083   8.076  0.1071  0.0885  0.0783
    1W        W32407  17.867  27.845   2.790  0.1221 -0.0241 -0.2167
    1W        W32408   7.606  26.714   0.951  0.3769  0.0098 -0.0631
    1W        W32409   6.978   3.361   9.595  0.2998  0.0370 -0.1600
    1W        W32410  24.961  19.490   9.214  0.1925  0.0974 -0.1003
    1W        W32411  19.767  20.837   2.003  0.1206 -0.0147 -0.0081
    1W        W32412  27.287  23.814   0.371  0.3846 -0.2636  0.0062
    1W        W32413   7.903   1.257   8.151 -0.0473 -0.2632  0.0874
    1W        W32414   5.952  16.969   9.133 -0.0830  0.3454  0.1642
    1W        W32415  26.549  13.960   6.264 -0.0500 -0.0959  0.2648
    1W        W32416  15.938  21.827   2.060  0.2227  0.0285  0.2503
    1W        W32417  17.449   0.993   0.173  0.1271  0.2511 -0.0764
    1W        W32418  24.000  18.397   8.959 -0.1046  0.2130 -0.1535
    1W        W32419  14.014  16.388   7.779 -0.1858  0.0167  0.0466
    1W        W32420  15.767   6.639   3.093  0.1014 -0.0071  0.3035
    1W        W32421  14.061  11.034   2.627 -0.2784 -0.2397 -0.1037
    1W        W32422  13.096  23.715   8.395 -0.0852  0.0666  0.0487
    1W        W32423   4.004  26.732   8.646 -0.1392  0.2479 -0.1483
    1W        W32424   1.736   7.487   1.135  0.1141 -0.1522 -0.1219
    1W        W32425  19.312  14.736   8.961 -0.1248 -0.0353 -0.1109
    1W        W32426  16.971  13.077   2.309  0.0201 -0.1864  0.3599
    1W        W32427  17.941   0.958   8.687  0.0560 -0.1529 -0.0354
    1W        W32428  11.703  26.601   7.497  0.0155 -0.3980  0.4651
    1W        W32429  22.020   3.321   7.195 -0.0695  0.0684 -0.0599
    1W        W32430  24.022   9.322   6.680  0.2731  0.1970  0.1848
    1W        W32431   1.642   2.652   9.028 -0.1219  0.4489 -0.1242
    1W        W32432  16.657  28.556   2.676 -0.1393 -0.3577 -0.2993
    1W        W32433   3.307  23.063   2.117  0.1328  0.1179 -0.0532
    1W        W32434  22.974   9.276   0.344 -0.0835  0.0922 -0.2499
    1W        W32435  17.699  10.042   9.633 -0.2036  0.1147  0.2823
    1W        W32436  23.926  22.707   0.724  0.0447 -0.0915  0.0709
    1W        W32437  12.238   6.354   3.294  0.0698 -0.2928 -0.0163
    1W        W32438  23.667  26.416   1.939  0.0895  0.2425  0.0201
    1W        W32439   4.489  14.946   2.194  0.3580  0.0705 -0.2626
    1W        W32440  19.676  19.896   9.237  0.0858  0.0738  0.0935
    1W        W32441   5.027  26.135   0.520 -0.0954 -0.0122 -0.0912
    1W        W32442  18.375   5.943   2.333  0.0566  0.0619 -0.3052
    1W        W32443  18.409  10.481   2.755  0.1436 -0.0944 -0.2019
    1W        W32444  28.139  21.300   6.820 -0.0357  0.1172 -0.2108
    1W        W32445   6.689  15.245   7.665 -0.3968  0.0492  0.0741
    1W        W32446   2.837  21.812   9.746 -0.3917  0.2002 -0.0040
    1W        W32447  12.194   0.342   9.122 -0.1934 -0.0503 -0.1545
    1W        W32448  23.807  19.454   1.264  0.3611  0.0651 -0.0997
    1W        W32449  25.104   5.344   3.160  0.1775 -0.5168  0.1471
    1W        W32450   9.341  28.015   1.423  0.0555  0.3423  0.2614
    1W        W32451   6.817  24.863   3.074  0.1722  0.0800 -0.2967
    1W        W32452   4.121  17.854   8.085  0.0922 -0.0183  0.0880
    1W        W32453  25.613  14.366   9.432 -0.2812 -0.1375 -0.0862
    1W        W32454   2.116  28.403   6.620 -0.0834  0.1325  0.0552
    1W        W32455  10.507  15.745   8.525 -0.1573 -0.0575  0.1336
    1W        W32456  12.709  22.987   8.978 -0.0146  0.1978 -0.0503
    1W        W32457  27.681  10.492   6.507 -0.1780  0.2929  0.1057
    1W        W32458  11.088  21.047   7.942 -0.0353  0.1581 -0.1642
    1W        W32459  15.224  10.476   8.260  0.1408 -0.1777 -0.0904
    1W        W32460  12.999  23.987   0.127  0.1687 -0.0304  0.1011
    1W        W32461   1.776  13.323   9.068 -0.1568  0.2333 -0.1460
    1W        W32462  23.377  26.498   9.774 -0.1839  0.2018 -0.1773
    1W        W32463   3.831  14.874   1.012 -0.0858  0.1136 -0.0323
    1W        W32464   8.287   8.350   9.065  0.0638 -0.2068 -0.1266
    1W        W32465  12.322  12.576   7.746 -0.0943  0.0475 -0.0892
    1W        W32466  27.204  10.381   9.343  0.1012 -0.4061  0.3365
    1W        W32467  17.031   5.842   1.789  0.1867  0.2517  0.0542
    1W        W32468  13.578  15.468   0.145 -0.0119 -0.1179 -0.2902
    1W        W32469   6.274  11.341   8.527  0.0794 -0.3164  0.0126
    1W        W32470   8.782   8.052   8.014 -0.2305  0.0174 -0.0682
    1W        W32471  24.343  22.344   0.434  0.3248  0.1362 -0.0128
    1W        W32472  21.229   1.273   2.429 -0.1460  0.3974 -0.2701
    1W        W32473   7.751   1.509   8.546 -0.0926 -0.0880 -0.1622
    1W        W32474  16.625   8.058   9.896 -0.0389 -0.1185  0.0607
    1W        W32475  13.378  16.753   1.236 -0.2192  0.0132  0.1146
    1W        W32476   5.122  16.261   1.066 -0.2335  0.3171  0.0826
    1W        W32477   7.485  28.218   2.665  0.0306 -0.0204 -0.2326
    1W        W32478   0.136   3.704   8.801  0.0523 -0.0005  0.2382
    1W        W32479  22.818   7.437   3.072  0.1441  0.0595 -0.3421
    1W        W32480   4.196  24.280   7.996 -0.3858 -0.0288  0.1039
    1W        W32481  11.098   3.633   7.718 -0.4192 -0.3250 -0.0317
    1W        W32482   5.481   2.356   1.767 -0.0783  0.2019 -0.2546
    1W        W32483  15.418  16.279   0.900  0.1515  0.1082 -0.1192
    1W        W32484   9.881  26.917   2.158 -0.1208  0.0633 -0.2172
    1W        W32485  15.946   7.980   7.986  0.2033 -0.0967 -0.3205
    1W        W32486  17.360  27.657   3.415  0.1856  0.1569  0.1891
    1W        W32487   0.590  10.095   7.074 -0.3305 -0.2487  0.1229
    1W        W32488  21.026  11.248   0.339 -0.0076  0.1295 -0.2224
    1W        W32489  23.889  12.194   1.993 -0.0624 -0.2676 -0.0417
    1W        W32490  26.991  15.253   0.621 -0.0948  0.1877 -0.2178
    1W        W32491  25.196   4.515   9.018 -0.0518  0.4053 -0.2228
    1W        W32492  27.175  23.552   7.083  0.1865 -0.0170  0.0090
    1W        W32493  16.029  23.688   1.888 -0.0120  0.0498 -0.1097
    1W        W32494  16.267  12.222   1.844  0.1295 -0.3406  0.1359
    1W        W32495  28.409  19.205   0.542 -0.1903  0.1238  0.0007
    1W        W32496  21.787   0.291   9.180  0.2287  0.0133 -0.2745
    1W        W32497   9.711  18.561   0.449 -0.0108  0.2231 -0.3466
    1W        W32498   6.756  11.652   8.498  0.0705  0.0300 -0.1676
    1W        W32499  13.005  21.369   1.593 -0.2972 -0.0945 -0.2102
    1W        W32500  25.181  12.363   2.950  0.1908  0.0902 -0.1935
    1W        W32501   4.226  27.693   8.489  0.0112 -0.0887  0.2561
    1W        W32502   6.868   2.695   0.410 -0.1637  0.0136  0.1016
    1W        W32503   1.177  26.084   0.847  0.1342  0.0129 -0.1061
    1W        W32504   1.354   3.986   9.696 -0.1907 -0.1360 -0.0396
    1W        W32505  21.871  21.014   9.592 -0.0176  0.0491 -0.0477
    1W        W32506   7.094   7.137   9.612  0.2708  0.0734  0.0628
    1W        W32507  28.044   8.499   0.587 -0.0196 -0.1395 -0.0395
    1W        W32508  12.371   8.632   8.089  0.2446  0.2930 -0.2808
    1W        W32509  19.500  24.386   2.184 -0.1230 -0.0336 -0.0726
    1W        W32510  16.978  22.951   1.031  0.1704 -0.0761  0.0469
    1W        W32511  11.425  16.385   1.465  0.1322  0.0313  0.1226
    1W        W32512  22.203   7.971   2.076 -0.1208 -0.1906 -0.1671
    1W        W32513   2.786  14.472   8.190  0.0544  0.2547  0.0137
    1W        W32514  15.340  21.079   9.324 -0.1448  0.1725  0.3405
    1W        W32515  20.512  15.694   0.414  0.0370 -0.0377  0.0945
    1W        W32516   8.211   1.600   8.344 -0.1332  0.0439 -0.0586
    1W        W32517  10.709  23.773   2.708  0.1834  0.1390 -0.1087
    1W        W32518   4.065  20.790   6.794 -0.1743 -0.2425  0.0517
    1W        W32519  26.403   7.488   9.366  0.4473  0.0217 -0.0414
    1W        W32520   0.543  13.300   7.786  0.0044 -0.1196 -0.0895
    1W        W32521  14.582  26.571   7.385 -0.1973 -0.2840 -0.0637
    1W        W32522  10.421   0.606   2.672 -0.2929 -0.0467 -0.0952
    1W        W32523   4.710  21.402   7.082  0.1402  0.2432  0.0401
    1W        W32524   9.003  27.542   0.715 -0.3167  0.0691 -0.0513
    1W        W32525  28.127  26.241   1.589  0.1099 -0.1440  0.3141
    1W        W32526  25.277  12.181   8.516  0.0045  0.1715 -0.0527
    1W        W32527   0.776  19.370   7.756 -0.0383  0.0630  0.1218
    1W        W32528   3.660   9.811   0.472  0.0813 -0.0625 -0.1437
    1W        W32529   3.119  19.607   9.613 -0.1997 -0.3054 -0.1917
    1W        W32530  13.936  11.638   9.110  0.2230  0.1620 -0.2224
    1W        W32531  17.377  20.420   0.932  0.2419 -0.2018  0.0598
    1W        W32532  27.251  26.760   2.457 -0.0807 -0.1977  0.4653
    1W        W32533  20.727  28.091   7.549 -0.0798 -0.4001 -0.1715
    1W        W32534  13.841  17.121   8.813 -0.0803 -0.1608 -0.1126
    1W        W32535  17.851  23.715   7.363  0.3310 -0.0330  0.0133
    1W        W32536  17.310   7.709   2.517 -0.1747  0.2411 -0.0546
    1W        W32537  26.310   1.919   0.961  0.3265 -0.2070  0.0408
    1W        W32538  13.223  26.801   2.472 -0.1350 -0.5388  0.3444
    1W        W32539  28.490  12.391   9.204 -0.0490  0.2652  0.1407
    1W        W32540   1.576  13.139   7.786 -0.1556  0.1127 -0.3535
    1W        W32541  11.307  28.045   9.090  0.1171 -0.1070  0.2983
    1W        W32542  13.330  21.357   9.798  0.3689  0.1488  0.0562
    1W        W32543  20.022   3.573   2.290  0.2990 -0.0986 -0.2405
    1W        W32544  16.612  23.942   9.600 -0.0329  0.0395  0.0615
    1W        W32545  24.066  22.766   6.901 -0.0917  0.0875 -0.1429
    1W        W32546  20.618   6.564   0.992 -0.0454 -0.1088  0.2117
    1W        W32547  24.656  25.885   9.852 -0.0809  0.0474  0.1004
    1W        W32548   0.478  16.702   8.885 -0.1094 -0.2907  0.1517
    1W        W32549   3.631  13.845   7.359 -0.1320 -0.0993 -0.0139
    1W        W32550  22.637   7.020   7.459 -0.1157  0.1050 -0.1153
    1W        W32551  19.469   2.558   0.439  0.0967  0.0271  0.2999
    1W        W32552   3.959  20.342   8.067  0.1030  0.2328 -0.2094
    1W        W32553   3.384  12.739   9.019  0.0572  0.0002  0.2077
    1W        W32554   3.156  23.681   6.482 -0.3459 -0.1983  0.0805
    1W        W32555  23.586  22.006   9.887 -0.0857 -0.0557  0.0566
    1W        W32556  17.084   7.592   7.073 -0.1188  0.0391 -0.1113
    1W        W32557   5.516  13.096   7.305  0.0490  0.1322  0.0025
    1W        W32558  12.575   7.055   8.331  0.1189  0.0133  0.0246
    1W        W32559  13.939  18.996   0.588  0.1768  0.2521 -0.0407
    1W        W32560   0.269   0.755   9.860  0.0774 -0.2699  0.1128
    1W        W32561  13.602   0.436   2.069  0.1617 -0.0634 -0.1953
    1W        W32562   7.463  24.984   8.347  0.1227  0.1246 -0.0352
    1W        W32563  12.552  24.785   0.820  0.0753 -0.2922 -0.3009
    1W        W32564  27.011  23.870   8.071 -0.1521 -0.0132 -0.1088
    1W        W32565   6.344   5.044   1.191  0.1236  0.2106  0.4952
    1W        W32566  14.079   6.595   2.619 -0.1082 -0.2391  0.1828
    1W        W32567  10.464  22.167   1.502  0.3267 -0.0624 -0.6899
    1W        W32568   6.886  18.946   8.351 -0.0427 -0.0889 -0.0834
    1W        W32569   6.883   5.054   2.609  0.2640 -0.0597  0.1921
    1W        W32570  13.119   6.374   2.250  0.2872 -0.1243 -0.1458
    1W        W32571  21.550  17.632   8.047  0.0094  0.0171  0.3774
    1W        W32572   9.449   7.271   8.214  0.1003  0.3479  0.0208
    1W        W32573  16.292  12.413   2.303  0.0615  0.0357 -0.1563
    1W        W32574  11.174  21.338   8.846 -0.1303 -0.2450  0.1621
    1W        W32575   3.440  11.842   6.987 -0.0567  0.3158  0.2239
    1W        W32576  27.196  13.770   1.495 -0.0456  0.1404  0.1464
    1W        W32577   8.214  25.865   9.729 -0.1258  0.3672 -0.0004
    1W        W32578  26.038  25.481   8.507 -0.0171 -0.1808 -0.0248
    1W        W32579  12.444   5.408   9.655 -0.0015 -0.0939  0.1854
    1W        W32580   2.279   4.776   7.191 -0.0414  0.1684  0.0607
    1W        W32581  19.781   3.778   8.627  0.0751 -0.0539  0.0316
    1W        W32582  12.371  27.468   0.992 -0.1131 -0.0368  0.0240
    1W        W32583  24.444  16.022   6.618  0.0614 -0.2673 -0.1322
    1W        W32584  21.811  24.074   7.689 -0.0631  0.1492  0.2828
    1W        W32585  11.017  22.951   2.091  0.1346 -0.1626  0.0630
    1W        W32586   8.233  13.813   1.984 -0.0137 -0.2423 -0.1428
    1W        W32587   3.634  15.231   9.183 -0.2703  0.1587 -0.1484
    1W        W32588   5.528   9.860   2.839 -0.0009 -0.0155 -0.1201
    1W        W32589   7.694   6.081   7.814 -0.1310 -0.2600 -0.1864
    1W        W32590  10.658  23.314   6.667  0.1959  0.1704 -0.0147
    1W        W32591  26.265   0.147   2.383 -0.1307  0.2802  0.1174
    1W        W32592  14.267  14.301   0.157  0.0482 -0.0145  0.1006
    1W        W32593  24.321  12.588   1.214  0.2188 -0.2823  0.0755
    1W        W32594  12.490  13.741   0.238 -0.0043 -0.2714  0.1807
    1W        W32595  13.923  10.428   8.467  0.1903 -0.0555  0.4763
    1W        W32596  21.090  13.888   7.736 -0.1431  0.2407  0.0878
    1W        W32597  28.340   2.479   8.898  0.0043  0.0180 -0.1057
    1W        W32598   7.895   4.491   7.112  0.1922  0.0320 -0.3217
    1W        W32599  14.404  22.091   8.079 -0.0086  0.0072 -0.3220
    1W        W32600  20.737  28.674   0.141 -0.3245 -0.1006 -0.1063
    1W        W32601  27.076  14.258   1.636 -0.0749  0.3594  0.0393
    1W        W32602   5.442  14.234   8.166  0.0503  0.0519 -0.0136
    1W        W32603  20.557  18.950   7.648  0.0894  0.0284  0.2716
    1W        W32604   5.428  28.235   1.586  0.0221  0.2114  0.2660
    1W        W32605   5.435  19.974   9.529  0.3711  0.0205  0.0098
    1W        W32606  23.595  10.304   2.160 -0.0780 -0.1382  0.2104
    1W        W32607   8.681  11.696   8.039  0.0931 -0.0942 -0.1340
    1W        W32608  22.061  26.719   7.432  0.2939 -0.2322  0.4507
    1W        W32609   7.910   5.093   0.281 -0.0624 -0.2628 -0.0495
    1W        W32610  27.480  22.618   1.169 -0.1341 -0.1685  0.0658
    1W        W32611   5.327   3.882   6.602  0.0648  0.0143  0.0189
    1W        W32612  19.597  22.546   8.405  0.4098 -0.1731  0.2100
    1W        W32613   0.484  18.550   7.043  0.0354  0.0108  0.1765
    1W        W32614  12.503  21.587   9.090  0.0718 -0.0181  0.1036
    1W        W32615   3.541  23.662   2.646  0.0541  0.2169  0.2387
    1W        W32616  16.510   4.685   0.319  0.1846 -0.0069  0.1061
    1W        W32617  20.393  20.039   1.762  0.0374  0.2671  0.0734
    1W        W32618   6.196   9.336   2.918  0.1758 -0.0220 -0.3840
    1W        W32619   4.013  12.141   9.501 -0.4308  0.2903  0.2582
    1W        W32620  22.681  26.706   9.455 -0.1137 -0.1647  0.4697
    1W        W32621  18.236  17.405   0.652 -0.1963  0.1524  0.0338
    1W        W32622   5.082  23.848   1.687 -0.0552 -0.2815 -0.0153
    1W        W32623   8.814   8.934   7.679 -0.3682  0.2476  0.1859
    1W        W32624  11.915   5.077   2.262  0.0155 -0.4126 -0.2773
    1W        W32625  19.092  21.889   1.892 -0.0033  0.1437  0.1563
    1W        W32626  24.577  23.948   0.735 -0.1095 -0.2112  0.1763
    1W        W32627  20.685  15.129   9.633 -0.0643  0.1353 -0.0258
    1W        W32628  13.517   9.257   8.713 -0.1945 -0.0199 -0.0643
    1W        W32629  11.674  27.111   1.256  0.1226 -0.1552  0.1477
    1W        W32630  20.327  15.400   1.355  0.2550 -0.1107  0.1416
    1W        W32631  14.626  28.628   8.425  0.0288 -0.3558 -0.2136
    1W        W32632  22.986  23.082   9.356  0.0876  0.4029 -0.4116
    1W        W32633  22.362   8.784   0.502  0.0666 -0.3091 -0.0293
    1W        W32634  18.068  16.025   7.685 -0.1021  0.0602  0.2113
    1W        W32635  17.179   3.392   3.114  0.1592  0.0035  0.1231
    1W        W32636   4.067  14.048   8.207 -0.1550 -0.0305  0.1119
    1W        W32637  14.333   2.306   8.446 -0.0453  0.2099 -0.2783
    1W        W32638  13.292  20.821   9.655 -0.3343 -0.1745  0.1456
    1W        W32639  19.102  16.214   0.407 -0.0614 -0.0851  0.0677
    1W        W32640  20.607  17.986   1.668  0.0663  0.1349 -0.1777
    1W        W32641   9.062  22.868   9.394  0.2229  0.1266  0.0821
    1W        W32642  20.361  17.683   8.082 -0.2900  0.0265 -0.0542
    1W        W32643  14.770  26.390   0.910 -0.1468  0.0816  0.3939
    1W        W32644  15.321   0.695   8.519 -0.1155 -0.0053  0.1226
    1W        W32645  27.026   2.185   9.793  0.2104 -0.1232  0.1596
    1W        W32646  25.613   2.349   8.279 -0.2206  0.0512 -0.1472
    1W        W32647   3.761  20.082   6.446  0.2926  0.0715 -0.1159
    1W        W32648  21.640  28.594   7.562 -0.3301  0.1464 -0.2009
    1W        W32649   5.993  28.609   2.768  0.2117 -0.2798  0.0765
    1W        W32650  19.756   4.952   8.925  0.1501  0.1126  0.3951
    1W        W32651  26.028  14.172   1.525 -0.1610  0.0175  0.1589
    1W        W32652  18.370  21.724   6.875  0.0499  0.1068  0.0287
    1W        W32653  12.573  23.848   1.595 -0.0763 -0.2599  0.1352
    1W        W32654   9.464  14.485   0.890 -0.2642 -0.0696 -0.1115
    1W        W32655  20.104  20.908   2.377 -0.0594 -0.2459  0.1251
    1W        W32656  18.816  28.246   1.108  0.1155  0.1644  0.0305
    1W        W32657  18.733   4.467   0.148 -0.0768  0.2058 -0.0852
    1W        W32658  25.166  17.418   9.415  0.1945  0.0828  0.1375
    1W        W32659  12.681   9.890   7.380  0.0797  0.1484 -0.3422
    1W        W32660   2.487  19.637   9.691  0.0061  0.1274 -0.1423
    1W        W32661   0.381   7.887   1.357 -0.1954 -0.0231 -0.0173
    1W        W32662  17.494  13.434   8.904  0.1013  0.2140 -0.0365
    1W        W32663   4.263  11.149   0.048  0.5016 -0.2986 -0.1306
    1W        W32664   1.479   4.694   7.667 -0.0783  0.2316 -0.2294
    1W        W32665   4.456  21.944   6.326  0.0876 -0.1011 -0.2185
    1W        W32666  20.505  27.764   1.326 -0.1075  0.2191  0.0835
    1W        W32667   9.582  18.721   0.015 -0.3800  0.2530 -0.1605
    1W        W32668  28.142  15.183   0.491 -0.0707 -0.1581 -0.0655
    1W        W32669  19.502   6.713   2.330 -0.3432 -0.3665  0.0654
    1W        W32670   5.515  28.695   1.374  0.0404  0.0607  0.0175
    1W        W32671  27.464  17.373   9.351  0.1568  0.0510  0.3407
    1W        W32672  13.872  28.001   1.808 -0.1272  0.0570  0.4607
    1W        W32673   0.903   2.187   7.625 -0.0506 -0.0105 -0.0827
    1W        W32674   0.014  13.373   2.110  0.0582  0.0687 -0.1202
    1W        W32675   0.516  23.649   6.737 -0.4083 -0.1302  0.0067
    1W        W32676  21.473   0.801   9.845  0.0865  0.1481 -0.2681
    1W        W32677   7.702  23.395   0.760 -0.3869  0.0237 -0.1362
    1W        W32678   1.071  22.969   8.439  0.0976 -0.0717 -0.1212
    1W        W32679  23.231  18.537   9.735 -0.1161  0.3036  0.1614
    1W        W32680   5.062   1.995   1.585 -0.4496  0.0849  0.0975
    1W        W32681   4.281  24.645   1.133  0.2653  0.0058  0.0358
    1W        W32682   7.113   5.881   8.622  0.0304  0.1581 -0.0887
    1W        W32683  27.098  23.076   7.265 -0.2281  0.0093 -0.2192
    1W        W32684   6.588  12.395   7.358  0.2152 -0.0298 -0.1131
    1W        W32685  17.673  23.399   9.069 -0.0167  0.1449  0.0797
    1W        W32686   3.860  11.057   0.406  0.2367  0.0096  0.0538
    1W        W32687  14.224   9.457   3.418 -0.0833 -0.1032  0.2664
    1W        W32688  27.984  18.982   0.197  0.3080 -0.2741 -0.3642
    1W        W32689   3.900   2.016   2.798  0.0451 -0.3065 -0.0668
    1W        W32690  23.739  18.928   1.190 -0.1985  0.0052  0.1548
    1W        W32691   4.193   1.806   9.542  0.0729 -0.2843 -0.2473
    1W        W32692  14.681  16.592   0.322  0.0820 -0.2622  0.3094
    1W        W32693  21.118   2.170   1.691 -0.1857  0.2812  0.0431
    1W        W32694  17.615   2.506   7.994  0.1071 -0.0329 -0.1166
    1W        W32695  11.804  28.653   3.360  0.5683 -0.0485  0.2725
    1W        W32696  20.808  23.139   3.833 -0.0213 -0.1060  0.0846
    1W        W32697  24.106  12.664   1.968 -0.1411 -0.3658  0.0159
    1W        W32698   9.426  23.737   0.577  0.2334 -0.2831  0.1912
    1W        W32699  21.156  15.229   7.799 -0.1848  0.0348  0.2907
    1W        W32700   3.756  13.725   0.784  0.1037 -0.1765  0.1506
    1W        W32701  13.566  18.788   1.581 -0.0304  0.0725 -0.1323
    1W        W32702  23.106   2.680   7.496  0.0757 -0.3085 -0.2711
    1W        W32703   8.350  18.650   9.772  0.1641 -0.0627 -0.1509
    1W        W32704   6.678  12.473   6.856 -0.1036 -0.0199  0.1887
    1W        W32705   9.255  24.028   1.039 -0.1103 -0.2106 -0.1758
    1W        W32706  24.992  20.731   0.032 -0.3246  0.1594  0.3811
    1W        W32707  20.850   6.796   1.487  0.0348 -0.1482  0.1065
    1W        W32708  10.674  27.144   8.501  0.0397 -0.0795  0.1732
    1W        W32709  21.767   3.412   9.208  0.0912  0.2075  0.0535
    1W        W32710  26.811   8.549   9.926 -0.4102 -0.0885 -0.0125
    1W        W32711  22.737   3.437   2.903  0.0097 -0.0431 -0.0948
    1W        W32712  17.189  10.938   1.160  0.0176  0.1404  0.2079
    1W        W32713  17.801   0.175   9.841 -0.2228  0.2946  0.0208
    1W        W32714  26.402   5.122   8.688 -0.1020 -0.2969 -0.0111
    1W        W32715  22.937  19.302   0.356  0.1765 -0.3507  0.2668
    1W        W32716  22.462  15.008   7.320  0.0291 -0.1823 -0.0822
    1W        W32717   3.260  13.683   2.442  0.1134  0.1929 -0.2809
    1W        W32718   6.867  20.538   8.779  0.1159  0.0517  0.0882
    1W        W32719  25.280  21.328   6.869 -0.2159 -0.3285 -0.0760
    1W        W32720   0.948  15.196   2.054 -0.2847  0.0499 -0.0283
    1W        W32721  25.191   1.170   7.963  0.2146  0.2392 -0.2911
    1W        W32722   8.333  20.134   8.790 -0.0626 -0.1248 -0.2929
    1W        W32723   5.459   8.985   1.852  0.1289  0.2438 -0.0340
    1W        W32724  25.448   9.175   0.462 -0.0142  0.0550 -0.1092
    1W        W32725  26.789  13.024   8.276 -0.0412 -0.1011 -0.0021
    1W        W32726  16.322  27.945   1.249 -0.0798 -0.0903  0.0123
    1W        W32727   0.158  13.315   0.868 -0.3205  0.1598 -0.0098
    1W        W32728   0.089  27.738   9.618 -0.3403  0.3509 -0.1169
    1W        W32729  14.397   3.008   3.395 -0.1082 -0.1153  0.0157
    1W        W32730   3.133   1.716   9.026 -0.0923 -0.1713 -0.0714
    1W        W32731   5.858  12.794   2.499  0.0310  0.1428 -0.3728
    1W        W32732   3.710  16.399   7.465  0.2325  0.0278  0.1018
    1W        W32733   3.462  16.542   7.941  0.0276 -0.0238  0.2951
    1W        W32734   0.493  18.301   9.659 -0.0534 -0.1120 -0.1386
    1W        W32735  26.089  10.111   1.586  0.0116 -0.0966  0.1960
    1W        W32736  27.763  15.569   9.165 -0.0527  0.0293  0.1516
    1W        W32737  20.339  14.358   7.691 -0.1385 -0.0779 -0.2957
    1W        W32738  12.652  26.853   7.710 -0.0234  0.2850  0.1916
    1W        W32739  11.762  25.433   8.279  0.3368 -0.4089 -0.0134
    1W        W32740  26.858  13.918   0.641 -0.1389  0.1815  0.1421
    1W        W32741   2.015   9.405   8.672 -0.1486  0.4186 -0.1957
    1W        W32742  13.241   1.738   9.478  0.0352 -0.0276 -0.0853
    1W        W32743  15.996  28.430   1.653  0.1339  0.0108 -0.0700
    1W        W32744   7.002   1.211   7.954  0.1094  0.2665  0.0187
    1W        W32745  22.568  20.696   0.300  0.1205 -0.1515  0.0934
    1W        W32746   8.832  11.418   2.283  0.0033 -0.2259  0.3384
    1W        W32747  23.562  12.554   1.816  0.0436  0.4851  0.0729
    1W        W32748  22.530   7.549   9.003  0.4556 -0.1586  0.0236
    1W        W32749   4.808   4.098   3.294 -0.1626  0.1503  0.0298
    1W        W32750  10.695  19.929   9.040  0.1609 -0.0603  0.1807
    1W        W32751   9.663  27.332   2.501  0.2964  0.1884  0.3858
    1W        W32752  27.827   4.783   5.612 -0.0839 -0.2716  0.0628
    1W        W32753  11.295  13.909   9.802  0.4189  0.2557 -0.0335
    1W        W32754  10.386  25.372   2.755  0.0534  0.1124 -0.0414
    1W        W32755   3.857  16.245   9.349 -0.2355 -0.1690  0.0740
    1W        W32756  18.080  25.790   8.918 -0.3595  0.0378 -0.2430
    1W        W32757  16.771  11.948   8.742  0.0153  0.1718  0.1462
    1W        W32758  24.383   0.911   8.568  0.2200 -0.1598  0.1632
    1W        W32759  22.640  23.699   8.232  0.0908  0.2143  0.0205
    1W        W32760  14.949  14.705   1.668 -0.0878 -0.2713  0.0364
    1W        W32761  25.185  23.070   3.046 -0.0633 -0.1705  0.0491
    1W        W32762   3.997  13.691   1.252  0.1402  0.0454 -0.2353
    1W        W32763  25.434  26.774   1.307  0.0533  0.3265 -0.0803
    1W        W32764  22.224  15.586   9.089  0.0149  0.2941  0.1213
    1W        W32765   5.502  12.234   8.471  0.0360 -0.0973 -0.1939
    1W        W32766   1.066  20.371   8.269 -0.2519  0.3820 -0.0226
    1W        W32767   4.285  27.651   8.002  0.2502  0.1172  0.1290
    1W        W32768   3.729   6.632   9.151 -0.0387 -0.1554  0.0458
    1W        W32769  20.085  20.495   7.508  0.0863  0.6104  0.0162
    1W        W32770   2.119   9.812   8.977  0.1507 -0.0276 -0.3042
    1W        W32771  10.806  13.942   9.693 -0.1556  0.1649  0.1754
    1W        W32772  26.953   0.077   3.961  0.1289 -0.0197 -0.3180
    1W        W32773  13.594   5.871   1.477  0.1224  0.4290 -0.0828
    1W        W32774  21.685   5.176   2.761 -0.1031 -0.2082  0.1831
    1W        W32775  27.704   2.621   2.689  0.0581 -0.2385  0.2543
    1W        W32776  15.690  24.986   8.862  0.1603 -0.1052 -0.1674
    1W        W32777  12.753  12.959   9.752  0.3902 -0.0293  0.2738
    1W        W32778  25.131  10.770   1.492  0.0015  0.2406  0.0508
    1W        W32779  27.943  26.668   6.492 -0.0830  0.3037  0.0201
    1W        W32780   5.607  26.860   9.398 -0.0810 -0.2359 -0.3699
    1W        W32781   4.010  17.673   1.382  0.3039 -0.1937  0.1987
    1W        W32782  18.094  13.555   1.582 -0.0749  0.0136 -0.1110
    1W        W32783  16.356   2.398   3.557 -0.1242 -0.0011 -0.0353
    1W        W32784  25.366   1.141   7.360 -0.1330  0.1121 -0.0929
    1W        W32785  21.652  26.210   6.842  0.1186  0.1765 -0.2000
    1W        W32786  22.727  27.380   8.873  0.0087  0.1470 -0.1621
    1W        W32787  12.598   8.633   9.593  0.0554  0.1751 -0.0221
    1W        W32788   3.980   0.445   2.366  0.0571 -0.4044  0.1200
    1W        W32789  10.425  13.722   1.665  0.0556  0.2644  0.0657
    1W        W32790  14.970   5.143   0.724 -0.0889  0.1511  0.1046
    1W        W32791  17.730   2.984   9.185 -0.1663  0.2528 -0.1686
    1W        W32792  10.548  24.747   8.352 -0.1282  0.1499  0.1061
    1W        W32793  19.337  10.606   0.866  0.4308 -0.2913 -0.0602
    1W        W32794  23.014   7.643   8.865  0.1982  0.0010  0.0722
    1W        W32795  24.944  25.459   6.451 -0.1473 -0.1319 -0.0106
    1W        W32796   1.136  24.138   3.221 -0.0356  0.1959  0.1406
    1W        W32797  16.282  16.972   2.660 -0.0797  0.2848  0.1161
    1W        W32798   0.453  28.153   8.912 -0.0968  0.0591 -0.1845
    1W        W32799  23.392  23.255   9.866 -0.1893  0.1169 -0.2770
    1W        W32800   9.025  19.701   7.828 -0.0237  0.0170 -0.2048
    1W        W32801  12.385  21.926   8.477 -0.2149 -0.0978 -0.0254
    1W        W32802  27.497  27.819   0.082 -0.0020 -0.2267  0.0637
    1W        W32803  15.073   4.337   4.284  0.3797 -0.1825  0.0374
    1W        W32804  13.481   6.971   8.611 -0.1525  0.1925 -0.1738
    1W        W32805   6.853   6.220   9.589  0.1039 -0.1503 -0.0250
    1W        W32806  24.175   3.179   1.914  0.1620  0.0339  0.3634
    1W        W32807  24.745  13.328   0.184 -0.2267  0.0856 -0.1239
    1W        W32808  12.159   5.245   0.080  0.2413 -0.0941 -0.0212
    1W        W32809  26.393   6.451   9.584  0.4506 -0.0185  0.0341
    1W        W32810  27.610  17.063   0.154 -0.2133 -0.0253 -0.0574
    1W        W32811  24.357  15.180   6.866 -0.0341 -0.0180 -0.1897
    1W        W32812   7.693   1.449   0.315  0.0034  0.3115  0.2330
    1W        W32813   7.729  23.152   2.444 -0.1030  0.0146 -0.0335
    1W        W32814  20.441  23.844   0.924  0.1088  0.1036 -0.1549
    1W        W32815  28.380  25.227   0.653 -0.0248  0.3240 -0.2648
    1W        W32816   0.637  22.614   2.113  0.2986 -0.0754 -0.0630
    1W        W32817  22.949  22.370   6.586  0.0742 -0.0016 -0.1062
    1W        W32818   6.749  12.830   7.692  0.2670 -0.1022  0.2259
    1W        W32819   9.404   1.629   8.904 -0.0184 -0.0133 -0.1781
    1W        W32820   4.000  25.752   5.983  0.0957 -0.2157  0.2945
    1W        W32821  14.538  11.846   0.855 -0.0746 -0.1656 -0.0438
    1W        W32822   1.926  15.490   8.816  0.2701  0.1827 -0.1806
    1W        W32823  18.319   8.999   7.768 -0.1177 -0.1017  0.1893
    1W        W32824  15.066   7.291   1.285 -0.0018 -0.1803  0.1055
    1W        W32825   8.471  27.207   1.895  0.2019  0.3868 -0.2774
    1W        W32826  11.474   4.526   7.914  0.1514  0.0339  0.3711
    1W        W32827  26.814   3.666   6.759 -0.2206 -0.1054  0.4079
    1W        W32828  16.524  24.221   0.847  0.0444  0.2142 -0.0879
    1W        W32829  16.246   9.315   1.006 -0.0912 -0.1101  0.1685
    1W        W32830   8.958  15.176   0.830 -0.0351  0.1041 -0.4159
    1W        W32831   9.988  27.394   0.245  0.0720 -0.2333 -0.2513
    1W        W32832  21.268  24.326   0.497  0.0707 -0.0545 -0.1579
    1W        W32833  15.825  13.237   2.141  0.1251 -0.0620 -0.1482
    1W        W32834   5.741   0.846   0.509  0.0015 -0.0728 -0.0223
    1W        W32835  17.805  20.075   7.670 -0.1127 -0.1318 -0.2145
    1W        W32836   3.897   3.149   9.272  0.2206  0.1142 -0.2237
    1W        W32837  15.209   0.270   2.242  0.0731 -0.0096 -0.1930
    1W        W32838   7.542  17.771   0.141 -0.2125 -0.0409  0.0839
    1W        W32839  13.382  27.467   3.282 -0.2940 -0.1109 -0.0893
    1W        W32840   2.191   9.224   6.967  0.0015 -0.1387  0.0899
    1W        W32841  22.633  25.044   8.632 -0.2514 -0.0275 -0.2321
    1W        W32842  23.548   6.662   0.281  0.2609  0.3683  0.3395
    1W        W32843  15.881  24.088   0.679 -0.1653  0.1699  0.2407
    1W        W32844  28.165   4.202   8.521 -0.0899 -0.0459  0.1182
    1W        W32845  11.812  12.930   0.855 -0.1872  0.3874 -0.2703
    1W        W32846  26.140   0.601   9.386  0.3854 -0.2769  0.1133
    1W        W32847  20.561   2.795   0.543 -0.2877 -0.1361  0.2282
    1W        W32848   8.164  20.945   8.129  0.0813  0.1432 -0.0597
    1W        W32849   5.623  24.453   7.204  0.1413 -0.0260  0.0839
    1W        W32850   5.294  23.684   8.502  0.0932 -0.1219  0.0632
    1W        W32851  10.311  13.001   7.255 -0.1664  0.1124 -0.0695
    1W        W32852   2.919  10.952   1.036 -0.0324 -0.0532  0.3440
    1W        W32853   0.952  23.846   1.617 -0.1161  0.1120 -0.1548
    1W        W32854  16.649  13.530   2.093 -0.1395  0.3000 -0.1821
    1W        W32855  24.353   9.302   8.767  0.2297  0.0074  0.2710
    1W        W32856  26.702  15.159   1.916  0.0495  0.3663  0.1487
    1W        W32857   3.522  16.603   9.263 -0.2481  0.1373  0.0547
    1W        W32858  26.370   8.959   2.491  0.1643  0.1715  0.0086
    1W        W32859   5.136  20.712   1.753  0.1316  0.0426 -0.0470
    1W        W32860  16.548  26.643   2.956  0.0964  0.2587  0.1696
    1W        W32861   2.010  25.731   7.936  0.0212 -0.0803 -0.2921
    1W        W32862   5.064   8.827   7.347 -0.1393 -0.0664 -0.0929
    1W        W32863  25.968  25.420   8.014 -0.1598 -0.2011 -0.1653
    1W        W32864   1.025  10.499   7.129 -0.0899  0.1532 -0.2418
    1W        W32865  12.135   4.981   3.148 -0.2202  0.0227 -0.1095
    1W        W32866   1.337  19.670   7.192  0.0823  0.0522  0.2007
    1W        W32867  13.391  26.951   9.944  0.1350  0.0032 -0.4086
    1W        W32868  24.822  23.924   7.925 -0.0102 -0.1149  0.0925
    1W        W32869  24.151   1.541   1.081  0.2834 -0.0743 -0.1286
    1W        W32870  20.819  27.707   3.768 -0.1298  0.3367  0.0077
    1W        W32871   0.065   7.558   8.251 -0.0338  0.1525 -0.1130
    1W        W32872  22.395  22.887   0.980 -0.1122 -0.1595  0.0391
    1W        W32873  28.348  24.542   9.505 -0.4028 -0.0081 -0.0076
    1W        W32874  11.028  27.433   8.285  0.2916  0.0642 -0.1985
    1W        W32875   5.486  11.938   1.206  0.1905  0.0409  0.1358
    1W        W32876  10.869  24.613   2.310  0.0527  0.1174 -0.0326
    1W        W32877   2.068  25.540   1.283 -0.0977  0.0119  0.2038
    1W        W32878  17.738   6.262   8.408  0.0018  0.2132 -0.0026
    1W        W32879  23.283   2.733   1.909 -0.2428 -0.0615  0.1468
    1W        W32880   5.507   7.641   7.005  0.0957 -0.0667  0.1869
    1W        W32881  28.699  23.359   1.225  0.0703 -0.1028 -0.1841
    1W        W32882  17.027  11.106   9.859  0.2780  0.1209 -0.0688
    1W        W32883   6.302   6.398   9.615  0.0518  0.1004 -0.1044
    1W        W32884  18.408  17.527   9.398 -0.3514 -0.0675  0.1788
    1W        W32885  24.852   3.339   7.202  0.3124  0.2809  0.0715
    1W        W32886  14.470  21.563   9.070 -0.1300  0.1913  0.0408
    1W        W32887  26.762   1.658   8.513  0.0881  0.1942  0.1406
    1W        W32888   4.605  13.930   8.234 -0.1022 -0.0268 -0.2312
    1W        W32889  12.982  26.329   2.549 -0.2334 -0.0146  0.2505
    1W        W32890   2.364  16.538   6.980 -0.1089 -0.0492  0.2848
    1W        W32891  11.261  24.442   6.769  0.1668 -0.0417  0.1144
    1W        W32892   9.716   8.967   2.429 -0.1223 -0.1377  0.0256
    1W        W32893   2.635  16.126   6.987 -0.0728 -0.0821 -0.1679
    1W        W32894   8.338  17.740   1.339  0.1173 -0.1723  0.0353
    1W        W32895  19.463   0.178   1.405 -0.0780 -0.0538 -0.0033
    1W        W32896   9.089  11.605   0.266  0.1578 -0.0622  0.3179
    1W        W32897   5.809   4.977   0.805 -0.0386  0.4887  0.0187
    1W        W32898  20.918  17.001   1.490 -0.3545 -0.1837 -0.1847
    1W        W32899  10.767  11.185   9.809 -0.0346 -0.3121 -0.1215
    1W        W32900  14.394  21.221   1.401 -0.0609  0.0777  0.0387
    1W        W32901   5.931   2.005   1.027  0.0961  0.0809  0.0048
    1W        W32902  13.711  27.664   2.174 -0.1142  0.2923 -0.3312
    1W        W32903  22.794   8.880   1.474 -0.1089  0.0913  0.0802
    1W        W32904   7.991   5.252   9.387  0.0223 -0.2158  0.3843
    1W        W32905  22.736   2.896   7.769  0.2476 -0.2326  0.1245
    1W        W32906  15.939  11.414   1.331 -0.0098 -0.3316  0.0454
    1W        W32907  22.590  12.420   9.275 -0.0650 -0.1920  0.0144
    1W        W32908  14.795  26.771   2.872 -0.0225 -0.3017  0.0779
    1W        W32909  18.193  27.444   2.869 -0.0100  0.1906 -0.0597
    1W        W32910  25.223   8.549   6.579 -0.0093 -0.3701 -0.2975
    1W        W32911   9.415  26.700   2.000 -0.4188 -0.0330  0.1035
    1W        W32912  15.648  25.700   2.525 -0.3025  0.3203  0.0454
    1W        W32913  18.000  22.856   2.392 -0.2495 -0.1429  0.0420
    1W        W32914  17.817  23.313   2.819 -0.1446 -0.0277 -0.2956
    1W        W32915  16.425   3.967   2.116  0.0508 -0.3736 -0.0581
    1W        W32916  17.520  26.175   3.877  0.1106 -0.0009 -0.1946
    1W        W32917  24.363  17.091   7.102 -0.1152  0.2189  0.1781
    1W        W32918  18.164  24.695   7.624 -0.0361  0.2886  0.0899
    1W        W32919   3.365  19.309   7.635  0.3383  0.1370 -0.0980
    1W        W32920   4.282   8.051   1.857  0.1807 -0.1666  0.0558
    1W        W32921   6.384  24.194   9.350 -0.2612  0.2116  0.0561
    1W        W32922   2.532  10.609   9.192 -0.1149  0.0355 -0.1070
    1W        W32923   5.414  23.835   1.122  0.0224 -0.0402 -0.1155
    1W        W32924  14.067   4.529   8.272  0.1985  0.0305  0.0357
    1W        W32925   8.920   3.641   0.623  0.0144  0.3030 -0.0734
    1W        W32926   4.326  10.748   1.639 -0.0453 -0.0386  0.3259
    1W        W32927  18.017  20.450   2.573 -0.2935 -0.1864  0.2782
    1W        W32928   9.632  20.626   8.724 -0.2221  0.1075  0.0131
    1W        W32929  28.495  10.352   0.218 -0.0037 -0.0775 -0.2860
    1W        W32930  16.603   8.415   0.490 -0.0287 -0.2443  0.0254
    1W        W32931   7.306  11.330   2.493 -0.2676 -0.1360 -0.0044
    1W        W32932   7.710  16.162   9.444 -0.0288  0.1942 -0.2079
    1W        W32933  14.569  23.203   3.100 -0.0712 -0.1115  0.0286
    1W        W32934   0.489  11.888   0.920  0.1780  0.0766 -0.1141
    1W        W32935   3.713  19.635   1.028  0.1205 -0.0681  0.0277
    1W        W32936  26.165  25.065   2.709  0.1803 -0.2275  0.0306
    1W        W32937  26.102  16.179   0.772 -0.1168  0.1496  0.0962
    1W        W32938  20.044  17.826   9.931  0.1972  0.3064  0.4101
    1W        W32939  10.751   0.931   0.913  0.0771 -0.0279 -0.0053
    1W        W32940   7.401  11.468   1.229  0.1315  0.0633 -0.1103
    1W        W32941   5.116  18.795   7.786  0.0941 -0.1463  0.0451
    1W        W32942  26.531  18.261   0.017 -0.3720  0.1722  0.2928
    1W        W32943  15.021  25.529   6.725  0.0102 -0.4237 -0.1817
    1W        W32944   4.795   4.814   0.588 -0.0421 -0.1617  0.0009
    1W        W32945  20.576   3.974   8.925  0.1898  0.4470  0.0189
    1W        W32946   7.719   6.354   9.469  0.0154  0.0797  0.2123
    1W        W32947  24.278   8.719   7.429 -0.1191 -0.1290  0.3453
    1W        W32948   3.702  19.584   6.599  0.2437 -0.0176 -0.0673
    1W        W32949  28.475  11.207   8.822 -0.1104 -0.4492  0.0462
    1W        W32950  26.812   2.240   7.090  0.4910 -0.2468  0.0586
    1W        W32951  21.369   5.152   6.787  0.0523  0.0584  0.0194
    1W        W32952   4.659  27.797   1.753 -0.1464 -0.0301 -0.0012
    1W        W32953  14.050   9.923   3.489  0.0352  0.3040  0.0288
    1W        W32954  21.491   5.759   0.120 -0.0582  0.0324  0.0623
    1W        W32955  24.242  14.182   2.332 -0.3913 -0.0001 -0.2309
    1W        W32956   1.500  26.659   7.207  0.1159 -0.0942 -0.1257
    1W        W32957  25.035  10.868   9.891  0.0156  0.2777 -0.0714
    1W        W32958  27.225  13.153   0.200 -0.2195 -0.0845  0.1841
    1W        W32959   8.260   8.085   6.668 -0.2462  0.1173 -0.2059
    1W        W32960  18.133  23.396   8.716  0.2537  0.2446 -0.0189
    1W        W32961  21.177  18.324   9.285  0.0003 -0.0218  0.1196
    1W        W32962   6.907  22.611   8.862 -0.2543  0.0467 -0.3561
    1W        W32963  23.011   3.595   8.846  0.3684 -0.2625  0.1997
    1W        W32964   8.545  22.938   1.526 -0.2854  0.2116 -0.1314
    1W        W32965   0.068  26.312   9.663  0.2181 -0.0454 -0.0696
    1W        W32966  15.080  16.861   9.102  0.1864  0.0044 -0.0616
    1W        W32967   8.083  20.913   2.183  0.1201 -0.0415 -0.0383
    1W        W32968  21.914  22.319   9.340 -0.0384 -0.1748 -0.1892
    1W        W32969  17.451  25.497   7.763 -0.0670 -0.1256  0.1072
    1W        W32970  26.712   1.955   6.289  0.0636  0.1611 -0.0880
    1W        W32971   6.357  20.853   2.198  0.2417  0.1746  0.2088
    1W        W32972   5.166  25.442   8.092 -0.0389 -0.1644 -0.0082
    1W        W32973  23.401  19.988   9.023 -0.3763 -0.0245  0.2849
    1W        W32974  20.107  12.805   7.502 -0.1682 -0.2951 -0.4382
    1W        W32975  20.295   4.891   9.252  0.3882 -0.3708  0.0994
    1W        W32976  28.078   4.959   0.588 -0.0925  0.1083  0.0190
    1W        W32977  22.014   8.836   9.357 -0.0218 -0.4947  0.1355
    1W        W32978   6.484  14.681   0.639  0.1064 -0.0942  0.1323
    1W        W32979  16.498  20.807   0.069 -0.1030 -0.1288  0.0182
    1W        W32980  26.425  21.548   6.700  0.1760 -0.2150  0.0551
    1W        W32981   8.040  19.401   8.057 -0.0830 -0.0454  0.2524
    1W        W32982  21.799  27.952   1.698 -0.0180  0.3141  0.2636
    1W        W32983  26.315   9.908   0.024  0.0740  0.1212  0.1905
    1W        W32984   3.367  20.079   9.735  0.2184 -0.1654 -0.0663
    1W        W32985  10.219   2.846   8.677  0.2292 -0.0491 -0.2900
    1W        W32986  18.796  10.969   7.678  0.0169  0.3695 -0.2827
    1W        W32987   1.123  18.842   8.718  0.1807  0.0969 -0.1970
    1W        W32988  25.101   8.778   2.925  0.0581 -0.0803 -0.2433
    1W        W32989   4.641  12.415   0.345 -0.1713 -0.0929  0.0369
    1W        W32990  17.304   5.687   7.777 -0.0662  0.1143 -0.0012
    1W        W32991   0.106  16.946   6.655  0.0349 -0.1749 -0.3698
    1W        W32992  22.198  15.870   7.377 -0.0875 -0.1157 -0.0016
    1W        W32993  27.624  18.873   2.049 -0.3012 -0.1020  0.2077
    1W        W32994   0.430  27.557   3.829 -0.1492  0.0024  0.0261
    1W        W32995  12.031  23.183   7.088 -0.0728 -0.2907 -0.0276
    1W        W32996  19.556   6.710   0.875 -0.1081 -0.1094  0.1973
    1W        W32997   9.766  23.616   1.538  0.0442 -0.1616 -0.2234
    1W        W32998  16.998   1.731   6.753  0.2283 -0.0641 -0.0744
    1W        W32999  15.382  16.454   9.529  0.3182 -0.0891  0.2728
    1W        W33000  16.847  26.007   3.328 -0.0892  0.1491 -0.3301
    1W        W33001  14.149  22.687   8.920 -0.1860  0.2483 -0.3276
    1W        W33002   0.914   4.835   0.917  0.0693 -0.3629  0.2942
    1W        W33003  14.381  24.565   9.444 -0.2151 -0.1347 -0.0094
    1W        W33004   3.453   2.833   6.394 -0.0002 -0.1757  0.1094
    1W        W33005   6.475   8.042   0.536 -0.0532  0.0599 -0.2457
    1W        W33006  24.509  18.670   7.151  0.3550  0.0107  0.0058
    1W        W33007  21.004  10.985   8.120 -0.1588  0.0691 -0.2678
    1W        W33008   0.749  22.293   8.341 -0.0192  0.1394 -0.1374
    1W        W33009  24.039  21.975   3.456  0.0081 -0.2273  0.0155
    1W        W33010  18.246   2.657   1.583 -0.3605 -0.0592  0.1284
    1W        W33011  11.060  26.344   2.563 -0.0575  0.0737 -0.1084
    1W        W33012  11.735  23.821   8.505  0.1030  0.1208 -0.1053
    1W        W33013  13.383  25.412   7.822 -0.0835  0.2485  0.1632
    1W        W33014  24.139  27.282   0.492 -0.0227 -0.3152  0.1650
    1W        W33015   0.058  12.155   2.807 -0.2755 -0.0300  0.1269
    1W        W33016  11.744  25.922   8.034 -0.1534  0.1677  0.0455
    1W        W33017   2.616   8.166   0.202 -0.1842 -0.3620 -0.2785
    1W        W33018   0.527  23.620   1.847  0.0732 -0.1139 -0.4575
    1W        W33019  27.967   2.263   7.675  0.0201 -0.1521  0.2769
    1W        W33020   4.978  15.988   0.190 -0.1060 -0.1023 -0.1240
    1W        W33021  27.136   8.962   1.066  0.1464 -0.1008  0.1556
    1W        W33022  25.805  12.535   8.000  0.2737  0.0933  0.3366
    1W        W33023  19.585  16.097   1.380 -0.0021 -0.0487 -0.1797
    1W        W33024  10.738  28.487   0.504 -0.1752  0.1672 -0.0576
    1W        W33025  25.518   3.540   1.936  0.1897 -0.1510 -0.2333
    1W        W33026  24.314  17.661   8.447 -0.1724 -0.0532  0.0092
    1W        W33027  16.993  23.992   1.545 -0.0066  0.1394  0.4387
    1W        W33028   0.036  20.903   1.736 -0.3491 -0.0109 -0.0680
    1W        W33029  13.636  26.593   8.598  0.1303  0.0946  0.0674
    1W        W33030  19.548  28.631   0.993 -0.2703 -0.2492  0.1220
    1W        W33031   2.158  16.219   0.679  0.2097  0.5160  0.2011
    1W        W33032  17.658  19.192   2.629  0.2749 -0.0157  0.0733
    1W        W33033   2.645  20.951   0.585 -0.2290 -0.0111  0.0011
    1W        W33034  23.482   0.858   1.038  0.0180 -0.0066 -0.0501
    1W        W33035  18.748  23.645   1.532  0.0203 -0.1739 -0.2206
    1W        W33036   2.493  25.345   9.072  0.0565 -0.2073  0.2723
    1W        W33037  27.458   0.306   7.136  0.0856  0.0393  0.3001
    1W        W33038   9.857  24.986   1.880  0.1319  0.1855 -0.1675
    1W        W33039   2.447  27.307   9.077 -0.0876  0.2772  0.0107
    1W        W33040  16.395  16.698   0.906  0.1181  0.1720 -0.1385
    1W        W33041  24.842  22.608   7.732 -0.1632  0.0100  0.0189
    1W        W33042   1.373   1.518   6.593 -0.0302  0.0842  0.0734
    1W        W33043   1.209   0.485   7.009  0.1514  0.0178  0.0011
    1W        W33044  15.203  18.259   2.539  0.3057  0.1091  0.0400
    1W        W33045   2.471   0.892   1.872 -0.1517 -0.0641  0.2041
    1W        W33046  17.380   9.818   7.156  0.2480 -0.1246 -0.2369
    1W        W33047  28.216  15.365   9.214  0.3658 -0.0165 -0.0391
    1W        W33048   9.194  11.006   8.757  0.0216  0.1793 -0.1463
    1W        W33049  18.567  28.113   8.818 -0.0283 -0.1178  0.0143
    1W        W33050  14.904  15.373   1.078 -0.1014  0.1110 -0.0120
    1W        W33051  12.648   5.486   8.633  0.2223 -0.1156 -0.0092
    1W        W33052   5.908  20.046   5.230  0.2825  0.3032 -0.0275
    1W        W33053  25.682   1.187   6.323 -0.3461  0.2109  0.3328
    1W        W33054  17.876  11.602   8.517 -0.1309  0.0778  0.0662
    1W        W33055   0.613  27.216   9.057  0.1915 -0.2146  0.1215
    1W        W33056   7.655  11.534   7.568  0.3315  0.1148 -0.0504
    1W        W33057  16.391  23.678   2.748 -0.1829  0.1790 -0.0745
    1W        W33058  10.519   1.223   9.497 -0.0727  0.0987 -0.1284
    1W        W33059  28.432  13.452   1.602  0.0400 -0.0273 -0.2624
    1W        W33060  25.269   5.530   6.917  0.0867  0.0865 -0.0056
    1W        W33061   2.795  12.050   1.917  0.1177 -0.0913 -0.0102
    1W        W33062   4.304  25.546   8.471  0.3628 -0.1205 -0.0849
    1W        W33063   7.833   5.882   7.313  0.0161 -0.3857 -0.1142
    1W        W33064   6.244  27.073   8.343 -0.2129 -0.2052  0.1067
    1W        W33065  18.863   6.294   7.531 -0.3328  0.0715 -0.0550
    1W        W33066  23.349   5.261   7.457 -0.1275  0.3502  0.0304
    1W        W33067  28.309  10.774   2.877 -0.1568 -0.2735 -0.0087
    1W        W33068   9.182  10.318   1.557 -0.0413  0.2392  0.1951
    1W        W33069  14.221  17.242   8.487 -0.1962  0.1163  0.0328
    1W        W33070  20.855  19.166   0.458  0.1688 -0.1793  0.1999
    1W        W33071  27.828  12.504   6.773  0.4768  0.1305 -0.1977
    1W        W33072   3.658   0.318   8.541 -0.0225  0.1451 -0.0839
    1W        W33073   9.897  22.793   6.696 -0.2807 -0.0890  0.2901
    1W        W33074   3.534  12.218   7.853  0.0259 -0.0763 -0.0752
    1W        W33075  15.685   9.809   0.995  0.0494 -0.0058  0.0791
    1W        W33076  10.473  14.327   7.829  0.2622 -0.0681 -0.3369
    1W        W33077  13.859   6.158   1.792 -0.0046 -0.0547  0.1360
    1W        W33078  15.795   2.218   0.590 -0.1162 -0.0872  0.1875
    1W        W33079  14.832   7.821   9.824  0.0300  0.3148  0.1512
    1W        W33080   4.611  28.011   8.436  0.3023  0.1526  0.1500
    1W        W33081  12.445  16.383   1.341  0.0213 -0.1183  0.0028
    1W        W33082  14.195  17.090   2.316 -0.0399 -0.0602 -0.1252
    1W        W33083  17.605  22.050   0.627  0.0946 -0.0059 -0.0128
    1W        W33084   1.613  21.136   1.553 -0.2575 -0.2030  0.2387
    1W        W33085   2.991  16.564   6.901  0.2511 -0.0233 -0.0952
    1W        W33086  25.062  27.100   0.282 -0.0222  0.1321  0.0276
    1W        W33087  11.321  28.174   7.351 -0.2219 -0.2583  0.2101
    1W        W33088  25.663   1.939   9.740 -0.0982 -0.1811  0.1587
    1W        W33089  10.424  18.914   0.923  0.2310 -0.1616 -0.0848
    1W        W33090  13.470  20.818   8.593 -0.1837  0.0661 -0.0565
    1W        W33091  24.946   8.154   6.697 -0.2404 -0.0027  0.0552
    1W        W33092  15.906   8.436   8.212  0.2533 -0.1984  0.1368
    1W        W33093  15.690  16.907   8.630 -0.1156  0.1107  0.2972
    1W        W33094   0.805  15.270   0.586 -0.0401 -0.1714  0.1021
    1W        W33095  13.904  23.462   9.641  0.1346 -0.3013 -0.1761
    1W        W33096  10.914   3.637   7.236 -0.0914 -0.1328 -0.0001
    1W        W33097  10.775   8.922   2.139  0.0149  0.1475 -0.4069
    1W        W33098  23.924  26.849   8.078  0.3966  0.2646 -0.3379
    1W        W33099  14.135  20.839   2.271  0.0150  0.1660  0.0294
    1W        W33100  18.684  28.487   1.567 -0.6422 -0.0322 -0.0033
    1W        W33101  16.257  21.867   2.491  0.1071  0.1460 -0.0930
    1W        W33102  24.802  12.329   7.679 -0.0904  0.3052  0.0398
    1W        W33103  11.491  25.446   0.076 -0.1499  0.3744  0.0149
    1W        W33104  19.238  23.823   1.644  0.2995 -0.0707  0.0244
    1W        W33105  21.301  19.200   9.744  0.1240  0.0285  0.2148
    1W        W33106   5.171  23.003   0.832 -0.2007 -0.1802  0.1560
    1W        W33107   5.596   5.289   9.488  0.1875  0.1920 -0.0652
    1W        W33108  22.829  28.710   1.918  0.1191 -0.2610 -0.0623
    1W        W33109  16.566  22.909   1.508  0.2088  0.2062  0.4178
    1W        W33110   3.264  20.729   5.846  0.0826 -0.0273  0.0056
    1W        W33111   7.763  12.761   0.858  0.1817 -0.0581 -0.0764
    1W        W33112  25.842  11.898   7.574 -0.2896  0.1092  0.0281
    1W        W33113  10.190  16.404   0.035  0.0466  0.0295 -0.0743
    1W        W33114  26.482  23.534   1.202  0.1277 -0.0916  0.0480
    1W        W33115  17.175  16.860   8.312  0.3395  0.2262  0.0081
    1W        W33116  26.741  28.427   1.481 -0.2720 -0.1992  0.0476
    1W        W33117   6.286   3.824   9.247 -0.0937 -0.0771 -0.1081
    1W        W33118  16.737   5.826   9.645  0.1595 -0.1108 -0.2057
    1W        W33119  28.504   9.339   0.885  0.0782  0.2585 -0.1628
    1W        W33120  14.109   8.575   3.487  0.0811  0.1468 -0.2648
    1W        W33121  27.070  16.991   2.138 -0.1600 -0.1705 -0.0611
    1W        W33122  27.032   1.098   1.710  0.0530  0.2618  0.4385
    1W        W33123  27.792  21.343   7.201  0.0980 -0.1930 -0.1170
    1W        W33124  23.757   4.523   7.119  0.2463 -0.1315  0.0532
    1W        W33125   0.238  25.610   1.381 -0.1859  0.1092  0.0407
    1W        W33126   2.818   4.738   8.447  0.3547  0.4492 -0.1141
    1W        W33127  21.721  20.020   6.776 -0.0632 -0.2001 -0.0601
    1W        W33128  24.445   3.547   0.095  0.0587  0.0745  0.2474
    1W        W33129  27.472   0.427   3.093  0.1544 -0.4528  0.3160
    1W        W33130   1.367   7.757   0.913  0.1391 -0.5580 -0.1497
    1W        W33131   0.413  11.231   0.514  0.3184 -0.1878  0.1428
    1W        W33132  16.940  27.533   7.188 -0.0700 -0.1921  0.2529
    1W        W33133  23.902   4.820   6.716 -0.0665 -0.1591  0.1595
    1W        W33134  27.913  13.474   8.912  0.4968 -0.0049 -0.3671
    1W        W33135   9.148   1.615   7.864 -0.2255 -0.0984 -0.0915
    1W        W33136  26.949  25.021   3.012 -0.4063  0.1551  0.0678
    1W        W33137  27.521   1.607   9.195 -0.0463 -0.1119  0.1006
    1W        W33138  14.484   1.228   8.699  0.0612  0.1093 -0.4026
    1W        W33139  25.201   7.563   1.678 -0.2949  0.0273 -0.1682
    1W        W33140  23.949  16.994   8.343  0.0723 -0.0796 -0.0950
    1W        W33141  26.788  25.549   7.609  0.0570 -0.3050  0.0238
    1W        W33142  24.467  14.428   7.667 -0.2137  0.1326 -0.3262
    1W        W33143  13.814  22.544   9.351  0.3836 -0.3095  0.0022
    1W        W33144  15.356   4.996   9.082 -0.1748  0.2320  0.0554
    1W        W33145  19.712  23.183   0.854 -0.2241  0.2626 -0.0666
    1W        W33146  12.572  14.012   1.625  0.2329  0.1049 -0.2115
    1W        W33147  18.524   0.714   8.679 -0.1341  0.0944 -0.2221
    1W        W33148   1.401  14.998   2.040  0.0653 -0.2399  0.2743
    1W        W33149  25.973   5.670   9.042 -0.0111 -0.0334 -0.1800
    1W        W33150   9.989   1.896   0.115 -0.2268  0.0582 -0.0583
    1W        W33151   4.455   1.084   0.070 -0.1004  0.1876 -0.0271
    1W        W33152  15.422   1.513   1.439 -0.2528 -0.0773  0.1688
    1W        W33153   6.319  16.036   0.657  0.0539 -0.1877 -0.1522
    1W        W33154   4.717   0.041   3.178  0.0359 -0.0604 -0.1424
    1W        W33155   4.091  26.439   6.740 -0.1572  0.7021 -0.2692
    1W        W33156  25.530   8.890   2.087 -0.1134  0.0162 -0.1765
    1W        W33157  10.385  18.826   0.028  0.2621 -0.1816 -0.0584
    1W        W33158  18.463  28.548   8.949  0.1555 -0.0996 -0.0468
    1W        W33159  18.789  24.840   2.644 -0.1734 -0.2543 -0.0385
    1W        W33160  23.450  10.825   7.013  0.2040  0.1032 -0.1143
    1W        W33161  23.157   8.370   0.501  0.0282 -0.0481 -0.0330
    1W        W33162  17.849   2.033   8.151  0.1427  0.1971 -0.1435
    1W        W33163  11.758  25.995   9.047 -0.0785  0.2761 -0.0789
    1W        W33164   2.224  27.536   8.053 -0.2491 -0.1313  0.1304
    1W        W33165  27.437  10.229   2.760  0.4386  0.1012  0.3574
    1W        W33166  20.954  25.686   7.201  0.1512  0.1491 -0.0950
    1W        W33167  21.398   3.915   0.996 -0.3114  0.2790 -0.3136
    1W        W33168  24.503   8.260   7.964  0.3029  0.3514  0.0184
    1W        W33169   6.902  16.311   9.249 -0.1001  0.2346  0.3161
    1W        W33170  19.073  23.225   1.559  0.0527 -0.1003 -0.1253
    1W        W33171  28.606  11.037   1.964  0.1177  0.0255  0.0791
    1W        W33172   9.656  22.388   0.971 -0.1054  0.1276  0.1545
    1W        W33173  19.685  16.883   2.021  0.0608 -0.5484  0.0251
    1W        W33174  19.414  26.286   8.419  0.2210 -0.1470  0.1293
    1W        W33175  20.072   8.973   9.567  0.0296  0.0182  0.1755
    1W        W33176  12.314  22.568   7.840 -0.0186 -0.1808 -0.0781
    1W        W33177   8.436   5.085   8.516 -0.0355  0.0970  0.0915
    1W        W33178   1.625  22.527   3.156 -0.2244  0.1978  0.1143
    1W        W33179  26.354  16.880   8.515  0.0205 -0.0453  0.0236
    1W        W33180  17.061   2.016   1.007  0.2096  0.0164  0.0814
    1W        W33181  24.158   1.484   9.922  0.1312  0.2037  0.3403
    1W        W33182   0.203   2.599   6.715  0.2029  0.2136  0.0622
    1W        W33183  13.963   0.909   3.751  0.0194 -0.1565 -0.3197
    1W        W33184  15.950   1.612   9.167  0.3075 -0.1213 -0.0916
    1W        W33185   2.823  12.583   8.016 -0.0557  0.0583 -0.1129
    1W        W33186   3.379   8.967   7.183 -0.0428 -0.1807 -0.1684
    1W        W33187  16.039  10.611   8.862 -0.1175 -0.0196 -0.0184
    1W        W33188  21.481   4.765   8.470  0.1028  0.2311 -0.1788
    1W        W33189  26.700  13.766   1.207 -0.2770  0.1446 -0.0857
    1W        W33190  19.453   0.314   9.637 -0.0008  0.2108 -0.0174
    1W        W33191   4.800  25.582   8.418  0.0602  0.4513  0.0194
    1W        W33192  10.050  26.154   3.318 -0.1574 -0.0987  0.0735
    1W        W33193  11.360  11.751   9.580 -0.5522 -0.1452  0.0898
    1W        W33194   0.508  15.577   7.532  0.0861  0.3581 -0.4325
    1W        W33195   2.566  13.335   7.466  0.0845 -0.0336  0.3575
    1W        W33196  15.060  26.805   9.541  0.0900 -0.0166  0.0785
    1W        W33197   2.620   3.090   6.024  0.0897  0.0440 -0.0263
    1W        W33198  23.319   2.399   2.362 -0.0692  0.0211  0.0087
    1W        W33199   4.471  11.565   9.693 -0.3604 -0.1816 -0.0766
    1W        W33200  19.916  19.221   2.468 -0.0029 -0.1241  0.0853
    1W        W33201  23.947   8.236   1.848 -0.0554  0.0156  0.2393
    1W        W33202  18.612  12.300   7.737  0.4987  0.1514  0.2115
    1W        W33203   0.533  12.555   2.148  0.2789 -0.1512  0.0081
    1W        W33204  10.964   1.409   0.940 -0.0200  0.2692  0.0825
    1W        W33205  14.405  24.272   0.744  0.1056  0.1128  0.2510
    1W        W33206  10.175  11.674   1.696 -0.2284 -0.1126  0.3101
    1W        W33207  11.364  22.780   7.242  0.2337  0.0229 -0.2309
    1W        W33208  13.638   1.012   9.433 -0.1699 -0.1184 -0.1485
    1W        W33209  20.324   0.681   1.029  0.2068  0.2780  0.3219
    1W        W33210  20.405   2.365   7.547  0.0094 -0.1737 -0.0109
    1W        W33211  13.446  10.953   1.073 -0.1077 -0.0326 -0.0352
    1W        W33212  18.094   7.025   3.009 -0.0406 -0.1202 -0.1568
    1W        W33213  19.907   3.507   8.246 -0.0098  0.0644 -0.4297
    1W        W33214  19.052  27.865   2.649  0.4089  0.0361  0.0829
    1W        W33215   3.154   5.480   9.833  0.2664 -0.1257 -0.2860
    1W        W33216   0.786   7.865   9.820 -0.0949 -0.2057  0.0817
    1W        W33217  19.194  17.971   0.386 -0.0850 -0.2223  0.2889
    1W        W33218  23.377  10.041   1.046 -0.1928  0.0766  0.1117
    1W        W33219   6.279  22.783   0.372 -0.0767 -0.2300  0.1403
    1W        W33220  17.914  15.074   7.174  0.3875  0.1252 -0.2604
    1W        W33221  19.862   9.889   3.227  0.0801 -0.0173 -0.2351
    1W        W33222  21.016  17.613   7.776 -0.0513 -0.0451 -0.0810
    1W        W33223  19.000  15.393   7.480 -0.1369 -0.1203 -0.0724
    1W        W33224  14.211  13.208   8.548 -0.2082  0.0477 -0.0031
    1W        W33225   2.483  10.327   0.355  0.0289  0.0641 -0.3654
    1W        W33226   9.380   8.514   3.303  0.1952  0.0575  0.1009
    1W        W33227  19.440  15.888   0.909  0.2241 -0.0400 -0.0454
    1W        W33228   0.071  28.281   3.418  0.1686 -0.3921  0.0869
    1W        W33229   1.940  23.055   7.622  0.1399 -0.0150 -0.1334
    1W        W33230  27.463  21.827   1.829  0.1279  0.1426 -0.0048
    1W        W33231  23.093  21.469   2.655 -0.2018 -0.1263  0.1789
    1W        W33232  15.836  16.008   1.082 -0.0687  0.1739  0.0259
    1W        W33233   7.584  18.288   0.211 -0.0292 -0.1340 -0.1489
    1W        W33234  26.575   2.839   0.267 -0.2417  0.0959  0.1656
    1W        W33235  24.315  28.322   9.514  0.0091  0.1425 -0.2578
    1W        W33236   4.559  17.080   8.149 -0.0786 -0.2611 -0.2696
    1W        W33237  13.379  22.706   3.290 -0.0085 -0.0469  0.0167
    1W        W33238  15.889   5.919   1.570  0.0998 -0.1118  0.3581
    1W        W33239  12.273  13.017   1.949 -0.0181 -0.3227 -0.0391
    1W        W33240  28.477  12.046   5.848  0.1277  0.2761  0.1158
    1W        W33241  10.725  20.423   7.556 -0.0181 -0.2787 -0.1137
    1W        W33242  17.549  20.253   7.267 -0.1697  0.1501 -0.0331
    1W        W33243  24.127  27.283   8.794  0.1407 -0.2161 -0.1981
    1W        W33244  17.611   2.719   0.752  0.1572 -0.2908 -0.3017
    1W        W33245   9.092  19.911   8.344 -0.3784  0.0080 -0.1223
    1W        W33246  20.494   5.034   2.590 -0.3250 -0.0705 -0.0828
    1W        W33247   2.194   3.258   1.214  0.0847  0.0742 -0.1833
    1W        W33248  22.807  18.020   2.055  0.3098  0.0759 -0.0553
    1W        W33249  20.041   9.810   7.256  0.1688 -0.0931 -0.2000
    1W        W33250  26.381  21.084   8.422  0.0522 -0.1935  0.1505
    1W        W33251  20.454  23.117   8.023  0.0763 -0.1008  0.0116
    1W        W33252  11.430   4.074   9.319 -0.1292 -0.3485  0.2001
    1W        W33253  22.711   5.787   8.659  0.0760 -0.1781 -0.0494
    1W        W33254  16.779  26.241   7.489 -0.4423  0.0138  0.0302
    1W        W33255  10.390  25.411   1.815  0.0029 -0.1943  0.0291
    1W        W33256   3.793  21.552   1.265 -0.1345 -0.0215  0.1008
    1W        W33257  24.685  28.556   0.410  0.2223 -0.4626 -0.0420
    1W        W33258   1.909  12.608   7.588 -0.1669 -0.2238 -0.0966
    1W        W33259   5.674  17.538   6.791 -0.1424  0.1043 -0.1250
    1W        W33260  25.610  11.407   7.497  0.2788 -0.0187 -0.0053
    1W        W33261  20.054  13.806   8.122 -0.1841  0.1407 -0.1788
    1W        W33262   5.914   6.355   0.284  0.0499 -0.0836 -0.1217
    1W        W33263   2.862  25.895   7.863  0.1037  0.2441 -0.0350
    1W        W33264  15.024   2.133   6.751 -0.0382 -0.0162 -0.1677
    1W        W33265  27.078  23.497   9.899 -0.1079  0.1508  0.3350
    1W        W33266   4.251  18.234   7.053  0.0169  0.1074  0.0335
    1W        W33267   2.569  15.831   2.920  0.1214  0.0728 -0.2106
    1W        W33268   8.261   6.042   0.832 -0.3581  0.0526 -0.2527
    1W        W33269  26.029  14.780   9.620  0.1936  0.0979 -0.3646
    1W        W33270  15.276  12.352   9.273 -0.1011  0.0714  0.1921
    1W        W33271   9.290   5.162   9.483  0.0286  0.4678 -0.0815
    1W        W33272  28.450  26.334   0.786  0.0733  0.4865 -0.1203
    1W        W33273  11.726   6.019   0.001  0.0118 -0.1088 -0.1016
    1W        W33274  28.719  21.286   0.257  0.3863  0.3388 -0.0223
    1W        W33275  18.737   7.118   0.070 -0.0377  0.1862  0.1162
    1W        W33276  12.605  17.929   2.567 -0.2062 -0.0835  0.2565
    1W        W33277   2.000  18.603   0.636 -0.0646  0.1278  0.1806
    1W        W33278   4.994  19.249   6.236 -0.0108  0.1716  0.0414
    1W        W33279   5.154   8.295   8.377 -0.0268 -0.1223 -0.0302
    1W        W33280  11.072   5.417   1.498 -0.0263  0.0141 -0.0613
    1W        W33281   2.693  27.569   2.093  0.0703  0.0099 -0.1556
    1W        W33282   7.441  19.070   1.749 -0.0298 -0.1043 -0.5026
    1W        W33283  16.495   6.497   2.890 -0.3168 -0.0948 -0.0754
    1W        W33284   9.879  11.548   2.112  0.1796  0.2560  0.0808
    1W        W33285  19.401  21.789   0.494 -0.1219 -0.2350  0.1057
    1W        W33286  20.908  14.437   7.319 -0.0918 -0.1652  0.2517
    1W        W33287   7.211  23.783   9.298 -0.0057  0.3328  0.1402
    1W        W33288  19.737  13.138   0.194 -0.1746 -0.1021  0.0768
    1W        W33289   7.370  23.113   7.983  0.1661 -0.2234 -0.1964
    1W        W33290  22.739   8.587   3.123 -0.0191 -0.0433  0.0877
    1W        W33291  16.754   1.012   9.108 -0.2642  0.1879  0.1954
    1W        W33292  10.631  19.820   1.140  0.2706 -0.6321 -0.2029
    1W        W33293  23.328   6.724   5.792 -0.1473 -0.0683 -0.0904
    1W        W33294  25.173  19.446   8.730 -0.0018  0.0178  0.2510
    1W        W33295  21.938   3.740   1.655 -0.3087  0.2218  0.2468
    1W        W33296  27.995  15.610   6.088 -0.0549  0.3608  0.1924
    1W        W33297  10.127  27.061   1.737  0.0898 -0.1119  0.0239
    1W        W33298  19.888   1.219   9.767  0.1639 -0.0714 -0.1738
    1W        W33299   1.203   8.580   9.813  0.0691 -0.0309 -0.1965
    1W        W33300   1.559   2.089   0.937 -0.0674 -0.0921  0.2336
    1W        W33301  27.607   1.387   0.501 -0.2858  0.0217 -0.0764
    1W        W33302   1.268  22.929   0.279  0.0852  0.0558  0.1816
    1W        W33303   3.859   7.368   2.041  0.3538 -0.2177  0.0814
    1W        W33304  26.497  26.889   7.413 -0.1437  0.0820  0.1163
    1W        W33305  20.762  19.189   9.566  0.0403  0.4567 -0.0343
    1W        W33306  15.706  10.956   3.087 -0.1571  0.0384 -0.1421
    1W        W33307   5.425  23.330   8.086  0.0173 -0.0207  0.1891
    1W        W33308  25.152   7.592   0.152  0.1712  0.2070  0.2260
    1W        W33309  19.221  21.217   8.062 -0.1728  0.0932  0.1495
    1W        W33310   7.496  18.299   6.188 -0.1623  0.2540  0.1994
    1W        W33311  18.529  20.590   6.877 -0.2718  0.2432  0.2310
    1W        W33312   2.731  19.045   7.224  0.1340  0.1916  0.1240
    1W        W33313   5.312  28.418   9.243 -0.1470  0.0693  0.1891
    1W        W33314   2.399  27.749   9.336  0.0567 -0.2366 -0.2019
    1W        W33315  22.919  11.012   9.242  0.0205  0.2214 -0.0764
    1W        W33316   3.658  24.128   9.858  0.2648 -0.4188 -0.1856
    1W        W33317   2.408  22.679   7.456 -0.1793 -0.0776  0.0268
    1W        W33318  25.677  12.022   1.406 -0.3319  0.0250  0.0402
    1W        W33319  24.423  15.082   0.344  0.0667 -0.0150  0.1799
    1W        W33320  23.923   7.385   7.418  0.2231  0.0789  0.1380
    1W        W33321  27.819  13.524   0.924  0.1992  0.1575  0.0764
    1W        W33322  11.922  14.403   1.023  0.0076  0.0274  0.0331
    1W        W33323   4.435  23.120   1.632 -0.0345 -0.2580  0.1752
    1W        W33324   3.311   0.957   2.347 -0.0728  0.0164  0.1649
    1W        W33325   8.796  20.810   1.436  0.1974 -0.3248  0.0398
    1W        W33326   3.447  20.408   8.027  0.1647 -0.3393 -0.2609
    1W        W33327  13.280   5.828   0.378 -0.2254 -0.3862 -0.0955
    1W        W33328  12.237   6.358   2.356 -0.1007 -0.0151  0.2123
    1W        W33329   5.644  22.557   9.643  0.0701 -0.2682 -0.2498
    1W        W33330  21.377  25.935   7.874 -0.1520  0.4066  0.0883
    1W        W33331  23.048   6.169   1.893 -0.2963  0.3244  0.0584
    1W        W33332  17.972  26.597   2.924  0.1764  0.1239 -0.0117
    1W        W33333  17.062  22.226   0.817 -0.1040  0.1017  0.0687
    1W        W33334  15.214  26.895   7.839  0.1080 -0.1580 -0.0785
    1W        W33335   8.274  27.729   8.907 -0.0197 -0.3498  0.0415
    1W        W33336  24.815   0.849   7.816 -0.2533  0.0126 -0.2875
    1W        W33337  17.088   8.827   9.440  0.1269  0.0555  0.3609
    1W        W33338  16.950   0.926   9.572  0.0732 -0.2086  0.2810
    1W        W33339   8.382  18.739   0.596  0.0614 -0.3761  0.2992
    1W        W33340  21.853  17.206   2.045 -0.1654  0.1043 -0.1647
    1W        W33341  17.408  21.625   0.296  0.0675 -0.0212 -0.2643
    1W        W33342   1.616  18.170   9.907 -0.3827  0.3408  0.0115
    1W        W33343   3.243  19.844   6.451 -0.1580 -0.3855  0.0965
    1W        W33344  24.147   2.636   8.937  0.1455  0.0851  0.3321
    1W        W33345  14.089  13.716   0.135  0.0686  0.0573  0.0439
    1W        W33346  18.979   3.741   8.225 -0.3210  0.0178 -0.2415
    1W        W33347   0.586  15.469   9.511 -0.1075  0.1576 -0.1177
    1W        W33348  24.404  18.016   9.720  0.0222  0.3374  0.0124
    1W        W33349   1.508  24.804   7.004 -0.2486  0.0231  0.0797
    1W        W33350   2.185  23.637   6.299 -0.0185 -0.2051 -0.2338
    1W        W33351   9.880   9.467   9.612 -0.1110  0.2507  0.4599
    1W        W33352  11.321  23.882   8.197  0.2520 -0.1934 -0.1733
    1W        W33353  18.789   2.823   8.662 -0.0741  0.1086  0.0367
    1W        W33354   2.524   1.733   0.103 -0.2902  0.2689 -0.1947
    1W        W33355   6.441  28.712   3.069  0.0327  0.2494 -0.4520
    1W        W33356  22.854   2.577   1.847 -0.2256  0.0132  0.2838
    1W        W33357   5.179  16.354   8.429  0.0155 -0.2296  0.0090
    1W        W33358  10.426  21.240   7.247 -0.1593  0.1417 -0.1803
    1W        W33359  25.724  23.075   0.377  0.0241 -0.0320 -0.0637
    1W        W33360  16.665   3.748   0.829  0.0871 -0.0027 -0.0978
    1W        W33361   3.385   1.916   2.819 -0.0954 -0.0754 -0.2403
    1W        W33362  21.017  14.191   9.927 -0.0744  0.0259  0.3029
    1W        W33363  21.672  26.275   6.234  0.0128  0.0604  0.0116
    1W        W33364   4.982   1.634   9.714 -0.0426  0.1591 -0.1645
    1W        W33365  18.208   0.845   9.075  0.0218 -0.0573 -0.1417
    1W        W33366   5.696  20.874   7.828  0.0907  0.1387 -0.2122
    1W        W33367  18.780  23.325   1.962 -0.0800 -0.0128  0.1969
    1W        W33368   9.544  21.885   2.081 -0.1724  0.0311  0.2783
    1W        W33369  13.379  27.317   7.916  0.3215  0.4873 -0.1079
    1W        W33370   1.386  16.502   8.301  0.1502 -0.1287  0.2657
    1W        W33371  15.523  18.628   8.293 -0.1484 -0.0058  0.1643
    1W        W33372  21.236  25.692   2.331  0.1013 -0.1285 -0.1622
    1W        W33373  21.967   7.825   9.197 -0.1385 -0.0671  0.0589
    1W        W33374   5.878  18.455   8.874 -0.1548 -0.1365  0.0198
    1W        W33375  24.178  25.378   7.100  0.1065  0.0972  0.1249
    1W        W33376   6.793   6.077   7.318  0.0773 -0.1466 -0.2439
    1W        W33377  27.481  17.479   6.727  0.1120 -0.2518 -0.0085
    1W        W33378  26.975   7.863   5.994 -0.1696  0.1738  0.0386
    1W        W33379  11.202  21.405   8.342  0.0670 -0.0963 -0.2130
    1W        W33380  17.242  21.393   7.938 -0.1033 -0.2269  0.2899
    1W        W33381  18.203   6.958   6.887 -0.2243  0.0295  0.0310
    1W        W33382   7.060  11.808   3.671  0.1554 -0.4031 -0.0520
    1W        W33383  21.069   1.106   7.128  0.0584 -0.2171  0.1455
    1W        W33384  19.755  11.548   9.544  0.0234 -0.2684  0.2272
    1W        W33385  27.950   6.362   2.815 -0.2432 -0.1773 -0.0092
    1W        W33386   8.433   6.251   2.386 -0.0406  0.2297  0.2362
    1W        W33387  28.057  22.257   6.280  0.0398 -0.2439  0.1580
    1W        W33388  17.612   6.848   1.953  0.0092 -0.1406 -0.0559
    1W        W33389  20.384   4.612   0.098 -0.0885  0.0237 -0.0216
    1W        W33390  11.255  26.884   7.047 -0.1868  0.2329  0.0177
    1W        W33391  22.091  14.467   1.294  0.1849 -0.0632  0.1729
    1W        W33392  12.240  22.568   9.137  0.1587 -0.0060 -0.2609
    1W        W33393   3.141   6.417   1.321 -0.2693  0.0654  0.1094
    1W        W33394  21.919  12.740   1.791 -0.2458  0.1541 -0.0226
    1W        W33395  15.482  27.669   1.094  0.0035  0.0679 -0.0099
    1W        W33396   3.472  26.191   1.387 -0.2336  0.1074 -0.0353
    1W        W33397  12.497   0.681   9.562  0.0685 -0.0536  0.3998
    1W        W33398   0.755  13.745   7.640  0.2814 -0.0399 -0.1986
    1W        W33399  21.222  11.883   6.977  0.1266  0.0655  0.0545
    1W        W33400   8.534  17.397   7.345  0.0688 -0.0450 -0.0357
    1W        W33401  18.976   2.437   2.806 -0.1151  0.1176  0.0719
    1W        W33402  18.527   5.720   8.876 -0.1736 -0.0632 -0.0443
    1W        W33403  24.798  21.046   0.885  0.1380  0.2292 -0.0027
    1W        W33404  26.656  21.029   0.107  0.1369  0.3335  0.0646
    1W        W33405  17.846  13.958   1.786 -0.1895  0.0404 -0.1113
    1W        W33406   4.182  18.552   0.732  0.1488 -0.0214  0.1537
    1W        W33407  19.574  20.696   8.743  0.2657  0.0665 -0.1115
    1W        W33408  27.380   5.988   1.052 -0.2613  0.1890  0.1062
    1W        W33409  24.541  21.397   8.533 -0.0036 -0.0903 -0.0097
    1W        W33410  12.830   9.102   1.623 -0.0448  0.3186  0.0168
    1W        W33411   7.290  17.770   2.015 -0.2635 -0.3569 -0.1797
    1W        W33412   3.578  10.250   9.174 -0.1543 -0.2671 -0.1756
    1W        W33413   9.978   5.829   2.839  0.2888  0.3937  0.1752
    1W        W33414   1.990  20.120   6.355 -0.1629 -0.1792  0.0528
    1W        W33415  26.986   7.399   6.916  0.1392  0.0387 -0.2927
    1W        W33416  12.546  24.949   7.810 -0.0231 -0.1295  0.1167
    1W        W33417  27.919  10.268   2.881 -0.1024  0.0862  0.2511
    1W        W33418  23.393  20.413   6.815  0.0667 -0.3119 -0.3047
    1W        W33419  13.504   6.511   8.792  0.0031 -0.0548 -0.0828
    1W        W33420  21.170  14.334   9.215 -0.0776  0.2631  0.2452
    1W        W33421   1.926  12.206   0.205  0.2528 -0.5880  0.1359
    1W        W33422   9.211  18.134   1.676 -0.1991 -0.2039  0.3560
    1W        W33423   7.057  15.536   0.528 -0.1239  0.2130  0.0501
    1W        W33424  22.030   0.721   1.283 -0.0507 -0.1613  0.1072
    1W        W33425   6.329   7.038   0.748  0.0885 -0.0789  0.1412
    1W        W33426  27.449   1.263   6.909 -0.3015 -0.1779 -0.0714
    1W        W33427  13.220   1.081   2.583  0.1021  0.0657  0.0636
    1W        W33428  11.617   4.324   8.382  0.0847 -0.2967 -0.1985
    1W        W33429   6.566   0.547   8.029  0.1371  0.1184 -0.1535
    1W        W33430   1.345  20.232   9.153  0.1208  0.0900  0.0244
    1W        W33431  26.902  15.254   1.419  0.0245  0.2774 -0.0909
    1W        W33432  15.787  19.058   8.114 -0.0573  0.1327 -0.2512
    1W        W33433  11.566   2.993   8.195 -0.3467  0.2896  0.2910
    1W        W33434   0.444   8.598   1.754 -0.1715 -0.0755 -0.1159
    1W        W33435  14.214  11.424   9.592 -0.1797 -0.0256 -0.3877
    1W        W33436   3.289  23.168   0.068 -0.1750  0.1397 -0.1685
    1W        W33437  23.559  27.681   2.609  0.0823 -0.2241 -0.2099
    1W        W33438  13.823  15.088   8.870  0.1333  0.4028  0.2252
    1W        W33439  21.691   0.403   1.036  0.2690 -0.0708 -0.3187
    1W        W33440  25.181  18.572   0.085 -0.0932  0.0494  0.0521
    1W        W33441  27.579  23.022   8.245  0.2306  0.2336  0.0206
    1W        W33442  26.513  16.473   6.536  0.0180 -0.0621  0.2053
    1W        W33443  25.462  14.870   8.281 -0.2122 -0.2152  0.3305
    1W        W33444   2.596   8.336   2.022 -0.3201  0.0767  0.0874
    1W        W33445  20.543  17.903   7.594  0.1191  0.1008 -0.2622
    1W        W33446  24.634  20.181   1.920 -0.0464  0.0335 -0.0632
    1W        W33447  11.600  11.017   1.143  0.1090  0.2733 -0.0002
    1W        W33448  25.752   1.443   7.521 -0.0081 -0.1023 -0.1152
    1W        W33449  18.513  26.216   8.321 -0.0826  0.1012  0.0692
    1W        W33450  22.405   8.533   9.270  0.0771  0.4306  0.1645
    1W        W33451  21.705  14.309   0.564 -0.0060  0.0854  0.0227
    1W        W33452  11.249   5.720   1.977 -0.0303 -0.1889  0.4031
    1W        W33453   7.511  16.715   7.216  0.0171  0.3694  0.2205
    1W        W33454  27.679   3.081   1.150 -0.2913 -0.3280 -0.0238
    1W        W33455  15.138  23.484   0.689 -0.0316 -0.1884  0.1673
    1W        W33456   4.892   9.275   9.830 -0.0078 -0.2594  0.0853
    1W        W33457   3.668  21.925   6.529  0.0345  0.0802  0.1874
    1W        W33458  23.824   3.899   8.786 -0.1708 -0.1571  0.0756
    1W        W33459  10.030  17.585   0.454  0.2144  0.0258 -0.0635
    1W        W33460   1.297   2.208   0.420 -0.3248 -0.0437  0.1528
    1W        W33461  13.764   0.511   3.041  0.1533  0.0692 -0.0294
    1W        W33462  19.983  20.409   9.588 -0.1644 -0.0586  0.1968
    1W        W33463  10.821  22.816   2.528 -0.4818 -0.1662  0.2410
    1W        W33464  18.481   3.743   8.029 -0.1776  0.2301  0.1280
    1W        W33465  19.285  15.801   9.108 -0.1338  0.0193  0.1664
    1W        W33466   7.843  21.389   8.437  0.1609  0.1170  0.0941
    1W        W33467  10.468  12.313   0.585 -0.0691  0.0673  0.0651
    1W        W33468   3.720  22.270   9.327 -0.2698 -0.1351  0.1076
    1W        W33469   0.549  15.719   1.613 -0.0457  0.5775  0.0398
    1W        W33470  19.604  11.852   9.157  0.0163 -0.2028  0.0530
    1W        W33471  17.770   5.416   7.745 -0.0271  0.0593 -0.1693
    1W        W33472   9.871  23.684   6.949  0.0690 -0.2562  0.1093
    1W        W33473  18.620  27.438   9.362 -0.1772 -0.2057  0.0632
    1W        W33474   0.028   9.195   5.913 -0.0872  0.2129 -0.0378
    1W        W33475  12.326  16.317   3.089 -0.1008  0.0256 -0.1785
    1W        W33476  22.556   8.299   0.448 -0.0266  0.0405 -0.0164
    1W        W33477  16.363   4.896   9.114 -0.1661 -0.1809 -0.1847
    1W        W33478  23.868  13.777   2.317 -0.0022  0.1984 -0.2567
    1W        W33479  11.295   0.354   0.833  0.1213 -0.0709 -0.0537
    1W        W33480  24.809   8.321   0.629  0.0501  0.4179 -0.3122
    1W        W33481  27.039  14.493   0.659 -0.2371 -0.0141 -0.1761
    1W        W33482  18.551  22.075   1.963  0.1703 -0.0320  0.1789
    1W        W33483  24.088  23.149   7.841 -0.2785  0.1891 -0.0381
    1W        W33484  18.315   4.810   1.969 -0.5014 -0.0905  0.0863
    1W        W33485   0.329   1.113   7.560 -0.1098 -0.2893 -0.0241
    1W        W33486  20.389   0.518   9.561 -0.1465 -0.2547 -0.0127
    1W        W33487  13.443   9.494   2.216  0.1679  0.1300 -0.3157
    1W        W33488  26.377   2.340   6.123  0.1649  0.1883  0.0212
    1W        W33489   4.926   2.149   9.611  0.5098 -0.5011 -0.3249
    1W        W33490   8.513  19.998   6.895  0.1541  0.0619  0.1598
    1W        W33491  12.831   2.086   0.206 -0.0642  0.0133 -0.1297
    1W        W33492   4.580   4.888   2.462  0.1718  0.0099  0.1249
    1W        W33493   8.768  10.762   9.496  0.1705 -0.1119  0.0466
    1W        W33494  20.732   3.461   7.212  0.1793 -0.5870  0.3561
    1W        W33495  23.977  14.429   5.702 -0.2979 -0.1674  0.2481
    1W        W33496  13.099   5.740   8.426 -0.2313 -0.2771  0.1448
    1W        W33497  10.480  24.360   2.014  0.0232 -0.0066 -0.1678
    1W        W33498  11.523  28.435   9.295  0.2783  0.4526 -0.1325
    1W        W33499   4.690  12.639   7.325 -0.0854 -0.1778  0.2921
    1W        W33500   7.814  20.086   9.324 -0.1717 -0.3194 -0.1592
    1W        W33501  27.895  16.404   1.816  0.0342  0.1172 -0.0022
    1W        W33502  19.463  23.983   3.098 -0.3131 -0.0964  0.2535
    1W        W33503  28.693  16.139   7.168  0.4953  0.0168  0.2210
    1W        W33504  16.847  12.141   9.514 -0.3595  0.1927  0.0716
    1W        W33505   9.643  12.646   8.868 -0.1569 -0.1312  0.1433
    1W        W33506  14.751  10.435   2.213  0.0818 -0.2089 -0.2715
    1W        W33507   2.742   7.076   8.425  0.0158  0.0557 -0.1732
    1W        W33508  16.230  26.312   2.384  0.4844  0.0595 -0.2096
    1W        W33509  19.243  12.414   0.590 -0.2038 -0.1274 -0.1076
    1W        W33510  18.327   2.496   6.615  0.0781  0.1596  0.1729
    1W        W33511  18.206   3.977   2.108 -0.2473  0.2385  0.2204
    1W        W33512  26.286  10.827   1.865 -0.1516 -0.1091 -0.1205
    1W        W33513  27.065   9.159   6.453 -0.0605  0.1170  0.1398
    1W        W33514   9.072  19.348   9.670  0.5067  0.0439 -0.0977
    1W        W33515   4.364  12.694   7.743  0.0718  0.0339  0.3539
    1W        W33516  27.679  27.456   3.037 -0.0512 -0.0606 -0.2387
    1W        W33517  23.471  14.966   7.359  0.0217 -0.3959 -0.2124
    1W        W33518  16.558  15.295   2.719  0.0555 -0.2495 -0.2941
    1W        W33519  19.929  14.198   8.952  0.2691 -0.2236 -0.4082
    1W        W33520  25.368  26.761   7.055  0.3330 -0.2726 -0.1195
    1W        W33521   2.312  28.188   9.615  0.3668 -0.1215  0.3016
    1W        W33522   0.747  17.467   5.490 -0.1233 -0.0446  0.3387
    1W        W33523   0.324   9.292   7.288  0.0395  0.3367 -0.3446
    1W        W33524  23.029  27.029   8.593 -0.0491  0.0141 -0.1658
    1W        W33525  11.489  13.113   9.022  0.0629 -0.0785  0.0660
    1W        W33526  18.250  20.977   0.577 -0.0825  0.1748 -0.1550
    1W        W33527  24.814  23.856   7.026  0.0415 -0.1654  0.0907
    1W        W33528  10.496   3.884   9.425 -0.3853  0.1219  0.3359
    1W        W33529   4.321   5.182   9.927 -0.0294 -0.0070 -0.0881
    1W        W33530   7.739   9.112   8.024  0.0224 -0.1421 -0.1809
    1W        W33531   3.715  12.133   1.176  0.2115  0.2564 -0.0708
    1W        W33532   5.181   7.964   0.786  0.2004  0.1866 -0.0874
    1W        W33533   5.344  27.288   6.642  0.2233 -0.1036  0.0680
    1W        W33534   7.436  26.877   1.454 -0.1349  0.3966 -0.1883
    1W        W33535   5.763   6.280   1.246  0.2943  0.2346 -0.3732
    1W        W33536  17.284   7.480   8.472 -0.2511  0.4868  0.1653
    1W        W33537   2.575   1.601   2.198  0.5330  0.3622 -0.1591
    1W        W33538   5.221  15.763   6.501  0.0055 -0.0793 -0.2553
    1W        W33539  10.129  23.713   9.331 -0.4046 -0.0365 -0.3373
    1W        W33540   1.575   3.554   9.318  0.2472  0.0735 -0.1256
    1W        W33541  18.370  26.116   1.059 -0.1460 -0.4313  0.2798
    1W        W33542  15.009   9.707   1.316  0.0308  0.0074 -0.0127
    1W        W33543  20.605   3.805   0.565  0.1303  0.2229 -0.4414
    1W        W33544  13.780   7.421   9.861  0.2808  0.0595  0.1418
    1W        W33545  27.753  12.861   0.183  0.1873  0.0262  0.1265
    1W        W33546   9.187  28.172   1.884  0.0604  0.1474 -0.0321
    1W        W33547   6.619  21.138   0.782 -0.2478 -0.2263  0.1642
    1W        W33548  21.418  21.223   0.878  0.1761 -0.0719  0.1644
    1W        W33549   6.396   0.729   2.785 -0.0357 -0.2040  0.2069
    1W        W33550   8.553  22.919   8.161  0.2270  0.1511 -0.3020
    1W        W33551  27.350   4.683   0.235 -0.1649  0.0375  0.1432
    1W        W33552  26.198  24.940   8.364 -0.2821 -0.0225 -0.0148
    1W        W33553   9.740  27.274   9.761  0.0629 -0.0737 -0.1630
    1W        W33554   5.210  19.338   9.578 -0.2580 -0.2420  0.0671
    1W        W33555   2.931  19.497   7.281  0.0227 -0.1774  0.0312
    1W        W33556  25.857  14.087   9.019  0.0331  0.0631 -0.1919
    1W        W33557   8.425  25.990   8.756 -0.2927  0.3079 -0.0505
    1W        W33558   4.130  20.945   8.673  0.0851  0.0679 -0.1946
    1W        W33559  23.946   8.903   0.907 -0.0431 -0.1042  0.0664
    1W        W33560   5.911  18.012   0.703  0.0325  0.1990 -0.2447
    1W        W33561  13.453  11.506   8.547  0.3273 -0.1802 -0.1404
    1W        W33562   4.666  10.838   0.194  0.0939  0.2116  0.0104
    1W        W33563  24.553  24.968   0.142  0.1237 -0.0745 -0.0403
    1W        W33564   8.466  20.127   9.747  0.2680  0.2250 -0.0168
    1W        W33565   8.483   0.827   3.053 -0.0459 -0.0025  0.1066
    1W        W33566   3.983   1.924   3.265 -0.2267  0.1070  0.0714
    1W        W33567  25.725   7.940   1.959  0.2122 -0.0711  0.1604
    1W        W33568   3.441  13.234   1.926 -0.1603  0.1967 -0.3310
    1W        W33569  19.726  24.685   7.244  0.0849 -0.0499 -0.0295
    1W        W33570  27.481  26.745   1.984  0.2098 -0.0825  0.4659
    1W        W33571   3.096  19.170   2.020  0.0814  0.0013  0.0890
    1W        W33572  15.587   8.688   2.512 -0.0331 -0.0282 -0.2234
    1W        W33573   7.750   2.554   0.187 -0.0781  0.0787 -0.0475
    1W        W33574   3.519   2.772   8.248  0.0767  0.2542  0.3252
    1W        W33575  12.176   3.261   3.929 -0.1074 -0.2139 -0.3807
    1W        W33576   2.551   8.049   0.803 -0.2312  0.2387  0.1345
    1W        W33577  10.244   9.309   2.833  0.0192 -0.0142  0.1359
    1W        W33578  12.349  24.754   8.207 -0.0256  0.1045 -0.0597
    1W        W33579  26.416  13.560   7.592 -0.0048 -0.2737  0.2104
    1W        W33580  23.117  20.475   2.797  0.1066 -0.3286 -0.0983
    1W        W33581   5.394   2.568   2.597 -0.2364 -0.2243 -0.0335
    1W        W33582  16.759   1.623   8.258  0.0890 -0.0370  0.0136
    1W        W33583  25.867   8.795   6.043  0.1445  0.1856  0.1508
    1W        W33584  26.606   0.018   0.645 -0.1688 -0.0301 -0.0024
    1W        W33585  21.309   7.376   0.345  0.0519  0.0003  0.4039
    1W        W33586  27.609  19.810   0.381  0.2716  0.0058 -0.1433
    1W        W33587  17.183  19.372   8.194  0.0013 -0.0905 -0.2970
    1W        W33588   9.983   2.809   0.192  0.2169 -0.0102  0.4144
    1W        W33589   3.875  16.657   9.677  0.3657 -0.0136 -0.2214
    1W        W33590  17.986  20.137   2.063  0.2940 -0.1729  0.2457
    1W        W33591  26.067  10.856   7.138  0.0087  0.0445  0.3803
    1W        W33592   5.013  11.282   1.454  0.2253 -0.0003 -0.0270
    1W        W33593  16.519  22.508   1.921 -0.4483  0.2647  0.1087
    1W        W33594  26.774  15.575   9.755 -0.0672  0.0076 -0.1187
    1W        W33595  16.434  18.021   1.388  0.0947 -0.0316 -0.0595
    1W        W33596  28.605  12.823   7.008  0.3685 -0.2086  0.0978
    1W        W33597  15.285   0.208   8.358  0.3851  0.0409 -0.1427
    1W        W33598  20.355   6.440   7.592 -0.0635 -0.0574  0.0719
    1W        W33599  15.492   7.690   0.488  0.2821  0.1808 -0.0323
    1W        W33600  11.125  12.278   2.873  0.0807 -0.0190  0.1092
    1W        W33601  13.637  23.341   1.020 -0.0735  0.0205  0.1837
    1W        W33602   9.585  23.226   7.813 -0.0521  0.4566  0.2773
    1W        W33603   6.425  21.073   9.784  0.0673  0.3189  0.0772
    1W        W33604  24.738   0.687   6.491 -0.0596 -0.1990 -0.0579
    1W        W33605   2.039  26.777   9.169 -0.1124 -0.2534 -0.0322
    1W        W33606  22.422   4.463   6.548 -0.1996  0.0128 -0.0019
    1W        W33607   4.924  23.960   1.246  0.0605  0.0032  0.2488
    1W        W33608   6.159  15.126   0.574  0.1285  0.3575  0.2629
    1W        W33609   8.711   2.996   0.705 -0.0979 -0.1256  0.4056
    1W        W33610   1.487  12.247   9.413 -0.1245  0.0401 -0.0560
    1W        W33611  11.205  25.423   0.499 -0.0245  0.1615 -0.3637
    1W        W33612  13.059   9.357   7.404  0.2694 -0.1613 -0.0083
    1W        W33613  28.645  10.181   1.792 -0.1247 -0.0844  0.0671
    1W        W33614   4.727   4.933   9.063 -0.0059  0.1136  0.3205
    1W        W33615  23.134   5.639   1.965 -0.1172  0.0052  0.0444
    1W        W33616  10.549  14.933   3.000  0.1062  0.1277  0.1305
    1W        W33617  11.474   3.789   1.274 -0.1174  0.0403 -0.0210
    1W        W33618  19.681  26.337   9.024 -0.0263 -0.2258 -0.1596
    1W        W33619  15.491   4.790   8.383 -0.0461  0.2257 -0.4070
    1W        W33620  16.053  15.303   2.380  0.1925 -0.0374  0.3683
    1W        W33621  26.128  18.038   9.748 -0.3069  0.1281  0.0048
    1W        W33622  15.477  22.876   2.934 -0.1802  0.2066  0.2084
    1W        W33623  27.206  12.794   1.144 -0.0196  0.0957  0.0813
    1W        W33624  21.690   4.963   8.942  0.0097 -0.1861  0.1547
    1W        W33625  25.802  26.472   1.167 -0.0935  0.1592 -0.3942
    1W        W33626   7.600  20.577   0.805  0.1862  0.1282 -0.3242
    1W        W33627   1.267  13.392   7.434  0.1763  0.2203  0.1239
    1W        W33628  12.388  27.974   3.260 -0.3343 -0.0097 -0.2682
    1W        W33629   2.096  20.124   8.475  0.3086  0.4652  0.1518
    1W        W33630  23.148  27.116   7.736 -0.0606 -0.4018  0.0702
    1W        W33631  12.333   3.215   8.907 -0.1346  0.3493  0.0570
    1W        W33632   2.982  22.538   6.143 -0.1151  0.0539  0.1741
    1W        W33633  21.876  14.741   9.432  0.2771  0.2199  0.1886
    1W        W33634  23.253  18.895   2.123 -0.3147 -0.0465 -0.0154
    1W        W33635  25.219  26.038   8.279  0.0435 -0.1308  0.1399
    1W        W33636   8.683   5.768   2.242  0.1227  0.2378 -0.0760
    1W        W33637  25.776  20.200   8.938  0.0648  0.1082 -0.0957
    1W        W33638  23.121   8.247   9.618 -0.0914  0.1146 -0.0402
    1W        W33639   7.739  11.448   9.765  0.0036  0.0153  0.0658
    1W        W33640  15.109  21.604   3.363  0.0432 -0.2872  0.1957
    1W        W33641   1.514  26.682   9.165 -0.2374  0.1896 -0.3190
    1W        W33642   2.588   8.540   0.546 -0.3804 -0.0855 -0.1474
    1W        W33643  18.514  17.282   9.816 -0.2202 -0.1271 -0.0210
    1W        W33644  10.791  11.593   0.275  0.1005  0.2527 -0.0397
    1W        W33645  23.926   4.167   3.337  0.0972  0.3610  0.1551
    1W        W33646  25.215   2.917   8.216 -0.3334 -0.4223 -0.2419
    1W        W33647  12.147   9.267   9.006 -0.0876 -0.0199  0.3167
    1W        W33648  13.729  20.398   8.679 -0.1362 -0.3818  0.1836
    1W        W33649  19.226  15.142   2.086 -0.3020 -0.0925 -0.0155
    1W        W33650  15.392   4.710   1.683  0.1776  0.1028 -0.0213
    1W        W33651  23.882   6.227   6.479  0.2163 -0.0681 -0.1157
    1W        W33652  21.310  11.690   2.400 -0.0822 -0.4401 -0.1056
    1W        W33653  16.507   3.588   1.426 -0.0153 -0.2421 -0.0410
    1W        W33654  23.625   6.613   8.200  0.4051 -0.0626  0.1179
    1W        W33655  25.326   2.955   1.716  0.0606  0.2198  0.1094
    1W        W33656   3.184   8.162   0.160  0.0354  0.1858 -0.0668
    1W        W33657  10.193   1.528   9.773 -0.0485 -0.0727  0.1294
    1W        W33658   8.524   7.779   2.306 -0.0972  0.0443  0.1410
    1W        W33659  14.411  11.806   9.323 -0.0905 -0.1841  0.0936
    1W        W33660  21.758   1.259   6.185 -0.3217 -0.0352 -0.0382
    1W        W33661  28.167  26.069   0.427  0.0651  0.0435  0.6219
    1W        W33662   1.925   6.407   2.729 -0.1140 -0.3166 -0.4482
    1W        W33663  20.137   9.953   9.116  0.0414  0.0282  0.0332
    1W        W33664  13.579   4.718   9.337 -0.3039  0.0225  0.0781
    1W        W33665  22.709  15.060   9.609 -0.1408  0.1771 -0.0709
    1W        W33666  24.628   6.285   0.406 -0.3106  0.0809  0.1329
    1W        W33667  20.941  17.920   0.556 -0.1351 -0.1406  0.2019
    1W        W33668  26.115  12.750   7.659  0.3712  0.0888 -0.0617
    1W        W33669   7.655  23.108   1.750 -0.1074 -0.1427  0.1624
    1W        W33670  16.217  23.650   1.381 -0.1170  0.1233  0.1896
    1W        W33671   0.323   1.668   7.958 -0.1978 -0.2401  0.1048
    1W        W33672  22.599   6.380   8.358  0.1136 -0.0408  0.0565
    1W        W33673   1.444   1.015   6.758 -0.0133  0.1224  0.0195
    1W        W33674   5.003   3.430   7.200 -0.1447 -0.0641  0.0059
    1W        W33675  15.113  10.517   2.564  0.0060 -0.0117  0.0592
    1W        W33676  21.898  27.672   8.233  0.1804 -0.0888  0.0102
    1W        W33677   0.335   8.167   9.795  0.1331  0.2607 -0.0866
    1W        W33678  26.215   9.114   6.184  0.0114  0.2515 -0.0525
    1W        W33679  20.530   3.156   8.989 -0.1991 -0.1038 -0.1379
    1W        W33680  20.745  20.271   9.147  0.2591 -0.0755 -0.0161
    1W        W33681  16.104   9.023   1.859  0.0460 -0.1732 -0.2085
    1W        W33682   5.662   4.048   7.815 -0.0085 -0.0473 -0.0935
    1W        W33683  26.535   6.744   8.779  0.0895 -0.3313 -0.1312
    1W        W33684   0.009   4.970   8.230 -0.1471  0.1252  0.3334
    1W        W33685   5.878   6.042   7.109 -0.0977  0.1242 -0.2485
    1W        W33686  18.746  18.002   1.730 -0.0800  0.0749 -0.0937
    1W        W33687   9.315   2.420   2.504 -0.1653 -0.2291 -0.1119
    1W        W33688  15.338  13.038   8.390  0.1972  0.0664  0.1577
    1W        W33689  17.997  25.286   8.860 -0.1734  0.1262  0.3856
    1W        W33690  25.685   0.382   3.468  0.1797  0.0322  0.2940
    1W        W33691   3.008  15.125   9.895 -0.2661 -0.2407 -0.3850
    1W        W33692  17.946  28.016   8.359  0.1524  0.2706  0.2123
    1W        W33693  23.997  16.863   6.775  0.0315 -0.0746 -0.1442
    1W        W33694  14.329  12.733   9.723  0.0813 -0.0297  0.1557
    1W        W33695  20.979   5.302   1.357  0.0296  0.1378  0.2483
    1W        W33696   0.830  17.101   1.339 -0.1261  0.1035  0.0170
    1W        W33697  22.819  19.032   2.389 -0.3692 -0.2991  0.0340
    1W        W33698   7.743  12.182   2.435 -0.1359  0.1368 -0.0218
    1W        W33699  27.623  20.400   8.611 -0.1346  0.2264  0.5301
    1W        W33700  15.120  12.675   9.753  0.3258  0.0569  0.0034
    1W        W33701   2.976  17.038   9.506  0.1922  0.1646 -0.0159
    1W        W33702   4.756   9.565   7.385  0.1613 -0.2669  0.2327
    1W        W33703  23.085  25.951   8.062  0.2119 -0.1345 -0.0525
    1W        W33704  22.958  18.790   7.835  0.0732 -0.0689 -0.0216
    1W        W33705  18.570  13.526   0.204  0.0559 -0.4181  0.1633
    1W        W33706   9.085  20.885   1.050  0.1816  0.0857  0.3371
    1W        W33707  10.273  10.222   1.498 -0.2044  0.0177  0.1084
    1W        W33708  20.506  15.491   2.432 -0.2532  0.1933  0.0833
    1W        W33709   3.954  18.074   7.619  0.0030  0.1711  0.1632
    1W        W33710  24.159  22.660   9.610 -0.3648  0.1101 -0.2356
    1W        W33711  14.156   7.685   1.300  0.1998 -0.0160  0.0797
    1W        W33712  11.420  18.163   1.894  0.0821  0.0148  0.1125
    1W        W33713  18.931  16.155   9.253  0.1062 -0.3018  0.0781
    1W        W33714  23.861  11.295   9.530 -0.3410 -0.0779 -0.0928
    1W        W33715   1.289   3.524   0.654 -0.0462 -0.2701  0.0663
    1W        W33716   0.106   6.934   7.546  0.0811  0.0295  0.1904
    1W        W33717   4.749  10.503   2.556 -0.0824  0.0297  0.1562
    1W        W33718   3.416  23.548   7.819  0.0451 -0.1452 -0.1096
    1W        W33719   3.584  27.752   8.585 -0.4659  0.2975  0.1758
    1W        W33720   8.284   7.989   8.717  0.1672 -0.0420 -0.1321
    1W        W33721   2.395   6.279   7.308  0.0595 -0.3393  0.2904
    1W        W33722  19.141  28.266   2.370  0.1547 -0.0598 -0.0192
    1W        W33723  23.543  24.670   2.591  0.1355  0.2436 -0.3924
    1W        W33724   1.735  13.506   6.554  0.1011  0.2239  0.2168
    1W        W33725   4.250  25.504   9.463 -0.0777 -0.0567  0.1342
    1W        W33726  17.374   2.574   0.321 -0.3877  0.1678 -0.0646
    1W        W33727  26.791  23.887   9.659 -0.2387  0.1911 -0.0084
    1W        W33728   8.456  26.697   2.704  0.0225 -0.0947  0.4022
    1W        W33729   4.522   7.185   6.544  0.5896 -0.2125  0.1218
    1W        W33730   6.151  19.582   6.731  0.1347  0.0026 -0.2245
    1W        W33731   1.257  11.232   7.888  0.0045  0.0367  0.2466
    1W        W33732  28.148  22.475   1.744 -0.1875 -0.0087  0.0812
    1W        W33733   6.873  13.544   2.112  0.1597  0.1006  0.1079
    1W        W33734  18.682  15.379   0.616 -0.1675 -0.0159 -0.0488
    1W        W33735  22.497   3.748   7.781 -0.0114 -0.2249 -0.0885
    1W        W33736  16.453   7.460   7.902  0.0033  0.0676 -0.2276
    1W        W33737  19.595  24.177   7.320 -0.0225  0.1980 -0.2695
    1W        W33738  12.264   7.102   7.781  0.4340  0.0487  0.0556
    1W        W33739  20.467   9.244   8.110  0.1130 -0.0768  0.1064
    1W        W33740  20.582  23.581   0.526  0.0140  0.4357  0.2914
    1W        W33741   3.028   5.088   7.603 -0.3311 -0.2828  0.2763
    1W        W33742  13.411  23.995   9.815  0.2040  0.0844  0.2130
    1W        W33743  12.408   2.090   3.451  0.2392 -0.0871  0.0770
    1W        W33744  26.473  16.047   8.687 -0.0878 -0.0087 -0.0383
    1W        W33745   8.468  19.611   9.860 -0.1627  0.1552 -0.1017
    1W        W33746  11.181   3.036   0.819 -0.2629 -0.1710  0.0515
    1W        W33747  15.439   0.129   7.285  0.0999 -0.3549 -0.2538
    1W        W33748  23.597  22.962   0.339 -0.0264 -0.2832 -0.2535
    1W        W33749  10.465  10.222   2.631  0.0119  0.2278 -0.3356
    1W        W33750  13.189   5.019   9.326 -0.1585  0.0347 -0.0811
    1W        W33751   6.129  10.960   0.787 -0.2626  0.1419 -0.2054
    1W        W33752  10.237   6.276   0.880 -0.0785 -0.1554  0.0883
    1W        W33753  12.755  21.237   0.523  0.1532  0.1051  0.0021
    1W        W33754   9.312  27.607   2.250 -0.0131  0.1538  0.0830
    1W        W33755   8.805   0.432   0.164  0.1382  0.0578 -0.3039
    1W        W33756  26.769   1.766   7.929  0.1426  0.2315  0.1799
    1W        W33757  22.867   3.416   7.016 -0.1231  0.1461  0.0862
    1W        W33758  24.886  23.435   2.799 -0.0632 -0.1247 -0.0035
    1W        W33759   7.632  15.705   7.311  0.0621  0.5299  0.0190
    1W        W33760  12.080  20.365   8.061  0.3053  0.0488  0.3604
    1W        W33761  24.114   9.759   2.850  0.3403 -0.1199  0.2121
    1W        W33762  16.785   7.871   2.368  0.1648 -0.1220  0.1320
    1W        W33763   2.623   2.215   1.696 -0.0561  0.1645 -0.2114
    1W        W33764   1.699  20.760   1.198 -0.1669 -0.0084 -0.3084
    1W        W33765   2.863  26.493   0.226  0.0654  0.1230  0.2888
    1W        W33766  15.734   1.652   1.932  0.0929  0.0996  0.0629
    1W        W33767  19.993  19.845   0.789  0.1069 -0.1317 -0.1446
    1W        W33768   1.574  17.913   1.225 -0.2397  0.0071 -0.0503
    1W        W33769  21.614   7.613   8.492  0.1577  0.0205 -0.1217
    1W        W33770  28.340  18.059   9.603 -0.4510  0.1181 -0.0382
    1W        W33771   7.480   1.142   1.613  0.1301 -0.2631 -0.0447
    1W        W33772  27.792  22.950   9.254  0.0700  0.0185 -0.1022
    1W        W33773   7.383   7.802   9.872  0.2085  0.2021  0.0115
    1W        W33774  18.203  10.579   0.657 -0.0402  0.1928  0.0041
    1W        W33775  15.562  23.469   8.912  0.0725 -0.2921 -0.2351
    1W        W33776  25.346   3.579   7.058 -0.4495 -0.0036 -0.1759
    1W        W33777   9.739   0.331   1.824 -0.1341 -0.0249 -0.3123
    1W        W33778  25.398  13.464   8.202  0.2999  0.2328 -0.0165
    1W        W33779   7.053  19.166   6.758  0.0215  0.0483 -0.0281
    1W        W33780   0.107   3.033   3.042 -0.2010 -0.1691  0.4519
    1W        W33781   5.822   2.058   2.104  0.4345 -0.0399  0.4072
    1W        W33782  27.370  21.017   1.436 -0.0770  0.0836  0.3589
    1W        W33783   9.256  12.984   7.855  0.0767  0.0004  0.0364
    1W        W33784  20.311   1.442   9.895  0.0014 -0.0650  0.3017
    1W        W33785  27.703   5.315   1.677 -0.3187 -0.1242 -0.1631
    1W        W33786   8.927  16.070   9.411  0.0887 -0.2228 -0.1848
    1W        W33787   5.863   4.464   2.175 -0.0277 -0.0567 -0.2292
    1W        W33788  21.231   2.030   8.205  0.2021 -0.1467  0.2749
    1W        W33789  11.219   6.604   8.396  0.3521  0.1141 -0.0914
    1W        W33790   8.119   3.550   0.092  0.2721  0.1440  0.1554
    1W        W33791   2.375   5.465   8.583  0.1667  0.0039  0.1043
    1W        W33792   6.945  10.630   8.562 -0.1854  0.1638 -0.0735
    1W        W33793   0.386  17.538   6.810 -0.1637 -0.0343 -0.1643
    1W        W33794  26.614  24.821   7.961 -0.0286 -0.0747 -0.0000
    1W        W33795   1.024   5.428   7.859  0.0443  0.0725  0.0195
    1W        W33796  27.266  17.020   7.643  0.2553  0.1494 -0.1622
    1W        W33797   9.980  15.652   0.582 -0.0411  0.2832 -0.1135
    1W        W33798  23.486   9.396   7.396  0.2244 -0.0509 -0.0223
    1W        W33799  14.918  26.391   1.487  0.0544  0.0283 -0.0027
    1W        W33800   7.056   8.059   9.559  0.3593 -0.0461  0.1259
    1W        W33801   6.006   8.763   8.418 -0.0046  0.2945 -0.3589
    1W        W33802   2.271  27.327   7.454 -0.0700 -0.2470 -0.1001
    1W        W33803   7.624  20.924   9.369 -0.1163  0.3381  0.0828
    1W        W33804   0.074   8.409   0.831 -0.3054  0.0574 -0.1097
    1W        W33805  13.152   6.101   1.349 -0.1312 -0.0103  0.1758
    1W        W33806  13.240  18.077   0.619  0.1801 -0.0203 -0.2032
    1W        W33807  22.549  18.092   7.864 -0.0758  0.1553  0.4702
    1W        W33808  26.574   2.316   7.846 -0.0253 -0.1602 -0.1414
    1W        W33809   3.148  21.552   6.734  0.0333 -0.2287  0.0038
    1W        W33810   7.299  12.120   0.171  0.2054  0.0672 -0.2955
    1W        W33811   7.997   1.620   7.057 -0.0742  0.1681  0.1779
    1W        W33812  22.937   4.241   1.675 -0.0671  0.0965  0.2057
    1W        W33813  15.690  19.513   7.907  0.3926 -0.0863  0.0680
    1W        W33814  17.811   0.458   2.745 -0.0426  0.0588  0.1415
    1W        W33815  28.605  18.546   7.829  0.1491  0.1626 -0.0243
    1W        W33816   2.133   5.761   1.003  0.1634 -0.4995  0.2261
    1W        W33817  12.874  14.222   9.043  0.3919  0.1339 -0.1508
    1W        W33818   2.784  25.270   7.326 -0.2062 -0.2358 -0.2117
    1W        W33819  18.509  10.844   0.949  0.5150 -0.1080 -0.1807
    1W        W33820  22.462  18.671   7.121  0.2172 -0.0370 -0.1056
    1W        W33821  13.265  12.629   1.183  0.0844  0.2389 -0.2920
    1W        W33822   3.571  23.289   0.518  0.0637 -0.1032  0.2667
    1W        W33823  28.540  12.241   6.957 -0.0181  0.3311 -0.1014
    1W        W33824   1.975  10.888   2.314  0.3540  0.3355 -0.3127
    1W        W33825   9.018   2.958   3.833 -0.3083  0.2282 -0.0575
    1W        W33826  22.725  24.728   7.701 -0.0485  0.1353 -0.1213
    1W        W33827  12.921  24.975   1.906  0.1761  0.0455 -0.0877
    1W        W33828  22.466  13.018   8.336  0.2256 -0.0585  0.2079
    1W        W33829  15.649  12.829   0.571 -0.2784  0.1229  0.0402
    1W        W33830  18.402  12.831   8.001  0.0327 -0.0006 -0.0985
    1W        W33831  25.294  24.512   6.372  0.1101 -0.0980 -0.1090
    1W        W33832   8.227  24.074   0.938 -0.1596  0.1301  0.0518
    1W        W33833  27.195   9.702   9.812  0.0281 -0.0842  0.0496
    1W        W33834  23.971  18.120   2.503  0.3743  0.1609 -0.0431
    1W        W33835  21.732  25.384   7.215 -0.0697 -0.2120  0.0570
    1W        W33836  24.282  19.535   8.651  0.1497 -0.0163 -0.1495
    1W        W33837  21.294   7.280   7.678  0.1587  0.2051 -0.1733
    1W        W33838  27.641  10.931   6.865  0.3975  0.5474 -0.0206
    1W        W33839  16.293  19.243   2.138 -0.2742 -0.0708  0.5254
    1W        W33840  10.342  18.943   1.656  0.0029 -0.3113  0.2927
    1W        W33841   2.953   0.075   1.001  0.0264  0.0258 -0.3033
    1W        W33842   5.293   4.984   7.848  0.1259 -0.1049  0.2760
    1W        W33843  14.694  18.945   8.556  0.2351 -0.0495  0.2388
    1W        W33844  25.368  25.037   7.064 -0.0084 -0.2653 -0.0897
    1W        W33845  10.384   8.733   1.003 -0.1102 -0.0972 -0.0325
    1W        W33846   5.691  25.191   1.460 -0.1905 -0.2560  0.1195
    1W        W33847  27.064  15.793   9.160  0.1936 -0.1116  0.3057
    1W        W33848  20.309   7.250   8.660  0.0835 -0.1905 -0.3808
    1W        W33849   8.113  17.501   6.926  0.1486 -0.1988 -0.3620
    1W        W33850  13.233   6.445   0.761 -0.1764 -0.1708 -0.0729
    1W        W33851   2.674  14.458   1.725  0.1173  0.1674  0.1731
    1W        W33852  27.032   6.662   1.240  0.0674 -0.3380  0.1436
    1W        W33853   5.512   8.635   7.320  0.0666 -0.3327  0.0912
    1W        W33854   6.128  23.895   1.138  0.0747 -0.0758  0.1736
    1W        W33855  25.771  13.916   8.100 -0.0631  0.1454  0.4369
    1W        W33856  23.221   8.927   9.799  0.1956 -0.2134 -0.1209
    1W        W33857   6.659  18.123   7.189  0.2201  0.2310  0.0548
    1W        W33858  14.877   1.108   0.658 -0.1594  0.2813 -0.1066
    1W        W33859   2.191  24.957   2.519  0.1826 -0.0956  0.2915
    1W        W33860  25.155   6.840   6.898 -0.0979 -0.3409 -0.3891
    1W        W33861  27.865  19.703   7.643 -0.0063  0.4552 -0.1236
    1W        W33862  17.677  28.269   2.375 -0.2310  0.0514 -0.1193
    1W        W33863  18.093  11.278   8.829  0.2104  0.1648  0.1518
    1W        W33864   4.619  20.554   8.391 -0.2436 -0.2339  0.1915
    1W        W33865  16.578   6.164   0.007 -0.0362 -0.2038  0.0079
    1W        W33866  21.548  24.478   9.896 -0.1005  0.2718 -0.1591
    1W        W33867   4.919  13.673   0.418 -0.2410 -0.1389  0.1141
    1W        W33868  18.030   5.179   2.282  0.0096 -0.0742  0.0010
    1W        W33869  22.496  27.734   7.397 -0.5956 -0.1704  0.0047
    1W        W33870   1.982  20.578   9.655  0.1483 -0.1416 -0.1147
    1W        W33871   5.757  18.208   7.508 -0.1389  0.0180 -0.1799
    1W        W33872   4.346  19.153   9.227  0.1589  0.2337  0.1548
    1W        W33873   0.314  10.153   8.611  0.1189  0.0253 -0.2583
    1W        W33874  18.157   6.580   8.270 -0.3236  0.2146  0.2271
    1W        W33875   0.446   3.390   0.938 -0.1846 -0.2782 -0.0278
    1W        W33876  20.457  21.593   1.488 -0.2734 -0.3179  0.1312
    1W        W33877  18.310   2.252   0.637 -0.3574 -0.1358  0.3607
    1W        W33878  28.018   6.326   2.291  0.2082 -0.3891 -0.3261
    1W        W33879   9.826  10.502   8.046 -0.0054  0.0340 -0.1230
    1W        W33880   9.453  19.668   8.701 -0.3434 -0.0104  0.1175
    1W        W33881  19.351  18.681   8.031  0.1996  0.0353  0.0286
    1W        W33882   9.068  27.685   1.783  0.2649  0.0987  0.2022
    1W        W33883   5.997   9.460   9.750  0.1639  0.0762  0.0481
    1W        W33884  23.185   5.860   6.858  0.1633  0.2592  0.2379
    1W        W33885  23.047   0.920   7.855  0.1634  0.1658 -0.1037
    1W        W33886  20.438  19.819   8.004 -0.0873 -0.1749 -0.2812
    1W        W33887  10.926   4.087   0.125  0.1073 -0.3974 -0.0144
    1W        W33888   4.459  23.838   6.686 -0.0647 -0.0532 -0.3867
    1W        W33889  14.601  21.540   3.629  0.0644 -0.0503  0.1115
    1W        W33890  26.013  19.416   8.087  0.1445 -0.0651 -0.0620
    1W        W33891  17.241   3.266   8.329  0.2827 -0.0437  0.4284
    1W        W33892  25.450   0.387   2.135  0.2567  0.0581 -0.2926
    1W        W33893  25.063   1.257   9.715  0.1616  0.0019 -0.3778
    1W        W33894  12.282   4.726   0.479 -0.0984  0.4557  0.0215
    1W        W33895   4.232   7.794   8.146  0.0064 -0.0060 -0.0403
    1W        W33896  16.308  20.926   0.544  0.0178 -0.0094 -0.0209
    1W        W33897  13.525  15.423   0.692 -0.3150 -0.4534 -0.0117
    1W        W33898  22.572  25.007   7.262 -0.0588 -0.0561 -0.0179
    1W        W33899  10.812  21.523   0.366  0.6034 -0.0595  0.3928
    1W        W33900   3.739   5.019   8.906  0.1973  0.1298 -0.1293
    1W        W33901  15.253  24.874   6.496 -0.1399  0.0414 -0.0705
    1W        W33902  26.681  18.156   7.861  0.1763  0.0568 -0.0205
    1W        W33903   7.841   0.897   2.515 -0.0352  0.0136  0.2591
    1W        W33904  22.026   3.552   7.613  0.0630  0.1276 -0.2391
    1W        W33905  11.519  14.387   8.912  0.3899 -0.2231  0.0282
    1W        W33906   2.438  18.074   1.991  0.0281  0.4279  0.1282
    1W        W33907  20.872   8.780   9.327 -0.1657  0.0969 -0.2257
    1W        W33908  11.596  10.744   2.082 -0.0854 -0.1503  0.0310
    1W        W33909  20.507  11.389   1.083  0.1242 -0.0230  0.0962
    1W        W33910  15.621  19.081   1.397 -0.0297  0.2340 -0.0698
    1W        W33911  11.086  22.498   1.774 -0.0146  0.1120 -0.0302
    1W        W33912  18.348  19.356   3.311 -0.2411  0.0787  0.0513
    1W        W33913   0.949  19.444   0.394  0.0132 -0.0495 -0.0644
    1W        W33914  12.389  10.382   2.210  0.1722 -0.0431  0.1091
    1W        W33915  11.249   3.564   2.639 -0.0638 -0.0865 -0.0067
    1W        W33916   6.833  18.893   9.818  0.0992  0.0790 -0.2795
    1W        W33917  24.252  14.416   8.406 -0.2128 -0.0398 -0.1522
    1W        W33918   1.415  17.144   6.200 -0.1438  0.2448 -0.2348
    1W        W33919  12.284  14.135   9.900  0.2016 -0.0412 -0.1545
    1W        W33920  28.697   5.825   0.702 -0.1163 -0.1463  0.2701
    1W        W33921   5.971   6.931   2.681 -0.3543  0.1579 -0.0296
    1W        W33922  14.152  24.266   9.794  0.1825 -0.1790  0.0116
    1W        W33923  24.479   4.133   9.778 -0.1643 -0.1713 -0.2653
    1W        W33924  13.356  15.526   2.502 -0.0703  0.6148  0.2535
    1W        W33925  17.341  23.916   0.939  0.5017  0.0469 -0.0153
    1W        W33926  27.255   5.157   0.077  0.1524 -0.1072 -0.0879
    1W        W33927  21.003  22.089   2.938 -0.0938  0.0989 -0.0050
    1W        W33928   5.125  15.395   2.643 -0.1494 -0.0640  0.0653
    1W        W33929  10.147   8.376   8.244 -0.3701  0.0474  0.0264
    1W        W33930  12.983   9.442   7.913  0.1423 -0.1308  0.0958
    1W        W33931   0.089   2.617   9.363  0.3343  0.0044  0.2351
    1W        W33932  13.760  24.820   9.210 -0.0156  0.0410  0.0426
    1W        W33933  24.228  12.722   7.134  0.2015 -0.3915 -0.2640
    1W        W33934  25.451  16.442   9.287 -0.0552  0.1038 -0.0837
    1W        W33935  27.463   4.509   8.677  0.0856 -0.1006  0.1795
    1W        W33936  14.585  22.170   8.891 -0.0058 -0.1312 -0.1838
    1W        W33937  13.176  14.691   1.012  0.2632 -0.0753 -0.1347
    1W        W33938   3.877   5.504   9.794 -0.1568 -0.3285  0.2181
    1W        W33939  11.444   2.097   9.870 -0.0624  0.1196  0.1937
    1W        W33940  18.879  23.276   0.083 -0.1562 -0.3080  0.1102
    1W        W33941   4.576  24.795   6.982 -0.2035 -0.1123  0.2886
    1W        W33942  20.368  17.400   0.739  0.0006 -0.0560 -0.2393
    1W        W33943  11.272  23.543   9.601 -0.0705  0.1194 -0.1743
    1W        W33944   7.577  25.164   9.216  0.3935 -0.0759 -0.0258
    1W        W33945  16.414   4.580   0.851  0.1005 -0.0527 -0.1417
    1W        W33946  11.454   3.402   8.498 -0.0051  0.0716  0.0035
    1W        W33947  13.745  14.068   9.738  0.1726 -0.1083 -0.1625
    1W        W33948  23.385  18.699   9.254  0.0125  0.1755  0.0520
    1W        W33949  11.326   4.591   2.842 -0.0937 -0.2675 -0.1738
    1W        W33950  28.354   8.831   0.853  0.0175 -0.2502 -0.0564
    1W        W33951   0.781  14.930   0.200 -0.1896  0.3026 -0.2084
    1W        W33952   6.581  19.406   1.203  0.2770  0.1205  0.0182
    1W        W33953   1.751  16.314   0.965  0.2050 -0.1951 -0.1060
    1W        W33954   1.645   1.245   1.864  0.0606  0.0850 -0.1698
    1W        W33955   3.033   0.746   9.510  0.0113 -0.0206 -0.2793
    1W        W33956   9.586   9.879   0.399 -0.2595  0.0229 -0.1091
    1W        W33957   9.725  12.204   7.897 -0.1228 -0.1313 -0.1475
    1W        W33958   1.712   2.433   6.876 -0.0449  0.0257  0.0396
    1W        W33959  12.822   0.891   1.352 -0.0197 -0.0771 -0.1327
    1W        W33960   9.962  23.264   1.130 -0.0846  0.1563  0.1384
    1W        W33961  24.903  15.549   3.106 -0.0420 -0.2501  0.2116
    1W        W33962   6.098  26.954   1.568  0.0380  0.1574 -0.1549
    1W        W33963  23.769   6.438   1.943 -0.1792 -0.1029 -0.0088
    1W        W33964  24.507   7.003   1.768 -0.0219  0.1464 -0.0182
    1W        W33965  13.224  27.914   1.947 -0.2612  0.0665  0.2537
    1W        W33966  24.953  18.935   1.091 -0.2467  0.0220 -0.0405
    1W        W33967   6.231  13.494   7.261 -0.0473 -0.2606 -0.2630
    1W        W33968  25.344   8.369   7.797 -0.1863  0.3337 -0.0431
    1W        W33969  25.624   5.020   6.705  0.3256  0.1706 -0.0572
    1W        W33970  21.472  12.984   7.100 -0.1264 -0.0909 -0.1952
    1W        W33971   6.900  14.720   7.852 -0.0619 -0.1119  0.1508
    1W        W33972   7.851  17.645   1.175  0.0063  0.0403  0.2154
    1W        W33973  14.762  11.374   9.515 -0.1395 -0.1755  0.1031
    1W        W33974  12.807  12.813   2.674  0.2430  0.0196 -0.0152
    1W        W33975   4.537  15.315   9.596  0.0854 -0.2413 -0.1003
    1W        W33976   4.519  23.449   7.227 -0.0252 -0.0116 -0.0932
    1W        W33977   8.293   5.326   0.817 -0.1164  0.0030  0.0867
    1W        W33978   9.917  18.299   8.696  0.0448 -0.2523 -0.1519
    1W        W33979  22.408  26.416   8.920 -0.0763  0.0015 -0.0899
    1W        W33980   0.919  11.227   1.470  0.0139  0.1600  0.2690
    1W        W33981  18.881   1.265   0.243 -0.2801  0.0083  0.1160
    1W        W33982   6.027  27.023   0.547 -0.1789 -0.2552  0.2942
    1W        W33983  17.561  14.737   1.907  0.2398 -0.2390 -0.4626
    1W        W33984  14.641   3.917   2.693 -0.1020 -0.0058 -0.1475
    1W        W33985   5.745  19.952   0.747 -0.3524  0.2298  0.0464
    1W        W33986  19.281   5.864   0.104  0.2238  0.1730  0.0734
    1W        W33987   5.969  23.941   9.531 -0.2356  0.1557  0.1474
    1W        W33988  23.413   3.142   6.927  0.2074  0.0464 -0.0493
    1W        W33989   5.933  23.018   6.337  0.2051  0.0524 -0.1041
    1W        W33990  10.234  10.731   7.929 -0.0243  0.2334  0.3437
    1W        W33991  28.161   5.325   0.234 -0.0483 -0.0891  0.1372
    1W        W33992  14.123   0.298   2.688  0.0032 -0.2655  0.1176
    1W        W33993  23.646   2.818   7.455 -0.3292 -0.4796  0.1227
    1W        W33994  23.424  16.740   0.141 -0.2946  0.0717  0.1398
    1W        W33995  14.605   3.917   8.117 -0.0068  0.0485  0.1030
    1W        W33996  18.747   6.748   2.884 -0.4147 -0.0944 -0.0507
    1W        W33997   3.587   0.631   2.667 -0.0806  0.0133 -0.2049
    1W        W33998   1.013  27.824   7.021  0.1111 -0.2800  0.0503
    1W        W33999  27.188  26.340   2.759  0.0054 -0.0780  0.0211
    1W        W34000  14.096  14.784   7.760  0.3288 -0.0974 -0.0584
    1W        W34001   0.622  17.385   5.993  0.0049  0.0927  0.0567
    1W        W34002   7.417  23.711   0.419 -0.0124 -0.2017 -0.1099
    1W        W34003  16.716  13.812   9.135  0.0824 -0.1798  0.1691
    1W        W34004  22.445  17.371   0.801  0.0139  0.1233  0.3531
    1W        W34005  21.278  28.007   9.639  0.0686  0.0420  0.1703
    1W        W34006   3.639   5.569   2.128 -0.0128 -0.0828 -0.0426
    1W        W34007  20.245  21.677   3.747 -0.2132 -0.1897 -0.0849
    1W        W34008  26.891  16.614   7.044 -0.1582  0.1102  0.3185
    1W        W34009  21.536   1.681   8.943 -0.0764 -0.0915 -0.2138
    1W        W34010  17.296  13.507   9.423 -0.1755  0.0383 -0.0601
    1W        W34011  11.470  26.193   7.738  0.0246  0.0982 -0.0019
    1W        W34012  12.659  22.084   9.955  0.0215  0.2587  0.0894
    1W        W34013  11.140   4.354   9.679  0.2803 -0.0785 -0.0654
    1W        W34014  12.012   8.588   2.491  0.1981 -0.6345  0.1345
    1W        W34015   4.815  26.794   0.601  0.0644  0.1919 -0.0467
    1W        W34016  10.898   2.596   9.241  0.0773  0.2231  0.0293
    1W        W34017   0.751  26.678   6.251 -0.1486  0.1403  0.0873
    1W        W34018   2.580  11.386   7.448  0.1598 -0.1181  0.0337
    1W        W34019   6.055  25.008   6.920  0.0830  0.1964 -0.0942
    1W        W34020  26.060  10.413   0.557 -0.0078 -0.1163  0.2737
    1W        W34021  15.617   1.961   9.065 -0.1923  0.2332 -0.2520
    1W        W34022  11.995   7.208   8.185 -0.0319  0.2115 -0.2438
    1W        W34023  23.565   4.013   7.094 -0.1131  0.0281 -0.1046
    1W        W34024  27.860  14.614   2.227  0.2225 -0.1287 -0.3104
    1W        W34025  25.652   8.013   6.699 -0.3194  0.0117 -0.2726
    1W        W34026   7.103  22.063   7.579  0.1278  0.1082 -0.0760
    1W        W34027  26.848   6.339   8.136 -0.0971  0.4958  0.2146
    1W        W34028  12.390  14.144   1.174 -0.0494  0.0188 -0.4044
    1W        W34029  25.121  26.470   8.610  0.1405  0.0070 -0.0557
    1W        W34030   1.257  23.990   9.781  0.0750 -0.0473  0.0403
    1W        W34031  25.008  21.571   0.673  0.1232 -0.2738  0.1448
    1W        W34032  10.200  23.666   0.290  0.0017 -0.0530 -0.0393
    1W        W34033  18.024  25.492   7.940 -0.0336 -0.0136  0.2570
    1W        W34034  18.714  26.403   0.944 -0.1898  0.1754  0.1604
    1W        W34035  20.855  15.187   1.657  0.2042 -0.0139  0.2918
    1W        W34036   4.375  18.750   7.152 -0.1452 -0.1477 -0.1612
    1W        W34037  21.182   9.319   1.454 -0.1400 -0.3884 -0.1259
    1W        W34038  12.676  26.452   9.403  0.2826  0.1316  0.1101
    1W        W34039   8.280  16.279   2.084 -0.0599 -0.2374  0.2870
    1W        W34040  19.593   7.653   0.709 -0.1270  0.1087 -0.0401
    1W        W34041  20.168  13.115   7.939  0.3539  0.0769 -0.0964
    1W        W34042  11.910   1.946   9.835  0.0274  0.2433 -0.2544
    1W        W34043  21.717  11.167   7.244 -0.2763  0.2036 -0.0811
    1W        W34044  15.244   5.112   7.385  0.2296 -0.0956  0.0702
    1W        W34045   2.768  20.593   5.649 -0.2710  0.1398  0.0426
    1W        W34046  17.667   6.686   8.091  0.0260  0.0294 -0.0428
    1W        W34047  16.793   0.079   3.896 -0.1648 -0.1107 -0.1250
    1W        W34048   9.413   6.766   8.071  0.2173 -0.2289 -0.0592
    1W        W34049  24.551   5.822   0.319 -0.0947 -0.0927  0.1202
    1W        W34050  12.719   4.882   9.571  0.3540 -0.3976 -0.0655
    1W        W34051  23.879  14.872   7.956 -0.1464  0.0901  0.0362
    1W        W34052  12.562   2.403   7.396 -0.1075  0.1262 -0.2121
    1W        W34053  22.622   0.633   3.221 -0.0038  0.1784  0.0219
    1W        W34054  28.307   3.349   8.218  0.1555  0.2386  0.2572
    1W        W34055  12.487  18.870   2.173 -0.1772 -0.1342 -0.3489
    1W        W34056   1.019   7.148   9.230 -0.1166  0.0531  0.0002
    1W        W34057   0.299  16.667   7.123 -0.0335  0.0718 -0.1294
    1W        W34058  13.879   6.985   8.269 -0.3285  0.1597 -0.0959
    1W        W34059  28.214  12.519   7.237 -0.0996  0.2296 -0.1700
    1W        W34060   4.754  17.213   1.924  0.0039  0.0767  0.1943
    1W        W34061  21.189   7.980   7.770 -0.1897 -0.0867 -0.0242
    1W        W34062  15.151   0.527   8.018 -0.0098  0.0536  0.2139
    1W        W34063   0.590  11.410   6.999  0.0047  0.1413 -0.1154
    1W        W34064  12.395   0.686   3.011 -0.1150 -0.0144  0.2531
    1W        W34065  20.349   5.902   7.512 -0.2105  0.2199  0.1495
    1W        W34066  23.517   2.209   2.783  0.0826  0.0327  0.4046
    1W        W34067  22.349  12.533   7.069 -0.1555 -0.0893 -0.0563
    1W        W34068  14.564   1.515   2.457 -0.0169  0.2928  0.1042
    1W        W34069  25.792  26.517   0.182 -0.1676 -0.0596 -0.2148
    1W        W34070  20.950  25.897   0.549  0.2168  0.2834 -0.2334
    1W        W34071  11.563  26.635   0.653  0.2729 -0.2060  0.4510
    1W        W34072  21.665  25.989   3.254 -0.2127 -0.0419  0.0117
    1W        W34073   7.396  19.387   7.040 -0.0202  0.1635  0.1259
    1W        W34074  13.316  16.042   9.886  0.3491  0.1541  0.1822
    1W        W34075  16.393  16.897   9.294  0.1468  0.2477 -0.1243
    1W        W34076  10.965   7.243   8.959  0.1057 -0.2915  0.1580
    1W        W34077  18.508   4.764   9.247 -0.1553 -0.0096 -0.1066
    1W        W34078  10.725  27.238   9.628 -0.0657 -0.2990  0.1714
    1W        W34079   2.456   6.641   8.592  0.3834 -0.2213  0.1499
    1W        W34080   7.798  24.657   1.897 -0.1568 -0.0697 -0.1075
    1W        W34081   6.726  26.682   7.408 -0.0666  0.5455  0.3127
    1W        W34082   7.469  23.574   9.827  0.2216 -0.2062 -0.4628
    1W        W34083  21.261   9.567   1.962  0.0552 -0.1514  0.2264
    1W        W34084  13.928  21.962   8.017  0.0017  0.0080  0.3251
    1W        W34085   7.251   7.471   2.655  0.1706 -0.0069  0.2065
    1W        W34086  19.204  25.400   6.980 -0.0310 -0.2057  0.1369
    1W        W34087  26.000   2.785   7.140  0.0847  0.0733  0.2046
    1W        W34088  13.142  20.847   7.910  0.1179 -0.0325 -0.3502
    1W        W34089  18.504   1.491   1.323  0.4008 -0.2036  0.3190
    1W        W34090  28.021  25.947   9.421 -0.0933  0.0793  0.0252
    1W        W34091   1.506   8.573   1.272 -0.1076  0.1690  0.0977
    1W        W34092  20.416  15.408   8.364 -0.2168  0.0755 -0.1299
    1W        W34093  25.540  21.875   0.919 -0.2745  0.0869  0.0897
    1W        W34094  11.983  13.711   1.053  0.1150  0.1057 -0.3434
    1W        W34095   9.524   4.616   1.074 -0.2099  0.2183 -0.1554
    1W        W34096  26.151  17.316   7.476 -0.1370 -0.1847  0.2002
    1W        W34097   2.179  11.925   9.062 -0.1193 -0.2785 -0.0486
    1W        W34098  23.991  26.062   1.435  0.0875 -0.2369 -0.0453
    1W        W34099   3.986  10.788   2.015 -0.3943  0.0613  0.1432
    1W        W34100  20.968  21.581   2.628  0.1413 -0.0895 -0.2448
    1W        W34101  19.039   1.748   6.490 -0.1123 -0.1662  0.1444
    1W        W34102  27.632   5.059   0.335 -0.2411  0.0844 -0.0416
    1W        W34103   4.306  26.521   7.906 -0.1788 -0.3099 -0.1205
    1W        W34104   3.913  22.536   2.000 -0.1458  0.0378  0.2811
    1W        W34105  21.338   0.888   7.465  0.3520 -0.2187  0.2208
    1W        W34106  10.094  24.671   1.605 -0.0367 -0.2387 -0.4103
    1W        W34107   6.208  28.031   6.872  0.2911 -0.0480 -0.1527
    1W        W34108   9.817  10.993   1.030  0.3140  0.3041  0.4088
    1W        W34109  25.239  15.505   7.497  0.0062  0.1331 -0.0934
    1W        W34110  25.662  24.106   7.423  0.0421 -0.0299  0.2598
    1W        W34111   3.670   6.216   0.961  0.0427 -0.1509 -0.1843
    1W        W34112   5.552  17.897   6.397  0.2246 -0.0457 -0.0083
    1W        W34113  10.501  28.292   8.501  0.1374 -0.1884  0.0436
    1W        W34114   4.182  26.151   9.779 -0.1356  0.1335  0.2671
    1W        W34115  18.910  11.006   0.047 -0.0106  0.4799 -0.0686
    1W        W34116  14.674   8.685   0.801  0.2778  0.0139  0.2433
    1W        W34117  16.914   9.335   9.783  0.1324 -0.0261  0.1069
    1W        W34118  17.203  20.117   2.376 -0.2728  0.2641 -0.2137
    1W        W34119  20.966  14.972   0.648 -0.0993  0.2265  0.1268
    1W        W34120  13.645  22.876   2.125 -0.0639  0.0255  0.3097
    1W        W34121  13.053   3.427   8.241 -0.1354  0.1749 -0.1705
    1W        W34122   1.635  17.898   7.825 -0.0832 -0.0090 -0.2824
    1W        W34123  17.673   8.357   0.091 -0.0190  0.0315 -0.2758
    1W        W34124   0.278  23.055   7.675  0.1203  0.1747 -0.4619
    1W        W34125  17.487  18.711   1.802  0.0675  0.0796  0.1138
    1W        W34126   9.096  18.528   3.005 -0.0582 -0.4750  0.1150
    1W        W34127  23.727  24.211   7.268  0.1313 -0.1503  0.0205
    1W        W34128   7.325  26.354   9.108  0.0759  0.5030  0.0937
    1W        W34129   2.958  16.555   9.519  0.3011  0.1585 -0.1289
    1W        W34130   6.949  21.360   1.264  0.1933  0.0323  0.1674
    1W        W34131  20.845  11.502   0.740  0.0609 -0.0500 -0.0571
    1W        W34132   2.410  13.164   0.373  0.0759  0.0500  0.1311
    1W        W34133  14.923   3.008   0.082  0.2535  0.2815 -0.1289
    1W        W34134  11.836  22.668   6.997 -0.0957  0.1063 -0.1574
    1W        W34135  16.971  20.637   2.995  0.0238 -0.2690 -0.2352
    1W        W34136   4.474  18.737   6.662 -0.2174  0.1168 -0.1579
    1W        W34137  12.749  13.556   8.367  0.1696  0.3056 -0.0013
    1W        W34138   3.239  14.592   6.161 -0.0977 -0.2345 -0.0605
    1W        W34139   2.467   8.234   2.463  0.5179  0.1886 -0.0072
    1W        W34140  22.486   3.433   8.958 -0.1379  0.0189  0.2444
    1W        W34141   9.536  22.644   0.501  0.1936 -0.0352 -0.0667
    1W        W34142  15.064   2.541   9.920  0.2512 -0.0450  0.1580
    1W        W34143   7.772  25.611   8.897  0.0197 -0.1399 -0.1133
    1W        W34144   9.518  27.043   9.388  0.0094  0.3288  0.0491
    1W        W34145  17.966   5.590   9.674 -0.1311 -0.3503  0.1432
    1W        W34146   2.523   2.352   9.331  0.3759 -0.1908  0.0954
    1W        W34147  20.849  27.894   2.498 -0.3357 -0.2182  0.0252
    1W        W34148   8.013  20.156   7.184  0.2807  0.5267 -0.1688
    1W        W34149   8.376  27.711   0.618  0.0698 -0.1194  0.1879
    1W        W34150  19.163   8.769   8.524 -0.0119  0.3703  0.1300
    1W        W34151   0.157  21.512   0.765  0.2485 -0.3454  0.0312
    1W        W34152  21.365  17.264   9.818 -0.1815  0.2241  0.0963
    1W        W34153   0.820  17.603   9.178  0.3492  0.0117 -0.5089
    1W        W34154  22.905  23.567   9.129 -0.0930 -0.1262 -0.2215
    1W        W34155   2.057  17.988   2.620 -0.0292  0.3370  0.2627
    1W        W34156  26.606  14.726   8.069 -0.0594  0.1158  0.0761
    1W        W34157  21.576   6.231   0.751  0.0068  0.0766 -0.0300
    1W        W34158  28.601   4.246   7.706  0.0694 -0.0814  0.0973
    1W        W34159  11.119  14.244   1.313  0.0495  0.0482 -0.0465
    1W        W34160   5.466   5.209   0.011 -0.2869 -0.0765  0.1250
    1W        W34161  12.928  26.530   1.588 -0.0077  0.0407  0.2007
    1W        W34162  23.986   6.297   8.784  0.1064 -0.4700  0.0358
    1W        W34163  13.614  15.099   2.271 -0.0616  0.0536  0.0994
    1W        W34164  14.515   5.857   3.045  0.0600 -0.0422  0.1478
    1W        W34165   6.505  24.001   1.784 -0.1269  0.0380  0.0536
    1W        W34166  22.981  26.125   9.610  0.2389 -0.1396 -0.3697
    1W        W34167  19.749   8.121   1.840 -0.2488  0.0507 -0.2770
    1W        W34168   0.160   5.196   6.811 -0.1920  0.2331 -0.0646
    1W        W34169  11.789  12.381   7.755 -0.1082  0.0559  0.0301
    1W        W34170   2.657  16.369   3.016  0.2823  0.0233  0.0085
    1W        W34171  23.686  25.146   2.428  0.0767  0.0590  0.1994
    1W        W34172   9.353   3.297   3.377 -0.0419  0.3474 -0.0185
    1W        W34173  10.224  20.053   6.838 -0.1263  0.2538  0.2426
    1W        W34174  10.145   6.125   8.153  0.0685  0.2754 -0.0808
    1W        W34175   0.379  23.827   9.660  0.2310  0.1350 -0.0527
    1W        W34176  18.615   8.170   0.666  0.1706 -0.2879  0.0010
    1W        W34177  24.735  28.649   7.093 -0.1962  0.0246  0.1374
    1W        W34178  10.398   3.260   8.848  0.0313  0.2673  0.3408
    1W        W34179   1.860  14.775   0.659  0.1040 -0.0722 -0.1702
    1W        W34180  16.826  19.270   9.822 -0.2276 -0.2292 -0.2805
    1W        W34181  12.742  10.242   2.615 -0.1090  0.1462  0.0418
    1W        W34182  15.030   8.100   8.036 -0.0225  0.0048 -0.2272
    1W        W34183   8.884   6.398   0.304  0.5928 -0.2036 -0.2116
    1W        W34184  19.025  19.536   2.397 -0.0611  0.1119  0.1267
    1W        W34185   0.463  19.989   8.010 -0.0830  0.0582  0.0658
    1W        W34186   1.301   2.394   7.869  0.0406 -0.0346  0.3442
    1W        W34187   1.988   0.081   0.452 -0.0544  0.1064 -0.2119
    1W        W34188  10.014  20.941   9.081  0.0449 -0.0281  0.2425
    1W        W34189   1.498   9.129   0.536  0.1691 -0.1482 -0.2362
    1W        W34190  19.186   5.130   0.807  0.2373  0.1575  0.2050
    1W        W34191   1.267  22.613   2.240 -0.2677 -0.0826 -0.2250
    1W        W34192   3.078  20.999   1.539  0.0789 -0.0902  0.1852
    1W        W34193  27.809   1.549   0.082 -0.3260 -0.0806  0.1010
    1W        W34194  24.218  24.494   1.140 -0.0585  0.2002  0.1584
    1W        W34195  22.837  27.501   3.220 -0.0963  0.4639  0.0526
    1W        W34196   5.798  28.422   8.300  0.1715  0.1828  0.1363
    1W        W34197  12.019  23.175   6.571 -0.2418  0.1635 -0.3189
    1W        W34198  26.047  13.128   9.158 -0.1967 -0.1532 -0.0103
    1W        W34199  13.838  27.612   1.467  0.0126  0.0168 -0.0852
    1W        W34200  28.435  26.199   2.705 -0.0326 -0.1235  0.0715
    1W        W34201  21.223   7.105   1.553 -0.2588  0.2079 -0.1564
    1W        W34202  27.090  16.546   6.590 -0.1224 -0.2751  0.1821
    1W        W34203  28.262  17.928   0.339 -0.3533 -0.3406  0.2160
    1W        W34204   4.118   0.476   9.002 -0.0342  0.0058 -0.1176
    1W        W34205   6.597  27.712   0.688 -0.0132 -0.2294  0.1509
    1W        W34206  16.198  14.026   0.846  0.1563 -0.2137  0.0737
    1W        W34207  26.208  12.526   2.037  0.0423  0.0540  0.1791
    1W        W34208   4.779  28.138   7.032  0.1396  0.0184 -0.4849
    1W        W34209  26.651  15.897   0.189 -0.0263  0.0740  0.1742
    1W        W34210  23.282   1.389   1.902 -0.0596  0.0568 -0.1970
    1W        W34211   1.746  13.677   7.643 -0.1196  0.3647  0.0895
    1W        W34212  16.861   9.009   7.707 -0.1860 -0.0789 -0.1675
    1W        W34213  13.737  22.188   0.017 -0.4933 -0.3081 -0.2497
    1W        W34214  20.586   8.305   1.165 -0.2373  0.3315  0.0037
    1W        W34215  25.645  20.738   0.397  0.1416  0.0418 -0.2595
    1W        W34216  12.207  21.168   2.023  0.2061  0.1403 -0.0488
    1W        W34217  20.098  21.066   6.986  0.1760 -0.1188  0.0446
    1W        W34218   6.632   3.286   1.830  0.0561 -0.0041 -0.1932
    1W        W34219  22.937   4.556   9.939  0.0644 -0.0140  0.0654
    1W        W34220  12.494  14.888   8.665  0.0848 -0.1592 -0.4562
    1W        W34221  26.400  21.667   0.795  0.0940  0.1569 -0.3154
    1W        W34222  26.600  14.053   2.508  0.0547  0.1358  0.2526
    1W        W34223   3.180   3.344   6.824  0.0380 -0.0956  0.2532
    1W        W34224  20.848   7.408   0.093  0.1221  0.2661 -0.5311
    1W        W34225  17.124   0.382   3.018 -0.2004 -0.1422  0.1155
    1W        W34226   7.619  13.792   9.271 -0.0962  0.1596  0.1011
    1W        W34227   4.253   7.178   1.601 -0.0862 -0.2014 -0.3125
    1W        W34228  14.569  12.950   1.277 -0.1704  0.0463  0.1597
    1W        W34229   0.474  13.537   8.243 -0.1347  0.0917 -0.0002
    1W        W34230  26.219  15.462   6.622 -0.1565 -0.4205  0.0734
    1W        W34231  27.604   6.098   9.590  0.3063 -0.0711 -0.3529
    1W        W34232  25.825  16.827   9.656 -0.1220  0.1755 -0.1303
    1W        W34233  16.897  23.575   2.907 -0.1812  0.2717 -0.1118
    1W        W34234  13.638   6.549   1.065 -0.1623  0.0347  0.1193
    1W        W34235  10.710  20.538   1.825  0.3306 -0.0713 -0.2124
    1W        W34236  21.799  14.311   6.942 -0.0848  0.1815 -0.1067
    1W        W34237  17.783   0.330   8.468  0.1537 -0.1480 -0.3035
    1W        W34238   6.981  21.003   8.518 -0.2721  0.2400  0.1946
    1W        W34239  16.816   2.696   0.115 -0.1940 -0.2104  0.1504
    1W        W34240  24.607  20.610   2.186  0.0971 -0.0605  0.3694
    1W        W34241  18.616  10.853   1.974  0.0939  0.0716 -0.1524
    1W        W34242   3.014   5.359   9.298 -0.2132  0.2067 -0.0255
    1W        W34243   7.150   1.384   3.873  0.0995  0.0242  0.3858
    1W        W34244   6.529  24.820   0.921  0.2622  0.1373 -0.0590
    1W        W34245  10.567  13.216   0.170  0.2248  0.1839  0.0326
    1W        W34246   5.760  18.906   1.006  0.0161 -0.2273 -0.1273
    1W        W34247  14.343   7.427   3.088 -0.0861  0.0973 -0.0742
    1W        W34248  13.636   1.919   8.993  0.0149  0.0887  0.2419
    1W        W34249   1.613  14.150   7.791 -0.2437  0.1300 -0.3771
    1W        W34250   1.966  13.890   8.726  0.2676  0.1199 -0.0071
    1W        W34251  25.742  17.120   0.285 -0.1879 -0.0078 -0.1582
    1W        W34252   8.930  22.625   1.801 -0.1938 -0.1607 -0.0257
    1W        W34253  12.900  28.156   8.135  0.3066  0.2416 -0.1016
    1W        W34254   4.808  14.980   0.624 -0.2682  0.0860  0.2403
    1W        W34255  23.264   7.145   7.713  0.1365  0.0275  0.0013
    1W        W34256   4.158  21.261   9.876 -0.1351  0.3890 -0.1001
    1W        W34257  19.998   8.585   7.585  0.1338  0.1868 -0.4103
    1W        W34258   0.788  15.103   7.444  0.1044  0.0088  0.2148
    1W        W34259  12.060  16.336   7.849  0.0881 -0.1647  0.0413
    1W        W34260   6.891  25.207   7.894 -0.0323 -0.0589  0.2548
    1W        W34261   2.201   2.275   9.828  0.2230 -0.0469  0.1635
    1W        W34262   8.997  23.902   1.996  0.1505 -0.3146 -0.0688
    1W        W34263   8.674   3.675   8.019 -0.0538 -0.2649 -0.0856
    1W        W34264   5.839  23.434   9.571  0.1895 -0.0602  0.1334
    1W        W34265  17.898   5.532   1.581  0.1512 -0.0798 -0.1285
    1W        W34266  12.759   3.137   8.594 -0.0344 -0.1323 -0.1361
    1W        W34267  24.476  14.486   8.885  0.0486 -0.1315 -0.0254
    1W        W34268  10.967  25.731   8.076 -0.2322 -0.0733 -0.2504
    1W        W34269  10.076  22.316   6.687  0.1692  0.3490 -0.1482
    1W        W34270   4.363  27.469   6.864  0.1230 -0.0192 -0.3298
    1W        W34271  11.833  11.786   1.735  0.1376  0.1616 -0.0966
    1W        W34272  18.449  22.243   3.526  0.3620  0.4240 -0.5188
    1W        W34273   3.505   5.240   1.143 -0.3437 -0.5895 -0.3911
    1W        W34274   4.385   8.310   3.098 -0.1894  0.0365 -0.1481
    1W        W34275  19.626  27.337   2.188  0.1027 -0.3099  0.0850
    1W        W34276  25.879  23.639   9.687 -0.0009 -0.1321 -0.2475
    1W        W34277   1.647  18.645   8.322 -0.0252 -0.1008 -0.0648
    1W        W34278  28.391  15.923   6.850  0.2170  0.0522 -0.2538
    1W        W34279  10.990  22.226   1.338 -0.0563 -0.0144  0.1741
    1W        W34280   0.688  22.887   1.335  0.3082 -0.0801 -0.1775
    1W        W34281  17.962  27.349   1.619 -0.0974  0.2619  0.2305
    1W        W34282  22.060  25.089   7.552  0.2447  0.0111  0.2532
    1W        W34283   9.993  21.986   7.653 -0.2233 -0.2395  0.0658
    1W        W34284  17.737   4.707   1.397 -0.0120  0.2873  0.3668
    1W        W34285  20.938  16.404   9.664 -0.3584 -0.0761 -0.1669
    1W        W34286  16.572  14.645   1.960 -0.0349  0.0215 -0.1215
    1W        W34287   1.451  12.252   8.022 -0.0082 -0.2214 -0.0066
    1W        W34288  27.679  11.490   8.823 -0.0559  0.0764 -0.0977
    1W        W34289  17.597  12.589   0.030  0.1103  0.2013  0.0449
    1W        W34290   6.431  15.083   1.379 -0.0596  0.1765  0.0010
    1W        W34291  15.730  20.641   8.383  0.1016  0.0829 -0.1333
    1W        W34292  12.072   3.592   8.544 -0.0776 -0.1153 -0.0125
    1W        W34293   9.699  12.318   2.647  0.1877  0.1140 -0.1281
    1W        W34294   8.650   5.306   2.357 -0.0906  0.1074  0.3295
    1W        W34295  18.751  27.086   2.923  0.1131 -0.2498  0.3429
    1W        W34296  21.784   8.892   8.589  0.1267 -0.0312 -0.2624
    1W        W34297   7.364  13.123   2.659  0.1607 -0.0219  0.0339
    1W        W34298  18.632   8.235   1.179  0.0119 -0.1371  0.0433
    1W        W34299  15.638   5.123   8.735  0.1257  0.0808 -0.1043
    1W        W34300  10.750  25.644   0.672  0.1973  0.1305  0.1728
    1W        W34301  22.669  28.380   6.741  0.1218  0.0251 -0.0308
    1W        W34302   5.603  20.584   0.704 -0.2067  0.1545 -0.3172
    1W        W34303  28.356  21.687   8.596 -0.2394  0.1086  0.0080
    1W        W34304  26.168   4.901   2.074  0.1610 -0.2868 -0.1909
    1W        W34305   7.719  18.034   0.610 -0.0067 -0.1681 -0.1938
    1W        W34306  13.703  23.308   7.549  0.1053  0.2320  0.0356
    1W        W34307   2.927  28.706   7.970  0.3022 -0.1708 -0.3366
    1W        W34308   3.832  18.897   9.269  0.2837  0.2871 -0.3577
    1W        W34309  17.561   6.607   3.659 -0.2729 -0.0148 -0.2792
    1W        W34310  14.347  22.687   1.433 -0.0318 -0.0595 -0.2192
    1W        W34311   2.279  19.178   5.821 -0.2505 -0.1096  0.1351
    1W        W34312  28.590   8.829   2.883  0.6492  0.1363  0.1479
    1W        W34313  22.796   4.392   2.889 -0.4773  0.3325 -0.1515
    1W        W34314  23.674  11.332   1.744  0.1563 -0.1658 -0.0109
    1W        W34315  26.338   4.771   1.615 -0.1076 -0.1675 -0.1305
    1W        W34316  14.325  11.375   1.667 -0.1000 -0.1043 -0.0801
    1W        W34317  27.548  11.401   9.733  0.0635  0.3081  0.0531
    1W        W34318  23.326  20.595   0.782  0.2121  0.3631  0.2001
    1W        W34319  23.438  21.652   8.355  0.0798  0.0129  0.0448
    1W        W34320   9.069   0.342   7.967 -0.1193  0.0685  0.0557
    1W        W34321  18.894  24.520   3.821 -0.2499 -0.3003  0.0794
    1W        W34322   2.754  26.107   6.985 -0.1062 -0.0855 -0.0034
    1W        W34323   0.077   5.883   9.669 -0.1210 -0.3093  0.0959
    1W        W34324   7.034  28.070   2.483 -0.1822  0.2216 -0.2029
    1W        W34325  11.734   0.575   0.784  0.0449  0.1173  0.2720
    1W        W34326   8.663   1.082   8.748  0.0863  0.3715 -0.4013
    1W        W34327  22.646   7.560   7.057 -0.4161  0.1824  0.0492
    1W        W34328   9.261  25.999   9.517  0.0863 -0.0653 -0.1901
    1W        W34329  27.148   1.829   1.162 -0.1627 -0.0579  0.0678
    1W        W34330  15.870  21.745   9.091  0.0682  0.2970 -0.3303
    1W        W34331   0.536  13.715   1.105  0.3427  0.3015  0.2222
    1W        W34332  19.988   6.850   7.805 -0.1646  0.0467  0.0770
    1W        W34333   8.183  12.344   2.185  0.1798  0.2838  0.0097
    1W        W34334  10.950   9.051   1.687  0.2167  0.2458 -0.0975
    1W        W34335   6.902  27.544   3.193 -0.0983 -0.0451 -0.1699
    1W        W34336  25.678  18.015   9.480 -0.1441 -0.1244  0.1340
    1W        W34337   0.220  20.731   1.319  0.0205  0.3475  0.2068
    1W        W34338  27.501   4.841   2.797 -0.1029  0.1130 -0.1065
    1W        W34339  12.137  20.198   7.086  0.2126 -0.0569  0.0866
    1W        W34340  24.415   2.487   6.809  0.0832 -0.1817 -0.2008
    1W        W34341   8.914  16.772   7.174 -0.0975 -0.0165  0.0137
    1W        W34342  25.066   6.299   7.875  0.1507  0.4260 -0.0519
    1W        W34343  12.360  10.345   7.378  0.0061  0.0291  0.2711
    1W        W34344  17.464  17.383   2.674 -0.1631  0.2746  0.0373
    1W        W34345  19.213  18.719   9.615 -0.3086 -0.3885 -0.1309
    1W        W34346  11.666  20.654   2.503  0.2112 -0.1474 -0.3231
    1W        W34347   7.177  14.768   1.351 -0.1978 -0.2584  0.1679
    1W        W34348  18.107  16.503   8.716  0.2461  0.2094  0.1762
    1W        W34349   6.620  20.854   9.358 -0.0902  0.3144 -0.0569
    1W        W34350  21.714  25.725   2.734 -0.2432 -0.2463  0.0436
    1W        W34351  15.268  20.503   3.580 -0.0679 -0.0821 -0.1058
    1W        W34352  21.300   1.142   0.218 -0.0774 -0.0828 -0.1171
    1W        W34353  21.502  27.202   0.589  0.1768 -0.0357 -0.0022
    1W        W34354  27.307  11.638   8.416  0.2607  0.2034 -0.1607
    1W        W34355   9.912  13.705   0.793  0.1105  0.0104 -0.1427
    1W        W34356   2.965   2.978   0.549 -0.1938 -0.6540  0.0964
    1W        W34357  28.355  10.928   0.810 -0.0327  0.0754 -0.0651
    1W        W34358   3.121  27.786   8.758  0.0803 -0.0333 -0.0478
    1W        W34359  22.716  19.995   0.522  0.1923 -0.1736 -0.1599
    1W        W34360   1.665  18.750   8.792  0.0992  0.1368 -0.0114
    1W        W34361  22.962   4.933   7.199 -0.1484 -0.0527 -0.0413
    1W        W34362  17.825  18.462   1.461 -0.2064 -0.2234  0.0956
    1W        W34363  17.843   9.811   2.373 -0.0632  0.1909  0.2290
    1W        W34364  27.902  15.731   1.616 -0.3610  0.0446  0.0558
    1W        W34365   0.584   3.511   0.080  0.0757 -0.0699  0.2395
    1W        W34366  17.833  26.811   8.532  0.0836 -0.0175  0.0098
    1W        W34367  16.842  19.817   8.526 -0.3533 -0.2277 -0.1659
    1W        W34368  16.387   2.818   9.787 -0.2250  0.0664 -0.2501
    1W        W34369   0.698  21.109   9.274 -0.0245  0.4644 -0.1816
    1W        W34370   1.052  28.140   8.111  0.1896 -0.0486 -0.1517
    1W        W34371  22.987   7.864   7.800 -0.3403 -0.1942  0.3721
    1W        W34372  25.086  14.557   0.630  0.2830 -0.2725 -0.0946
    1W        W34373  10.780   7.954   0.733 -0.1939  0.0411  0.1623
    1W        W34374  25.963  11.728   7.027 -0.0982  0.1138  0.1679
    1W        W34375  16.340  17.012   8.743  0.3109 -0.2469  0.0465
    1W        W34376   0.087   3.916   9.254  0.1278  0.0221  0.1266
    1W        W34377  13.250   0.838   3.988  0.1742 -0.1787 -0.3044
    1W        W34378   0.447  17.396   1.297 -0.1559  0.0781 -0.2489
    1W        W34379  18.999  12.493   8.621 -0.0093 -0.0843  0.1854
    1W        W34380   8.235   9.677   8.773 -0.1215 -0.1077  0.1657
    1W        W34381  20.418  10.630   3.199 -0.0396 -0.0442  0.2796
    1W        W34382   1.989  27.665   7.196  0.0855 -0.2169  0.2360
    1W        W34383   1.187  15.439   9.394  0.0339 -0.1235  0.1103
    1W        W34384  26.853  23.464   2.161  0.3560  0.1225 -0.0875
    1W        W34385  19.902  10.682   1.706  0.1041 -0.1595  0.1208
    1W        W34386  18.398   1.999   1.160  0.0368 -0.2829  0.0819
    1W        W34387   9.539  10.537   2.787  0.3054 -0.2589  0.1396
    1W        W34388  27.529  13.020   1.648 -0.0420 -0.1835 -0.0016
    1W        W34389   5.484  15.465   7.773 -0.1481 -0.1713 -0.1138
    1W        W34390   9.046  27.922   0.405  0.0506  0.0757 -0.0613
    1W        W34391  23.776   0.307   9.482  0.0235 -0.0269  0.0078
    1W        W34392   9.415  19.239   1.918  0.1298 -0.0616 -0.1595
    1W        W34393   0.076  19.705   2.251  0.2583  0.0052  0.2592
    1W        W34394   9.361   0.445   1.432  0.0881 -0.2247  0.0470
    1W        W34395  23.641  20.087   9.893  0.2894  0.2497  0.0217
    1W        W34396   8.758   5.218   8.025  0.3942  0.0266  0.1605
    1W        W34397  19.236  24.034   7.662  0.4690  0.2525 -0.2346
    1W        W34398  12.772  17.815   9.396  0.0256 -0.0317 -0.0197
    1W        W34399   2.032  13.328   0.710 -0.0204  0.1549 -0.2290
    1W        W34400   1.844   9.230   7.707  0.0185  0.2511  0.0423
    1W        W34401  15.518  15.348   8.019  0.0111 -0.0063  0.4411
    1W        W34402   6.192  22.001   0.859 -0.1360 -0.0731  0.2418
    1W        W34403  21.412  27.207   9.261 -0.0647 -0.0091 -0.2525
    1W        W34404   5.132   8.399   7.110 -0.0596  0.0558 -0.0481
    1W        W34405   9.749  24.123   1.246 -0.0076  0.2063  0.1707
    1W        W34406  21.711  27.441   2.021 -0.1771 -0.0659 -0.1490
    1W        W34407  27.097  18.529   0.598 -0.0030 -0.1329 -0.2792
    1W        W34408   1.250  16.810   1.336 -0.0791  0.0627 -0.0269
    1W        W34409  21.923   4.890   1.487  0.1188 -0.1218  0.0962
    1W        W34410  25.176   5.510   7.829 -0.1101  0.2263  0.0678
    1W        W34411   5.541   3.986   8.792  0.0917  0.0106  0.0624
    1W        W34412  28.634  18.663   8.816 -0.0105 -0.0142 -0.0057
    1W        W34413  16.263  21.481   9.364 -0.0099 -0.0554 -0.3854
    1W        W34414  16.067  15.470   9.354 -0.0971 -0.3573 -0.0198
    1W        W34415   8.397  13.321   7.957 -0.4028 -0.0485 -0.2178
    1W        W34416  11.672  12.400   2.916  0.1011 -0.1465 -0.0845
    1W        W34417   1.622  21.895   0.291 -0.1170  0.0582 -0.1387
    1W        W34418   0.469   0.818   2.866  0.2000 -0.0131 -0.3363
    1W        W34419  16.339  23.159   1.114 -0.0001 -0.0628 -0.0421
    1W        W34420  22.600  19.889   8.513 -0.1104  0.0338 -0.3913
    1W        W34421  28.334   0.930   6.884 -0.1449  0.1008  0.1805
    1W        W34422  12.455  11.739   8.538 -0.1637  0.1336  0.1771
    1W        W34423  17.208   1.947   3.486  0.0357  0.3411 -0.2723
    1W        W34424  20.057  18.013   1.697 -0.1241 -0.1664 -0.0861
    1W        W34425  10.690  13.925   1.237  0.1610 -0.1769  0.2381
    1W        W34426  13.402   7.031   2.688  0.0528 -0.3915  0.2960
    1W        W34427  13.614  21.551   2.446  0.3664 -0.2432  0.0267
    1W        W34428  24.771  26.590   1.348  0.2283 -0.1076  0.2099
    1W        W34429  11.954   1.628   3.261  0.0355  0.1372 -0.0165
    1W        W34430  23.966  17.898   2.948  0.2651 -0.1474 -0.1806
    1W        W34431   0.196  16.230   9.898 -0.0132 -0.1335  0.1626
    1W        W34432  21.615   2.727   7.766  0.2403  0.2383  0.0621
    1W        W34433  14.682  22.558   7.328  0.0139  0.1193 -0.1628
    1W        W34434  17.800  15.470   7.882 -0.2717  0.1217  0.0041
    1W        W34435  22.723   9.340   2.143 -0.3963  0.2033  0.1798
    1W        W34436  25.849   6.878   1.718  0.1414 -0.0351 -0.0135
    1W        W34437  14.063  23.234   0.733 -0.0208  0.1625  0.0101
    1W        W34438   8.658   2.669   3.121 -0.0917  0.1252 -0.0778
    1W        W34439  11.563   3.520   2.226 -0.2259  0.1682 -0.2510
    1W        W34440   5.106  16.622   0.221  0.0935  0.2661  0.0313
    1W        W34441  26.763   5.305   0.300 -0.2371 -0.1920  0.0690
    1W        W34442  27.386  10.069   9.069 -0.4438 -0.1306  0.0339
    1W        W34443  28.492  11.802   9.233 -0.1522 -0.1622 -0.1587
    1W        W34444  17.650   4.222   8.467 -0.1692  0.0357  0.1494
    1W        W34445  24.587   4.850   1.114  0.0206 -0.0307  0.1191
    1W        W34446  10.814  23.801   2.150  0.0690 -0.1341  0.3458
    1W        W34447  25.464  11.596   1.721 -0.1363  0.0413 -0.1536
    1W        W34448  17.615   5.530   0.163 -0.0141 -0.2576 -0.1041
    1W        W34449   9.100  27.423   3.239 -0.0711  0.3123 -0.0087
    1W        W34450   1.766  20.149   7.332  0.2249  0.2103 -0.0689
    1W        W34451  11.604   9.133   9.723  0.0256 -0.2027 -0.2706
    1W        W34452  11.194  17.042   8.292 -0.2018 -0.0060  0.1904
    1W        W34453  24.522  18.567   8.851  0.3324 -0.0426  0.2195
    1W        W34454   2.373  25.699   6.170  0.2051 -0.0672 -0.2224
    1W        W34455   9.749  13.666   2.551  0.0696  0.0911 -0.1343
    1W        W34456  13.732  10.675   0.728  0.1207  0.3714  0.0402
    1W        W34457  20.500  27.699   0.835  0.2229 -0.3434  0.0149
    1W        W34458   8.198  13.632   1.501  0.1884  0.0584  0.2353
    1W        W34459  17.801  26.722   2.012  0.3086  0.1418 -0.0442
    1W        W34460   5.589  16.590   0.402  0.2265 -0.3157  0.0094
    1W        W34461  26.836  28.658   7.976  0.1983  0.2921  0.2236
    1W        W34462  24.540  20.221   7.925 -0.0106  0.4338  0.0327
    1W        W34463   4.840  19.078   0.265  0.0545 -0.2060 -0.0427
    1W        W34464  27.301   0.052   2.571  0.0380 -0.0799 -0.2820
    1W        W34465  13.088  22.615   7.505 -0.0366 -0.0594  0.1971
    1W        W34466  23.754  19.313   8.370  0.1568 -0.1134 -0.5645
    1W        W34467   5.046  17.229   7.999 -0.2072 -0.0608  0.2301
    1W        W34468   0.399  24.010   7.547  0.0053  0.1748 -0.0993
    1W        W34469   1.180   1.776   7.937 -0.3945  0.1206  0.2007
    1W        W34470   2.097   9.994   8.061 -0.1033 -0.1835 -0.1249
    1W        W34471   8.134   5.948   8.630 -0.1086  0.1460 -0.1009
    1W        W34472   1.027  27.596   2.471  0.0998 -0.1453  0.0301
    1W        W34473   6.145  21.705   6.855  0.2896 -0.0363  0.0001
    1W        W34474  24.716  16.443   6.503  0.2476  0.0595 -0.2273
    1W        W34475   0.422   7.721   0.585 -0.0441  0.3274 -0.1234
    1W        W34476  27.292  12.839   8.505  0.0841 -0.5095  0.1074
    1W        W34477   8.667   9.199   8.035 -0.2359 -0.0742  0.0142
    1W        W34478   6.198  17.589   7.896  0.0609 -0.2591 -0.0747
    1W        W34479  18.759  18.766   1.274  0.1216  0.1803  0.2360
    1W        W34480  21.959  21.606   8.786 -0.2752 -0.0998 -0.0935
    1W        W34481   8.937  13.610   2.425  0.2430 -0.0167 -0.3286
    1W        W34482  14.123  15.403   7.967  0.0428  0.1386  0.2814
    1W        W34483  23.541  16.060   9.626 -0.1078  0.2547  0.0435
    1W        W34484  28.313  19.130   8.076  0.3593 -0.1008 -0.2360
    1W        W34485   8.729  22.523   8.491  0.0281 -0.0946 -0.0006
    1W        W34486   9.429  23.615   6.806  0.1579 -0.1855  0.1267
    1W        W34487   4.057   8.096   0.839  0.1097  0.0061  0.2142
    1W        W34488   5.139   3.067   2.448 -0.3122 -0.1281  0.1208
    1W        W34489   3.348   1.780   3.285  0.2423 -0.0551  0.1005
    1W        W34490   8.022   3.482   9.506  0.1265 -0.1472 -0.1494
    1W        W34491   5.639  26.813   0.735 -0.3944 -0.1135 -0.0716
    1W        W34492   7.000  25.332   2.939 -0.3917 -0.0927  0.0761
    1W        W34493  14.910  20.608   0.949  0.3468 -0.0798  0.1056
    1W        W34494  20.510   3.905   7.499  0.2800 -0.0329  0.0545
    1W        W34495  25.174   0.645   7.484 -0.1541  0.0908  0.0575
    1W        W34496  17.958  14.477   8.003 -0.4066 -0.1970  0.1335
    1W        W34497   5.410  22.463   9.207 -0.0360  0.0462 -0.2421
    1W        W34498   7.240  22.704   6.715  0.1556  0.0328 -0.0390
    1W        W34499  23.750   5.093   9.403 -0.1382  0.0680 -0.2371
    1W        W34500   0.658   6.515   2.550  0.0775  0.0204  0.1441
    1W        W34501  21.766   6.656   7.805 -0.0110 -0.0463 -0.1748
    1W        W34502  15.629  14.357   9.484 -0.1419 -0.1073  0.1730
    1W        W34503   2.355  16.453   7.991 -0.1799 -0.5836  0.0226
    1W        W34504  20.067   6.479   8.677 -0.2106 -0.1558 -0.1642
    1W        W34505   2.604   1.371   9.683  0.4762 -0.2755 -0.1411
    1W        W34506  19.712  26.092   0.941  0.2763 -0.0519  0.0627
    1W        W34507  13.422  17.042   1.699  0.0472 -0.1754 -0.1696
    1W        W34508  16.662   6.977   2.049 -0.1023 -0.0255 -0.3202
    1W        W34509  23.178  27.898   9.357  0.1652 -0.0892 -0.1779
    1W        W34510  21.721   2.355   2.337  0.0364  0.0216  0.1521
    1W        W34511   3.440  21.935   1.443  0.1093 -0.0635 -0.1717
    1W        W34512  10.548   4.947   1.349 -0.0217  0.0870 -0.1434
    1W        W34513   8.247  16.518   7.918 -0.1493 -0.1654 -0.0099
    1W        W34514  17.034  24.488   7.900  0.2319  0.0470  0.0362
    1W        W34515   1.361  25.868   2.857  0.1542 -0.1502  0.1919
    1W        W34516  13.540  21.060   8.116 -0.1855 -0.1953 -0.1475
    1W        W34517  26.461   9.248   7.768 -0.2853 -0.1254  0.0975
    1W        W34518  22.251  14.842   0.911  0.2830 -0.1206 -0.1879
    1W        W34519   9.415  18.919   7.856  0.0484  0.0882 -0.1104
    1W        W34520  15.496  10.447   0.455  0.1047  0.0241 -0.1036
    1W        W34521  10.069   4.142   3.251 -0.0400  0.0388 -0.0312
    1W        W34522   3.907   7.910   7.749  0.1690  0.0666  0.0763
    1W        W34523  14.740  25.118   8.024  0.0379 -0.1908  0.1934
    1W        W34524  26.243  27.881   2.143  0.1279  0.1249 -0.0597
    1W        W34525  10.751  16.516   0.111  0.1187  0.3490 -0.0796
    1W        W34526  20.593  17.438   7.418 -0.0768  0.1861  0.0687
    1W        W34527  18.942   7.656   2.428  0.2131  0.0496 -0.2327
    1W        W34528  23.654  27.050   3.421 -0.2531 -0.2090  0.2165
    1W        W34529  14.534  26.665   2.480 -0.0461 -0.1509 -0.0672
    1W        W34530   5.537  13.494   6.515 -0.0405 -0.0657  0.2380
    1W        W34531   9.219  22.192   1.150  0.2502  0.1405 -0.2288
    1W        W34532  10.175  24.741   0.559 -0.0090 -0.2783  0.3106
    1W        W34533  11.925   7.028   1.043 -0.2428 -0.0200 -0.2300
    1W        W34534  16.899   6.117   1.050 -0.0496  0.1245  0.1398
    1W        W34535  14.918   4.456   2.565 -0.0611  0.4223 -0.3231
    1W        W34536   1.167  15.202   7.050  0.0666 -0.0442  0.0267
    1W        W34537  16.070  24.982   0.443  0.1783 -0.1403  0.0442
    1W        W34538   4.248  17.908   1.034 -0.0564  0.0437  0.0611
    1W        W34539   1.504   1.574   2.211  0.2039 -0.4232  0.0160
    1W        W34540  26.278   3.214   2.857  0.1833  0.1435  0.1073
    1W        W34541  24.060  22.169   9.027  0.5011  0.1452  0.0572
    1W        W34542  22.854   4.241   6.586 -0.0149 -0.1263  0.0758
    1W        W34543  19.729   0.908   3.177  0.1958  0.1632 -0.2138
    1W        W34544  21.827  14.820   1.941  0.1064  0.2153 -0.0308
    1W        W34545   0.149   2.950   8.400  0.2930  0.1335 -0.2430
    1W        W34546  26.950   2.924   8.353 -0.0326 -0.1599 -0.1405
    1W        W34547  19.126  19.681   1.060 -0.1174  0.0719 -0.1806
    1W        W34548  22.536  28.605   0.291  0.1953  0.1187  0.0109
    1W        W34549  18.181  25.740   3.333 -0.0759 -0.0102  0.1022
    1W        W34550  27.664   0.055   7.522  0.0837  0.2944 -0.0304
    1W        W34551   6.231   1.995   3.538  0.0020  0.1472  0.2140
    1W        W34552   2.133   5.241   2.747  0.0643  0.0514 -0.1412
    1W        W34553   7.697  24.912   9.643 -0.0924  0.4969  0.0629
    1W        W34554   1.485  21.116   7.737  0.0410  0.0635  0.1469
    1W        W34555  27.602  17.632   5.834  0.0673 -0.2141  0.0142
    1W        W34556  20.487   6.885   4.054 -0.1770  0.2765 -0.1729
    1W        W34557   1.712  25.810   0.283  0.4535  0.2820  0.2495
    1W        W34558  15.738   4.387   9.304 -0.3665  0.1690 -0.2099
    1W        W34559   3.945  26.333   7.472 -0.0277  0.2570 -0.3086
    1W        W34560  12.002  26.021   1.286  0.0986  0.2877  0.1599
    1W        W34561   5.735   3.586   6.480 -0.0828 -0.2317  0.2359
    1W        W34562   4.851  27.149   8.141 -0.5004  0.1248 -0.3493
    1W        W34563  21.870  25.116   8.019  0.1012 -0.3977  0.3086
    1W        W34564  16.534  16.669   8.394  0.3960  0.5240 -0.0395
    1W        W34565  24.364  14.120   6.736  0.1474  0.2841 -0.0941
    1W        W34566   0.191  21.575   7.284  0.0227  0.1342  0.4814
    1W        W34567   1.156   5.089   3.026  0.2683 -0.1795 -0.1976
    1W        W34568  18.198  13.722   8.128 -0.1398 -0.0269  0.1336
    1W        W34569  18.882  17.635   0.177  0.2925 -0.0642 -0.0549
    1W        W34570  10.786   6.554   0.239 -0.0139 -0.2844  0.1090
    1W        W34571   2.940   1.614   6.965  0.1873  0.3762 -0.1463
    1W        W34572   7.942   5.749   1.705  0.0262  0.2267 -0.2449
    1W        W34573  27.188   2.324   1.026  0.0430  0.1137  0.1431
    1W        W34574  23.060  20.201   7.933  0.0497  0.0897  0.0621
    1W        W34575  22.629  24.609   9.028 -0.2906 -0.2129 -0.1014
    1W        W34576  11.039  19.353   1.647 -0.0775  0.2868  0.0896
    1W        W34577  17.895  12.862   8.014  0.2912  0.2665 -0.1274
    1W        W34578   8.494   0.227   2.278  0.1921  0.0900 -0.2178
    1W        W34579   7.586  17.288   1.341 -0.2185  0.1762  0.0879
    1W        W34580   4.417  26.048   8.149 -0.0005  0.1391 -0.1815
    1W        W34581   7.391  28.215   1.734 -0.3781 -0.1654  0.1679
    1W        W34582   4.660  12.431   8.912  0.2073 -0.1865  0.0235
    1W        W34583   7.984   5.371   6.629 -0.4301 -0.3484  0.1788
    1W        W34584  10.967   3.940   8.618  0.3145  0.0647  0.3230
    1W        W34585   8.379   6.793   0.055  0.1254  0.4029 -0.2746
    1W        W34586   4.522  20.144   8.072  0.1497 -0.1470  0.0938
    1W        W34587  15.680  24.582   1.892  0.1842  0.2585  0.0220
    1W        W34588  27.453  19.735   2.575  0.0328 -0.0435 -0.0547
    1W        W34589   9.330  26.639   0.428 -0.0084 -0.1353  0.1806
    1W        W34590   5.181  26.809   2.484  0.1499  0.1041  0.0152
    1W        W34591   5.710  12.699   1.620  0.0316  0.1774 -0.1065
    1W        W34592  26.893  12.198   9.237 -0.1404  0.0699  0.2793
    1W        W34593  22.562  12.967   0.133  0.2335  0.0475 -0.1085
    1W        W34594   9.569  19.295   0.936  0.2201  0.0210  0.0982
    1W        W34595   2.329  28.184   8.922  0.1966 -0.3569  0.0365
    1W        W34596   7.664   2.029   0.368 -0.2619  0.2523  0.0036
    1W        W34597  24.789  15.475   1.995 -0.3098  0.0858  0.3497
    1W        W34598   8.247  27.162   9.841  0.2820  0.0389 -0.1383
    1W        W34599   0.974   9.232   6.628  0.1320 -0.1043  0.0682
    1W        W34600   1.428   5.424   8.573 -0.0692 -0.0453 -0.1353
    1W        W34601  18.763  24.947   3.155  0.1753 -0.1638  0.2175
    1W        W34602  12.134   8.603   0.605 -0.0907  0.0443  0.2749
    1W        W34603   3.395  27.422   8.198  0.2478  0.0595  0.2247
    1W        W34604   9.072  26.374   2.113 -0.0746 -0.0634  0.0766
    1W        W34605  27.182  18.864   2.539  0.0485 -0.0278  0.0557
    1W        W34606  20.890   3.520   8.889 -0.0638 -0.0467 -0.1294
    1W        W34607  15.580   9.237   8.788 -0.1504  0.0316 -0.0273
    1W        W34608  11.602  11.282   2.757  0.2946 -0.2211  0.0681
    1W        W34609  20.467   0.731   1.576 -0.0721 -0.2977  0.1716
    1W        W34610   2.015   4.312   8.552 -0.1071  0.1536 -0.0848
    1W        W34611   5.059   7.108   1.977 -0.0437 -0.1093 -0.1550
    1W        W34612  26.016  17.273   8.443  0.0003  0.0446  0.0789
    1W        W34613   4.116  11.916   0.779 -0.1751  0.2255  0.2095
    1W        W34614  12.374   2.308   8.322  0.0543  0.0413 -0.1162
    1W        W34615  26.654  11.879   6.336  0.0929  0.1089  0.0756
    1W        W34616  18.314   1.753   1.748 -0.1104  0.2050 -0.1408
    1W        W34617  17.802   3.710   2.266 -0.1413 -0.2549  0.0572
    1W        W34618   8.586  17.362   0.669 -0.1624 -0.1018  0.1759
    1W        W34619  21.198  26.888   9.773  0.1308 -0.1221  0.1915
    1W        W34620   2.939  13.375   1.588  0.0874  0.2483  0.1331
    1W        W34621  20.378  12.334   8.620  0.0028  0.0795 -0.0188
    1W        W34622  20.820  26.358   2.559  0.0017 -0.0682 -0.1229
    1W        W34623   4.151  24.235   1.436  0.0956  0.2525 -0.0413
    1W        W34624  14.106   8.571   1.818 -0.0602  0.1870 -0.1747
    1W        W34625  20.242  24.396   6.680 -0.0642 -0.1986 -0.1207
    1W        W34626  20.023   6.888   2.743 -0.0427 -0.5354 -0.0345
    1W        W34627  25.357  23.142   1.468  0.0756  0.1945  0.3713
    1W        W34628   4.191  22.334   7.091  0.0620 -0.1461  0.1898
    1W        W34629   5.114  13.984   2.243  0.1401 -0.1422 -0.1946
    1W        W34630  28.136  15.226   6.628 -0.5796  0.0714 -0.2955
    1W        W34631  27.259   4.021   8.546  0.1098 -0.1157 -0.1385
    1W        W34632   1.623   2.091   1.757  0.0598  0.0718 -0.0711
    1W        W34633   4.049   0.655   9.538 -0.0073  0.1085  0.0137
    1W        W34634   2.581   2.839   9.076  0.0308  0.0249 -0.0258
    1W        W34635  14.251  21.710   9.452 -0.4223 -0.2641 -0.0593
    1W        W34636  15.375   1.295   0.576 -0.0981  0.0944 -0.3250
    1W        W34637   9.149   6.706   2.769  0.2940  0.0774 -0.1469
    1W        W34638  23.690   8.103   2.614  0.0844  0.0850 -0.0318
    1W        W34639  22.986   0.304   7.196 -0.2952 -0.1961  0.0819
    1W        W34640  19.734  17.872   2.671  0.1742  0.0818  0.1669
    1W        W34641  15.851  22.821   9.397  0.1496 -0.0264 -0.0828
    1W        W34642   5.473  17.790   0.780 -0.0603 -0.0463 -0.0025
    1W        W34643  18.084  17.895   9.138  0.0649 -0.1653  0.0187
    1W        W34644   9.753   7.810   9.380  0.2253 -0.2231 -0.2945
    1W        W34645  11.363   0.703   3.342 -0.1076 -0.0994  0.1413
    1W        W34646   2.674   6.419   0.660 -0.3932 -0.2645 -0.2145
    1W        W34647  28.202   9.964   2.570 -0.0792  0.1358  0.1359
    1W        W34648  18.522  13.127   2.264 -0.1611  0.3373 -0.2271
    1W        W34649  15.624   1.710   0.502 -0.3862  0.0858 -0.1169
    1W        W34650   1.879  26.765   8.689  0.0191  0.2201 -0.1989
    1W        W34651   2.868  19.792   7.790 -0.2517 -0.1243  0.0735
    1W        W34652  10.530   6.914   2.325 -0.1445  0.1096  0.0705
    1W        W34653  19.912   2.189   7.533 -0.0422  0.0978  0.0862
    1W        W34654  15.588  22.202   0.435  0.0970  0.0741 -0.0846
    1W        W34655  21.227   5.133   8.997 -0.0300 -0.0159  0.4730
    1W        W34656  23.797  22.576   1.767  0.2176 -0.1662 -0.2904
    1W        W34657  25.945  10.163   6.414 -0.0773 -0.1843  0.1743
    1W        W34658  14.092  24.479   0.406  0.1981 -0.4427 -0.0727
    1W        W34659   2.048  24.291   7.393 -0.0263 -0.0310  0.0036
    1W        W34660   1.400  12.536   6.881  0.3415  0.3181  0.0228
    1W        W34661   5.799  25.779   7.654  0.0160 -0.0930 -0.0757
    1W        W34662  13.394  10.371   8.655 -0.0994  0.1973 -0.0326
    1W        W34663  25.511  17.296   8.553 -0.0565 -0.1181  0.3044
    1W        W34664  20.599  22.106   9.755 -0.2493 -0.1502 -0.1233
    1W        W34665   3.852  21.008   7.206 -0.0275  0.2149  0.0835
    1W        W34666  28.028  14.158   9.461 -0.0472 -0.2094 -0.1460
    1W        W34667  13.749  25.443   2.656  0.0163 -0.0103  0.2197
    1W        W34668   4.702  25.944   2.421 -0.1242 -0.2168  0.1585
    1W        W34669  10.133  19.178   8.973 -0.1165 -0.4251 -0.1731
    1W        W34670  18.080  26.545   8.161  0.0064  0.1118  0.0294
    1W        W34671   1.624  27.028   2.155  0.0091  0.3449  0.2802
    1W        W34672  22.451   8.133   7.785  0.1552  0.2104 -0.2510
    1W        W34673  22.154  11.729   2.418  0.1012 -0.0198 -0.2489
    1W        W34674   4.672  23.494   1.403 -0.1054 -0.1295 -0.0229
    1W        W34675  19.475   8.905   1.931  0.1280 -0.2073 -0.0210
    1W        W34676   9.182   9.313   7.240 -0.1529  0.1844  0.1153
    1W        W34677  27.545   3.594   8.757 -0.2408 -0.2505  0.0292
    1W        W34678  26.110  11.320   0.959  0.2221 -0.0006 -0.0984
    1W        W34679  22.309  16.900   6.803  0.0351 -0.1175 -0.1184
    1W        W34680  26.436  21.358   1.738  0.1961 -0.1888  0.0406
    1W        W34681  14.576   5.890   8.620 -0.0496 -0.2457 -0.1226
    1W        W34682  17.179  12.653   1.880 -0.1991  0.3748  0.0524
    1W        W34683  18.251  21.995   7.731  0.0718  0.0089 -0.1634
    1W        W34684   4.586  19.375   0.927 -0.1219  0.0907 -0.1004
    1W        W34685  14.166  10.928   0.915  0.3339  0.1977  0.0282
    1W        W34686  22.074   5.045   2.483  0.0841 -0.0420 -0.3369
    1W        W34687  10.544  10.220   9.898 -0.0036 -0.3684 -0.1463
    1W        W34688  25.102  19.076   9.908  0.0449  0.2098  0.0363
    1W        W34689   6.731  13.461   9.696 -0.1321  0.0904 -0.0721
    1W        W34690  24.621   7.464   1.570 -0.2131  0.0390 -0.3614
    1W        W34691   3.254   6.247   8.352 -0.0281 -0.0741  0.2568
    1W        W34692  15.786  22.026   0.859 -0.2623  0.3980  0.1930
    1W        W34693  25.019   7.785   0.621  0.0236  0.1604  0.1062
    1W        W34694   3.066   5.869   8.078 -0.1476  0.0035  0.0398
    1W        W34695  20.338   2.916   1.607 -0.0057 -0.2321  0.3041
    1W        W34696   6.966   6.926   1.677  0.2458  0.2452 -0.0982
    1W        W34697   3.553   5.021   0.030 -0.0631  0.3763 -0.1147
    1W        W34698  13.905   7.508   2.360  0.4748 -0.0406 -0.0360
    1W        W34699  12.399   7.090   0.824  0.0036  0.1204  0.1104
    1W        W34700  26.217  21.103   6.559 -0.1469  0.3238  0.0869
    1W        W34701  16.694  27.039   3.231  0.1106  0.0454  0.1178
    1W        W34702  26.587  10.212   9.606 -0.2111  0.2565  0.1464
    1W        W34703  18.137  18.691   0.930 -0.2486 -0.1353 -0.0148
    1W        W34704  11.044  11.667   2.748 -0.0014 -0.3145  0.0388
    1W        W34705  12.771  27.173   0.843 -0.0134 -0.0128 -0.1200
    1W        W34706   6.974  16.043   7.247  0.2673 -0.2989 -0.2187
    1W        W34707  22.516  25.149   2.323 -0.1788  0.2714 -0.2880
    1W        W34708  12.727   5.580   3.799  0.0425 -0.0651  0.0701
    1W        W34709  21.501  21.936   9.553 -0.1141 -0.2493  0.0838
    1W        W34710   6.874   1.739   8.877 -0.0370 -0.2456  0.2894
    1W        W34711  17.567   4.909   2.340  0.6249  0.0641  0.1439
    1W        W34712  15.322   7.953   3.506 -0.0241 -0.2965 -0.0991
    1W        W34713  24.626  26.457   8.437  0.4547 -0.1765 -0.0666
    1W        W34714   8.659  23.428   0.418  0.0713 -0.0629  0.0310
    1W        W34715  21.731   9.646   2.168 -0.1176 -0.1235 -0.0518
    1W        W34716   7.601   8.325   2.375  0.0269 -0.0542  0.1085
    1W        W34717  23.736   2.939   8.966  0.0562 -0.3136  0.1094
    1W        W34718  19.701  25.144   1.086  0.2631 -0.2025  0.0955
    1W        W34719  22.995   1.536   9.047 -0.3303  0.1917 -0.0148
    1W        W34720  21.379  16.642   0.842  0.2288  0.2633 -0.0617
    1W        W34721  25.000  18.408   8.200  0.0467  0.2170 -0.1642
    1W        W34722  22.839  16.338   1.827 -0.3218  0.1030  0.3066
    1W        W34723  26.701   1.382   7.013 -0.2926  0.2661 -0.1360
    1W        W34724  15.465  20.285   1.741  0.0909  0.1363  0.1557
    1W        W34725  22.280  22.334   6.973 -0.2909 -0.3678  0.0255
    1W        W34726  27.378   5.495   9.581 -0.4643  0.0557 -0.1266
    1W        W34727  19.349   8.415   1.890 -0.0261 -0.0527  0.0217
    1W        W34728  10.069   8.464   0.713 -0.0285 -0.1211 -0.0563
    1W        W34729  20.129   2.522   2.566 -0.0789  0.1963  0.3843
    1W        W34730  17.157   8.346   8.410  0.1526  0.0979  0.0206
    1W        W34731   9.493   1.947   0.370 -0.0270  0.0206  0.0171
    1W        W34732  17.831  23.122   9.901  0.0495 -0.0315  0.1279
    1W        W34733  10.645  15.663   9.761  0.0126  0.0687 -0.1117
    1W        W34734  26.234  15.381   1.917  0.1008 -0.0077  0.0572
    1W        W34735  15.729   7.041   7.848 -0.2549 -0.2151  0.0138
    1W        W34736  15.321  11.099   9.765 -0.0291  0.0226 -0.1614
    1W        W34737  26.644   9.491   2.669 -0.0835 -0.0421 -0.0335
    1W        W34738  19.351   7.434   3.332 -0.1071 -0.2179 -0.1288
    1W        W34739  24.762   3.226   6.582 -0.0682 -0.0403 -0.1304
    1W        W34740  14.226  18.138   0.476  0.1084  0.0267  0.0511
    1W        W34741  27.836  28.444   7.872 -0.1780 -0.2631 -0.1691
    1W        W34742  24.763  10.061   8.724 -0.1599  0.2866  0.0470
    1W        W34743  13.998  26.774   1.227 -0.0344 -0.0397  0.2173
    1W        W34744   0.786  10.781   1.626  0.2420 -0.2558  0.0053
    1W        W34745  15.481  15.220   1.113  0.0276 -0.1561 -0.0501
    1W        W34746   3.279  15.555   1.551 -0.0419 -0.0305 -0.2080
    1W        W34747   4.930   1.446   0.807 -0.2232 -0.0887  0.0351
    1W        W34748   8.545  15.853   7.400  0.2729  0.2624 -0.0382
    1W        W34749  14.161  23.138   2.810 -0.1076  0.0508  0.1476
    1W        W34750  18.220  26.703   7.172 -0.2350  0.1780 -0.0566
    1W        W34751   2.788   7.149   0.627  0.1424  0.2073 -0.2961
    1W        W34752  10.425   4.244   0.625 -0.3380 -0.1346  0.1564
    1W        W34753   4.782  10.365   9.707  0.0736  0.3964 -0.1705
    1W        W34754  25.616   9.100   9.359  0.0121 -0.2633 -0.1102
    1W        W34755   3.005  22.246   6.974 -0.0326  0.0362  0.0602
    1W        W34756  16.819  11.431   1.692 -0.0078  0.4854  0.0689
    1W        W34757  22.037  23.377   0.065  0.3541  0.1427  0.0690
    1W        W34758  26.981  25.422   7.204  0.4694  0.3761  0.1334
    1W        W34759  23.104  19.414   9.846 -0.0838 -0.0368 -0.3364
    1W        W34760  19.622  20.299   0.699  0.1219 -0.0987  0.2428
    1W        W34761  15.448  12.121   7.998  0.2082 -0.0313  0.0399
    1W        W34762  27.068  11.321   9.698 -0.2615 -0.0222 -0.2364
    1W        W34763   8.777  12.975   0.420 -0.3097 -0.3317  0.0758
    1W        W34764   2.084  20.608   1.493  0.2027 -0.0009  0.1066
    1W        W34765  20.778   7.140   8.504 -0.0605 -0.1945 -0.0634
    1W        W34766   3.561  12.360   6.836 -0.0483 -0.1645 -0.0314
    1W        W34767  12.914  23.016   9.697  0.1629  0.0690  0.2134
    1W        W34768   3.380  17.639   2.908 -0.3193  0.1896 -0.0630
    1W        W34769   9.720  25.605   1.257  0.3159  0.0347 -0.0597
    1W        W34770   7.295  16.447   8.528 -0.1221  0.2672  0.1108
    1W        W34771   5.305  18.723   1.022  0.1512  0.1534  0.1626
    1W        W34772  19.438  26.586   3.287 -0.0568 -0.1006 -0.0935
    1W        W34773  18.131   0.406   8.814  0.0743  0.1836 -0.2946
    1W        W34774  21.827   0.686   6.138 -0.0598 -0.0646  0.0787
    1W        W34775  28.037  24.051   2.309  0.4257  0.1307  0.1136
    1W        W34776  21.536  24.373   1.224 -0.2351  0.1639  0.3098
    1W        W34777   3.017  24.886   1.905 -0.1366 -0.0340 -0.1243
    1W        W34778  12.003  18.803   3.075 -0.1985  0.0634 -0.1850
    1W        W34779   4.723  21.263   6.512  0.0386 -0.3886 -0.0683
    1W        W34780  22.560  22.026   7.689  0.0932 -0.1350 -0.2581
    1W        W34781   3.312  18.259   8.630 -0.2280  0.0723  0.0240
    1W        W34782   7.363   5.706   8.136 -0.4402 -0.1968 -0.1243
    1W        W34783  27.265  27.694   2.633  0.3663 -0.2089  0.4986
    1W        W34784   8.237   9.987   1.412 -0.2291  0.2820  0.0815
    1W        W34785  17.723   2.392   8.492 -0.4106  0.1798 -0.0888
    1W        W34786  26.555  24.652   0.838 -0.1662  0.2311  0.1666
    1W        W34787  19.993  23.852   1.005  0.0394  0.0596  0.0540
    1W        W34788   3.695  19.538   6.059 -0.1007  0.0125 -0.1256
    1W        W34789   9.616  28.389   1.701 -0.0778  0.0042  0.0945
    1W        W34790   5.930   9.713   8.055  0.1334 -0.2095 -0.1221
    1W        W34791   8.430   0.974   0.767 -0.1032 -0.1544 -0.1545
    1W        W34792   4.635   0.493   7.688  0.3155 -0.1798  0.1819
    1W        W34793   4.248   4.825   9.035  0.1249 -0.0878 -0.1701
    1W        W34794   3.755   1.687   7.214 -0.0741 -0.2317 -0.0541
    1W        W34795  24.369  11.921   2.181  0.0822  0.0841 -0.1419
    1W        W34796   8.911   1.484   9.102 -0.0455 -0.0589  0.0606
    1W        W34797   0.667  19.075   9.936  0.0306  0.0424 -0.3037
    1W        W34798  28.453  18.303   6.582  0.0838 -0.0295 -0.1346
    1W        W34799   4.301  12.107   1.857 -0.0323 -0.1196  0.4881
    1W        W34800   3.358  14.225   1.784 -0.2467 -0.2565  0.4096
    1W        W34801  22.937  14.308   6.276  0.2453  0.1012 -0.1640
    1W        W34802  22.341   8.691   1.343 -0.1852 -0.1575 -0.2075
    1W        W34803  21.022   8.993   1.915  0.0308 -0.0546 -0.1234
    1W        W34804  25.153  16.747   2.027  0.0814  0.2476 -0.0701
    1W        W34805  16.249  23.694   0.892 -0.2560  0.0997 -0.0721
    1W        W34806  24.999   5.273   2.661  0.1785 -0.1017  0.1266
    1W        W34807   1.691  14.222   0.669 -0.1986  0.3709 -0.0106
    1W        W34808   3.025  12.191   6.572 -0.0089 -0.0700 -0.0719
    1W        W34809  13.005  28.320   2.102  0.0245 -0.0983 -0.6836
    1W        W34810   1.803  24.861   8.052 -0.1151  0.1366  0.1974
    1W        W34811  28.671   8.465   2.550  0.1493 -0.0547  0.0698
    1W        W34812  25.490   4.277   1.091 -0.3384  0.1584 -0.4457
    1W        W34813   5.445  23.113   6.690 -0.1824  0.3341 -0.2898
    1W        W34814  22.685   4.577   6.957  0.1072  0.0111  0.1782
    1W        W34815  24.211  17.347   6.720 -0.1615  0.1730  0.1612
    1W        W34816   9.569  12.179   9.524  0.0167 -0.1111  0.2957
    1W        W34817   8.066  19.412   1.171 -0.0955 -0.1964 -0.1350
    1W        W34818  16.554  10.971   9.890  0.1325  0.0636 -0.0798
    1W        W34819   4.939  22.339   5.658  0.1864 -0.2202  0.0509
    1W        W34820  22.943  19.321   1.435 -0.1954  0.2053 -0.0737
    1W        W34821   6.711  21.907   6.266 -0.1516 -0.2972  0.1019
    1W        W34822  11.572  12.659   0.455 -0.1429  0.2567 -0.0999
    1W        W34823   5.740  21.659   7.490  0.0667 -0.2219  0.3212
    1W        W34824  13.050   0.061   1.876  0.3324 -0.0881 -0.2632
    1W        W34825   0.324  22.920   9.789 -0.0724 -0.1428  0.0037
    1W        W34826  17.816  22.335   6.592 -0.0622  0.0635 -0.2424
    1W        W34827  22.357   6.297   6.763  0.1772  0.0350 -0.1310
    1W        W34828  19.007  14.032   1.096 -0.0875 -0.1422 -0.1929
    1W        W34829  10.369  23.702   5.750  0.0010  0.0871 -0.1066
    1W        W34830   3.066  21.247   8.503 -0.0938 -0.0993 -0.1487
    1W        W34831  15.601  20.118   9.395  0.2344  0.3363 -0.0439
    1W        W34832  17.008  21.243   8.811 -0.2724  0.3238 -0.1921
    1W        W34833   7.996  15.499   9.893 -0.3279 -0.2161 -0.1437
    1W        W34834  27.217  24.986   1.461 -0.0627  0.1872 -0.2468
    1W        W34835  12.226  27.630   6.894 -0.0601  0.1175  0.0490
    1W        W34836  20.895   4.756   9.203  0.4509  0.0269 -0.1672
    1W        W34837  26.212  17.249   9.822  0.1692 -0.1566 -0.1038
    1W        W34838  26.136  23.377   0.814 -0.4431 -0.0600 -0.1924
    1W        W34839   9.103   2.967   7.611 -0.0605 -0.3231 -0.3275
    1W        W34840  10.869  18.950   1.900  0.1000 -0.0063 -0.2712
    1W        W34841   0.757  19.540   1.659 -0.3419 -0.1576  0.1693
    1W        W34842  22.762  22.661   9.314 -0.1692  0.0678 -0.0935
    1W        W34843  25.326  13.795   7.781 -0.0186  0.1999 -0.2017
    1W        W34844  13.247   6.117   1.848 -0.1840  0.1337 -0.0767
    1W        W34845   8.765  15.865   8.291  0.1560 -0.2470  0.1295
    1W        W34846  14.376   0.753   1.783 -0.0952  0.2001  0.4342
    1W        W34847   4.132   9.374   6.829 -0.1533  0.0744  0.1018
    1W        W34848  17.000  18.453   2.637  0.2853  0.0007  0.4473
    1W        W34849  13.943  16.495   1.502 -0.0863 -0.0386 -0.0236
    1W        W34850  26.894   8.887   8.726  0.1627 -0.1393  0.1831
    1W        W34851  22.167   4.457   1.270 -0.0429 -0.0295  0.3519
    1W        W34852   8.899  14.825   1.756 -0.0148 -0.2481 -0.2127
    1W        W34853  17.826  14.549   6.927 -0.2471  0.3838 -0.0903
    1W        W34854  25.255  10.407   0.015 -0.0187 -0.1280 -0.2097
    1W        W34855  24.359   0.830   1.325 -0.2063  0.1855 -0.2444
    1W        W34856   6.851  11.264   2.427  0.0540 -0.0614  0.0209
    1W        W34857  10.114  28.588   1.976  0.1173 -0.1946 -0.0288
    1W        W34858  24.195   4.108   1.544  0.1651 -0.0858 -0.0199
    1W        W34859  28.279  20.750   1.903 -0.0680  0.1806  0.2502
    1W        W34860   9.216   7.704   1.665 -0.0958 -0.0480  0.3264
    1W        W34861  17.612  25.324   3.452 -0.3478 -0.1520 -0.0166
    1W        W34862   5.021  18.238   7.758 -0.2679 -0.4685  0.3034
    1W        W34863  13.958  16.827   0.004 -0.1036  0.2213  0.1216
    1W        W34864  27.310  23.948   9.800  0.0923 -0.2295 -0.2327
    1W        W34865  11.860  25.509   9.714 -0.0775  0.2326  0.0564
    1W        W34866   0.079  25.350   7.250  0.1600 -0.3301 -0.0083
    1W        W34867  15.490  20.550   3.086 -0.3655  0.1423  0.0661
    1W        W34868  26.304  26.009   9.472  0.0275 -0.1159  0.1032
    1W        W34869  18.474   8.295   7.464  0.1745  0.1126 -0.1458
    1W        W34870  14.610  23.734   1.507  0.1158  0.3048  0.1269
    1W        W34871   6.245  13.234   1.331  0.0771 -0.2042  0.2626
    1W        W34872  20.904  13.327   7.847  0.0600 -0.0469 -0.3061
    1W        W34873   9.499   0.814   8.568  0.3200 -0.0384 -0.0093
    1W        W34874   5.702  27.919   8.223  0.0225  0.0226  0.2542
    1W        W34875  15.302  27.023   9.906 -0.2120  0.1202 -0.2897
    1W        W34876  10.810  24.729   8.808  0.1829  0.2284 -0.1933
    1W        W34877  10.311   4.556   1.563  0.1560 -0.3543 -0.0291
    1W        W34878   0.008   9.200   8.603  0.0387  0.0352  0.2691
    1W        W34879  24.520  21.710   6.909  0.1395  0.1081  0.2238
    1W        W34880  16.690  21.074   2.670  0.2740  0.0574 -0.0673
    1W        W34881  12.716   3.073   0.281  0.0250  0.1087  0.0353
    1W        W34882  19.188  19.894   8.507 -0.3590 -0.0276  0.3208
    1W        W34883  26.630   9.968   7.313 -0.1784  0.1012 -0.0687
    1W        W34884  20.494   4.171   7.925  0.0641  0.2613  0.1596
    1W        W34885  26.142  24.269   8.968 -0.3596 -0.2294 -0.0923
    1W        W34886  26.022  15.888   7.375  0.2786  0.0608  0.1357
    1W        W34887  15.118   2.274   8.378  0.1498 -0.3217 -0.0001
    1W        W34888  26.846  17.386   1.169  0.0019  0.2919 -0.1357
    1W        W34889   4.132   8.291   9.763  0.2885 -0.2110 -0.1575
    1W        W34890  20.809  13.208   0.929 -0.0345 -0.0050 -0.0563
    1W        W34891  17.323  18.518   9.275  0.2127 -0.0432 -0.0541
    1W        W34892  24.228  23.416   9.812  0.1903  0.2534  0.1136
    1W        W34893  19.009   1.319   7.830  0.0503  0.1404 -0.2277
    1W        W34894  17.848  16.996   0.701  0.4455 -0.2737  0.1053
    1W        W34895  18.882  26.825   1.235 -0.0402 -0.0963  0.2307
    1W        W34896  25.816   2.533   8.874  0.1948 -0.0709 -0.0253
    1W        W34897  23.296  27.403   3.623 -0.1123  0.2993 -0.0632
    1W        W34898   1.058  20.456   1.726  0.0035  0.1964 -0.0762
    1W        W34899  19.325  11.277   9.175 -0.1790 -0.0462 -0.0712
    1W        W34900  19.590  11.010   2.315 -0.2917 -0.0125  0.1432
    1W        W34901  28.688  15.150   2.836  0.0246  0.0434 -0.1816
    1W        W34902   1.407  25.865   3.346  0.3081  0.2292 -0.0693
    1W        W34903   3.312  15.509   8.768 -0.2861 -0.1199  0.1111
    1W        W34904   4.696   9.525   9.368  0.4337 -0.1988 -0.0318
    1W        W34905  20.800  13.442   0.435 -0.0147 -0.0303  0.0726
    1W        W34906   2.205  22.713   6.623  0.5020  0.1188  0.0506
    1W        W34907  28.250   2.672   2.379  0.0892 -0.6439  0.0292
    1W        W34908  10.613  14.577   0.620 -0.1025  0.1302  0.0484
    1W        W34909  28.670   1.230   9.851  0.1537  0.0043 -0.0868
    1W        W34910   1.330  18.117   6.132 -0.2330  0.0419  0.0199
    1W        W34911  17.238  15.564   8.461 -0.2637 -0.3597  0.2457
    1W        W34912   2.545  22.086   0.982 -0.1803 -0.1535 -0.1442
    1W        W34913  27.102  14.866   8.061  0.1336 -0.2738  0.0525
    1W        W34914  16.498   1.448   3.473 -0.2100 -0.2175 -0.1354
    1W        W34915  25.248  18.949   8.245 -0.0382 -0.0431  0.0805
    1W        W34916  16.954  24.495   3.825  0.0731 -0.0977  0.1577
    1W        W34917  18.232  19.992   1.218 -0.0248 -0.2200 -0.1639
    1W        W34918   7.328   2.121   3.177 -0.3292 -0.1929 -0.0206
    1W        W34919   7.807   6.583   6.584 -0.0156 -0.0879 -0.0692
    1W        W34920   6.621  15.072   7.192  0.0266  0.0696  0.3441
    1W        W34921   3.748  26.715   2.504 -0.2458 -0.0892 -0.0158
    1W        W34922   0.765  14.233   1.978  0.2164  0.2011  0.0713
    1W        W34923  21.568  19.188   8.582  0.1088  0.3941 -0.1465
    1W        W34924  23.317   8.035   6.617  0.0376  0.0796 -0.1765
    1W        W34925  25.560   6.830   7.883 -0.2333  0.2018 -0.0187
    1W        W34926   6.011  24.419   2.038 -0.0038  0.0287 -0.4810
    1W        W34927  14.476  18.536   0.529 -0.0734 -0.2938  0.2889
    1W        W34928   1.747  17.645   0.090  0.3521 -0.0659  0.0719
    1W        W34929  24.571  24.630   7.399  0.1329 -0.0904 -0.1254
    1W        W34930   6.383   9.031   7.505  0.0439  0.0488 -0.1625
    1W        W34931  23.535   7.905   7.086  0.3846  0.2151 -0.0542
    1W        W34932  22.870   6.029   9.065  0.0611  0.0798  0.1891
    1W        W34933   1.325  10.757   5.699 -0.1161  0.1452 -0.0184
    1W        W34934  18.259  27.956   3.069  0.0248  0.0607  0.0349
    1W        W34935  11.908   2.756   7.317  0.0137  0.4728 -0.2431
    1W        W34936   5.033   2.712   9.460 -0.0127 -0.0944 -0.1525
    1W        W34937  21.273  19.335   7.583  0.1641 -0.2958 -0.1799
    1W        W34938  13.401  18.108   1.582  0.1351 -0.0426 -0.0021
    1W        W34939   9.288  26.465   9.361 -0.0532 -0.1761  0.1182
    1W        W34940   8.868   8.009   2.002  0.0053 -0.1411  0.0586
    1W        W34941  26.593  16.331   0.928 -0.2357  0.0504  0.2930
    1W        W34942  21.149  18.474   2.661  0.2792  0.0056  0.0829
    1W        W34943  21.930   8.865   0.213  0.1127 -0.0629  0.2273
    1W        W34944  24.375   1.275   0.367 -0.1681 -0.1185  0.0815
    1W        W34945   3.105  23.118   7.955 -0.3129  0.1622 -0.1772
    1W        W34946  21.845  18.074   2.155 -0.2231  0.0759 -0.3242
    1W        W34947  19.302  19.386   7.327 -0.0210 -0.5172  0.1487
    1W        W34948  28.357  16.082   9.817 -0.2549 -0.2154 -0.0351
    1W        W34949   4.854  11.938   2.777 -0.1731  0.0628  0.0558
    1W        W34950   0.102  14.778   9.806  0.1229  0.1573  0.2273
    1W        W34951   1.087   1.838   1.837 -0.0945  0.1993 -0.0908
    1W        W34952  11.181  27.741   1.408 -0.1418 -0.0498  0.1098
    1W        W34953   5.557   9.473   9.336  0.3331 -0.0501  0.1410
    1W        W34954  20.177  19.754   2.131  0.0725 -0.0817  0.1201
    1W        W34955  11.147  13.309   7.680  0.0167 -0.2959  0.0912
    1W        W34956  12.761   4.033   3.346  0.0571  0.0214 -0.7286
    1W        W34957   3.348   7.672   0.104  0.0325 -0.3421  0.2011
    1W        W34958   6.600   9.402   3.430 -0.0524 -0.2560 -0.1420
    1W        W34959  22.851   0.194   9.854  0.0092  0.2670 -0.4110
    1W        W34960  23.505   0.644   7.791  0.0775  0.2318 -0.2617
    1W        W34961  12.396  13.591   1.395 -0.1302 -0.1521  0.1085
    1W        W34962  12.068  10.168   0.324 -0.1630 -0.4275 -0.1421
    1W        W34963   8.471  11.279   3.631  0.3897  0.3496  0.4398
    1W        W34964  14.746   6.030   0.372 -0.4483  0.0538  0.1086
    1W        W34965  20.784  12.827   9.462  0.0440 -0.1226  0.0653
    1W        W34966   8.056   5.634   9.764  0.4149  0.2167 -0.1619
    1W        W34967   8.705   4.252   8.629 -0.0390  0.2262 -0.0967
    1W        W34968  20.208  10.393   1.941  0.3194 -0.0717  0.2370
    1W        W34969  10.747   5.418   3.553 -0.2366 -0.1854 -0.0844
    1W        W34970  10.838  16.972   6.976  0.1286 -0.3227  0.1842
    1W        W34971   6.727   6.002   2.116 -0.1544  0.1011  0.2098
    1W        W34972   7.218   2.987   3.494  0.0315  0.1795 -0.0266
    1W        W34973   8.866  26.746   1.852  0.0220  0.4279 -0.1097
    1W        W34974  17.343  11.775   0.491  0.0935 -0.1003 -0.0536
    1W        W34975  16.972   0.032   1.743 -0.0728  0.3123 -0.0808
    1W        W34976  19.134  27.425   8.677  0.0680 -0.1530  0.1068
    1W        W34977  24.609   0.543   8.176  0.3655 -0.0907 -0.0470
    1W        W34978   7.053  20.970   7.479  0.1709 -0.0242  0.0125
    1W        W34979   8.067  22.836   1.503 -0.0346 -0.0150  0.1842
    1W        W34980   7.674   7.546   7.551 -0.2467  0.0620  0.1258
    1W        W34981  10.163  16.828   9.054 -0.0730 -0.0486  0.1182
    1W        W34982  16.865  23.194   8.723 -0.1132 -0.0441 -0.1045
    1W        W34983  16.320   1.878   8.010 -0.1826 -0.1240  0.0641
    1W        W34984  18.436  26.616   2.787 -0.2637  0.2373 -0.0378
    1W        W34985  10.197  26.878   8.332 -0.0100 -0.1506  0.0755
    1W        W34986   7.031   2.919   0.927  0.2589 -0.0770  0.0195
    1W        W34987  28.491  12.653   6.165  0.3321 -0.0092 -0.2410
    1W        W34988   5.772   6.890   7.650  0.1018  0.0171  0.0816
    1W        W34989  27.927   9.904   7.012 -0.1600 -0.3402  0.0985
    1W        W34990   1.827   6.534   6.643 -0.1782  0.2416 -0.0619
    1W        W34991  13.124  26.493   9.804 -0.2239  0.1390  0.3359
    1W        W34992  27.580   4.721   1.345  0.0206 -0.2257  0.0419
    1W        W34993  23.736  10.319   7.156 -0.1221 -0.3227 -0.1768
    1W        W34994  20.452  22.045   9.234  0.1419 -0.1411 -0.1656
    1W        W34995  22.514  19.548   6.758 -0.4469  0.2597  0.0366
    1W        W34996  10.590   7.848   2.089  0.1704 -0.1871 -0.1926
    1W        W34997   5.668   7.887   0.781 -0.1974 -0.0292 -0.3088
    1W        W34998  12.252   0.382   7.321  0.0004  0.0890  0.0781
    1W        W34999   8.550  26.517   2.216 -0.0384 -0.0941  0.1182
    1W        W35000   5.863  13.668   6.991  0.2010  0.1361  0.1803
    1W        W35001  20.872  16.975   9.865  0.0896 -0.1295  0.1494
    1W        W35002  15.755   6.122   2.150 -0.0989  0.2792  0.0811
    1W        W35003  13.068  19.608   8.475  0.1264  0.0733 -0.0214
    1W        W35004  24.657   7.127   6.917  0.1031 -0.1133  0.1549
    1W        W35005  16.168   3.670   7.603 -0.1770 -0.3575  0.3828
    1W        W35006  13.029  26.340   3.045  0.1386  0.1066  0.1440
    1W        W35007   4.586  22.768   8.732 -0.2071 -0.4121 -0.1464
    1W        W35008  25.285   8.631   6.071 -0.0594 -0.0041 -0.3698
    1W        W35009  11.307  20.827   8.830  0.0667 -0.2847 -0.0817
    1W        W35010   5.476  19.234   8.380 -0.1479 -0.0913 -0.4487
    1W        W35011   1.031  19.060   6.149 -0.1489 -0.0865  0.0206
    1W        W35012   3.514  27.770   6.852 -0.2489  0.0364 -0.1443
    1W        W35013  24.771   0.934   7.327  0.1602 -0.0494 -0.0655
    1W        W35014   7.560  28.699   9.670  0.0553  0.1498 -0.0028
    1W        W35015  11.445  27.851   2.132 -0.0729  0.3591  0.0027
    1W        W35016  28.082  19.112   6.318 -0.1132 -0.1792 -0.1482
    1W        W35017  16.950   6.810   2.773 -0.0797  0.0900  0.1818
    1W        W35018  26.401   9.924   6.769 -0.0262 -0.3576 -0.0219
    1W        W35019   2.432  18.938   9.312 -0.0891 -0.2729  0.0956
    1W        W35020   8.473  27.518   7.598  0.1661  0.1882  0.1105
    1W        W35021  13.579   4.339   0.590 -0.0987 -0.4182  0.0389
    1W        W35022   7.679  23.794   6.708  0.0610 -0.0165 -0.4227
    1W        W35023   3.688   5.836   2.675  0.3222 -0.0911  0.0848
    1W        W35024   8.296   9.895   2.348  0.0468 -0.1094  0.0553
    1W        W35025   5.318  13.917   7.763 -0.0081 -0.0823 -0.1270
    1W        W35026   4.800  21.520   2.468  0.2322 -0.3357 -0.0694
    1W        W35027  25.881  16.650   0.595  0.1055 -0.0575  0.2062
    1W        W35028   5.500   2.889   7.944 -0.1554 -0.0499  0.1022
    1W        W35029  21.103  11.977   9.464 -0.0786  0.3832  0.0440
    1W        W35030  15.939   8.713   7.368 -0.3440 -0.1315  0.2746
    1W        W35031  21.530   5.260   1.359 -0.1940  0.1859  0.0420
    1W        W35032   1.354  11.595   1.223 -0.0147 -0.0550 -0.1107
    1W        W35033  11.064  12.576   1.755  0.0468  0.0738 -0.0508
    1W        W35034   8.583  24.325   2.552  0.2759  0.1284  0.2239
    1W        W35035  17.275  17.049   7.080 -0.1677 -0.3012 -0.3017
    1W        W35036  12.416   2.250   0.058  0.0054  0.1283  0.1182
    1W        W35037  20.646  15.206   7.908 -0.2767  0.0960 -0.3423
    1W        W35038   1.298  21.612   8.580 -0.1890 -0.1340 -0.4063
    1W        W35039   4.401  28.127   3.223 -0.1790  0.2192  0.0317
    1W        W35040  21.363   7.453   9.607  0.0731  0.1048  0.1780
    1W        W35041  21.613  20.145   7.836 -0.3185 -0.1642  0.1161
    1W        W35042   6.213   9.129   3.629 -0.0072  0.1894  0.3285
    1W        W35043  14.207  20.407   7.318  0.2303  0.0306  0.1387
    1W        W35044  25.990  14.343   8.570  0.3960  0.0111 -0.0709
    1W        W35045   1.926  19.193   8.940 -0.0447 -0.0953  0.2212
    1W        W35046  23.676  18.699   0.198  0.0415 -0.0678  0.0317
    1W        W35047  12.066   2.491   3.500 -0.2798 -0.0117  0.0417
    1W        W35048   4.941  22.364   7.213 -0.0016  0.0627  0.0347
    1W        W35049  20.658   8.505   2.319 -0.1851 -0.1473 -0.1651
    1W        W35050  11.793  10.159   1.454  0.0656  0.2294 -0.3508
    1W        W35051  17.036  11.005   8.975 -0.1713  0.0134 -0.0605
    1W        W35052  28.158   7.718   6.330 -0.2538  0.0691  0.2265
    1W        W35053   7.627  11.579   9.199  0.0801  0.0214 -0.2154
    1W        W35054  16.220  20.673   8.229  0.0814 -0.5338  0.1722
    1W        W35055   7.726  21.164   0.677 -0.1497 -0.2831  0.1287
    1W        W35056   4.044   5.685   7.654 -0.0428  0.1271 -0.0384
    1W        W35057   6.244   1.764   9.702 -0.1353 -0.1343 -0.1402
    1W        W35058   2.992   8.635   0.248 -0.0248  0.0483 -0.1359
    1W        W35059  16.900  17.313   9.158 -0.0162 -0.2000  0.2162
    1W        W35060   9.177   1.057   2.292  0.0050 -0.1952 -0.1888
    1W        W35061  16.154  24.668   2.046 -0.0796  0.1793  0.1089
    1W        W35062  10.259   2.239   0.413  0.2178 -0.0684 -0.0513
    1W        W35063  24.073  15.335   9.431 -0.0692 -0.1700  0.1049
    1W        W35064  19.345  25.415   1.952 -0.0586 -0.0198  0.0980
    1W        W35065  20.919  28.166   8.883  0.1026  0.0937 -0.1483
    1W        W35066   8.911  18.669   7.009 -0.0699 -0.1201  0.1048
    1W        W35067   3.123  23.704   5.959 -0.1763 -0.1906 -0.3914
    1W        W35068  27.145  11.581   6.184 -0.1142 -0.1160  0.0056
    1W        W35069  19.132   9.991   0.321 -0.0590 -0.1087 -0.2525
    1W        W35070   5.885  12.593   0.680 -0.3355  0.0835 -0.0152
    1W        W35071  28.180  27.989   0.821 -0.1982 -0.2936  0.0321
    1W        W35072  21.903  28.529   0.920 -0.0696 -0.0363  0.0256
    1W        W35073  16.340   8.725   7.049  0.3021 -0.2312  0.2049
    1W        W35074  27.932   2.805   7.469 -0.0433 -0.0128 -0.1582
    1W        W35075   0.315   4.419   1.038  0.3169  0.1135  0.2445
    1W        W35076   1.977  24.381   8.286 -0.1138 -0.2794 -0.0083
    1W        W35077  24.304   3.326   7.319 -0.2197  0.1504 -0.1265
    1W        W35078  24.216  24.668   9.721  0.0647 -0.2612 -0.1690
    1W        W35079   9.057  19.893   1.139 -0.2259  0.0268  0.2698
    1W        W35080   4.698  16.029   7.319 -0.3436 -0.0016 -0.2203
    1W        W35081  19.443   2.611   8.706  0.2079  0.4526 -0.1418
    1W        W35082  27.663   6.014   6.288 -0.0577  0.2416 -0.0714
    1W        W35083  20.500  28.300   2.064  0.1795  0.0414 -0.1403
    1W        W35084  17.495   0.368   0.329  0.2351 -0.0025  0.0210
    1W        W35085  21.133   0.417   7.693  0.0636  0.1716  0.0403
    1W        W35086   0.313   3.202   0.410  0.0695 -0.0351 -0.0229
    1W        W35087  26.851  21.479   9.255 -0.3065  0.1351  0.0460
    1W        W35088   8.799  25.585   2.064  0.0358 -0.0339  0.1656
    1W        W35089  26.779  24.543   2.100  0.0243  0.1480 -0.2337
    1W        W35090   4.454   8.507   0.650 -0.2787  0.1244  0.0456
    1W        W35091  18.723  23.067   0.525  0.1285  0.1740  0.2480
    1W        W35092   3.230  16.613   3.035 -0.4359  0.2277  0.0413
    1W        W35093  11.342  20.045   9.696  0.0662 -0.3315 -0.1608
    1W        W35094  14.405  23.361   3.748 -0.0490  0.2551  0.2114
    1W        W35095   1.409   1.842   8.460  0.3270  0.0671 -0.0963
    1W        W35096   4.638  26.470   6.789 -0.1676 -0.1441 -0.0225
    1W        W35097  25.001   3.577   0.151  0.0671  0.0545  0.0104
    1W        W35098  12.795  25.544   8.505  0.0883 -0.3602  0.2962
    1W        W35099   9.965  15.630   8.678  0.0707 -0.2492  0.1185
    1W        W35100  10.963  27.614   9.358 -0.2240 -0.1165 -0.1218
    1W        W35101  14.524   5.412   8.600 -0.2983 -0.1769  0.0619
    1W        W35102  14.747  12.380   2.407  0.1608 -0.2710  0.3007
    1W        W35103   1.079   0.784   0.778  0.1139 -0.2726  0.1524
    1W        W35104  17.764   7.581   7.532 -0.1733  0.2123  0.1994
    1W        W35105   8.785  12.786   7.944 -0.0633 -0.1555  0.2001
    1W        W35106  15.114  16.908   0.213  0.0645  0.1744  0.0067
    1W        W35107  11.087  26.831   9.855  0.1982  0.0777  0.0913
    1W        W35108  20.148  19.261   2.043  0.2254  0.0786 -0.3384
    1W        W35109   3.140  22.092   8.466  0.3116 -0.0562 -0.3411
    1W        W35110   0.903  28.036   2.120  0.1053  0.0079  0.0292
    1W        W35111   0.230   7.501   2.644  0.0261  0.1109  0.0498
    1W        W35112   4.600  12.128   7.620 -0.0474  0.1710  0.1478
    1W        W35113   2.591   5.314   3.526  0.2383 -0.1576  0.3083
    1W        W35114   3.956   1.013   9.879  0.1562  0.2067  0.3752
    1W        W35115   0.058  11.838   0.031 -0.3482 -0.1226 -0.2380
    1W        W35116   7.679   7.629   1.612  0.1531 -0.0884 -0.1386
    1W        W35117   8.219   0.061   1.895  0.5552  0.1575 -0.0955
    1W        W35118  15.778  12.822   8.369  0.3176 -0.0058  0.0681
    1W        W35119  25.690   7.573   1.535  0.1301  0.1230  0.0660
    1W        W35120  13.449  12.548   9.404  0.0140 -0.0473 -0.1221
    1W        W35121  11.310  20.762   2.158 -0.3265 -0.3021 -0.1070
    1W        W35122  21.398  27.465   2.585 -0.3826  0.0886 -0.0893
    1W        W35123  14.943  13.222   1.228 -0.0535 -0.3051  0.0902
    1W        W35124  20.725   8.069   2.560 -0.1839  0.1130 -0.0862
    1W        W35125   2.316  12.914   2.725  0.2541  0.2195 -0.1031
    1W        W35126   4.939   1.013   9.074  0.1802 -0.2588  0.0494
    1W        W35127  14.527  19.841   1.434 -0.1369 -0.3418 -0.1415
    1W        W35128  16.160  16.077   2.942 -0.2882  0.3354  0.2320
    1W        W35129  16.702  23.708   8.923 -0.0203  0.1573 -0.1011
    1W        W35130  15.832  22.922   2.515  0.0594  0.0351 -0.2772
    1W        W35131   7.261   1.135   0.209 -0.1400 -0.1453  0.0990
    1W        W35132  22.468  23.302   7.276 -0.2863 -0.0440 -0.1035
    1W        W35133  26.123  19.754   7.513  0.1767  0.0611 -0.0878
    1W        W35134   1.927   5.462   6.139  0.0832 -0.0703  0.1641
    1W        W35135  20.744   3.364   0.249 -0.0110  0.0314  0.1565
    1W        W35136  19.592  14.065   7.031  0.0471 -0.1601 -0.1181
    1W        W35137  20.803   3.869   1.123 -0.2376 -0.3789 -0.2173
    1W        W35138  20.367  20.795   9.877 -0.2298  0.1612 -0.3486
    1W        W35139   9.058   4.650   9.346  0.2341 -0.0960 -0.1198
    1W        W35140  25.749  22.483   7.360 -0.3071 -0.0548 -0.2160
    1W        W35141  28.378  10.307   6.653 -0.3336 -0.2316  0.1079
    1W        W35142  14.930  14.375   3.127 -0.0056  0.2469  0.1252
    1W        W35143  14.353   5.450   3.877  0.1161  0.1249 -0.1079
    1W        W35144   4.246  22.965   5.947 -0.0135  0.3251 -0.2098
    1W        W35145   1.755   1.396   0.329  0.2501 -0.0464 -0.2216
    1W        W35146  14.428   6.377   8.603 -0.2267  0.1728 -0.1709
    1W        W35147  14.148   0.788   2.794 -0.2529 -0.0008  0.0314
    1W        W35148  11.850  23.446   9.428 -0.3783 -0.2512 -0.3759
    1W        W35149  28.084   5.114   1.081  0.0161  0.0528  0.1881
    1W        W35150  21.692   6.023   8.521  0.2916 -0.0322 -0.2317
    1W        W35151  19.497  24.863   9.828 -0.1708  0.0819  0.2793
    1W        W35152  14.394  15.307   9.069  0.0689 -0.0786  0.2005
    1W        W35153   4.500  27.643   2.423 -0.3103 -0.3320  0.3066
    1W        W35154   7.330  14.374   0.219  0.1978  0.0904  0.3009
    1W        W35155  13.727  10.287   2.123  0.2909 -0.2245 -0.1940
    1W        W35156   7.059  22.738   0.040 -0.0910  0.1413  0.0923
    1W        W35157  22.445  14.098   8.947 -0.1272  0.3933 -0.2193
    1W        W35158   2.767  13.316   9.451  0.0739 -0.0587  0.3867
    1W        W35159   0.529  17.665   8.740  0.0803  0.0759  0.0914
    1W        W35160  19.247  25.727   3.454 -0.3075 -0.0066 -0.0683
    1W        W35161   2.221  23.103   8.079  0.0132  0.1539 -0.1023
    1W        W35162  21.095   0.950   0.680 -0.3041 -0.1698 -0.1007
    1W        W35163   8.438  18.442   7.016 -0.4045 -0.1242  0.3591
    1W        W35164  27.410  12.943   2.582  0.2722 -0.2644  0.1580
    1W        W35165  11.484  15.043   7.160 -0.0488 -0.3112 -0.1077
    1W        W35166   7.123  17.735   2.488  0.2915  0.0154 -0.1102
    1W        W35167  26.470  16.299   7.213 -0.1752  0.1931 -0.0423
    1W        W35168  23.241   3.225   1.987  0.0874  0.2777  0.2075
    1W        W35169  24.172  25.979   7.871 -0.1597  0.0792  0.1682
    1W        W35170  23.482   6.891   2.048 -0.2365  0.0633 -0.1151
    1W        W35171  24.948  15.430   8.829 -0.1122  0.0863  0.1084
    1W        W35172   3.735  14.723   9.236  0.0874  0.0375 -0.0738
    1W        W35173   4.977  26.903   7.564 -0.2064 -0.3527  0.0099
    1W        W35174  20.110  24.715   1.181 -0.2647  0.0541  0.4075
    1W        W35175  28.348  12.418   7.762 -0.0385  0.2786 -0.0833
    1W        W35176  19.741  18.765   1.728  0.0122  0.0757 -0.2513
    1W        W35177  12.181  14.366   1.633  0.2539  0.0558  0.0407
    1W        W35178  22.799   4.410   0.833  0.0023 -0.1061  0.3516
    1W        W35179  10.725  10.876   7.473  0.1162  0.0620 -0.0522
    1W        W35180  26.333   8.973   1.778 -0.0417 -0.1152  0.0456
    1W        W35181  14.096  18.480   9.477  0.0069 -0.0108 -0.2769
    1W        W35182  25.289  13.549   1.801 -0.0448 -0.1253  0.1892
    1W        W35183  20.593  16.439   0.454 -0.2081  0.2062  0.4178
    1W        W35184  20.756  25.399   7.537  0.1186 -0.0903 -0.0995
    1W        W35185   5.010   5.911   1.400  0.0238 -0.1684  0.1013
    1W        W35186   1.794  23.648   9.803  0.3405 -0.2911 -0.0063
    1W        W35187  25.541  25.238   9.478  0.1684  0.1015 -0.1372
    1W        W35188  27.186   0.245   6.242  0.0127 -0.2605  0.2378
    1W        W35189  27.618  14.678   6.142 -0.1067 -0.1012 -0.1493
    1W        W35190   3.898   4.644   7.425 -0.2111  0.1021 -0.4272
    1W        W35191   7.457  21.608   7.454 -0.0668 -0.1111 -0.1691
    1W        W35192   9.863  18.823   8.677 -0.0357 -0.0448 -0.2350
    1W        W35193   4.495  26.443   0.552 -0.1327 -0.0081  0.0504
    1W        W35194  11.954   5.323   1.612  0.1859  0.0257 -0.0605
    1W        W35195  22.298  22.874   7.446 -0.0137 -0.0739  0.1048
    1W        W35196  14.735  27.079   8.130  0.0443 -0.2139  0.1093
    1W        W35197   9.189  18.309   2.160  0.1860 -0.2191  0.0539
    1W        W35198  24.574  11.205   9.083 -0.2844  0.0274  0.0737
    1W        W35199   7.181   0.487   2.794  0.0569 -0.2242 -0.1704
    1W        W35200  22.709  12.214   7.652 -0.1010 -0.0855 -0.1619
    1W        W35201  23.181  16.976   9.157 -0.5561  0.2876 -0.0848
    1W        W35202   3.884   4.565   8.712  0.2140  0.1764 -0.3053
    1W        W35203  12.148  27.786   0.610  0.2278 -0.0722  0.2784
    1W        W35204  27.235  10.641   6.247 -0.2542 -0.1347 -0.4064
    1W        W35205   4.777  27.233   1.550  0.1996  0.0972  0.0885
    1W        W35206  25.010   8.367   1.147  0.2112 -0.0834 -0.1787
    1W        W35207   9.992  11.112   8.151 -0.0348 -0.0636 -0.1707
    1W        W35208  27.607  20.213   1.073 -0.0008  0.1065 -0.2323
    1W        W35209  15.632  15.416   8.566 -0.0039  0.1482  0.2916
    1W        W35210  18.516   2.257   1.670  0.2592  0.2245  0.1744
    1W        W35211   3.974  28.714   8.789 -0.0312  0.0969  0.2392
    1W        W35212   5.950  23.474   0.805  0.3086  0.1697 -0.1296
    1W        W35213   1.088  16.206   5.909 -0.0077 -0.1860  0.3369
    1W        W35214   5.557  27.451   2.232  0.0969 -0.0594 -0.0841
    1W        W35215  26.193  22.243   8.379  0.3843  0.0642 -0.2135
    1W        W35216  24.153  18.883   1.846 -0.6474  0.1897  0.1138
    1W        W35217  19.217  18.945   3.263 -0.1745  0.1597  0.2320
    1W        W35218  21.142   1.531   0.510 -0.3105  0.0776 -0.1964
    1W        W35219   5.939  28.577   7.537  0.1213 -0.0282  0.3652
    1W        W35220   2.200  10.939   8.225  0.1265  0.1409 -0.1239
    1W        W35221  27.099  10.173   2.219  0.2771 -0.0475  0.1748
    1W        W35222   8.605  11.578   9.377 -0.2283  0.0876  0.3191
    1W        W35223   2.422  10.241   3.441  0.0512  0.2099 -0.0982
    1W        W35224   7.185  23.071   7.459 -0.2245 -0.1514 -0.2169
    1W        W35225  22.130  11.649   0.765  0.3347 -0.1611  0.0923
    1W        W35226   0.603  19.064   7.264  0.0584  0.1411 -0.0248
    1W        W35227  14.605  21.619   2.333 -0.2576 -0.0003  0.1591
    1W        W35228   0.387  25.055   8.650  0.1669  0.1554 -0.2054
    1W        W35229   6.561   2.007   0.889 -0.2479  0.0618 -0.0881
    1W        W35230  11.900   1.150   9.261 -0.0494  0.0329 -0.0596
    1W        W35231  10.221  14.495   9.093  0.0221 -0.1001  0.0572
    1W        W35232  23.933  11.594   0.362  0.0113 -0.0873 -0.0764
    1W        W35233  11.776  21.950   7.851  0.5271 -0.1007  0.2909
    1W        W35234  15.561  15.708   1.685 -0.0461  0.1052  0.1590
    1W        W35235   2.383   4.848   6.683  0.0357 -0.1877 -0.0940
    1W        W35236   0.227  12.466   7.324  0.0660 -0.2655 -0.3381
    1W        W35237  25.915   3.703   0.043  0.1115  0.1169 -0.0070
    1W        W35238  22.773  24.185   1.109  0.1815 -0.2316  0.1475
    1W        W35239   9.896   7.811   1.628  0.0741 -0.3153  0.0914
    1W        W35240  11.353  16.235   0.441  0.0158  0.0769  0.2034
    1W        W35241   3.184  15.296   3.324  0.0511  0.1154  0.0006
    1W        W35242   0.065   6.082   8.275 -0.1126 -0.3036 -0.0325
    1W        W35243   0.574  10.076   8.038  0.1745 -0.0654  0.0309
    1W        W35244  28.096  11.207   2.760  0.0261  0.2512  0.2013
    1W        W35245  12.560   4.314   4.623 -0.1054  0.1301 -0.3406
    1W        W35246  28.110   4.101   1.234  0.1028 -0.1050  0.0864
    1W        W35247  15.496   3.932   0.639  0.1486 -0.3385 -0.2167
    1W        W35248   6.852  23.628   1.517 -0.1789 -0.0357  0.1156
    1W        W35249  14.776   6.658   8.668  0.1301  0.2144 -0.0382
    1W        W35250  20.373  21.633   7.232  0.1241 -0.0426 -0.3163
    1W        W35251  20.050   0.858   1.897  0.3586  0.0374  0.1180
    1W        W35252  27.757   0.768   2.838 -0.2877  0.0078 -0.0188
    1W        W35253   3.828  23.204   6.183 -0.2829  0.1607  0.2320
    1W        W35254   7.496   7.771   1.122  0.0263  0.1415  0.1449
    1W        W35255  17.279  10.806   0.221 -0.1390 -0.1212  0.0122
    1W        W35256  11.754  10.504   0.994 -0.2941 -0.1860 -0.0248
    1W        W35257  19.031  13.878   0.141 -0.1063 -0.0483 -0.1382
    1W        W35258   7.185  28.294   1.218  0.0527 -0.1860  0.0039
    1W        W35259  17.664   4.689   8.778 -0.3094 -0.0580 -0.3704
    1W        W35260  14.931   1.439   8.445  0.1419 -0.1508 -0.3409
    1W        W35261  17.014   2.487   2.859  0.0272 -0.0593 -0.3413
    1W        W35262   8.410   8.605   8.503  0.1493  0.1794  0.3731
    1W        W35263  26.414   5.388   1.904  0.1344  0.0278  0.1931
    1W        W35264   0.149  18.641   9.772 -0.4332 -0.0744  0.2345
    1W        W35265  24.255   9.583   3.266  0.1434  0.1328  0.0587
    1W        W35266  18.527  26.965   9.538  0.1816 -0.0440  0.1452
    1W        W35267  28.075  23.477   9.709  0.0946  0.1872  0.1105
    1W        W35268  18.568   3.988   0.251 -0.1067 -0.1908  0.1279
    1W        W35269   6.984  26.400   3.324  0.0943  0.2229  0.2943
    1W        W35270  23.950   9.854   7.373 -0.1083  0.2678  0.1328
    1W        W35271   2.141  14.644   1.469  0.1725  0.0397 -0.0202
    1W        W35272  23.703  17.284   6.772  0.1436 -0.0451 -0.0172
    1W        W35273   8.491   5.895   7.334 -0.1862  0.3295  0.0921
    1W        W35274  19.070  25.664   9.829 -0.0838  0.0047  0.1923
    1W        W35275  15.266   2.769   7.864 -0.0307  0.1109 -0.1098
    1W        W35276   6.835  13.933   1.706  0.0168  0.1016 -0.3471
    1W        W35277   7.481  16.879   8.454 -0.0122 -0.2275 -0.0997
    1W        W35278  14.938  23.022   1.121 -0.3638 -0.0902  0.2983
    1W        W35279  19.037   0.516   9.395 -0.0304 -0.1569  0.0111
    1W        W35280   3.327   9.186   8.169 -0.0068  0.1668  0.2339
    1W        W35281  13.749   7.090   0.859 -0.0619 -0.2577  0.1459
    1W        W35282  10.356  17.856   8.841 -0.0559 -0.0181 -0.1355
    1W        W35283   3.498   0.988   0.987 -0.0716  0.0347 -0.0768
    1W        W35284  14.551   8.485   3.218  0.1034  0.1410 -0.2038
    1W        W35285   2.264   2.877   6.962  0.3168 -0.0599 -0.0172
    1W        W35286  18.022  23.403   7.922 -0.1700  0.3047  0.1634
    1W        W35287  15.469  28.049   2.649 -0.0224 -0.0718 -0.2410
    1W        W35288   0.299  26.969   3.094 -0.2367  0.1928  0.4022
    1W        W35289  28.235   4.876   8.136 -0.0733  0.0619 -0.2338
    1W        W35290  13.351  19.080   1.918  0.0964 -0.0055  0.1629
    1W        W35291   5.751   2.128   9.825 -0.1004  0.1255  0.2866
    1W        W35292  12.679   0.067   7.408  0.3226 -0.1578 -0.4067
    1W        W35293   7.138   2.974   8.229 -0.2551 -0.1705 -0.0275
    1W        W35294  13.758  21.378   0.320  0.2361 -0.0047  0.1914
    1W        W35295   7.684   4.041   8.140 -0.0672  0.0145 -0.2606
    1W        W35296  10.061  17.162   9.500  0.0408  0.0687  0.0751
    1W        W35297  24.405   1.275   7.393 -0.2783 -0.0451  0.2625
    1W        W35298   0.837   1.171   0.489  0.0365 -0.0646  0.1509
    1W        W35299   8.130   5.411   3.156  0.2624 -0.1817  0.2172
    1W        W35300  25.212   3.347   3.588  0.1539 -0.0911  0.0005
    1W        W35301  18.270  28.164   7.445  0.2629  0.1346 -0.0334
    1W        W35302  20.813   0.952   9.347 -0.1601 -0.2935  0.0441
    1W        W35303   3.105  14.322   0.269  0.0839 -0.1025  0.2015
    1W        W35304  12.946  28.551   7.850 -0.1707 -0.1969  0.1623
    1W        W35305  25.687  22.620   1.652 -0.3293 -0.2483 -0.0523
    1W        W35306  19.922   0.235   7.686  0.1032  0.2980  0.0344
    1W        W35307  27.283  11.227   7.830  0.0924  0.2021 -0.1727
    1W        W35308  18.560  21.573   2.697  0.3412  0.1102  0.0561
    1W        W35309  19.606   3.028   2.371 -0.1905  0.1887  0.0861
    1W        W35310  13.048  12.986   0.801 -0.0505  0.2531  0.0396
    1W        W35311   4.412   5.901   8.076 -0.1901 -0.4292 -0.3326
    1W        W35312  21.443   9.271   7.378  0.2069  0.1074  0.0216
    1W        W35313  16.434   4.520   1.983 -0.3273  0.3950  0.1777
    1W        W35314   7.088  25.401   0.613 -0.0620 -0.2867 -0.1493
    1W        W35315   7.223  25.126   1.089  0.1686 -0.2752 -0.1086
    1W        W35316   8.501  20.150   8.288  0.1035  0.0855  0.2153
    1W        W35317   4.156  17.709   0.454  0.2434  0.2839  0.1064
    1W        W35318  10.120   6.503   1.309  0.3173 -0.2333 -0.1015
    1W        W35319  17.498  19.089   7.892 -0.3409 -0.0477  0.2527
    1W        W35320  18.241  21.012   2.794  0.0884 -0.1883  0.1350
    1W        W35321  19.896   9.178   0.514  0.2300 -0.2930  0.2293
    1W        W35322  11.230   6.395   0.501  0.0581  0.0074  0.1247
    1W        W35323   5.238  16.316   0.569  0.1142  0.1002  0.0256
    1W        W35324   9.743   1.571   8.450  0.0445  0.0931 -0.0958
    1W        W35325  12.653   2.160   9.205 -0.0101 -0.0560  0.0243
    1W        W35326   8.723  13.121   8.827  0.2126 -0.0768 -0.1050
    1W        W35327  22.909   1.642   1.072 -0.2024 -0.3096 -0.0524
    1W        W35328   0.139  28.719   8.428 -0.0207  0.0243 -0.0500
    1W        W35329  17.849  11.943   9.663 -0.0144  0.0021 -0.1705
    1W        W35330  23.137  22.877   7.179  0.1542  0.1921  0.0359
    1W        W35331  27.182  19.321   9.235  0.0460 -0.0969 -0.2189
    1W        W35332   1.338  14.587   9.855 -0.3085 -0.0363 -0.2885
    1W        W35333   2.066  25.408   2.332 -0.1775  0.1554  0.0531
    1W        W35334  24.389   7.407   2.107  0.1455 -0.0905 -0.2956
    1W        W35335  24.101   9.867   1.740  0.0654 -0.0855  0.2024
    1W        W35336  22.004  24.918   2.470 -0.2007  0.1141 -0.0585
    1W        W35337  25.412  18.466   0.584 -0.4082  0.1477 -0.1128
    1W        W35338  14.653   8.184   8.424 -0.0035 -0.1597 -0.4496
    1W        W35339  20.341  23.800   7.453  0.0776  0.0384  0.2214
    1W        W35340  28.215  20.195   6.012  0.0821  0.2129 -0.2773
    1W        W35341   1.380   0.564   6.572 -0.1658 -0.4857 -0.0393
    1W        W35342   5.130  16.970   9.676  0.0360  0.0430  0.4475
    1W        W35343  10.040  12.917   2.525  0.1576  0.1683 -0.3866
    1W        W35344  28.280   2.714   1.839  0.0591  0.2940 -0.2613
    1W        W35345   1.762  14.845   9.107 -0.1508 -0.2434  0.0871
    1W        W35346   9.858  16.892   7.157  0.0050  0.1370 -0.0572
    1W        W35347   5.640  19.441   8.856  0.2745  0.0917  0.0495
    1W        W35348  23.428   8.197   7.531  0.0104 -0.1920  0.0732
    1W        W35349   1.344   1.908   1.398 -0.0488 -0.1917  0.1845
    1W        W35350   5.130   3.890   7.216 -0.0613  0.0231 -0.0447
    1W        W35351  14.886   3.353   1.189 -0.0577  0.3609 -0.1111
    1W        W35352  11.131   8.268   2.542  0.1594  0.1145  0.1144
    1W        W35353  25.239  21.286   5.852  0.2159 -0.1267  0.0459
    1W        W35354  12.427  14.570   2.526 -0.0332 -0.2324  0.0458
    1W        W35355   2.070  11.208   7.540  0.1290 -0.0480 -0.1536
    1W        W35356  23.824   6.259   2.521 -0.2651  0.2094 -0.2363
    1W        W35357  26.720  27.884   0.410 -0.0858  0.0453 -0.1500
    1W        W35358  26.375  20.217   9.909 -0.0230 -0.0206  0.1626
    1W        W35359   0.319   4.018   0.189 -0.1078  0.0604  0.1111
    1W        W35360   0.273  16.638   0.901 -0.1629 -0.1964 -0.0854
    1W        W35361  25.475   6.103   0.449  0.2015  0.0740  0.0396
    1W        W35362   2.703  13.865   6.527  0.0756  0.1517 -0.3758
    1W        W35363   6.659   0.999   0.657 -0.3088  0.0755 -0.1367
    1W        W35364  13.794  13.545   8.960  0.0563 -0.0736 -0.1080
    1W        W35365  20.349  20.239   0.952  0.1670 -0.0369  0.1652
    1W        W35366   2.354  12.387   0.440 -0.0275  0.0460  0.2269
    1W        W35367   1.917   0.732   7.460  0.2845  0.2591  0.1409
    1W        W35368   6.079  26.541   9.223 -0.2440 -0.2169  0.1469
    1W        W35369  23.190  23.106   6.589 -0.2915  0.1162  0.0227
    1W        W35370  11.195  16.583   2.333 -0.0733  0.0299 -0.0248
    1W        W35371   3.787  21.872   9.808  0.1657 -0.3046 -0.0105
    1W        W35372   6.609  10.479   8.162  0.0342 -0.0603  0.1561
    1W        W35373   3.705  25.712   6.722 -0.1930  0.1466 -0.1932
    1W        W35374   5.513  15.985   0.888  0.1629  0.2285  0.0707
    1W        W35375  22.644  19.714   1.508  0.0949 -0.1265 -0.0582
    1W        W35376  23.490  25.482   8.603  0.2348  0.2974 -0.0847
    1W        W35377   8.847   4.976   2.720 -0.4322  0.0505 -0.2356
    1W        W35378  14.812   6.443   9.860 -0.0408 -0.1272  0.0001
    1W        W35379  27.014  15.941   8.656  0.2383 -0.0915 -0.0328
    1W        W35380  17.384  19.355   9.458 -0.2502 -0.2836  0.0667
    1W        W35381  22.967   5.983   2.369  0.1850 -0.0773  0.0993
    1W        W35382  15.587   1.517   8.479 -0.3088  0.0791  0.2178
    1W        W35383  28.261  19.148   7.146  0.2012  0.1768 -0.0118
    1W        W35384  18.741  13.571   1.445  0.2233  0.0268 -0.2596
    1W        W35385  21.596   4.178   8.907 -0.0293  0.3170 -0.0854
    1W        W35386  19.025  19.416   8.090  0.0560 -0.0070 -0.0336
    1W        W35387  16.725   6.605   9.436 -0.1366 -0.0596  0.2003
    1W        W35388  18.108  26.387   1.852  0.0932 -0.0597 -0.0528
    1W        W35389   6.624  11.859   3.876 -0.0995 -0.0672 -0.3659
    1W        W35390  14.489   2.719   2.547 -0.0157  0.2173  0.3529
    1W        W35391   6.897  15.678   7.865 -0.0125  0.0126 -0.2919
    1W        W35392  15.585   5.427   7.823  0.0241  0.0178  0.0776
    1W        W35393   9.837  24.955   7.120  0.1056 -0.2158  0.0083
    1W        W35394   0.857   6.396   9.834 -0.1401  0.1047 -0.0040
    1W        W35395  12.396   7.681   3.031  0.0257  0.2451  0.1237
    1W        W35396  12.316   8.751   8.846 -0.0400 -0.0701 -0.1005
    1W        W35397  22.833  21.937   0.454  0.0374 -0.3167 -0.1170
    1W        W35398   5.948   4.885   9.108  0.1493  0.2613 -0.1142
    1W        W35399   2.192  24.354   8.696 -0.1316 -0.1123 -0.3136
    1W        W35400  26.821   6.281   9.447 -0.2430 -0.1348  0.2553
    1W        W35401  17.979  12.878   0.459 -0.1732  0.2142  0.1291
    1W        W35402  28.008  26.696   0.683 -0.0333 -0.4519  0.0103
    1W        W35403  27.688   7.984   7.078  0.0391  0.0559 -0.0035
    1W        W35404  13.033   1.496   3.558 -0.0219 -0.2087  0.0504
    1W        W35405  12.057  13.071   9.101 -0.0014 -0.3802 -0.0635
    1W        W35406  21.348  24.768   9.609 -0.1877 -0.0140  0.2038
    1W        W35407  14.582  14.750   8.335 -0.0920 -0.1471 -0.5283
    1W        W35408  23.632   1.713   1.071 -0.2982 -0.0739  0.2346
    1W        W35409   6.824   9.923   2.731 -0.0006  0.1218 -0.2537
    1W        W35410  24.694   5.885   9.020 -0.0925 -0.1315 -0.1882
    1W        W35411   1.238   9.582   9.118  0.1440 -0.0332 -0.0967
    1W        W35412  27.477   4.169   3.379  0.2508 -0.0598 -0.1314
    1W        W35413  22.865   8.461   1.783 -0.0572 -0.1418  0.0539
    1W        W35414  15.778   6.795   1.101 -0.2095  0.2215 -0.0937
    1W        W35415   4.608  10.037   9.280 -0.1992 -0.0021 -0.1364
    1W        W35416  12.599  23.633   1.100  0.2409 -0.0413  0.1386
    1W        W35417  18.676   2.259   7.084  0.0388  0.0129 -0.1862
    1W        W35418  17.080  26.646   0.556 -0.0793 -0.0242 -0.0915
    1W        W35419  19.352   1.303   8.975  0.1505 -0.1349 -0.0343
    1W        W35420  25.732  17.562   0.577  0.1315 -0.0035 -0.2000
    1W        W35421  10.756   3.548   1.402 -0.0332  0.1269  0.0632
    1W        W35422  23.709  25.529   0.716 -0.1876  0.0127 -0.0439
    1W        W35423  25.726  25.439   0.054 -0.1778  0.1793  0.0161
    1W        W35424  21.119  27.691   9.117  0.1855 -0.2599  0.1101
    1W        W35425  22.100  20.682   7.784 -0.0336  0.3434 -0.2525
    1W        W35426  27.079  20.252   9.887  0.1872 -0.0450 -0.0460
    1W        W35427  12.992  11.838   0.809 -0.1556  0.2356  0.1045
    1W        W35428   6.344  20.405   9.480 -0.0821  0.0900 -0.2315
    1W        W35429   0.082   4.254   2.970  0.1763 -0.0537 -0.2023
    1W        W35430   3.973  20.089   1.192  0.0444 -0.2111 -0.1206
    1W        W35431  27.734  17.780   0.234 -0.2182  0.1006 -0.1539
    1W        W35432   9.898   5.363   9.263 -0.2458  0.0715  0.0386
    1W        W35433  16.472   5.970   8.044  0.0528 -0.0246  0.3085
    1W        W35434   6.636  19.093   2.802 -0.0997 -0.3971 -0.0396
    1W        W35435   9.883  20.950   1.374  0.1835  0.3459 -0.0160
    1W        W35436   6.312  22.725   7.555  0.0613 -0.0376  0.1397
    1W        W35437   1.351  20.378   0.530 -0.0628 -0.1941  0.2683
    1W        W35438  14.729  13.472   8.730 -0.1635  0.1832 -0.1877
    1W        W35439  13.411  23.046   2.786 -0.0545 -0.3268 -0.3518
    1W        W35440  23.334  17.359   9.422  0.2282 -0.1132 -0.0454
    1W        W35441  15.151   5.579   1.411 -0.1440  0.1494  0.0419
    1W        W35442   3.713  10.584   7.022 -0.1524 -0.1872  0.2428
    1W        W35443  18.209  25.395   9.741  0.0051  0.0884  0.1014
    1W        W35444  16.995   1.019   3.295  0.1746 -0.0606  0.1272
    1W        W35445  26.232  27.279   0.916  0.0688 -0.3948  0.1995
    1W        W35446   8.058  14.846   6.737 -0.0470 -0.1730  0.1169
    1W        W35447  12.590   1.727   8.209  0.0766  0.2241  0.1667
    1W        W35448  24.044  10.191   6.713 -0.1584 -0.0094  0.1060
    1W        W35449  25.526   8.822   8.700 -0.1463  0.1196 -0.1761
    1W        W35450  20.213  19.866   7.596  0.3531 -0.1577 -0.1314
    1W        W35451   2.827  16.895   7.382 -0.2764  0.0692 -0.1464
    1W        W35452  25.439   9.427   1.364 -0.0445 -0.2038  0.1210
    1W        W35453  28.669  25.372   9.764  0.1760 -0.3800 -0.0153
    1W        W35454   2.494   2.153   7.954  0.2694 -0.0390 -0.3144
    1W        W35455  19.025   6.105   8.136 -0.0311  0.2150  0.0650
    1W        W35456  10.342  14.131   0.867 -0.1122 -0.0329 -0.3848
    1W        W35457  19.882   0.395   0.072 -0.4167  0.0241  0.1515
    1W        W35458   3.306  16.088   8.715  0.1843  0.2562  0.0316
    1W        W35459   8.477  26.871   3.224  0.0777 -0.2485  0.0553
    1W        W35460   1.798  10.717   0.163 -0.5884  0.0706 -0.0189
    1W        W35461  26.645  27.501   9.237 -0.0277  0.1288  0.1106
    1W        W35462  27.404  23.530   2.256  0.0480 -0.2544  0.1113
    1W        W35463  16.528   0.929   3.456  0.1352  0.1182 -0.0254
    1W        W35464  26.051  15.730   0.540  0.3300  0.0132 -0.0043
    1W        W35465  27.762  15.094   9.361 -0.0349 -0.0755  0.0983
    1W        W35466   4.820  15.841   2.997  0.2534  0.0164  0.3836
    1W        W35467  17.885  16.667   0.283 -0.1338  0.1525 -0.1513
    1W        W35468   9.899   6.870   9.678 -0.0471 -0.2706 -0.0748
    1W        W35469   8.201  27.322   2.301 -0.1646  0.0669 -0.3266
    1W        W35470  11.416  13.405   8.576  0.0818  0.1064  0.0457
    1W        W35471  20.916  26.052   8.773  0.0541 -0.1900 -0.4035
    1W        W35472   6.797   2.373   7.671 -0.3562 -0.0551  0.1085
    1W        W35473   8.730   4.118   9.468 -0.2349 -0.0120 -0.1720
    1W        W35474   4.220  26.759   0.774 -0.4147  0.0406  0.1447
    1W        W35475   7.615  25.065   6.451 -0.1242  0.3004  0.0729
    1W        W35476   5.502  14.395   7.594  0.0838  0.1045 -0.0133
    1W        W35477  13.393   8.754   2.169  0.1499 -0.0636  0.0536
    1W        W35478  25.224  19.891   8.507  0.1609 -0.2526 -0.0908
    1W        W35479  16.739  27.188   2.720  0.1529  0.1215  0.3763
    1W        W35480   0.947   5.381   3.408  0.2130  0.0619  0.0742
    1W        W35481  14.033  21.387   8.913  0.0814 -0.2280  0.4826
    1W        W35482  15.821  21.588   1.591  0.2280 -0.1614 -0.2090
    1W        W35483   0.075   4.430   0.242 -0.0331  0.0632 -0.0269
    1W        W35484  11.635   0.292   3.037 -0.1127 -0.1518 -0.0866
    1W        W35485   8.469  13.011   1.797 -0.1098  0.0011 -0.1069
    1W        W35486  15.237  14.516   2.143 -0.1232 -0.2048 -0.4471
    1W        W35487  12.866   9.325   8.447  0.0921 -0.1153  0.3695
    1W        W35488   0.004   2.928   0.956  0.2418  0.0968  0.0809
    1W        W35489  27.049  24.304   9.480 -0.2099 -0.2829  0.0858
    1W        W35490  16.309  25.014   3.360  0.0826 -0.3284  0.4192
    1W        W35491   5.099  25.749   7.077  0.3522 -0.3431  0.0920
    1W        W35492  23.961  18.606   1.516 -0.0319 -0.2208  0.2262
    1W        W35493  20.562   4.290   8.413  0.2479  0.0875 -0.1431
    1W        W35494  19.354  12.852   2.620  0.0711  0.1760  0.2835
    1W        W35495   2.368  14.674   8.422  0.0666  0.0004  0.0258
    1W        W35496  11.793  25.848   2.828  0.2062  0.1106  0.0434
    1W        W35497   0.500  13.624   0.489 -0.0686 -0.0531 -0.2263
    1W        W35498   5.959  10.892   8.322 -0.0623 -0.0475 -0.0814
    1W        W35499   2.319  12.353   2.818  0.1722  0.0830 -0.3333
    1W        W35500   1.725  14.631   7.453  0.1773 -0.1807  0.0315
    1W        W35501  28.339   3.590   9.855  0.2221  0.1866  0.3311
    1W        W35502  15.150   1.384   9.597  0.3524  0.1802  0.0710
    1W        W35503  12.862   9.128   0.484 -0.0428 -0.0291 -0.2031
    1W        W35504   8.371   2.499   9.917 -0.2301  0.0127 -0.0845
    1W        W35505  11.861  22.814   8.805 -0.0659 -0.3950 -0.1352
    1W        W35506   6.465   2.555   9.140 -0.2046  0.1846 -0.1322
    1W        W35507  12.816  14.582   8.079 -0.0372 -0.2130  0.0071
    1W        W35508   3.469  17.590   1.305 -0.3514  0.1336  0.1043
    1W        W35509  14.468  10.321   0.440  0.1403 -0.6357 -0.0801
    1W        W35510  25.403  13.924   2.100 -0.2574 -0.0167  0.1072
    1W        W35511   9.768   0.235   8.521  0.1677  0.1799 -0.0964
    1W        W35512  28.315   2.196   6.027  0.1267  0.1785  0.2447
    1W        W35513  12.048  22.178   8.209 -0.1277  0.0625 -0.0902
    1W        W35514   1.492  26.647   2.850 -0.0714 -0.0417  0.1293
    1W        W35515   5.407  10.608   8.148  0.2377 -0.0659  0.0852
    1W        W35516  25.979   1.636   1.267  0.0229 -0.1860 -0.0183
    1W        W35517  27.808  16.313   7.227 -0.2610 -0.2339 -0.0468
    1W        W35518  16.101  21.324   8.767 -0.1718  0.2818 -0.2056
    1W        W35519   5.839  18.984   7.334  0.1454 -0.2068 -0.0681
    1W        W35520  21.338  23.753   2.715 -0.0283 -0.0582  0.0801
    1W        W35521  10.027  15.038   7.893  0.0129 -0.0026 -0.1699
    1W        W35522  27.450  17.418   8.853 -0.1415 -0.3034  0.0094
    1W        W35523  13.595   1.359   2.525 -0.2746  0.0800 -0.0130
    1W        W35524   5.950  17.252   8.141 -0.3776  0.0497 -0.0779
    1W        W35525  25.663  18.099   0.442  0.2238  0.1749  0.0527
    1W        W35526   2.985  12.898   6.278  0.1223 -0.0232 -0.0301
    1W        W35527   7.239  14.759   1.860  0.2293  0.1580  0.2185
    1W        W35528  13.342  25.778   1.102 -0.1518  0.0454 -0.2024
    1W        W35529  23.806   9.936   0.296  0.1020  0.2026  0.1385
    1W        W35530  17.373  20.484   0.381 -0.3093  0.0153 -0.1579
    1W        W35531   3.140   2.400   2.300  0.1731 -0.1324 -0.0054
    1W        W35532  25.505   4.892   1.624  0.0275  0.0946  0.0224
    1W        W35533  22.662  12.185   7.000 -0.1974 -0.0424 -0.1404
    1W        W35534  25.813   2.908   9.279  0.2799  0.3080  0.0013
    1W        W35535  24.705   5.148   6.862  0.1153 -0.1120  0.0513
    1W        W35536  17.485  22.891   2.643 -0.1020 -0.1055  0.0279
    1W        W35537   0.612  24.006   7.086 -0.0423 -0.0744 -0.2193
    1W        W35538  17.780  13.258   9.318 -0.0975  0.1828  0.1048
    1W        W35539   5.757  17.988   7.009 -0.0087 -0.1283  0.3055
    1W        W35540  17.339  11.537   7.263 -0.3478  0.1062 -0.0966
    1W        W35541  26.938  24.014   2.926  0.3158 -0.2409  0.3563
    1W        W35542  12.621   4.369   0.396 -0.2595  0.1777 -0.0675
    1W        W35543   9.064  25.454   9.005 -0.1288 -0.1747  0.1153
    1W        W35544   8.275  20.514   2.432 -0.1378  0.2606 -0.0178
    1W        W35545  19.428  14.774   1.725 -0.1975 -0.0379 -0.3593
    1W        W35546   4.148  21.470   1.585  0.2221 -0.3675 -0.0588
    1W        W35547  14.218  22.927   8.185  0.0074 -0.2761  0.1242
    1W        W35548  21.998  26.759   7.929 -0.2720 -0.0825 -0.1386
    1W        W35549   5.963  19.388   5.940 -0.0867  0.2332  0.0054
    1W        W35550  19.849   1.498   8.165 -0.0660  0.0281 -0.1662
    1W        W35551  13.436  18.472   8.836  0.1112  0.1698  0.4537
    1W        W35552  26.268   5.630   0.999  0.0892  0.1693  0.0208
    1W        W35553  22.011  22.029   8.055 -0.1203  0.1018  0.1777
    1W        W35554  14.800  22.581   1.950 -0.1958 -0.1861 -0.2223
    1W        W35555  25.611   1.688   2.573  0.1667  0.0706  0.1922
    1W        W35556  22.287  22.628   9.557 -0.2714 -0.3330 -0.0585
    1W        W35557   2.997   3.186   7.484 -0.0459  0.2705  0.0550
    1W        W35558  25.138  23.499   7.601 -0.1011  0.0369 -0.0694
    1W        W35559  27.031  28.613   7.083 -0.0033  0.1058  0.0820
    1W        W35560  24.382   2.980   9.658 -0.2087  0.0395  0.2426
    1W        W35561  24.970  24.981   0.501 -0.1184  0.1792  0.0198
    1W        W35562  19.215  15.288   0.865 -0.0924  0.0800  0.2302
    1W        W35563   1.178  21.991   0.458  0.1861  0.0005  0.0141
    1W        W35564   5.053  17.429   0.069 -0.0211  0.1875 -0.2745
    1W        W35565  27.899  19.850   2.873  0.2420  0.1860 -0.1325
    1W        W35566   3.558  26.381   7.952 -0.3193 -0.1771  0.1628
    1W        W35567   0.592  12.135   8.202 -0.4081 -0.0807  0.1536
    1W        W35568   2.510   4.499   9.201  0.3225  0.1186 -0.0251
    1W        W35569  25.585  16.178   7.440 -0.0641  0.2574 -0.0352
    1W        W35570   5.323  22.738   1.232 -0.2161  0.1920 -0.1214
    1W        W35571  18.015  14.096   9.532 -0.0795 -0.1612 -0.1878
    1W        W35572   7.358  21.926   8.926 -0.0424  0.1068 -0.4249
    1W        W35573   4.855  26.158   9.741  0.1876  0.1734 -0.0046
    1W        W35574   7.415   0.260   1.178 -0.0018  0.0792  0.0572
    1W        W35575   6.329  23.844   6.822  0.2497  0.1872 -0.0849
    1W        W35576   5.574  11.953   9.733 -0.0215  0.0658 -0.1275
    1W        W35577  11.700  21.242   9.698  0.2567  0.0182  0.0530
    1W        W35578  17.407  22.026   8.530 -0.2231  0.3136 -0.0868
    1W        W35579  16.337  23.033   9.496  0.2792  0.2327 -0.0082
    1W        W35580  10.285  27.542   7.793  0.1052  0.1896 -0.0748
    1W        W35581  27.373   4.223   0.448  0.0329  0.1684  0.0430
    1W        W35582  23.686   8.252   0.348 -0.1880 -0.1172  0.2444
    1W        W35583  27.678   1.690   7.193  0.2274  0.2082 -0.1187
    1W        W35584  12.849  13.395   0.492 -0.0743 -0.2154  0.2504
    1W        W35585  24.887   4.231   6.931 -0.2560 -0.0390 -0.2897
    1W        W35586   3.708  11.492   7.173 -0.0038  0.0503 -0.2396
    1W        W35587  27.481  18.665   9.170  0.2140 -0.0864 -0.0025
    1W        W35588   6.598  13.773   0.892  0.3706 -0.0807 -0.0163
    1W        W35589  23.092  28.135   7.779 -0.0430 -0.0060 -0.0522
    1W        W35590  13.797  11.092   7.857 -0.1493 -0.1493  0.0308
    1W        W35591  14.102  24.553   2.770  0.0185  0.4420 -0.0228
    1W        W35592   6.700   3.473   0.056 -0.2065  0.2321 -0.1042
    1W        W35593  27.501   1.082   2.498 -0.3678  0.0892  0.0441
    1W        W35594   0.040   9.702   6.778  0.0928  0.1260  0.2750
    1W        W35595   7.810  11.959   7.783 -0.1099 -0.3885  0.0987
    1W        W35596  25.561  16.250   2.710 -0.0491 -0.0803  0.0027
    1W        W35597   9.453  27.538   1.463  0.2295  0.1203 -0.1095
    1W        W35598  23.365  24.720   0.385 -0.1721 -0.0169 -0.0927
    1W        W35599  19.272  26.997   2.848  0.3687  0.3067 -0.0081
    1W        W35600   1.709  28.671   8.103  0.0518  0.0048  0.0073
    1W        W35601  27.579  27.215   9.276 -0.1817 -0.5007  0.5506
    1W        W35602  25.170  22.104   0.468 -0.0124 -0.1635 -0.2405
    1W        W35603  26.785   4.689   7.815 -0.0303 -0.1747  0.0009
    1W        W35604  12.800  18.758   8.186  0.0741  0.1800 -0.2407
    1W        W35605   9.487  25.002   1.283  0.5699  0.1092  0.6765
    1W        W35606   6.413  18.176   0.549  0.1481 -0.1446 -0.0132
    1W        W35607  19.564   6.123   9.612 -0.1970 -0.0515 -0.2206
    1W        W35608  28.406  23.510   2.967 -0.2016  0.1123 -0.2368
    1W        W35609   5.666  10.614   2.262  0.0080 -0.1308  0.0809
    1W        W35610   9.339  13.983   7.846 -0.2866 -0.2288  0.0414
    1W        W35611   6.513  16.396   0.936 -0.0813 -0.2010 -0.2284
    1W        W35612  21.837   7.629   9.766  0.0202  0.0612 -0.3196
    1W        W35613   9.579  25.528   9.493 -0.0338 -0.1132 -0.1182
    1W        W35614  25.901  13.714   2.282  0.0279  0.1768  0.0119
    1W        W35615  12.593   7.271   3.299  0.0810  0.0295  0.0616
    1W        W35616  16.845   6.605   0.836 -0.1759  0.0628 -0.0106
    1W        W35617  16.362   7.383   1.514  0.1380 -0.2181  0.1822
    1W        W35618   1.267   7.583   0.106  0.1208  0.0190 -0.1969
    1W        W35619  26.601   6.882   2.351  0.0439  0.1746  0.2304
    1W        W35620   9.914  23.279   9.494 -0.1187 -0.1780 -0.1977
    1W        W35621  15.156   8.473   1.128  0.3702  0.1617 -0.1475
    1W        W35622  10.087  18.553   8.238  0.0849  0.1034  0.1535
    1W        W35623  18.993  22.447   6.711 -0.0210  0.0888 -0.1445
    1W        W35624  12.527  22.121   8.011  0.0380 -0.3941 -0.2416
    1W        W35625  12.830  26.961   8.579 -0.1433 -0.0399 -0.0248
    1W        W35626  23.294  23.230   2.238  0.2290  0.1116  0.1267
    1W        W35627  28.280  20.298   2.256 -0.1716 -0.2633  0.0883
    1W        W35628  26.922  14.030   9.585 -0.2547  0.2231  0.0237
    1W        W35629   8.937  22.160   0.721  0.0448  0.0241  0.0520
    1W        W35630   3.974  17.632   6.492 -0.1349 -0.1326  0.3486
    1W        W35631   7.682  23.285   6.616  0.3735 -0.3231  0.1797
    1W        W35632  14.875  24.597   9.786  0.0901  0.1398  0.0028
    1W        W35633  27.407   1.368   7.591  0.0403  0.0595 -0.0863
    1W        W35634  18.550   2.998   8.050 -0.1069  0.2519 -0.1927
    1W        W35635   9.344  11.182   0.564 -0.2583 -0.0149 -0.0259
    1W        W35636  14.006   1.075   8.737 -0.0097  0.0598  0.0625
    1W        W35637  22.644  23.805   2.935  0.3396 -0.0271  0.0108
    1W        W35638  28.245   2.752   1.270  0.1790  0.2784 -0.1367
    1W        W35639  15.218   3.593   3.030 -0.0706 -0.4094 -0.1640
    1W        W35640  24.532   2.954   3.192  0.0275  0.0022 -0.0730
    1W        W35641  10.546  20.997   6.735  0.0637 -0.2116 -0.0463
    1W        W35642  27.828  27.375   9.903 -0.1528 -0.1253 -0.0230
    1W        W35643  26.927  11.975   8.780 -0.0941 -0.2802  0.1548
    1W        W35644  24.403   5.501   0.784  0.0599  0.2228 -0.0014
    1W        W35645  13.189   3.908   0.637  0.0391 -0.0238 -0.1974
    1W        W35646  13.886   3.766   3.333  0.0100 -0.1120  0.3079
    1W        W35647   6.130  10.438   2.141  0.2131  0.1884 -0.1166
    1W        W35648  18.130  27.787   1.444 -0.0077 -0.2666  0.2577
    1W        W35649  19.182  17.291   1.401 -0.2363  0.3057  0.0713
    1W        W35650  14.486   0.290   3.941 -0.2326  0.1336  0.1188
    1W        W35651  21.928  23.853   3.500  0.2802 -0.0731  0.0271
    1W        W35652  18.649  25.163   7.010  0.1484  0.0581 -0.0400
    1W        W35653   6.323   0.845   9.685  0.2104  0.0644 -0.0486
    1W        W35654  26.568  10.933   7.419 -0.1330 -0.1527  0.2586
    1W        W35655   7.958  22.236   7.175 -0.1594 -0.0349 -0.0385
    1W        W35656  19.707   9.353   9.946  0.0622  0.0709  0.0644
    1W        W35657  10.271  13.785   2.441  0.0594  0.2130  0.0134
    1W        W35658  17.016   5.714   1.271 -0.0027 -0.0086  0.2258
    1W        W35659  22.991   3.076   8.796  0.2483 -0.0991  0.0600
    1W        W35660  24.499  15.757   9.682 -0.0264  0.2017 -0.0529
    1W        W35661  13.850  11.551   0.263 -0.3374 -0.1090 -0.2102
    1W        W35662  21.919  16.759   0.635 -0.0264  0.1564 -0.0739
    1W        W35663   4.700   8.482   8.650 -0.1734 -0.0341  0.0510
    1W        W35664  23.378  28.325   9.502  0.1897 -0.2210 -0.0271
    1W        W35665  15.821   6.739   8.635 -0.0737 -0.1376 -0.0742
    1W        W35666  22.313   6.925   1.062 -0.1312  0.3941  0.4925
    1W        W35667  15.986  21.491   2.526  0.2456 -0.0563 -0.1793
    1W        W35668  15.693  14.742   7.794  0.3482  0.3623  0.0013
    1W        W35669   7.259  10.065   7.479 -0.1949 -0.2966 -0.1161
    1W        W35670  27.691  25.948   0.287  0.1218  0.0140  0.2055
    1W        W35671   5.890  11.992   8.236 -0.1526 -0.0792  0.1463
    1W        W35672   1.711  27.665   8.188 -0.0106 -0.0022  0.2399
    1W        W35673  14.965  21.815   8.957  0.2567  0.0458 -0.2251
    1W        W35674   6.340  23.171   6.695  0.0080  0.1466 -0.0052
    1W        W35675   9.234  11.973   1.710  0.1140  0.0053  0.0397
    1W        W35676  10.935   2.764   2.452 -0.5557  0.2310 -0.1657
    1W        W35677   2.293  10.164   9.303 -0.0223  0.1995 -0.2091
    1W        W35678  12.842   0.437   1.546 -0.1603 -0.0137  0.0631
    1W        W35679   9.096  10.679   2.656 -0.0083 -0.1930 -0.3842
    1W        W35680  28.413  16.892   1.105  0.0568  0.3676  0.1971
    1W        W35681   0.546  24.942   8.155  0.0164  0.1664  0.0487
    1W        W35682  12.957  18.718   2.222 -0.0549 -0.0409 -0.2606
    1W        W35683   9.233  15.837   0.262 -0.1985  0.1832 -0.0108
    1W        W35684  25.586  16.137   8.428 -0.0087  0.0537 -0.0627
    1W        W35685  21.262   2.986   0.788 -0.0848 -0.5584  0.1586
    1W        W35686  23.083   0.430   7.697  0.0836  0.0645  0.1353
    1W        W35687  28.558  13.281   7.199  0.1162 -0.1117  0.1250
    1W        W35688   5.504   6.430   0.771  0.0509  0.3083  0.1013
    1W        W35689  10.685  23.222   7.906  0.0829 -0.0482  0.3187
    1W        W35690   8.908  27.799   3.002  0.3709 -0.1532 -0.0623
    1W        W35691  18.379  18.600   2.925  0.2278 -0.0071  0.1006
    1W        W35692   0.710  13.021   8.253  0.0614  0.0095  0.1218
    1W        W35693  23.306  24.423   1.278 -0.3747  0.0423  0.1815
    1W        W35694   1.653  24.488   8.654 -0.2935 -0.4396 -0.0572
    1W        W35695   7.284   0.902   7.009  0.2693 -0.0000  0.0041
    1W        W35696  11.653   9.892   8.181  0.3446  0.4166  0.0446
    1W        W35697  16.810   5.006   3.727  0.1243  0.0998  0.2678
    1W        W35698  25.664   8.111   2.892 -0.1677 -0.1461 -0.0100
    1W        W35699  17.340  23.139   8.679  0.0374 -0.3790  0.1272
    1W        W35700   9.913   5.990   1.125  0.0311 -0.0164 -0.4019
    1W        W35701  16.833   2.077   0.067 -0.0251  0.1908  0.0085
    1W        W35702   2.294  11.871   6.486 -0.2013 -0.1561 -0.2986
    1W        W35703  25.455  12.954   8.115  0.1651  0.3224  0.1534
    1W        W35704  11.334  13.928   0.635 -0.2745 -0.0081 -0.2502
    1W        W35705  13.174  26.098   1.665 -0.1858 -0.1743 -0.2822
    1W        W35706  11.860  15.054   1.073  0.2698  0.0452  0.1969
    1W        W35707   4.436  12.716   6.912  0.0313 -0.1836 -0.1057
    1W        W35708  22.595  26.122   2.304 -0.3014  0.1585 -0.0640
    1W        W35709  10.849  14.693   9.285  0.0666  0.0116  0.1274
    1W        W35710  24.536  23.429   7.929  0.0792 -0.1059 -0.2973
    1W        W35711  19.164   2.758   7.746  0.2057 -0.2188  0.4708
    1W        W35712  12.966  13.658   2.561  0.4513 -0.0671 -0.2007
    1W        W35713  23.260   1.570   0.682  0.0646  0.1424  0.0015
    1W        W35714  16.987   8.375   2.487 -0.0101 -0.2209  0.2917
    1W        W35715  11.497  24.097   8.959 -0.1663  0.3426 -0.2787
    1W        W35716  17.009  11.747   9.872  0.0317  0.0095  0.0785
    1W        W35717  18.069  21.339   8.953 -0.0084  0.1195  0.2050
    1W        W35718  15.416   1.103   2.817  0.0112 -0.1971  0.4900
    1W        W35719   7.922   1.995   8.375 -0.2740 -0.2429 -0.1330
    1W        W35720  26.230  23.376   6.457 -0.3580 -0.0661 -0.4943
    1W        W35721   3.910  26.741   8.136  0.0714 -0.0354 -0.0588
    1W        W35722  24.807  12.467   1.651  0.2462 -0.3780  0.0087
    1W        W35723  11.478  15.382   0.651 -0.0014 -0.1037 -0.0305
    1W        W35724   8.478  28.368   9.058  0.0337 -0.1547 -0.1020
    1W        W35725  25.953   2.853   2.750 -0.1250 -0.4723 -0.0417
    1W        W35726  16.553  26.545   1.780 -0.0189 -0.0435  0.2041
    1W        W35727   6.039   8.587   9.462 -0.0050  0.0808  0.0279
    1W        W35728  21.691  18.139   8.249 -0.0593  0.0119 -0.0262
    1W        W35729  26.404  28.106   1.661  0.1581 -0.0750 -0.1444
    1W        W35730  27.562  20.401   2.062 -0.0198 -0.0211 -0.0231
    1W        W35731  21.931   5.385   3.641  0.1194 -0.1169 -0.1215
    1W        W35732   8.159   4.848   9.031  0.1682  0.1525 -0.3576
    1W        W35733   2.119  16.517   5.587 -0.2085  0.2439 -0.0593
    1W        W35734  25.446   0.161   9.003 -0.1620  0.1083  0.1859
    1W        W35735   1.149  10.018   0.198 -0.3853  0.0139  0.2397
    1W        W35736   9.037  10.879   8.058  0.1015  0.1144  0.1721
    1W        W35737  25.186  26.062   7.703  0.2738 -0.3614  0.2548
    1W        W35738  17.751   1.924   1.584  0.0997  0.1414  0.0636
    1W        W35739   0.335   5.316   2.253 -0.3215 -0.0723  0.1402
    1W        W35740  21.096  18.179   6.953  0.2282  0.0627 -0.2300
    1W        W35741   6.240   8.886   8.027 -0.1348 -0.1836 -0.0609
    1W        W35742   7.643   1.186   9.436 -0.1211  0.2812  0.3531
    1W        W35743   7.504  18.970   9.402 -0.1211 -0.0455 -0.0976
    1W        W35744   6.619   7.269   2.339 -0.0243 -0.1857  0.1728
    1W        W35745  12.224  26.254   1.672  0.0169  0.2548 -0.0814
    1W        W35746   6.436   7.690   1.286 -0.3724 -0.1467 -0.0896
    1W        W35747   5.364  17.187   5.905 -0.2156 -0.0195 -0.1780
    1W        W35748  15.474  11.678   1.208  0.1275  0.0474  0.1574
    1W        W35749  21.878  10.277   6.854 -0.6296  0.0596  0.0122
    1W        W35750  23.414  11.732   9.180 -0.1263  0.2072  0.1961
    1W        W35751  26.212  26.761   7.804  0.0588  0.0305  0.1029
    1W        W35752  15.007   8.118   1.909  0.1657  0.0025  0.1947
    1W        W35753   5.541   9.507   8.779  0.1551  0.1091 -0.0515
    1W        W35754   4.093   0.611   2.901 -0.2558 -0.1670 -0.0468
    1W        W35755  26.364  12.671   8.618  0.0158 -0.0351 -0.0477
    1W        W35756  22.320   8.584   7.159  0.2591 -0.1996  0.1638
    1W        W35757  18.838   3.804   0.638  0.0522  0.0196  0.0682
    1W        W35758  13.597  18.648   7.995 -0.1571  0.2609 -0.2486
    1W        W35759   1.095  27.336   6.875  0.0510  0.0198 -0.1156
    1W        W35760   1.649  25.579   2.049 -0.1610 -0.0126  0.1851
    1W        W35761   1.123  14.965   8.072  0.1100 -0.0608  0.2663
    1W        W35762   9.893   0.480   0.866  0.1458  0.1550 -0.0548
    1W        W35763   6.386   1.634   0.230  0.3883 -0.2583 -0.0695
    1W        W35764   7.505  10.815   3.414  0.0555 -0.3710 -0.1474
    1W        W35765  27.746   3.558   0.848 -0.0302 -0.1096 -0.2438
    1W        W35766  13.818  11.310   0.903 -0.1019  0.3199  0.0265
    1W        W35767  27.007  21.717   8.421 -0.4818 -0.0700  0.2078
    1W        W35768  19.172  22.860   9.822 -0.0838  0.3615  0.2653
    1W        W35769  18.655  24.084   6.705 -0.0261  0.0849  0.0155
    1W        W35770  24.897  18.442   0.519 -0.1980 -0.1443 -0.2023
    1W        W35771  18.743  13.769   9.692 -0.1096 -0.0883  0.0573
    1W        W35772   2.214  25.264   8.551  0.1968  0.2824  0.0748
    1W        W35773   2.606  25.826   9.899 -0.1659  0.1731  0.1386
    1W        W35774   6.192  21.727   6.346  0.1775  0.0663  0.1289
    1W        W35775  17.103  27.910   9.169 -0.0797 -0.0617 -0.2377
    1W        W35776   7.480  26.247   0.989 -0.0206 -0.1550 -0.1380
    1W        W35777  23.949  20.637   1.714 -0.2093 -0.1858  0.0233
    1W        W35778   1.450  17.352   2.196  0.0030 -0.4515  0.0104
    1W        W35779   1.042  25.884   3.688 -0.1687 -0.1424 -0.0576
    1W        W35780  20.333   9.061   0.141  0.0112  0.1278  0.2046
    1W        W35781   9.830   3.827   1.163 -0.0124  0.1422 -0.0061
    1W        W35782   4.703   8.390   7.395 -0.1922 -0.2279 -0.2099
    1W        W35783  14.181  25.540   8.181  0.2007  0.1695  0.1913
    1W        W35784   4.707   8.581   2.385 -0.0620  0.0546 -0.0956
    1W        W35785  22.728  27.681   9.773  0.0773 -0.2194 -0.2543
    1W        W35786   8.238  25.402   2.019  0.0224 -0.1352 -0.3207
    1W        W35787   2.186  12.173   7.338  0.2519  0.2737 -0.0119
    1W        W35788   8.749   5.137   9.713  0.0604 -0.2848 -0.1414
    1W        W35789   6.495  19.775   2.150  0.0047  0.3979 -0.1978
    1W        W35790  24.638  23.561   0.989  0.1002  0.1425 -0.1500
    1W        W35791  17.069  28.463   8.375 -0.0354  0.0975 -0.1117
    1W        W35792  16.732  24.865   9.695 -0.0654 -0.1864  0.0454
    1W        W35793  16.851  27.923   7.481 -0.0638  0.0547 -0.1532
    1W        W35794  17.518  22.578   0.798 -0.0064  0.2171  0.3011
    1W        W35795   5.325  20.904   0.398 -0.0295 -0.3251 -0.1867
    1W        W35796  11.147  17.412   0.788  0.1453 -0.1146  0.3381
    1W        W35797  14.673   5.233   0.299 -0.0429  0.1610  0.2650
    1W        W35798  21.710  24.012   2.483 -0.2239  0.1749 -0.0537
    1W        W35799   8.786  18.914   9.683 -0.1083  0.2030 -0.0008
    1W        W35800  16.052  20.736   9.802  0.0669 -0.0266  0.0064
    1W        W35801  15.913  20.946   7.541 -0.0708  0.2976 -0.0595
    1W        W35802  13.059  25.684   2.368 -0.0458 -0.1437 -0.0788
    1W        W35803   5.258   9.120   8.074 -0.0010 -0.1147  0.3536
    1W        W35804  22.987   9.415   8.360  0.1064  0.2770 -0.0704
    1W        W35805  12.491  24.104   0.180 -0.1636  0.1374 -0.1560
    1W        W35806  10.822  24.253   0.065 -0.1140  0.1723 -0.2235
    1W        W35807  18.899   5.052   2.552 -0.3047 -0.0100 -0.2455
    1W        W35808  26.603   5.896   9.665 -0.3948  0.1117  0.1240
    1W        W35809  12.668  18.503   7.189 -0.2599  0.0144 -0.0616
    1W        W35810   3.578  19.855   2.462  0.1000 -0.1011  0.1130
    1W        W35811   3.964   0.951   9.091 -0.0020 -0.1231  0.2258
    1W        W35812  14.901   9.567   8.081 -0.0460  0.4046  0.1741
    1W        W35813  19.947   2.076   2.572  0.0282  0.0554 -0.0621
    1W        W35814   6.465  13.779   1.404 -0.0968  0.2655 -0.3650
    1W        W35815   3.005  16.087   2.828  0.0723 -0.2180  0.2260
    1W        W35816  11.627   2.922   1.040 -0.1091 -0.1486 -0.0088
    1W        W35817   7.782  21.920   9.334  0.2185  0.0398  0.2789
    1W        W35818   7.571  18.485   7.002 -0.1949 -0.1420 -0.0225
    1W        W35819   4.082  16.737   7.397 -0.3956  0.2138 -0.1560
    1W        W35820  12.380  17.513   2.402 -0.3401  0.0999 -0.0813
    1W        W35821   9.806   4.246   7.954  0.0475  0.1475 -0.0481
    1W        W35822  20.384  16.842   8.712  0.1596  0.1042  0.1489
    1W        W35823  16.543  19.085   0.744  0.1494 -0.0367 -0.2890
    1W        W35824   1.658   2.634   7.541 -0.0939  0.2481  0.0176
    1W        W35825  20.373  10.691   1.600 -0.0350 -0.2736 -0.3692
    1W        W35826  11.534  28.348   2.142  0.2835 -0.2273  0.1750
    1W        W35827  22.562  11.680   0.456  0.0377  0.0689 -0.1002
    1W        W35828  22.287  27.550   8.644 -0.0214 -0.1703 -0.3630
    1W        W35829  17.939  27.558   9.186 -0.0189  0.4348  0.0502
    1W        W35830   9.434  15.882   9.284 -0.0155  0.2752 -0.0206
    1W        W35831   0.999  17.214   8.360  0.1337 -0.0294  0.2783
    1W        W35832   1.232  26.653   0.638  0.0062 -0.0108  0.0601
    1W        W35833   0.686   5.149   1.368  0.0094 -0.0280  0.6727
    1W        W35834   3.664   4.218   2.222  0.2723  0.2605 -0.1499
    1W        W35835  12.802  12.368   1.415 -0.2783  0.0025  0.2625
    1W        W35836   3.736  21.320   0.255 -0.0947 -0.0050  0.1106
    1W        W35837   2.916  13.019   2.888  0.0104 -0.2488  0.1167
    1W        W35838  28.033  28.220   3.098  0.2426  0.0715  0.1358
    1W        W35839  22.566  12.471   0.379  0.0989 -0.0235  0.1799
    1W        W35840  24.386  24.364   7.014  0.1396  0.1277 -0.0769
    1W        W35841  10.540  25.172   0.222  0.0415  0.0889 -0.1324
    1W        W35842   9.167   7.239   7.822 -0.0594 -0.2015 -0.2300
    1W        W35843   2.364  11.101   9.224 -0.1529  0.1732 -0.2540
    1W        W35844   5.748  27.768   0.158  0.1332  0.0167 -0.2198
    1W        W35845   1.633  26.541   2.210  0.0483  0.0911  0.2515
    1W        W35846  18.277  13.720   9.818 -0.0162  0.0806 -0.1168
    1W        W35847  12.044  24.354   8.500 -0.0324  0.0093 -0.3307
    1W        W35848   7.564  21.543   0.371 -0.1135 -0.1515  0.0522
    1W        W35849  21.095  10.016   1.764 -0.2009  0.0759  0.3614
    1W        W35850   6.505   7.655   0.228  0.6571 -0.0102  0.0836
    1W        W35851  17.629  25.636   0.762  0.5916  0.3526 -0.0785
    1W        W35852   0.661   6.822   7.477 -0.0517  0.0519  0.0320
    1W        W35853  23.274  11.048   0.696 -0.3546  0.3855 -0.1142
    1W        W35854  22.478  26.978   1.707  0.3432  0.4058  0.1472
    1W        W35855  21.703   1.324   0.839  0.1156  0.0317  0.0910
    1W        W35856   1.725   0.315   9.271  0.0900 -0.1951 -0.1394
    1W        W35857  27.191   5.398   8.266 -0.2557  0.1890  0.2436
    1W        W35858  16.727   6.085   8.847 -0.0870  0.0005  0.1337
    1W        W35859  15.464  22.780   7.729 -0.0263  0.0683 -0.1659
    1W        W35860  19.194  23.699   0.048  0.1287  0.0936 -0.1121
    1W        W35861  26.450  22.585   0.407  0.3225  0.3524 -0.2734
    1W        W35862  23.099  17.852   8.324 -0.1460  0.0394 -0.0265
    1W        W35863  10.606  11.092   2.938 -0.1278 -0.0434 -0.0849
    1W        W35864  25.406   2.819   9.017 -0.0625  0.0520  0.0891
    1W        W35865   3.025  11.721   2.307  0.1939 -0.0403  0.1026
    1W        W35866  14.872  17.904   1.073 -0.3014  0.1110 -0.0490
    1W        W35867  27.161  11.544   1.051 -0.3114  0.1708 -0.0016
    1W        W35868   2.382  16.615   9.114 -0.2005  0.2271  0.2258
    1W        W35869  21.459  26.791   0.298 -0.0904  0.1447  0.0409
    1W        W35870   4.773  12.299   1.594 -0.0708  0.0622  0.2237
    1W        W35871  21.752  14.029   7.400 -0.1717 -0.3595  0.0771
    1W        W35872   8.922  21.136   5.716  0.1120  0.1724  0.3628
    1W        W35873  28.325  20.391   6.460  0.1634 -0.0532  0.1224
    1W        W35874   8.924  27.889   2.508 -0.1941 -0.0023 -0.2285
    1W        W35875   2.451  21.357   7.787  0.0115  0.1974  0.2606
    1W        W35876  27.572  24.021   9.049  0.0163 -0.1926 -0.1061
    1W        W35877   9.428  11.322   7.457 -0.0676  0.4977 -0.1996
    1W        W35878  24.766  25.151   9.007  0.2966 -0.1089  0.1059
    1W        W35879   6.663   0.443   9.658 -0.2468 -0.0677 -0.2040
    1W        W35880   0.433  19.549   0.229  0.0224  0.1796 -0.1340
    1W        W35881  12.130  18.501   2.281  0.1377  0.3276 -0.0063
    1W        W35882  18.215  14.545   2.375  0.0149  0.0913 -0.1454
    1W        W35883  16.103   0.750   1.976  0.0044 -0.1485  0.2293
    1W        W35884  18.520  14.260   9.682  0.1622 -0.0098  0.1884
    1W        W35885   0.885  27.149   3.746  0.0127  0.1007 -0.1182
    1W        W35886  28.426   7.610   9.827  0.1191 -0.0145 -0.3740
    1W        W35887  27.852  18.165   9.707 -0.3039  0.1129  0.0675
    1W        W35888  20.995  25.942   1.015  0.3855 -0.0554 -0.2982
    1W        W35889  19.321  14.304   0.834 -0.1211  0.0323  0.0658
    1W        W35890   8.703   8.541   1.801  0.3974  0.1614  0.2573
    1W        W35891  27.596  15.889   5.956  0.0692 -0.0669  0.0803
    1W        W35892   2.538  23.815   1.009 -0.2298  0.1568  0.0315
    1W        W35893  25.187  24.248   1.317 -0.1518 -0.1470  0.2071
    1W        W35894   0.844  25.634   6.177  0.0223 -0.0793 -0.0801
    1W        W35895  10.052   3.971   0.633  0.1707  0.0294 -0.0128
    1W        W35896  10.158  23.236   6.956  0.1278 -0.1820  0.1965
    1W        W35897   8.334  28.611   3.220  0.0868  0.0092  0.2240
    1W        W35898   0.284  10.066   0.889  0.3528 -0.0035  0.0053
    1W        W35899  12.973  19.753   1.079  0.0471 -0.1524 -0.2431
    1W        W35900   2.477  20.929   7.515 -0.0269  0.0534 -0.2429
    1W        W35901  21.139   3.137   3.017  0.0525  0.2047 -0.0010
    1W        W35902  22.634   5.422   7.344  0.2856  0.1924 -0.1886
    1W        W35903  13.908  16.698   9.038  0.0870  0.3224 -0.1755
    1W        W35904  14.747  21.996   8.418 -0.4116 -0.2914 -0.0205
    1W        W35905  13.793  26.283   7.693 -0.2623  0.2410 -0.3386
    1W        W35906  16.893   6.159   3.145 -0.2954  0.1203 -0.2014
    1W        W35907   5.176  27.363   1.233  0.4172  0.1580 -0.2785
    1W        W35908   5.270  28.532   2.985  0.1199  0.0229  0.2942
    1W        W35909  19.103  18.216   2.822  0.0396 -0.1365 -0.0034
    1W        W35910   2.715  27.425   0.013  0.0357  0.1531  0.3348
    1W        W35911  15.409  21.310   1.436 -0.1864 -0.3154 -0.1158
    1W        W35912  12.197  23.736   8.112  0.1028 -0.1270 -0.2524
    1W        W35913   3.279   3.363   0.676 -0.2932 -0.1150 -0.2684
    1W        W35914  20.505   0.722   0.580 -0.0461  0.0601  0.2194
    1W        W35915  27.821  20.759   1.298  0.1801  0.0727  0.1050
    1W        W35916   4.596  11.016   8.554 -0.0232 -0.0734 -0.0149
    1W        W35917  22.273  21.311   9.600 -0.1361 -0.2087  0.1624
    1W        W35918  27.344  28.317   0.152 -0.0439  0.1194 -0.1958
    1W        W35919   5.086  20.920   7.850  0.0820  0.1282 -0.2573
    1W        W35920   4.554   1.122   0.935 -0.1557  0.2626  0.1436
    1W        W35921  10.155  18.076   0.546  0.2372  0.0597  0.3305
    1W        W35922  23.379   5.514   2.494  0.1217 -0.2239  0.0151
    1W        W35923  10.658  22.317   3.076  0.0067  0.0824  0.3704
    1W        W35924  12.203  27.745   1.918  0.2534 -0.2096 -0.0389
    1W        W35925  15.963   2.390   8.886  0.1888 -0.0067  0.1190
    1W        W35926  21.951  13.213   3.169 -0.1375 -0.0758 -0.2231
    1W        W35927  24.349  16.371   8.975 -0.1035 -0.1551 -0.1644
    1W        W35928  11.322   0.546   7.191 -0.0460 -0.1608 -0.0909
    1W        W35929   7.210   8.809   8.130  0.2681  0.3394 -0.2741
    1W        W35930   3.719   5.867   7.254 -0.0227 -0.1726 -0.1103
    1W        W35931   8.085  18.537   9.357  0.1369  0.1816  0.0112
    1W        W35932  12.449   4.425   0.861  0.2707  0.1049  0.0759
    1W        W35933  12.442   6.821   3.272  0.0495  0.0582 -0.4382
    1W        W35934   7.022   0.343   1.735 -0.0054  0.0799 -0.0157
    1W        W35935  16.538  20.757   1.626  0.2532 -0.0787  0.4020
    1W        W35936  21.124  12.828   1.225  0.0242  0.2090 -0.0728
    1W        W35937   1.720  14.019   7.318 -0.0139 -0.0096  0.1264
    1W        W35938   6.813  20.892   1.172  0.1891 -0.1479  0.1429
    1W        W35939   2.030   0.194   7.410  0.0718 -0.0652  0.1350
    1W        W35940  19.187  17.696   1.672 -0.0254  0.1711 -0.2731
    1W        W35941  27.436   1.588   1.535  0.3053  0.1814  0.3799
    1W        W35942   2.694  12.279   9.251  0.0799 -0.0530 -0.0151
    1W        W35943   1.218  24.911   0.655 -0.0442  0.1646  0.1136
    1W        W35944   8.425  18.795   7.945  0.1936  0.0351 -0.2442
    1W        W35945  20.594  14.591   2.368 -0.0908  0.1481  0.0821
    1W        W35946   0.677   5.491   6.721 -0.2365 -0.3757  0.0712
    1W        W35947  19.569  19.128   4.039  0.4566  0.1094 -0.2303
    1W        W35948  23.663  17.337   9.818  0.0740 -0.3018 -0.0317
    1W        W35949  11.827  18.742   2.626 -0.0205 -0.1694  0.1236
    1W        W35950   5.614  13.283   1.801  0.1338  0.0494  0.1369
    1W        W35951  20.116   6.082   9.683  0.0826  0.1564 -0.2158
    1W        W35952  20.751   0.297   8.003 -0.2726  0.0220  0.2968
    1W        W35953  24.999   9.158   7.970  0.1365  0.2188  0.0509
    1W        W35954  16.627  10.450   0.541 -0.1415 -0.0413 -0.2308
    1W        W35955  22.747   8.077   2.230 -0.1983  0.0167 -0.1520
    1W        W35956  13.261   8.956   8.345 -0.0337 -0.1621  0.3224
    1W        W35957  13.333  12.750   2.576  0.5584 -0.0862  0.1003
    1W        W35958   6.691   8.787   8.320  0.0833 -0.0944 -0.1251
    1W        W35959  25.855  21.606   9.153  0.3079 -0.2842 -0.0353
    1W        W35960  27.089  19.098   0.829 -0.3172  0.1112  0.1318
    1W        W35961  10.663  12.474   9.516 -0.2325  0.0842  0.2400
    1W        W35962  16.918  23.898   8.481 -0.2238 -0.0901 -0.0836
    1W        W35963  13.301  12.578   0.671  0.3449  0.2096  0.0484
    1W        W35964   0.266  25.893   9.947 -0.1741  0.1376  0.1268
    1W        W35965   9.899   3.700   2.551  0.1353 -0.0784  0.4038
    1W        W35966  16.101  14.792   2.003  0.1796 -0.0158 -0.0567
    1W        W35967  18.037  24.759   0.974  0.1449  0.2395 -0.1393
    1W        W35968  10.737   5.348   6.911  0.1269  0.2255  0.1104
    1W        W35969  21.902   9.093   2.157  0.0715 -0.0864  0.3735
    1W        W35970  24.525  23.485   1.867 -0.0311 -0.1036  0.2600
    1W        W35971   0.430  27.075   2.114 -0.0680  0.0197  0.0617
    1W        W35972  25.196  14.702   1.072  0.4550  0.1288  0.0945
    1W        W35973  28.505   4.883   0.322  0.1364  0.0724  0.1638
    1W        W35974   8.899  23.728   6.594  0.1782 -0.0799  0.1054
    1W        W35975  24.629  11.261   9.882  0.1260  0.0735  0.2362
    1W        W35976   1.332   3.686   2.777 -0.0147 -0.1414  0.1819
    1W        W35977  24.082  24.088   0.830  0.0611 -0.3329  0.0456
    1W        W35978  11.677  28.513   0.530 -0.1677 -0.0807 -0.1046
    1W        W35979  27.722  12.267   7.784 -0.1356 -0.2309  0.4041
    1W        W35980  21.636  14.482   1.528 -0.0036 -0.0182  0.2447
    1W        W35981  18.650  25.337   0.133  0.0715 -0.2563  0.0514
    1W        W35982   4.153  28.571   2.300 -0.1491  0.3916 -0.1716
    1W        W35983  10.241   3.721   2.955  0.1952  0.0831  0.2262
    1W        W35984   3.315  26.282   7.111 -0.0527  0.3399  0.2299
    1W        W35985  13.986   5.855   3.237  0.0310 -0.0923  0.0648
    1W        W35986   0.681  18.072   1.297 -0.0611 -0.2054 -0.4399
    1W        W35987  10.223   3.185   8.266 -0.1792  0.3856 -0.1192
    1W        W35988  10.587  12.426   8.459  0.0981  0.1178  0.1858
    1W        W35989   2.101   1.895   8.164  0.3138 -0.1279  0.2783
    1W        W35990   2.460  14.293   0.032 -0.1775 -0.2434  0.1836
    1W        W35991  25.276   0.460   6.808  0.2138  0.2626 -0.1137
    1W        W35992  24.980   5.881   7.101  0.1075  0.0825 -0.2826
    1W        W35993  22.015  26.754   2.620  0.1990 -0.2214 -0.0474
    1W        W35994  10.132  27.755   7.321 -0.1269 -0.1552  0.0167
    1W        W35995  16.636   3.781   2.553 -0.0490  0.0791  0.1919
    1W        W35996  27.651   8.580   2.910 -0.0039  0.0131 -0.1092
    1W        W35997  12.935  21.753   9.701  0.1998 -0.0501 -0.4630
    1W        W35998  20.190  22.673   2.023 -0.1121  0.3455  0.1642
    1W        W35999  19.280  24.499   8.183  0.2448 -0.3274  0.0884
    1W        W36000  14.917  13.023   1.695  0.0181 -0.1854  0.2092
    1W        W36001  10.769   0.526   0.603 -0.2340  0.0840 -0.0111
    1W        W36002  19.989  22.295   8.262 -0.4822  0.0665 -0.2189
    1W        W36003   3.505  11.464   2.329 -0.1088 -0.0100 -0.0250
    1W        W36004  16.946  23.936   0.675 -0.0267  0.3933  0.2149
    1W        W36005   3.472  22.287   6.110 -0.4278  0.0278 -0.0763
    1W        W36006   2.630  14.633   1.263  0.0442  0.0055 -0.2499
    1W        W36007   3.674  27.822   1.726 -0.1533  0.0563  0.3384
    1W        W36008   8.323  18.569   8.475  0.1560  0.0409 -0.1385
    1W        W36009   1.017  14.327   0.671  0.1373 -0.0818  0.1320
    1W        W36010   3.600  21.116   2.369  0.0209  0.0268 -0.0836
    1W        W36011   0.388   1.947   3.070  0.0536  0.0011  0.0853
    1W        W36012  17.444  18.077   8.655  0.1380 -0.2509  0.1121
    1W        W36013  20.322   2.735   2.111  0.2020  0.2519  0.3176
    1W        W36014  17.448  12.934   2.398  0.1694 -0.0109 -0.0625
    1W        W36015   7.094   0.611   9.421  0.2743 -0.0112 -0.1304
    1W        W36016   5.456   7.790   2.693 -0.1102 -0.0491 -0.0547
    1W        W36017  21.841  22.196   2.243  0.3471 -0.0072  0.0304
    1W        W36018  14.572   1.358   2.981 -0.1312 -0.1464 -0.0623
    1W        W36019  14.659  26.115   9.722 -0.1869  0.1004 -0.0892
    1W        W36020   5.628  25.027   0.925  0.0212  0.2559  0.2705
    1W        W36021   8.713   2.906   7.957 -0.2674 -0.0096  0.1788
    1W        W36022   5.316  25.859   7.876  0.1520  0.2213  0.1227
    1W        W36023  12.989  16.622   8.901 -0.0769  0.2003 -0.2519
    1W        W36024  27.258   5.132   2.202  0.1907  0.0929  0.1588
    1W        W36025  27.021  21.302   0.397 -0.2094  0.2486 -0.4407
    1W        W36026  24.440   7.897   2.374  0.0639 -0.0686 -0.0392
    1W        W36027   1.502  11.346   8.949  0.0657  0.2869  0.1704
    1W        W36028  27.032  18.474   6.773  0.0489 -0.1811 -0.0312
    1W        W36029  14.491   8.228   9.838 -0.2282 -0.0547 -0.1534
    1W        W36030  27.332  14.928   0.815 -0.0302  0.0162 -0.1848
    1W        W36031  13.885  10.234   0.035  0.2397 -0.0216 -0.0226
    1W        W36032   6.196  16.497   6.907  0.3206  0.1191 -0.1926
    1W        W36033  18.928  19.017   2.364 -0.3170  0.0766  0.1399
    1W        W36034   0.510  10.663   2.084  0.0063  0.1692  0.1808
    1W        W36035  13.988   5.789   2.306  0.0934 -0.0879 -0.1233
    1W        W36036   3.293  22.734   0.584  0.0163 -0.0020  0.0189
    1W        W36037  27.749  13.884   2.334 -0.0163 -0.2490  0.1459
    1W        W36038  23.199  27.015   3.221  0.1707 -0.0150  0.0902
    1W        W36039  20.288  23.302   8.483 -0.0207  0.0823 -0.1301
    1W        W36040   0.408   5.637   8.027 -0.0138 -0.1163  0.0405
    1W        W36041   0.639  14.474   9.705  0.1159  0.2121 -0.0201
    1W        W36042   3.328   0.415   7.198  0.1058 -0.0287 -0.0463
    1W        W36043  17.183  20.657   3.499  0.3154  0.3390 -0.0545
    1W        W36044  25.671   8.972   1.167  0.0934  0.0217  0.0571
    1W        W36045   7.456   8.796   1.844 -0.2891  0.1331  0.0289
    1W        W36046   0.820  24.973   6.921  0.1573 -0.1515  0.0120
    1W        W36047   5.372  28.665   8.373 -0.0983 -0.1461  0.1516
    1W        W36048  28.488   4.603   2.557 -0.0131 -0.2246 -0.0780
    1W        W36049   2.208  13.396   2.169 -0.1528  0.2007  0.0677
    1W        W36050  11.409   6.543   2.356  0.4678  0.2314  0.0134
    1W        W36051  18.489  18.496   9.637 -0.1096 -0.0568  0.2442
    1W        W36052  27.933  16.752   2.779  0.2133  0.0488  0.0161
    1W        W36053   2.283   5.692   6.956  0.1990 -0.0768 -0.0213
    1W        W36054  10.287  18.995   7.931  0.1819 -0.0370 -0.1352
    1W        W36055  14.009  21.598   1.552  0.2388  0.1400 -0.1424
    1W        W36056  28.388   9.329   9.685 -0.1625  0.0034  0.0114
    1W        W36057   9.302   0.207   9.380  0.0183 -0.1061 -0.0537
    1W        W36058  13.010   7.400   8.153  0.2298 -0.1915  0.0493
    1W        W36059   8.903  25.491   2.857  0.2618  0.0261  0.4149
    1W        W36060  11.635   5.537   7.065 -0.1066  0.1540  0.2657
    1W        W36061  16.086  17.350   2.449  0.0074  0.0798 -0.1781
    1W        W36062   9.204   7.747   8.665 -0.2228  0.3040  0.3754
    1W        W36063  24.452  23.000   7.068  0.1843 -0.4879  0.0208
    1W        W36064  26.112  24.378   0.920  0.1064 -0.0921  0.2267
    1W        W36065  27.784   7.904   0.655 -0.1181 -0.0924  0.2583
    1W        W36066  19.866   6.819   8.927  0.0331 -0.1985 -0.0644
    1W        W36067   9.460   5.706   7.227  0.2340 -0.1802  0.1411
    1W        W36068  25.772   1.794   0.861  0.0454  0.0209 -0.2465
    1W        W36069   4.863  11.005   1.792  0.0838  0.1764  0.3350
    1W        W36070   6.924   8.033   7.761  0.1846  0.1143  0.0517
    1W        W36071  13.512   2.478   2.638 -0.0888 -0.2105 -0.1552
    1W        W36072   0.054  23.573   7.538  0.0263 -0.2095  0.0532
    1W        W36073  22.983  10.290   1.508 -0.2751 -0.0638 -0.0440
    1W        W36074   9.192  25.309   8.531  0.1301 -0.1844  0.0038
    1W        W36075   2.900  20.585   9.797  0.2098 -0.0968  0.1610
    1W        W36076  15.456  25.071   9.342 -0.0032  0.1578  0.1161
    1W        W36077   0.779  14.920   1.322  0.2393  0.0519 -0.0505
    1W        W36078  27.387  10.906   9.685 -0.0190  0.1072 -0.2048
    1W        W36079  24.843  19.444   7.337  0.2100 -0.0949  0.0491
    1W        W36080  11.488  26.410   2.193 -0.3760 -0.0420  0.1963
    1W        W36081  23.065   7.878   7.331 -0.1678  0.1161 -0.0641
    1W        W36082   3.073  11.207   2.331  0.0670 -0.0881 -0.0561
    1W        W36083  17.368   0.689   2.613  0.1538  0.1851  0.0414
    1W        W36084  22.017   0.344   8.237 -0.0776  0.2212  0.1892
    1W        W36085   4.284   0.738   8.022 -0.0127 -0.0490 -0.0050
    1W        W36086   7.402  20.639   6.165 -0.2974 -0.0641  0.0448
    1W        W36087   4.152  28.195   1.204  0.0485  0.0940 -0.1509
    1W        W36088   3.403  25.634   1.319  0.2354 -0.1097  0.1770
    1W        W36089   7.040  14.250   0.969  0.0262  0.2263 -0.4802
    1W        W36090   9.911  11.939   9.809  0.0497  0.0416 -0.2765
    1W        W36091  19.374  16.147   9.450  0.0821 -0.0465 -0.2251
    1W        W36092  22.456  25.246   1.513 -0.1900  0.0499 -0.4948
    1W        W36093  23.072   7.383   1.155 -0.0411 -0.0221 -0.3614
    1W        W36094  18.321   0.863   1.913  0.1711  0.0822  0.2931
    1W        W36095  26.858  12.563   8.462 -0.0561  0.2404  0.0367
    1W        W36096   8.822  17.992   2.127 -0.1462  0.0546  0.2960
    1W        W36097   3.444  25.284   2.039  0.1755  0.0432  0.0785
    1W        W36098   1.139   8.112   1.121 -0.0084  0.0320 -0.1689
    1W        W36099  18.433   1.170   3.386  0.1707  0.0575 -0.2224
    1W        W36100   6.590   4.416   2.177  0.1536  0.4472  0.2851
    1W        W36101   9.669  27.302   3.301  0.1320  0.0596  0.0686
    1W        W36102   9.135  27.747   8.638 -0.1442 -0.2931  0.0168
    1W        W36103   6.359   7.696   9.702  0.3097  0.1555  0.3766
    1W        W36104  15.551  28.658   3.415  0.2084 -0.1122 -0.1583
    1W        W36105  13.057  25.650   0.256 -0.1666  0.1297  0.3165
    1W        W36106   4.127  15.047   8.933  0.2599  0.0521 -0.0062
    1W        W36107   5.692  11.803   1.634 -0.0589 -0.1715 -0.0284
    1W        W36108   4.517  23.193   2.402  0.0188 -0.2295  0.1194
    1W        W36109   8.506  23.545   8.872 -0.0968 -0.2590 -0.3422
    1W        W36110   2.498  16.772   9.563 -0.3022 -0.1122 -0.0201
    1W        W36111  25.692  26.849   7.908 -0.0158 -0.1124  0.0192
    1W        W36112   2.505   3.227   0.716  0.5136  0.1108 -0.1103
    1W        W36113  22.313   6.558   6.330 -0.3482 -0.0388 -0.3460
    1W        W36114  19.753  27.897   7.616  0.1550 -0.1566 -0.1617
    1W        W36115  25.835  26.312   6.481 -0.0345  0.0633 -0.2052
    1W        W36116  23.165  18.353   2.074  0.0902 -0.1089 -0.0360
    1W        W36117   6.455   4.909   7.057 -0.0664 -0.1546  0.1559
    1W        W36118  11.045  24.052   5.959 -0.0252  0.1292  0.4326
    1W        W36119  13.261  18.862   7.725 -0.1181  0.1800  0.0728
    1W        W36120   3.440   7.494   7.836  0.0028 -0.4057 -0.0073
    1W        W36121   7.258   8.361   2.057 -0.0495 -0.2928  0.2151
    1W        W36122  14.798  28.156   0.257 -0.0658  0.2328  0.2203
    1W        W36123  22.292   2.604   9.843  0.3443 -0.3055  0.0486
    1W        W36124   1.597   9.098   3.094  0.2269  0.0512  0.1108
    1W        W36125  14.129   1.289   2.718  0.3379 -0.0058  0.0533
    1W        W36126   4.548   7.149   2.094  0.0245 -0.0009  0.3665
    1W        W36127  28.004  16.384   9.537  0.0226 -0.2075  0.2634
    1W        W36128  27.614   2.176   3.117 -0.0062 -0.0819  0.1611
    1W        W36129  19.242  27.141   1.107  0.0090  0.1540  0.0467
    1W        W36130  25.136   0.940   0.219  0.0913 -0.2604 -0.3312
    1W        W36131   6.690  27.512   0.230  0.0622  0.0636  0.1010
    1W        W36132  27.479  14.357   0.887 -0.3511  0.2897  0.4347
    1W        W36133   3.935   9.304   2.519  0.1204  0.0912  0.0566
    1W        W36134  26.392   5.950   6.100 -0.0853  0.0214  0.0516
    1W        W36135  18.022   4.925   9.099 -0.1176  0.0507  0.1755
    1W        W36136   4.030   2.459   0.427  0.1373 -0.0048 -0.1447
    1W        W36137  14.862   4.828   9.088  0.1963  0.2534 -0.2835
    1W        W36138   2.275  15.179   6.944 -0.1082  0.0176 -0.0366
    1W        W36139   4.887  18.490   2.317  0.0019  0.1404 -0.4092
    1W        W36140  25.339  23.717   7.165  0.3487  0.1470 -0.0238
    1W        W36141  19.265  17.342   7.923 -0.1184 -0.2905  0.0404
    1W        W36142  12.971  19.705   0.359 -0.2007 -0.1414 -0.1886
    1W        W36143   2.116  21.107   9.850 -0.1196 -0.2237 -0.1058
    1W        W36144  21.116   6.439   0.799 -0.3841 -0.0130 -0.1720
    1W        W36145  18.444  16.844   1.913 -0.0289  0.2313  0.2381
    1W        W36146  16.620  22.008   0.880 -0.0887  0.0637 -0.0738
    1W        W36147  26.609  14.361   8.413  0.0729 -0.1573  0.1673
    1W        W36148  17.898  21.526   2.765 -0.2052  0.0627 -0.2168
    1W        W36149  12.861  22.801   8.550 -0.0809 -0.5022 -0.0205
    1W        W36150  25.038   5.207   9.609 -0.0718  0.0612  0.0712
    1W        W36151  19.599   7.709   8.973  0.3404 -0.1151 -0.2097
    1W        W36152   6.400  24.267   7.814 -0.0128 -0.0094  0.0651
    1W        W36153  11.195  10.455   9.400 -0.2405 -0.1981 -0.1122
    1W        W36154   1.518  24.909   7.630 -0.0408  0.3389 -0.0407
    1W        W36155   5.935   5.950   9.434  0.3130 -0.2140  0.4473
    1W        W36156   6.435  21.282   1.253  0.2071 -0.2696 -0.0711
    1W        W36157   6.005   9.406   1.114  0.1235 -0.0273 -0.3139
    1W        W36158   0.665   9.666   7.467 -0.0384  0.4596 -0.2083
    1W        W36159  28.084  14.138   6.445  0.1098 -0.1874 -0.0165
    1W        W36160  19.329  19.601   8.965  0.0551 -0.3387  0.3653
    1W        W36161   8.261  14.392   2.840 -0.2044  0.0775 -0.3879
    1W        W36162  11.051  16.657   8.695 -0.0382  0.0528 -0.1163
    1W        W36163  15.536   1.391   3.189 -0.2390  0.3899 -0.4904
    1W        W36164  25.925   2.599   2.259  0.0182 -0.1379 -0.1882
    1W        W36165   1.277  25.278   9.097 -0.1103  0.3364  0.0800
    1W        W36166   7.265  24.266   9.947 -0.2517 -0.0507  0.1023
    1W        W36167  10.516  14.025   0.305  0.2334  0.3412  0.0543
    1W        W36168   9.216  18.586   0.464 -0.0086 -0.0728  0.1399
    1W        W36169  17.702  25.526   2.223 -0.1589 -0.3426 -0.0342
    1W        W36170  25.821  26.416   3.348  0.2968 -0.1675 -0.0556
    1W        W36171  23.004  20.815   1.938  0.0801  0.2007  0.5406
    1W        W36172  18.391   9.995   8.651  0.0991 -0.2208  0.0717
    1W        W36173   4.228   5.935   7.195  0.1503  0.1165 -0.2164
    1W        W36174  11.395  22.115   7.038  0.1127  0.0627  0.1187
    1W        W36175  16.541  21.224   9.070 -0.2171  0.0287 -0.1800
    1W        W36176  28.056   8.718   9.811 -0.0646  0.1840  0.1768
    1W        W36177  22.863  21.963   2.677 -0.1725 -0.0537 -0.1542
    1W        W36178  27.683  25.353   0.230  0.0120  0.2129  0.4142
    1W        W36179   3.824   9.695   7.006 -0.0318 -0.0823  0.0577
    1W        W36180  11.143   5.671   2.535  0.3302  0.2574 -0.2519
    1W        W36181  25.758   4.814   8.022 -0.0361 -0.0350  0.1391
    1W        W36182   0.441  14.553   7.547  0.1109  0.2262  0.1470
    1W        W36183   2.255  14.393   6.821 -0.0874  0.0272  0.1719
    1W        W36184  13.833  25.995   0.572 -0.1369  0.0374 -0.0602
    1W        W36185   0.201   3.789   7.585  0.5194 -0.0334 -0.0840
    1W        W36186   2.734  22.061   8.802 -0.0015 -0.1142  0.1857
    1W        W36187   4.307  23.691   7.640 -0.4468 -0.1042 -0.0293
    1W        W36188  27.052   5.878   9.446  0.2279  0.2357  0.1353
    1W        W36189  26.957  22.896   0.379  0.0040 -0.0568  0.2742
    1W        W36190  23.700  27.373   8.530 -0.0772 -0.0504  0.0145
    1W        W36191  23.255  19.324   1.849  0.0766 -0.1383 -0.1899
    1W        W36192   4.266  27.495   1.524  0.2410 -0.2019 -0.2215
    1W        W36193  11.004  20.096   8.342 -0.0435  0.4973  0.0764
    1W        W36194   7.423  14.046   8.426 -0.1001 -0.3589 -0.0530
    1W        W36195  26.441  20.506   0.623  0.0897 -0.1775 -0.1175
    1W        W36196  22.275   2.126   9.927  0.2740  0.0800 -0.2303
    1W        W36197  15.567  25.588   9.621 -0.0491 -0.1815 -0.0215
    1W        W36198  17.587  16.716   2.705 -0.1977  0.2719 -0.0231
    1W        W36199  11.172  11.788   9.070 -0.1018  0.0610 -0.1578
    1W        W36200  16.998  23.077   2.815  0.2551 -0.2145 -0.0064
    1W        W36201  23.294  13.155   9.092  0.1551 -0.0410  0.2335
    1W        W36202  12.058   7.710   8.068  0.6802  0.0045  0.0532
    1W        W36203   4.215   1.784   7.983  0.2544 -0.2210 -0.0808
    1W        W36204   6.511  16.691   2.213 -0.0135 -0.1865 -0.1705
    1W        W36205   7.714  24.020   8.328  0.1338  0.1518 -0.1868
    1W        W36206   2.027  26.593   9.595  0.2522  0.1542 -0.0947
    1W        W36207  24.818  10.430   9.708  0.0103 -0.2486  0.0918
    1W        W36208   0.882  16.752   9.120  0.1719 -0.1166 -0.0746
    1W        W36209   4.364  11.891   8.116  0.0231 -0.1882 -0.2968
    1W        W36210  15.317  15.737   7.858 -0.1418  0.1796  0.0693
    1W        W36211  12.363   1.719   2.932 -0.0514 -0.2073 -0.1631
    1W        W36212  19.998  26.209   1.389 -0.0456 -0.2219  0.3077
    1W        W36213  18.328  19.525   8.813  0.4811 -0.0072  0.0729
    1W        W36214  16.268   7.077   2.969 -0.1931 -0.0965  0.0679
    1W        W36215   3.988   5.395   1.288 -0.1973  0.0002  0.2114
    1W        W36216  16.242  26.005   1.196 -0.2028 -0.1851 -0.6871
    1W        W36217  26.054   7.685   0.398 -0.0797 -0.1179  0.1204
    1W        W36218   5.592  27.369   8.110  0.0221 -0.1245  0.0653
    1W        W36219   7.205   1.474   1.136 -0.0238 -0.1839  0.0397
    1W        W36220   7.897   8.847   9.279  0.0781 -0.0251 -0.1446
    1W        W36221   7.000  13.801   1.242 -0.0283  0.3728  0.1047
    1W        W36222  15.998  28.064   7.536  0.1394  0.2523 -0.1131
    1W        W36223  25.459  25.471   6.618  0.2207  0.0318 -0.4347
    1W        W36224   0.695  25.866   1.719 -0.1678  0.0436 -0.2345
    1W        W36225  17.222  27.280   1.690 -0.2239 -0.0376  0.2119
    1W        W36226  20.380   1.410   8.311  0.2258  0.1192 -0.1885
    1W        W36227  15.376  25.879   2.914 -0.2122 -0.2148  0.0820
    1W        W36228   2.458   8.350   3.381 -0.3266  0.0331  0.1166
    1W        W36229  10.951  26.337   8.280 -0.3047  0.3599 -0.1754
    1W        W36230   6.606   3.676   8.078 -0.0248 -0.0238 -0.1158
    1W        W36231  25.520  19.957   7.048  0.0290 -0.1134  0.0071
    1W        W36232  25.399  23.752   1.330  0.0355  0.0337  0.0698
    1W        W36233  20.137  20.361   3.387  0.0388 -0.3437  0.0301
    1W        W36234   5.690  17.428   9.935  0.1338 -0.0585 -0.2579
    1W        W36235  14.716  27.696   3.759  0.0294 -0.0711  0.0809
    1W        W36236  14.243   3.152   7.732  0.0955  0.0706 -0.0519
    1W        W36237  19.738  18.299   2.006 -0.0134  0.1442 -0.1234
    1W        W36238   5.613  23.010   1.541  0.1869 -0.1177 -0.1401
    1W        W36239   9.063  24.735   7.079  0.1546 -0.3450 -0.0237
    1W        W36240  17.581  15.868   7.558 -0.1948 -0.0594  0.0543
    1W        W36241  26.850  19.758   6.660  0.0325  0.3366 -0.1579
    1W        W36242  27.215   5.824   8.990  0.0150 -0.0942  0.1777
    1W        W36243  15.972   9.313   2.864 -0.0199  0.3044 -0.4396
    1W        W36244  19.106  24.952   7.104 -0.1814 -0.0389 -0.2049
    1W        W36245  27.816   5.985   8.107  0.2255  0.0966 -0.2130
    1W        W36246  27.614  12.450   2.544 -0.1059 -0.1099  0.1906
    1W        W36247  14.694  10.474   8.209  0.0059  0.0273  0.3404
    1W        W36248   0.726  22.684   9.600  0.0080 -0.2066 -0.0803
    1W        W36249  15.937   7.206   8.389  0.2428 -0.0637 -0.2199
    1W        W36250   3.382  28.692   0.692  0.1508  0.1072  0.0529
    1W        W36251   1.781   1.147   1.360  0.3281  0.0633  0.1700
    1W        W36252  20.835  14.297   7.897  0.3359 -0.1765 -0.0133
    1W        W36253  22.866   8.308   9.165  0.2124 -0.1557  0.0934
    1W        W36254  24.835  16.752   3.047  0.0097  0.1508 -0.0438
    1W        W36255  26.492   2.407   0.948  0.0811  0.0280  0.0533
    1W        W36256  18.918  19.742   1.712  0.0610 -0.0704 -0.2341
    1W        W36257   2.868  11.527   8.733 -0.3877 -0.0985 -0.0434
    1W        W36258  21.388  24.621   8.419 -0.1308 -0.0481 -0.0066
    1W        W36259   5.531   8.562   9.563  0.0195 -0.0691 -0.3131
    1W        W36260  19.235   2.916   1.306  0.2115 -0.0991 -0.0279
    1W        W36261   8.481  26.384   6.700 -0.2766  0.3026  0.1311
    1W        W36262   4.850   3.319   6.411 -0.1825  0.3353 -0.0878
    1W        W36263  26.421  17.561   7.149  0.1773  0.2090 -0.3486
    1W        W36264  11.023   1.768   1.382 -0.0953  0.5863  0.3967
    1W        W36265   0.693   0.804   7.705 -0.1300  0.1676 -0.1431
    1W        W36266  11.402  19.478   6.841 -0.1024  0.4320 -0.3221
    1W        W36267  24.628   7.441   2.526  0.1890 -0.1385 -0.1116
    1W        W36268  23.558  24.238   0.247 -0.1389  0.1380  0.1063
    1W        W36269  18.765   3.459   7.273 -0.4881  0.2625 -0.0675
    1W        W36270   9.802  26.380   2.204 -0.0506 -0.0752  0.1852
    1W        W36271   3.619   9.303   6.767 -0.0002  0.2075 -0.2044
    1W        W36272  17.908  19.778   1.675 -0.0822  0.0197  0.0060
    1W        W36273   7.726   2.188   9.395  0.0654  0.5180 -0.1757
    1W        W36274   3.147   7.621   1.007  0.1134 -0.0895  0.1436
    1W        W36275   1.624  27.145   0.527  0.1315  0.1030  0.0493
    1W        W36276  26.611  19.734   7.565  0.0491 -0.0328 -0.1888
    1W        W36277   5.924  22.428   0.458  0.0322 -0.2556 -0.1620
    1W        W36278   9.019  23.085   1.656  0.0296 -0.3715  0.1686
    1W        W36279  26.359  11.839   7.271 -0.1442  0.2326 -0.0845
    1W        W36280  27.495   7.504   0.587 -0.1397 -0.1501  0.0670
    1W        W36281  16.638  20.120   0.859  0.0485 -0.0891  0.0696
    1W        W36282  24.012  18.651   9.364 -0.1649  0.0040  0.0512
    1W        W36283  11.238   0.670   8.729 -0.0981 -0.0744  0.0317
    1W        W36284  27.368  26.977   8.275 -0.0694 -0.1105  0.0748
    1W        W36285  13.498   1.481   7.976 -0.3431 -0.2092 -0.1028
    1W        W36286  28.121  23.186   8.981  0.0510  0.2467  0.0831
    1W        W36287  10.461  15.791   0.728  0.0698  0.0230 -0.0144
    1W        W36288   5.363   4.766   7.420  0.1069  0.2521  0.2087
    1W        W36289  10.914  21.700   0.907 -0.3075 -0.3468  0.0575
    1W        W36290   3.950   3.501   6.639 -0.1760 -0.0848 -0.0092
    1W        W36291   8.951   6.610   3.240  0.1914 -0.3190 -0.0758
    1W        W36292  14.065  20.544   8.339  0.0134  0.0273  0.0032
    1W        W36293   5.751  17.184   8.700  0.0213  0.1447  0.1142
    1W        W36294  11.395   6.087   8.435 -0.0730  0.1115  0.0210
    1W        W36295   8.520  10.785   9.032  0.0610 -0.1612  0.0303
    1W        W36296  11.209  22.921   0.678 -0.1636 -0.0375 -0.0770
    1W        W36297   4.661  14.903   8.102 -0.2993 -0.1645  0.0396
    1W        W36298  22.658   8.501   8.738  0.0974 -0.0551  0.2866
    1W        W36299   2.020  17.339   9.731  0.0832  0.2454  0.0616
    1W        W36300  16.317  12.080   8.677 -0.1223 -0.0930 -0.0663
    1W        W36301  11.445  24.290   7.806  0.0596 -0.3296 -0.1318
    1W        W36302  27.539  17.652   8.315  0.0653  0.0781 -0.1504
    1W        W36303  26.183   0.382   8.134 -0.1399 -0.0466 -0.3425
    1W        W36304  21.807  27.064   8.975 -0.1393  0.1974  0.0157
    1W        W36305  13.357  11.253   8.081  0.1547 -0.1317  0.1656
    1W        W36306   6.555   1.015   0.176 -0.1086 -0.0544  0.3158
    1W        W36307  25.749   3.332   0.812 -0.3069 -0.0002  0.0666
    1W        W36308  23.358   5.369   6.993 -0.1060  0.1160 -0.0360
    1W        W36309  15.089  28.505   0.001  0.0096 -0.0494 -0.0092
    1W        W36310  19.075   1.817   7.680  0.0519 -0.0501 -0.1952
    1W        W36311  18.958  13.316   9.866 -0.0806 -0.2365 -0.2183
    1W        W36312  27.603   3.152   9.739 -0.1755 -0.0648  0.2078
    1W        W36313  18.367  14.504   8.376  0.1972  0.1222  0.0493
    1W        W36314  27.105   9.943   7.560  0.2707  0.2740 -0.2488
    1W        W36315  23.763   2.481   6.154 -0.0040  0.0879  0.0628
    1W        W36316   5.131   9.029   6.838 -0.2036  0.0764 -0.2132
    1W        W36317   4.049  15.365   8.266  0.2661 -0.2632 -0.2981
    1W        W36318  13.160  12.080   1.237  0.1028 -0.0593  0.0386
    1W        W36319   6.485   0.609   7.552 -0.0855 -0.2442  0.1819
    1W        W36320   2.402  10.081   2.275 -0.0983  0.4758 -0.0741
    1W        W36321  18.547  26.895   3.714  0.1152  0.0947  0.0552
    1W        W36322   8.478   3.249   7.256  0.0875 -0.1215  0.0437
    1W        W36323   8.140   2.660   1.122  0.1105 -0.0052  0.0041
    1W        W36324  28.125  13.377   5.761  0.1754  0.1231  0.0781
    1W        W36325   4.380   8.705   1.460 -0.0109  0.2910 -0.2807
    1W        W36326   2.429  21.745   7.417  0.0108  0.1895 -0.2903
    1W        W36327   9.855  14.164   2.322 -0.0103 -0.2792  0.2019
    1W        W36328   9.596  25.002   7.889  0.0616 -0.1253  0.0074
    1W        W36329   0.565   0.558   9.438  0.2416  0.2492 -0.2721
    1W        W36330   3.963   1.521   7.664  0.2890  0.0581 -0.3189
    1W        W36331  14.373  13.355   9.161 -0.4194 -0.2430  0.2806
    1W        W36332  16.264  22.768   8.137 -0.0739 -0.0175  0.1555
    1W        W36333   6.329   8.981   8.665 -0.2475  0.0279  0.1742
    1W        W36334  17.382   4.846   1.818 -0.1318  0.1223  0.2096
    1W        W36335  12.605  18.367   2.315  0.0907 -0.0046  0.3413
    1W        W36336   1.102   8.377   8.478 -0.0896 -0.0541  0.2068
    1W        W36337   7.807  18.547   0.673  0.5365 -0.2517  0.2773
    1W        W36338  23.426   6.282   6.713  0.1972 -0.0926  0.2370
    1W        W36339  15.199  22.741   8.222 -0.0299 -0.5665  0.0093
    1W        W36340  16.707   6.122   0.533  0.0245 -0.1116 -0.0459
    1W        W36341  24.197  16.019   8.592  0.0229 -0.1336  0.0868
    1W        W36342  23.713  24.731   7.921 -0.1121 -0.2060  0.0329
    1W        W36343  14.769   0.377   2.016 -0.0408 -0.3037 -0.1459
    1W        W36344  26.360  24.555   6.998 -0.1193  0.5127 -0.2587
    1W        W36345  25.621   0.841   6.958 -0.0807 -0.0765 -0.0447
    1W        W36346  24.735  24.951   5.987 -0.1904  0.1163 -0.1358
    1W        W36347   5.343  17.689   7.236  0.0415  0.0005 -0.1233
    1W        W36348   3.496  23.985   5.805 -0.0366 -0.2543  0.0910
    1W        W36349  16.295  23.286   2.435 -0.0084  0.0449 -0.0706
    1W        W36350  19.230  14.383   2.366  0.1149 -0.1163  0.2382
    1W        W36351  24.157  25.214   2.341  0.0923  0.0752 -0.0110
    1W        W36352  19.484  19.712   0.634 -0.0868  0.0492 -0.1388
    1W        W36353  10.161  26.611   0.710 -0.1332 -0.0238  0.0761
    1W        W36354  15.123  22.174   1.708  0.0107  0.1810 -0.0335
    1W        W36355  15.989  16.662   9.064 -0.0134  0.1830  0.1240
    1W        W36356  16.774  23.006   9.685  0.2252 -0.0636 -0.1471
    1W        W36357   2.137  23.180   9.951  0.0136  0.0024  0.1428
    1W        W36358   0.954  12.476   0.543 -0.0128  0.0028  0.1164
    1W        W36359   2.171  25.634   9.313  0.0273 -0.1449 -0.0038
    1W        W36360  22.440   7.416   2.748  0.0505 -0.1658  0.1234
    1W        W36361  10.598   8.622   2.472  0.2953  0.0287 -0.2272
    1W        W36362  19.861  24.911   6.329 -0.1905  0.1138  0.1872
    1W        W36363  22.572   8.543   2.179  0.0524 -0.0904 -0.0824
    1W        W36364   7.179  15.639   1.508  0.1088  0.2114 -0.1499
    1W        W36365   2.815  21.044   2.459 -0.2976 -0.2447 -0.1353
    1W        W36366   9.475  27.176   1.972  0.1590 -0.3120 -0.3078
    1W        W36367   7.593  13.095   0.546 -0.0914  0.2943 -0.0129
    1W        W36368  22.746   8.877   2.493 -0.2945  0.0899 -0.0485
    1W        W36369  25.890  20.297   0.462  0.0058 -0.2893 -0.2880
    1W        W36370  12.506  14.266   2.098  0.2356  0.1663  0.1576
    1W        W36371  13.034   6.948   0.939 -0.0061 -0.1861 -0.0858
    1W        W36372   8.553   8.850   9.006 -0.1116  0.0454  0.4582
    1W        W36373  23.819  27.938   0.057  0.0425  0.0762  0.0358
    1W        W36374  12.348   2.998   8.269  0.1258 -0.1372  0.2029
    1W        W36375  11.047  12.767   7.706 -0.0476 -0.1042  0.3244
    1W        W36376  22.310  26.857   3.469 -0.2682  0.0749  0.0900
    1W        W36377  19.757  14.075   1.530 -0.2902 -0.0913  0.0694
    1W        W36378  11.986   8.634   7.374 -0.2995  0.0240  0.1342
    1W        W36379  15.067   8.446   0.618 -0.1827 -0.1703 -0.0333
    1W        W36380   5.721  19.673   8.380 -0.0601  0.2504  0.2191
    1W        W36381  19.370  17.679   8.297  0.1824 -0.1336  0.1228
    1W        W36382  16.209  13.558   2.313  0.3424 -0.1459 -0.0540
    1W        W36383  15.009  19.319   8.446 -0.0959 -0.1214 -0.0644
    1W        W36384  12.491  10.213   9.892  0.3156  0.4335 -0.1758
    1W        W36385  16.600   5.298   8.979 -0.0385  0.0329  0.2674
    1W        W36386   9.161  26.391   1.602  0.0100 -0.2794 -0.0063
    1W        W36387  10.272  25.504   9.940  0.1336  0.2005 -0.0182
    1W        W36388  27.055  25.274   7.997  0.1699 -0.0493  0.0390
    1W        W36389  23.295   6.201   8.124 -0.2330 -0.1815 -0.3770
    1W        W36390   2.870  14.078   2.033 -0.1539 -0.0176 -0.1587
    1W        W36391   1.875  14.415   1.090  0.0616 -0.0347 -0.1061
    1W        W36392   0.045  24.873   9.526  0.0176  0.1477 -0.0398
    1W        W36393  15.905   1.151   2.893  0.0326 -0.0006  0.2535
    1W        W36394  16.156  21.842   1.201 -0.0184 -0.0600  0.3316
    1W        W36395  23.346  18.411   6.635  0.0591  0.2619 -0.1146
    1W        W36396  27.244  18.117   8.371  0.0116  0.3076 -0.1261
    1W        W36397   2.874  18.727   1.210 -0.1591  0.0967  0.0168
    1W        W36398   2.831  16.883   9.953 -0.0431 -0.2208  0.0770
    1W        W36399  28.681  20.240   8.597  0.0654  0.1412  0.2807
    1W        W36400  20.298   8.131   2.991 -0.1787  0.3023  0.0997
    1W        W36401  11.859  10.921   0.749  0.1013  0.0657  0.1572
    1W        W36402   3.249   8.514   2.263 -0.0362 -0.1216  0.1808
    1W        W36403   8.856   7.263   8.490 -0.0040  0.4021  0.2360
    1W        W36404   0.593  11.755   8.632 -0.2498  0.1475 -0.5399
    1W        W36405  28.417   1.015   1.898  0.0157 -0.0280  0.0572
    1W        W36406  23.658   9.846   1.973 -0.2495  0.0350 -0.3280
    1W        W36407  22.281  26.114   0.541 -0.1640  0.1546  0.1841
    1W        W36408  18.314   0.728   8.190 -0.2350  0.0812  0.4091
    1W        W36409  22.179   9.503   2.373 -0.0804  0.0768 -0.0301
    1W        W36410  11.230  27.273   9.639 -0.3149  0.0210 -0.3498
    1W        W36411  25.281  12.435   8.046  0.0769 -0.1145  0.0888
    1W        W36412  24.735  15.422   0.510 -0.0055 -0.0317  0.0238
    1W        W36413  23.620  23.246   2.967 -0.3090 -0.1107 -0.2280
    1W        W36414  27.969   3.623   6.688 -0.0882  0.5070 -0.1171
    1W        W36415   5.376   5.977   2.551 -0.0029 -0.1390  0.0723
    1W        W36416  17.510  11.331   2.213  0.2453 -0.0585 -0.0230
    1W        W36417  21.209  14.406   0.755 -0.1496 -0.1670 -0.0690
    1W        W36418  16.834  13.635   9.597 -0.3038 -0.0788  0.0587
    1W        W36419  15.752   0.124   2.366  0.0625 -0.0029 -0.2894
    1W        W36420   7.552  18.822   1.168 -0.0570 -0.1388  0.2599
    1W        W36421  27.188  23.441   8.411  0.1532 -0.0219 -0.1822
    1W        W36422  28.464  21.124   0.672 -0.4837 -0.4657 -0.1285
    1W        W36423   1.777  11.199   0.434  0.1926 -0.0056 -0.3915
    1W        W36424  19.043   7.023   7.948 -0.3648  0.0008  0.0980
    1W        W36425  11.534   0.157   2.113 -0.2888 -0.2937  0.0741
    1W        W36426  21.578  17.233   8.538 -0.4930  0.0380  0.0850
    1W        W36427  28.317   0.429   7.122 -0.3669  0.1140 -0.0635
    1W        W36428   3.040  15.486   6.689 -0.2867  0.4940 -0.0173
    1W        W36429  21.616  23.674   0.078  0.1364 -0.3733 -0.0286
    1W        W36430  20.480   2.469   9.721 -0.3290  0.2601  0.0208
    1W        W36431   2.938  16.788   9.072 -0.2729 -0.1350  0.1989
    1W        W36432  10.888  27.806   8.878 -0.1834 -0.0365  0.2565
    1W        W36433  11.941   4.377   1.003 -0.2404  0.0416  0.1230
    1W        W36434  26.473  25.556   9.270 -0.2235 -0.0189  0.1927
    1W        W36435  21.602   2.377   0.042  0.0252  0.2542 -0.1470
    1W        W36436  25.690  19.441   2.154  0.2056 -0.0875 -0.0605
    1W        W36437   4.952  14.188   7.984  0.1196 -0.0801 -0.1010
    1W        W36438  21.341  21.020   9.510  0.2955  0.0989  0.1163
    1W        W36439   1.509  14.464   9.409 -0.0177 -0.2657 -0.3014
    1W        W36440  19.534  19.513   8.420  0.3473  0.0182 -0.0437
    1W        W36441  21.812   4.334   0.859 -0.3902  0.3146  0.0610
    1W        W36442  12.953  12.353   0.937 -0.2637 -0.1208  0.1780
    1W        W36443   5.527  24.069   6.337 -0.4178 -0.2572 -0.1553
    1W        W36444   1.365   7.086   0.303  0.3158  0.0174 -0.0051
    1W        W36445   8.533  17.276   9.477 -0.0754 -0.0718 -0.1265
    1W        W36446   7.625  15.648   1.315  0.2478  0.0668  0.2435
    1W        W36447  16.632   0.148   3.120  0.1875  0.2178  0.3769
    1W        W36448  23.327  18.827   7.505  0.0631  0.0681  0.0679
    1W        W36449  23.141   6.939   3.084 -0.2665  0.1012 -0.2664
    1W        W36450  25.043  21.785   2.597  0.0772 -0.0888 -0.1257
    1W        W36451  22.538   1.798   9.304 -0.1333 -0.0137 -0.1244
    1W        W36452   9.929  21.258   8.306 -0.0266  0.1273  0.3775
    1W        W36453  27.708   9.017   7.015  0.2661 -0.0444  0.1396
    1W        W36454  19.095  12.737   9.919  0.0316  0.1480 -0.0814
    1W        W36455   4.849  26.553   7.991  0.1816  0.0526 -0.0467
    1W        W36456  15.055  24.350   7.397 -0.0842 -0.0485 -0.1013
    1W        W36457  18.831  24.981   0.517 -0.0062  0.0853  0.0935
    1W        W36458  17.853   9.617   2.841  0.1763  0.2274 -0.2599
    1W        W36459   8.660  20.353   0.150  0.2584  0.2168 -0.1353
    1W        W36460   5.189  27.851   1.329 -0.0805  0.2776 -0.2965
    1W        W36461  25.547  21.628   2.614 -0.0352  0.1261 -0.1438
    1W        W36462  23.285  11.126   1.898  0.1583 -0.0756 -0.2069
    1W        W36463  14.998  15.980   0.843 -0.1353  0.0484 -0.2709
    1W        W36464  13.832   8.981   3.437  0.3222  0.2028 -0.2483
    1W        W36465  19.134  17.878   7.886 -0.2688 -0.0416  0.1687
    1W        W36466  24.391  12.723   6.438 -0.1109  0.0465  0.0146
    1W        W36467  27.161  22.266   1.929 -0.1438 -0.1274  0.0241
    1W        W36468   8.480  23.940   9.531  0.0306  0.0240 -0.0852
    1W        W36469  11.991  24.568   1.504 -0.1673  0.1208 -0.1497
    1W        W36470  19.868  24.275   1.244  0.0538 -0.1589  0.5292
    1W        W36471  18.119   9.066   0.627 -0.1565  0.4895  0.1875
    1W        W36472   5.420  22.021   0.539  0.5305  0.1382 -0.0627
    1W        W36473   7.561   0.937   2.075  0.1880  0.1372  0.0995
    1W        W36474   7.965  24.218   7.948 -0.0313  0.1859  0.0555
    1W        W36475  16.429  18.715   2.208  0.3332 -0.0971  0.2192
    1W        W36476   3.009   5.640   8.884 -0.0176  0.2531  0.0963
    1W        W36477  28.339  20.473   9.355  0.2507 -0.0641 -0.2673
    1W        W36478   6.860  27.352   8.067  0.0600  0.3335  0.0225
    1W        W36479  26.589  24.294   9.331  0.1936 -0.1172  0.4151
    1W        W36480  23.047   7.682   2.065  0.4425  0.0757  0.3003
    1W        W36481  24.622  14.452   2.024 -0.2611  0.2836 -0.1422
    1W        W36482   5.799  10.703   9.735 -0.0242  0.2673  0.0515
    1W        W36483  21.819  21.266   2.200  0.1222 -0.0697  0.1562
    1W        W36484   8.055   3.293   8.586  0.0892 -0.3863  0.1959
    1W        W36485  18.711  21.686   7.247 -0.0019  0.2635 -0.1299
    1W        W36486   8.931  14.842   0.069 -0.3655  0.1918 -0.1984
    1W        W36487  16.549   3.210   8.422 -0.0799 -0.0140 -0.2036
    1W        W36488  11.041   9.650   2.554 -0.1880 -0.2802  0.3219
    1W        W36489   7.593  19.953   8.468 -0.3268  0.0784 -0.1930
    1W        W36490   7.923  21.216   0.174  0.0108  0.0262  0.0798
    1W        W36491  13.192   2.996   8.818 -0.0308 -0.3040 -0.0255
    1W        W36492   5.189   2.547   2.139  0.0460  0.0002  0.0608
    1W        W36493  28.370   6.800   9.657 -0.0312  0.0284 -0.3681
    1W        W36494  15.407  24.702   6.960  0.1091 -0.0218 -0.0100
    1W        W36495   0.013   0.700   7.291  0.0536  0.1686  0.1553
    1W        W36496   5.876   3.212   8.800 -0.1815 -0.0022 -0.0915
    1W        W36497  28.593  20.775   0.354  0.1893 -0.1280  0.1535
    1W        W36498  23.278  11.293   8.930 -0.1279 -0.0801 -0.0087
    1W        W36499   8.318  25.874   2.210  0.0408 -0.1695 -0.0335
    1W        W36500   1.079  14.403   9.092  0.2396 -0.1038 -0.3905
    1W        W36501  13.186  20.453   8.854 -0.0662 -0.2650  0.2583
    1W        W36502  28.236  14.747   7.398  0.1648  0.0101  0.1126
    1W        W36503  12.851   9.456   1.277 -0.0609 -0.0115  0.2663
    1W        W36504  20.720   2.808   7.363  0.2493  0.2532  0.3220
    1W        W36505  23.058   3.159   7.437  0.1702 -0.1416  0.0988
    1W        W36506  24.189   2.147   8.790  0.2039  0.1547  0.1650
    1W        W36507  10.959   1.513   7.345  0.0276 -0.0411 -0.0917
    1W        W36508   1.306  28.490   2.224  0.1693 -0.2536  0.1918
    1W        W36509  21.854  21.024   0.767  0.1924  0.2953 -0.2032
    1W        W36510  16.629  15.534   7.331  0.0047 -0.1722  0.1204
    1W        W36511  17.491  15.669   2.012 -0.0564 -0.1073  0.3618
    1W        W36512   3.492  15.353   8.215 -0.1582  0.4035  0.0580
    1W        W36513  24.202  17.863   7.641 -0.1525  0.4272  0.0776
    1W        W36514  28.594   9.353   7.111 -0.0848  0.1016  0.0718
    1W        W36515   0.239  11.372   7.437 -0.1974 -0.1373 -0.2793
    1W        W36516  11.354  21.366   3.255 -0.0652  0.4034  0.1184
    1W        W36517  23.039   2.436   9.471 -0.2227 -0.1182  0.0278
    1W        W36518   6.246  22.070   0.253  0.3030 -0.0989  0.0883
    1W        W36519  23.988   1.190   7.115 -0.0811 -0.2912  0.0692
    1W        W36520  20.581   4.239   1.948 -0.0606 -0.0028 -0.1407
    1W        W36521  21.546  17.644   0.803  0.0441  0.2408  0.0893
    1W        W36522  12.908   1.907   2.081  0.2697  0.0150 -0.1189
    1W        W36523  25.572  10.787   2.154  0.0243 -0.1110  0.1575
    1W        W36524  23.219  26.079   1.445  0.1576 -0.0948  0.3954
    1W        W36525  10.852  21.875   8.237  0.1176  0.1685 -0.1644
    1W        W36526  17.319   2.917   9.905 -0.3067 -0.1201  0.1238
    1W        W36527  18.610   3.317   2.618  0.2710  0.0446 -0.0276
    1W        W36528  20.611  24.782   9.014  0.0011  0.2380 -0.0237
    1W        W36529  23.085   3.269   9.295 -0.2080 -0.2106  0.0751
    1W        W36530  13.832   9.627   1.289 -0.0086  0.0100  0.0249
    1W        W36531   2.345  11.406   1.587  0.2640 -0.0478 -0.0703
    1W        W36532  16.645  12.757   2.053  0.2490  0.1685 -0.0778
    1W        W36533  14.002  24.325   9.160  0.1058 -0.4014  0.0259
    1W        W36534  18.105   8.458   9.746  0.3173  0.1039 -0.1082
    1W        W36535   5.531   9.878   1.670 -0.3119 -0.0077 -0.1839
    1W        W36536   3.185   7.492   1.518  0.0983  0.4573 -0.2389
    1W        W36537   9.186  15.614   1.078 -0.0652  0.1118  0.0739
    1W        W36538  12.155   9.147   0.589 -0.1039  0.0613  0.0835
    1W        W36539  22.968  16.774   7.644  0.0928  0.2892  0.1105
    1W        W36540  20.773   6.523   6.616  0.2492  0.0961 -0.0980
    1W        W36541  14.337  21.979   1.998 -0.2228  0.1858 -0.1309
    1W        W36542  27.046   7.499   8.855 -0.2349  0.2309 -0.0214
    1W        W36543  13.582  21.606   8.075  0.3002 -0.1264 -0.1348
    1W        W36544   6.812   5.696   7.958 -0.0369  0.0779  0.0085
    1W        W36545   4.715   5.066   3.313  0.0576 -0.0003  0.1522
    1W        W36546  24.440   8.169   1.909 -0.1073 -0.3767  0.0316
    1W        W36547  12.338   5.100   1.366 -0.2015  0.1682  0.0543
    1W        W36548  11.993   0.503   8.277  0.0455 -0.3715  0.3105
    1W        W36549  19.814   6.450   2.690  0.1734 -0.2050 -0.0913
    1W        W36550  11.485   7.231   9.041  0.0951 -0.0817  0.1139
    1W        W36551  25.856  17.083   8.870  0.0856  0.0239 -0.1515
    1W        W36552  16.505  20.669   9.006  0.2065 -0.4036  0.2752
    1W        W36553  14.182  15.533   0.109 -0.1856  0.2017  0.2767
    1W        W36554   9.161   9.996   7.191 -0.0392  0.1180  0.1496
    1W        W36555  25.861  17.825   2.218 -0.0145 -0.0402 -0.0046
    1W        W36556   2.706  16.399   8.343  0.0689  0.0561  0.2771
    1W        W36557  14.557  20.059   1.885  0.1551  0.3234  0.0337
    1W        W36558   2.964  21.862   1.859  0.0311  0.0817  0.0577
    1W        W36559  27.541  16.595   8.796 -0.0799 -0.3146  0.1553
    1W        W36560   9.970   4.528   0.744 -0.0043 -0.0104 -0.0094
    1W        W36561  17.449  12.907   9.664 -0.0045 -0.0351 -0.0020
    1W        W36562  11.356  20.737   1.680  0.1198 -0.1467 -0.1747
    1W        W36563  28.015  16.432   8.914  0.1153 -0.3000  0.3735
    1W        W36564   8.857  20.232   8.656  0.0295 -0.1888 -0.0265
    1W        W36565  10.486  19.319   1.256 -0.0469 -0.1655 -0.0432
    1W        W36566  21.770  16.466   8.779  0.1856 -0.0301  0.0837
    1W        W36567  11.958  19.301   2.866 -0.0968 -0.2125  0.0799
    1W        W36568  18.863   6.967   9.027 -0.0487 -0.0607 -0.1271
    1W        W36569  14.726  24.142   9.876 -0.3368  0.0162 -0.0929
    1W        W36570  28.299   5.774   0.416 -0.0579 -0.1400  0.4709
    1W        W36571   8.677   2.015   0.086 -0.1347  0.2757  0.4891
    1W        W36572   9.304   1.234   0.744 -0.0986 -0.1367  0.0911
    1W        W36573  15.490  11.134   1.127 -0.2792  0.0118  0.1126
    1W        W36574   5.285  28.129   2.731 -0.1120 -0.1606  0.3797
    1W        W36575   1.235  27.357   2.096 -0.0064 -0.3066  0.0918
    1W        W36576  26.817  22.549   0.040 -0.4299 -0.2603 -0.2911
    1W        W36577  13.333   6.130   8.616  0.3055  0.0161 -0.0605
    1W        W36578  15.762  21.083   2.733 -0.3355  0.0568  0.0250
    1W        W36579  22.078   4.090   9.116 -0.1586 -0.0108  0.2898
    1W        W36580   2.665   1.745   0.886  0.0849 -0.2522  0.0501
    1W        W36581   4.444  23.431   9.462  0.0309 -0.2878  0.2951
    1W        W36582   3.647  17.450   0.408 -0.1478 -0.1652  0.2270
    1W        W36583  15.642  11.490   9.693 -0.1976 -0.1174 -0.0595
    1W        W36584  20.401  24.361   9.208 -0.1476 -0.1106  0.1662
    1W        W36585  19.343  13.775   1.551 -0.3346  0.1879 -0.3017
    1W        W36586  21.189  10.144   2.396  0.0155  0.2063 -0.0084
    1W        W36587  15.348   3.463   0.899  0.2552  0.0276  0.0152
    1W        W36588   6.305  16.863   1.744  0.0666 -0.1931  0.1262
    1W        W36589  26.560  19.538   6.214  0.1373 -0.2545 -0.0410
    1W        W36590  12.317  21.334   0.837  0.2589  0.0005 -0.1052
    1W        W36591  15.056  21.567   2.091 -0.0690  0.0132  0.4223
    1W        W36592  19.505   3.460   2.123  0.1498  0.2604  0.1113
    1W        W36593  27.851  24.096   9.864 -0.0552  0.1868 -0.1418
    1W        W36594  28.463  19.713   8.509 -0.2301 -0.0905  0.1270
    1W        W36595  20.705  23.034   9.420  0.2289  0.1229  0.0579
    1W        W36596   1.097  17.259   0.905  0.0618  0.0048 -0.1780
    1W        W36597  14.177   7.293   0.701  0.0897 -0.1610 -0.1304
    1W        W36598  15.174   3.103   8.233 -0.1142 -0.2769 -0.3052
    1W        W36599  27.329  27.949   8.644  0.1472 -0.0174 -0.1881
    1W        W36600  24.734  26.825   8.809 -0.2889  0.1217 -0.1528
    1W        W36601  26.727  23.086   8.656 -0.3119 -0.2084 -0.3045
    1W        W36602  19.283  10.710   6.797 -0.3552 -0.0453 -0.1475
    1W        W36603   4.551   0.793   9.406 -0.0269  0.2575  0.0348
    1W        W36604  23.386  17.255   2.370 -0.3050 -0.2922  0.0090
    1W        W36605  22.401   6.052   1.026  0.1999  0.2717 -0.1748
    1W        W36606  15.305   0.438   1.338  0.1395  0.1284  0.2672
    1W        W36607  18.869  18.688   2.795 -0.1018  0.0025 -0.2556
    1W        W36608  17.268  28.359   7.064 -0.1876  0.0308  0.3092
    1W        W36609  12.968  22.277   2.378 -0.0270 -0.0358  0.0027
    1W        W36610   5.897  14.674   2.557 -0.2971  0.1454 -0.0024
    1W        W36611  10.959  24.395   9.579 -0.1098  0.2228  0.1842
    1W        W36612   7.212  13.200   2.107 -0.0472 -0.1052  0.0267
    1W        W36613  21.076  24.545   0.071  0.0866  0.4660 -0.2079
    1W        W36614  18.431  13.242   7.478 -0.1941 -0.0109  0.0314
    1W        W36615   6.824   7.657   9.362 -0.0764  0.1256 -0.0551
    1W        W36616   2.327  24.740   7.077 -0.0183  0.0198 -0.1002
    1W        W36617   1.436   6.370   8.072  0.1022  0.0644  0.2543
    1W        W36618  21.433  20.894   1.305 -0.0340 -0.3061 -0.0128
    1W        W36619  17.378  14.713   8.291  0.0986 -0.2856  0.2001
    1W        W36620   2.641  17.026   1.172 -0.1593  0.1046  0.0701
    1W        W36621   0.720  25.938   8.130 -0.1863  0.4183  0.1017
    1W        W36622  19.930   5.321   3.494  0.0709 -0.1524  0.2081
    1W        W36623  10.057   8.165   0.056  0.1272 -0.1931  0.3990
    1W        W36624  19.435   9.942   8.682  0.1744  0.0802  0.1819
    1W        W36625  20.638  22.490   9.381 -0.0090 -0.0654 -0.2101
    1W        W36626   0.288  20.512   0.413 -0.2102 -0.0812 -0.0670
    1W        W36627  11.246  21.050   6.583  0.0516  0.0210 -0.1611
    1W        W36628  19.694   5.463   7.328 -0.2195  0.0079  0.2216
    1W        W36629   5.361  19.183   0.811  0.1314  0.0653 -0.2680
    1W        W36630  17.994   2.032   7.661  0.1230  0.0878  0.0751
    1W        W36631  23.020   0.430   9.469 -0.0631 -0.1078 -0.1926
    1W        W36632   2.914  18.842   0.168 -0.0356 -0.1165 -0.0626
    1W        W36633  23.661  16.662   5.781  0.0131  0.0881 -0.1380
    1W        W36634  13.407   0.250   3.404 -0.3099  0.1875 -0.1433
    1W        W36635   3.569  15.372   9.654  0.2738  0.1404  0.3557
    1W        W36636  26.731  11.901   7.603  0.1447  0.1452  0.1150
    1W        W36637   9.648  27.451   7.793  0.2203  0.0294 -0.2464
    1W        W36638  15.981   4.095   9.662 -0.0931 -0.4909 -0.1262
    1W        W36639   3.405  28.602   8.109  0.0783  0.0723  0.0526
    1W        W36640   9.882   3.590   0.181 -0.0858  0.0103  0.0257
    1W        W36641   1.915   6.472   7.281 -0.1882 -0.3826  0.0594
    1W        W36642  11.861  20.711   7.711 -0.0415 -0.1268 -0.1610
    1W        W36643  17.834   6.005   2.448  0.0952  0.0255  0.1653
    1W        W36644   4.707   3.559   8.822  0.3188 -0.1569  0.0379
    1W        W36645  26.274  19.368   9.190 -0.1808 -0.0470  0.1281
    1W        W36646   0.691  24.272   1.710  0.1198 -0.4514  0.1231
    1W        W36647  20.638  25.898   2.426  0.2579  0.0555 -0.3500
    1W        W36648   8.969  13.700   7.737 -0.2496 -0.0355  0.0542
    1W        W36649  11.327   1.340   3.213  0.0770  0.0151  0.2509
    1W        W36650  21.362  18.473   7.450 -0.1564 -0.0308  0.1593
    1W        W36651  17.007  15.981   1.315  0.1163  0.2153 -0.1470
    1W        W36652   8.501   9.482   1.998  0.1221 -0.0680 -0.3300
    1W        W36653  18.123   1.154   1.148  0.1507 -0.0969  0.0510
    1W        W36654  25.175   5.078   7.592  0.2726  0.5494  0.0964
    1W        W36655  14.291  11.799   0.359  0.0135 -0.2549  0.1767
    1W        W36656   0.745  17.189   8.853 -0.0691  0.0915  0.0835
    1W        W36657   7.662   1.601   1.748  0.0273  0.0983 -0.1573
    1W        W36658  20.371  14.466   8.591  0.1970  0.0015  0.1514
    1W        W36659   4.358   6.814   9.572 -0.2424  0.3447  0.1732
    1W        W36660   9.042  22.529   0.395 -0.3413  0.3786  0.2304
    1W        W36661  25.968  15.716   1.493 -0.0332  0.2981  0.1503
    1W        W36662  27.597  25.884   2.348 -0.1243 -0.1908 -0.3335
    1W        W36663  16.173  17.448   1.964 -0.1607  0.1966 -0.1512
    1W        W36664   9.899  15.014   9.371 -0.0325 -0.1143 -0.0945
    1W        W36665   4.257   9.716   8.987 -0.1037 -0.0035  0.1361
    1W        W36666  26.390   5.358   2.418  0.0066  0.2003 -0.0807
    1W        W36667  27.095  21.165   8.881  0.0593 -0.0407 -0.2413
    1W        W36668   4.675   8.671   6.994  0.2758  0.3457  0.0431
    1W        W36669  19.204  21.132   3.052  0.2957 -0.2155  0.3058
    1W        W36670   4.919   3.112   9.197 -0.0678 -0.0282 -0.1079
    1W        W36671  24.623   4.898   9.310 -0.0604  0.1649 -0.1689
    1W        W36672  19.891  12.993   9.672 -0.0456  0.0210  0.1053
    1W        W36673  19.484   2.404   9.177 -0.0994  0.4104  0.0263
    1W        W36674  24.297  13.173   8.969 -0.1336  0.0329 -0.2849
    1W        W36675   6.045  26.301   8.805  0.0172 -0.1537  0.0088
    1W        W36676  19.247   9.760   0.771 -0.1977  0.2764 -0.1370
    1W        W36677  21.309  18.798   7.991  0.0118  0.2057 -0.0416
    1W        W36678   2.515  28.256   8.415  0.1968 -0.2974 -0.2569
    1W        W36679  16.324  25.915   8.199  0.0381 -0.4653 -0.2305
    1W        W36680  28.221  14.073   7.487 -0.0507  0.0217 -0.2344
    1W        W36681  28.190   9.303   6.834 -0.0369 -0.0432 -0.1047
    1W        W36682   9.598  21.936   1.362  0.0305 -0.2543 -0.0910
    1W        W36683   4.435  18.504   1.805 -0.2197  0.0044 -0.0615
    1W        W36684  20.096  18.764   3.568 -0.0481  0.1130 -0.2068
    1W        W36685  14.586   3.657   0.773 -0.1203 -0.0723  0.2194
    1W        W36686   1.328  17.672   6.291 -0.1301  0.0635  0.2473
    1W        W36687  20.656  19.674   1.439  0.1859 -0.0941 -0.0631
    1W        W36688   3.728  20.732   9.383  0.0374  0.1786 -0.0085
    1W        W36689  14.813  23.333   0.257 -0.2139 -0.2122  0.1475
    1W        W36690  26.752  19.910   9.870  0.1586  0.0825 -0.1990
    1W        W36691   7.485  16.883   2.100 -0.1258 -0.3290  0.2380
    1W        W36692   6.725   5.182   3.093  0.3253  0.1165 -0.1768
    1W        W36693   6.144  24.972   2.844 -0.2839 -0.3796  0.0552
    1W        W36694  28.569  10.282   9.680  0.3683  0.3113 -0.0824
    1W        W36695  24.825   2.988   0.888  0.0636  0.1196  0.0379
    1W        W36696  16.717   2.315   3.219  0.1368  0.0859  0.1629
    1W        W36697   8.031  16.737   7.357 -0.1011  0.1522 -0.1770
    1W        W36698   1.704  11.330   2.240 -0.1592  0.3958  0.0685
    1W        W36699   6.396   7.143   1.874  0.1958  0.3332 -0.3075
    1W        W36700  17.086   2.444   9.742  0.0371  0.2821 -0.0050
    1W        W36701  13.037  24.476   9.607 -0.0587  0.4364 -0.0595
    1W        W36702   2.604  10.098   6.554  0.2496  0.1233 -0.0451
    1W        W36703  27.117   3.476   9.795 -0.0619 -0.0166 -0.1771
    1W        W36704  16.084  26.405   7.057 -0.0375 -0.0557  0.0145
    1W        W36705   7.930   1.280   0.735  0.1688 -0.0553 -0.0601
    1W        W36706  24.328  14.084   0.446  0.3355 -0.2117  0.2459
    1W        W36707  15.759   1.856   1.452  0.0303 -0.1185 -0.1759
    1W        W36708  24.675  15.312   9.943  0.0283  0.1887  0.1060
    1W        W36709  26.852  25.064   7.527  0.0293  0.0296  0.3035
    1W        W36710   3.816  10.569   1.579  0.0053 -0.0845 -0.1134
    1W        W36711  27.812  25.667   2.836  0.1822  0.1342 -0.0154
    1W        W36712  19.835  21.421   7.224  0.1528 -0.1777 -0.0552
    1W        W36713  10.613  12.554   1.536  0.0554  0.2284 -0.1314
    1W        W36714  16.048  18.118   2.747  0.2219  0.1707  0.2916
    1W        W36715  24.012  16.002   1.026 -0.0430  0.0317 -0.1105
    1W        W36716  19.013  10.584   2.313  0.1916  0.1855 -0.1463
    1W        W36717  26.946   9.940   9.240 -0.2921 -0.0334  0.1043
    1W        W36718   2.261   4.203   1.656  0.2570 -0.0197  0.0238
    1W        W36719   4.988   1.701   2.486  0.1273 -0.1059  0.2504
    1W        W36720  10.517   0.398   3.807 -0.1622 -0.1993  0.0766
    1W        W36721  11.194  28.643   8.311  0.0454 -0.0754 -0.1702
    1W        W36722  28.501   7.510   2.161  0.0589  0.2790 -0.1344
    1W        W36723  13.256  21.268   0.516  0.0573 -0.2897  0.0683
    1W        W36724  18.786  24.227   1.093  0.2373  0.0206 -0.1087
    1W        W36725   8.326   7.473   8.789  0.1248  0.2214 -0.2259
    1W        W36726  27.141   0.517   8.634 -0.0393  0.1809 -0.1796
    1W        W36727  25.607  23.529   0.728 -0.0390 -0.0310 -0.2691
    1W        W36728  24.237  13.753   1.464 -0.3146 -0.1458  0.0608
    1W        W36729  18.857  12.777   1.465  0.2649 -0.0942 -0.0461
    1W        W36730   4.482   8.674   9.076  0.1202  0.1441 -0.0078
    1W        W36731  24.459  18.213   7.380 -0.0692  0.0474  0.0178
    1W        W36732   4.754  27.499   8.536  0.2022 -0.0328 -0.2082
    1W        W36733  10.892   8.967   1.125  0.2201  0.0112  0.0894
    1W        W36734   8.599  27.905   9.264 -0.3295  0.1032 -0.3846
    1W        W36735  26.397   3.222   3.784 -0.2429  0.1129 -0.2200
    1W        W36736  17.093   7.822   1.095  0.0847  0.0742  0.2278
    1W        W36737  22.206  24.658   0.314  0.2675 -0.5010 -0.0868
    1W        W36738   7.088   6.628   7.353 -0.0330 -0.0302 -0.0037
    1W        W36739   2.659  26.856   9.866  0.1303  0.0330  0.1333
    1W        W36740  22.054  28.067   0.405 -0.0063 -0.4108 -0.3520
    1W        W36741   2.381  13.566   8.725  0.2530  0.0297  0.5720
    1W        W36742   6.070  25.550   7.252  0.2051 -0.1619 -0.5282
    1W        W36743   6.545   6.049   2.737  0.0233 -0.0217 -0.1935
    1W        W36744   1.178   5.196   1.657 -0.0773 -0.1252  0.0194
    1W        W36745   2.911   8.055   9.318  0.0342 -0.2028  0.1750
    1W        W36746  14.431   2.965   1.281 -0.1275  0.0345 -0.0502
    1W        W36747  26.740   1.643   1.067 -0.0518 -0.6125  0.0370
    1W        W36748  16.331  25.103   0.843 -0.0693 -0.2376 -0.1630
    1W        W36749  25.790  20.748   8.151  0.1281  0.1219  0.0753
    1W        W36750  17.805  11.516   7.018  0.1095  0.0051  0.1511
    1W        W36751  21.002   6.983   7.941 -0.0355 -0.1556  0.1521
    1W        W36752  11.422   2.961   4.077  0.3039 -0.0805 -0.0592
    1W        W36753  13.202   7.950   0.086  0.0919 -0.2218 -0.1265
    1W        W36754   7.997  28.594   8.797  0.2001  0.1361  0.1598
    1W        W36755  27.557  17.047   8.485 -0.2513 -0.1358  0.0735
    1W        W36756  14.777  24.821   2.175 -0.2273 -0.0557  0.0444
    1W        W36757  25.523   7.014   8.395 -0.2758  0.0107 -0.1329
    1W        W36758   8.728  15.565   7.768 -0.3146 -0.0290  0.1719
    1W        W36759   2.571   7.972   7.467  0.0556 -0.1501  0.1851
    1W        W36760   8.905  24.458   0.166  0.0423  0.0072  0.1219
    1W        W36761   9.870  21.687   8.565 -0.4931 -0.1207  0.1039
    1W        W36762  24.192   1.656   2.173  0.3354  0.0152  0.0017
    1W        W36763  18.425   4.872   2.429 -0.0655  0.1910  0.0134
    1W        W36764   8.516  26.699   7.598  0.3847  0.0400  0.2664
    1W        W36765   9.304  18.600   1.288 -0.0580  0.0861  0.0007
    1W        W36766   5.750  28.311   6.675 -0.0927  0.0193 -0.1735
    1W        W36767  17.227   9.296   0.233  0.0274  0.1257  0.0323
    1W        W36768  18.819  16.163   7.080  0.2924 -0.1994  0.0400
    1W        W36769   7.264  22.451   2.364 -0.0816  0.3127 -0.0959
    1W        W36770  13.214  18.290   1.127  0.0040  0.0698  0.0544
    1W        W36771  26.145   4.448   3.901 -0.3565  0.0246 -0.0358
    1W        W36772  11.816  11.939   9.784 -0.0182 -0.0399 -0.0804
    1W        W36773  20.783  26.603   7.143  0.0884  0.1815 -0.0760
    1W        W36774  15.528  23.928   2.456 -0.2381 -0.0417  0.1330
    1W        W36775  14.445  20.472   2.147  0.0465 -0.3380 -0.1781
    1W        W36776   2.273   4.093   9.047  0.1429  0.0493  0.1658
    1W        W36777   5.787   9.114   8.011 -0.3165  0.0367  0.2490
    1W        W36778  27.778  19.700   9.881  0.0352 -0.0849 -0.0310
    1W        W36779   2.926   6.042   6.584 -0.2842 -0.1654 -0.3639
    1W        W36780   8.125  11.299   7.672  0.0772  0.2641  0.2649
    1W        W36781  13.203  27.375   8.379  0.0776  0.0520  0.4930
    1W        W36782   5.593  13.921   1.816 -0.2905 -0.2877  0.1714
    1W        W36783  12.245  28.307   2.868 -0.1872 -0.0242 -0.0150
    1W        W36784  18.227  19.708   0.269 -0.1766  0.2866  0.1792
    1W        W36785  10.805  27.944   8.342 -0.2584  0.0229 -0.3325
    1W        W36786  25.131  28.345   0.288  0.0879 -0.1799  0.1783
    1W        W36787   2.749   0.653   0.300  0.1796  0.0686 -0.0397
    1W        W36788   8.990   2.468   8.096 -0.2591 -0.2371  0.1920
    1W        W36789  24.265  22.442   1.018 -0.2659 -0.1673 -0.1357
    1W        W36790   2.975  11.159   7.373 -0.3275 -0.0936  0.1318
    1W        W36791   4.803  23.105   6.100  0.0375  0.0519 -0.2379
    1W        W36792  20.440  22.703   3.296 -0.0452  0.0832 -0.1143
    1W        W36793   7.955   6.648   0.551 -0.1691  0.1483 -0.1009
    1W        W36794  11.250  11.128   8.255 -0.1248  0.1987  0.3643
    1W        W36795   9.135  12.827   1.242 -0.1092 -0.0416  0.0296
    1W        W36796   8.562   2.185   1.857 -0.0094 -0.1914 -0.2161
    1W        W36797  21.399  28.649   2.249  0.0892 -0.0319 -0.2481
    1W        W36798   1.134  12.422   6.012  0.0158 -0.1253 -0.1905
    1W        W36799  27.397  15.554   8.799 -0.2644  0.0855  0.1572
    1W        W36800  28.297  24.043   0.775 -0.0446 -0.1238  0.1202
    1W        W36801   5.772  19.270   6.934  0.0644 -0.2522  0.1389
    1W        W36802  19.958   5.980   2.609  0.1981 -0.1941  0.2396
    1W        W36803   8.856  16.636   7.798 -0.3032  0.1058  0.0782
    1W        W36804  15.320   9.825   9.363 -0.0069  0.0884 -0.3292
    1W        W36805   4.243   0.224   1.239  0.4403 -0.0650 -0.2755
    1W        W36806  25.991  22.169   0.855 -0.2253  0.1300 -0.1320
    1W        W36807  21.447  13.688   9.939  0.1728 -0.2939 -0.1081
    1W        W36808  21.800   4.386   7.699  0.1452  0.0507  0.0886
    1W        W36809   2.456  20.023   9.291  0.1260  0.0171 -0.0579
    1W        W36810  26.285  21.162   7.848  0.2296 -0.0221 -0.0335
    1W        W36811  17.160  11.738   2.414 -0.1170  0.0516  0.1832
    1W        W36812  21.305   6.232   7.515 -0.1240  0.0222  0.5382
    1W        W36813  13.410  22.709   7.907 -0.2383  0.3076 -0.1464
    1W        W36814  24.677  25.622   8.053 -0.1473 -0.0330  0.1070
    1W        W36815  18.434  15.171   9.228 -0.1679 -0.1537  0.0916
    1W        W36816   7.663  19.722   1.383  0.0813  0.0982 -0.0480
    1W        W36817  16.243  26.847   2.075  0.0855 -0.5288  0.0184
    1W        W36818  12.008  28.427   1.800 -0.1158 -0.2485 -0.0773
    1W        W36819   8.505  24.002   2.153  0.0377  0.2402 -0.0906
    1W        W36820   6.303   0.698   3.789 -0.2681  0.0108 -0.0755
    1W        W36821   0.996  12.075   7.815  0.0002 -0.1414 -0.0295
    1W        W36822  16.489   5.200   8.529  0.0016  0.1715 -0.1472
    1W        W36823  10.261   9.463   9.027  0.0112 -0.1222  0.1025
    1W        W36824  26.331  14.064   7.543 -0.1417 -0.1248  0.2518
    1W        W36825  28.061  21.750   9.678  0.0031 -0.0127  0.2286
    1W        W36826  14.490   7.808   0.212  0.0145  0.2784  0.0066
    1W        W36827  24.042  17.990   9.355  0.1002 -0.3797  0.0535
    1W        W36828  14.223   0.242   1.743 -0.2308  0.5975  0.0830
    1W        W36829  26.762  18.255   7.298 -0.3312  0.0973 -0.3371
    1W        W36830  18.290  27.337   3.349 -0.1149 -0.2069 -0.0141
    1W        W36831  18.529  27.873   9.699  0.0968  0.0680  0.0051
    1W        W36832  25.579   3.376   1.452 -0.3889  0.0467 -0.4555
    1W        W36833   2.433   8.204   8.330 -0.1671 -0.1271  0.2102
    1W        W36834  14.697  27.979   1.447 -0.3527  0.0885  0.0498
    1W        W36835   5.617  22.723   0.772 -0.2242 -0.0288  0.0812
    1W        W36836  28.449  21.290   1.785  0.1042 -0.0200  0.1714
    1W        W36837  11.477   1.615   0.976 -0.2775  0.2401  0.1037
    1W        W36838  21.507   3.090   9.573  0.0810 -0.0841 -0.0970
    1W        W36839  26.892  16.600   9.588 -0.1711  0.0353  0.1660
    1W        W36840  18.854   0.348   9.829  0.1347  0.1435 -0.2606
    1W        W36841  27.040   6.083   8.550  0.0130 -0.0538  0.0623
    1W        W36842   1.833  15.098   1.651  0.3514 -0.1558 -0.2749
    1W        W36843  27.010  13.547   9.867  0.2208  0.1250  0.1255
    1W        W36844   3.800  21.884   7.149 -0.2339  0.3751  0.2018
    1W        W36845  24.707   7.951   7.084  0.2917 -0.0885 -0.0604
    1W        W36846  12.558   6.587   8.537 -0.1350  0.2287 -0.2679
    1W        W36847   7.005  14.824   9.398 -0.1019  0.4087  0.0590
    1W        W36848   9.626   3.584   1.512 -0.0644  0.0588 -0.0068
    1W        W36849  12.019  18.901   8.537  0.0941 -0.1479  0.0295
    1W        W36850  21.800   4.048   1.275 -0.2848  0.1965 -0.3141
    1W        W36851  27.582  19.898   8.603 -0.0422  0.0251  0.1708
    1W        W36852  17.493  19.917   1.928  0.1174 -0.2813 -0.3005
    1W        W36853  17.750  13.491   1.193 -0.1388  0.2185 -0.2610
    1W        W36854   3.842   3.568   2.525  0.0813  0.2310 -0.4566
    1W        W36855  23.112  26.925   9.579 -0.1363  0.0769  0.0737
    1W        W36856  22.764  24.719   1.267  0.1368  0.0034 -0.1609
    1W        W36857  22.808  18.115   8.892  0.3085  0.1540 -0.0395
    1W        W36858  22.225  24.836   7.902 -0.2277 -0.1075  0.2117
    1W        W36859   1.992  26.805   2.463  0.1230  0.1997 -0.0376
    1W        W36860   9.794  19.201   7.741  0.0413 -0.2277  0.0651
    1W        W36861   4.360   9.137   9.841  0.0874 -0.0356  0.1369
    1W        W36862   0.722  19.376   9.212  0.1250  0.0171 -0.0339
    1W        W36863   7.751   3.915   1.288  0.2140  0.0240 -0.2650
    1W        W36864  20.092   1.082   0.823 -0.2214 -0.0242  0.1957
    1W        W36865   5.308  25.864   6.262  0.0680  0.3865  0.1484
    1W        W36866  12.477  12.215   2.295 -0.2692 -0.0186 -0.2648
    1W        W36867   3.875  13.382   1.613  0.0024  0.2578 -0.0310
    1W        W36868   5.993  13.608   1.563  0.0582 -0.0199 -0.0511
    1W        W36869  18.236  25.812   8.473 -0.0517  0.2388  0.1702
    1W        W36870  10.127  17.250   6.587 -0.1061 -0.0768 -0.0271
    1W        W36871  15.805  25.081   1.977 -0.2705 -0.1776  0.0078
    1W        W36872  14.811   5.513   3.953  0.0890  0.1215  0.0513
    1W        W36873  13.036  13.829   0.291  0.1887 -0.0434 -0.1184
    1W        W36874   8.139   9.094   8.865 -0.1216 -0.0471 -0.1385
    1W        W36875  12.170  16.878   1.275 -0.1251  0.2041  0.2422
    1W        W36876  22.621   1.298   7.114 -0.2900  0.0480  0.1512
    1W        W36877   7.672  13.891   1.910 -0.0585 -0.0207 -0.0308
    1W        W36878  26.881   4.384   1.243 -0.0933 -0.2716  0.1330
    1W        W36879  11.483  19.767   8.319  0.1287  0.0455 -0.0501
    1W        W36880  22.604  25.758   8.869 -0.1936  0.3129  0.0234
    1W        W36881  12.321   1.967   2.414 -0.1361  0.0170 -0.1442
    1W        W36882  15.438   4.329   7.953  0.1223 -0.0072 -0.4572
    1W        W36883  12.898   5.325   8.159 -0.0192  0.1849 -0.1088
    1W        W36884   9.587   1.306   2.498  0.1455  0.0933  0.0406
    1W        W36885   0.058  10.652   0.012  0.2684  0.0783  0.1124
    1W        W36886   0.882  20.286   8.737  0.3371 -0.0839 -0.0405
    1W        W36887   6.286  12.398   1.010 -0.2342 -0.0149  0.2667
    1W        W36888  25.166   9.236   2.145  0.1820  0.1516  0.2557
    1W        W36889  27.204   4.673   2.098 -0.1015 -0.0384 -0.0473
    1W        W36890   8.107  11.677   9.432 -0.0199 -0.3269  0.0181
    1W        W36891  28.242  17.809   6.516  0.0028 -0.2232 -0.1089
    1W        W36892  13.048  15.151   2.288  0.0664 -0.1101 -0.1843
    1W        W36893  24.364   2.371   0.802  0.0081  0.1361 -0.0888
    1W        W36894  17.637   9.615   7.549  0.1033  0.0453  0.1679
    1W        W36895   1.742  14.477   0.181 -0.1012 -0.1072  0.4755
    1W        W36896  26.492  15.809   7.223 -0.3830  0.0713 -0.0691
    1W        W36897  20.293   2.165   7.047 -0.0064  0.2700  0.1672
    1W        W36898  11.563   8.552   2.643 -0.3366 -0.0713 -0.0614
    1W        W36899   0.093  27.749   7.403 -0.0325 -0.0308  0.0723
    1W        W36900  11.803   3.874   0.256 -0.0777 -0.0562  0.0067
    1W        W36901  10.207   9.632   3.226 -0.1920 -0.1362 -0.0020
    1W        W36902  26.226   6.658   7.180 -0.0319 -0.0205 -0.1424
    1W        W36903   8.425   8.794   7.382  0.2599 -0.0780 -0.4054
    1W        W36904   7.385   6.409   2.853  0.0169 -0.1769  0.1826
    1W        W36905  24.498  16.688   1.439 -0.2950  0.0518  0.1427
    1W        W36906  11.229   6.563   1.834  0.0993 -0.1388  0.0022
    1W        W36907   4.541   6.535   8.700 -0.2092  0.0390  0.2569
    1W        W36908  11.354  12.173   1.859  0.0375  0.2251  0.1179
    1W        W36909   8.292  21.527   7.350  0.3275  0.1998 -0.0999
    1W        W36910   1.951   8.316   1.169  0.1864 -0.0811 -0.0621
    1W        W36911  16.811   5.643   8.433 -0.0738 -0.0896  0.1189
    1W        W36912  13.609  25.253   3.129 -0.3559  0.0603  0.1961
    1W        W36913  17.409  14.196   1.838 -0.2232  0.2383 -0.0383
    1W        W36914  12.196  15.875   8.033  0.1148 -0.1874  0.0691
    1W        W36915   4.080   7.369   9.517 -0.1527  0.5175 -0.0239
    1W        W36916  11.604   5.979   0.466 -0.0821  0.1524  0.0721
    1W        W36917  21.137   3.313   2.237 -0.0722  0.0320 -0.2528
    1W        W36918  23.562  20.168   0.439  0.0834  0.1155  0.1363
    1W        W36919   8.634   8.889   2.296 -0.1879 -0.0315 -0.2286
    1W        W36920   2.158  24.607   7.773 -0.0984 -0.2958  0.0940
    1W        W36921  22.983  25.442   2.296  0.1970 -0.1482  0.2780
    1W        W36922   2.749   2.740   2.465 -0.1576 -0.2083 -0.0748
    1W        W36923  14.702  16.268   2.130  0.3704 -0.2087 -0.2268
    1W        W36924  17.586  14.273   0.536  0.2514 -0.0434 -0.1329
    1W        W36925  19.370   5.093   1.411  0.0269 -0.0398  0.2566
    1W        W36926  17.282  26.539   7.548  0.1638  0.0647 -0.1368
    1W        W36927  23.181  12.204   1.677  0.3713  0.1270  0.2850
    1W        W36928  20.046   4.238   7.766 -0.1175 -0.2710 -0.1108
    1W        W36929  10.659  26.190   2.087 -0.2281  0.0744  0.0227
    1W        W36930  27.094  23.870   9.269  0.2114  0.0481 -0.0999
    1W        W36931  15.101  18.020   0.302  0.2486  0.1975  0.0404
    1W        W36932  11.502  10.841   2.531 -0.0719  0.0444  0.2134
    1W        W36933  15.653  25.136   7.224  0.0963  0.1098  0.0283
    1W        W36934  23.819  12.049   2.913 -0.1699 -0.2448  0.1134
    1W        W36935  15.795   5.831   4.205 -0.3025 -0.2248  0.3607
    1W        W36936  18.259   3.323   3.102  0.0314  0.1953  0.2125
    1W        W36937  26.377   5.047   8.096 -0.1405 -0.0429  0.1201
    1W        W36938  16.799   6.231   1.561  0.1207  0.1353 -0.4059
    1W        W36939  26.889  20.240   6.839  0.3018  0.0228  0.1023
    1W        W36940  23.646  16.234   1.162  0.1417  0.2635 -0.2318
    1W        W36941  23.863  23.776   7.590 -0.1704  0.0773 -0.0448
    1W        W36942  17.376   3.412   0.192 -0.1516  0.1161  0.1518
    1W        W36943   9.807  24.347   7.337 -0.1780 -0.1427  0.1354
    1W        W36944  23.315  23.866   7.388  0.0279  0.2627 -0.0234
    1W        W36945  21.032  23.253   8.078 -0.1164  0.1762 -0.2856
    1W        W36946  14.276  26.866   8.018  0.0930  0.0374  0.2193
    1W        W36947  19.524  27.818   1.334  0.1881  0.0244 -0.0654
    1W        W36948   1.573  28.567   9.161 -0.1199  0.2585  0.0310
    1W        W36949  13.232  24.902   2.850 -0.0724  0.4298 -0.2453
    1W        W36950   7.969  24.326   6.402  0.2069 -0.0518  0.1485
    1W        W36951  24.664   3.379   1.202 -0.1310 -0.2083  0.1037
    1W        W36952  12.258  23.084   2.208  0.1930 -0.3409 -0.2795
    1W        W36953   2.462  21.079   5.742 -0.0741 -0.2314  0.1223
    1W        W36954  19.876  18.415   2.551  0.1115 -0.1369  0.0737
    1W        W36955  15.032   9.392   9.893 -0.4940  0.0312 -0.0291
    1W        W36956  26.920  21.418   0.877  0.1690  0.0143  0.0491
    1W        W36957   2.415  10.881   1.707 -0.0625 -0.0084  0.2055
    1W        W36958  22.643  13.797   1.253  0.0619 -0.0597 -0.1111
    1W        W36959  12.347  25.703   1.100  0.0161 -0.1971  0.0392
    1W        W36960  27.846  27.902   7.970 -0.0091  0.0153 -0.0542
    1W        W36961  11.560   7.515   7.284  0.0611 -0.0192 -0.0088
    1W        W36962   9.404   4.068   1.478  0.1384  0.1877 -0.2557
    1W        W36963  24.935  16.624   8.270  0.2178  0.4630 -0.2515
    1W        W36964  25.324  20.358   6.771 -0.1519 -0.1199  0.0396
    1W        W36965  19.345  27.853   9.005 -0.3047 -0.0895  0.1463
    1W        W36966  15.904  28.452   7.924  0.2365  0.1398  0.1029
    1W        W36967  17.701  12.056   9.154  0.2986  0.0297  0.2224
    1W        W36968   5.249  14.925   9.792 -0.0085  0.2923 -0.2179
    1W        W36969  16.386   3.327   9.778 -0.2180  0.2563  0.3686
    1W        W36970   0.620  20.433   9.260  0.0265 -0.3192  0.3753
    1W        W36971  11.185   2.555   0.390  0.2246  0.1361 -0.0284
    1W        W36972   1.211  28.483   0.032  0.1478 -0.2267  0.2975
    1W        W36973   3.259  19.836   0.893 -0.0223  0.0382  0.0555
    1W        W36974  25.512   2.949   1.153 -0.2097  0.2618  0.2498
    1W        W36975  22.291   2.500   0.952  0.3257  0.3049 -0.3353
    1W        W36976  23.508  21.821   7.902 -0.0002 -0.1389 -0.0473
    1W        W36977  10.929  26.927   2.618 -0.1014  0.0006  0.3474
    1W        W36978   2.372  27.916   2.043 -0.0343 -0.0071  0.3195
    1W        W36979   2.200  14.541   6.308 -0.1167 -0.2400  0.1545
    1W        W36980   0.380   1.581   7.304  0.0180 -0.0500  0.6913
    1W        W36981   0.254  13.027   7.436 -0.1518 -0.1067 -0.1380
    1W        W36982  26.952  26.312   8.014  0.0378 -0.2555 -0.1232
    1W        W36983  13.514  16.559   2.227 -0.0822  0.1846 -0.1647
    1W        W36984   3.366   9.379   0.310  0.1199  0.0001  0.0295
    1W        W36985  28.554   7.595   0.347 -0.0325 -0.1000  0.2126
    1W        W36986  18.545  17.304   8.416  0.3512  0.0878  0.1660
    1W        W36987  28.299   8.937   7.137 -0.1977 -0.3725  0.0377
    1W        W36988  25.970  28.124   7.013  0.2324 -0.0182 -0.0251
    1W        W36989   3.115   6.436   6.975  0.0056 -0.1151 -0.0116
    1W        W36990   5.004  13.106   9.629 -0.2600  0.0907 -0.0061
    1W        W36991   0.531  10.809   6.284 -0.1417  0.0066  0.1466
    1W        W36992   4.241  24.313   6.824 -0.0459 -0.2965 -0.0936
    1W        W36993   5.178  23.462   0.265 -0.1238 -0.0221 -0.0344
    1W        W36994  21.546  24.761   6.545 -0.0047  0.1356  0.0866
    1W        W36995   3.458   1.172   0.504 -0.0926 -0.0971 -0.1482
    1W        W36996   1.917  19.632   7.268 -0.0813  0.2320 -0.0525
    1W        W36997  12.746  20.637   9.750  0.0870  0.1188 -0.4044
    1W        W36998  16.864  23.219   0.205  0.0518  0.3814 -0.1318
    1W        W36999   5.413   6.962   2.357  0.0355 -0.1196 -0.4761
    1W        W37000  24.065   6.837   8.295 -0.0788 -0.1137  0.1247
    1W        W37001  24.362  13.657   7.696 -0.0190  0.2820  0.0017
    1W        W37002  26.338  22.641   1.781  0.4503  0.1467 -0.1786
    1W        W37003  21.116   5.553   0.454 -0.0156  0.2112 -0.0500
    1W        W37004   8.273  24.229   9.892  0.2383 -0.1090 -0.2172
    1W        W37005  26.413  22.086   6.904 -0.0914  0.1847  0.1269
    1W        W37006   5.849  11.944   0.764 -0.3029 -0.2754 -0.2133
    1W        W37007  18.762  14.841   8.332 -0.1344  0.1458  0.1569
    1W        W37008  17.911  25.891   7.157  0.2340  0.2793  0.1975
    1W        W37009   5.424  20.528   2.162  0.0197  0.0055 -0.0234
    1W        W37010   6.133  21.309   8.866 -0.2310  0.2857 -0.2562
    1W        W37011  25.636   3.197   8.091  0.3212  0.2723 -0.1184
    1W        W37012   5.098   7.869   6.168 -0.3813 -0.2132 -0.0220
    1W        W37013   3.224   6.775   7.442  0.1257 -0.1075  0.1529
    1W        W37014  22.070  15.636   9.838 -0.0097  0.1063 -0.0712
    1W        W37015   2.744  15.862   6.603  0.2064 -0.0709  0.1207
    1W        W37016   4.119  28.423   0.802 -0.2297 -0.1077  0.3226
    1W        W37017   0.752  12.261   1.172 -0.2856 -0.3931  0.4983
    1W        W37018  25.363  20.453   8.972  0.3695  0.3273  0.0426
    1W        W37019   2.133  11.559   9.494 -0.1139  0.1286  0.0787
    1W        W37020  16.630  22.085   2.862  0.0346 -0.1715 -0.0734
    1W        W37021  18.292  19.796   2.344  0.2011 -0.3422  0.2183
    1W        W37022  20.959   0.256   2.273  0.0980 -0.2246 -0.0353
    1W        W37023  10.430  14.494   0.138 -0.0868  0.1560 -0.2944
    1W        W37024  23.902   1.693   8.915 -0.2855  0.1373 -0.1056
    1W        W37025   6.644   4.278   7.653 -0.1309  0.2837  0.0665
    1W        W37026   1.193  19.193   2.179 -0.4912 -0.2235  0.1165
    1W        W37027   2.186  27.510   1.124 -0.1328 -0.1239  0.0092
    1W        W37028  17.570  14.722   0.230  0.3291  0.1304  0.2723
    1W        W37029  20.240   9.875   0.751  0.1878 -0.1931  0.1181
    1W        W37030   6.994  20.624   6.550  0.0362  0.0552  0.1268
    1W        W37031  14.149   5.568   0.030  0.0015  0.0403  0.3662
    1W        W37032  11.321   5.479   0.513  0.1353 -0.2043 -0.1590
    1W        W37033  16.955   9.043   2.718  0.1502  0.1567  0.1176
    1W        W37034   6.011  11.693   8.712 -0.0376 -0.1945 -0.0071
    1W        W37035   3.167  24.021   0.337  0.2342 -0.0418  0.0623
    1W        W37036  10.398   5.057   0.096 -0.1184  0.3048  0.1993
    1W        W37037  19.789  18.480   7.812  0.1592  0.1363  0.1205
    1W        W37038  11.290  15.236   1.124  0.1738 -0.1194 -0.0933
    1W        W37039   4.784  13.207   1.088 -0.3668  0.1073 -0.0996
    1W        W37040  15.169  28.515   8.059 -0.1176  0.6319  0.1477
    1W        W37041  16.066  23.550   8.779 -0.1066  0.1348  0.0322
    1W        W37042  17.038  21.401   2.703 -0.4765 -0.0655  0.0794
    1W        W37043  15.806  13.645   0.253 -0.0013  0.0037 -0.2830
    1W        W37044  27.780  10.218   2.388 -0.1868 -0.1134  0.0306
    1W        W37045   3.765   8.339   2.268  0.1402 -0.1453 -0.2504
    1W        W37046  25.424   4.912   9.452  0.2937 -0.2167  0.1503
    1W        W37047  23.494   3.307   0.549 -0.0306 -0.2352  0.0371
    1W        W37048   5.841  14.082   2.730 -0.2339 -0.0722 -0.0256
    1W        W37049  16.925  18.877   0.346  0.3038  0.1047 -0.1551
    1W        W37050   3.922   0.920   1.445  0.3944 -0.1280  0.1110
    1W        W37051  24.248   7.557   6.587 -0.0197 -0.1208 -0.1860
    1W        W37052  24.243  12.196   3.182 -0.0908  0.0661  0.0686
    1W        W37053  16.515  17.950   8.728  0.0745 -0.0415  0.0492
    1W        W37054   6.045   2.334   8.427  0.4257 -0.1547  0.0204
    1W        W37055  26.371  26.012   2.375 -0.0793  0.1982 -0.1845
    1W        W37056  28.351  26.461   2.161 -0.2124  0.1265 -0.1980
    1W        W37057   8.645  18.170   8.476 -0.0984 -0.4556 -0.3080
    1W        W37058  11.002  24.973   0.196  0.2405 -0.1812  0.2341
    1W        W37059  22.609  20.067   2.399 -0.0740 -0.0835  0.1115
    1W        W37060   4.332  24.729   6.551 -0.0067 -0.0481 -0.0136
    1W        W37061   6.807  14.936   1.649  0.1704  0.1546  0.0427
    1W        W37062  22.840  26.005   6.657 -0.1829 -0.1681 -0.1119
    1W        W37063  24.065   4.022   7.619  0.3455 -0.1453  0.0392
    1W        W37064   5.633   9.116   7.135 -0.1291  0.0761 -0.2297
    1W        W37065  25.433  26.226   9.012  0.2240 -0.2941  0.0708
    1W        W37066   5.321   3.688   9.544  0.0143 -0.1383  0.1769
    1W        W37067  10.337  28.284   1.026 -0.1640  0.3039 -0.0466
    1W        W37068  24.755   8.833   6.282  0.1012 -0.1252 -0.0862
    1W        W37069  13.078  26.919   8.163 -0.0706  0.1621  0.0412
    1W        W37070   1.287  22.047   1.094 -0.2498  0.1025  0.2031
    1W        W37071  11.869   5.184   8.355 -0.0602 -0.1656 -0.1189
    1W        W37072  14.433   0.158   0.679 -0.4755  0.2074  0.0646
    1W        W37073   2.286  13.004   1.363  0.0379 -0.1372  0.1383
    1W        W37074  20.545  10.196   2.501  0.0297  0.1815  0.0408
    1W        W37075  19.985   3.708   6.740  0.2830 -0.2220 -0.0863
    1W        W37076  15.273  20.281   7.791 -0.3135 -0.0649  0.0559
    1W        W37077   6.660   0.497   0.840 -0.0870 -0.1011 -0.1510
    1W        W37078  28.435  17.448   1.184  0.0939  0.1607 -0.0506
    1W        W37079  18.952  17.958   8.422  0.1078 -0.2311 -0.0164
    1W        W37080  25.153   4.272   8.503  0.0724  0.0398  0.2032
    1W        W37081  10.278  26.093   9.721 -0.2472 -0.0139 -0.0299
    1W        W37082  10.477   0.644   1.441  0.1934 -0.1801 -0.0001
    1W        W37083  23.813  11.045   0.362  0.1958 -0.0726  0.0628
    1W        W37084   2.757  10.511   7.764 -0.0983  0.0550  0.1908
    1W        W37085  15.555  13.873   8.157  0.0066  0.0973 -0.2073
    1W        W37086  14.657  19.591   2.080 -0.1563  0.0865 -0.2017
    1W        W37087  25.003   2.466   9.274  0.1395 -0.5280 -0.2584
    1W        W37088   7.006  26.476   2.436  0.0072  0.1515  0.2964
    1W        W37089   3.173  11.899   7.467 -0.0201 -0.0233 -0.1760
    1W        W37090   8.019  22.123   1.891  0.1127  0.0207  0.1275
    1W        W37091  11.524  18.155   8.776  0.0960 -0.0882  0.2341
    1W        W37092  24.389  13.845   9.561  0.0164 -0.2656 -0.2142
    1W        W37093  13.700  11.575   9.569  0.0785 -0.0316  0.0881
    1W        W37094  19.987  23.327   1.278 -0.1352  0.1795 -0.0083
    1W        W37095  22.963  10.123   6.748  0.2122  0.2953  0.0537
    1W        W37096  22.028  10.820   1.851 -0.0812 -0.2164 -0.1680
    1W        W37097  12.262  16.283   1.853 -0.1336 -0.2940  0.2905
    1W        W37098   1.002   5.304   9.955  0.0308  0.1156 -0.2607
    1W        W37099  18.549  12.734   7.495  0.0571 -0.1066 -0.2162
    1W        W37100   7.650   8.087   0.309  0.1154  0.0799 -0.2530
    1W        W37101  14.181  24.715   8.946  0.2927  0.2500 -0.3146
    1W        W37102  10.970  20.978   8.402  0.0129  0.0604 -0.0899
    1W        W37103  15.883  26.351   3.608  0.1438 -0.0203 -0.2599
    1W        W37104   6.355   8.172   7.127 -0.0196  0.1670 -0.0890
    1W        W37105  14.695   1.408   1.974  0.1867 -0.0108 -0.1099
    1W        W37106  21.264   1.139   9.144 -0.1746 -0.1241  0.0576
    1W        W37107  15.836  25.628   2.991  0.2682  0.0271  0.3839
    1W        W37108  12.616   9.930   1.250 -0.0950  0.2206 -0.1511
    1W        W37109  25.451   5.180   8.523 -0.4191  0.0517  0.2050
    1W        W37110  19.370   6.087   7.455  0.0740 -0.0431 -0.2041
    1W        W37111   9.836  14.739   7.533 -0.1294  0.1950 -0.1314
    1W        W37112  23.003  18.799   8.327 -0.1372 -0.0058  0.2668
    1W        W37113  19.550  21.216   0.148 -0.0793 -0.0609  0.0923
    1W        W37114   5.631  23.153   1.014 -0.1055  0.1085 -0.0942
    1W        W37115   3.768  24.783   8.327  0.0983  0.1943  0.0472
    1W        W37116  16.432   0.411   3.539 -0.2088  0.2109 -0.2206
    1W        W37117  16.325   9.718   2.803  0.0926 -0.1210  0.0496
    1W        W37118  12.385  24.232   8.077  0.0548  0.5816 -0.1426
    1W        W37119  16.470  19.108   9.298  0.0967  0.0353 -0.4512
    1W        W37120  26.563  26.470   7.644 -0.0390 -0.0593 -0.0869
    1W        W37121  17.464   2.677   9.444  0.0840  0.0322 -0.0843
    1W        W37122  28.067  20.874   9.629 -0.0911  0.0446 -0.0614
    1W        W37123  26.289  19.473   6.637  0.1260  0.2485 -0.3204
    1W        W37124  11.200  28.640   3.163 -0.1080 -0.0431 -0.1204
    1W        W37125   7.849  27.990   8.825  0.1167 -0.2106 -0.1353
    1W        W37126  28.707  18.793   8.368  0.1129  0.1813  0.2018
    1W        W37127  15.984  25.950   0.735  0.1336 -0.2034 -0.0968
    1W        W37128  17.840   6.864   0.016  0.2336 -0.0172 -0.1860
    1W        W37129  17.514  15.658   1.464  0.1886 -0.2523  0.1198
    1W        W37130  18.265  10.091   1.951 -0.0862 -0.0145 -0.0500
    1W        W37131  22.883  12.686   1.674 -0.0635  0.2071 -0.1899
    1W        W37132   8.410   9.055   9.425  0.0615 -0.1247 -0.1790
    1W        W37133   9.794  16.039   1.885  0.1322  0.1752 -0.0644
    1W        W37134  25.129  24.371   0.837  0.1368 -0.0267  0.0797
    1W        W37135  13.937  20.172   8.042  0.3104  0.0511  0.0993
    1W        W37136  16.221  25.394   2.829  0.0790 -0.1237 -0.1058
    1W        W37137  23.155  11.282   7.973  0.0512 -0.0186  0.1680
    1W        W37138  24.837  11.504   0.668 -0.0483  0.0701  0.1055
    1W        W37139  20.088  15.303   1.827  0.1425 -0.4614  0.1724
    1W        W37140  21.500   9.809   0.321 -0.0081  0.0161 -0.0789
    1W        W37141  15.300  14.241   9.092 -0.2254  0.0569 -0.0661
    1W        W37142  24.108   3.627   1.321  0.0705  0.1688  0.3090
    1W        W37143   1.588  26.172   1.357  0.1132  0.0026 -0.1336
    1W        W37144  19.118  23.577   2.693  0.2345 -0.0207  0.1452
    1W        W37145   9.581  10.047   7.848 -0.0012  0.0551  0.0199
    1W        W37146  27.615  20.224   9.910  0.2096  0.1834 -0.0143
    1W        W37147  19.330  14.367   0.305  0.2405  0.0634 -0.1727
    1W        W37148  13.984   6.129   2.752 -0.0739 -0.0371  0.3465
    1W        W37149   0.517  10.548   7.268  0.1298  0.0467 -0.1448
    1W        W37150  25.938   0.443   2.093  0.2843 -0.1493 -0.1705
    1W        W37151   5.361  18.956   7.187  0.1753 -0.1250  0.0290
    1W        W37152  22.179  18.760   9.419 -0.1142  0.2837  0.1233
    1W        W37153  15.157  28.548   0.582  0.0775 -0.0188 -0.0343
    1W        W37154  24.018   2.589   7.676  0.1835  0.0230  0.0923
    1W        W37155  13.393  11.235   9.460  0.1614 -0.1740  0.1915
    1W        W37156  16.770  18.702   9.317 -0.1841  0.0884 -0.0441
    1W        W37157  20.548   7.798   1.354  0.0654  0.0216  0.0049
    1W        W37158  25.865  11.075   2.976 -0.0243  0.1697 -0.0888
    1W        W37159  27.071  21.331   8.019  0.1377 -0.1114 -0.0822
    1W        W37160   5.392  23.721   9.800 -0.3574 -0.0561 -0.1374
    1W        W37161   0.115  17.845   8.544 -0.0923 -0.0634  0.2903
    1W        W37162   8.924  15.351   1.350  0.3076  0.0708 -0.0642
    1W        W37163  21.817   3.563   9.697 -0.0109  0.0825 -0.0814
    1W        W37164   2.712  26.046   0.373 -0.0226  0.2462  0.0097
    1W        W37165   1.318  15.910   1.667  0.2476 -0.2674 -0.0144
    1W        W37166  23.055  28.180   8.994 -0.0066 -0.1209  0.0031
    1W        W37167  19.688  11.861   2.339 -0.2158  0.3672  0.1027
    1W        W37168  18.235  27.666   8.074  0.1654  0.1044 -0.0552
    1W        W37169  11.827   9.733   0.285  0.1209  0.0914 -0.1991
    1W        W37170   2.552   0.812   0.773  0.2485  0.0148 -0.0650
    1W        W37171   0.008  12.962   9.771 -0.0189  0.0395  0.0137
    1W        W37172  26.891  10.788   7.082  0.0429  0.2524 -0.1157
    1W        W37173  16.130  23.400   7.566 -0.0801  0.1240  0.1367
    1W        W37174  21.510  10.161   3.572 -0.0365 -0.1510  0.2382
    1W        W37175  14.503  12.062   7.785 -0.0098 -0.0169 -0.1658
    1W        W37176  19.410  25.232   0.699  0.0494  0.2596  0.3597
    1W        W37177  10.780   1.840   2.461 -0.1063 -0.1884 -0.4103
    1W        W37178   4.012  17.700   5.959  0.0843  0.1536 -0.1324
    1W        W37179   5.034   7.750   2.940 -0.2158  0.1527  0.1353
    1W        W37180  25.612  13.430   2.577 -0.1985 -0.1731 -0.1572
    1W        W37181  12.309   4.342   8.939 -0.0353 -0.3095  0.1720
    1W        W37182   6.466   8.665   7.100 -0.0896  0.3476 -0.0476
    1W        W37183   0.108   2.695   9.934 -0.0993  0.2044  0.4593
    1W        W37184   3.483  12.784   9.660 -0.1846  0.0755  0.0568
    1W        W37185  23.536  28.095   3.025 -0.1350 -0.1461 -0.1304
    1W        W37186  26.031   6.712   8.019 -0.1595  0.0279 -0.3568
    1W        W37187  24.645  21.453   2.488 -0.2416 -0.1999 -0.1659
    1W        W37188   3.474  25.990   8.440  0.0627 -0.0232 -0.0868
    1W        W37189   1.697   8.034   7.119 -0.1251 -0.0136 -0.2215
    1W        W37190  23.993   3.764   8.287  0.1490 -0.1306 -0.2124
    1W        W37191  19.995   3.181   3.233  0.0658 -0.3797  0.0286
    1W        W37192   6.608  18.681   2.324  0.0266  0.1239  0.0100
    1W        W37193  18.833  20.990   7.584 -0.1718  0.3807  0.0684
    1W        W37194   7.695   9.311   8.914  0.2512 -0.0945  0.0220
    1W        W37195   4.296  15.050   1.275 -0.1077 -0.0938  0.3006
    1W        W37196   8.872  20.567   0.610  0.0836  0.1976 -0.0436
    1W        W37197  10.725   1.128   1.389  0.1876  0.2749 -0.0797
    1W        W37198  24.090  11.445   1.996 -0.0977  0.0953 -0.0565
    1W        W37199  26.925   1.626   1.575  0.1712 -0.3910  0.2768
    1W        W37200   2.902   8.030   2.341  0.2644  0.3437 -0.0789
    1W        W37201   0.966   7.388   1.889  0.0093 -0.0489 -0.2597
    1W        W37202  27.543  20.260   1.578  0.2626  0.1601 -0.1140
    1W        W37203  13.168   7.656   9.175 -0.0925 -0.4807 -0.1726
    1W        W37204  14.501  16.771   2.074  0.2589 -0.2266 -0.1653
    1W        W37205  14.019  18.837   9.045  0.0044  0.1620 -0.0085
    1W        W37206  11.655   5.429   2.720  0.1562  0.1263  0.2191
    1W        W37207   4.855  18.887   0.829  0.1042  0.0821  0.1230
    1W        W37208  26.086  28.235   3.111  0.0706  0.2025  0.2330
    1W        W37209   7.014   1.752   2.976 -0.1319  0.0291 -0.0618
    1W        W37210  23.393   2.790   0.556  0.1576 -0.0640  0.2950
    1W        W37211  21.651   8.530   0.060 -0.0798  0.0182 -0.2255
    1W        W37212  28.698  21.968   1.529  0.0923 -0.1644  0.1773
    1W        W37213  27.166  11.588   7.514  0.2564 -0.0497 -0.0249
    1W        W37214   6.988  28.440   3.049 -0.2201 -0.3134  0.2542
    1W        W37215  22.087   4.077   0.306 -0.2333 -0.0559 -0.4805
    1W        W37216  25.313   1.471   0.173  0.2477 -0.2502  0.1042
    1W        W37217  14.218   9.238   7.988  0.0587  0.0906 -0.0102
    1W        W37218   3.821   9.251   8.100 -0.1249 -0.0038  0.3512
    1W        W37219  21.119  10.065   0.427  0.1599  0.0215  0.0786
    1W        W37220   7.747  11.738   1.060 -0.1578 -0.3346 -0.1005
    1W        W37221   9.103  28.322   2.365  0.2435  0.4565 -0.0553
    1W        W37222  26.005   4.765   7.130  0.2438  0.0288  0.4213
    1W        W37223   4.684  22.377   1.914 -0.1382  0.1522  0.1112
    1W        W37224   1.558  14.615   2.293  0.2975  0.0329  0.0396
    1W        W37225  25.553   5.330   9.019  0.4223  0.0382 -0.0337
    1W        W37226  10.431  27.818   2.340 -0.1926  0.0328  0.0451
    1W        W37227   8.380   4.307   9.728  0.2428 -0.3392 -0.1055
    1W        W37228   5.329  21.531   8.898  0.0479  0.0584  0.3336
    1W        W37229  11.486   5.164   8.731 -0.2527  0.0611  0.0489
    1W        W37230  11.394   9.595   9.260 -0.2793  0.2186 -0.0460
    1W        W37231  11.204   1.276   8.324 -0.1370  0.3227  0.1918
    1W        W37232   2.353   6.227   2.325  0.1505 -0.0453 -0.1719
    1W        W37233   1.419   7.682   1.704  0.1671  0.2925 -0.1330
    1W        W37234  16.150  22.266   2.167 -0.2246  0.1502 -0.0953
    1W        W37235  25.049  13.787   0.984 -0.2670  0.0234  0.1449
    1W        W37236  19.953  26.561   2.286 -0.0146  0.0729  0.2091
    1W        W37237   9.889  21.826   6.739 -0.0928  0.0560 -0.3921
    1W        W37238   8.069   8.124   2.970  0.2517  0.0486 -0.1435
    1W        W37239  27.332  11.089   6.520  0.2189 -0.1271 -0.1112
    1W        W37240  13.255   3.765   9.138  0.2372  0.2248 -0.0171
    1W        W37241   4.154  17.335   0.045  0.2061  0.3203  0.0456
    1W        W37242   3.696  21.423   0.774 -0.0489 -0.1478  0.1220
    1W        W37243  18.721   1.924   3.033 -0.3472  0.0971  0.0648
    1W        W37244   7.080  19.286   8.018 -0.0264  0.1250  0.0629
    1W        W37245  15.290   3.488   1.422 -0.1627  0.1615  0.0703
    1W        W37246  21.383  21.492   0.455  0.2934  0.1348 -0.0120
    1W        W37247   0.234  18.555   9.230 -0.2045  0.3732 -0.0232
    1W        W37248  21.471  21.528   8.806  0.2082  0.0656 -0.1899
    1W        W37249  19.718   2.163   1.612  0.0865  0.0595  0.0967
    1W        W37250   8.038   6.302   7.452 -0.2617 -0.0921  0.2916
    1W        W37251  10.766   6.263   3.058  0.1786 -0.1610  0.0851
    1W        W37252  24.638  17.343   6.318 -0.0885  0.0639  0.2614
    1W        W37253   7.390  14.525   8.565 -0.0884 -0.1079  0.2365
    1W        W37254  11.234   1.354   0.526 -0.2165 -0.1869 -0.0930
    1W        W37255  17.852   4.942   7.657  0.0935 -0.2947  0.3353
    1W        W37256  12.662  28.119   4.209 -0.0123 -0.2680  0.0253
    1W        W37257   1.916  27.247   8.954  0.0142  0.2738 -0.1362
    1W        W37258   9.681  18.349   7.442  0.2001 -0.2922 -0.4448
    1W        W37259  12.546   4.414   2.408  0.0358 -0.3103  0.0937
    1W        W37260  16.157   2.373   4.005  0.0743 -0.1848 -0.2256
    1W        W37261  17.023  14.712   1.251  0.1047 -0.0181  0.0205
    1W        W37262   3.341   6.950   8.440  0.2203  0.2906 -0.3670
    1W        W37263  18.428  14.133   8.077  0.1599 -0.1871  0.0084
    1W        W37264  12.730  11.874   1.452 -0.0858 -0.2912 -0.1704
    1W        W37265  18.335   7.722   1.795 -0.0926  0.2810 -0.1438
    1W        W37266   1.905   5.753   8.333  0.2202 -0.0472 -0.2125
    1W        W37267  25.494  14.813   9.235  0.1543  0.1236 -0.0756
    1W        W37268   0.266  16.027   7.512  0.2774 -0.1512  0.0421
    1W        W37269   2.071  26.465   0.945 -0.1453  0.1135 -0.3017
    1W        W37270  27.198   0.360   9.806 -0.1444 -0.2730 -0.3693
    1W        W37271  19.133  26.775   0.176  0.0752 -0.0238 -0.1166
    1W        W37272  17.966  19.231   8.633 -0.0429  0.1072  0.1819
    1W        W37273  22.448  21.058   7.506  0.0337  0.0612 -0.1125
    1W        W37274  27.288  28.200   2.811 -0.0817 -0.2799  0.3132
    1W        W37275   1.735  21.218   0.958  0.0029 -0.2199  0.1546
    1W        W37276   6.268   7.445   8.057  0.1109  0.1649  0.0227
    1W        W37277   6.966  27.576   2.684 -0.2480  0.0932 -0.4058
    1W        W37278  25.541   7.976   9.676  0.0086  0.2163  0.0749
    1W        W37279  14.151   7.638   8.899  0.2758  0.0868  0.5907
    1W        W37280  13.919   9.137   2.900  0.2642  0.1251 -0.0641
    1W        W37281   0.488   9.358   1.576 -0.0370 -0.0955  0.3403
    1W        W37282  24.806   2.712   8.071  0.0416  0.1047  0.2801
    1W        W37283   8.781  14.499   0.515 -0.0624  0.0085  0.0606
    1W        W37284  20.170   3.808   9.652 -0.1479 -0.0187 -0.3482
    1W        W37285  24.232   5.363   1.572 -0.2419 -0.1060 -0.1780
    1W        W37286  26.850  26.509   9.387  0.1624  0.1038  0.0518
    1W        W37287   0.312  22.453   9.851 -0.1752 -0.1452 -0.1363
    1W        W37288  12.747   9.823   9.594  0.1183  0.1314  0.2601
    1W        W37289   3.246   8.049   1.378  0.0136 -0.1458  0.1860
    1W        W37290   6.812  16.770   9.296 -0.1438 -0.1789  0.1121
    1W        W37291  21.068   3.689   7.484  0.0685  0.0856 -0.5085
    1W        W37292   5.883   1.500   3.341 -0.1040 -0.1781 -0.1618
    1W        W37293  25.251   4.945   8.091  0.0563  0.0150  0.0476
    1W        W37294   9.546  13.898   1.094  0.0459 -0.1693 -0.0900
    1W        W37295  21.678  13.477   2.162 -0.5015 -0.0062 -0.1332
    1W        W37296   8.541  21.529   9.344 -0.1574  0.0941  0.0517
    1W        W37297  17.800  20.290   0.450 -0.0264  0.0217  0.0123
    1W        W37298   3.265   4.605   0.153  0.1460  0.3263 -0.1759
    1W        W37299  19.075   6.452   2.568  0.2637  0.1768 -0.1355
    1W        W37300   1.727   7.693   9.704  0.0349 -0.1503  0.2074
    1W        W37301   7.168  19.756   9.874 -0.0254  0.2888 -0.0763
    1W        W37302  15.160   8.584   1.729  0.0471  0.1036  0.0245
    1W        W37303   0.553   2.673   1.630 -0.1029  0.1274  0.0647
    1W        W37304  10.996   7.734   8.640 -0.3764  0.3201 -0.0124
    1W        W37305   7.335   8.552   0.518 -0.1619  0.2065 -0.1423
    1W        W37306  24.026  24.027   3.189  0.2178 -0.2113  0.0844
    1W        W37307   4.699   2.794   0.899 -0.2763 -0.0708  0.2969
    1W        W37308   4.973   9.581   0.263 -0.2233  0.2061  0.2600
    1W        W37309   4.033  23.187   2.633 -0.1849  0.0539 -0.0390
    1W        W37310  25.886  24.035   1.596 -0.2214 -0.0172 -0.0325
    1W        W37311  14.057  14.478   8.211  0.1463 -0.0190 -0.2712
    1W        W37312  18.858  19.931   2.193  0.2235  0.0311 -0.0038
    1W        W37313  16.150  15.364   7.221 -0.0896 -0.0416 -0.1559
    1W        W37314   0.856  11.626   1.103 -0.0424  0.1422 -0.0500
    1W        W37315  21.480  19.418   8.043  0.2768  0.1742 -0.2089
    1W        W37316  22.968  25.086   0.044  0.0242  0.2028  0.1707
    1W        W37317   9.399  25.077   6.904 -0.1477 -0.0444  0.0279
    1W        W37318  27.804   9.705   1.548  0.3313 -0.0024  0.2470
    1W        W37319   1.503   3.739   2.282 -0.3187  0.0490 -0.0891
    1W        W37320   1.385  23.849   0.273 -0.0464  0.0131 -0.2510
    1W        W37321  11.769  23.169   2.401  0.1204 -0.0033  0.0743
    1W        W37322  18.031  15.602   7.445  0.0089 -0.1345 -0.1946
    1W        W37323  23.481  20.549   3.198 -0.2017 -0.0368  0.3166
    1W        W37324   5.433  12.468   3.694 -0.0534  0.0198  0.1435
    1W        W37325   5.344   6.216   9.451 -0.0406 -0.3010  0.1811
    1W        W37326  17.048  21.351   1.134  0.2789  0.2502 -0.1705
    1W        W37327  17.556  23.483   0.806 -0.1186 -0.0427 -0.2400
    1W        W37328   2.397  15.098   1.380 -0.1386  0.0962 -0.0876
    1W        W37329  11.579  27.429   8.455 -0.0292  0.1562  0.1419
    1W        W37330  27.337  18.159   6.992  0.1611 -0.0641  0.1029
    1W        W37331   3.603   6.990   0.559  0.1052 -0.1440  0.0288
    1W        W37332  12.938  23.494   1.528 -0.3717  0.0916  0.2296
    1W        W37333   5.173  19.519   5.834  0.4452  0.0054 -0.1469
    1W        W37334   4.887   6.795   9.606  0.3272 -0.3955  0.2802
    1W        W37335   8.722  17.661   8.360 -0.2801 -0.3453 -0.1127
    1W        W37336  20.645   1.222   0.508 -0.2362  0.2028 -0.3264
    1W        W37337   3.589  27.657   9.847 -0.4099 -0.0512  0.3371
    1W        W37338  22.143  16.686   1.545 -0.1638  0.1656 -0.2720
    1W        W37339  26.687   1.136   2.477  0.2673 -0.1335  0.2175
    1W        W37340  11.320  13.663   2.740  0.2174 -0.1509 -0.2290
    1W        W37341   9.836   3.059   0.772  0.2149 -0.3282 -0.0164
    1W        W37342  23.296  25.697   0.363 -0.0695  0.0722 -0.1814
    1W        W37343  22.093  25.593   1.750 -0.2907  0.0178 -0.2387
    1W        W37344   4.733   3.908   9.216 -0.0074 -0.1620 -0.4509
    1W        W37345  18.154  13.083   8.342 -0.3958  0.0015  0.0621
    1W        W37346  27.594  26.335   6.581 -0.1958 -0.1309 -0.1340
    1W        W37347   4.675  12.424   8.009 -0.0633  0.0175 -0.2287
    1W        W37348  19.504  21.252   2.620 -0.0639  0.1589  0.3651
    1W        W37349  27.896  15.944   0.006  0.0841  0.0898  0.0131
    1W        W37350  14.155  26.867   0.307 -0.2004  0.1082 -0.0765
    1W        W37351  10.268  25.467   7.079  0.3128 -0.2330  0.1737
    1W        W37352  25.493  13.428   0.891 -0.3041  0.0119  0.0557
    1W        W37353   7.420   3.837   7.667  0.0624 -0.1459 -0.1217
    1W        W37354   8.465  10.564   0.662  0.0637  0.0673 -0.0663
    1W        W37355  12.734   1.559   9.180  0.0116  0.2752 -0.0069
    1W        W37356   4.916  11.995   1.940 -0.1534 -0.1489 -0.0938
    1W        W37357  16.160   8.259   9.726 -0.2769  0.0917 -0.2745
    1W        W37358  11.562  21.130   7.836 -0.1034  0.1620 -0.4013
    1W        W37359  28.501   0.723   9.961  0.1936 -0.0379 -0.1116
    1W        W37360  12.553  11.533   7.514  0.2385  0.0755 -0.1024
    1W        W37361  13.836   3.174   9.477 -0.0923 -0.0761  0.0491
    1W        W37362  24.413  12.024   8.801  0.0905 -0.0179  0.1575
    1W        W37363   2.719  19.462   9.279  0.0274 -0.1815 -0.0953
    1W        W37364  19.830  13.119   8.738 -0.0554 -0.0132 -0.0464
    1W        W37365  21.061  21.698   2.113  0.0249 -0.2723  0.1311
    1W        W37366  26.008   8.793   9.550 -0.0621  0.3077  0.2953
    1W        W37367   1.912  17.819   9.621 -0.0707  0.0036 -0.0640
    1W        W37368  23.672  23.381   8.655 -0.1693 -0.0548  0.0547
    1W        W37369  10.296  11.232   0.912  0.0801  0.1319  0.2052
    1W        W37370   7.277  26.847   2.047 -0.2686 -0.0549 -0.1157
    1W        W37371  22.069   1.645   0.732  0.1750 -0.0317  0.0686
    1W        W37372  27.764   0.372   0.503  0.3013 -0.0150  0.1194
    1W        W37373  24.777  24.842   8.255  0.2569 -0.0863 -0.2235
    1W        W37374   8.202   6.105   1.442 -0.1995  0.2204 -0.0340
    1W        W37375  25.102   8.400   9.632  0.1501  0.2776 -0.1294
    1W        W37376  20.920   1.143   6.033  0.5071  0.1418 -0.4700
    1W        W37377  12.732  13.449   1.762 -0.0659 -0.0008 -0.1532
    1W        W37378  26.783  22.652   2.035 -0.4605 -0.1815 -0.0790
    1W        W37379  18.993  25.485   0.780  0.0558 -0.0631  0.1706
    1W        W37380  20.548   2.525   8.365 -0.1505 -0.1559  0.1269
    1W        W37381  27.162   7.031   8.762  0.2139  0.3431 -0.2111
    1W        W37382   2.944  15.379   8.425  0.0528 -0.3441 -0.3026
    1W        W37383  14.170  12.271   0.794 -0.2854  0.3691  0.2635
    1W        W37384  15.792  18.781   0.353  0.1064 -0.1474  0.2927
    1W        W37385  22.854  17.416   1.102  0.0883 -0.4429  0.1543
    1W        W37386  15.795  19.496   1.186 -0.3475  0.0900 -0.4182
    1W        W37387  19.973  20.593   1.071 -0.0383  0.1145 -0.0131
    1W        W37388   7.890  18.272   8.388  0.0147  0.4415  0.2219
    1W        W37389   2.678  17.947   1.587 -0.3755 -0.0588  0.1094
    1W        W37390  10.434   0.440   0.970  0.1191 -0.3472 -0.1053
    1W        W37391   3.310  14.925   1.040 -0.1396  0.2410  0.2830
    1W        W37392   2.215  14.302   1.909  0.2700  0.0403  0.1658
    1W        W37393   1.428  18.887   1.483 -0.6018  0.3212  0.1252
    1W        W37394  11.236   7.800   3.000  0.1688 -0.0489 -0.2305
    1W        W37395  26.700   7.214   9.023  0.1343 -0.0472 -0.2480
    1W        W37396   2.116  28.665   2.267  0.2954  0.0173 -0.0249
    1W        W37397  19.535  13.491   1.965  0.1874 -0.0072  0.1156
    1W        W37398   2.744  13.886   9.886 -0.3839  0.0520 -0.0883
    1W        W37399  14.497   0.825   7.378 -0.3792  0.0187  0.0651
    1W        W37400  18.003  19.358   9.135 -0.0057  0.0947 -0.0755
    1W        W37401  13.629   1.499   3.055 -0.1281 -0.2418 -0.0710
    1W        W37402  10.862   4.930   1.736  0.1473 -0.1063  0.1698
    1W        W37403   3.314  26.992   1.771 -0.0978  0.6447 -0.0227
    1W        W37404  26.261  15.676   9.776 -0.0378  0.0363 -0.2179
    1W        W37405  15.639   3.245   8.374  0.2698  0.1852  0.1129
    1W        W37406  11.816  24.083   8.074 -0.0784  0.1255  0.0191
    1W        W37407   6.241  18.731   1.373  0.3524 -0.0214 -0.0459
    1W        W37408  19.721  17.758   0.386 -0.2679 -0.0090 -0.0345
    1W        W37409  26.389  21.900   1.833  0.1614  0.0352 -0.3591
    1W        W37410   9.690  23.312   8.399 -0.0266 -0.2477 -0.1181
    1W        W37411   8.857   8.494   9.159 -0.3288  0.2327  0.1181
    1W        W37412   6.878   5.062   1.258 -0.5572  0.0238  0.0544
    1W        W37413  19.565  18.703   0.814 -0.1984  0.2047 -0.0308
    1W        W37414   6.051  14.248   9.549  0.0994 -0.0688  0.0118
    1W        W37415  11.522   5.083   3.072  0.0576  0.0419  0.0598
    1W        W37416  15.581   8.205   0.458 -0.1019  0.1657  0.1756
    1W        W37417  26.104  15.454   7.165 -0.3255  0.1026  0.0192
    1W        W37418  22.087  25.071   9.767  0.1119 -0.0397 -0.1547
    1W        W37419  23.960  15.399   3.017 -0.1247 -0.1369  0.0073
    1W        W37420   1.551   6.801   1.529  0.2667  0.2767 -0.0700
    1W        W37421  18.189   3.838   2.778  0.3464  0.0734  0.3092
    1W        W37422   9.952   5.991   7.244  0.0674  0.2354  0.1888
    1W        W37423  12.695  12.704   0.564  0.1360  0.2320 -0.0812
    1W        W37424   5.353   7.473   0.889  0.0467 -0.2497 -0.4119
    1W        W37425   3.642   4.130   0.447  0.0997 -0.1300  0.1158
    1W        W37426   6.706   0.095   6.921 -0.2572  0.1510  0.0239
    1W        W37427  10.261  27.446   9.733 -0.0997  0.1279  0.0808
    1W        W37428  10.687  25.316   7.614  0.0628 -0.3533  0.0609
    1W        W37429   1.395  21.244   0.464  0.1461 -0.1132 -0.0064
    1W        W37430  18.491  26.557   1.348  0.0835  0.0016 -0.1357
    1W        W37431  14.157  12.000   1.216 -0.1294  0.2433 -0.3037
    1W        W37432   2.126  19.177   7.222 -0.0382 -0.0923  0.1004
    1W        W37433  11.110  11.686   1.878  0.1527  0.0091 -0.1280
    1W        W37434  10.593  19.497   8.683  0.2486 -0.1804  0.1496
    1W        W37435  27.525  21.958   8.362 -0.2321 -0.1937  0.0851
    1W        W37436  17.064   9.314   1.387 -0.1967 -0.0241  0.0389
    1W        W37437  19.147   9.318   7.539  0.1090  0.2099  0.1722
    1W        W37438   1.871   2.781   2.385 -0.2036  0.0078  0.0448
    1W        W37439  21.899  12.773   8.452 -0.1979  0.0293 -0.1660
    1W        W37440   0.678  24.521   8.731 -0.2159 -0.1423  0.0256
    1W        W37441   6.372  13.737   7.788 -0.2209  0.3436  0.2345
    1W        W37442  12.956   2.769   3.315  0.0909 -0.4572  0.1920
    1W        W37443   3.972   1.958   6.527  0.1497 -0.1002 -0.3468
    1W        W37444   0.043  10.114   9.144 -0.0372 -0.0936 -0.1279
    1W        W37445  11.815   2.882   1.557  0.0094  0.0768  0.0076
    1W        W37446  22.917  15.763   7.079 -0.1373 -0.1579  0.0117
    1W        W37447   1.176  22.305   9.688  0.1419  0.0271  0.0051
    1W        W37448   3.560   3.018   1.564  0.2218 -0.3880  0.1887
    1W        W37449   6.720  19.632   0.782  0.1072  0.0690  0.0555
    1W        W37450   0.947   8.973   0.004 -0.1955  0.2152 -0.0826
    1W        W37451   0.869  20.253   7.832  0.1107 -0.1123  0.1231
    1W        W37452  19.486  24.709   1.008 -0.2671 -0.0612  0.0994
    1W        W37453  25.814   9.088   1.666  0.0204 -0.0035  0.1730
    1W        W37454  25.011  23.870   0.925  0.2809 -0.0356 -0.2436
    1W        W37455  16.207  23.401   3.842  0.3236 -0.1511 -0.1804
    1W        W37456  13.012  24.076   7.552  0.2229 -0.1472 -0.4871
    1W        W37457  24.964   9.477   1.675 -0.0484 -0.0096  0.0875
    1W        W37458  16.325  27.065   9.045  0.1260  0.0000  0.0520
    1W        W37459  23.595  17.886   9.147 -0.1067  0.0399  0.2143
    1W        W37460  22.241  16.314   2.185  0.3138 -0.0997 -0.0785
    1W        W37461  25.614  12.548   1.865 -0.0577  0.2106  0.2852
    1W        W37462   7.244   3.323   0.019  0.1481  0.1595  0.0533
    1W        W37463  11.910  27.584   3.896 -0.0246 -0.1419  0.0306
    1W        W37464   8.060  14.338   1.911 -0.0400 -0.2157 -0.2177
    1W        W37465  18.437  15.380   2.802 -0.3212 -0.2562  0.0258
    1W        W37466  18.121   4.188   8.220 -0.0022  0.0018 -0.1380
    1W        W37467  14.927  14.469   7.273  0.2365  0.2473 -0.1940
    1W        W37468  11.888  26.501   9.441 -0.1755  0.0754  0.0499
    1W        W37469  26.193   4.514   8.986 -0.4353  0.0175 -0.2080
    1W        W37470   8.957  19.819   7.008 -0.0018  0.2723 -0.0300
    1W        W37471   6.926   4.257   1.769  0.2505  0.2357 -0.1864
    1W        W37472  10.209  24.907   2.757 -0.0538  0.1453 -0.0978
    1W        W37473  21.278   1.823   7.771  0.1160  0.1354  0.0006
    1W        W37474   7.280  19.241   5.786 -0.0521 -0.0288  0.2542
    1W        W37475  26.856  16.859   9.139 -0.1038 -0.2883  0.2706
    1W        W37476   2.327  16.615   0.917  0.1852 -0.1195 -0.1550
    1W        W37477  28.582   3.104   0.214  0.3367 -0.1153  0.0145
    1W        W37478  12.994  20.037   8.109 -0.0662  0.0902  0.1911
    1W        W37479  12.445  22.137   2.909  0.2580  0.0814  0.0727
    1W        W37480  22.744   7.114   2.253 -0.0507 -0.0343  0.3447
    1W        W37481  18.115   8.538   1.878  0.1246 -0.2585  0.2760
    1W        W37482   5.938  19.838   0.272  0.1677 -0.1897  0.0060
    1W        W37483   0.842  14.236   7.530 -0.1044 -0.0338 -0.1471
    1W        W37484  17.589  26.429   8.815  0.2037  0.0560  0.4021
    1W        W37485  11.014  16.642   1.370 -0.2309  0.3236 -0.0914
    1W        W37486   3.992  23.233   1.180 -0.3874  0.0928  0.1392
    1W        W37487  27.861   9.314   8.465 -0.0577 -0.4862 -0.0946
    1W        W37488  22.875  13.988   0.863 -0.0754  0.1205 -0.4003
    1W        W37489  16.847   5.239   1.177  0.0756  0.1821 -0.1458
    1W        W37490   7.081  26.156   0.506 -0.1536 -0.1058 -0.0987
    1W        W37491   6.463   4.238   2.827 -0.2621 -0.1758  0.2136
    1W        W37492  15.810   0.378   3.373  0.1910  0.0273 -0.1928
    1W        W37493  11.610   1.718   2.336 -0.1062  0.0558 -0.0584
    1W        W37494   6.017  27.333   9.864 -0.1128 -0.0645  0.0770
    1W        W37495   0.079   3.950   1.524 -0.0031  0.1811 -0.0520
    1W        W37496   4.847  26.584   1.533 -0.0623  0.3016 -0.0740
    1W        W37497  18.733  14.461   1.008 -0.0160  0.1008  0.1026
    1W        W37498  25.274   2.987   0.068 -0.1992  0.2801 -0.2426
    1W        W37499  19.338   8.897   7.576 -0.0535  0.0017  0.1674
    1W        W37500  20.515  26.236   8.591  0.1333  0.0911  0.0460
    1W        W37501   4.032  11.093   1.163 -0.2567  0.0971 -0.0654
    1W        W37502  16.932  13.589   8.713  0.2313  0.0935  0.4206
    1W        W37503  15.659  20.711   8.918 -0.1680 -0.0696  0.0243
    1W        W37504   6.046  23.732   5.895 -0.2926 -0.0420 -0.2763
    1W        W37505  14.140  19.696   1.948 -0.2486  0.2038 -0.2000
    1W        W37506  17.217  11.453   1.310 -0.0941  0.0832  0.0577
    1W        W37507  14.895  11.857   8.619  0.1340  0.0356  0.2310
    1W        W37508  11.663   7.396   1.890 -0.2196  0.2952 -0.0784
    1W        W37509  21.251  26.366   1.207  0.0679 -0.0359 -0.0099
    1W        W37510  24.555   6.695   8.183  0.0476  0.0921 -0.0513
    1W        W37511  28.240  16.866   9.294  0.0037 -0.0688 -0.1591
    1W        W37512   8.273  28.357   2.128  0.1084  0.3224 -0.1368
    1W        W37513   7.819  16.137   8.785 -0.3576  0.0097  0.1748
    1W        W37514  28.429  26.825   9.645  0.1734  0.0573  0.1508
    1W        W37515  28.565   5.174   7.805 -0.0535 -0.3170 -0.0563
    1W        W37516   3.838   4.628   9.221  0.0552 -0.0111 -0.0801
    1W        W37517  22.599  27.958   8.779 -0.0790 -0.0058  0.4362
    1W        W37518  25.732  18.119   6.098  0.2271 -0.0011 -0.1397
    1W        W37519  11.009   1.355   1.729  0.0958 -0.0639  0.0362
    1W        W37520  17.144   5.559   2.157  0.0585 -0.2175 -0.4019
    1W        W37521  17.428  12.855   8.176  0.0244 -0.0286 -0.0342
    1W        W37522  22.505   3.531   3.314  0.0037  0.2578  0.1030
    1W        W37523  21.559   0.362   9.622  0.0866 -0.0388  0.0496
    1W        W37524  20.409  27.850   6.414  0.1426  0.0882  0.0470
    1W        W37525  25.995   5.087   1.639 -0.1946  0.1682 -0.1403
    1W        W37526  21.577  13.239   9.773 -0.0806 -0.1708 -0.2008
    1W        W37527  23.641   7.230   2.585  0.0926 -0.0861 -0.2246
    1W        W37528   2.287   8.201   1.579  0.1645 -0.1063 -0.1369
    1W        W37529  19.239   3.578   7.142 -0.4274  0.3589  0.0917
    1W        W37530   1.225  14.466   2.832  0.0305  0.0310  0.2707
    1W        W37531  24.898  18.301   7.132  0.2720  0.0665  0.1044
    1W        W37532   7.832  14.299   1.047 -0.0296 -0.3598  0.1801
    1W        W37533  24.428  14.770   8.032  0.2557 -0.4232  0.0174
    1W        W37534  25.062   7.469   1.221 -0.0230  0.1117 -0.2978
    1W        W37535   9.739  28.653   3.129 -0.2272  0.0160 -0.4794
    1W        W37536   6.959   4.106   1.236 -0.0444 -0.3732 -0.0488
    1W        W37537  23.588  13.170   7.851  0.0423  0.1622 -0.0226
    1W        W37538  26.287   0.957   8.460  0.0992  0.2195 -0.0028
    1W        W37539  18.074  24.456   3.494 -0.0467  0.1664 -0.0381
    1W        W37540  10.116   0.197   0.582 -0.2467 -0.1547 -0.1134
    1W        W37541  11.962  20.556   6.781 -0.1165  0.1090  0.4967
    1W        W37542  23.996  27.318   7.047 -0.3199 -0.0400 -0.2591
    1W        W37543   6.634   8.402   8.710  0.2115 -0.2008 -0.3644
    1W        W37544   8.434   4.875   0.959 -0.2250  0.0059  0.0624
    1W        W37545   6.236  17.141   0.643  0.1261 -0.1030  0.2060
    1W        W37546   3.066  26.781   7.218  0.1627  0.0349 -0.0218
    1W        W37547   9.627   8.280   0.905  0.0186 -0.2250  0.1371
    1W        W37548  20.302  27.780   7.547  0.0463 -0.0983 -0.1784
    1W        W37549  23.467  20.587   0.012  0.0815  0.0951 -0.0445
    1W        W37550  12.016  28.059   3.621  0.0913 -0.2068  0.2217
    1W        W37551  16.086   7.330   9.432  0.0330 -0.2902 -0.0055
    1W        W37552  25.313  11.786   2.157 -0.1817  0.0730  0.0720
    1W        W37553   8.289  23.351   8.260  0.0229  0.0019 -0.0786
    1W        W37554   9.122   6.517   9.878 -0.0949  0.0505  0.1929
    1W        W37555   5.672  23.513   6.343 -0.0379 -0.0769 -0.1420
    1W        W37556  28.344   0.029   8.203  0.1712 -0.0191  0.4072
    1W        W37557  26.406   0.987   0.241 -0.0443  0.0813  0.2903
    1W        W37558   5.533  25.019   9.044  0.1221  0.3495  0.2692
    1W        W37559   2.851  16.589   6.111  0.1623 -0.0091  0.0046
    1W        W37560  11.059  27.932   6.966 -0.0484 -0.1436 -0.1501
    1W        W37561   0.994  25.789   8.572  0.1638 -0.0869 -0.0741
    1W        W37562  21.517  22.074   3.213  0.1672  0.1584 -0.0539
    1W        W37563  11.824  13.478   9.248 -0.1378  0.0488 -0.1677
    1W        W37564  13.563  26.369   1.923  0.0685  0.0834  0.2123
    1W        W37565  18.191   4.395   0.236 -0.0985  0.1314 -0.0948
    1W        W37566  24.136   9.836   1.163  0.2278  0.0227 -0.0995
    1W        W37567  18.114  11.791   9.078 -0.2539  0.0305 -0.0876
    1W        W37568   8.019  17.107   9.526 -0.2515 -0.1517  0.0157
    1W        W37569  21.944   5.728   7.912 -0.2491 -0.0738 -0.0235
    1W        W37570  28.251  20.291   2.811 -0.1845 -0.4292 -0.1094
    1W        W37571  14.471  18.206   0.903 -0.2371 -0.1536  0.2310
    1W        W37572   5.028   2.836   7.550 -0.0270 -0.3104 -0.1844
    1W        W37573  14.274  26.658   8.950  0.3257  0.5626 -0.2065
    1W        W37574   7.072   8.665   8.646 -0.1968  0.2004 -0.2230
    1W        W37575   1.922   3.397   3.312 -0.0427 -0.0294  0.0257
    1W        W37576   5.398   8.286   0.469  0.1282  0.0012 -0.0360
    1W        W37577  27.453   9.791   7.106 -0.0567  0.1392  0.1275
    1W        W37578  25.761  14.378   6.840 -0.0674  0.0036 -0.1222
    1W        W37579  11.111  23.549   7.161  0.0248 -0.0614  0.5060
    1W        W37580   0.775  13.561   6.646 -0.4991 -0.0778  0.4099
    1W        W37581   1.709  26.994   9.544 -0.1350  0.0321 -0.0669
    1W        W37582  22.259  21.836   1.112  0.2130  0.2153 -0.0931
    1W        W37583  10.039   3.574   9.010  0.2881  0.0398  0.0037
    1W        W37584   4.560   3.161   1.737 -0.0868  0.2166 -0.0206
    1W        W37585  25.029  25.035   2.155  0.0823 -0.0295 -0.1499
    1W        W37586  22.836   3.640   7.441  0.2829 -0.0722 -0.0320
    1W        W37587  15.451  23.466   9.681  0.0849  0.0209 -0.1416
    1W        W37588  15.835  27.976   7.039 -0.0586  0.0895 -0.0202
    1W        W37589   1.705  22.972   0.157  0.1365  0.3635  0.1913
    1W        W37590  22.806  18.008   7.441 -0.0235  0.2803  0.0244
    1W        W37591   7.083  24.139   1.330 -0.0202 -0.2194 -0.5043
    1W        W37592  14.235  10.661   8.074 -0.0572  0.2355 -0.2684
    1W        W37593   4.077  20.488   5.356 -0.2378  0.1270 -0.0544
    1W        W37594  19.080  23.069   4.052 -0.2196  0.0554 -0.2168
    1W        W37595  22.716   6.750   3.368  0.1833  0.2489 -0.0858
    1W        W37596   6.797  24.933   1.799 -0.3090 -0.3152 -0.2519
    1W        W37597   6.469  20.599   0.770 -0.0348  0.2226  0.0131
    1W        W37598  18.899   7.984   9.132  0.1065 -0.1279  0.1006
    1W        W37599   7.787  28.465   2.007  0.3696 -0.0821 -0.1889
    1W        W37600  20.449   1.709   2.005 -0.2830  0.1393 -0.0282
    1W        W37601  24.369   3.662   8.579  0.0798  0.0188 -0.1708
    1W        W37602  19.462   4.097   2.640  0.1444 -0.0528 -0.1316
    1W        W37603  23.884  16.323   2.044 -0.1723 -0.0314 -0.1908
    1W        W37604  24.834  13.798   1.533  0.0004  0.3493  0.0481
    1W        W37605  16.048  24.520   7.723  0.0787 -0.1323 -0.0456
    1W        W37606  10.682   4.011   1.028 -0.4365 -0.0295 -0.1054
    1W        W37607  16.084  12.640   9.266 -0.2258  0.2018  0.6060
    1W        W37608  13.579  18.707   1.008 -0.3016  0.1260 -0.3400
    1W        W37609  14.335  19.259   2.847 -0.0710 -0.0107 -0.2114
    1W        W37610   5.254  25.237   0.637  0.2450 -0.0617  0.0413
    1W        W37611  26.874   0.701   6.545  0.0601 -0.0948 -0.0476
    1W        W37612   5.549  12.453   9.479 -0.3282 -0.0581 -0.0558
    1W        W37613  24.054  19.374   1.734 -0.2396  0.2956  0.1154
    1W        W37614  19.496  16.669   8.739  0.1858 -0.1197 -0.1350
    1W        W37615   1.398  14.644   0.440 -0.0924  0.3062 -0.2548
    1W        W37616  16.094  18.369   2.301 -0.2478  0.1420 -0.0838
    1W        W37617  23.233  27.260   2.666  0.0925  0.2756 -0.0987
    1W        W37618  12.577   5.932   8.892  0.1437  0.0312  0.1472
    1W        W37619   4.652  15.464   7.283  0.2561  0.1770 -0.1755
    1W        W37620  21.626   7.565   7.996 -0.3505 -0.3416 -0.0044
    1W        W37621   8.052  21.794   6.877  0.1253 -0.4041  0.1534
    1W        W37622  26.285  19.828   8.006 -0.3842 -0.6378  0.3985
    1W        W37623   7.641  14.469   1.593 -0.1464  0.0449 -0.1559
    1W        W37624   2.673  15.169   7.326 -0.0422  0.0024  0.2930
    1W        W37625   6.966   8.748   1.888 -0.2476 -0.0259  0.0894
    1W        W37626  12.810  23.113   0.307  0.2334 -0.2556 -0.0991
    1W        W37627  10.474  23.499   9.761 -0.0731 -0.3261 -0.1763
    1W        W37628  21.432  10.631   1.040  0.1255  0.0933  0.1425
    1W        W37629  11.684  24.692   1.139 -0.2111 -0.1966 -0.0526
    1W        W37630  21.613  21.715   7.860 -0.0322 -0.2012 -0.1271
    1W        W37631   4.328  17.367   5.694  0.1028  0.2725  0.1179
    1W        W37632  18.174  12.578   8.354 -0.0340 -0.0451  0.0121
    1W        W37633  16.938  23.258   3.299 -0.3030 -0.1354 -0.0079
    1W        W37634  15.349  27.955   2.163  0.3790 -0.0657  0.1557
    1W        W37635  10.444  26.453   8.018  0.1502  0.0376 -0.2062
    1W        W37636   1.808  12.855   0.985  0.3254 -0.1857 -0.0197
    1W        W37637   9.109  16.635   8.757 -0.1872  0.1428  0.1093
    1W        W37638  16.284  17.735   7.903  0.1354 -0.3362  0.1597
    1W        W37639   3.215   6.950   1.418  0.2157 -0.1004 -0.0595
    1W        W37640  10.768  14.478   2.976  0.1528  0.1765  0.3280
    1W        W37641  28.563  11.248   0.518 -0.1557  0.1772  0.5780
    1W        W37642  26.163   2.506   0.079 -0.0557  0.1854  0.1759
    1W        W37643   0.140   6.596   3.183  0.0483 -0.2622 -0.1040
    1W        W37644   5.262   0.744   2.087  0.5331 -0.0377 -0.0692
    1W        W37645  12.907  18.076   7.093  0.0042  0.2823 -0.0524
    1W        W37646   2.169  11.552   2.048 -0.0296 -0.1762  0.0005
    1W        W37647  12.013  28.296   0.879 -0.3763  0.0981  0.1197
    1W        W37648  11.814   3.032   9.112 -0.1914 -0.2116  0.0363
    1W        W37649  18.722  26.142   7.738 -0.0251 -0.0416  0.1406
    1W        W37650  16.085  12.783   1.957  0.0879 -0.1475 -0.1473
    1W        W37651  23.355  27.674   7.908  0.2166 -0.1770 -0.0004
    1W        W37652  19.419   1.979   9.658 -0.0732 -0.1835  0.3956
    1W        W37653   5.785  22.843   8.809 -0.2919  0.0269  0.1644
    1W        W37654  14.797   9.033   9.705  0.1559 -0.2761 -0.0593
    1W        W37655  20.427   1.217   6.150 -0.1409  0.1391  0.1838
    1W        W37656  10.943   0.421   1.238  0.0589 -0.1663 -0.1753
    1W        W37657  12.753  26.430   8.892 -0.0121 -0.0900  0.0001
    1W        W37658  19.263  15.564   9.767  0.1436 -0.0909  0.2060
    1W        W37659  28.412  13.374   0.473 -0.1622 -0.3672 -0.1080
    1W        W37660  10.388  22.918   8.884 -0.0537 -0.0433 -0.0467
    1W        W37661   9.949  12.403   9.136  0.1271 -0.4415  0.0616
    1W        W37662  12.483   8.291   0.788 -0.0465  0.0899  0.2467
    1W        W37663  14.637  11.228   0.882 -0.2543  0.0773  0.1140
    1W        W37664   6.163  13.254   8.511  0.1913  0.1833  0.1476
    1W        W37665   7.557   7.356   9.796  0.1497 -0.1068 -0.0357
    1W        W37666  18.472   6.962   3.293 -0.3862  0.0235 -0.0025
    1W        W37667   6.765   5.213   7.295 -0.3771  0.0949  0.0665
    1W        W37668  21.696  20.782   9.164 -0.1087 -0.2255 -0.5803
    1W        W37669  28.319  19.755   1.017 -0.0087 -0.5588 -0.1183
    1W        W37670   3.245  10.156   2.441  0.0244  0.0293  0.0038
    1W        W37671  27.514  23.214   8.704  0.2293  0.2129  0.0431
    1W        W37672   4.098  19.078   6.714  0.0803 -0.0604 -0.0956
    1W        W37673   5.933  10.415   7.504  0.0733 -0.0874 -0.3110
    1W        W37674   4.571  19.477   2.018  0.0949  0.0750 -0.0792
    1W        W37675   3.326  15.869   2.016 -0.1320 -0.3463 -0.1146
    1W        W37676  19.946  22.644   0.073 -0.2370 -0.1991  0.1613
    1W        W37677  20.963  21.051   1.585  0.1102 -0.0729  0.3586
    1W        W37678  26.304  10.874   8.298 -0.1037  0.2551  0.2480
    1W        W37679  28.643   6.419   7.817 -0.0582  0.2511  0.0296
    1W        W37680  22.965  27.582   1.168  0.0103 -0.1036  0.3268
    1W        W37681  22.755   5.651   1.118 -0.2472 -0.4182  0.0192
    1W        W37682  20.458   0.006   9.666  0.1563  0.0116 -0.0815
    1W        W37683  22.778   2.353   1.215 -0.0111 -0.0593  0.2299
    1W        W37684  20.735   1.444   9.052 -0.1748  0.3976  0.0234
    1W        W37685  17.491   4.595   0.889  0.0760  0.1269 -0.1796
    1W        W37686   6.382  12.188   3.554 -0.2525  0.2170 -0.0254
    1W        W37687   4.432  21.909   7.820 -0.0347 -0.0825 -0.1326
    1W        W37688   9.629  24.176   0.735  0.4268 -0.3954 -0.2515
    1W        W37689  20.266   2.819   7.701  0.0227  0.0899 -0.0697
    1W        W37690  23.302   5.787   9.352  0.0716  0.0610 -0.1716
    1W        W37691   5.370   0.359   0.568  0.1107 -0.0625 -0.3191
    1W        W37692  26.863   2.525   0.626  0.4241  0.1813  0.0343
    1W        W37693  22.207  28.075   9.695  0.1052 -0.1778  0.1102
    1W        W37694   9.632  14.081   0.648 -0.2929  0.0253  0.1011
    1W        W37695  10.256  10.449   0.254 -0.1426  0.1054  0.0101
    1W        W37696  13.924  26.666   9.836 -0.0559 -0.1023  0.1904
    1W        W37697   4.390  22.464   9.255  0.0105 -0.1936  0.0356
    1W        W37698   1.880  23.844   0.353  0.1088 -0.3775  0.0205
    1W        W37699   6.860   7.887   8.621 -0.0917  0.1819  0.5560
    1W        W37700  27.788   5.059   7.919 -0.0220  0.1606 -0.1914
    1W        W37701  12.837   0.651   3.293 -0.3001 -0.0176 -0.0371
    1W        W37702  11.998  27.471   1.526  0.1328 -0.0581 -0.2326
    1W        W37703  18.185  21.263   3.575 -0.0740 -0.0582 -0.0580
    1W        W37704   2.079  22.412   0.928  0.2709 -0.1309 -0.0865
    1W        W37705  14.396   3.521   0.244 -0.0233 -0.1561 -0.0729
    1W        W37706  28.706  23.236   7.050  0.5414  0.2016  0.4058
    1W        W37707  25.662  21.384   0.764 -0.1892  0.1510 -0.2655
    1W        W37708  15.150  15.962   1.852 -0.0304 -0.4094  0.6806
    1W        W37709  23.277  28.635   1.139  0.0114  0.0605  0.0908
    1W        W37710  22.882   3.094   1.662  0.0942  0.1401 -0.0020
    1W        W37711   2.538  23.965   0.566 -0.0236 -0.3687 -0.0975
    1W        W37712   4.980   2.441   7.903  0.0193  0.0481 -0.1484
    1W        W37713  25.976   6.964   7.570  0.0465  0.0677 -0.1058
    1W        W37714  23.483   0.314   0.854 -0.3173  0.1443  0.3341
    1W        W37715  12.762  17.439   0.345  0.2469  0.1576  0.4103
    1W        W37716   8.955  20.948   2.860  0.2219 -0.0431  0.2209
    1W        W37717  12.755  19.556   8.912 -0.1366  0.0881  0.3324
    1W        W37718  10.460  27.486   0.437  0.2562 -0.0194  0.2163
    1W        W37719  18.489  18.260   2.104 -0.0020  0.0026  0.0813
    1W        W37720   4.988  13.383   7.977 -0.2702 -0.2494 -0.2357
    1W        W37721   9.803  27.153   1.354  0.2847  0.2116 -0.5003
    1W        W37722  15.116  27.695   8.284  0.1154  0.1638  0.0867
    1W        W37723   0.682  27.431   0.358  0.1453  0.0418 -0.5649
    1W        W37724  17.478  14.113   8.104  0.1930  0.2403  0.0808
    1W        W37725   5.510  14.939   1.629  0.0552  0.2836  0.2754
    1W        W37726  22.417  26.315   7.406 -0.2490  0.1415 -0.2379
    1W        W37727   5.158   4.797   8.316 -0.0735 -0.1009  0.0318
    1W        W37728  15.694  25.448   9.110  0.2878  0.1843 -0.1117
    1W        W37729  19.097  27.592   7.602  0.3913 -0.1920 -0.0266
    1W        W37730  28.165   3.580   0.378 -0.1725  0.0013 -0.1275
    1W        W37731   3.106  11.279   8.137 -0.2209  0.1046 -0.0795
    1W        W37732   6.731  21.768   6.792  0.0586 -0.2526  0.2952
    1W        W37733  20.673   1.641   8.628  0.0115  0.1038  0.0174
    1W        W37734  20.214   8.310   0.853 -0.1840  0.1101 -0.2726
    1W        W37735  21.127   7.437   0.829 -0.1997  0.0416 -0.0434
    1W        W37736  17.938  25.481   7.421  0.1379  0.4355 -0.0583
    1W        W37737   8.314  23.361   9.397  0.1043 -0.1499  0.2311
    1W        W37738   3.711  12.465   8.345 -0.3903 -0.2607  0.5121
    1W        W37739  17.182  28.378   1.371  0.1394 -0.1486 -0.0413
    1W        W37740   8.352  26.717   1.706  0.0159 -0.1287  0.2097
    1W        W37741  27.881   8.415   8.500 -0.3431 -0.2240  0.3790
    1W        W37742   8.850  20.959   6.182  0.0327 -0.0434  0.2264
    1W        W37743  22.730   3.758   2.449 -0.0377 -0.2903  0.1433
    1W        W37744   9.267  15.353   0.079  0.2194 -0.0599  0.0184
    1W        W37745   4.403  21.499   8.125  0.2555  0.0376  0.0242
    1W        W37746   1.063  26.870   8.784 -0.2290 -0.2065  0.0114
    1W        W37747  27.218  14.884   0.252 -0.0362  0.1769  0.1811
    1W        W37748   2.278   4.605   7.729  0.1236  0.0409 -0.1295
    1W        W37749  27.097  11.202   6.910 -0.0612 -0.2002 -0.4112
    1W        W37750   4.768  22.281   8.327 -0.3799  0.1105 -0.1494
    1W        W37751  24.962  23.897   9.388 -0.0345  0.2506  0.0319
    1W        W37752  12.308   0.485   8.669 -0.1380 -0.0181  0.1008
    1W        W37753   1.275  12.722   2.984 -0.1875  0.1054 -0.0210
    1W        W37754   9.721  25.667   8.547 -0.1997  0.1379 -0.1772
    1W        W37755   4.248  22.626   8.325 -0.0367 -0.0187 -0.0316
    1W        W37756  25.593  10.707   9.865 -0.2201 -0.0585 -0.1506
    1W        W37757  18.844  17.600   2.027 -0.0947  0.0081 -0.1177
    1W        W37758  13.228  13.954   9.816  0.2214  0.0270 -0.0713
    1W        W37759  23.774   2.142   2.307 -0.0340  0.1049  0.1367
    1W        W37760  13.688  15.610   7.934  0.0296 -0.0517 -0.1341
    1W        W37761   9.763  25.151   8.405 -0.0379  0.1217  0.0246
    1W        W37762   1.087   2.529   9.116  0.1624 -0.0161 -0.1603
    1W        W37763  12.605   2.014   4.409  0.0920  0.2592 -0.0395
    1W        W37764  20.451  11.893   7.513 -0.2547 -0.1850 -0.0057
    1W        W37765  24.744  26.140   7.980 -0.0404  0.1228  0.0472
    1W        W37766  21.890   0.810   7.502  0.1812  0.0658  0.1396
    1W        W37767   2.223   8.416   9.792  0.1900 -0.0530  0.0233
    1W        W37768  21.212  17.112   0.295 -0.1161 -0.1431 -0.1410
    1W        W37769  27.510  27.157   7.297 -0.0307 -0.0848  0.0153
    1W        W37770   9.533   4.613   8.811  0.0216 -0.3527 -0.0319
    1W        W37771   2.292  10.791   0.332  0.2369  0.1083 -0.0313
    1W        W37772   4.394  14.886   9.835  0.0691 -0.2008 -0.3061
    1W        W37773   1.826  12.770   1.559 -0.0482  0.2269 -0.0361
    1W        W37774   9.473   5.399   8.029 -0.0292 -0.0646  0.1318
    1W        W37775   3.980   4.887   9.756  0.1394 -0.0696  0.2070
    1W        W37776  10.791  22.469   2.136 -0.1386  0.2263  0.0164
    1W        W37777  24.023  21.052   1.350  0.0471 -0.1008 -0.0040
    1W        W37778   9.156  10.826   1.525  0.1010 -0.4725 -0.0174
    1W        W37779  21.085  16.600   7.509  0.0701  0.2790  0.1136
    1W        W37780  13.285   9.978   2.311  0.0401  0.0504  0.1903
    1W        W37781   1.109  15.874   1.233  0.1820 -0.3050 -0.0466
    1W        W37782   8.548   4.771   2.316  0.0292 -0.1904  0.1243
    1W        W37783   7.959   5.814   8.173  0.0753 -0.2036 -0.0943
    1W        W37784  16.861  20.405   2.580  0.1676  0.2463 -0.0548
    1W        W37785  25.775   5.934   9.829  0.2729 -0.0576  0.3983
    1W        W37786  22.536  25.642   2.123 -0.3677 -0.0222  0.4646
    1W        W37787  14.225   1.733   2.930 -0.0604 -0.1916  0.0042
    1W        W37788  25.748  20.355   1.253 -0.1343  0.0424  0.0067
    1W        W37789   7.085  21.420   6.693  0.1470  0.2940  0.3749
    1W        W37790   6.252   2.728   8.085  0.1245  0.1521  0.3385
    1W        W37791   3.529  14.020   8.302 -0.1869  0.2331  0.1531
    1W        W37792   2.975  21.482   1.498 -0.3124  0.0572  0.1947
    1W        W37793  22.230   7.789   1.578  0.1777 -0.2245 -0.1979
    1W        W37794  16.199  25.499   9.049  0.1255  0.1121 -0.1727
    1W        W37795   3.033   6.012   9.760 -0.0118 -0.1433  0.0143
    1W        W37796  20.192   5.671   1.296 -0.1290 -0.1340  0.1267
    1W        W37797   4.506  19.622   8.290  0.1904 -0.1387 -0.0231
    1W        W37798  17.084  10.739   0.697  0.1475  0.0551  0.1060
    1W        W37799  10.763  10.212   3.084 -0.2048  0.0019 -0.0993
    1W        W37800  16.436   4.460   3.101 -0.2400  0.2907  0.1675
    1W        W37801  15.772  19.944   0.221 -0.0709 -0.0188 -0.1103
    1W        W37802  23.601  25.894   1.745  0.1346  0.6453  0.1700
    1W        W37803  14.613  19.563   8.787 -0.2041 -0.3838 -0.2909
    1W        W37804  13.788  23.335   1.499  0.0928  0.0486  0.1799
    1W        W37805  25.096   0.052   9.907  0.0954  0.1268 -0.1805
    1W        W37806   8.240   4.866   8.142  0.2124  0.2112  0.1685
    1W        W37807  16.177  13.141   8.591  0.1706 -0.3529  0.0095
    1W        W37808   7.158   3.313   7.381  0.1057 -0.0297 -0.0079
    1W        W37809   4.705   3.490   8.124 -0.0468  0.0176 -0.0903
    1W        W37810  21.345   4.597   0.763 -0.0167  0.1388  0.1591
    1W        W37811   0.056   7.090   9.864 -0.3586 -0.1268  0.2398
    1W        W37812  19.048  21.439   2.647 -0.0029 -0.0485 -0.2153
    1W        W37813  23.448  26.958   8.873 -0.2102 -0.0093  0.0348
    1W        W37814   7.748  13.801   9.809 -0.1085  0.0764  0.1388
    1W        W37815  19.421   1.104   1.607  0.0014 -0.3828 -0.1620
    1W        W37816  21.673  23.124   6.634  0.0593  0.0285 -0.0408
    1W        W37817  27.700  23.015   0.967  0.2248  0.0112 -0.2142
    1W        W37818  28.174  11.343   6.979 -0.1665 -0.0867  0.1448
    1W        W37819   0.180  25.715   9.475  0.1768  0.0477  0.2483
    1W        W37820  15.496   2.840   3.184  0.0224  0.1801 -0.1063
    1W        W37821  17.521   2.973   1.815  0.0250 -0.1074  0.0508
    1W        W37822  28.062  27.509   8.335 -0.2301  0.0526  0.1322
    1W        W37823  19.700  15.078   8.066 -0.2147 -0.1336  0.0042
    1W        W37824   2.500  22.838   6.255 -0.0256 -0.1057  0.0439
    1W        W37825  11.003   5.511   0.954 -0.0006  0.2136 -0.0277
    1W        W37826  25.447  23.213   7.075 -0.2449 -0.0883 -0.2507
    1W        W37827  15.632  17.938   0.588 -0.1291 -0.0759  0.1596
    1W        W37828  16.263  21.423   8.308  0.0274 -0.0850  0.0532
    1W        W37829  23.500  23.867   3.138  0.3608  0.1749  0.0033
    1W        W37830  22.536   6.481   1.143 -0.0405  0.0137 -0.2508
    1W        W37831  21.850   7.174   7.769 -0.1249 -0.1936 -0.3148
    1W        W37832  14.103   5.632   1.555 -0.1533 -0.4386  0.1652
    1W        W37833   0.680   6.251   7.491 -0.0804  0.2996  0.0633
    1W        W37834   4.443  28.535   8.400 -0.2544  0.2152 -0.1124
    1W        W37835   6.050   7.094   9.509 -0.0533 -0.0546 -0.0063
    1W        W37836  25.410   9.159   2.732  0.2092 -0.1178  0.1358
    1W        W37837  25.033   4.466   0.932  0.0266 -0.1937  0.0612
    1W        W37838   2.314  18.792   8.853 -0.2438 -0.1052 -0.3224
    1W        W37839   6.502   1.357   8.706 -0.0021 -0.1996 -0.0466
    1W        W37840  15.112  28.114   3.520  0.3476 -0.0996 -0.0729
    1W        W37841  12.441  18.460   1.839 -0.1045  0.0449 -0.0832
    1W        W37842   3.142  25.317   1.638 -0.0604  0.2415  0.2736
    1W        W37843  18.903   6.508   8.795 -0.1946 -0.2861 -0.0179
    1W        W37844  19.879   8.189   8.116 -0.0363  0.3516  0.1091
    1W        W37845  28.305   9.757   6.580 -0.2448 -0.0454  0.2422
    1W        W37846  13.165   1.269   9.185 -0.0231 -0.0985 -0.1768
    1W        W37847  19.679  20.739   0.543 -0.1555 -0.3643 -0.0171
    1W        W37848  13.716  25.718   8.059 -0.0905  0.1311  0.0968
    1W        W37849  18.391  14.426   1.906  0.1349 -0.2066 -0.0492
    1W        W37850  21.679   2.800   0.760  0.0642 -0.1084 -0.0722
    1W        W37851  16.856  24.621   1.405  0.3162 -0.2190 -0.0286
    1W        W37852   0.790  22.031   0.155  0.4093 -0.2825 -0.0439
    1W        W37853   6.019  18.084   0.194  0.0038  0.1714 -0.1484
    1W        W37854  13.284  25.984   9.895 -0.3089  0.1975 -0.0643
    1W        W37855   8.709   1.507   7.517 -0.0304 -0.1395 -0.1945
    1W        W37856   6.918   5.682   9.472  0.0748 -0.2181  0.2390
    1W        W37857   5.894  28.389   1.943  0.0429 -0.0958  0.0770
    1W        W37858  28.274  18.916   9.153  0.0039  0.0236  0.3135
    1W        W37859  15.560  10.258   2.577 -0.1543 -0.0948  0.0769
    1W        W37860  19.837  22.861   1.278  0.3391  0.2614 -0.2643
    1W        W37861  18.399   3.282   1.301  0.0307 -0.3680 -0.0180
    1W        W37862   4.576  26.080   0.236 -0.0140 -0.3872  0.3752
    1W        W37863  12.061   6.563   7.205  0.2652 -0.1369 -0.1635
    1W        W37864  17.164  25.718   2.901  0.2630 -0.0843 -0.0365
    1W        W37865   3.942   8.807   9.023 -0.1221 -0.3834  0.2078
    1W        W37866   0.710  21.290   7.356  0.2029  0.3320 -0.0829
    1W        W37867  25.844   6.176   2.321 -0.1293  0.1095 -0.5182
    1W        W37868  12.310   4.586   1.371 -0.2007  0.0128 -0.0762
    1W        W37869   7.826  17.715   2.067 -0.2088 -0.0194  0.3422
    1W        W37870   7.003   8.460   9.104  0.0422  0.0489  0.1970
    1W        W37871   6.201  19.828   0.921 -0.1932  0.0609  0.0956
    1W        W37872  20.868   2.325   7.390  0.1839  0.0730 -0.0556
    1W        W37873   6.469  27.764   3.417 -0.4925 -0.1301  0.0604
    1W        W37874  25.794   4.033   0.402 -0.2077 -0.0565 -0.1392
    1W        W37875  17.090   1.615   2.265  0.1657  0.1959 -0.0530
    1W        W37876  12.939  19.661   1.760 -0.2858  0.1601  0.0682
    1W        W37877   0.674  20.552   1.360  0.1431  0.0630 -0.1133
    1W        W37878   5.529  19.802   6.899 -0.4161 -0.1822 -0.0101
    1W        W37879   2.352  17.153   0.772  0.1906 -0.1044 -0.1055
    1W        W37880   9.655  24.794   6.574  0.0220 -0.1601  0.2709
    1W        W37881  19.267   4.373   2.239  0.2451  0.1001  0.1158
    1W        W37882   9.683  24.093   9.116 -0.0865 -0.0043  0.3688
    1W        W37883   9.119  23.537   0.248  0.3996 -0.1525 -0.0421
    1W        W37884  28.654  26.996   1.812  0.0876  0.0062 -0.1838
    1W        W37885  19.521  14.917   9.429  0.2764 -0.1043 -0.0780
    1W        W37886  20.539   9.963   2.961  0.3205 -0.1129 -0.0395
    1W        W37887  25.809  11.935   6.325 -0.0765 -0.2130 -0.2842
    1W        W37888  14.195  14.089   9.623  0.1320 -0.0885  0.1864
    1W        W37889  11.864  11.207   2.305 -0.2408 -0.0919  0.1817
    1W        W37890   6.756  17.836   2.072  0.1803  0.1390  0.0789
    1W        W37891   0.149   1.462   3.119 -0.1203  0.0974 -0.2082
    1W        W37892  16.105  10.493   8.237 -0.0374  0.2630 -0.0632
    1W        W37893  16.705  15.059   1.490 -0.1667  0.4088  0.0909
    1W        W37894   3.130   7.286   2.325  0.0025  0.0343  0.0956
    1W        W37895   9.714  26.039   6.769 -0.0513  0.0410 -0.0135
    1W        W37896   5.974   7.778   7.805  0.3406  0.2123 -0.0112
    1W        W37897  15.857   6.207   7.242  0.2896 -0.0457 -0.1278
    1W        W37898   6.601  19.284   6.799  0.2025  0.1460  0.2911
    1W        W37899   1.062  23.815   6.819 -0.2697 -0.0136 -0.2539
    1W        W37900  17.627  18.445   2.210  0.1312 -0.0511 -0.2950
    1W        W37901   1.975  12.961   2.264 -0.0843  0.0651 -0.1289
    1W        W37902  28.250   5.740   6.321 -0.1623  0.1400 -0.1532
    1W        W37903  20.707  25.204   1.226  0.0059 -0.0161 -0.0637
    1W        W37904   9.670   0.124   9.827  0.0086 -0.3544 -0.1146
    1W        W37905  25.517   7.941   7.562  0.0787 -0.1330  0.2694
    1W        W37906  16.608   5.221   3.170  0.1868  0.0740 -0.1405
    1W        W37907  24.555   2.384   7.762  0.2162 -0.3558  0.2064
    1W        W37908   2.807   5.910   8.501 -0.0070  0.0258 -0.5321
    1W        W37909  17.807  11.088   8.375  0.1626 -0.2137 -0.0483
    1W        W37910  26.410   1.134   9.251 -0.0121 -0.0862 -0.0394
    1W        W37911   3.546  18.536   7.678 -0.2163  0.3202 -0.1172
    1W        W37912  26.006  23.698   9.043  0.0950 -0.1450 -0.0269
    1W        W37913   2.349   6.833   1.236 -0.0461  0.1036 -0.0618
    1W        W37914   7.739  14.546   9.066 -0.1042  0.1502 -0.1199
    1W        W37915  23.893   5.730   9.375  0.2193 -0.1332  0.0828
    1W        W37916  15.407  26.965   3.656 -0.3227  0.2924 -0.1445
    1W        W37917   3.939  27.230   8.662  0.0885 -0.4110 -0.0648
    1W        W37918  21.072   4.901   1.043  0.0282  0.0890 -0.3111
    1W        W37919   9.121  16.427   6.810  0.1056 -0.0544 -0.1410
    1W        W37920   1.497  27.693   7.397 -0.2613  0.0859  0.1102
    1W        W37921   0.471  12.590   8.189 -0.0028  0.1987  0.0623
    1W        W37922   4.447  15.765   9.453  0.6000  0.0807 -0.1748
    1W        W37923  23.719  17.025   9.392 -0.3144 -0.1080  0.1120
    1W        W37924  12.588  25.951   2.399  0.0604  0.1868  0.0342
    1W        W37925  11.551   8.551   8.420  0.1105 -0.0133  0.1328
    1W        W37926   3.800   9.696   6.482 -0.1090 -0.3101  0.0995
    1W        W37927   0.226  25.130   7.723  0.0569  0.0661 -0.0618
    1W        W37928  28.517  19.424   6.360  0.1083 -0.2329 -0.2371
    1W        W37929   7.890   0.228   7.614  0.3753 -0.1193  0.1041
    1W        W37930   9.412  17.914   7.503 -0.0591 -0.2173  0.2674
    1W        W37931  21.529  14.860   7.807 -0.0201 -0.0439  0.1173
    1W        W37932  24.037  16.476   8.457 -0.3889 -0.1186  0.1846
    1W        W37933  12.564  14.974   9.527  0.1069 -0.2602 -0.1779
    1W        W37934   4.503   4.754   2.912  0.1137 -0.0053  0.1958
    1W        W37935  22.809  19.577   2.259  0.1727 -0.2083  0.0822
    1W        W37936  27.251  10.610   6.733  0.0092  0.1603 -0.1078
    1W        W37937  25.356   7.345   2.446 -0.0983  0.1570 -0.1468
    1W        W37938   4.215  19.696   1.706 -0.0424  0.1672  0.4429
    1W        W37939  10.044   1.835   0.619  0.1341  0.0445  0.2497
    1W        W37940  17.375   9.821   9.309  0.2992 -0.3235  0.2805
    1W        W37941  27.728  24.542   2.138 -0.0589 -0.0735 -0.0909
    1W        W37942  24.714  19.227   8.829 -0.1203 -0.0770 -0.1527
    1W        W37943   0.560  20.053   9.583 -0.0277 -0.0483 -0.2444
    1W        W37944   6.392  21.310   9.313 -0.2176 -0.0573  0.1264
    1W        W37945  14.693  13.581   2.497  0.0725 -0.0137 -0.0300
    1W        W37946   0.972   5.920   6.625 -0.0119 -0.0881  0.0630
    1W        W37947   6.349   8.486   7.529 -0.1333 -0.2599 -0.3366
    1W        W37948  26.128  26.129   8.286 -0.1171  0.1185  0.0643
    1W        W37949  15.390  24.727   8.412 -0.0217 -0.1136  0.3629
    1W        W37950  19.872   2.765   8.896 -0.1305 -0.0177 -0.1238
    1W        W37951  11.484   0.232   9.046  0.1162 -0.0791 -0.0375
    1W        W37952  19.692  12.504   8.734  0.0628 -0.1380  0.0306
    1W        W37953   0.052   3.540   0.143 -0.0293  0.0837  0.1067
    1W        W37954  16.168  24.177   1.757 -0.0919  0.1886 -0.0493
    1W        W37955  21.948   3.088   8.810 -0.2100  0.0418  0.1492
    1W        W37956   2.138   1.324   1.949  0.0671  0.0159  0.0565
    1W        W37957  15.309  20.447   1.279 -0.5241  0.2209 -0.2405
    1W        W37958  17.665  16.245   0.009  0.0482  0.0840  0.1742
    1W        W37959  10.543   7.977   9.125  0.1863 -0.0843 -0.3178
    1W        W37960   5.104  24.002   9.405  0.0127  0.0300  0.0024
    1W        W37961   3.497  19.965   6.944  0.0968  0.2168  0.1061
    1W        W37962  16.888   2.613   7.229 -0.0220  0.3328 -0.2592
    1W        W37963  18.525  22.176   8.820 -0.0006  0.0451 -0.0675
    1W        W37964  26.059   7.518   6.033 -0.1229  0.0646 -0.2983
    1W        W37965  18.350   9.829   6.857  0.0531  0.0457  0.1323
    1W        W37966  28.290  19.829   9.903 -0.1897 -0.2301  0.0637
    1W        W37967   2.155  10.058   1.857  0.3110  0.0293  0.1504
    1W        W37968   6.581  26.272   0.498  0.1161  0.1861  0.0005
    1W        W37969  23.304   1.848   3.129 -0.1628 -0.2646  0.0902
    1W        W37970  21.519  19.732   3.722  0.1682 -0.0882 -0.2422
    1W        W37971  19.224   5.061   8.781  0.0036 -0.0846 -0.4757
    1W        W37972   1.314   9.386   9.905  0.1046  0.1384 -0.1968
    1W        W37973  16.460  20.850   1.050 -0.3036  0.1777 -0.3763
    1W        W37974   8.479   4.443   2.755  0.0056 -0.0814 -0.0554
    1W        W37975   3.283  24.343   9.303 -0.1720  0.3177 -0.0046
    1W        W37976  27.493   1.412   1.041 -0.4427 -0.1074 -0.0297
    1W        W37977   8.024   8.094   2.341 -0.0459 -0.1628 -0.1451
    1W        W37978   4.423   9.782   1.893  0.0306  0.1511 -0.4263
    1W        W37979   5.589  11.838   2.524 -0.1167 -0.0553  0.1932
    1W        W37980  10.208  19.712   8.939  0.0962 -0.1169  0.2599
    1W        W37981   1.490  11.021   8.307  0.0522 -0.3237 -0.2513
    1W        W37982  20.569  10.407   7.430 -0.0981  0.1392 -0.2975
    1W        W37983  15.556  24.917   1.527  0.0536  0.0083  0.3904
    1W        W37984   1.628  21.629   0.744 -0.2939 -0.0255  0.0966
    1W        W37985   2.135   8.652   9.343  0.0854  0.2023  0.0808
    1W        W37986   6.812  27.514   1.095  0.0605  0.2861  0.0603
    1W        W37987   1.530  20.358   9.594  0.0240 -0.1712 -0.1290
    1W        W37988   7.788  16.944   0.321  0.3143  0.2330  0.0641
    1W        W37989  24.758   4.111   9.395  0.0676 -0.3056 -0.2720
    1W        W37990  24.655   8.728   7.831  0.1465 -0.0752  0.2896
    1W        W37991   3.505   8.901   0.280 -0.0910 -0.1220 -0.1072
    1W        W37992  18.469  13.259   9.758  0.1048 -0.0292 -0.4038
    1W        W37993  21.160   8.456   1.078 -0.0052  0.0592 -0.0619
    1W        W37994  13.216  24.846   0.422 -0.2002  0.2538  0.2296
    1W        W37995   1.451  16.424   7.069 -0.0999  0.0943 -0.1180
    1W        W37996  22.512  15.854   0.043  0.1331 -0.0412 -0.0137
    1W        W37997  19.647  15.410   2.225 -0.3155  0.0449  0.0289
    1W        W37998  27.477   6.581   9.644 -0.1409  0.1519  0.4073
    1W        W37999  24.611  17.762   8.025  0.1171  0.2894  0.2537
    1W        W38000   6.506  15.336   9.310 -0.1177 -0.1747 -0.0335
    1W        W38001  16.091  16.522   8.595  0.0305  0.0598  0.0509
    1W        W38002   0.046  14.180   7.676 -0.0038 -0.1387  0.1773
    1W        W38003  18.132  18.554   2.310  0.1487 -0.1723 -0.0460
    1W        W38004   3.683   8.494   9.533  0.0629 -0.0413 -0.1419
    1W        W38005  25.536  20.311   8.273 -0.0930 -0.3767  0.1170
    1W        W38006   3.807   9.307   9.029 -0.1155  0.2214  0.1710
    1W        W38007  14.951  24.468   8.634  0.3694  0.1023  0.0740
    1W        W38008   0.618   0.098   7.187 -0.1047  0.2364  0.0272
    1W        W38009  12.062  10.396   1.818 -0.1911 -0.1994 -0.0678
    1W        W38010  25.360  10.999   6.556  0.2523 -0.0384  0.0300
    1W        W38011  21.666  21.584   3.367 -0.0988 -0.1035  0.1731
    1W        W38012  14.900  21.245   9.029 -0.0257  0.0587  0.0103
    1W        W38013  11.498  13.829   8.849 -0.0911  0.5226 -0.0482
    1W        W38014  24.628  25.966   0.403  0.4046  0.2152  0.2221
    1W        W38015  25.401  12.812   9.115 -0.2414 -0.1491 -0.0453
    1W        W38016  23.356  12.936   1.438  0.2180  0.0202  0.2224
    1W        W38017  27.740  20.783   1.807  0.0553 -0.0304 -0.3056
    1W        W38018  28.454  17.989   7.501  0.1460  0.0906 -0.0433
    1W        W38019  12.672   7.723   9.030  0.1787  0.1543 -0.0016
    1W        W38020   2.366  12.475   7.657 -0.0697  0.0933 -0.1089
    1W        W38021  11.394  20.221   0.860  0.2178 -0.1966  0.0879
    1W        W38022  14.474   9.391   2.172 -0.1020 -0.0935  0.2517
    1W        W38023  24.113   7.734   1.805 -0.1896  0.1706  0.2515
    1W        W38024  12.753  14.403   0.973 -0.2574  0.0257  0.2675
    1W        W38025  12.255  14.610   0.114  0.2154 -0.0576  0.0989
    1W        W38026  20.048  18.294   8.651 -0.1322  0.1620 -0.0346
    1W        W38027  23.860   6.908   0.609 -0.0486 -0.2923  0.0651
    1W        W38028  16.749  11.161   7.183 -0.1402  0.0590  0.1038
    1W        W38029   9.231   5.740   7.727 -0.0452  0.1340  0.2873
    1W        W38030  17.544   0.810   3.038  0.1448 -0.0829 -0.0870
    1W        W38031  28.459  14.119   5.990 -0.1071  0.1159  0.2023
    1W        W38032   8.568  18.698   7.430 -0.0165 -0.0588 -0.0046
    1W        W38033  10.878   3.632   2.222  0.1152  0.2810 -0.1527
    1W        W38034  23.299   1.322   1.137  0.1056  0.3026 -0.1769
    1W        W38035   2.577   4.980   3.106 -0.2904  0.1709  0.0285
    1W        W38036  23.145  27.537   7.382  0.1713  0.0489  0.0233
    1W        W38037  26.922  24.762   0.168 -0.0318 -0.2637 -0.2873
    1W        W38038  24.199  20.589   1.229 -0.2881 -0.1596 -0.3126
    1W        W38039   8.435  19.833   7.348  0.0139  0.0662  0.1370
    1W        W38040  21.142  26.386   7.800  0.1013 -0.2703  0.0234
    1W        W38041  19.963  22.412   0.679  0.2976  0.0574  0.1294
    1W        W38042   2.282  16.098   6.645  0.0814 -0.2186  0.0151
    1W        W38043  14.609  14.534   2.717  0.3757 -0.0061  0.0509
    1W        W38044   1.646  19.173   7.362 -0.2027 -0.3636  0.0002
    1W        W38045   0.892  25.163   2.922  0.0666 -0.4113  0.1644
    1W        W38046  20.524  24.932   0.801  0.0396 -0.0540  0.1026
    1W        W38047   6.874   4.168   0.189 -0.0660 -0.3167 -0.0972
    1W        W38048   5.708  14.273   9.151 -0.0733  0.0254 -0.0256
    1W        W38049   2.047  22.857   9.415 -0.0661 -0.1127  0.0514
    1W        W38050  27.294   6.777   6.853  0.0939  0.0824 -0.0197
    1W        W38051  10.998  15.889   0.216  0.3853  0.0530  0.0431
    1W        W38052   0.586   0.677   0.564 -0.1364 -0.1310 -0.3994
    1W        W38053   2.029   0.973   0.498  0.1455 -0.0321 -0.3879
    1W        W38054  28.170   0.598   2.473  0.2800  0.1583  0.0166
    1W        W38055  19.311  23.669   7.181  0.1908  0.4367 -0.0038
    1W        W38056  15.480  25.621   7.088  0.5242  0.0879  0.0844
    1W        W38057  17.549  13.116   7.632  0.1945  0.1032  0.1260
    1W        W38058  12.801  17.017   0.046  0.0276 -0.2341 -0.1804
    1W        W38059  23.750  14.989   9.680 -0.2621 -0.1378 -0.1490
    1W        W38060  12.230   1.510   7.965  0.0954  0.3469 -0.2742
    1W        W38061  11.192  15.463   8.965 -0.3825 -0.2099  0.0165
    1W        W38062   4.220   1.621   2.834  0.0726 -0.0851  0.0799
    1W        W38063   5.069   7.604   9.480  0.1056 -0.1007  0.0211
    1W        W38064   0.614  22.705   8.570  0.1918  0.0674 -0.2112
    1W        W38065  16.010  14.778   0.272 -0.0026  0.1331 -0.0836
    1W        W38066   5.193  10.885   7.808 -0.0637 -0.0380 -0.1589
    1W        W38067  26.554  19.159   1.617 -0.0997 -0.2161  0.1951
    1W        W38068  27.042  27.305   9.588 -0.2048 -0.1560 -0.1570
    1W        W38069  14.969  19.441   9.842  0.3994  0.2397  0.2057
    1W        W38070  21.414  22.404   7.165  0.1185  0.1204 -0.4425
    1W        W38071   3.086  15.445   7.365 -0.1293 -0.2815  0.0162
    1W        W38072   3.320   1.685   9.548  0.1606  0.2309 -0.0025
    1W        W38073  28.444  11.032   7.348  0.0557  0.1096 -0.2795
    1W        W38074   9.060  15.292   7.548  0.0665 -0.0265  0.1692
    1W        W38075   9.972  24.189   7.827  0.1014 -0.0168  0.0900
    1W        W38076  23.337  21.884   2.931 -0.0457  0.1122 -0.0683
    1W        W38077  28.417   7.896   6.717 -0.2341 -0.0009  0.1695
    1W        W38078  11.321  19.014   7.100 -0.1212 -0.0008  0.0566
    1W        W38079   8.131  10.715   7.703  0.0731 -0.0324  0.0475
    1W        W38080   9.049  21.296   2.434 -0.1883  0.1999 -0.1782
    1W        W38081  10.926   0.009   2.797 -0.2453  0.0973  0.0925
    1W        W38082  24.238   6.568   1.795 -0.0234 -0.1252 -0.1728
    1W        W38083  13.728  25.790   7.494  0.4169 -0.0360  0.1182
    1W        W38084  16.904  24.350   9.812 -0.1655  0.1387 -0.2489
    1W        W38085  15.246  13.123   2.082 -0.0563  0.0640 -0.4411
    1W        W38086  12.182   6.093   2.754 -0.0524  0.2825  0.0855
    1W        W38087   6.609  27.493   8.560 -0.2345  0.1872  0.2257
    1W        W38088   2.996  23.499   6.878 -0.1244  0.2506  0.0359
    1W        W38089  24.946   9.285   0.579 -0.1734 -0.0754 -0.3019
    1W        W38090  11.975   1.197   7.580  0.2588 -0.2031  0.1322
    1W        W38091  18.145  28.612   7.728  0.2280 -0.4010 -0.0240
    1W        W38092   3.115   9.621   9.826  0.1155  0.4261 -0.0617
    1W        W38093   1.959  10.707   7.358 -0.0732 -0.0455  0.1215
    1W        W38094  28.712   1.501   7.586 -0.0174  0.0365 -0.1382
    1W        W38095   4.859   0.188   2.741 -0.3404 -0.4672  0.1356
    1W        W38096  20.431  14.658   9.469 -0.0640 -0.0901  0.0782
    1W        W38097  15.638  27.410   9.706 -0.1019  0.0168  0.2604
    1W        W38098  15.467  17.221   2.527  0.1975  0.2689 -0.1795
    1W        W38099  28.448  24.061   7.067  0.1510  0.3621  0.0049
    1W        W38100  22.305  27.456   1.866 -0.1706 -0.1558 -0.1962
    1W        W38101  10.679   2.064   3.482  0.3348 -0.1346 -0.0138
    1W        W38102  23.370  13.480   7.321 -0.2273 -0.0813 -0.0158
    1W        W38103  22.428  20.172   8.919  0.0391  0.1519 -0.0274
    1W        W38104  16.054  25.540   2.135 -0.0531 -0.0456 -0.3200
    1W        W38105  14.814  17.977   8.767 -0.2492 -0.1551  0.1641
    1W        W38106   7.248  27.560   9.314  0.1166 -0.0456  0.1859
    1W        W38107  11.835   6.593   2.552  0.0585 -0.0040 -0.2219
    1W        W38108   6.409  21.048   6.184 -0.0708 -0.1577 -0.5576
    1W        W38109  27.016  28.330   9.438 -0.2559 -0.1315  0.0871
    1W        W38110  12.907   8.205   8.817  0.1724 -0.0778  0.0294
    1W        W38111  24.007   9.561   9.161  0.2802  0.1969 -0.1674
    1W        W38112  16.874  27.595   1.476 -0.3285  0.5142 -0.0237
    1W        W38113  20.390  17.550   1.535 -0.2153  0.0504  0.3257
    1W        W38114  28.542  17.715   1.696  0.2024 -0.0522 -0.1696
    1W        W38115   6.372   2.826   3.205  0.0923 -0.4345 -0.1641
    1W        W38116   8.608   1.010   0.319  0.0973  0.1374 -0.2869
    1W        W38117  20.832  22.783   7.985  0.0104 -0.1364 -0.1567
    1W        W38118  21.670  24.913   7.032  0.2420 -0.0768 -0.0378
    1W        W38119  18.235  13.515   9.359 -0.1360  0.2086  0.0340
    1W        W38120   8.708  19.433   0.379  0.1330 -0.1392  0.2125
    1W        W38121  19.549   7.486   1.212  0.1370  0.0138  0.0730
    1W        W38122  16.508   5.180   0.218 -0.3583  0.2127  0.2081
    1W        W38123   9.985  22.073   9.305  0.2003  0.1919  0.0598
    1W        W38124  23.308   1.466   9.496 -0.0593 -0.3967 -0.1700
    1W        W38125   2.413  27.951   0.053 -0.1149  0.3270 -0.3648
    1W        W38126   4.867  19.518   0.011  0.0755 -0.0788  0.0744
    1W        W38127   8.965   8.218   2.507  0.0126 -0.0607  0.3252
    1W        W38128  28.401   3.057   5.658 -0.1141 -0.1081 -0.1467
    1W        W38129  12.658  27.137   3.108 -0.1338  0.1454  0.1788
    1W        W38130   4.847   9.030   2.054  0.0258  0.3230 -0.1659
    1W        W38131  26.948   0.949   3.755  0.3794 -0.5003 -0.0572
    1W        W38132  16.955  25.025   8.030 -0.4033  0.0084  0.1270
    1W        W38133  19.613  13.352   0.861 -0.0335 -0.1241 -0.2905
    1W        W38134   4.051   7.399   7.199  0.2016  0.0791 -0.0528
    1W        W38135   2.070   4.610   1.119  0.1405  0.1110 -0.2612
    1W        W38136  27.543  12.484   2.010 -0.3571 -0.0898  0.1223
    1W        W38137   1.204  20.174   0.057 -0.0101  0.1956  0.0771
    1W        W38138  16.813   2.051   9.475 -0.0658  0.3010 -0.0701
    1W        W38139  21.604   9.325   1.744  0.1598  0.0603  0.0515
    1W        W38140   0.731   4.811   7.262  0.1653  0.0397  0.3265
    1W        W38141  20.932   5.646   9.619 -0.0216  0.1038 -0.1447
    1W        W38142  13.834   3.611   0.361  0.1706  0.0779 -0.1005
    1W        W38143   5.565  11.127   3.046 -0.1424  0.1537 -0.0317
    1W        W38144  10.329  10.862   9.861 -0.0256  0.2134  0.0068
    1W        W38145  10.451   7.686   1.638 -0.0406 -0.0604  0.1546
    1W        W38146   4.909  16.774   1.070  0.1092  0.0306 -0.0303
    1W        W38147   9.580  11.409   2.576  0.0417 -0.0056 -0.0459
    1W        W38148  25.167  15.238   0.741 -0.2642  0.0306  0.1351
    1W        W38149   2.913   0.594   1.168 -0.0684 -0.0896  0.1243
    1W        W38150  14.022   7.002   0.062 -0.4129 -0.2263 -0.1132
    1W        W38151  18.070  19.086   8.164 -0.1144  0.1365 -0.3169
    1W        W38152   8.903   6.907   0.032  0.0072 -0.2240  0.1860
    1W        W38153   1.155  15.511   0.906 -0.0035  0.2028 -0.0999
    1W        W38154  21.273   5.446   2.394  0.3240 -0.2634 -0.0967
    1W        W38155  20.236  27.326   1.232  0.1345 -0.3106 -0.1777
    1W        W38156   6.651  10.344   0.371 -0.0614  0.2823 -0.1508
    1W        W38157  12.328  23.222   7.605 -0.0310 -0.1577 -0.1332
    1W        W38158  23.175  15.142   5.963  0.1303 -0.4667 -0.1049
    1W        W38159  27.426  15.836   8.369  0.1078 -0.2228 -0.1906
    1W        W38160   9.730  10.861   8.590 -0.3941  0.0120  0.2285
    1W        W38161  11.556  15.310   2.330 -0.3673  0.2147 -0.2636
    1W        W38162   6.433  22.251   6.527  0.0737  0.0767  0.0964
    1W        W38163  20.452   2.952   0.997 -0.0340 -0.0344 -0.4382
    1W        W38164  17.968  18.273   1.879  0.0181 -0.2047 -0.0605
    1W        W38165   7.044   6.586   8.800 -0.1172  0.0690  0.1401
    1W        W38166  12.517  13.132   1.409 -0.0459  0.1397  0.0555
    1W        W38167  18.986   8.609   1.266  0.3355 -0.4462  0.0020
    1W        W38168  19.525   0.979   2.093  0.3137  0.1798  0.4729
    1W        W38169   6.355   9.688   8.331 -0.1409 -0.0019 -0.0781
    1W        W38170  12.009  27.398   8.713 -0.2572 -0.0659  0.1628
    1W        W38171  22.056  10.771   2.538 -0.2399 -0.0059  0.0690
    1W        W38172  24.170  23.387   2.277 -0.1807  0.1361  0.0143
    1W        W38173  17.751  25.875   2.587  0.2352  0.1725 -0.1697
    1W        W38174  24.578   9.209   0.296 -0.0135  0.1008  0.2210
    1W        W38175  10.058   2.054   2.497 -0.2390 -0.2373  0.0709
    1W        W38176   7.280   6.946   2.958  0.0162  0.1938  0.0150
    1W        W38177  11.035  22.348   8.521  0.2298 -0.2326  0.0678
    1W        W38178  27.510   3.663   8.254  0.1720 -0.0009 -0.1283
    1W        W38179   4.818  10.138   7.631  0.0968  0.0111  0.2006
    1W        W38180  28.411  27.494   2.045 -0.1018 -0.2011 -0.0232
    1W        W38181  16.623   0.868   2.330 -0.0529  0.1120 -0.1920
    1W        W38182  21.018   6.149   9.445 -0.1421 -0.1139  0.1388
    1W        W38183  23.266  15.160   6.445  0.0423  0.1300 -0.3715
    1W        W38184  27.850  26.309   9.100  0.0821  0.0574  0.0890
    1W        W38185  23.195  23.623   1.751  0.0122  0.1041  0.2686
    1W        W38186   5.538   3.843   2.951 -0.1135  0.4178 -0.1082
    1W        W38187  27.006  11.959   0.736  0.2069 -0.1128 -0.0362
    1W        W38188  25.182  20.127   9.730  0.2236 -0.0153  0.3333
    1W        W38189  26.584   6.061   7.805 -0.0690  0.0165  0.0668
    1W        W38190  28.385   5.318   0.701  0.0631 -0.1332 -0.0390
    1W        W38191   1.475  27.145   6.598 -0.0142 -0.0129  0.1258
    1W        W38192  19.804   8.013   2.415 -0.2050 -0.1605 -0.1254
    1W        W38193  22.688  16.603   7.130  0.2245  0.1203 -0.1527
    1W        W38194  10.237  14.431   1.465  0.0565 -0.0285 -0.1298
    1W        W38195  19.070   7.295   1.440 -0.0420 -0.1059  0.2819
    1W        W38196  15.059  27.651   3.375 -0.0597  0.2591 -0.1958
    1W        W38197   4.876  22.173   0.692 -0.0610  0.2423 -0.3214
    1W        W38198   9.229   8.940   9.946 -0.0324  0.3149 -0.1339
    1W        W38199   1.746  25.044   9.118  0.3766  0.1223 -0.1436
    1W        W38200  19.986  27.757   1.077 -0.2083 -0.0290 -0.2213
    1W        W38201  13.000  10.976   2.376  0.0177 -0.0016  0.2512
    1W        W38202  27.892  19.228   0.762 -0.2535  0.0294  0.2677
    1W        W38203  22.040  24.325   8.105 -0.0241  0.1029 -0.0028
    1W        W38204  12.611  19.770   9.914 -0.2343 -0.2003  0.1736
    1W        W38205   2.707  13.521   2.103 -0.1197  0.2437 -0.1213
    1W        W38206   9.016   1.332   4.281  0.0982  0.0616  0.1101
    1W        W38207  27.942  18.853   6.698  0.0576  0.2029  0.0919
    1W        W38208  11.662  19.353   7.586  0.0680 -0.2156  0.0468
    1W        W38209   8.281   3.265   7.744  0.0515  0.2173  0.0225
    1W        W38210   8.750  27.117   9.898 -0.0531  0.2930  0.3453
    1W        W38211  25.532  15.751   8.016 -0.1776 -0.3066  0.0442
    1W        W38212  11.862  24.567   8.007 -0.2519  0.0916 -0.1144
    1W        W38213  13.763   6.884   2.324  0.3381  0.0872  0.0663
    1W        W38214  15.424  11.422   0.176 -0.0382  0.1143 -0.0909
    1W        W38215   7.288   5.286   9.505  0.1344 -0.0857  0.3208
    1W        W38216  21.750  23.830   3.043  0.0434 -0.2439 -0.2930
    1W        W38217  23.989  12.146   7.080  0.1894 -0.0284  0.3324
    1W        W38218  19.602  12.073   7.863  0.1540  0.1440  0.1244
    1W        W38219   3.864   4.184   1.711  0.3701  0.2063 -0.1473
    1W        W38220  20.354   1.157   1.256  0.2414 -0.3784  0.0293
    1W        W38221  24.478  27.367   7.422 -0.1832 -0.2812 -0.4257
    1W        W38222  14.902   8.895   9.198  0.0574  0.0193 -0.1046
    1W        W38223  21.053  16.593   0.121 -0.0242  0.2160 -0.1714
    1W        W38224  24.459   2.242   3.080 -0.0357  0.3094 -0.2971
    1W        W38225  17.061  19.672   1.994 -0.2699  0.2656  0.0458
    1W        W38226  10.038  14.383   8.575 -0.1786 -0.0153 -0.0170
    1W        W38227   5.582   8.546   8.613 -0.1351 -0.1880 -0.1878
    1W        W38228   9.639   4.168   0.912  0.4207 -0.1285  0.0879
    1W        W38229  16.268  26.269   7.765 -0.1201  0.2577  0.1814
    1W        W38230  25.670  23.048   3.055 -0.0063  0.2302  0.1643
    1W        W38231  28.410   9.773   9.409  0.0806 -0.0403  0.0195
    1W        W38232   4.147   9.827   0.655  0.0816 -0.0660  0.1021
    1W        W38233  19.535  15.302   1.722  0.1709 -0.1511 -0.1265
    1W        W38234  19.111  22.490   8.635  0.2850 -0.0533 -0.4282
    1W        W38235  16.213  23.139   8.532 -0.2858  0.2683  0.0076
    1W        W38236   5.311  11.860   0.196 -0.1325  0.2181  0.5111
    1W        W38237  28.493  27.427   7.474 -0.1082  0.1210  0.0499
    1W        W38238  23.882   4.486   2.411 -0.4300 -0.0587 -0.0365
    1W        W38239  14.300  25.034   8.198  0.2640 -0.0144 -0.0539
    1W        W38240  14.562  10.361   9.060 -0.3484  0.1811 -0.0606
    1W        W38241  27.082  25.957   2.441  0.1535 -0.0266 -0.1167
    1W        W38242  14.378   6.528   0.120 -0.1760  0.1522  0.2912
    1W        W38243  21.960   3.027   7.541 -0.1653 -0.2167 -0.0210
    1W        W38244   5.175   1.366   8.804 -0.2858 -0.0457  0.1062
    1W        W38245  18.885   2.060   9.827  0.2248 -0.0694  0.0147
    1W        W38246   4.778  19.038   9.631  0.0771 -0.4334 -0.3763
    1W        W38247  15.485  27.546   8.669 -0.1053 -0.0661 -0.2278
    1W        W38248  15.794  27.759   8.412 -0.0650  0.2059 -0.0734
    1W        W38249   5.532  20.112   6.484 -0.1404 -0.1573 -0.3997
    1W        W38250   3.131  10.597   8.375  0.0900  0.1369 -0.1529
    1W        W38251  12.564  15.374   9.850 -0.0307 -0.1409  0.2890
    1W        W38252  10.064  10.018   0.160  0.0857 -0.0061  0.1047
    1W        W38253   3.589   6.241   6.891  0.1106  0.3375 -0.1499
    1W        W38254  20.905   1.680   8.143  0.1185 -0.0675  0.0060
    1W        W38255   9.465   2.028   1.826 -0.2216 -0.0404 -0.1249
    1W        W38256  10.835  19.522   0.295 -0.1810 -0.0020  0.2470
    1W        W38257  20.448   2.740   6.491 -0.0320 -0.1202 -0.1336
    1W        W38258  21.710   4.477   8.183  0.2305  0.2931  0.0423
    1W        W38259   1.162   7.428   0.591 -0.3100  0.0693 -0.0233
    1W        W38260   6.003  23.859   2.093 -0.2430  0.1077  0.3327
    1W        W38261   2.569   3.613   9.287  0.1795  0.2040 -0.3255
    1W        W38262  18.941  23.046   8.104  0.1446  0.0489  0.1469
    1W        W38263  21.599   0.452   7.690 -0.0251  0.1091  0.2719
    1W        W38264  25.755   1.791   7.093 -0.3344 -0.0373  0.0395
    1W        W38265   9.414  10.103   8.373  0.1070  0.3702 -0.0090
    1W        W38266   1.689   9.092   6.111  0.2471 -0.3070  0.1672
    1W        W38267   8.013   3.922   9.732 -0.1503  0.2500  0.1745
    1W        W38268  27.315   2.262   7.101  0.1714  0.3757 -0.2034
    1W        W38269   9.212  20.674   7.206 -0.0992 -0.0768  0.2636
    1W        W38270   0.440  21.955   8.649  0.0989  0.3595  0.4441
    1W        W38271  13.539   9.913   8.450 -0.2207  0.1149  0.0329
    1W        W38272   8.732  15.073   7.985  0.0305 -0.5011  0.4932
    1W        W38273  18.908   4.529   9.021 -0.0158 -0.0773 -0.2496
    1W        W38274  26.779  24.972   1.224  0.0146 -0.0113  0.0494
    1W        W38275  17.553   9.131   1.360 -0.1714  0.1279  0.1431
    1W        W38276   1.107  21.350   6.834 -0.0703 -0.1566  0.1099
    1W        W38277   7.782   4.184   2.297  0.2609 -0.2668 -0.0114
    1W        W38278  18.799  26.679   7.237  0.1640  0.0524  0.0967
    1W        W38279   4.658  16.130   1.925  0.0522 -0.2371  0.1805
    1W        W38280  13.861   6.811   1.496  0.0466  0.0618  0.4742
    1W        W38281  24.000   4.382   8.923  0.0980 -0.1570  0.1908
    1W        W38282  23.717   3.343   1.753  0.2704  0.0014  0.0997
    1W        W38283   1.291  14.327   6.320 -0.1898 -0.2434  0.2706
    1W        W38284   3.757   9.002   3.067  0.1949 -0.3048 -0.2328
    1W        W38285   9.299   4.077   9.615 -0.0853 -0.2198  0.0726
    1W        W38286  19.643  10.835   7.970 -0.3359  0.0071  0.1655
    1W        W38287   4.096   6.933   7.135  0.0021  0.1793 -0.1192
    1W        W38288  15.538  26.851   7.366 -0.0134 -0.2140  0.0742
    1W        W38289  11.160  21.743   7.280 -0.1390  0.0610  0.2240
    1W        W38290   7.410  14.178   9.702  0.0160 -0.0675  0.2049
    1W        W38291   0.363   6.152   7.863 -0.3779  0.2286 -0.1090
    1W        W38292   0.916   0.329   8.281  0.0965 -0.0960 -0.3292
    1W        W38293  25.348  24.585   6.833  0.0212 -0.1579 -0.1987
    1W        W38294  23.209  10.369   8.405  0.1243 -0.0083 -0.0323
    1W        W38295   0.730   3.630   0.533 -0.2097 -0.4181  0.5636
    1W        W38296   1.639  22.260   0.700 -0.0900  0.1235 -0.4244
    1W        W38297  19.367   7.699   1.612  0.0120  0.0519 -0.2173
    1W        W38298   5.390  24.330   8.597 -0.4295 -0.0175  0.1252
    1W        W38299  28.618  22.641   0.193 -0.0984 -0.0360  0.0257
    1W        W38300   0.070   3.059   2.025 -0.1989 -0.3543 -0.1749
    1W        W38301  12.982  12.440   2.369  0.2081  0.1047  0.0755
    1W        W38302  22.797  27.734   2.036 -0.1685  0.1425 -0.0802
    1W        W38303  15.024   9.848   0.830  0.0718 -0.0922 -0.1161
    1W        W38304  28.571   5.899   6.894 -0.0778 -0.4788  0.0315
    1W        W38305   2.354  25.680   8.239  0.1504 -0.1810 -0.0545
    1W        W38306   4.328  24.567   7.549  0.2535  0.0460 -0.0386
    1W        W38307  25.987   9.599   8.419 -0.0813 -0.2119  0.1690
    1W        W38308  25.145   8.737   2.407 -0.2701 -0.3717  0.0534
    1W        W38309   6.029   7.800   8.332  0.1876 -0.1243  0.0663
    1W        W38310  20.728   0.216   7.460  0.0789  0.0084  0.1229
    1W        W38311  22.418  12.764   9.616 -0.1209 -0.0513 -0.1330
    1W        W38312   4.182  12.326   6.104 -0.1160 -0.2961 -0.4803
    1W        W38313  16.041  28.013   0.847  0.1436 -0.2898  0.0230
    1W        W38314  20.818  13.707   2.571 -0.4815  0.0635 -0.0929
    1W        W38315   3.370  19.825   8.423 -0.1034 -0.2099  0.0921
    1W        W38316  14.617  20.150   1.046 -0.2472 -0.1194 -0.1493
    1W        W38317  17.930  12.424   8.832 -0.1268  0.0481  0.0162
    1W        W38318  13.553  18.613   9.282 -0.0806  0.0439  0.1703
    1W        W38319  16.013  22.576   1.605  0.2612  0.2322 -0.0106
    1W        W38320   8.164  22.965   8.510 -0.1013 -0.2244  0.3594
    1W        W38321   4.660   2.008   7.751  0.0822 -0.0963 -0.1164
    1W        W38322   9.987   9.448   8.363 -0.1099 -0.1036 -0.0003
    1W        W38323  18.170   1.552   9.645 -0.0086  0.2051  0.1680
    1W        W38324  20.652  12.614   9.007 -0.1595 -0.0910  0.2261
    1W        W38325  22.960  10.033   3.399 -0.1618  0.2047 -0.0406
    1W        W38326  21.604  25.574   2.041  0.0612 -0.2876 -0.1110
    1W        W38327  25.812  13.461   9.816 -0.3102  0.0661  0.0611
    1W        W38328  21.325   6.516   2.997  0.0297 -0.0248  0.0692
    1W        W38329   4.651  27.051   0.209 -0.3221 -0.0999  0.1467
    1W        W38330  10.906  23.490   8.310  0.3027  0.1929  0.2839
    1W        W38331  21.198   8.578   2.088  0.1219  0.3252 -0.0596
    1W        W38332  15.469  28.379   7.634 -0.0226 -0.0502  0.2040
    1W        W38333  18.999  15.179   1.616  0.2039 -0.3066 -0.1618
    1W        W38334   7.080   9.524   0.049 -0.3392  0.1315  0.2418
    1W        W38335  23.478   6.466   2.856  0.2142  0.3945 -0.0978
    1W        W38336  22.900  28.298   1.072  0.0070  0.0831  0.2554
    1W        W38337  26.800   2.055   0.806  0.0415 -0.1325 -0.0228
    1W        W38338   4.196   6.325   9.360 -0.1285  0.1670  0.1508
    1W        W38339  25.604   0.886   2.230 -0.1052 -0.0281  0.1683
    1W        W38340  26.800  22.975   6.348  0.1908 -0.0709 -0.0005
    1W        W38341  25.106  11.082   1.846  0.1457  0.0323  0.1635
    1W        W38342  23.894  14.017   7.438  0.1283  0.0433 -0.4008
    1W        W38343  16.147   9.806   0.830  0.2340  0.1331 -0.0174
    1W        W38344  20.478  28.184   6.864 -0.0837 -0.1027 -0.2062
    1W        W38345  18.237  11.409   0.382 -0.0347  0.1970  0.1186
    1W        W38346  17.216  25.176   2.200 -0.0283 -0.1145 -0.1548
    1W        W38347  10.601   0.026   8.942  0.1528  0.1070  0.5148
    1W        W38348   6.781  21.954   8.014  0.1072 -0.0394 -0.0995
    1W        W38349  17.732  10.376   7.695 -0.2062  0.2146 -0.0792
    1W        W38350   9.045  21.800   2.037  0.1410 -0.2214 -0.0022
    1W        W38351   6.961  15.186   1.250 -0.2563 -0.1003  0.6934
    1W        W38352  26.729   3.965   8.746  0.1712 -0.2636 -0.0852
    1W        W38353  22.212  26.782   9.238  0.0926 -0.0411 -0.2970
    1W        W38354  28.621   5.962   6.037  0.1862  0.0145  0.2291
    1W        W38355   9.767  24.125   6.874  0.1726 -0.1216 -0.3538
    1W        W38356   1.642   9.806   9.882 -0.2309  0.2066 -0.0199
    1W        W38357  22.404  15.050   2.452 -0.3344 -0.1639  0.2394
    1W        W38358  14.728  18.343   1.324 -0.0232 -0.0497 -0.2740
    1W        W38359  25.625   0.000   0.020  0.1342 -0.1228 -0.0504
    1W        W38360  20.333  24.634   7.082 -0.0770  0.4142  0.2546
    1W        W38361  18.198  14.908   8.068  0.1255  0.1091 -0.1818
    1W        W38362  25.191   8.788   9.106  0.0047 -0.1745 -0.4389
    1W        W38363  19.230   9.205   2.925 -0.0484 -0.0025  0.1002
    1W        W38364  28.010  24.106   9.303  0.0360 -0.0192 -0.1813
    1W        W38365  15.852  23.045   7.864  0.2342  0.1064  0.0639
    1W        W38366   9.747  15.489   0.981  0.1498 -0.1570 -0.0598
    1W        W38367  26.963  27.393   8.081  0.2428 -0.2287  0.0354
    1W        W38368  26.152  24.031   9.522 -0.3198 -0.1745  0.0980
    1W        W38369   0.769  12.761   0.972  0.1166 -0.0005 -0.1092
    1W        W38370  10.039  28.532   8.860  0.1777  0.2548  0.1352
    1W        W38371  16.380  21.031   9.557  0.1242  0.0614 -0.0607
    1W        W38372   9.798   3.204   2.407 -0.1081  0.0692  0.0767
    1W        W38373  22.217  21.253   2.510  0.2174 -0.3289  0.0227
    1W        W38374  15.817  11.778   8.677  0.1209 -0.0106  0.0550
    1W        W38375  21.245  26.287   7.272  0.2824 -0.2566 -0.3530
    1W        W38376   5.577   1.403   7.591 -0.1482 -0.3440  0.2034
    1W        W38377  12.856   4.089   9.182 -0.3522  0.0185  0.4530
    1W        W38378  21.670  15.378   7.760 -0.2484  0.0447  0.0481
    1W        W38379  24.806   7.930   1.153  0.1091 -0.6798 -0.0408
    1W        W38380   9.232  19.175   7.045  0.2678  0.0239  0.1144
    1W        W38381  22.997   6.844   0.219 -0.1081 -0.1454  0.0985
    1W        W38382   1.569  17.141   5.666  0.0338  0.2522 -0.1778
    1W        W38383   5.685  27.928   9.665 -0.1676 -0.2543  0.3562
    1W        W38384  24.745  23.120   0.913  0.1112 -0.3353  0.0464
    1W        W38385   5.496   0.306   6.620 -0.1362 -0.1455 -0.0482
    1W        W38386  25.347   1.174   2.515  0.1345 -0.2239 -0.1268
    1W        W38387  26.581  17.784   9.837  0.1578  0.0167 -0.1433
    1W        W38388   5.757  15.312   7.340 -0.0001  0.2472 -0.2608
    1W        W38389  23.784   1.833   6.707  0.3255  0.0896 -0.1195
    1W        W38390   0.213  26.708   7.179  0.0827  0.2152 -0.1562
    1W        W38391  13.431  20.681   2.696 -0.2288  0.2150 -0.1110
    1W        W38392   2.432   6.608   1.684  0.0806  0.4518 -0.0886
    1W        W38393  27.024   4.480   8.317 -0.0234  0.2658 -0.1670
    1W        W38394   8.873   3.211   1.508  0.0023 -0.0401  0.0697
    1W        W38395  11.971   6.735   3.537  0.0068  0.1389 -0.1164
    1W        W38396   1.239  16.640   6.072  0.1451  0.1382  0.2883
    1W        W38397  21.681   3.894   0.608 -0.0227 -0.0048 -0.1026
    1W        W38398  21.043  20.842   8.217  0.1255  0.3641  0.2005
    1W        W38399  25.434  14.802   6.753 -0.1519  0.0211 -0.0255
    1W        W38400  27.791   3.451   2.126  0.2429  0.0538 -0.0656
    1W        W38401   4.122   2.116   0.022  0.2149 -0.3070 -0.3006
    1W        W38402  23.595  18.772   0.662 -0.0453 -0.1686 -0.1208
    1W        W38403  23.626  26.461   6.747 -0.1041 -0.0671  0.1842
    1W        W38404   1.302  16.889   2.194 -0.2087 -0.0042  0.2779
    1W        W38405  24.828  17.047   1.617 -0.0197 -0.1722  0.1064
    1W        W38406   5.705   4.559   7.674  0.3059  0.0925  0.1161
    1W        W38407  24.334  16.181   1.933  0.1569  0.1588 -0.1523
    1W        W38408   1.325  22.403   6.873 -0.0391 -0.2566  0.0575
    1W        W38409  19.866  19.503   0.484 -0.2567  0.0535 -0.1264
    1W        W38410  22.130   9.431   1.813  0.0825  0.1325  0.1326
    1W        W38411  25.999  20.681   6.687  0.2421  0.3252  0.2208
    1W        W38412  24.351  12.514   8.645 -0.1052 -0.3105  0.5711
    1W        W38413  15.375  24.165   9.172 -0.0947 -0.1838  0.0851
    1W        W38414  18.125  26.764   7.664 -0.1795  0.1063  0.2476
    1W        W38415   0.270  21.446   9.299 -0.0886  0.4460 -0.1989
    1W        W38416   2.428  18.714   6.446 -0.0207  0.3860  0.0073
    1W        W38417  13.704   0.645   2.553  0.0411 -0.1653  0.0178
    1W        W38418   0.520  12.587   0.303 -0.1264 -0.1954  0.0032
    1W        W38419  11.268   9.275   0.709  0.1374 -0.0947 -0.0915
    1W        W38420  23.134   1.755   1.576 -0.1706  0.4891  0.1049
    1W        W38421   7.401  15.177   1.556 -0.3776 -0.0438 -0.1458
    1W        W38422  18.801  19.037   1.697 -0.2853 -0.1707  0.0360
    1W        W38423  21.675  21.706   0.782  0.0521  0.1325 -0.2487
    1W        W38424   0.589   0.362   0.124  0.1262 -0.2055 -0.1035
    1W        W38425  17.838   9.927   1.068  0.2120 -0.1347  0.0121
    1W        W38426  24.668  23.311   1.400 -0.2688 -0.1571  0.3257
    1W        W38427   3.131  23.409   8.327 -0.2676 -0.1662 -0.1868
    1W        W38428   2.929   6.733   1.039  0.2615 -0.0522  0.1231
    1W        W38429  19.227   0.945   7.610  0.0461  0.0591 -0.0980
    1W        W38430   3.028  21.970   7.483  0.1440 -0.0384 -0.0572
    1W        W38431  21.941  23.768   1.182 -0.1142 -0.2201  0.1455
    1W        W38432   4.291   0.378   8.501  0.0556  0.1511  0.0163
    1W        W38433   6.029   8.073   9.572 -0.3588  0.1613 -0.1643
    1W        W38434  24.418  25.013   8.659 -0.0009  0.1456  0.2264
    1W        W38435  11.640  16.901   1.398 -0.1633 -0.0482 -0.2293
    1W        W38436  15.460   2.177   2.573  0.3253  0.0287  0.1792
    1W        W38437  22.964   0.570   1.802  0.1685 -0.2998  0.0865
    1W        W38438  10.353  26.190   7.618  0.0504  0.1168 -0.3164
    1W        W38439  27.281  16.683   1.625 -0.4532 -0.1025  0.4830
    1W        W38440   3.325   2.511   1.252 -0.1711 -0.0266 -0.0123
    1W        W38441  12.224  16.287   8.323 -0.2228  0.0908  0.1561
    1W        W38442  28.260  23.810   8.743  0.3520  0.0453 -0.3486
    1W        W38443   3.868   0.561   0.998  0.2071 -0.2881  0.0208
    1W        W38444  20.837   8.319   3.017 -0.1879 -0.1225  0.1633
    1W        W38445  17.404   8.959   1.807  0.0132  0.2050 -0.0759
    1W        W38446   3.033  15.275   9.109  0.2060  0.1728 -0.0241
    1W        W38447  18.225   3.359   2.239  0.0435 -0.0852  0.2457
    1W        W38448  10.068  13.370   0.317  0.2074 -0.1220  0.2189
    1W        W38449  24.983   6.024   2.240  0.2416  0.1092 -0.3498
    1W        W38450  12.631  18.340   9.266 -0.0267  0.2147  0.0387
    1W        W38451  21.795  13.873   1.433  0.0244 -0.0227  0.0516
    1W        W38452  22.569  24.722   1.735 -0.0679 -0.0273 -0.0516
    1W        W38453  23.442   9.462   8.310 -0.2958 -0.1403 -0.0131
    1W        W38454  10.725   9.175   2.582  0.1787 -0.1958 -0.3631
    1W        W38455  21.738  22.851   8.635 -0.1092 -0.0113  0.0525
    1W        W38456   1.129  12.341   1.948  0.0806  0.0673  0.0853
    1W        W38457  15.990   2.887   0.509  0.1107  0.0640 -0.1398
    1W        W38458  26.837  26.242   3.481 -0.2660 -0.0708 -0.0168
    1W        W38459  17.681  22.982   3.251  0.2951  0.2421  0.3961
    1W        W38460  12.454  25.047   9.121 -0.1301  0.1538 -0.0172
    1W        W38461   8.094   1.828   1.923  0.1579 -0.2232  0.0644
    1W        W38462   2.563  24.282   7.562 -0.1044  0.0804 -0.1960
    1W        W38463   5.357   9.655   2.378  0.0826  0.2990 -0.2601
    1W        W38464  25.066  22.567   6.639 -0.0944  0.0243  0.1583
    1W        W38465   2.074  21.913   9.160 -0.0536  0.0279  0.1719
    1W        W38466   5.028  22.214   0.177  0.3885 -0.1108  0.1806
    1W        W38467   8.660  12.000   7.304 -0.0506 -0.0321 -0.2612
    1W        W38468   2.065   2.104   3.447 -0.3022 -0.2046 -0.2574
    1W        W38469  14.910  21.573   7.270  0.3449 -0.2545 -0.1825
    1W        W38470  19.577  19.241   2.984 -0.3593  0.0830  0.1665
    1W        W38471  24.593  19.736   2.289 -0.0678  0.0355 -0.0782
    1W        W38472  17.790  17.934   1.414 -0.0212  0.0153 -0.3266
    1W        W38473   5.496  17.885   0.317 -0.1690 -0.1119 -0.0042
    1W        W38474  19.186   2.497   1.669 -0.1811 -0.0630 -0.1028
    1W        W38475  11.071   7.378   8.261  0.3629  0.0913 -0.1884
    1W        W38476   6.871  20.128   1.819 -0.0621  0.2504  0.1192
    1W        W38477   8.139  19.804   1.585 -0.1083 -0.0212 -0.0858
    1W        W38478  18.925   1.664   1.674 -0.0448 -0.0893 -0.0333
    1W        W38479   6.919   3.445   8.378 -0.2658 -0.3316 -0.1728
    1W        W38480  22.412   5.155   9.427  0.1837 -0.1040  0.0234
    1W        W38481  14.896  25.630   3.000  0.2154  0.0840  0.2087
    1W        W38482  10.077   7.364   1.697  0.1920  0.2073 -0.0901
    1W        W38483   7.362  26.581   7.563 -0.2075 -0.0358  0.3560
    1W        W38484   1.047   6.892   0.721  0.1434 -0.1059 -0.0143
    1W        W38485  21.089  26.602   1.659  0.0541 -0.0381  0.0249
    1W        W38486  23.770  19.586   7.956 -0.1680  0.1698 -0.3949
    1W        W38487   5.336   6.625   9.808  0.0997 -0.1474 -0.0697
    1W        W38488  27.849   0.972   3.287 -0.1012  0.2208  0.2402
    1W        W38489  16.328   0.362   9.760  0.0740  0.0429  0.2420
    1W        W38490   7.144  18.646   6.701 -0.0563 -0.0575  0.0419
    1W        W38491  12.870   6.793   0.039  0.2446  0.1032 -0.4147
    1W        W38492  16.533  22.405   9.504 -0.0467  0.1640  0.3018
    1W        W38493  22.650  28.595   9.125 -0.2318 -0.2645  0.1313
    1W        W38494  15.168   9.391   7.479 -0.2198 -0.2925  0.0067
    1W        W38495  12.857  26.896   9.068  0.1964  0.0999 -0.3653
    1W        W38496   8.578   8.688   2.788 -0.3125  0.1731 -0.0487
    1W        W38497  10.647   7.638   9.523  0.2013  0.1533  0.0382
    1W        W38498  25.192  14.307   7.900  0.0896  0.1299  0.0817
    1W        W38499  18.978   6.069   1.089  0.2296  0.0864 -0.1116
    1W        W38500  21.548  12.423   1.369  0.0029 -0.1439 -0.0033
    1W        W38501   3.198  13.689   8.569 -0.1856  0.1515 -0.0925
    1W        W38502  24.763   5.599   6.717  0.2739 -0.1249 -0.0886
    1W        W38503  12.285   1.784   8.635 -0.0394  0.0073 -0.1136
    1W        W38504  21.496  12.439   9.483  0.0729 -0.1648  0.0364
    1W        W38505  16.191  11.074   7.951  0.0546  0.1962  0.1768
    1W        W38506  27.458  14.146   8.712  0.1558 -0.1828  0.2196
    1W        W38507   2.787  10.028   0.117  0.0266  0.0228 -0.0822
    1W        W38508   8.288   1.183   2.786 -0.1992 -0.0551 -0.1325
    1W        W38509   4.673   9.202   7.020 -0.1146 -0.3212  0.3928
    1W        W38510   4.945   7.618   1.257 -0.0535  0.2564 -0.0128
    1W        W38511  23.687  25.755   6.654 -0.1731  0.0521  0.2613
    1W        W38512   2.847   4.281   6.714  0.0638 -0.0248  0.3143
    1W        W38513   5.192  25.242   1.222 -0.1294  0.0658 -0.2753
    1W        W38514  13.479  18.363   0.216  0.0298  0.0265 -0.1747
    1W        W38515  23.063   7.485   0.146  0.3758  0.4810  0.0675
    1W        W38516  21.000  13.746   3.042 -0.1328  0.0378  0.4548
    1W        W38517  20.288   8.131   7.821  0.3798 -0.1585  0.1903
    1W        W38518  20.451  17.139   1.854  0.0258  0.0255  0.2394
    1W        W38519  13.583   3.953   8.864  0.2696 -0.1217  0.2553
    1W        W38520  17.971  17.192   3.371 -0.2826  0.2453  0.1684
    1W        W38521  12.478  19.675   0.995 -0.3406 -0.3107  0.1781
    1W        W38522  28.335  22.936   1.103 -0.3235 -0.0206  0.2425
    1W        W38523  11.685   8.963   7.571  0.1112  0.0356  0.0064
    1W        W38524  23.710  26.980   1.372  0.0892 -0.1585 -0.1383
    1W        W38525  25.855  14.220   2.288  0.1404 -0.0691 -0.1364
    1W        W38526  15.306   4.635   9.437  0.0632  0.1239  0.1104
    1W        W38527   1.436  28.369   1.277 -0.3032 -0.1362 -0.2088
    1W        W38528  21.354   6.544   0.349  0.0175 -0.0650 -0.0087
    1W        W38529  19.887  14.796   9.807 -0.2780 -0.1947 -0.0457
    1W        W38530  22.533  11.615   1.065 -0.1755 -0.1258  0.1409
    1W        W38531  28.683  24.006   1.327 -0.2209 -0.0903  0.0857
    1W        W38532  15.468  16.995   0.927  0.1736 -0.1216  0.3007
    1W        W38533  18.894  13.834   1.808 -0.0280  0.1080  0.1726
    1W        W38534   9.066  11.389   7.885  0.0057  0.1620 -0.0384
    1W        W38535  27.239   3.376   0.951  0.1848  0.1230 -0.1398
    1W        W38536   1.371  28.167   1.804  0.0567 -0.0126  0.0781
    1W        W38537  10.663  23.206   7.192  0.1966  0.0207 -0.0304
    1W        W38538  10.341   3.861   2.448 -0.2759  0.0459  0.2230
    1W        W38539  16.452  19.039   2.569  0.0703 -0.3126 -0.0072
    1W        W38540   9.846  19.679   9.829 -0.1877 -0.2157  0.1397
    1W        W38541   6.739  23.310   5.555  0.2488  0.0585  0.0162
    1W        W38542   7.302  19.743   0.987  0.1431 -0.0311 -0.0828
    1W        W38543   0.945   1.513   2.616 -0.0101  0.0339 -0.2581
    1W        W38544  24.335   3.036   1.452 -0.0880 -0.0466  0.0762
    1W        W38545  26.004   4.782   3.541  0.3363 -0.3214  0.3312
    1W        W38546  22.603  18.873   1.600  0.2916  0.0280  0.1327
    1W        W38547  17.221  26.812   9.365 -0.1560 -0.2881  0.1357
    1W        W38548  27.128   3.971   7.489  0.1743 -0.1651  0.0241
    1W        W38549   5.597  11.464   7.095 -0.0705  0.1630 -0.3160
    1W        W38550  18.189  23.624   9.826 -0.0666 -0.1164 -0.1968
    1W        W38551   0.788   6.389   3.382 -0.0072 -0.1002 -0.0126
    1W        W38552  18.786  25.001   2.125 -0.0375  0.2818 -0.1180
    1W        W38553   1.619  26.319   0.893  0.3027  0.2612 -0.2575
    1W        W38554  19.638  28.272   2.565  0.5557 -0.1516  0.1630
    1W        W38555   3.851   4.051   8.828 -0.1335  0.2739 -0.0929
    1W        W38556  26.904  17.395   6.545 -0.1604  0.0250 -0.2535
    1W        W38557  18.372   0.310   9.673 -0.1705 -0.1612  0.1260
    1W        W38558  14.683   9.579   0.576  0.0838 -0.0517 -0.1986
    1W        W38559  18.406  13.671   2.475 -0.3115 -0.0655 -0.0643
    1W        W38560   1.930  10.949   2.962  0.0251 -0.2734  0.0689
    1W        W38561   9.254   1.686   9.506 -0.0218  0.2921  0.1899
    1W        W38562  12.295   6.170   8.554 -0.0972 -0.0293 -0.2528
    1W        W38563  19.948  16.616   8.542  0.1205 -0.0332  0.0006
    1W        W38564  28.406  20.828   1.410  0.0056  0.2408  0.1640
    1W        W38565   5.676  20.291   7.828  0.2490  0.1388  0.0521
    1W        W38566  22.346   8.362   0.860  0.2041 -0.3101 -0.3871
    1W        W38567  20.933   5.033   2.224  0.2032 -0.2023 -0.2905
    1W        W38568  19.099  11.019   8.168  0.1184  0.0362  0.0748
    1W        W38569  22.691  13.799   9.802 -0.1028  0.1192 -0.0929
    1W        W38570  11.244  24.063   7.337 -0.1151  0.1432 -0.1057
    1W        W38571   3.178  11.817   6.057  0.2697  0.1085 -0.0596
    1W        W38572  26.508  15.592   1.573  0.1175  0.0801  0.0312
    1W        W38573  21.586  17.915   7.586  0.2448  0.0630 -0.0994
    1W        W38574   3.337   8.708   9.871 -0.3384 -0.2637  0.4688
    1W        W38575   0.261  25.375   9.011 -0.0008 -0.0703 -0.0635
    1W        W38576  13.328   8.685   0.742  0.1451  0.0375 -0.2325
    1W        W38577  19.203   5.297   7.353 -0.1940 -0.0952 -0.4267
    1W        W38578   5.649  27.844   1.835  0.3086 -0.0999  0.1160
    1W        W38579   4.151   1.354   2.243 -0.1397 -0.2379 -0.1879
    1W        W38580  19.180  26.259   1.879 -0.1449  0.1250 -0.0418
    1W        W38581  28.668   9.919   0.430  0.1060 -0.0356 -0.3880
    1W        W38582   0.383  20.540   1.794  0.0888  0.0151  0.2168
    1W        W38583  16.656   9.937   8.504  0.2378  0.1505  0.3091
    1W        W38584  20.946  20.418   8.609  0.0935  0.0915 -0.0059
    1W        W38585  27.194   8.150   7.365 -0.5847 -0.0421  0.2740
    1W        W38586   9.059  18.941   7.476  0.1291  0.2348  0.3896
    1W        W38587  25.982  15.789   9.393  0.0037 -0.0865  0.0481
    1W        W38588  11.366  16.895   9.153  0.1654 -0.1304 -0.0355
    1W        W38589   4.181  21.151   1.075  0.0230  0.0718 -0.2591
    1W        W38590   8.693  21.188   9.744  0.2495 -0.2856 -0.0590
    1W        W38591  14.564  11.728   9.850  0.1751 -0.1053  0.3813
    1W        W38592  18.071   4.089   8.691 -0.0498 -0.1253  0.0097
    1W        W38593   5.080  27.936   9.501  0.0012  0.4179 -0.0671
    1W        W38594  11.123  19.233   7.508  0.0946 -0.0116 -0.0817
    1W        W38595  28.592  22.170   9.739  0.0372 -0.2975 -0.1919
    1W        W38596  10.698  10.972   1.885 -0.1709 -0.3364 -0.0564
    1W        W38597  12.003  13.870   1.600 -0.0434 -0.0025  0.0817
    1W        W38598  24.307  15.564   0.252  0.4686 -0.1064  0.0636
    1W        W38599  25.293   5.671   2.807 -0.3108 -0.2328  0.1368
    1W        W38600  17.595  23.897   6.738  0.0241  0.0019 -0.0368
    1W        W38601  11.576   7.798   9.886  0.2220  0.0631  0.0987
    1W        W38602   7.992   0.813   2.979 -0.1715  0.1563 -0.1515
    1W        W38603  19.931  22.393   3.301 -0.0714 -0.1026  0.2338
    1W        W38604  13.688  18.173   9.214 -0.1596  0.1385  0.0157
    1W        W38605  27.839   5.600   6.628 -0.1129 -0.1973 -0.0025
    1W        W38606   8.356   8.064   9.549  0.2025  0.1142 -0.0601
    1W        W38607  22.925   2.664   2.383 -0.1302 -0.1559  0.1855
    1W        W38608  10.346  27.472   8.264  0.0079  0.2493  0.2305
    1W        W38609   7.653   6.909   3.810  0.1223 -0.0292  0.4284
    1W        W38610  10.492  23.216   1.939  0.0059 -0.1989  0.2586
    1W        W38611  26.440  19.201   2.252 -0.0516  0.1057  0.1340
    1W        W38612  20.496  25.526   0.355 -0.0023  0.1833  0.1754
    1W        W38613   0.354  12.055   2.368 -0.1246  0.0022  0.4665
    1W        W38614  21.485  19.007   0.238  0.0369 -0.0401  0.0326
    1W        W38615  18.755   8.860   8.281 -0.0315 -0.1081 -0.1430
    1W        W38616  24.644  27.131   2.034  0.3096 -0.3219 -0.0784
    1W        W38617   3.800   2.279   8.981 -0.3261 -0.0172  0.1010
    1W        W38618  17.886  13.582   7.501  0.2136 -0.0172  0.1119
    1W        W38619   6.745  24.845   6.352 -0.0443 -0.3304 -0.0072
    1W        W38620  28.159  26.935   1.527  0.0404 -0.0531  0.0686
    1W        W38621   8.493   3.778   9.766  0.0159  0.2337 -0.0240
    1W        W38622  17.236  15.568   1.048 -0.0063 -0.4331 -0.1153
    1W        W38623  17.360   9.802   2.116  0.0205 -0.0512  0.2228
    1W        W38624   3.172  14.141   6.464  0.0281 -0.3884  0.0950
    1W        W38625   1.463  24.427   0.362 -0.2215 -0.1020  0.0395
    1W        W38626   3.565  12.407   0.789 -0.1136  0.1908  0.1683
    1W        W38627   1.216   4.414   0.818 -0.2099 -0.2708  0.0802
    1W        W38628  13.378  26.281   8.086 -0.0102 -0.0126 -0.0513
    1W        W38629  17.734  22.871   3.761 -0.2514 -0.2173 -0.0797
    1W        W38630  25.172  17.382   1.346 -0.0063 -0.0392  0.0090
    1W        W38631  27.672   4.549   7.436  0.1365 -0.3271  0.1866
    1W        W38632   2.357   0.853   9.882 -0.1220  0.1591 -0.0325
    1W        W38633   2.551   3.086   0.075  0.2140 -0.1028  0.1591
    1W        W38634  24.592  23.083   7.542 -0.0204  0.0675 -0.0712
    1W        W38635   9.046   2.149   9.699 -0.3244  0.0012  0.2338
    1W        W38636   5.968  22.687   1.262  0.3078 -0.2386 -0.0265
    1W        W38637   8.043  25.960   7.313 -0.0702 -0.0503 -0.0979
    1W        W38638  15.584  13.986   1.816 -0.1683  0.0920 -0.1330
    1W        W38639   1.433   6.456   3.289  0.0482  0.0526 -0.2411
    1W        W38640   2.568   4.200   0.599 -0.1148 -0.1417  0.1550
    1W        W38641  14.045  20.804   3.025 -0.1253 -0.0483 -0.0075
    1W        W38642  21.586   0.869   0.836  0.2312  0.1625  0.0444
    1W        W38643  25.820   7.304   8.036 -0.1860  0.2767  0.2206
    1W        W38644  13.365  15.076   1.477  0.1256 -0.2869 -0.3080
    1W        W38645   1.957  10.588   1.715  0.0713  0.1093  0.0281
    1W        W38646   3.327  28.580   9.908  0.0467  0.1828  0.0285
    1W        W38647  26.619  17.271   8.795 -0.1553  0.2292 -0.1370
    1W        W38648  15.027   4.846   8.201 -0.4105 -0.0452  0.1423
    1W        W38649   1.971  19.579   8.579 -0.3071  0.0886 -0.2275
    1W        W38650  14.406  13.162   2.506  0.0644  0.0325 -0.0215
    1W        W38651  11.207  25.750   0.872 -0.0988 -0.3504  0.1232
    1W        W38652   2.077  14.044   7.737 -0.0970  0.5519 -0.2408
    1W        W38653  24.472  22.828   7.982  0.0445  0.2211 -0.0131
    1W        W38654  18.147  21.832   2.447  0.1538 -0.0700  0.0919
    1W        W38655  18.289  15.364   8.773 -0.1183 -0.0408  0.0846
    1W        W38656  20.058  17.374   9.411  0.2156  0.3354  0.0502
    1W        W38657  25.649   0.523   7.342 -0.2678 -0.2293 -0.1112
    1W        W38658   4.791  10.869   9.584 -0.0322  0.0847 -0.3747
    1W        W38659  20.778  23.975   7.455 -0.2352 -0.2436 -0.1215
    1W        W38660  15.530   0.114   1.823  0.0561 -0.2481  0.1178
    1W        W38661  27.014  20.900   3.159 -0.0369  0.1139 -0.0669
    1W        W38662  14.498  10.115   8.655  0.0161  0.0805  0.0138
    1W        W38663  19.700  21.991   2.978 -0.0052  0.0778 -0.2966
    1W        W38664  15.125  17.331   2.869 -0.0363 -0.0121  0.1028
    1W        W38665   5.440  10.718   7.399 -0.0697 -0.0157 -0.1678
    1W        W38666  24.238  12.295   7.905  0.1204 -0.3710 -0.0929
    1W        W38667  18.799   7.453   8.354 -0.3655 -0.1841 -0.0750
    1W        W38668  24.405  21.089   9.953  0.0647  0.2403  0.1392
    1W        W38669  27.341  27.322   7.787 -0.2008 -0.1322  0.0534
    1W        W38670  26.010  25.872   0.074  0.1131  0.3062 -0.1852
    1W        W38671  11.113  14.754   1.131  0.2133  0.1906 -0.1134
    1W        W38672   1.517  11.617   9.920 -0.0536  0.4621  0.0558
    1W        W38673   5.477  28.139   8.607 -0.2701  0.2000 -0.5052
    1W        W38674   3.746   6.404   3.171 -0.1151 -0.1251  0.2011
    1W        W38675  16.979  13.739   1.077  0.1427  0.0742  0.1540
    1W        W38676  12.555   3.207   7.286 -0.0151 -0.0548  0.1620
    1W        W38677  12.145  13.796   8.400  0.2447 -0.2455  0.1811
    1W        W38678  15.492  12.020   2.109 -0.1827  0.1001  0.2029
    1W        W38679  25.737   6.557   1.327  0.1959 -0.2454  0.1378
    1W        W38680   4.694   1.449   1.313 -0.0610 -0.1847 -0.1198
    1W        W38681   9.188  20.406   1.232 -0.0761 -0.1199 -0.1090
    1W        W38682   6.141  15.886   8.140 -0.1315  0.3933 -0.2387
    1W        W38683  17.506  10.453   9.958  0.1896  0.2597  0.0672
    1W        W38684  15.543  20.560   0.271 -0.3239 -0.0591  0.2494
    1W        W38685  15.096   4.237   9.898 -0.1861  0.0551  0.1919
    1W        W38686  17.054  17.294   2.337  0.1497 -0.0191  0.0572
    1W        W38687   2.704  10.359   9.624  0.0602 -0.1620  0.0180
    1W        W38688  19.176   4.436   2.827  0.1683 -0.3060 -0.0266
    1W        W38689   3.600  27.654   6.226 -0.0729 -0.0427 -0.1555
    1W        W38690   5.479   4.812   8.714 -0.2053  0.0171  0.1078
    1W        W38691   8.252  21.907   9.482  0.0854 -0.1520  0.3158
    1W        W38692  10.888   9.522   8.003 -0.3765  0.0531 -0.0939
    1W        W38693   4.506  21.913   0.421  0.0295  0.0216 -0.1357
    1W        W38694  10.144  13.439   1.289 -0.1219  0.0376 -0.1426
    1W        W38695  22.886  24.808   2.140  0.1576 -0.1771 -0.1333
    1W        W38696   2.613   5.494   1.103 -0.2054 -0.2263  0.0550
    1W        W38697  16.183  24.869   2.905  0.2337  0.0243 -0.2434
    1W        W38698  16.228   0.732   0.991 -0.1053 -0.0364 -0.4439
    1W        W38699  24.596  27.305   0.299  0.2511 -0.0367 -0.1115
    1W        W38700   4.851   5.714   0.969  0.2573  0.2070 -0.0577
    1W        W38701  23.375  19.117   7.925  0.0700 -0.0243 -0.0449
    1W        W38702  19.667  10.208   1.856 -0.0587 -0.0000  0.0781
    1W        W38703  25.052  22.114   8.694 -0.1970  0.1186 -0.3025
    1W        W38704   0.038  25.540   0.641  0.0344 -0.1186  0.0425
    1W        W38705  26.688  13.785   1.786 -0.1559 -0.3614  0.0511
    1W        W38706  22.940   1.868   8.143 -0.2600 -0.2258 -0.2499
    1W        W38707   7.362  28.534   8.261  0.2303 -0.0676 -0.3467
    1W        W38708   0.833  15.009   9.657 -0.2907 -0.1325  0.1577
    1W        W38709  13.097  21.719   3.391 -0.1021  0.1944  0.1463
    1W        W38710  10.788   3.046   9.035  0.0793  0.0875  0.1007
    1W        W38711  24.196  20.576   8.781  0.2541 -0.1372  0.0618
    1W        W38712   7.083   2.537   3.262 -0.1001  0.0308  0.0298
    1W        W38713  19.415  19.545   3.763 -0.1852  0.0454  0.0870
    1W        W38714  14.880   9.958   9.013  0.0869 -0.1393 -0.1439
    1W        W38715   8.571  14.605   8.853 -0.1499 -0.0951  0.0792
    1W        W38716  11.389  13.110   0.417 -0.2059  0.2054 -0.3184
    1W        W38717   6.689  12.963   8.553 -0.2018  0.0251 -0.1965
    1W        W38718   5.232  22.000   8.720  0.3486 -0.0278  0.0935
    1W        W38719   2.975  17.634   6.249 -0.2484  0.0145  0.1292
    1W        W38720   7.225  16.877   0.111 -0.0912  0.0500 -0.0741
    1W        W38721   7.149   7.259   7.927 -0.0032  0.0144  0.1989
    1W        W38722   0.166  24.254   7.206  0.1270  0.0508 -0.1755
    1W        W38723  16.901   5.130   8.153  0.0906 -0.1595  0.3057
    1W        W38724   5.093  19.497   8.217 -0.1858  0.1468  0.1678
    1W        W38725  14.302  21.780   8.632 -0.2756 -0.2598 -0.0583
    1W        W38726   6.860  23.151   1.058 -0.0530  0.3061 -0.0797
    1W        W38727  20.658  26.533   2.046 -0.0856  0.2462  0.0671
    1W        W38728  27.621  12.367   6.356  0.0627  0.0252 -0.0582
    1W        W38729  23.644  20.479   9.004  0.0896 -0.0112  0.0126
    1W        W38730   0.868  17.836   6.106  0.3954  0.2353  0.0324
    1W        W38731   2.167  10.653   1.234  0.1756 -0.3076  0.0399
    1W        W38732  13.268  17.843   9.421 -0.3590 -0.1348 -0.0338
    1W        W38733  14.547  28.552   2.986  0.1871 -0.0498 -0.5536
    1W        W38734  21.333  12.847   9.935 -0.1126  0.0525 -0.2288
    1W        W38735   1.109   4.429   9.708 -0.0041  0.2302 -0.3515
    1W        W38736  21.150  10.262   8.634 -0.2034  0.0495 -0.2706
    1W        W38737   8.396   3.783   7.581 -0.0244 -0.1505 -0.1659
    1W        W38738  18.257   3.559   8.545  0.0865  0.0355 -0.0822
    1W        W38739  19.653  24.328   7.818 -0.0486  0.0068 -0.2157
    1W        W38740  23.028  10.470   9.314  0.2409 -0.2498 -0.2118
    1W        W38741   8.083  23.988   5.444 -0.0825  0.1871 -0.1170
    1W        W38742  10.406  27.782   0.885  0.0201  0.0939 -0.0588
    1W        W38743  10.685  21.988   7.399 -0.1239 -0.1340 -0.0129
    1W        W38744   5.860  12.265   1.884 -0.1151 -0.1095 -0.3963
    1W        W38745  25.296   6.255   3.145  0.2094 -0.5259 -0.0210
    1W        W38746   6.317  24.981   9.027  0.1080 -0.0376  0.2436
    1W        W38747  26.227  25.107   2.217  0.2107  0.0790  0.2837
    1W        W38748   1.646  25.820   0.961  0.3909  0.0670  0.0058
    1W        W38749  25.528   6.134   2.707 -0.0366  0.0650  0.0348
    1W        W38750  27.586   7.580   1.096  0.1045  0.3482  0.1810
    1W        W38751   6.950  17.866   6.908 -0.4972  0.0914  0.0480
    1W        W38752  27.763  26.654   1.466  0.3159  0.1304 -0.1199
    1W        W38753   4.140  19.982   5.448 -0.1214  0.0940 -0.1164
    1W        W38754  10.572   1.722   0.588 -0.1270  0.0237  0.1745
    1W        W38755  10.501   2.830   3.399 -0.2564  0.2450  0.1008
    1W        W38756  19.746  10.208   2.828  0.0683 -0.2058  0.2784
    1W        W38757  15.768  22.866   8.357 -0.2875 -0.1258  0.2674
    1W        W38758  18.783  11.543   8.392  0.0398  0.2580  0.0583
    1W        W38759  15.991   6.126   1.005 -0.1450 -0.2450 -0.1925
    1W        W38760   0.718  25.380   9.348 -0.0182  0.0091  0.2124
    1W        W38761   6.976   9.611   1.191  0.2339  0.0936 -0.4984
    1W        W38762  10.197  12.247   1.456  0.2384 -0.0248  0.1154
    1W        W38763   4.316  12.721   2.493 -0.1048 -0.3490 -0.2133
    1W        W38764   6.534   8.906   2.160  0.1158 -0.4116 -0.3611
    1W        W38765  10.226   7.789   1.219 -0.2174 -0.1476  0.2135
    1W        W38766  24.965   4.774   6.611  0.0506  0.1659 -0.1187
    1W        W38767   2.388  19.415   0.607  0.1438  0.0543 -0.1694
    1W        W38768  15.389  10.041   7.362 -0.3077  0.1953 -0.1764
    1W        W38769  26.189  16.215   9.133 -0.1414 -0.0784  0.3923
    1W        W38770  18.657   4.824   9.797 -0.4243  0.1222 -0.0096
    1W        W38771  19.088  27.463   8.069 -0.1018  0.1168 -0.2770
    1W        W38772   0.820  15.302   9.055 -0.1281 -0.3597  0.3646
    1W        W38773  15.428  10.591   1.357 -0.4066  0.0097 -0.0679
    1W        W38774   4.249  17.006   1.933 -0.2645 -0.1177 -0.4611
    1W        W38775  24.249   3.955   9.058  0.0492 -0.3315 -0.0572
    1W        W38776  26.173  12.670   6.547  0.1253 -0.0389 -0.1216
    1W        W38777   1.174   4.821   1.393  0.2942  0.2012 -0.1993
    1W        W38778  19.155  17.940   3.272  0.3453  0.0632  0.1768
    1W        W38779   5.423  27.823   7.829 -0.0435  0.1614  0.0732
    1W        W38780   7.937   2.790   8.651  0.4511 -0.0270  0.0173
    1W        W38781  13.095   8.835   2.647  0.0367 -0.1347  0.2825
    1W        W38782  27.014  11.160   7.388  0.2506  0.3231 -0.2990
    1W        W38783  16.512  23.781   1.803  0.0083  0.0694  0.0482
    1W        W38784   0.168   1.751   9.926  0.2041 -0.0096  0.0436
    1W        W38785  21.921  20.126   8.867 -0.0881 -0.0196  0.0920
    1W        W38786  11.214  25.997   6.769  0.0459 -0.1688  0.2227
    1W        W38787  16.671  15.865   0.930 -0.3099  0.2281 -0.2305
    1W        W38788   2.971  12.872   8.471 -0.0079  0.4881 -0.0180
    1W        W38789  12.880  21.628   0.839 -0.0027 -0.0608 -0.2548
    1W        W38790  15.591  13.293   9.288  0.0226  0.1553 -0.0648
    1W        W38791   2.664   9.998   9.039 -0.0773  0.0209  0.0341
    1W        W38792   7.012  18.379   6.308  0.3046 -0.0531  0.2190
    1W        W38793   2.963   9.160   7.382  0.0659 -0.1668 -0.0603
    1W        W38794  25.913   0.434   9.009 -0.4566  0.3307  0.2124
    1W        W38795  18.057   2.698   0.604  0.0307  0.2186  0.3155
    1W        W38796  25.303  15.277   1.864 -0.0749  0.0834  0.1168
    1W        W38797  11.171  19.557   9.546  0.0530  0.0100  0.0351
    1W        W38798  16.462  13.404   9.757  0.2862 -0.1342 -0.0669
    1W        W38799  25.501   2.712   7.404  0.1730 -0.0755 -0.1161
    1W        W38800   0.877  13.652   7.117  0.5474  0.0071 -0.2802
    1W        W38801  17.853  26.400   7.291  0.0796  0.2082  0.1220
    1W        W38802  21.158   1.193   9.635 -0.1311  0.0185 -0.1233
    1W        W38803  19.038   2.371   8.456  0.0453 -0.0956 -0.0721
    1W        W38804  17.300  27.766   2.657  0.1571  0.0186 -0.0898
    1W        W38805  19.059   6.169   7.036 -0.1561  0.0432  0.1496
    1W        W38806  15.968  12.027   2.290  0.1505 -0.1143 -0.0581
    1W        W38807  25.908   4.586   2.337  0.5746  0.3715  0.0136
    1W        W38808  16.037   5.289   1.513  0.0069  0.0649  0.1128
    1W        W38809   9.880   6.989   1.382 -0.2336 -0.3672  0.2664
    1W        W38810  28.050   5.961   7.541  0.1404  0.0378 -0.2485
    1W        W38811   1.379   3.665   1.736  0.1231 -0.2925  0.4628
    1W        W38812   0.859  28.170   8.555  0.2897  0.0371 -0.0813
    1W        W38813   8.412   7.766   7.068  0.0171 -0.1997 -0.3597
    1W        W38814  19.234  18.274   0.869 -0.0874  0.0811 -0.0865
    1W        W38815   2.205  25.540   9.868  0.0012 -0.0820  0.1934
    1W        W38816  18.222  11.384   9.327 -0.2368 -0.0807  0.0071
    1W        W38817  16.504  28.686   0.753  0.3930  0.2158  0.2815
    1W        W38818  15.262   6.611   9.515  0.0538  0.0887  0.0236
    1W        W38819  16.942  13.212   1.094  0.3073 -0.1046 -0.2906
    1W        W38820  17.377  20.844   8.161 -0.0427 -0.1325  0.1657
    1W        W38821  22.810  17.567   0.225 -0.0044 -0.0548 -0.0132
    1W        W38822   7.945  12.285   0.839  0.0157 -0.0354 -0.2105
    1W        W38823  12.961   4.494   3.245 -0.1709 -0.0094 -0.0278
    1W        W38824  27.091   2.447   8.709  0.1190 -0.2392 -0.4658
    1W        W38825  19.623   1.374   1.160 -0.2372 -0.1104 -0.0175
    1W        W38826   4.194  27.468   6.421 -0.1372 -0.0662  0.3753
    1W        W38827  23.243  22.202   6.900  0.0899  0.3996  0.3748
    1W        W38828   3.627  24.304   1.617  0.0292  0.1916 -0.2645
    1W        W38829   8.479  24.369   9.177 -0.1440 -0.0844  0.2953
    1W        W38830  17.395  23.808   1.722 -0.0305  0.3015 -0.0430
    1W        W38831  12.232  17.982   9.254 -0.2498 -0.1225  0.1335
    1W        W38832  18.572  23.774   8.669  0.0273  0.2425 -0.2445
    1W        W38833   1.935  21.021   7.523  0.2088 -0.1010 -0.2383
    1W        W38834  10.772  10.939   8.058 -0.0252 -0.0443  0.1123
    1W        W38835  23.547  25.109   2.887 -0.1077 -0.1573 -0.5089
    1W        W38836   1.164   0.206   3.386 -0.2341  0.0426 -0.0368
    1W        W38837  16.116   1.936   3.436  0.1587 -0.0550 -0.1687
    1W        W38838  14.146  17.042   7.584 -0.1778  0.1607 -0.0161
    1W        W38839  23.417  22.714   2.025  0.1543 -0.1720 -0.1640
    1W        W38840  19.875   5.115   1.451  0.1480  0.1986 -0.1085
    1W        W38841  21.458  26.876   1.453  0.1258  0.3161  0.2304
    1W        W38842  19.338  16.395   7.944  0.4043  0.1626 -0.5914
    1W        W38843  16.242  22.692   9.067 -0.1446  0.1441  0.2450
    1W        W38844   5.757  12.304   2.501  0.0521  0.0146  0.0713
    1W        W38845   7.659  23.624   9.118 -0.1300 -0.1897 -0.4968
    1W        W38846  23.689  17.173   6.262  0.0274  0.1441 -0.0445
    1W        W38847  27.300   0.337   9.167 -0.3472 -0.2144  0.1093
    1W        W38848  19.554  18.098   8.042 -0.1469  0.0024 -0.2197
    1W        W38849   2.784  19.840   0.740  0.1139  0.2087  0.1533
    1W        W38850   0.297  16.324   1.655  0.3702  0.0202 -0.1344
    1W        W38851   1.266  18.853   0.924  0.0934 -0.2133 -0.2527
    1W        W38852  10.325  15.933   2.867 -0.1583  0.2468 -0.0437
    1W        W38853   2.060   7.742   9.270 -0.0339  0.0130  0.2475
    1W        W38854   5.648   4.070   9.412 -0.0217 -0.1908  0.0321
    1W        W38855  19.600  24.914   8.107  0.1237  0.1730 -0.3079
    1W        W38856   2.044  21.649   1.647 -0.2781  0.1908 -0.3007
    1W        W38857   5.549  13.644   8.114  0.0348  0.0062 -0.0018
    1W        W38858   9.878   2.455   3.460 -0.0189 -0.1031 -0.0286
    1W        W38859  28.234  15.573   7.777  0.0220 -0.0281 -0.1404
    1W        W38860  13.689  22.278   0.791  0.2927  0.1654 -0.1391
    1W        W38861   6.671  22.911   8.432  0.0415  0.2308  0.0487
    1W        W38862  13.741   9.163   8.224  0.1115  0.1847 -0.2564
    1W        W38863  24.764  22.570   8.726  0.0593  0.1559  0.1258
    1W        W38864   3.684   7.647   7.420 -0.2083 -0.1527 -0.0868
    1W        W38865  19.514   2.536   8.246  0.1811  0.1835  0.0611
    1W        W38866   2.810  21.784   7.056  0.0267  0.0063  0.1030
    1W        W38867  24.684   8.617   2.694 -0.0608  0.1081  0.0960
    1W        W38868   0.191   6.660   2.687  0.2662 -0.0733 -0.1234
    1W        W38869   7.046   0.960   1.587 -0.2960  0.0157 -0.2094
    1W        W38870   2.283  26.095   9.470 -0.4322  0.0834 -0.1945
    1W        W38871  25.376  21.742   8.867  0.2306 -0.0249 -0.0582
    1W        W38872  18.384   0.078   2.558 -0.1902 -0.1509  0.0798
    1W        W38873  26.524   6.623   7.816  0.2963  0.0706 -0.3975
    1W        W38874  26.374   0.115   9.793 -0.0701  0.1293 -0.0139
    1W        W38875   4.060   4.121   1.217  0.1665 -0.3588  0.2068
    1W        W38876  17.968  26.882   3.401  0.0198  0.0779 -0.1113
    1W        W38877  11.046  21.592   6.746 -0.3718 -0.1382  0.0594
    1W        W38878  24.735  27.243   1.571 -0.2547 -0.1214 -0.2605
    1W        W38879  24.284   6.542   2.371  0.2220 -0.1348  0.2094
    1W        W38880  20.940   5.572   6.711 -0.1137  0.1779  0.0615
    1W        W38881  24.602  27.064   2.548  0.1316  0.0181  0.1485
    1W        W38882  28.275  26.326   9.506  0.0333  0.0021  0.2346
    1W        W38883   7.695   3.671   8.790 -0.2699 -0.2313  0.1682
    1W        W38884  22.118  23.678   7.747 -0.0997 -0.1352  0.0059
    1W        W38885  22.773  26.114   8.588 -0.0648 -0.0869  0.1307
    1W        W38886   8.049  13.068   1.512 -0.1439  0.1246 -0.0995
    1W        W38887  24.365  13.234   6.331  0.1784  0.0845 -0.1785
    1W        W38888  12.807  17.057   2.937  0.1439 -0.0554  0.0069
    1W        W38889  11.077   1.471   2.329  0.2978 -0.1995  0.3678
    1W        W38890  15.447  18.511   9.499 -0.1630  0.2597 -0.0282
    1W        W38891  27.296  13.711   7.392 -0.1957 -0.3002 -0.1330
    1W        W38892  26.588  20.494   5.993 -0.0320 -0.3695  0.0720
    1W        W38893   4.267  24.586   9.365  0.1210  0.2789 -0.0878
    1W        W38894  22.391  12.307   2.791 -0.0270 -0.2155 -0.3900
    1W        W38895  11.083  28.250   2.770  0.3142  0.0076  0.0706
    1W        W38896   5.820  17.524   5.241 -0.1031  0.1621  0.0292
    1W        W38897  24.465  20.991   2.486 -0.3440  0.2952 -0.2143
    1W        W38898   0.549   6.984   9.360  0.0806 -0.0639  0.0541
    1W        W38899   6.132  12.737   8.382  0.0202  0.1325 -0.0909
    1W        W38900   9.551   1.978   9.817  0.1530 -0.0936  0.0473
    1W        W38901  16.853  17.933   0.562 -0.0631  0.4022  0.0945
    1W        W38902  14.988  16.371   9.234 -0.0119  0.2144  0.0147
    1W        W38903   9.796  19.315   7.240 -0.0751  0.0761  0.0187
    1W        W38904   7.647  17.236   0.810  0.0697 -0.1708 -0.2663
    1W        W38905  13.738   1.823   0.819  0.1110  0.0105 -0.3034
    1W        W38906  19.603  10.377   7.756  0.1269  0.1233 -0.0985
    1W        W38907  13.233   3.980   3.478  0.3591 -0.0919  0.2174
    1W        W38908   7.345  26.872   0.159  0.0221  0.3752 -0.0510
    1W        W38909   0.536  13.769   1.990  0.3976  0.1475 -0.0780
    1W        W38910   9.823   2.128   3.033  0.0488  0.1334 -0.0950
    1W        W38911   8.243  18.079   8.745  0.3091  0.1631  0.2242
    1W        W38912  18.606   9.776   9.182  0.2357  0.1391  0.0136
    1W        W38913   5.662   3.600   9.929  0.0428 -0.1584 -0.0511
    1W        W38914  27.092   4.157   9.043 -0.2424 -0.0368 -0.2167
    1W        W38915   1.424  10.051   8.517  0.0763  0.0702  0.1441
    1W        W38916   1.038  18.371   0.527 -0.1236 -0.1190  0.5915
    1W        W38917   3.383  28.261   0.403  0.0695 -0.0024 -0.0492
    1W        W38918  14.383  21.141   7.930  0.2453 -0.2940 -0.3671
    1W        W38919  11.943   0.263   2.470  0.0416  0.3067  0.1275
    1W        W38920  17.867  26.450   2.448  0.0413  0.2206  0.0942
    1W        W38921  15.747   0.600   2.702 -0.0819 -0.1585  0.1167
    1W        W38922   5.935  10.416   9.343  0.0908  0.0746  0.0428
    1W        W38923   8.029   7.672   2.653 -0.0174  0.0007 -0.0962
    1W        W38924   8.985   5.781   7.223  0.2385  0.1191  0.2341
    1W        W38925  14.544   5.086   7.922 -0.1369 -0.3136  0.2570
    1W        W38926  25.542   2.752   7.891 -0.3704  0.1009 -0.0362
    1W        W38927  25.665  19.341   8.452 -0.0128 -0.1680  0.0254
    1W        W38928  27.763  16.785   9.301  0.0400 -0.1305 -0.0287
    1W        W38929  25.941   4.180   1.430 -0.0434  0.0709 -0.2995
    1W        W38930  17.926  18.012   8.600  0.1112 -0.1825 -0.0094
    1W        W38931   6.793  16.125   1.608  0.1670 -0.2500 -0.0541
    1W        W38932   7.053  26.761   8.923  0.1595 -0.1624  0.3305
    1W        W38933  13.677   1.438   9.200 -0.1140 -0.2874 -0.0147
    1W        W38934  18.223   7.908   2.715  0.1016  0.2607 -0.1401
    1W        W38935  25.445  26.161   2.345 -0.3980 -0.2604  0.0471
    1W        W38936   6.035  17.904   8.856  0.2537  0.2834  0.1234
    1W        W38937   2.412  11.035   8.705 -0.1308  0.2242  0.0105
    1W        W38938  26.955  23.360   9.429 -0.3309 -0.1191 -0.0839
    1W        W38939  27.823  21.673   1.556  0.0250 -0.2013  0.0917
    1W        W38940  19.234   5.731   7.826 -0.3924  0.1983  0.0376
    1W        W38941  23.257   9.016   8.114  0.2747 -0.0341  0.3188
    1W        W38942   7.935   9.419   3.003 -0.0399 -0.0970 -0.0266
    1W        W38943   1.632   0.741   0.845 -0.2540 -0.1948  0.2363
    1W        W38944  17.769  14.938   7.780 -0.0841 -0.3158 -0.4476
    1W        W38945  10.280  22.867   8.051  0.0772 -0.1639  0.1567
    1W        W38946  16.610   1.333   2.222  0.2342 -0.2387 -0.0993
    1W        W38947  28.399   6.354   1.803  0.1457 -0.4866 -0.0844
    1W        W38948  19.544   6.814   8.094 -0.2360  0.0693  0.4153
    1W        W38949  20.953  13.596   9.925  0.1045  0.0599  0.1157
    1W        W38950  24.581  15.972   1.147  0.2099  0.0402 -0.0238
    1W        W38951  16.170   2.309   3.090 -0.3785 -0.3310 -0.0119
    1W        W38952  28.665  21.125   2.730 -0.1498 -0.1946  0.1901
    1W        W38953   0.101   6.629   8.986  0.1577 -0.0499  0.0594
    1W        W38954  10.618   1.504   2.110  0.0616 -0.2225  0.0373
    1W        W38955  14.461   5.868   2.132  0.2492  0.3528  0.2033
    1W        W38956  16.995  27.239   2.246 -0.1036 -0.0418 -0.0571
    1W        W38957  23.643  22.977   7.147 -0.2165  0.0043 -0.0981
    1W        W38958   8.985   4.513   0.333  0.0029 -0.0351  0.1620
    1W        W38959  22.419   9.793   1.954 -0.0549  0.0618  0.1209
    1W        W38960  17.974  23.454   1.771  0.0598 -0.0675 -0.3874
    1W        W38961   9.749  26.899   0.889 -0.1478  0.2735  0.1061
    1W        W38962  24.994  18.932   0.552 -0.1255  0.0797 -0.0991
    1W        W38963   0.068  21.056   6.590 -0.0053  0.0567 -0.1406
    1W        W38964  17.915   2.374   0.929  0.0798  0.2031  0.1416
    1W        W38965  28.214  28.587   2.737 -0.0038 -0.2142 -0.0927
    1W        W38966  11.619  15.522   7.318 -0.0331 -0.0293 -0.0348
    1W        W38967  26.435   5.593   7.937  0.0928 -0.2921 -0.1349
    1W        W38968  20.527  10.980   0.860  0.4454  0.2152  0.0756
    1W        W38969  27.215  26.334   2.155  0.1278  0.1146 -0.2676
    1W        W38970  16.351   8.597   8.409 -0.0139 -0.1144 -0.1355
    1W        W38971  22.491  10.247   1.474  0.0506  0.0301 -0.2782
    1W        W38972  16.968  10.590   9.828 -0.0451 -0.0355 -0.3176
    1W        W38973  21.894  12.480   7.923 -0.3041  0.0484  0.2546
    1W        W38974  26.440  22.090   0.467  0.1445 -0.0612  0.1644
    1W        W38975  21.406  24.569   3.895  0.0745 -0.1202 -0.1170
    1W        W38976  23.285  19.055   6.477 -0.0083 -0.0628  0.0169
    1W        W38977  23.423  24.609   2.117 -0.1026 -0.0633  0.4670
    1W        W38978  17.325   8.873   8.533  0.1770 -0.0373  0.2503
    1W        W38979  16.292  26.474   9.012 -0.0960  0.1604  0.0603
    1W        W38980  21.917  21.793   2.526  0.1144 -0.0519 -0.1194
    1W        W38981  13.751  18.642   9.820  0.0696  0.1828 -0.0096
    1W        W38982  11.953   1.602   2.019 -0.1247 -0.1889 -0.2138
    1W        W38983   8.736  13.913   9.413  0.4125 -0.0817  0.0525
    1W        W38984  15.445  16.729   2.197  0.0318  0.1761  0.1685
    1W        W38985   3.230  17.024   0.894  0.1881 -0.0737 -0.1747
    1W        W38986   1.620   1.952   7.782  0.2058 -0.1484  0.1365
    1W        W38987  14.614   3.254   4.178 -0.0772  0.3059  0.0488
    1W        W38988  26.162  25.855   8.929 -0.2109  0.0707 -0.0542
    1W        W38989  18.080  19.727   9.505 -0.1128 -0.4708 -0.0908
    1W        W38990   1.443  23.916   8.641 -0.0654  0.0634  0.2053
    1W        W38991   1.321  15.091   0.637  0.2015 -0.0489  0.3506
    1W        W38992  12.854  27.559   1.152  0.0568 -0.1885 -0.0469
    1W        W38993   8.612  25.602   9.245  0.0594 -0.0973  0.2332
    1W        W38994   4.133   8.659   7.888  0.1811  0.2980  0.1480
    1W        W38995  22.542  22.234   9.335  0.2124 -0.2119  0.0633
    1W        W38996   1.580  20.637   7.302 -0.0763 -0.1769  0.5336
    1W        W38997  11.623  21.709   7.374 -0.1800 -0.3248 -0.4954
    1W        W38998   7.035  15.757   9.062  0.1689  0.0200 -0.1787
    1W        W38999  10.621   6.938   9.163  0.1885  0.0448 -0.0850
    1W        W39000  25.248   8.286   9.168 -0.1111  0.0912  0.0850
    1W        W39001   0.159   6.329   1.923  0.1821 -0.2114  0.1392
    1W        W39002   7.385   6.724   1.465  0.0428 -0.1225  0.2583
    1W        W39003  28.068  22.492   7.761 -0.1192 -0.0067 -0.1020
    1W        W39004  19.244   2.837   2.703 -0.3684  0.1615  0.0209
    1W        W39005   5.311   3.904   1.278  0.2493  0.0325 -0.4816
    1W        W39006  10.198  18.703   2.311 -0.1381 -0.0520  0.0110
    1W        W39007   9.039   8.618   0.271 -0.1034  0.1655 -0.2528
    1W        W39008  16.047  22.842   2.959 -0.0101  0.3075  0.0790
    1W        W39009  12.828   0.394   8.006  0.1908  0.0036 -0.0891
    1W        W39010  25.679   5.243   7.148  0.0623  0.1485  0.4448
    1W        W39011   4.245  10.035   8.597  0.1418 -0.0061  0.0624
    1W        W39012  25.353  24.523   7.357  0.1405 -0.3256  0.1085
    1W        W39013  12.461  10.864   0.221 -0.0952 -0.0936 -0.0634
    1W        W39014  25.405   2.131   7.286 -0.0237  0.2625  0.1274
    1W        W39015  15.395  26.439   1.832  0.1558 -0.3037  0.1784
    1W        W39016  20.556   1.067   8.618  0.2139  0.0088  0.2625
    1W        W39017  25.230   7.458   8.485 -0.0165 -0.4728 -0.2937
    1W        W39018  11.883   4.374   1.617  0.1487 -0.1316 -0.0063
    1W        W39019  16.126  17.593   8.785  0.1294  0.2207  0.1713
    1W        W39020  12.889  16.468   2.978  0.2852  0.0799 -0.0459
    1W        W39021   6.440  12.907   7.245 -0.1297 -0.0133 -0.0417
    1W        W39022  11.619   2.235   8.974  0.2395 -0.1184  0.0986
    1W        W39023  23.298  17.956   8.779 -0.3076 -0.3867  0.1196
    1W        W39024   1.751  17.217   8.969 -0.0606  0.0579 -0.0002
    1W        W39025   9.984   1.069   2.746 -0.0428 -0.1322 -0.0809
    1W        W39026  11.114  20.733   0.728 -0.2283 -0.1657 -0.1236
    1W        W39027   7.968  10.517   2.124 -0.0156  0.1191 -0.0664
    1W        W39028  23.854  25.921   8.463  0.0015 -0.2960  0.2294
    1W        W39029   6.651   5.355   0.869 -0.2597  0.0683 -0.3223
    1W        W39030   1.957  14.828   6.720  0.0507 -0.1162 -0.1538
    1W        W39031  13.354   1.969   0.417 -0.0190  0.0417 -0.0616
    1W        W39032  20.522   2.577   6.962  0.0823  0.1426 -0.0067
    1W        W39033  22.586  15.081   0.589  0.0073 -0.1046 -0.1062
    1W        W39034   3.399   9.820   1.478  0.1715 -0.1418  0.1888
    1W        W39035  23.836  13.093   9.193  0.1757  0.1878 -0.1066
    1W        W39036  12.074  22.176   2.592 -0.3332 -0.2068  0.0567
    1W        W39037   7.896  26.707   2.707  0.1238  0.1148 -0.0002
    1W        W39038   6.748  27.613   7.675  0.0219 -0.2704  0.1444
    1W        W39039  18.216   0.220   3.777 -0.0536 -0.0443 -0.4033
    1W        W39040  11.582   0.129   8.040  0.4102  0.2675  0.2344
    1W        W39041  16.210   5.029   9.817 -0.2564  0.1466 -0.1118
    1W        W39042  13.375   5.308   8.368  0.0859  0.1209 -0.2239
    1W        W39043  11.045  27.628   1.938 -0.2449  0.1125  0.1035
    1W        W39044  23.575   8.738   8.937 -0.1212  0.1647  0.0207
    1W        W39045   7.680  10.696   9.544  0.0796  0.5712  0.3953
    1W        W39046  13.433   8.402   1.169  0.0357 -0.2051 -0.0267
    1W        W39047  21.368  16.803   8.341  0.1092  0.1250  0.0559
    1W        W39048  16.529  26.804   2.478 -0.1860  0.0250 -0.4026
    1W        W39049  24.044  25.195   9.166 -0.1004  0.3086 -0.0108
    1W        W39050  27.092   4.521   9.725 -0.1768  0.0822  0.1933
    1W        W39051   9.415  24.450   9.371 -0.0428  0.1911  0.0584
    1W        W39052  23.935   0.643   1.166 -0.2742  0.0925 -0.0857
    1W        W39053  19.159  10.816   9.146  0.1485  0.0280 -0.1462
    1W        W39054  25.617  17.486   1.578 -0.0029  0.0132  0.1618
    1W        W39055   7.726   9.333   0.926 -0.0608  0.2369  0.0450
    1W        W39056  14.793  25.972   6.707  0.0263  0.0770  0.0255
    1W        W39057   1.642   9.679   8.858  0.0564 -0.1084  0.2342
    1W        W39058  11.520   6.897   9.752  0.4505  0.1146 -0.0586
    1W        W39059  26.844  10.646   5.499  0.2078  0.0324 -0.1777
    1W        W39060  20.088   4.139   8.317 -0.2234  0.1628  0.0576
    1W        W39061  12.073  23.211   9.883  0.0189 -0.3341  0.1055
    1W        W39062   8.912  12.661   2.549 -0.1003  0.1118  0.1924
    1W        W39063   1.699   0.480   1.685 -0.0609  0.0902 -0.0872
    1W        W39064  14.112  12.290   9.527  0.0944  0.3445 -0.0947
    1W        W39065  20.602  18.550   8.351 -0.1356  0.0916 -0.0606
    1W        W39066   1.457  24.674   2.028  0.0552  0.1980 -0.0647
    1W        W39067  26.410  13.434   1.052 -0.1741  0.0438 -0.0634
    1W        W39068  25.740  24.923   7.431  0.0667  0.0895  0.0116
    1W        W39069  21.323  26.726   0.886 -0.0712  0.4174 -0.0861
    1W        W39070   3.097  17.251   1.350 -0.2107 -0.0106 -0.0688
    1W        W39071   8.158  13.806   8.137 -0.0024  0.1437  0.1156
    1W        W39072  27.005   8.193   9.543  0.1174  0.1466 -0.0768
    1W        W39073   4.123   8.324   6.925 -0.1936 -0.2346 -0.0695
    1W        W39074  22.204  14.454   7.364 -0.1216  0.0963  0.1004
    1W        W39075  19.669  24.347   0.712  0.0138 -0.0508 -0.1951
    1W        W39076   0.446   9.214   8.110  0.3637 -0.0463 -0.1811
    1W        W39077  27.821  27.899   8.486 -0.1610 -0.1118 -0.1350
    1W        W39078   5.411  12.256   1.598  0.0075 -0.0676 -0.3446
    1W        W39079  12.327   5.661   0.260 -0.1906 -0.0880 -0.0268
    1W        W39080  12.020   2.170   0.368  0.1205 -0.1730 -0.0685
    1W        W39081  15.696  24.067   1.624  0.1241 -0.0822  0.4265
    1W        W39082   9.482  24.941   9.350 -0.2141  0.2102 -0.0709
    1W        W39083   2.919  26.246   8.758  0.1348  0.0583  0.0408
    1W        W39084   8.316  12.549   0.642 -0.2215  0.1639 -0.1273
    1W        W39085  14.069  25.193   1.080 -0.1271 -0.0098 -0.0055
    1W        W39086  21.297  23.643   1.390  0.1235  0.0086 -0.3477
    1W        W39087   3.667   9.038   8.618  0.1590 -0.0059  0.0486
    1W        W39088  22.650  28.714   7.104  0.2880  0.1225 -0.0082
    1W        W39089  27.378  16.174   6.418  0.0174 -0.1610 -0.0409
    1W        W39090  13.575  15.279   7.616  0.0381 -0.0492  0.1610
    1W        W39091  26.337  22.427   2.619 -0.0917 -0.0507 -0.1374
    1W        W39092  17.910   6.260   3.241 -0.1150 -0.4238 -0.3128
    1W        W39093  17.351  23.299   3.063  0.0877 -0.1385  0.1228
    1W        W39094  21.515   4.415   9.867  0.0640 -0.1912 -0.0458
    1W        W39095  26.739  27.426   2.863  0.3442 -0.0102  0.1007
    1W        W39096  17.942  21.888   7.366 -0.2192  0.0887 -0.1135
    1W        W39097   9.726  12.666   7.909 -0.0130  0.3158  0.1267
    1W        W39098   7.905  14.851   1.113 -0.1098 -0.0845  0.2461
    1W        W39099  17.123  12.393   1.443  0.0735 -0.1040 -0.2202
    1W        W39100  11.742  19.257   0.709 -0.2732 -0.1350 -0.0114
    1W        W39101  28.705  24.910   0.951 -0.0881 -0.2717  0.0205
    1W        W39102  17.059  26.212   6.674  0.0193 -0.0201  0.1501
    1W        W39103   0.429  11.155   6.629  0.1729 -0.2251 -0.0724
    1W        W39104  12.291  26.766   8.483 -0.0770 -0.1324  0.3188
    1W        W39105  15.968  11.944   1.568 -0.0857  0.2228  0.1848
    1W        W39106  25.301  22.612   0.586 -0.2292  0.1060  0.1025
    1W        W39107  12.746   0.939   2.276  0.0340 -0.0781 -0.2658
    1W        W39108  14.301   3.632   4.166 -0.0855  0.2103 -0.3769
    1W        W39109  20.313  17.427   0.201 -0.0806 -0.1177  0.0418
    1W        W39110   1.712   5.716   2.663 -0.2245  0.0165  0.3130
    1W        W39111  20.962   6.593   3.741 -0.1516  0.1354 -0.0283
    1W        W39112   1.834   5.145   2.261 -0.0738  0.2653 -0.0656
    1W        W39113  25.943   4.543   1.806  0.0358  0.0742 -0.1471
    1W        W39114  14.989  10.466   3.499 -0.2232 -0.0995  0.2604
    1W        W39115  21.718  27.208   1.097 -0.0748  0.0537  0.0319
    1W        W39116   2.106  13.506   7.331 -0.0675 -0.0139 -0.0428
    1W        W39117  21.376   4.176   7.906 -0.3018 -0.2245 -0.0141
    1W        W39118   2.836  28.428   1.531 -0.1255  0.2675 -0.2885
    1W        W39119  13.126  18.411   9.532 -0.1317  0.0502  0.1736
    1W        W39120  13.134  16.309   2.041  0.1312  0.2660  0.2292
    1W        W39121  19.978  27.483   3.072 -0.0388  0.0780 -0.0135
    1W        W39122   5.872   8.184   2.467 -0.1786  0.0418 -0.1721
    1W        W39123  11.719  24.561   8.868 -0.1992  0.0906 -0.2143
    1W        W39124  21.717  24.028   0.431 -0.0549  0.1491  0.1703
    1W        W39125  27.049   8.763   8.159  0.0380 -0.0214 -0.1117
    1W        W39126  20.555   6.902   2.773  0.1320  0.0658  0.0587
    1W        W39127  13.871  12.003   7.959 -0.1897  0.0363 -0.2640
    1W        W39128   7.896  15.188   7.552  0.0555 -0.1631 -0.1168
    1W        W39129   2.757   8.322   1.503 -0.0183 -0.4984 -0.3846
    1W        W39130  28.558  22.228   2.680 -0.4196 -0.1362 -0.0641
    1W        W39131  11.195   8.227   7.506  0.1195 -0.1458  0.0381
    1W        W39132   5.366   0.930   1.657 -0.0390 -0.1144  0.1137
    1W        W39133   7.580  16.940   7.697 -0.0518  0.2447  0.1434
    1W        W39134  16.875   7.420   8.224 -0.2515 -0.0536  0.0301
    1W        W39135  16.313   6.701   8.564  0.2926 -0.0545 -0.2421
    1W        W39136  21.664  10.989   8.515 -0.0517 -0.0316 -0.3048
    1W        W39137  18.298  23.902   7.212 -0.1249 -0.0012  0.2517
    1W        W39138   2.176  27.029   3.256  0.0867  0.1181  0.0646
    1W        W39139   4.360  14.728   6.953 -0.0436  0.1534 -0.1016
    1W        W39140   9.055   3.259   2.964  0.1453  0.0924 -0.1005
    1W        W39141  26.879   3.957   2.730  0.0301  0.1815  0.0837
    1W        W39142  22.256   9.679   2.935  0.0896  0.1016  0.1567
    1W        W39143  23.714  23.349   2.460  0.0497  0.0564 -0.0737
    1W        W39144   8.709   7.370   7.987 -0.1639  0.1283 -0.3983
    1W        W39145  19.253   3.506   0.510  0.0777 -0.1016  0.3087
    1W        W39146   2.453   7.776   6.238  0.0728 -0.0469 -0.0987
    1W        W39147   0.547  17.947   8.329 -0.0215 -0.0271 -0.0895
    1W        W39148   4.603  10.278   1.747  0.0752 -0.2110 -0.0701
    1W        W39149  21.845  24.263   0.845  0.1929  0.3219 -0.2489
    1W        W39150  19.130   3.425   9.310 -0.1920 -0.0023 -0.0735
    1W        W39151  11.394  16.636   1.886  0.2207  0.0258 -0.0556
    1W        W39152  15.276   0.210   9.722  0.0489  0.2992  0.1978
    1W        W39153   9.671  20.157   1.138  0.4540 -0.0555 -0.0720
    1W        W39154  14.393  26.483   1.834 -0.5168  0.0822  0.0454
    1W        W39155  23.821  23.030   9.790  0.0791 -0.5136 -0.1258
    1W        W39156  23.519  17.104   8.490 -0.3167  0.0562 -0.1039
    1W        W39157   5.223   1.351   9.335  0.0490 -0.1052  0.0479
    1W        W39158  20.716  22.239   0.326  0.0175 -0.0177 -0.0601
    1W        W39159   3.909  13.409   7.244  0.1027  0.1862  0.4292
    1W        W39160   6.048  25.034   7.435  0.0360 -0.3430  0.1279
    1W        W39161   2.163   0.426   0.709 -0.1296  0.1434 -0.3983
    1W        W39162   5.143  15.599   6.997  0.0134 -0.0086  0.2573
    1W        W39163   8.231  11.250   2.280  0.1091  0.1843  0.0214
    1W        W39164  16.523   7.575   2.735  0.0072 -0.0363 -0.0647
    1W        W39165  15.370   2.500   2.020  0.2630  0.1732 -0.1235
    1W        W39166   2.184   8.260   7.913  0.2821  0.0407 -0.0199
    1W        W39167  13.129   8.954   8.877  0.2068 -0.1600  0.3046
    1W        W39168   0.103  15.480   9.261  0.0121  0.1242  0.1312
    1W        W39169  19.903  16.375   8.977  0.0512 -0.0140 -0.1901
    1W        W39170  12.021  19.717   0.705 -0.1625 -0.2131 -0.3133
    1W        W39171  11.508  12.665   2.062 -0.0155 -0.2160  0.4416
    1W        W39172  18.145   7.277   0.128 -0.2703  0.2422  0.1363
    1W        W39173   0.411   5.978   6.738  0.0123  0.0412 -0.0438
    1W        W39174  13.112  10.827   9.508  0.0975  0.0844 -0.1910
    1W        W39175  27.442  12.777   9.014 -0.0672  0.2747 -0.2753
    1W        W39176  21.879  16.277   0.688 -0.2432 -0.1918 -0.2396
    1W        W39177  20.060   3.095   9.277  0.0696 -0.1296  0.0538
    1W        W39178  20.582  12.907   7.671  0.1363 -0.0111 -0.2691
    1W        W39179   7.793   7.391   0.761  0.0095 -0.0028  0.0271
    1W        W39180  17.265  16.012   9.741  0.1572  0.0703  0.2609
    1W        W39181   0.749  21.124   7.817  0.0665  0.1213  0.1055
    1W        W39182   2.325  10.434   8.002  0.0627  0.1183 -0.1946
    1W        W39183  22.206  22.156   1.473 -0.1777 -0.5080 -0.0740
    1W        W39184  24.146  16.388   0.701  0.0789  0.1110  0.0709
    1W        W39185  28.664  25.560   7.774 -0.2537  0.1052  0.0555
    1W        W39186  16.051   9.980   8.328 -0.2287  0.1606  0.0480
    1W        W39187   4.608   5.264   2.108 -0.1411  0.1701 -0.0335
    1W        W39188  26.519  22.042   3.294 -0.6633  0.4341  0.1736
    1W        W39189  26.205  21.669   7.676 -0.3331  0.1267  0.2783
    1W        W39190   6.967  10.915   8.182 -0.0313 -0.0502 -0.0094
    1W        W39191  11.144  26.240   0.905 -0.0634 -0.3791  0.0023
    1W        W39192   8.687  17.750   1.029  0.1894 -0.0438  0.0248
    1W        W39193  10.119  19.202   9.836  0.0115  0.3029  0.0016
    1W        W39194  23.027   1.234   8.621 -0.0456  0.0523  0.0542
    1W        W39195   7.794  27.175   1.283 -0.0617 -0.0064  0.0856
    1W        W39196  24.269  17.815   2.290 -0.0672  0.1955  0.2012
    1W        W39197  10.098  20.951   2.567  0.0415  0.1066 -0.1151
    1W        W39198  23.083  25.120   6.508  0.0597  0.0863 -0.2624
    1W        W39199   6.503   5.248   1.665  0.2156  0.1589  0.3789
    1W        W39200   8.012  25.477   1.530 -0.0185 -0.1604 -0.2196
    1W        W39201  16.348   2.667   8.515 -0.0199 -0.0300 -0.2246
    1W        W39202  19.817  24.657   2.612 -0.1465 -0.0831 -0.1022
    1W        W39203   2.097   8.430   2.072  0.1537  0.2932  0.0137
    1W        W39204  27.795   0.774   8.200  0.2079 -0.0310  0.1133
    1W        W39205  20.727  13.308   2.931 -0.4924  0.1452 -0.2430
    1W        W39206  15.782  22.976   8.892  0.1804 -0.0250  0.1894
    1W        W39207  28.399  11.589   0.238  0.1002 -0.2009  0.0625
    1W        W39208   5.244  20.207   7.704  0.1454  0.1138 -0.0804
    1W        W39209   8.796   9.928   1.791 -0.1810  0.3917 -0.2892
    1W        W39210  23.497   0.251   7.306 -0.1136  0.0694 -0.1982
    1W        W39211  22.652  16.419   1.363 -0.1860  0.1066 -0.1956
    1W        W39212   0.199   2.316   0.736  0.2346  0.0378 -0.1670
    1W        W39213   4.834  25.464   2.107 -0.2071  0.3006 -0.0841
    1W        W39214  16.520   0.487   2.005 -0.1278  0.0039  0.1965
    1W        W39215  18.341   6.977   7.365 -0.2483 -0.0544  0.0545
    1W        W39216   0.326   5.275   7.546 -0.0963  0.5336  0.0158
    1W        W39217  25.545  17.106   6.622  0.1302 -0.2227  0.2946
    1W        W39218  22.592   9.225   0.654  0.0199 -0.0540  0.1829
    1W        W39219  24.717   4.285   2.745  0.2820 -0.2154  0.0941
    1W        W39220   5.560  11.471   0.393  0.3468  0.1634  0.1603
    1W        W39221  27.232  11.936   7.133 -0.0218  0.0988 -0.1862
    1W        W39222   6.137   8.057   0.104 -0.0529 -0.0102  0.0194
    1W        W39223   9.520  28.387   3.524 -0.1408  0.1705  0.3603
    1W        W39224  24.251  16.248   9.811 -0.3653 -0.0397 -0.2285
    1W        W39225   6.616  15.662   7.338 -0.0452 -0.0718  0.2152
    1W        W39226  26.301  12.669   6.023 -0.1168  0.3016  0.2559
    1W        W39227  22.788  27.608   9.307  0.0179  0.0288 -0.0043
    1W        W39228  17.100  10.152   1.827 -0.0390 -0.1400  0.0868
    1W        W39229   3.805  18.183   1.255 -0.0346 -0.0357 -0.2909
    1W        W39230  15.946   2.683   2.016 -0.3264 -0.0779  0.0900
    1W        W39231  28.261  15.378   1.535  0.1991 -0.2643  0.0568
    1W        W39232  10.561   1.551   1.564 -0.0299  0.1757  0.2800
    1W        W39233  14.966   4.702   1.464  0.0751  0.2595  0.0570
    1W        W39234  20.850  20.145   9.694  0.0245 -0.0414  0.1551
    1W        W39235  24.796  16.778   9.654 -0.1573  0.2423 -0.2846
    1W        W39236   9.664  14.663   9.637 -0.0392 -0.2471  0.1667
    1W        W39237  16.272   1.399   7.195 -0.1192  0.3467 -0.1687
    1W        W39238  14.904  15.157   9.036 -0.0311 -0.2099  0.1053
    1W        W39239  10.587  19.338   1.834  0.0072  0.2068  0.1664
    1W        W39240  28.604  17.006   6.135 -0.0021 -0.0173 -0.2692
    1W        W39241   8.695   6.303   1.322  0.1838  0.2378 -0.1980
    1W        W39242   8.771   9.182   2.808  0.2888 -0.1747 -0.0241
    1W        W39243  12.293  23.215   0.515  0.0726 -0.3099 -0.0347
    1W        W39244   7.789  24.783   2.385  0.0705 -0.0461 -0.1233
    1W        W39245   2.390   9.056   8.587  0.0047  0.4119  0.0874
    1W        W39246  22.223   9.032   7.465  0.0097 -0.0289 -0.1489
    1W        W39247  13.526   3.943   0.171  0.0989  0.0347  0.1424
    1W        W39248   2.742   5.414   7.941  0.0023  0.3196 -0.1079
    1W        W39249   4.542   8.034   2.332 -0.0242 -0.0509 -0.0107
    1W        W39250   5.685  11.327   0.898 -0.1728 -0.2748  0.1226
    1W        W39251   7.581  27.445   8.533 -0.0773 -0.2317 -0.1936
    1W        W39252  24.598  20.400   7.426  0.3475 -0.0857  0.2976
    1W        W39253   8.273   4.111   1.278 -0.0249 -0.2559  0.0400
    1W        W39254   7.430  27.585   3.863 -0.1456  0.0279  0.1011
    1W        W39255   0.828   5.301   2.366  0.2037 -0.2283  0.0007
    1W        W39256   7.428   9.716   1.045  0.0516 -0.2424  0.3642
    1W        W39257  15.555  19.307   8.453  0.0015  0.3165  0.2278
    1W        W39258   2.029  18.465   8.535  0.1866  0.1150  0.0370
    1W        W39259  15.703  25.160   2.587 -0.2189  0.2917  0.0290
    1W        W39260  24.069   3.412   9.800 -0.1706  0.1215  0.1643
    1W        W39261  16.964  13.185   1.864 -0.0714 -0.1443  0.0909
    1W        W39262  19.656   7.213   1.654 -0.2803 -0.1159 -0.0433
    1W        W39263  18.863   9.556   2.600  0.0941 -0.2261 -0.0810
    1W        W39264  20.997   7.976   1.117  0.1038 -0.1318 -0.0260
    1W        W39265  16.813  21.224   7.768  0.1761  0.1625 -0.1843
    1W        W39266   8.714  28.132   2.052 -0.4085 -0.2276  0.3917
    1W        W39267  21.590   6.103   7.972 -0.3557  0.3543 -0.1186
    1W        W39268  24.059  24.134   1.602 -0.0604 -0.0818  0.1091
    1W        W39269  20.960   0.596   6.185 -0.0229 -0.1680 -0.1254
    1W        W39270  17.049  14.783   1.755 -0.3175 -0.0228 -0.0853
    1W        W39271  20.889   6.420   0.160  0.1550  0.2677  0.1069
    1W        W39272  14.688  21.799   1.688  0.5195 -0.0475 -0.1318
    1W        W39273  13.706  23.666   0.525  0.0123 -0.2467  0.2458
    1W        W39274  22.126   9.216   9.816  0.0598 -0.0048 -0.2926
    1W        W39275  24.249  21.645   8.946 -0.0887  0.3201 -0.4772
    1W        W39276  11.876  19.412   8.524 -0.1675  0.1766  0.0880
    1W        W39277  28.410  10.320   0.700 -0.0924 -0.0036 -0.1441
    1W        W39278   1.030   4.586   9.187 -0.0756  0.2559  0.0881
    1W        W39279  26.194  10.166   7.700 -0.0642 -0.1250  0.1084
    1W        W39280   9.938   3.773   3.562 -0.1611  0.1883  0.1765
    1W        W39281   1.101  18.816   7.630 -0.1747  0.2818  0.0436
    1W        W39282  24.104  28.588   1.173 -0.2249 -0.0424  0.1530
    1W        W39283  11.855  12.308   1.895 -0.1697  0.0684 -0.0151
    1W        W39284   8.059   9.010   0.737  0.0401  0.0576  0.0584
    1W        W39285   8.212   7.047   2.680  0.0319 -0.1046  0.1953
    1W        W39286   6.476  26.570   8.374 -0.1310 -0.0423  0.2311
    1W        W39287   3.258  12.016   5.568  0.0656  0.4359  0.2657
    1W        W39288  10.255  10.548   3.531 -0.1846  0.1593  0.0504
    1W        W39289  16.179   2.638   9.377 -0.1176  0.2095  0.1971
    1W        W39290   9.901   5.522   0.164  0.0937 -0.0742  0.1770
    1W        W39291   2.090  27.880   8.423 -0.2257 -0.0320  0.1089
    1W        W39292   3.589   2.043   2.348  0.0621  0.0665 -0.0346
    1W        W39293  10.322   9.106   9.424 -0.1554 -0.0290  0.2399
    1W        W39294  24.137   9.032   1.380  0.1164  0.1670  0.1505
    1W        W39295  15.115  20.267   3.197 -0.1892  0.2636 -0.1137
    1W        W39296   9.839  17.921   0.138  0.0850  0.3280  0.1480
    1W        W39297  27.509   2.054   0.100  0.1471 -0.0213 -0.1619
    1W        W39298  15.739   6.678   8.141  0.2145 -0.1481 -0.4243
    1W        W39299  11.773   0.823   1.347  0.2760 -0.0543  0.1556
    1W        W39300   3.076  13.187   9.008 -0.1173  0.0062 -0.1071
    1W        W39301  27.809  25.040   7.019  0.4287  0.1075 -0.0134
    1W        W39302  23.229  19.850   0.458  0.1828  0.2824 -0.1448
    1W        W39303   0.435  23.951   1.420  0.1262  0.1165  0.1289
    1W        W39304  22.399  11.515   9.083  0.0310 -0.5003  0.2395
    1W        W39305  11.146   2.582   9.687 -0.4406  0.0906 -0.1353
    1W        W39306  16.321   1.838   1.331 -0.0814  0.0431  0.0540
    1W        W39307   6.477  22.895   8.961 -0.2009  0.0644  0.3683
    1W        W39308  20.303  28.719   2.909  0.0283  0.2129  0.0610
    1W        W39309  14.368  13.414   9.672 -0.0680 -0.1565  0.3650
    1W        W39310  19.677   9.780   6.934  0.3497 -0.2580  0.1068
    1W        W39311  10.448  24.079   7.578  0.2507  0.2056  0.2674
    1W        W39312  17.778  12.611   2.586  0.0547  0.3090 -0.0086
    1W        W39313   6.254  17.258   1.270  0.1175  0.1284 -0.0806
    1W        W39314  16.588   2.767   2.763  0.0206 -0.3378 -0.2507
    1W        W39315  21.501  20.428   2.168 -0.1854  0.0167 -0.0788
    1W        W39316  12.641   6.311   1.985 -0.1973  0.1177 -0.0702
    1W        W39317   4.593   3.123   9.824  0.3107  0.0934 -0.1270
    1W        W39318  17.865  18.711   2.677 -0.0571 -0.0303  0.1576
    1W        W39319  16.908  12.885   1.499 -0.0189 -0.1196  0.2861
    1W        W39320  23.214   2.912   9.671  0.0383 -0.0749  0.1977
    1W        W39321  17.919   6.730   8.675  0.0318  0.1884 -0.3450
    1W        W39322  26.650  21.511   8.725  0.0722 -0.1989  0.2099
    1W        W39323   3.485   9.627   8.006 -0.0535 -0.0715 -0.0253
    1W        W39324  27.669   0.691   9.070 -0.0887 -0.1475  0.1152
    1W        W39325  24.519  22.064   1.578  0.1529  0.2283  0.3155
    1W        W39326   4.262  20.252   0.084  0.0795 -0.0638 -0.0673
    1W        W39327  26.289  27.106   2.776  0.0180  0.0653  0.2065
    1W        W39328  26.184   4.939   9.583  0.1960  0.1962  0.1388
    1W        W39329   1.423  18.152   8.182 -0.1404  0.2834 -0.1000
    1W        W39330   6.996   5.868   9.943 -0.0027  0.0751 -0.0612
    1W        W39331  18.620   4.506   8.321  0.2283 -0.0066 -0.2210
    1W        W39332  24.300  20.179   0.414  0.0501 -0.0627  0.0230
    1W        W39333   7.146  19.372   0.693 -0.3064  0.2984  0.2232
    1W        W39334  26.500  10.061   8.883  0.1216 -0.2112  0.0987
    1W        W39335  21.014  19.826   3.710  0.0367  0.1446  0.3564
    1W        W39336   0.759  10.269   9.381  0.0627 -0.0097 -0.2985
    1W        W39337  13.075  18.684   9.093 -0.0601 -0.0610 -0.0082
    1W        W39338  20.411  10.855   7.416  0.0263 -0.0926  0.3041
    1W        W39339   7.446   0.081   7.426  0.0310 -0.4342  0.2464
    1W        W39340   0.114   0.935   1.306  0.1353  0.0399 -0.0855
    1W        W39341  13.114   9.427   2.667 -0.2452 -0.4091 -0.0799
    1W        W39342  20.455  10.388   9.257 -0.0269  0.2058 -0.1270
    1W        W39343  26.501  17.991   2.683  0.0536 -0.1217  0.1787
    1W        W39344  25.929  12.386   6.271  0.3420 -0.0389  0.1898
    1W        W39345   6.025   1.776   2.567  0.3167  0.2437 -0.0097
    1W        W39346   0.017   7.971   7.084  0.0732  0.0686  0.1039
    1W        W39347  20.925  25.834   2.863  0.2753 -0.0574  0.0232
    1W        W39348  26.279  12.535   8.111 -0.0192 -0.0518 -0.2090
    1W        W39349  11.101  12.545   0.291 -0.0329  0.0957  0.0124
    1W        W39350  19.365   2.118   0.219 -0.0588 -0.0752  0.0867
    1W        W39351  14.630  17.296   1.343  0.0124 -0.1352 -0.2274
    1W        W39352  13.611  22.117   9.162 -0.2217 -0.4899 -0.1759
    1W        W39353  16.763  12.197   2.235  0.3417 -0.0887  0.0314
    1W        W39354   1.176  25.861   2.338 -0.3064  0.2491 -0.0470
    1W        W39355  25.646  16.169   1.915  0.2682 -0.2511 -0.4187
    1W        W39356  25.258  16.715   6.618 -0.1061 -0.0157  0.2783
    1W        W39357  15.961  27.169   2.378  0.0420  0.0702  0.0170
    1W        W39358  27.144   2.991   3.343  0.2498 -0.0335 -0.0001
    1W        W39359   9.969   3.407   3.842  0.2009 -0.0857 -0.1111
    1W        W39360  21.910  27.082   9.494  0.1066  0.3012  0.0828
    1W        W39361   1.706  19.937   0.616 -0.0572 -0.1723 -0.1246
    1W        W39362  10.166  24.221   9.160 -0.1715 -0.1216 -0.1556
    1W        W39363  25.870  23.236   8.889  0.1968 -0.1158 -0.1162
    1W        W39364   7.228  12.230   8.072  0.0765 -0.2667 -0.1594
    1W        W39365   1.662  28.441   9.618 -0.2805 -0.2366  0.1272
    1W        W39366  22.228  11.341   9.709 -0.3085  0.2058  0.1469
    1W        W39367  10.600  10.506   8.146 -0.1477 -0.0931  0.0214
    1W        W39368  19.205  19.372   1.914  0.3286 -0.0408  0.0874
    1W        W39369   1.585   6.393   9.040 -0.3194 -0.0134  0.4113
    1W        W39370   8.576  17.747   6.987 -0.1157 -0.2812  0.2423
    1W        W39371  12.125   2.399   1.637  0.0988  0.2005  0.0871
    1W        W39372   5.904   8.552   9.921  0.1423  0.0141 -0.2306
    1W        W39373   8.451  24.514   6.669 -0.0040  0.3497  0.2145
    1W        W39374  27.524  10.295   7.129 -0.0457 -0.0306  0.1865
    1W        W39375  15.100  19.954   1.931 -0.0071 -0.2585  0.0347
    1W        W39376  19.907   9.984   7.832 -0.0365  0.0627 -0.1320
    1W        W39377  13.835   8.360   2.205 -0.0055  0.1273  0.0976
    1W        W39378   2.475  12.084   7.943  0.2157 -0.0474 -0.3371
    1W        W39379  23.612  22.522   7.318  0.0030  0.1090  0.1499
    1W        W39380   8.190  20.891   1.498 -0.0865  0.3605  0.0345
    1W        W39381  10.003   5.494   8.679  0.0870  0.0069 -0.3218
    1W        W39382   5.787   4.486   1.700  0.1240 -0.2539  0.0759
    1W        W39383   2.221   7.511   2.924  0.0101 -0.2234 -0.2528
    1W        W39384  27.142   0.307   8.182  0.2559  0.1818  0.0300
    1W        W39385   8.076  20.549   8.891 -0.0230  0.3715  0.3840
    1W        W39386  16.774   4.246   2.743 -0.2087 -0.0615 -0.3858
    1W        W39387  20.236  14.180   0.687 -0.2411  0.1806 -0.0091
    1W        W39388   8.347  26.826   9.025  0.0646  0.1404  0.4457
    1W        W39389  26.663  28.387   2.975  0.0037 -0.1170  0.0318
    1W        W39390  28.314  23.674   1.150  0.1484  0.2709 -0.1870
    1W        W39391  27.182  11.258   2.344 -0.0404  0.0945  0.0104
    1W        W39392  10.311  24.435   0.174  0.1896  0.0959  0.2491
    1W        W39393   2.122  12.089   1.228  0.2844 -0.0669 -0.0750
    1W        W39394  18.250   1.120   7.904  0.1351 -0.0566  0.1798
    1W        W39395   3.270   2.326   8.330  0.0828  0.4119  0.0252
    1W        W39396  27.226   1.129   0.257 -0.1384  0.3887 -0.0692
    1W        W39397  27.852  13.903   8.623 -0.2915  0.0751 -0.2100
    1W        W39398  13.774   3.608   8.514 -0.1232 -0.2388  0.0512
    1W        W39399  11.389   4.738   9.224 -0.2118  0.0126  0.2220
    1W        W39400  17.341  24.698   1.086 -0.2224  0.0016 -0.0112
    1W        W39401  28.266  28.631   8.698  0.1979 -0.0864  0.4424
    1W        W39402  21.980   0.608   2.586 -0.2200 -0.0613 -0.0579
    1W        W39403  23.903  20.589   3.421 -0.0146 -0.0365  0.2500
    1W        W39404  16.314  10.256   1.535 -0.2318 -0.3102 -0.1638
    1W        W39405   4.667   8.727   1.052 -0.2152  0.1596  0.2915
    1W        W39406   2.385  20.891   5.277 -0.1691  0.4407  0.1590
    1W        W39407  13.250  19.461   8.924 -0.1110 -0.4318 -0.3764
    1W        W39408  12.123  25.962   2.038  0.0162  0.1670  0.2595
    1W        W39409  17.347  20.012   7.653  0.2379 -0.1009 -0.0660
    1W        W39410  22.474   8.962   1.881 -0.1662  0.4447  0.3280
    1W        W39411  27.760  22.184   7.975  0.0616 -0.1764  0.0492
    1W        W39412   1.673   3.416   0.349  0.0572  0.0855  0.3350
    1W        W39413  11.504  13.398   0.941 -0.4222 -0.0733  0.1363
    1W        W39414  12.040  28.261   9.784 -0.3099  0.1953  0.1043
    1W        W39415  16.341  10.251   0.934 -0.1547  0.0980  0.2338
    1W        W39416  23.298   4.718   8.517  0.2127 -0.0988 -0.0694
    1W        W39417  14.710  15.517   8.737 -0.0801  0.0231 -0.0132
    1W        W39418  26.630   3.931   0.980 -0.2885 -0.0118 -0.1130
    1W        W39419  25.063   3.433   1.709 -0.0332  0.1787 -0.0926
    1W        W39420   4.587  17.625   0.238  0.0404  0.2872  0.0650
    1W        W39421  24.985   9.931   0.031 -0.0582 -0.1923  0.2398
    1W        W39422   6.979   2.727   9.085 -0.1270 -0.0206  0.0343
    1W        W39423  25.945   1.987   8.515 -0.1682  0.0638  0.1531
    1W        W39424   4.859  25.482   1.560  0.1095 -0.1044 -0.1234
    1W        W39425   3.939   6.957   9.777 -0.1980  0.0759 -0.1598
    1W        W39426  24.334  25.957   1.931 -0.1449 -0.2191 -0.0487
    1W        W39427   5.118   5.994   0.654 -0.0692 -0.2427 -0.0925
    1W        W39428   9.494  17.720   1.672 -0.0332 -0.1178  0.0699
    1W        W39429  12.600  10.345   9.423 -0.0466  0.2117 -0.0239
    1W        W39430   4.267  11.395   8.441  0.0721  0.1634  0.2366
    1W        W39431   2.365   0.827   2.349 -0.1638  0.2699  0.2389
    1W        W39432  14.448   1.184   1.595 -0.1050 -0.2486  0.0724
    1W        W39433   3.647   4.043   9.305 -0.0711  0.0809 -0.0808
    1W        W39434  26.228  27.313   1.479 -0.1669 -0.1623  0.4081
    1W        W39435  20.846  12.468   2.063  0.1620  0.3390  0.1724
    1W        W39436  27.395   9.871   2.384 -0.1055 -0.1657  0.3267
    1W        W39437  25.213  19.303   1.890 -0.2149 -0.1704 -0.2598
    1W        W39438  17.677  27.404   9.798 -0.2982 -0.1866 -0.2692
    1W        W39439  25.825  10.319   1.212 -0.1122 -0.0364  0.0680
    1W        W39440   1.779  17.450   6.488 -0.3188  0.0705  0.0858
    1W        W39441  13.178   7.461   8.686 -0.1723  0.1304  0.2724
    1W        W39442  12.518   4.414   3.538  0.3612 -0.0069 -0.0348
    1W        W39443  18.945   4.192   8.674  0.1003  0.2818 -0.3163
    1W        W39444   6.641  17.340   7.971  0.0666  0.0427 -0.0407
    1W        W39445  23.752  24.301   1.146 -0.2223 -0.0620  0.0829
    1W        W39446  26.825   2.155   1.312 -0.0249 -0.0265  0.0535
    1W        W39447  13.629  26.252   9.571  0.1689 -0.1321  0.3158
    1W        W39448  16.273  18.354   1.747 -0.1713  0.2030 -0.0497
    1W        W39449  10.441   1.314   1.068 -0.2269  0.2543  0.3494
    1W        W39450   2.974  13.614   6.962 -0.1377 -0.1102  0.0221
    1W        W39451  27.080  23.065   1.264  0.2819  0.0046 -0.1044
    1W        W39452  16.478  13.230   0.731 -0.2079 -0.0355  0.0175
    1W        W39453  14.366  19.372   1.168 -0.0938  0.2225  0.0349
    1W        W39454   7.343   1.545   3.411  0.0838 -0.0756 -0.1567
    1W        W39455   9.169  23.166   7.364 -0.1377  0.0259  0.1906
    1W        W39456  28.691  22.295   7.241 -0.3714 -0.2671 -0.3024
    1W        W39457   1.419  21.117   7.245  0.1362  0.3861 -0.1884
    1W        W39458   6.775  16.505   9.690 -0.2277 -0.2254  0.2487
    1W        W39459   6.891  19.780   8.873  0.0042  0.2085  0.0574
    1W        W39460   2.797   3.517   7.147  0.0412 -0.3293  0.2275
    1W        W39461  11.846  27.193   6.655  0.1843  0.0641 -0.0606
    1W        W39462  25.777  25.880   6.125 -0.1639 -0.0623 -0.0107
    1W        W39463  27.012  27.240   2.550 -0.0506 -0.2369 -0.0573
    1W        W39464  26.422   4.318   0.785  0.2573 -0.1917  0.2847
    1W        W39465  24.567  23.588   6.379  0.0303  0.0398 -0.3226
    1W        W39466  17.009  17.729   8.741 -0.1733  0.0606 -0.3155
    1W        W39467   7.019   3.165   0.472 -0.2884 -0.3099  0.2059
    1W        W39468  17.949  26.331   9.871  0.2318  0.1974 -0.0244
    1W        W39469  23.435  13.525   2.648 -0.1607  0.0294 -0.0175
    1W        W39470  23.660  13.948   7.927  0.3999  0.0833 -0.1146
    1W        W39471   8.626   2.585   1.031  0.0021 -0.0302 -0.0076
    1W        W39472  16.593  22.330   2.428  0.4061 -0.3332 -0.0450
    1W        W39473  15.905   5.266   3.088  0.0211 -0.1912 -0.2783
    1W        W39474  16.021  21.673   3.509 -0.0633  0.1240  0.0183
    1W        W39475  24.638  18.550   1.177  0.1936 -0.0287 -0.2100
    1W        W39476  13.960  22.912   1.714  0.1792 -0.0923  0.1374
    1W        W39477  23.104  20.313   7.282  0.0441 -0.0326  0.1101
    1W        W39478  25.292   1.785   6.807  0.4947 -0.0331  0.0133
    1W        W39479   5.481  22.452   0.211 -0.2963 -0.2830 -0.0644
    1W        W39480  21.187  17.572   8.667  0.1988  0.0409 -0.0107
    1W        W39481   5.037  25.344   9.179  0.4921 -0.2651 -0.0338
    1W        W39482  17.332  11.828   9.509 -0.1388 -0.2976 -0.1146
    1W        W39483   9.385  23.249   2.481  0.0366 -0.0831 -0.1467
    1W        W39484   5.332  18.799   0.468 -0.2128  0.1981 -0.0477
    1W        W39485  22.206   4.647   9.216  0.1821  0.2271  0.0489
    1W        W39486  14.999   2.631   1.613  0.2150 -0.2181  0.0081
    1W        W39487   0.697   3.508   8.491 -0.0858  0.1016  0.1111
    1W        W39488  15.298  25.978   7.565 -0.2973 -0.0170  0.1402
    1W        W39489  11.266   8.345   3.040  0.2742 -0.0892 -0.2032
    1W        W39490  10.014   9.268   1.331 -0.1049  0.1123  0.3402
    1W        W39491   7.418   1.814   2.641  0.1089  0.2292  0.0681
    1W        W39492  11.857  26.995   1.734 -0.0574 -0.0305  0.0824
    1W        W39493  17.171  26.654   8.566 -0.3583  0.4889 -0.2338
    1W        W39494  17.888  19.515   3.206 -0.3318  0.3193 -0.0753
    1W        W39495   6.725   2.988   9.412  0.0506 -0.1465 -0.1529
    1W        W39496  20.231   0.017   2.162 -0.1624 -0.2765  0.1012
    1W        W39497   0.910   5.354   7.297 -0.5408  0.3393  0.2207
    1W        W39498  23.140  14.429   7.107 -0.4510  0.1250  0.1158
    1W        W39499   3.624   7.777   8.208 -0.2914  0.1858  0.3977
    1W        W39500  18.610   6.256   0.730  0.1968  0.1269  0.1066
    1W        W39501  19.158  18.101   1.411  0.0229 -0.2292  0.1773
    1W        W39502  12.209   3.241   2.297  0.1701  0.0745  0.0404
    1W        W39503  28.096  12.381   0.302 -0.1548  0.1281  0.2766
    1W        W39504  27.855  14.477   7.504  0.2945 -0.2202 -0.0965
    1W        W39505   2.208   3.030   3.167 -0.2967 -0.0544  0.1377
    1W        W39506   5.284  12.922   1.554 -0.0554 -0.0943  0.1704
    1W        W39507  18.779  17.509   2.499  0.0162 -0.0880  0.1375
    1W        W39508   1.922  18.771   9.225  0.1846 -0.3163  0.0057
    1W        W39509   0.370   3.134   8.839  0.0557  0.3695  0.0656
    1W        W39510  26.960  10.532   2.504 -0.1725 -0.0412 -0.2297
    1W        W39511   8.715   6.710   6.949  0.1070  0.3748 -0.2935
    1W        W39512  27.802  16.073   0.768  0.2611  0.1511 -0.2139
    1W        W39513  11.147   7.978   1.359 -0.1604 -0.2909  0.1622
    1W        W39514  24.965  18.822   7.145  0.1296 -0.1816  0.1220
    1W        W39515  26.856  25.624   1.811  0.1255 -0.1793 -0.0997
    1W        W39516  24.733  24.565   0.011  0.1838 -0.0949  0.1027
    1W        W39517  17.241  28.564   9.366 -0.2442  0.0636 -0.1065
    1W        W39518  16.044   0.102   8.244 -0.0713  0.0026 -0.0383
    1W        W39519   7.421   7.113   1.770  0.1435  0.2063 -0.0046
    1W        W39520   3.694  24.245   8.077  0.2179 -0.1365 -0.4115
    1W        W39521  25.496  20.830   1.031  0.1624 -0.2415 -0.1485
    1W        W39522  16.491  12.017   8.153  0.0090  0.0431  0.3015
    1W        W39523  28.117   7.208   1.894 -0.1363  0.0060 -0.1690
    1W        W39524  19.539  16.777   8.249 -0.2399  0.1210  0.2854
    1W        W39525  26.906  12.947   0.614 -0.2295 -0.2021 -0.0387
    1W        W39526  11.870   8.837   2.936 -0.2474  0.2658  0.3091
    1W        W39527   9.671  27.159   8.951 -0.0981  0.0244  0.1410
    1W        W39528  14.519  24.800   8.616 -0.0860 -0.0852  0.1391
    1W        W39529  25.875  22.984   8.339 -0.0335 -0.1516  0.1557
    1W        W39530   9.067  23.276   6.876 -0.0524 -0.1283 -0.0403
    1W        W39531   5.192   9.472   1.832  0.0873 -0.0205  0.0592
    1W        W39532  23.708  20.362   1.439  0.0275 -0.0529  0.2195
    1W        W39533   0.206  27.974   2.659  0.0044  0.0641 -0.0512
    1W        W39534  12.525   4.315   8.118 -0.0229 -0.1263 -0.0063
    1W        W39535  10.709  12.811   1.995  0.1215  0.1187 -0.1344
    1W        W39536  14.461   0.558   1.045 -0.0437  0.1352  0.0087
    1W        W39537   9.342  14.706   1.694  0.1508 -0.1390 -0.1743
    1W        W39538  12.821  16.257   9.375  0.0781 -0.2937  0.3692
    1W        W39539   7.220  16.548   7.575  0.0369  0.1335  0.0380
    1W        W39540  17.698  12.958   1.943 -0.0238  0.5647  0.1933
    1W        W39541  18.673  24.350   2.492  0.1106 -0.1687  0.0924
    1W        W39542  12.913   3.657   3.057 -0.0846  0.1804  0.0746
    1W        W39543   2.433   8.412   1.138 -0.0847  0.0799  0.0450
    1W        W39544  17.577   1.216   7.354 -0.0928  0.0657 -0.0580
    1W        W39545  10.782   2.657   8.171 -0.0157 -0.2789  0.1031
    1W        W39546   1.018  21.210   9.652  0.1950  0.0404 -0.3172
    1W        W39547  11.478   4.670   9.825 -0.0851  0.2053 -0.1453
    1W        W39548   8.118  24.696   7.871  0.5369  0.4255  0.1165
    1W        W39549  15.221  18.874   9.842  0.3086  0.1215  0.1623
    1W        W39550   8.159  15.354   8.583 -0.0459  0.1236  0.0937
    1W        W39551  20.886  24.281   9.108  0.0458 -0.0657 -0.0035
    1W        W39552   1.727   7.053   9.811 -0.0303 -0.0845 -0.1789
    1W        W39553   3.637   4.472   2.748  0.0280 -0.0876  0.1164
    1W        W39554  24.056  18.685   0.816  0.1848  0.0025 -0.2281
    1W        W39555   0.324   6.555   1.085 -0.0542  0.1813 -0.2502
    1W        W39556  25.244  27.008   8.559 -0.0096 -0.0818  0.1492
    1W        W39557   9.989  27.187   2.863  0.2463  0.4902  0.0364
    1W        W39558  19.111   4.771   1.918 -0.2221  0.1012 -0.1052
    1W        W39559   1.046  10.691   2.114  0.2184  0.2703 -0.2075
    1W        W39560   8.218  19.187   9.789 -0.1500  0.0205 -0.2279
    1W        W39561   9.428   3.367   0.628  0.2268 -0.1342  0.1154
    1W        W39562   2.629  12.490   7.176 -0.0869 -0.0718  0.1482
    1W        W39563  12.025  19.031   0.322 -0.0500 -0.2708 -0.0621
    1W        W39564  20.987   7.261   2.918 -0.0041  0.0701 -0.0851
    1W        W39565  19.529   0.655   1.584 -0.0599  0.1229 -0.2242
    1W        W39566   4.981  15.907   1.565 -0.0698 -0.1119  0.0143
    1W        W39567  17.351  24.317   1.443 -0.0254  0.1919  0.3320
    1W        W39568  10.276  23.627   1.720  0.3559  0.2645  0.2617
    1W        W39569  18.113  27.007   2.571 -0.2882 -0.2513 -0.0269
    1W        W39570  20.917  10.259   2.805 -0.0074 -0.5825 -0.1526
    1W        W39571   5.616   7.558   0.358 -0.0427  0.1767  0.2614
    1W        W39572  22.493  20.439   6.541 -0.0110 -0.0520  0.0799
    1W        W39573  19.530  26.385   0.461  0.2724 -0.2209 -0.0831
    1W        W39574  16.694  12.702   0.039 -0.0598 -0.1880 -0.0518
    1W        W39575  12.359   5.005   3.945 -0.1234 -0.1171  0.3400
    1W        W39576  23.221  24.354   7.024  0.0005 -0.1021 -0.0793
    1W        W39577  10.863  27.097   0.697 -0.0512 -0.1693  0.0156
    1W        W39578  24.647   2.216   8.956  0.1048 -0.0427  0.1081
    1W        W39579  24.070   5.061   6.249 -0.3320 -0.0373  0.0123
    1W        W39580  13.799  19.078   0.100  0.2074  0.4087  0.1754
    1W        W39581   8.657   5.942   0.358 -0.0424 -0.3735 -0.0243
    1W        W39582  14.079  11.073   8.277 -0.1003 -0.0291 -0.0936
    1W        W39583   4.164   4.108   9.381  0.2063 -0.0224 -0.5184
    1W        W39584  19.103  28.575   1.261 -0.2509 -0.0594  0.2240
    1W        W39585   3.127  24.999   2.431 -0.0993  0.1106 -0.3353
    1W        W39586  27.486   4.348   9.411 -0.4165  0.0312 -0.1590
    1W        W39587  26.908  18.442   8.473  0.2419  0.0499 -0.0112
    1W        W39588   0.477  17.129   7.944 -0.2035  0.0745 -0.1446
    1W        W39589  22.779  14.651   7.511 -0.1665 -0.0575  0.1821
    1W        W39590  20.586  18.114   8.510  0.3626  0.2660 -0.0720
    1W        W39591   5.314   5.926   2.035  0.3166  0.1483  0.2889
    1W        W39592  16.855   5.673   2.799 -0.0362 -0.1288  0.0410
    1W        W39593   2.247   1.275   1.433 -0.6386  0.2237  0.2072
    1W        W39594  24.570  19.261   9.645  0.0755  0.0812  0.0366
    1W        W39595  28.425  24.217   9.137 -0.2878  0.0749 -0.0033
    1W        W39596  10.024  20.548   1.117 -0.0083  0.2160 -0.2575
    1W        W39597   8.883  11.291   8.454  0.0129 -0.0620  0.1153
    1W        W39598   3.482  14.875   7.111  0.0342  0.0589  0.1339
    1W        W39599  14.067   5.470   8.963  0.3992  0.2788 -0.2633
    1W        W39600   7.632  14.111   8.869 -0.0697 -0.0647  0.1523
    1W        W39601  16.207   3.676   7.072  0.2522 -0.2199 -0.2842
    1W        W39602  16.059   6.433   0.206 -0.0547  0.2719 -0.2116
    1W        W39603  20.426   6.781   8.531  0.1244 -0.1066 -0.0782
    1W        W39604   1.105  11.972   9.245  0.1230  0.0767  0.1968
    1W        W39605   3.559  10.542   8.069 -0.4074  0.0348 -0.0818
    1W        W39606  15.551  16.902   9.236  0.0078  0.0307  0.0360
    1W        W39607   0.266  22.275   2.165  0.1951  0.1425  0.1996
    1W        W39608   7.740   3.796   2.593  0.2061 -0.1346 -0.2383
    1W        W39609  18.039   3.092   1.565 -0.0790  0.1874  0.1667
    1W        W39610  15.810  25.155   3.083 -0.1734 -0.1081  0.1477
    1W        W39611  26.996  24.530   1.640 -0.3328 -0.1241  0.2932
    1W        W39612  23.287   4.006   0.873 -0.0187  0.2288 -0.0482
    1W        W39613  14.543  18.353   1.888  0.0917  0.0644  0.1904
    1W        W39614  12.630  11.616   9.495 -0.2576 -0.1593  0.1514
    1W        W39615  15.599  25.145   8.278 -0.1053 -0.1936  0.1837
    1W        W39616  12.934   9.968   9.099 -0.3848  0.1286  0.1206
    1W        W39617  23.564   9.545   9.469  0.1694 -0.1610  0.4409
    1W        W39618  11.673  18.302   0.779 -0.1996 -0.2463 -0.2552
    1W        W39619  19.694  24.194   1.748 -0.1162 -0.0526  0.2161
    1W        W39620   9.557  14.538   8.625 -0.1696  0.0283 -0.3870
    1W        W39621  28.282  18.036   2.625 -0.3164 -0.0554 -0.1762
    1W        W39622   5.231   6.255   7.489 -0.1782  0.2156  0.0736
    1W        W39623  14.547  24.849   2.871  0.0080  0.0488 -0.1094
    1W        W39624  28.059  15.179   8.034  0.0394 -0.0577 -0.0636
    1W        W39625  25.943   5.008   0.414  0.1432 -0.3160 -0.1683
    1W        W39626  21.837  21.441   8.327  0.1690  0.1255 -0.1915
    1W        W39627  18.515  14.031   1.198 -0.2066 -0.3754 -0.2125
    1W        W39628  10.983  19.425   1.132 -0.3705 -0.0441  0.0005
    1W        W39629   6.332   3.859   8.434 -0.0494  0.3421 -0.0665
    1W        W39630  19.259  24.983   2.446 -0.0610  0.2595 -0.0875
    1W        W39631   9.405   3.310   1.112 -0.0226  0.1543 -0.2491
    1W        W39632   0.007   0.021   2.886 -0.0762 -0.0139 -0.2123
    1W        W39633   2.349  14.123   1.405  0.0533  0.0857 -0.1914
    1W        W39634  13.522  21.822   1.594  0.1631 -0.1700 -0.0898
    1W        W39635  25.030  15.817   9.274  0.1030 -0.0396  0.0995
    1W        W39636  16.218  26.385   8.478 -0.1866 -0.0563 -0.1709
    1W        W39637   1.812  14.177   1.496  0.4129 -0.0681 -0.3326
    1W        W39638   7.038  10.185   0.596  0.0839  0.1870  0.2430
    1W        W39639  20.287  21.410   8.580 -0.0820 -0.1708 -0.1045
    1W        W39640  20.610   6.313   4.246  0.1675  0.1853 -0.0105
    1W        W39641  16.661  27.443   4.016 -0.4697 -0.2698 -0.0170
    1W        W39642  15.756  23.402   8.363 -0.0105  0.2287  0.2722
    1W        W39643  21.057  26.790   9.235  0.0577  0.0326 -0.0722
    1W        W39644  23.639   0.259   2.850 -0.0331 -0.3272 -0.0940
    1W        W39645  17.518   3.943   0.936 -0.0358  0.0560 -0.3755
    1W        W39646  24.870   0.932   2.821 -0.2998 -0.1874  0.1773
    1W        W39647  14.980  18.856   9.366 -0.2384  0.2652 -0.1883
    1W        W39648   2.501  15.429   8.931  0.1317 -0.0778  0.1325
    1W        W39649  22.978  23.529   0.118 -0.0322  0.3572  0.0040
    1W        W39650  19.469  14.299   9.199  0.1997  0.1739 -0.0045
    1W        W39651  19.468   2.011   7.344 -0.1428  0.2103 -0.4239
    1W        W39652   3.208   7.601   9.364  0.0678  0.1277  0.2369
    1W        W39653  28.636  20.436   1.663  0.1523  0.2275  0.1681
    1W        W39654   6.817  28.446   0.612  0.1518  0.2531  0.4091
    1W        W39655  19.957  10.755   2.665  0.1095 -0.1340 -0.0368
    1W        W39656   3.573  20.975   6.738  0.0513  0.1965  0.0746
    1W        W39657   3.474  16.474   0.928  0.1613  0.0603 -0.0912
    1W        W39658   5.917  10.586   7.040 -0.1146  0.1561 -0.2094
    1W        W39659  17.252  25.400   8.206  0.1466  0.0026  0.0605
    1W        W39660   0.765   4.420   0.683  0.0885  0.0858 -0.1947
    1W        W39661   5.528  11.140   8.048  0.0360  0.0222 -0.1445
    1W        W39662  27.161   4.784   1.091  0.4541  0.0546 -0.0918
    1W        W39663  11.578   9.912   2.423 -0.1302  0.0691 -0.2583
    1W        W39664   3.516   4.621   1.923  0.1826  0.0876 -0.0174
    1W        W39665  14.097  20.600   1.814 -0.1326 -0.0059  0.1411
    1W        W39666  24.599  22.367   2.958 -0.0287  0.1769 -0.0205
    1W        W39667  20.871  26.324   9.199  0.1167  0.0688  0.0498
    1W        W39668  22.842  25.330   2.738  0.2341  0.0772  0.2437
    1W        W39669   6.518   5.015   9.938 -0.0450  0.5906  0.0177
    1W        W39670   4.812   5.254   8.244 -0.3625  0.1014  0.2641
    1W        W39671   1.114  11.602   0.212  0.1268 -0.1298 -0.1447
    1W        W39672  10.549  22.856   6.758  0.1967  0.1111  0.0744
    1W        W39673  23.835   3.605   7.255  0.1310 -0.5442  0.0416
    1W        W39674  18.588   8.804   8.787  0.1159  0.1751  0.0060
    1W        W39675   4.626  18.051   0.683  0.1659 -0.2604 -0.1562
    1W        W39676   4.534  27.388   1.975  0.0387 -0.2612 -0.2735
    1W        W39677  15.660  10.630   9.931  0.0748 -0.1724 -0.0581
    1W        W39678   8.790   2.865   9.471  0.1880  0.0248  0.0510
    1W        W39679  16.568  12.042   0.844 -0.0808 -0.1201 -0.0198
    1W        W39680  12.160  11.721   9.040  0.0858  0.2684 -0.1397
    1W        W39681  24.269  19.332   0.068  0.4442  0.2747 -0.2969
    1W        W39682   3.512  25.863   0.918  0.0723  0.1854 -0.0857
    1W        W39683  24.359   5.378   5.929 -0.0571 -0.3309 -0.0127
    1W        W39684  25.487  14.537   5.603 -0.1785  0.0068 -0.0190
    1W        W39685   6.013  18.525   0.475 -0.0619 -0.1483  0.3844
    1W        W39686   1.031  17.681   1.155  0.0693 -0.3026  0.2443
    1W        W39687  24.804  12.335   1.207 -0.2727  0.1035  0.2288
    1W        W39688  10.831  19.798   1.748  0.1637  0.0754  0.1828
    1W        W39689  15.566   7.173   8.756  0.1300  0.2553  0.0648
    1W        W39690  20.766  24.836   3.180  0.1824 -0.0398 -0.1777
    1W        W39691  19.556   9.665   0.338 -0.0250  0.2752 -0.0610
    1W        W39692  27.518  18.979   0.613 -0.4480 -0.1128 -0.1509
    1W        W39693   2.273   5.123   8.197 -0.1515 -0.2007  0.3675
    1W        W39694   6.048  15.958   2.205  0.0894  0.1312 -0.0351
    1W        W39695  19.175   4.195   9.288 -0.0903  0.2234 -0.5369
    1W        W39696  10.033   3.275   7.833 -0.0066  0.0730 -0.1516
    1W        W39697   8.732  17.411   1.405 -0.0297  0.1566  0.0121
    1W        W39698  11.287  25.094   5.891 -0.0505 -0.2394  0.2888
    1W        W39699   8.266   0.188   9.111  0.0619 -0.0951  0.3802
    1W        W39700  14.873   6.274   1.787  0.2603  0.1255 -0.2122
    1W        W39701   8.414   2.090   8.252  0.0308  0.0708  0.1391
    1W        W39702   0.768  10.950   7.094  0.1619 -0.0168  0.3241
    1W        W39703   7.477  10.661   8.995 -0.1478  0.1338  0.2001
    1W        W39704  17.011  21.938   1.180 -0.2752  0.0847 -0.2175
    1W        W39705  24.440  15.419   7.387 -0.2236 -0.0756 -0.0894
    1W        W39706  24.456   2.064   1.289  0.0349  0.1150 -0.0647
    1W        W39707   4.900   4.135   6.671 -0.0385 -0.1316 -0.0348
    1W        W39708  25.285   3.192   8.611  0.0373 -0.2064  0.1083
    1W        W39709   1.273   3.969   7.453 -0.0488  0.1357 -0.0146
    1W        W39710  21.972   2.185   1.379  0.2504 -0.1302  0.2337
    1W        W39711   3.065   2.825   1.546  0.0543 -0.1562  0.1630
    1W        W39712  25.967  23.558   0.325 -0.0349 -0.2491  0.2387
    1W        W39713  12.754  15.942   9.722 -0.1703  0.0561  0.1102
    1W        W39714   2.634   9.127   0.852 -0.1096  0.1222  0.1088
    1W        W39715  10.083  20.945   6.962 -0.2363  0.1433 -0.1383
    1W        W39716  18.975  12.294   1.933 -0.3074 -0.0430 -0.0106
    1W        W39717   0.734  17.327   0.491 -0.1498  0.1494  0.2242
    1W        W39718  15.004   4.429   8.387 -0.4007  0.3324  0.2744
    1W        W39719  18.785  17.775   9.658  0.0021  0.1353  0.0720
    1W        W39720   5.617  22.618   1.871 -0.0085  0.1018 -0.1373
    1W        W39721   7.876  22.235   8.893  0.1724 -0.2936  0.1452
    1W        W39722   8.482  19.379   9.385  0.0547 -0.0017  0.0803
    1W        W39723   7.450   5.657   9.815  0.2527 -0.1149  0.1690
    1W        W39724  13.256  17.275   8.222  0.0757 -0.0098 -0.0488
    1W        W39725   6.725  24.317   8.267 -0.1712  0.1131 -0.0184
    1W        W39726   3.523   3.597   2.945  0.3884 -0.0707  0.1184
    1W        W39727   1.507  17.698   0.773  0.4081  0.1016  0.0003
    1W        W39728  21.742  23.146   1.964  0.1920 -0.0639 -0.0389
    1W        W39729  25.162   1.699   2.361 -0.0708 -0.0342 -0.3609
    1W        W39730  23.325   0.095   1.587 -0.3040 -0.4444 -0.0666
    1W        W39731  20.821   9.760   2.202  0.0259  0.1697 -0.1221
    1W        W39732  26.137  17.356   5.677  0.0666  0.1031 -0.0943
    1W        W39733  15.326   5.489   0.908 -0.1525  0.0710  0.2422
    1W        W39734  20.463   5.338   9.545 -0.0006  0.1496 -0.0118
    1W        W39735  23.242  15.550   2.221 -0.0691 -0.3671 -0.2526
    1W        W39736   1.279  15.986   2.577 -0.0950 -0.1196 -0.0067
    1W        W39737  15.801  22.719   2.049  0.0221 -0.4636  0.0293
    1W        W39738  12.227   8.677   2.030  0.0820  0.0547 -0.0573
    1W        W39739  22.618  21.241   1.709 -0.1169 -0.0508  0.1777
    1W        W39740   8.252  18.757   2.237  0.3490 -0.0343  0.1790
    1W        W39741  25.373  22.373   7.783  0.1788  0.2889  0.2098
    1W        W39742  18.569   6.839   1.689 -0.1720  0.2035  0.0913
    1W        W39743  27.688  16.742   7.482  0.0050 -0.0250  0.2478
    1W        W39744  19.165   3.184   0.874 -0.2768  0.0440  0.2117
    1W        W39745  21.216  28.281   7.632  0.0921 -0.0323 -0.1503
    1W        W39746  17.710   1.871   9.044  0.3587  0.0770 -0.0497
    1W        W39747  21.169   3.537   0.521  0.1893 -0.2615  0.0024
    1W        W39748  11.517  20.135   2.399 -0.3684  0.0462 -0.1148
    1W        W39749  20.969   4.008   8.181 -0.0041 -0.0405 -0.0321
    1W        W39750   2.758  27.334   6.217 -0.1169  0.1275  0.0597
    1W        W39751  19.948  12.205   3.179 -0.2025  0.1506 -0.0382
    1W        W39752  26.711   3.713   7.652  0.0322 -0.0531  0.3031
    1W        W39753   4.100  22.622   9.629  0.1282  0.0308  0.2192
    1W        W39754  14.679  23.336   2.629 -0.2756  0.0215  0.3980
    1W        W39755  23.413   8.503   0.036 -0.1673 -0.2994  0.0723
    1W        W39756  14.728  19.233   8.013 -0.0539  0.0313 -0.2025
    1W        W39757   1.380   7.140   0.985  0.1608  0.2682  0.1929
    1W        W39758  17.899  16.723   1.949 -0.4697  0.1770 -0.1541
    1W        W39759   8.798   8.553   8.146  0.1434 -0.0202  0.3433
    1W        W39760  10.272  24.243   0.667 -0.2400  0.1359 -0.6484
    1W        W39761  10.451  20.358   0.038 -0.0729 -0.1250 -0.1487
    1W        W39762  15.496   4.672   7.373 -0.5852  0.1383 -0.0455
    1W        W39763  13.836  23.894   0.044 -0.0488 -0.2871  0.1555
    1W        W39764  24.682   9.682   9.058  0.3551  0.0070 -0.5868
    1W        W39765   1.732   9.269   7.155  0.0911  0.0882  0.0589
    1W        W39766  18.772   6.248   3.080  0.1549  0.1116  0.1159
    1W        W39767  23.455   1.603   7.427 -0.0108  0.3601  0.0772
    1W        W39768   5.090  10.849   8.849  0.2654 -0.2764  0.0406
    1W        W39769  11.135   9.220   2.936 -0.2186  0.1582 -0.0315
    1W        W39770  27.813  23.001   9.751  0.0211 -0.0678 -0.1930
    1W        W39771  16.609   9.822   9.008  0.0918  0.4641  0.0888
    1W        W39772  21.372  21.511   9.287  0.2711  0.0053 -0.2443
    1W        W39773  25.505   9.851   1.067  0.1881 -0.0499  0.2384
    1W        W39774   2.151  14.721   7.194 -0.3816  0.1533  0.3431
    1W        W39775  19.717   6.818   0.220 -0.1398 -0.2161  0.0415
    1W        W39776   0.216   4.976   1.554 -0.2208 -0.2846  0.1438
    1W        W39777   3.162  26.444   1.049 -0.1416 -0.0046 -0.1762
    1W        W39778   0.105  27.968   1.535  0.4044 -0.1416  0.2430
    1W        W39779   9.186   9.242   7.790 -0.0873 -0.3091  0.1236
    1W        W39780  19.976   4.538   9.133  0.0116  0.2911 -0.2840
    1W        W39781  19.492   7.601   7.385  0.2553 -0.1418  0.0336
    1W        W39782   6.196  26.150   8.330  0.0852 -0.4524 -0.1812
    1W        W39783  14.242   5.785   9.507  0.1566  0.2951 -0.2954
    1W        W39784   0.780   0.036   3.079 -0.2600  0.0820  0.0285
    1W        W39785  23.979  15.827   9.517 -0.0794  0.0926 -0.0951
    1W        W39786  26.234   2.756   9.100 -0.2827  0.0730 -0.0601
    1W        W39787  27.965  13.252   1.310 -0.4159 -0.0263  0.2867
    1W        W39788  17.426  19.127   7.397  0.2083  0.3128  0.1190
    1W        W39789  12.565   2.521   1.513  0.2850  0.2368  0.1325
    1W        W39790  26.201  11.794   8.423  0.0626  0.1973  0.3869
    1W        W39791   9.743   2.879   8.124  0.1101 -0.1973 -0.0120
    1W        W39792  19.357   3.879   0.093 -0.2829 -0.1705  0.3584
    1W        W39793  12.496   0.658   0.953 -0.3424 -0.1830 -0.0008
    1W        W39794  15.799  28.439   7.277  0.0274  0.0202  0.4208
    1W        W39795   8.518  12.362   7.807  0.1438 -0.0025  0.0064
    1W        W39796  24.801  14.144   8.635 -0.1701 -0.4469  0.2796
    1W        W39797   2.874   0.577   2.243 -0.1299 -0.1141 -0.1564
    1W        W39798  10.721   7.174   9.617 -0.1727 -0.0275 -0.1587
    1W        W39799   0.494  22.401   3.111 -0.0160  0.1203  0.2735
    1W        W39800  13.276  12.253   9.766 -0.3923 -0.1771 -0.3629
    1W        W39801  12.404  19.356   2.026  0.0303 -0.3831 -0.0657
    1W        W39802   4.435   2.631   1.746  0.3647  0.2401 -0.0603
    1W        W39803  24.830   3.398   3.201  0.0573  0.1000 -0.1590
    1W        W39804  11.317  27.755   2.900  0.2593  0.0050  0.3292
    1W        W39805   5.392  11.820   2.034 -0.0485 -0.2040 -0.1639
    1W        W39806  25.720   9.974   7.674  0.1402 -0.0891  0.2603
    1W        W39807  16.984   3.352   7.650  0.3752  0.0745 -0.1455
    1W        W39808  26.785  24.102   1.836  0.0654  0.0133  0.0854
    1W        W39809  24.067  22.315   3.044  0.0608 -0.1313 -0.1803
    1W        W39810  24.033  15.357   5.618 -0.2785 -0.0271 -0.2438
    1W        W39811  21.038  18.790   9.446 -0.0113  0.0360  0.0003
    1W        W39812  15.210  24.968   1.893  0.1816 -0.1284  0.1204
    1W        W39813   4.725  21.957   9.421 -0.0794  0.0062 -0.3283
    1W        W39814  18.305   5.212   9.449  0.5201 -0.0691  0.0110
    1W        W39815  14.653   3.773   8.649  0.0756  0.0927  0.0543
    1W        W39816   9.123   1.701   0.607 -0.0270  0.1301 -0.2585
    1W        W39817  26.944  24.440   8.088  0.1753  0.2684  0.0199
    1W        W39818  12.981  12.583   9.512  0.1381 -0.3368 -0.1720
    1W        W39819  19.605  11.882   7.347  0.0172 -0.2663 -0.3648
    1W        W39820  25.049  20.888   9.056  0.1286  0.1574  0.2164
    1W        W39821  21.147  10.550   0.522 -0.1605 -0.1760 -0.0169
    1W        W39822  14.208   3.370   1.300  0.2580 -0.0169 -0.0995
    1W        W39823   8.114   2.224   0.373 -0.0176  0.0371  0.0343
    1W        W39824   4.373  14.299   0.104 -0.2827 -0.0244 -0.0338
    1W        W39825  11.160  28.366   9.712 -0.0862 -0.0650 -0.0648
    1W        W39826  23.140  16.897   0.555 -0.1062 -0.0074  0.0474
    1W        W39827  14.731  12.983   9.628  0.1116  0.3299 -0.0358
    1W        W39828  21.587   5.364   7.885 -0.2149 -0.0171 -0.3406
    1W        W39829   2.389   9.522   0.722 -0.2039 -0.0652  0.0813
    1W        W39830   2.947   2.368   7.205 -0.1462 -0.1056  0.0105
    1W        W39831  11.343  13.606   9.307 -0.0712 -0.0607  0.0135
    1W        W39832   6.036  21.028   6.564 -0.4109  0.3181 -0.2705
    1W        W39833  19.513   2.481   7.394  0.2584  0.1680 -0.1651
    1W        W39834   4.999  21.062   2.051  0.2371 -0.0400  0.1833
    1W        W39835   9.578  25.788   9.050  0.1081 -0.0313  0.0715
    1W        W39836   1.168   0.133   9.094  0.0766  0.0496  0.0639
    1W        W39837  15.079   8.061   9.454  0.2857  0.1235 -0.1800
    1W        W39838  17.744  21.150   8.092  0.2861 -0.0470 -0.2542
    1W        W39839  14.800   9.412   9.081  0.0289  0.0925  0.0234
    1W        W39840  25.805  26.344   2.845 -0.0698  0.2117  0.1445
    1W        W39841  13.526  10.052   1.430  0.2358 -0.1769  0.2337
    1W        W39842   9.471   7.132   2.711 -0.0574 -0.0521 -0.0154
    1W        W39843  23.203   9.543   8.835 -0.1467  0.2552 -0.3127
    1W        W39844  10.885  10.257   1.234 -0.0113 -0.1240  0.0103
    1W        W39845   8.512   9.537   3.102 -0.1550  0.1200  0.0890
    1W        W39846   9.169   8.113   1.136  0.1462  0.0997  0.2660
    1W        W39847   7.905  23.301   9.811  0.0127 -0.1059 -0.1410
    1W        W39848  16.777  16.178   9.645 -0.5869  0.4327 -0.1254
    1W        W39849  26.009  15.508   8.077 -0.1593  0.0066  0.0907
    1W        W39850  21.246   1.617   9.888 -0.0520  0.0267  0.1359
    1W        W39851  24.814  25.331   8.522  0.2094  0.0441  0.2237
    1W        W39852  19.491   5.464   1.814  0.1194 -0.1573 -0.0957
    1W        W39853  24.528  24.523   1.541  0.0746  0.0171 -0.1908
    1W        W39854  25.680  28.657   6.524 -0.0258 -0.1412  0.0848
    1W        W39855  24.133  25.715   6.784 -0.0267  0.4413 -0.2740
    1W        W39856   6.890   0.058   8.260 -0.2562 -0.0567  0.1046
    1W        W39857  25.812  19.505   7.081 -0.0159  0.1573  0.0983
    1W        W39858   9.757  10.420   0.139  0.2815 -0.2220  0.1303
    1W        W39859  27.962  25.474   0.953  0.2224  0.1747 -0.0111
    1W        W39860   6.692  24.683   5.893  0.3200 -0.1218 -0.0777
    1W        W39861  26.949   8.870   6.848 -0.0259  0.0687 -0.0959
    1W        W39862   8.827  16.223   8.656 -0.1743  0.0983 -0.0987
    1W        W39863   8.427   6.525   0.878  0.0156  0.1894  0.0564
    1W        W39864   9.419  24.912   7.412 -0.0661  0.1263 -0.2790
    1W        W39865  27.517   4.867   6.980 -0.1524 -0.1289  0.2348
    1W        W39866  12.984  24.402   0.684  0.2208 -0.0399  0.0241
    1W        W39867  15.224  18.144   3.390 -0.1315  0.0460 -0.3616
    1W        W39868  13.675   8.718   9.875  0.1289 -0.0201 -0.3146
    1W        W39869   5.895   3.761   0.387  0.0373 -0.1491 -0.2713
    1W        W39870  20.564  16.998   0.372 -0.0722  0.0232  0.2198
    1W        W39871   7.171   8.345   2.735  0.1236  0.0597  0.0774
    1W        W39872  27.367  12.737   0.503 -0.0973 -0.1187 -0.0397
    1W        W39873  28.305   4.720   7.709 -0.1278 -0.1792  0.2355
    1W        W39874  13.102   4.010   9.604  0.1625  0.3004  0.3144
    1W        W39875  13.436  15.919   0.410  0.3232  0.0974  0.1954
    1W        W39876  18.576  21.750   1.114 -0.1570  0.0269 -0.1055
    1W        W39877  24.558  13.661   9.067 -0.0304 -0.1059 -0.0871
    1W        W39878  10.517  26.321   0.401  0.1553  0.0161 -0.0718
    1W        W39879  22.781  24.343   2.059 -0.0345 -0.0266 -0.4526
    1W        W39880  11.600  10.801   9.135 -0.2367 -0.2958 -0.1019
    1W        W39881  19.941   1.234   2.199  0.0972  0.1355 -0.1101
    1W        W39882   7.918   4.841   8.511  0.0579  0.0521  0.4086
    1W        W39883   5.752  12.924   0.192  0.2015 -0.2639 -0.3109
    1W        W39884  13.485   2.991   1.180 -0.2441  0.0330  0.0267
    1W        W39885  24.365  18.788   9.719  0.1240 -0.2131  0.4801
    1W        W39886  14.780   0.125   9.774  0.1818 -0.4512 -0.0893
    1W        W39887  21.346  20.710   7.836 -0.2893 -0.0596 -0.3416
    1W        W39888  26.774   7.050   7.953  0.1220 -0.1580  0.0988
    1W        W39889  27.167   9.454   9.381 -0.2748  0.1277  0.0674
    1W        W39890  20.069  12.594   0.791 -0.2235  0.3988 -0.1830
    1W        W39891   8.709  11.499   6.990  0.1715 -0.2092 -0.0413
    1W        W39892  15.992  27.424   6.895  0.1574 -0.1019  0.2429
    1W        W39893  23.837  10.196   0.957 -0.3275  0.3707 -0.2300
    1W        W39894  27.372   3.426   9.348  0.2016  0.0715  0.1724
    1W        W39895  27.038  12.264   9.750 -0.0975  0.0540 -0.1583
    1W        W39896  21.930  13.001   2.248  0.1306 -0.0370 -0.0440
    1W        W39897  23.310  16.110   8.497  0.1845  0.3093 -0.0305
    1W        W39898  20.344  18.537   2.675 -0.1560  0.2919  0.1111
    1W        W39899  10.836  27.676   6.559 -0.2066 -0.2100 -0.0701
    1W        W39900   4.461  12.966   2.011 -0.0652 -0.1414 -0.1315
    1W        W39901  24.424  28.444   2.141 -0.1402  0.0134 -0.0584
    1W        W39902   6.868   5.035   0.368  0.1402  0.3292  0.4304
    1W        W39903  26.301  27.433   3.125 -0.1319 -0.1830 -0.3019
    1W        W39904  20.820   7.345   9.554 -0.0202 -0.1941  0.1685
    1W        W39905  15.046  10.007   1.796  0.1707  0.0632  0.0056
    1W        W39906  16.169  19.312   8.419  0.1494  0.2485  0.1270
    1W        W39907  22.610  21.602   2.382 -0.2135  0.0513  0.5717
    1W        W39908  13.076  18.163   9.086  0.2356 -0.2145 -0.3273
    1W        W39909  25.697  28.314   8.297  0.0589 -0.0012  0.0623
    1W        W39910  24.202  22.284   7.051 -0.0883  0.0576 -0.0912
    1W        W39911   0.467  23.624   2.330  0.2874 -0.1789 -0.2089
    1W        W39912  17.465  16.221   0.462 -0.1995 -0.0070 -0.2239
    1W        W39913   1.224  20.902   0.864  0.0572 -0.0721  0.0629
    1W        W39914  17.485  17.666   1.766  0.1365 -0.1781 -0.0295
    1W        W39915  16.027   8.852   2.719 -0.0856  0.1565  0.2120
    1W        W39916  20.127  23.437   6.558 -0.1066  0.0779  0.4562
    1W        W39917   3.626  13.572   9.845 -0.0242 -0.0824 -0.0812
    1W        W39918  23.302   9.823   1.609 -0.1863 -0.2212 -0.0803
    1W        W39919  24.551  28.374   1.232 -0.1633 -0.4277 -0.0688
    1W        W39920   3.648  18.082   6.038 -0.3987  0.1860 -0.1661
    1W        W39921   2.473  20.672   0.111  0.2366  0.1097  0.0048
    1W        W39922  10.623   5.840   8.120  0.0406  0.1707  0.0031
    1W        W39923  23.783  25.522   7.729 -0.0290 -0.2978  0.2313
    1W        W39924  20.956   9.597   9.315  0.0534 -0.1344  0.1489
    1W        W39925   7.300  15.977   0.421  0.1215  0.0030 -0.1024
    1W        W39926  17.182  20.929   2.649 -0.0430 -0.2376 -0.2780
    1W        W39927  11.229  11.882   2.337  0.0335  0.1649 -0.1212
    1W        W39928  27.262   1.784   7.820  0.0624 -0.1742  0.0587
    1W        W39929   1.886   4.389   7.419 -0.3033 -0.0808 -0.2077
    1W        W39930  20.482  24.383   8.724 -0.0307 -0.1489  0.1615
    1W        W39931  25.178  16.394   0.637 -0.0457 -0.1037 -0.2434
    1W        W39932   8.415   4.633   1.798 -0.0571 -0.1442 -0.0060
    1W        W39933  20.688  20.179   1.341 -0.1381  0.0599 -0.0787
    1W        W39934  26.052  12.086   8.067  0.1740 -0.0239 -0.2743
    1W        W39935  17.668  27.157   9.329  0.2686 -0.1148  0.3804
    1W        W39936   4.869   5.024   0.065  0.0090  0.1466 -0.0127
    1W        W39937   0.627   7.376   8.846 -0.1010 -0.1539 -0.1601
    1W        W39938  13.457   7.090   1.292  0.0435  0.2274  0.0075
    1W        W39939  24.242   7.732   9.745  0.2231  0.1149 -0.3542
    1W        W39940   3.975  19.475   7.042  0.1191  0.3146 -0.1197
    1W        W39941   9.089  19.970   6.480 -0.0146 -0.0436 -0.1728
    1W        W39942  23.364  18.981   2.606 -0.1478  0.1708  0.2838
    1W        W39943   8.464   5.398   9.460 -0.2965  0.2404 -0.0903
    1W        W39944  16.029  23.512   0.181 -0.4758  0.0493 -0.0342
    1W        W39945  22.517   4.148   1.957 -0.1914 -0.0550 -0.3031
    1W        W39946   5.141   7.980   9.151  0.2493  0.0379  0.2873
    1W        W39947   1.740  26.630   8.162  0.2408  0.2710  0.1446
    1W        W39948  23.255  16.950   9.717  0.2151 -0.0310 -0.1333
    1W        W39949  23.363   6.106   7.618 -0.0518 -0.0993 -0.2452
    1W        W39950  20.558  22.431   1.751 -0.1014  0.2098  0.2048
    1W        W39951   7.026  24.400   6.331  0.1972 -0.0961  0.0541
    1W        W39952  18.179   9.810   9.688  0.1796 -0.0332  0.0440
    1W        W39953  26.985  24.536   1.075 -0.0153  0.2136  0.3478
    1W        W39954  24.002   4.323   8.034  0.1426 -0.0350 -0.1268
    1W        W39955  14.214   2.100   0.777 -0.2471  0.2791 -0.3537
    1W        W39956  27.488  15.224   9.902  0.0688 -0.1093 -0.0368
    1W        W39957   1.150   4.050   2.051  0.0496 -0.0332  0.0992
    1W        W39958   2.677   4.466   2.386 -0.1695 -0.3411 -0.2375
    1W        W39959  21.161   4.375   9.448 -0.1869 -0.0389  0.0630
    1W        W39960  24.687  19.194   2.440 -0.1022 -0.0120  0.0408
    1W        W39961  15.178  26.748   6.866  0.1137  0.1675  0.1939
    1W        W39962   6.438  23.816   8.089  0.0156  0.3757 -0.0492
    1W        W39963  18.784   6.693   0.432 -0.1781  0.3769  0.1428
    1W        W39964  22.986   6.120   1.372  0.0844 -0.2829  0.2080
    1W        W39965  23.393   5.005   1.272  0.0184  0.0933  0.1252
    1W        W39966  15.479  23.103   2.036 -0.0541 -0.0954 -0.2741
    1W        W39967  24.176   8.835   7.920 -0.2309 -0.1183  0.0310
    1W        W39968  23.436  21.050   7.472  0.0508 -0.1776  0.1533
    1W        W39969   0.276  20.437   9.821 -0.1435  0.0034  0.1195
    1W        W39970  26.826   8.180   0.681 -0.0983  0.0864  0.0063
    1W        W39971  25.528  20.267   9.389 -0.1265  0.2399 -0.2073
    1W        W39972   0.939   3.494   2.586  0.1098 -0.0092 -0.2703
    1W        W39973  10.381   2.299   7.345  0.0283  0.1191 -0.0682
    1W        W39974  21.109   2.682   7.015  0.2200 -0.5425 -0.1797
    1W        W39975   7.763   0.345   2.851  0.1776  0.2266 -0.0556
    1W        W39976  10.579  28.313   2.579  0.3635  0.1770 -0.1607
    1W        W39977  20.474   6.842   1.870  0.0067  0.1603  0.0641
    1W        W39978  12.566  23.909   7.704 -0.3464  0.3077  0.1633
    1W        W39979  12.761   6.174   8.356  0.1996 -0.2271 -0.4878
    1W        W39980   7.600   6.274   1.390  0.3545 -0.1904  0.3298
    1W        W39981  23.215  27.449   2.133 -0.1002  0.6409  0.1913
    1W        W39982   3.790  21.377   1.951 -0.0586 -0.3799  0.2371
    1W        W39983  24.838  13.632   2.044 -0.2394  0.1426 -0.0571
    1W        W39984  24.174   0.128   3.255 -0.0080 -0.1707 -0.1439
    1W        W39985   0.746   4.542   1.487  0.0845 -0.1128 -0.0306
    1W        W39986  26.384   6.030   0.726 -0.0572 -0.1684  0.1826
    1W        W39987  25.480   5.046   2.908  0.1137  0.0432 -0.3080
    1W        W39988  23.146  28.629   7.456 -0.0764 -0.4874  0.3847
    1W        W39989  20.656   3.993   9.592  0.1574 -0.1328  0.3579
    1W        W39990  24.456  21.538   0.193  0.1361 -0.4439  0.1704
    1W        W39991   5.491   3.385   0.546 -0.0212  0.0159  0.1098
    1W        W39992  20.324   5.925   0.806  0.0794 -0.0462  0.0876
    1W        W39993  24.395  27.732   0.471  0.3109 -0.0968  0.0359
    1W        W39994  22.397  26.306   9.517  0.0687 -0.0069 -0.1409
    1W        W39995  27.412   0.939   8.561 -0.4457  0.0810 -0.0590
    1W        W39996  16.764  27.898   0.107 -0.0327  0.0093  0.0285
    1W        W39997  21.670  21.121   7.876 -0.0899  0.3091 -0.1376
    1W        W39998  26.622  13.214   7.142 -0.1526 -0.0124 -0.1861
    1W        W39999  17.616   1.758   0.581  0.2253 -0.1361  0.0946
    1W        W40000  25.073   5.952   8.675  0.1493 -0.1457 -0.0231
    1W        W40001  18.192   1.471   0.785  0.1005 -0.1395 -0.2334
    1W        W40002  25.217  13.336   0.039  0.2194 -0.1202  0.3227
    1W        W40003  14.095   4.532   9.931  0.0896 -0.2586 -0.3938
    1W        W40004  19.414  23.182   0.287 -0.0536 -0.0360 -0.4429
    1W        W40005   9.828   8.359   9.596 -0.1560  0.1937  0.3264
    1W        W40006   4.395  16.335   7.035 -0.0962 -0.0635 -0.0781
    1W        W40007  21.201   8.425   8.103  0.1462 -0.1228  0.1653
    1W        W40008  20.335  18.043   9.512  0.0432 -0.0793  0.3595
    1W        W40009   3.552  10.842   5.962  0.0334  0.0342  0.1677
    1W        W40010  10.027  13.712   2.007 -0.0756 -0.0418  0.4085
    1W        W40011   6.004   6.591   1.634  0.0456 -0.0319 -0.0140
    1W        W40012  15.542  20.854   9.812  0.2361 -0.2464 -0.2088
    1W        W40013   8.257   3.384   2.627  0.3498  0.0505 -0.0561
    1W        W40014  18.519  22.079   2.571  0.0115  0.0504  0.2902
    1W        W40015  27.048  20.260   7.481 -0.0025  0.1179 -0.0095
    1W        W40016   2.529   1.063   2.974 -0.1352  0.0373  0.0206
    1W        W40017   1.628  13.872   1.170  0.3176  0.3208 -0.2792
    1W        W40018  18.956  17.959   2.401 -0.1163  0.2666  0.4224
    1W        W40019  18.314  19.031   1.355  0.3702  0.0525 -0.0725
    1W        W40020  24.952  18.489   6.156 -0.2170 -0.1635  0.1247
    1W        W40021  13.066  14.323   1.436 -0.0142 -0.3243  0.0493
    1W        W40022  11.966  16.699   1.854 -0.2959  0.0928  0.0164
    1W        W40023  21.170   3.523   9.939 -0.2323 -0.3630  0.0253
    1W        W40024  21.584   0.566   7.126  0.0110 -0.3079 -0.3039
    1W        W40025  24.293  27.755   9.036 -0.1328  0.1401 -0.1532
    1W        W40026  16.697   9.091   1.935 -0.0406  0.1718  0.0016
    1W        W40027  25.649   9.460   2.371  0.0421 -0.2412  0.0144
    1W        W40028  12.193  21.861   0.036 -0.0747  0.1416 -0.2022
    1W        W40029  23.429  15.804   7.998 -0.0110 -0.3147 -0.0229
    1W        W40030  20.129  15.068   6.943 -0.1457  0.3344 -0.0083
    1W        W40031   0.630  21.692   0.658 -0.0097  0.2305  0.2876
    1W        W40032  24.113   8.896   8.514 -0.1614  0.1322 -0.1128
    1W        W40033   8.835   8.077   9.566  0.1951  0.2637 -0.3411
    1W        W40034  22.655  17.513   1.976  0.1731 -0.0834 -0.0547
    1W        W40035   6.156  19.542   9.556  0.1031 -0.0571  0.2749
    1W        W40036  18.510   9.190   7.380 -0.0755  0.1034 -0.2230
    1W        W40037  10.964  14.998   0.711  0.2741  0.2343 -0.0380
    1W        W40038  24.487   9.469   0.791 -0.0023 -0.1416  0.0050
    1W        W40039   9.904  16.842   8.147  0.0880  0.2849  0.0458
    1W        W40040   5.717  13.039   0.786 -0.1606 -0.2365  0.0406
    1W        W40041  15.333  25.838   2.045 -0.3290  0.4009 -0.1649
    1W        W40042   7.407  17.299   0.376  0.0137  0.0367  0.1427
    1W        W40043   3.989   8.571   0.465 -0.0082 -0.2807 -0.2149
    1W        W40044  16.054  11.517   1.815 -0.1225 -0.2650 -0.1673
    1W        W40045  23.015   3.870   1.321 -0.2554  0.1042 -0.0467
    1W        W40046  16.225  22.735   2.260  0.1871  0.0543  0.1419
    1W        W40047  26.318  25.516   1.958  0.1729 -0.4029  0.1369
    1W        W40048  19.253  26.260   0.075 -0.1079 -0.1830  0.0512
    1W        W40049  18.341  17.413   7.949 -0.0131  0.0074  0.0133
    1W        W40050  26.937   9.376   0.170  0.2459 -0.0613  0.0048
    1W        W40051   7.826   3.946   9.191  0.3512  0.2942 -0.2770
    1W        W40052  23.908   8.386   5.993  0.2508  0.1412  0.1339
    1W        W40053  18.563  17.932   8.048 -0.0927  0.0074  0.2353
    1W        W40054  14.283   0.110   8.090 -0.1052  0.2147  0.3496
    1W        W40055  23.415   2.612   8.712 -0.0312 -0.1850 -0.0558
    1W        W40056  13.891  10.409   3.291 -0.0933 -0.2574  0.3541
    1W        W40057  19.805   6.391   8.202  0.1736  0.3215 -0.0363
    1W        W40058  13.658  16.434   0.062  0.2379 -0.0803 -0.0789
    1W        W40059   4.813  15.212   0.064  0.0731 -0.1043  0.1734
    1W        W40060  12.694  20.758   0.353  0.1032 -0.1625  0.0152
    1W        W40061   0.296  25.674   2.516 -0.0130  0.0761  0.0121
    1W        W40062   8.782   1.315   2.875  0.1242  0.2251  0.2944
    1W        W40063   7.095  19.071   1.128  0.0146 -0.0330 -0.0192
    1W        W40064  20.091  28.381   9.435  0.0091  0.2914 -0.2141
    1W        W40065  20.192  11.072   1.388 -0.2591 -0.0424 -0.0250
    1W        W40066  17.398  13.092   1.570  0.3555  0.4309  0.1422
    1W        W40067   5.425   0.881   3.041  0.0712 -0.1774 -0.1925
    1W        W40068  22.652   3.754   1.674 -0.0500  0.0745  0.2023
    1W        W40069  14.918  18.518   8.743 -0.2149 -0.3123  0.0133
    1W        W40070   2.737   6.303   8.198  0.1879 -0.1398 -0.0053
    1W        W40071  28.648  24.293   2.478 -0.0769  0.1766 -0.2422
    1W        W40072   8.304  25.459   8.335 -0.0395 -0.0761 -0.1737
    1W        W40073   2.006  18.019   5.552  0.1720  0.0260  0.4133
    1W        W40074  22.935  23.516   7.363  0.1846 -0.0343  0.0687
    1W        W40075  10.589   0.444   8.620 -0.1444  0.1067 -0.0205
    1W        W40076   6.165  18.234   7.012 -0.0637 -0.0198 -0.0108
    1W        W40077   4.613  18.668   8.476 -0.3175  0.0420 -0.0205
    1W        W40078  26.018   9.130   0.233 -0.0958  0.1898 -0.0080
    1W        W40079   2.042   9.748   1.148  0.2710  0.0863 -0.1692
    1W        W40080  22.434  24.142   8.304  0.1085 -0.0753 -0.2440
    1W        W40081  18.777  18.068   7.551 -0.1052 -0.2700  0.3973
    1W        W40082  12.712   5.316   7.320  0.0468  0.3472  0.0646
    1W        W40083   0.935   7.368   2.515 -0.0412  0.1749  0.0743
    1W        W40084  23.589  18.384   7.111  0.3175 -0.0061 -0.0273
    1W        W40085  28.054  11.465   9.849 -0.3900  0.1010  0.0114
    1W        W40086  11.931  21.215   2.535 -0.1080 -0.1411  0.0543
    1W        W40087   7.070   8.492   9.785  0.1744 -0.3924 -0.2111
    1W        W40088  25.596  26.107   1.848 -0.4404  0.0137 -0.3194
    1W        W40089  20.484  23.611   1.933  0.0932  0.1984 -0.0240
    1W        W40090   1.854   9.027   2.124  0.2981 -0.0258  0.0717
    1W        W40091   7.376  27.786   8.811 -0.2644 -0.0149 -0.1088
    1W        W40092   5.485  26.342   6.875  0.2088  0.2199 -0.1563
    1W        W40093   3.748   9.388   1.348 -0.1722  0.4140  0.0825
    1W        W40094  25.845  25.291   6.856 -0.0462 -0.0172  0.1101
    1W        W40095   5.451   1.512   6.331  0.0684  0.0088 -0.0101
    1W        W40096  17.764   9.321   0.877 -0.0328 -0.1177 -0.0510
    1W        W40097   4.368  13.555   2.254 -0.1331  0.1485 -0.0226
    1W        W40098  15.262  28.055   7.083 -0.1212  0.1595 -0.0908
    1W        W40099   6.903   7.745   0.443 -0.2581  0.0214 -0.0506
    1W        W40100  13.947  22.071   9.535 -0.1745 -0.2026  0.0033
    1W        W40101  20.935  16.750   0.671  0.2234 -0.0642 -0.0668
    1W        W40102  22.439   3.680   7.119 -0.1232 -0.0710 -0.2344
    1W        W40103  14.944  10.300   8.689 -0.1028  0.0840 -0.0222
    1W        W40104  15.187  27.162   8.453  0.1049 -0.2304  0.1972
    1W        W40105  21.516  17.399   9.129 -0.0487 -0.3467  0.0112
    1W        W40106   1.677  16.609   2.045  0.1780  0.1220  0.2113
    1W        W40107   9.402   9.906   1.682  0.2452 -0.0608 -0.2360
    1W        W40108  12.713   6.861   9.096  0.3392  0.0385  0.0461
    1W        W40109  23.102  25.884   8.957  0.1131  0.1026 -0.0759
    1W        W40110   0.811  10.389   0.857 -0.2797  0.4460 -0.1924
    1W        W40111  26.998  10.332   7.201  0.0792  0.2015  0.0390
    1W        W40112  28.271  19.066   8.613  0.1916  0.0172  0.0052
    1W        W40113  15.969   6.249   3.440  0.0194 -0.2840 -0.0247
    1W        W40114   6.942   4.163   9.621  0.0525  0.5637  0.0972
    1W        W40115  12.416  16.875   9.724 -0.0618  0.1128  0.0013
    1W        W40116  26.414  16.017   7.662  0.0104  0.2542 -0.0549
    1W        W40117   8.187  21.596   3.005  0.0733 -0.4382 -0.4582
    1W        W40118  27.879  19.991   8.085  0.0739  0.2194  0.1300
    1W        W40119  25.489   4.377   1.641 -0.4213 -0.0177 -0.0569
    1W        W40120  18.047  28.158   8.881 -0.3006  0.2602 -0.1779
    1W        W40121  10.692   3.108   2.221 -0.0737  0.2452 -0.2045
    1W        W40122   8.113  19.246   1.849  0.2964  0.0603 -0.0836
    1W        W40123  10.087  16.390   2.032 -0.0747  0.2737  0.2034
    1W        W40124   3.479  25.695   1.776 -0.0026  0.2755  0.0528
    1W        W40125  13.688  21.454   0.861 -0.1069  0.0457 -0.0477
    1W        W40126  24.940  10.080   7.059 -0.0210  0.0441 -0.1877
    1W        W40127   9.532   7.684   2.774 -0.2519  0.0187  0.2277
    1W        W40128  19.190  16.930   0.984  0.3100 -0.1266  0.1599
    1W        W40129  26.122  20.812   7.165  0.2825  0.2019 -0.2801
    1W        W40130  21.098  26.958   6.975 -0.0301 -0.0607 -0.0217
    1W        W40131  15.794  20.316   9.836  0.0854  0.0929 -0.2701
    1W        W40132   5.367  18.119   6.790 -0.0184  0.0351  0.1135
    1W        W40133  25.919  24.575   0.271  0.0328 -0.0855  0.0533
    1W        W40134  26.239   4.394   9.558  0.3345 -0.1194 -0.0424
    1W        W40135   1.809  22.374   6.744 -0.2653  0.3836  0.1399
    1W        W40136   1.133   7.027   7.401  0.3496 -0.1433  0.2627
    1W        W40137  22.121  11.661   0.208  0.0222  0.2178  0.2034
    1W        W40138   2.215   9.920   7.523  0.1769  0.1297 -0.1599
    1W        W40139  20.911  11.679   2.702 -0.3163  0.1821  0.0500
    1W        W40140  23.293  14.014   8.242  0.1242  0.0821  0.0641
    1W        W40141   7.408  18.023   8.381 -0.1271 -0.1131  0.5497
    1W        W40142  28.064   0.805   0.161 -0.0867 -0.0471 -0.1403
    1W        W40143  16.416  24.017   8.583  0.1898 -0.0917 -0.3826
    1W        W40144  20.270  11.461   7.370  0.1974  0.0071 -0.0813
    1W        W40145  26.932   1.499   7.557 -0.3252  0.0200  0.0733
    1W        W40146   3.491  17.118   6.490 -0.3352  0.1507 -0.2461
    1W        W40147  12.601   9.335   2.625  0.2204 -0.1344 -0.0599
    1W        W40148  10.943   6.083   9.579  0.2041  0.1489  0.1123
    1W        W40149   5.012  11.805   9.615  0.1959 -0.2575  0.0246
    1W        W40150  14.188   4.012   9.755 -0.0735 -0.2472 -0.1602
    1W        W40151  15.936  13.055   7.969 -0.1881  0.1307 -0.2608
    1W        W40152  12.113   2.024   7.960 -0.2567  0.0006  0.0503
    1W        W40153  21.725  20.691   8.245  0.2311 -0.3264  0.0813
    1W        W40154   2.695  18.639   2.769  0.0844 -0.2682 -0.3347
    1W        W40155  25.589   0.838   8.968  0.1205 -0.0035  0.2730
    1W        W40156  21.027  22.368   9.910  0.1101  0.0720 -0.1201
    1W        W40157  17.938   7.888   1.610 -0.0749 -0.1046 -0.2742
    1W        W40158  17.526   5.170   1.519 -0.0327  0.2861  0.2671
    1W        W40159   4.494  13.628   1.308  0.1036  0.1898  0.3387
    1W        W40160   9.249  23.328   9.291  0.0641  0.0619 -0.0875
    1W        W40161   0.295  14.387   2.762  0.2857 -0.0257  0.2071
    1W        W40162   4.875  11.737   7.042 -0.0260  0.1159  0.2215
    1W        W40163  16.893  11.785   7.968  0.1728 -0.2017  0.1520
    1W        W40164  27.395   8.736   6.613  0.0270  0.0460  0.0714
    1W        W40165  12.705   9.174   8.872 -0.1264  0.2066  0.1941
    1W        W40166  20.060  19.354   8.686 -0.0081  0.2347  0.2498
    1W        W40167   1.910  20.425   0.469  0.0418 -0.0474  0.3461
    1W        W40168  21.119   2.058   0.756 -0.1101  0.0745 -0.1132
    1W        W40169  26.379   2.782   9.652 -0.0321  0.0663 -0.2417
    1W        W40170  25.835   5.507   0.186  0.0050 -0.0650 -0.0131
    1W        W40171  27.139  22.865   8.488 -0.1265  0.0321 -0.2126
    1W        W40172   4.639  15.117   1.766 -0.1351 -0.1445 -0.2075
    1W        W40173  21.793  21.880   1.398  0.0318 -0.0817  0.0419
    1W        W40174   2.303  27.919   6.759 -0.1785 -0.2614 -0.1462
    1W        W40175   4.459  21.378   2.852 -0.2274 -0.0231  0.2538
    1W        W40176  24.384   1.805   7.362  0.0766 -0.1920  0.1474
    1W        W40177   1.729   8.703   0.823  0.0264 -0.1388 -0.2228
    1W        W40178   1.655   9.417   1.356  0.2353  0.2675 -0.0759
    1W        W40179  27.621  23.951   2.062  0.0043  0.1633  0.1044
    1W        W40180  20.875   2.828   8.686  0.0613  0.2144  0.1776
    1W        W40181  25.052   9.883   1.398  0.1833 -0.0243 -0.4269
    1W        W40182  18.042  10.327   8.583 -0.0399 -0.0426  0.0047
    1W        W40183   6.630   9.458   0.271  0.3407 -0.2151  0.0516
    1W        W40184   6.796  10.933   2.821  0.3294 -0.0188  0.2005
    1W        W40185   6.432  12.505   8.693  0.0417  0.1220 -0.0090
    1W        W40186  13.951  25.689   2.280  0.0958  0.0859  0.0448
    1W        W40187  27.983  19.927   1.932  0.0332 -0.0459  0.1296
    1W        W40188  23.022  26.036   0.133 -0.0075  0.1676  0.1055
    1W        W40189   9.157   7.880   9.196  0.5338 -0.1266 -0.0640
    1W        W40190  27.915  27.586   9.444 -0.1308  0.1504  0.1117
    1W        W40191   5.978  24.448   6.539 -0.0969  0.1055  0.3779
    1W        W40192   5.232  11.499   1.109  0.1812 -0.1848 -0.1017
    1W        W40193  12.182  17.740   1.108 -0.4421 -0.0792  0.1163
    1W        W40194  14.802  12.741   2.091 -0.0749 -0.2070  0.0956
    1W        W40195  19.476   6.142   2.471 -0.0451  0.0649  0.2002
    1W        W40196  22.677  10.262   1.943  0.2853  0.0608 -0.0127
    1W        W40197  28.040  17.701   7.392  0.4512  0.3581 -0.1442
    1W        W40198   8.175  11.443   1.781  0.0935 -0.0864 -0.1112
    1W        W40199  26.290  28.601   0.983  0.0612  0.1716 -0.1955
    1W        W40200   6.900  11.791   2.614 -0.2032  0.2003 -0.0736
    1W        W40201   0.985  14.686   7.120  0.0332  0.0961 -0.3934
    1W        W40202  14.585  26.298   8.848 -0.1190 -0.1151  0.2603
    1W        W40203   5.410   0.442   8.135 -0.1509 -0.1551  0.0463
    1W        W40204  15.244  15.594   9.437  0.0926  0.0954  0.1368
    1W        W40205   0.744  11.250   8.815  0.3089 -0.0228 -0.0036
    1W        W40206   9.558  23.836   7.850  0.2408  0.0486 -0.3368
    1W        W40207  11.203   9.381   3.523  0.2883 -0.1257 -0.2284
    1W        W40208   9.284  17.687   8.555 -0.0597  0.3909 -0.1161
    1W        W40209   4.388  26.410   3.312 -0.0236 -0.2130 -0.2412
    1W        W40210  15.892  19.307   1.773  0.2542  0.1497 -0.1624
    1W        W40211  10.873   0.400   9.111  0.0292  0.1443 -0.1078
    1W        W40212  26.143  23.777   2.617 -0.1128 -0.3250  0.0834
    1W        W40213  25.246   5.707   0.198 -0.1506 -0.1307  0.3382
    1W        W40214   6.621  27.834   8.099  0.0182 -0.0481 -0.4948
    1W        W40215  11.984   0.428   3.443  0.1032  0.1241  0.3189
    1W        W40216   1.254  27.460   8.275 -0.4035  0.0012  0.2937
    1W        W40217  13.883  25.656   8.541  0.1976  0.1094 -0.2044
    1W        W40218  14.758  20.818   1.369  0.1871 -0.0644  0.1606
    1W        W40219  13.545  13.200   2.264 -0.4156  0.1498  0.0441
    1W        W40220  25.801  24.517   7.117 -0.0006 -0.2582  0.0421
    1W        W40221   1.363  26.222   7.465 -0.0717 -0.0670  0.4051
    1W        W40222  16.295  19.701   2.484 -0.1869  0.2170 -0.1469
    1W        W40223   8.522  17.220   8.435  0.0946  0.0125  0.2928
    1W        W40224   5.509  14.935   7.707 -0.0920  0.0593 -0.0512
    1W        W40225  25.009  13.800   0.127  0.1010 -0.1513  0.0549
    1W        W40226   7.977   4.385   9.350  0.0818 -0.1818  0.0952
    1W        W40227   6.346  27.718   1.133  0.0072 -0.1333  0.0410
    1W        W40228   8.753  22.781   6.927 -0.5259 -0.2319  0.2235
    1W        W40229  26.493  22.227   7.950  0.3325 -0.0585  0.0145
    1W        W40230  20.014  20.997   2.841  0.1754 -0.0099 -0.1054
    1W        W40231  23.560  19.653   0.119  0.0338 -0.4599  0.0266
    1W        W40232  15.987   9.715   3.193  0.2616  0.0801 -0.0052
    1W        W40233  15.767  26.825   3.341  0.1159  0.1452 -0.1195
    1W        W40234   3.432  11.860   8.883 -0.1384 -0.0595  0.2769
    1W        W40235   6.610   4.678   1.675  0.2091 -0.3176  0.1325
    1W        W40236   1.528   3.163   3.258  0.0051  0.0020  0.0888
    1W        W40237  14.822   0.208   8.046 -0.1396 -0.0456 -0.6478
    1W        W40238  13.995  21.071   1.083  0.0615 -0.0637  0.0560
    1W        W40239   8.243   9.897   7.853 -0.1427 -0.3954  0.0458
    1W        W40240  10.648   9.322   3.063 -0.0589 -0.0921 -0.1951
    1W        W40241  28.296  25.149   1.848  0.1853 -0.1516 -0.0262
    1W        W40242  17.933  26.063   8.123  0.0718  0.0797  0.1194
    1W        W40243   7.373  23.257   8.844 -0.2061 -0.1416 -0.1249
    1W        W40244   7.696  15.075   2.017 -0.0880  0.0131  0.1342
    1W        W40245  11.484   3.404   7.279  0.2128 -0.1780 -0.0977
    1W        W40246   6.096  15.911   6.902  0.1515 -0.0205  0.0710
    1W        W40247   6.639  24.819   8.181  0.0906  0.0143 -0.0638
    1W        W40248  17.914   9.019   1.679 -0.0551 -0.1726 -0.0434
    1W        W40249  21.877  28.665   2.447  0.0044 -0.2537  0.0574
    1W        W40250  13.037  23.985   1.826 -0.1153 -0.1520  0.1109
    1W        W40251  20.904   5.816   1.486  0.0752  0.1818  0.3379
    1W        W40252  12.823  18.138   7.593  0.2562 -0.2673  0.0734
    1W        W40253   6.251   3.118   0.004 -0.0302  0.0720  0.1323
    1W        W40254   8.229  23.695   1.909 -0.1754  0.0521 -0.1220
    1W        W40255  26.508  21.331   2.627 -0.1392  0.0633  0.2523
    1W        W40256  19.805   9.468   2.873 -0.2229 -0.1426 -0.1225
    1W        W40257  13.032   9.098   2.200 -0.1428  0.2949  0.0472
    1W        W40258  22.226   6.947   2.760 -0.3715  0.3539 -0.2392
    1W        W40259   2.482   3.740   0.843  0.0144  0.0914  0.2577
    1W        W40260   9.538  14.038   2.782 -0.0910  0.2702 -0.0001
    1W        W40261   8.176   6.445   9.616 -0.3308  0.2609  0.2767
    1W        W40262  26.254   7.255   2.480  0.0919 -0.1079 -0.4303
    1W        W40263  22.465  20.388   7.847 -0.0857  0.1649 -0.0111
    1W        W40264   9.181  21.110   9.519  0.1232 -0.2817 -0.0096
    1W        W40265   1.125  19.996   0.794 -0.0831 -0.0454 -0.2737
    1W        W40266   7.374  24.937   1.509  0.0787  0.4095  0.0235
    1W        W40267  13.680   7.942   2.462 -0.0670 -0.0870  0.0366
    1W        W40268  24.942  21.709   6.623 -0.1213 -0.1078  0.1530
    1W        W40269   3.888   0.930   2.404 -0.1236 -0.2858  0.0606
    1W        W40270   0.941   0.579   1.562  0.4139 -0.0132  0.0966
    1W        W40271  25.911  14.889   6.493 -0.0258 -0.0966 -0.0310
    1W        W40272   7.508   4.157   9.784  0.3070 -0.2010  0.1289
    1W        W40273  26.898  25.491   1.335  0.2125  0.1633  0.0209
    1W        W40274  28.111  28.318   8.301 -0.1467  0.0050  0.0274
    1W        W40275  24.739  20.299   0.063  0.0318  0.2175  0.2135
    1W        W40276  17.855   0.874   8.171  0.0328  0.0867 -0.0336
    1W        W40277   7.921  19.832   8.881 -0.1768  0.2034 -0.2823
    1W        W40278   4.939  12.025   0.523  0.0788 -0.2718 -0.0487
    1W        W40279   8.453  28.317   1.633  0.1742 -0.1568 -0.0709
    1W        W40280  27.299  16.866   0.540  0.3230  0.0423 -0.2758
    1W        W40281   1.022  23.286   8.910  0.1908  0.2837 -0.0535
    1W        W40282   9.203   2.593   9.465  0.1693 -0.3689  0.3191
    1W        W40283   4.887  26.950   9.724 -0.0992  0.0126 -0.0534
    1W        W40284  18.358   3.342   6.541 -0.1627 -0.0810  0.2798
    1W        W40285  11.057   1.885   0.814 -0.2337 -0.2029 -0.0060
    1W        W40286   5.507   6.338   2.902 -0.1315 -0.0846 -0.1009
    1W        W40287  21.970  17.463   2.427 -0.2658 -0.0186 -0.0481
    1W        W40288  25.015   9.719   7.907 -0.3711  0.2565 -0.2189
    1W        W40289  17.443  14.533   1.471  0.3363 -0.1634  0.1899
    1W        W40290  24.044  10.130   8.388  0.0791 -0.1234  0.0392
    1W        W40291   7.608   9.780   8.609 -0.0330 -0.0063 -0.1284
    1W        W40292   3.854  15.954   7.290 -0.0815  0.1022  0.2860
    1W        W40293   5.786   6.769   8.133 -0.3388  0.0276 -0.1879
    1W        W40294   5.482  10.327   9.549  0.3703  0.1591 -0.1907
    1W        W40295   8.328   6.642   1.365  0.2070  0.0259 -0.0207
    1W        W40296   8.979  24.434   9.137 -0.2897  0.0651  0.5432
    1W        W40297   3.776  11.312   8.190 -0.1800 -0.2594 -0.2791
    1W        W40298  17.366   8.222   0.948  0.2223  0.1051 -0.0989
    1W        W40299  12.934  16.177   0.192  0.0010  0.1083 -0.0035
    1W        W40300  23.968  13.116   0.306 -0.0645 -0.2727 -0.1035
    1W        W40301   1.511  22.196   2.160  0.2041 -0.3564 -0.1402
    1W        W40302  15.733   8.636   0.492  0.1735 -0.0715 -0.2706
    1W        W40303   5.861  21.821   0.429 -0.2527  0.0115  0.2097
    1W        W40304  27.303   7.336   1.367  0.1119  0.1284 -0.2101
    1W        W40305   1.893   9.790   9.436  0.1161  0.1266 -0.0166
    1W        W40306   8.726   2.405   0.438 -0.1189  0.1967  0.0446
    1W        W40307  21.600  16.488   0.317  0.4553  0.2144 -0.0551
    1W        W40308   7.841  18.435   2.281 -0.1578 -0.0239 -0.0208
    1W        W40309   5.750  14.801   8.954 -0.0250 -0.1019 -0.1797
    1W        W40310   4.927  16.596   2.082 -0.0091  0.2465 -0.3156
    1W        W40311  22.099  24.216   1.216 -0.5566  0.0282 -0.0781
    1W        W40312  16.508  13.639   0.998  0.1229 -0.2639 -0.0464
    1W        W40313  27.447   0.717   0.156  0.4115  0.0516  0.0132
    1W        W40314  26.151  19.422   1.939  0.0904  0.1194  0.0638
    1W        W40315  16.725  17.740   8.256 -0.1299 -0.0670 -0.0041
    1W        W40316  18.395  14.874   8.693  0.3399  0.0293  0.1184
    1W        W40317  16.408  24.647   1.593 -0.0138  0.3333 -0.2265
    1W        W40318  12.250  25.843   0.561  0.1113 -0.0616  0.0819
    1W        W40319   5.784  24.407   1.216 -0.1147 -0.0648  0.2392
    1W        W40320   1.066  19.107   9.506  0.6153  0.1584 -0.0393
    1W        W40321   7.521   1.297   2.501 -0.6831 -0.0949  0.1567
    1W        W40322   3.824  21.637   9.324  0.1503  0.0749 -0.1959
    1W        W40323  12.541   2.066   7.829 -0.0984 -0.1562 -0.3015
    1W        W40324   9.874  22.046   9.765 -0.2135  0.0872  0.0028
    1W        W40325   7.331   8.992   3.665  0.2829  0.1203  0.0185
    1W        W40326  23.071  28.291   2.680 -0.2402  0.0174  0.1142
    1W        W40327  26.528  28.016   9.220  0.0290 -0.0177  0.1453
    1W        W40328  26.366   4.377   7.152  0.4069 -0.0570  0.0625
    1W        W40329   5.212  27.297   9.883 -0.0658  0.2107  0.0454
    1W        W40330   6.117  20.911   0.815 -0.0701  0.3053 -0.2154
    1W        W40331  28.507  26.956   7.227 -0.1412 -0.2285  0.2972
    1W        W40332  28.094  23.349   2.579  0.1098 -0.3446 -0.0192
    1W        W40333   9.390  16.394   9.457 -0.0071 -0.3316 -0.0250
    1W        W40334  16.192  16.779   0.022  0.0853 -0.0785  0.1385
    1W        W40335  12.913  18.455   8.672 -0.0259  0.1647  0.3284
    1W        W40336   4.066   3.645   3.250 -0.1012 -0.3780  0.1161
    1W        W40337  26.893  12.268   7.290  0.1467 -0.0222 -0.0992
    1W        W40338   7.155   6.981   1.095  0.6357  0.2761 -0.3414
    1W        W40339  27.259   1.490   8.570 -0.1252 -0.2755 -0.0544
    1W        W40340  13.395   5.717   7.960 -0.0529  0.2263  0.2799
    1W        W40341   2.288   3.550   2.593 -0.1235  0.4044 -0.1751
    1W        W40342  22.728   3.080   6.520  0.0306 -0.3458 -0.3146
    1W        W40343   4.936   3.880   2.861  0.1981  0.1334  0.1555
    1W        W40344  16.586  15.909   2.711  0.0780  0.0588  0.0893
    1W        W40345  13.945  20.707   9.730  0.0048  0.0015  0.2774
    1W        W40346  24.043  20.391   8.301 -0.0434  0.3406  0.2377
    1W        W40347  13.754   3.297   0.877  0.0926  0.2214  0.1838
    1W        W40348   6.477  22.370   2.137  0.0186  0.0059 -0.0564
    1W        W40349   5.357   2.069   2.366 -0.1004  0.2017  0.0112
    1W        W40350  14.990  24.880   1.293 -0.0303 -0.3520 -0.1990
    1W        W40351  14.349  10.871   0.452 -0.0998 -0.1854  0.2123
    1W        W40352  18.589   3.340   8.919  0.1489 -0.0077  0.0971
    1W        W40353  10.623   8.945   7.506 -0.2952  0.2757 -0.2183
    1W        W40354  16.223  12.696   1.067 -0.0126 -0.1891  0.3516
    1W        W40355  22.270  19.730   7.252  0.1541 -0.1199  0.0334
    1W        W40356   0.546  20.041   7.429 -0.0593 -0.0377 -0.0773
    1W        W40357  11.970   4.607   8.304 -0.2361 -0.0198 -0.3729
    1W        W40358   9.388  20.570   2.897  0.0409 -0.0369 -0.2006
    1W        W40359   9.887   9.310   0.774 -0.0671 -0.3126 -0.0872
    1W        W40360  21.074  27.654   1.462 -0.0527 -0.1856  0.2101
    1W        W40361   5.535   9.518   8.263 -0.1774  0.1716 -0.0850
    1W        W40362   3.664  10.198   6.692  0.0950  0.0375 -0.2146
    1W        W40363  20.687   7.771   3.025 -0.0324  0.0661  0.0416
    1W        W40364  23.979  12.240   9.067  0.3584  0.3243  0.0832
    1W        W40365  26.543  22.040   7.533  0.0194  0.2049 -0.0631
    1W        W40366   3.679  17.984   8.936  0.2101 -0.0580 -0.3917
    1W        W40367  22.645  18.107   8.323 -0.1418  0.0740 -0.0244
    1W        W40368  26.472  12.494   6.958  0.0381  0.2309 -0.0407
    1W        W40369   8.026  14.079   0.601 -0.0089 -0.1943  0.0181
    1W        W40370  28.621  19.630   8.051 -0.2046 -0.1813  0.1391
    1W        W40371  23.652  23.810   0.738 -0.1914  0.2881  0.0592
    1W        W40372  27.408   8.682   7.113  0.1164 -0.0603 -0.0100
    1W        W40373  10.627  24.591   1.473  0.2100 -0.0835  0.0528
    1W        W40374  14.277   2.451   1.172 -0.1573 -0.0561 -0.1789
    1W        W40375  18.245   0.976   0.639 -0.1001  0.0170 -0.0864
    1W        W40376   5.286  13.143   2.363 -0.2538  0.0826 -0.0596
    1W        W40377  25.240  10.318   7.443 -0.1310  0.2794  0.0613
    1W        W40378  20.482  23.176   0.223  0.0336 -0.1075 -0.2219
    1W        W40379  28.123  24.664   0.045  0.0778  0.0413  0.2307
    1W        W40380  10.292   6.855   1.704  0.1925  0.0720 -0.0055
    1W        W40381   7.418  17.162   9.509  0.0355  0.1272  0.1027
    1W        W40382  18.037  24.271   2.674 -0.0014  0.0255  0.0670
    1W        W40383  28.671  12.850   9.157  0.1440 -0.0147  0.2093
    1W        W40384  26.733  27.012   3.117 -0.1604 -0.1327 -0.1031
    1W        W40385  10.906  15.750   7.692 -0.0435 -0.3184 -0.1843
    1W        W40386  12.633  26.088   2.853 -0.3746 -0.6159 -0.2432
    1W        W40387   5.062  12.317   7.688  0.2753 -0.2222 -0.0821
    1W        W40388  24.761  12.741   7.286 -0.0158 -0.0306  0.1141
    1W        W40389  22.114  15.739   2.066  0.0437 -0.1206  0.1284
    1W        W40390  15.093  27.972   0.705 -0.1704 -0.0435  0.0074
    1W        W40391   7.505  20.339   7.057  0.0745 -0.2546  0.0469
    1W        W40392  19.210  16.861   7.752  0.2466 -0.2978  0.1947
    1W        W40393  14.061   1.472   3.324 -0.0403 -0.1089  0.0624
    1W        W40394  22.412   4.155   2.498  0.2049 -0.2874 -0.1496
    1W        W40395  22.484   2.414   9.317 -0.1353  0.2238  0.0530
    1W        W40396   0.143  21.885   7.696  0.0587 -0.1977  0.2697
    1W        W40397  16.279  11.701   1.121  0.0991  0.0970  0.1105
    1W        W40398  11.063  16.218   9.773 -0.0072 -0.3578 -0.0261
    1W        W40399  22.581  27.941   0.986 -0.5042  0.0066  0.1341
    1W        W40400  15.382  19.628   0.241  0.1311  0.2269 -0.0690
    1W        W40401   5.406   6.040   7.905  0.1568  0.0283 -0.0414
    1W        W40402   8.214  11.196   2.775  0.0554 -0.3573  0.1435
    1W        W40403  11.470  15.757   9.254  0.2291 -0.0737 -0.0080
    1W        W40404   3.716  20.655   6.330  0.0205 -0.0151  0.2433
    1W        W40405   5.979  26.870   8.799  0.2574 -0.0954 -0.1334
    1W        W40406  12.531  24.831   2.281  0.0748  0.2314  0.1199
    1W        W40407  28.334  21.766   2.709 -0.3529  0.1371  0.1013
    1W        W40408  15.737  24.665   8.081  0.1673 -0.0028  0.0921
    1W        W40409  17.832   4.985   1.862 -0.0850 -0.1104 -0.1057
    1W        W40410  25.962   8.116   0.125 -0.0388 -0.2268 -0.3325
    1W        W40411  28.143   6.656   6.784  0.2932  0.0754 -0.1060
    1W        W40412   5.362  19.662   0.964 -0.1245 -0.1275 -0.0693
    1W        W40413  12.922  24.026   8.075 -0.0930 -0.2654 -0.1638
    1W        W40414  10.039  26.007   8.040 -0.0359 -0.0642 -0.0508
    1W        W40415  27.406  24.345   6.908  0.1745 -0.1175  0.1159
    1W        W40416   6.929  28.575   1.835  0.3759 -0.1685 -0.1609
    1W        W40417  25.548   2.943   3.256  0.4006 -0.2078  0.3451
    1W        W40418  21.192   6.810   8.376 -0.0591  0.4367 -0.1806
    1W        W40419  27.213  24.867   6.813  0.0329  0.2062 -0.2436
    1W        W40420   2.363  24.605   0.224 -0.1637  0.0896 -0.2576
    1W        W40421  22.784  17.949   9.445  0.0974  0.0069 -0.4521
    1W        W40422  22.708   5.118   2.765  0.2793  0.0354  0.0719
    1W        W40423  12.361  24.784   1.791  0.0987  0.1935  0.0494
    1W        W40424   8.946  27.357   8.322 -0.0782  0.0074 -0.5138
    1W        W40425  27.762   0.129   8.882 -0.1271 -0.1673 -0.0595
    1W        W40426  17.530   0.861   9.622  0.0088  0.1284 -0.0788
    1W        W40427  12.529  23.287   7.096  0.0348  0.1491 -0.1872
    1W        W40428   6.425   1.481   2.293  0.2643 -0.1583 -0.0983
    1W        W40429  22.512   5.337   8.570  0.0924 -0.1499  0.3802
    1W        W40430   9.219  17.844   8.005  0.4178  0.1566  0.0351
    1W        W40431  26.598   1.238   8.147 -0.1144  0.0005  0.1871
    1W        W40432  28.374  24.069   9.659 -0.0493  0.0102 -0.1845
    1W        W40433  14.959   3.998   0.517  0.0219 -0.4415  0.2348
    1W        W40434  22.147   9.791   7.045 -0.2389  0.0059  0.0520
    1W        W40435  12.096   4.860   1.780 -0.3799 -0.0701 -0.2517
    1W        W40436  10.719  10.552   1.604  0.0497  0.0552  0.2463
    1W        W40437  27.684   7.608   6.003 -0.0677 -0.0406 -0.0894
    1W        W40438   9.400   7.564   0.177  0.1851 -0.3279 -0.1138
    1W        W40439  16.455  21.476   2.235  0.0108  0.1085  0.1058
    1W        W40440  11.847   5.050   9.709 -0.2877 -0.0260 -0.0993
    1W        W40441  18.741  14.689   9.642 -0.0106 -0.2515  0.3374
    1W        W40442   1.523  10.056   2.581 -0.3486  0.0039  0.3718
    1W        W40443  10.697  15.662   1.766  0.0717 -0.0263 -0.2550
    1W        W40444  28.336  13.202   8.937 -0.0329  0.2722  0.1128
    1W        W40445   9.282   4.857   8.332 -0.1748  0.1240 -0.0774
    1W        W40446  26.791   4.591   7.331 -0.1661 -0.1680  0.1569
    1W        W40447   8.484  24.587   0.460  0.0456  0.1376  0.0821
    1W        W40448  14.893   4.398   9.381  0.0036  0.1073 -0.0245
    1W        W40449   4.690  26.985   9.212  0.0630  0.0659  0.0162
    1W        W40450   1.032  27.894   8.938 -0.1807 -0.0205  0.0021
    1W        W40451  25.487  17.563   2.046  0.2675 -0.1018  0.0421
    1W        W40452  27.635  15.606   7.929 -0.1205 -0.3724 -0.0891
    1W        W40453  15.870  16.484   0.829  0.1685  0.1501  0.0787
    1W        W40454  26.094   0.954   9.828 -0.0981 -0.5424 -0.2268
    1W        W40455   6.428   4.659   7.942  0.0348  0.0332 -0.2607
    1W        W40456  28.595   2.116   6.843  0.1265  0.3512  0.1405
    1W        W40457   4.620  27.262   0.659 -0.1152 -0.1521 -0.2610
    1W        W40458  26.853  25.701   8.875 -0.2134  0.1621 -0.0364
    1W        W40459   6.014   1.244   7.129 -0.1798  0.4578  0.0977
    1W        W40460  11.654  14.583   7.773  0.0288  0.0537  0.1177
    1W        W40461  26.852  14.477   6.020 -0.2142 -0.1430  0.0092
    1W        W40462  19.001  24.220   9.070 -0.2274  0.0982  0.2995
    1W        W40463  25.989  10.106   2.471 -0.1417  0.0485  0.0888
    1W        W40464  27.430   8.729   8.559 -0.2843  0.1155 -0.0594
    1W        W40465  18.726   0.727   0.247 -0.3051  0.0660 -0.1927
    1W        W40466   5.138  20.836   5.962 -0.0971 -0.0586 -0.2849
    1W        W40467  28.193   7.853   1.217 -0.0060  0.2628 -0.0538
    1W        W40468  27.085  23.919   2.189 -0.1160  0.1220  0.0965
    1W        W40469  26.705  23.705   8.401 -0.3683 -0.0081 -0.0300
    1W        W40470  24.411   2.505   9.893  0.2537  0.0120  0.0780
    1W        W40471  25.971  23.471   7.878 -0.2081 -0.2920 -0.4763
    1W        W40472   3.098  15.554   9.512 -0.3074  0.2759 -0.3056
    1W        W40473   3.897  16.384   1.146 -0.1615  0.1686 -0.3320
    1W        W40474   0.628  26.415   2.999 -0.0017  0.1476 -0.0757
    1W        W40475  15.247  23.827   8.745  0.0216  0.4267  0.1667
    1W        W40476   5.864   6.725   1.104  0.0017  0.1016 -0.1630
    1W        W40477   9.623  27.877   1.875  0.3500 -0.1044 -0.0184
    1W        W40478  25.443  14.195   0.907  0.1480  0.1561 -0.0119
    1W        W40479  18.776   2.847   2.200  0.1480  0.0113 -0.1104
    1W        W40480  13.474   0.895   2.136  0.3818 -0.3776 -0.0009
    1W        W40481   5.001  24.037   6.496  0.1877 -0.2560 -0.1183
    1W        W40482  11.694  27.957   1.692 -0.2317 -0.2579  0.2581
    1W        W40483   7.629  23.359   7.599 -0.1766  0.1557 -0.0828
    1W        W40484  20.756  15.507   9.249  0.3093 -0.0444  0.1310
    1W        W40485  24.187  26.514   1.981  0.0636 -0.1183 -0.1764
    1W        W40486  12.345  24.280   2.297 -0.1323 -0.0635 -0.0832
    1W        W40487  21.617  28.561   6.621 -0.0510 -0.0175 -0.1771
    1W        W40488  21.025   6.362   8.975  0.1387 -0.0847 -0.0886
    1W        W40489  12.473  16.457   2.630  0.2626  0.1527  0.0736
    1W        W40490  21.338   5.988   8.843  0.2907  0.2866 -0.4373
    1W        W40491   2.911  25.494   0.172  0.0419 -0.1069 -0.0099
    1W        W40492   7.503  27.204   1.803 -0.0585 -0.0354  0.1207
    1W        W40493  21.327  21.892   1.665  0.0203 -0.0804  0.0200
    1W        W40494   4.193  14.810   9.342 -0.3253 -0.2000 -0.2375
    1W        W40495  28.196  10.162   2.074  0.2179  0.2683 -0.1067
    1W        W40496   8.735  14.882   7.444  0.2419 -0.1699  0.2553
    1W        W40497  23.886   0.373   7.647 -0.0083  0.2064  0.0400
    1W        W40498   3.188  19.373   6.099 -0.0340 -0.4730  0.1028
    1W        W40499   2.131  16.673   9.958  0.1368 -0.1353 -0.1916
    1W        W40500   4.360  23.750   1.689  0.2324 -0.1604  0.2182
    1W        W40501   9.760   4.417   8.426 -0.1177 -0.0445 -0.0035
    1W        W40502   5.402   5.212   8.414 -0.1964 -0.3039  0.0887
    1W        W40503   1.085  16.360   0.323 -0.2184  0.1343 -0.0541
    1W        W40504  23.992  23.641   2.883 -0.0012  0.0884 -0.2220
    1W        W40505  25.170   9.308   8.452  0.0625  0.3207  0.0775
    1W        W40506  27.321  26.717   9.310  0.1292  0.0618 -0.0113
    1W        W40507  12.409   3.996   2.690  0.0600  0.1640 -0.1003
    1W        W40508  26.580  18.625   7.055 -0.2036 -0.0338 -0.1249
    1W        W40509   2.761   6.975   1.594 -0.1248  0.2526 -0.1869
    1W        W40510  13.325   9.459   8.296  0.0017 -0.0807  0.1520
    1W        W40511  28.226  25.209   0.033  0.0733 -0.1079 -0.1702
    1W        W40512  21.178  13.510   0.808 -0.0770 -0.0429  0.0123
    1W        W40513  24.881   2.713   9.722  0.2826 -0.1035 -0.2649
    1W        W40514   8.189   5.054   7.032  0.2855  0.2352  0.0952
    1W        W40515   1.550  17.039   1.735  0.0965  0.1252 -0.2714
    1W        W40516   6.274  20.430   6.186 -0.0479 -0.1795 -0.1662
    1W        W40517  26.297  12.667   9.202  0.1985  0.1867 -0.0866
    1W        W40518   4.377  20.916   0.211 -0.1399  0.2579 -0.0393
    1W        W40519  10.820  23.418   9.337 -0.2435 -0.3092  0.0166
    1W        W40520  28.183  14.587   1.795 -0.2222  0.0140 -0.0910
    1W        W40521  20.708   2.079   8.365 -0.0163 -0.0450 -0.3184
    1W        W40522   2.018  13.872   8.204  0.2378 -0.0201 -0.0189
    1W        W40523  17.770  18.553   3.158 -0.3785 -0.2374 -0.0859
    1W        W40524   4.999   3.359   7.681 -0.2901  0.1149  0.4824
    1W        W40525   8.450  26.688   0.078  0.2154 -0.1865 -0.0840
    1W        W40526  22.627   5.257   0.921 -0.2292  0.1552  0.3751
    1W        W40527  15.456   8.890   7.765 -0.1515 -0.0105  0.1765
    1W        W40528   5.657  22.160   6.129 -0.0845 -0.1598  0.0665
    1W        W40529  10.834  26.936   8.027 -0.0483 -0.0618 -0.0579
    1W        W40530  10.338   9.767   9.777  0.2050 -0.0449 -0.2321
    1W        W40531   5.222  14.075   0.552  0.1196  0.2694  0.0292
    1W        W40532  19.400  17.797   0.789 -0.0856  0.0676  0.2328
    1W        W40533   0.507   2.475   7.470  0.1519 -0.3982  0.0823
    1W        W40534   0.996   5.717   1.563 -0.4103 -0.1199  0.0218
    1W        W40535   7.631   5.485   2.932 -0.1064  0.3055 -0.1956
    1W        W40536   0.837   1.397   8.755  0.0636 -0.1099 -0.0763
    1W        W40537  17.367  27.326   6.864  0.0176  0.1970  0.3959
    1W        W40538  24.764   0.234   9.091 -0.2820 -0.2291  0.1344
    1W        W40539  22.447  24.587   2.320  0.2984 -0.2971 -0.4957
    1W        W40540  22.427  21.768   9.541  0.1805  0.1051  0.1015
    1W        W40541  14.595  25.459   8.509  0.1725 -0.0886 -0.0548
    1W        W40542  22.094  15.914   0.322  0.0504 -0.1519  0.0381
    1W        W40543  24.095   2.655   2.112  0.3623  0.1459 -0.2183
    1W        W40544  20.247  22.873   0.925  0.3677 -0.1232 -0.1669
    1W        W40545  26.421   4.489   2.077  0.0776 -0.0889 -0.0218
    1W        W40546   6.719  19.577   8.407 -0.1651 -0.0127 -0.0209
    1W        W40547   6.108  21.254   0.330  0.2142  0.2713 -0.2151
    1W        W40548  18.640   0.742   3.161  0.0993  0.1569  0.2307
    1W        W40549  23.794  24.701   0.009 -0.0394 -0.2864 -0.1179
    1W        W40550   2.443   2.367   8.826 -0.0506  0.1845 -0.1226
    1W        W40551  12.288  11.292   7.206 -0.2282 -0.2766 -0.1421
    1W        W40552  21.456  16.894   7.295 -0.0762  0.0126  0.0545
    1W        W40553  27.378   6.290   1.444  0.1217 -0.0096  0.2693
    1W        W40554   6.938  24.002   7.815  0.0226 -0.0497 -0.0131
    1W        W40555  14.385  17.681   8.299  0.2155  0.1232 -0.0351
    1W        W40556  16.733   7.632   4.204  0.1713 -0.0740 -0.2307
    1W        W40557  28.073  20.898   9.070  0.1053 -0.0754  0.0920
    1W        W40558  25.787  12.597   9.335 -0.5013  0.0614 -0.0944
    1W        W40559  10.457  22.589   8.418  0.0948 -0.1076  0.0865
    1W        W40560   9.414  11.436   2.121  0.1375  0.0212  0.0863
    1W        W40561  18.920   8.920   0.082 -0.1239 -0.0459  0.0763
    1W        W40562   4.769  13.329   0.128 -0.1817 -0.0922  0.3047
    1W        W40563   5.231  10.815   1.423 -0.1285  0.0974 -0.0473
    1W        W40564  18.801   6.657   9.835  0.0597 -0.0777 -0.0046
    1W        W40565  28.401  10.583   1.765 -0.2357 -0.2050  0.0148
    1W        W40566   6.215   8.021   0.977  0.0991 -0.2709  0.1490
    1W        W40567   6.114  21.764   1.315  0.5100  0.2377 -0.0413
    1W        W40568  11.151   0.102   9.474  0.1976  0.1293  0.0259
    1W        W40569  23.121   7.983   0.083 -0.1856  0.1433 -0.1334
    1W        W40570   9.899   1.715   9.395 -0.0976 -0.0356 -0.0777
    1W        W40571  17.193  18.548   0.015 -0.3503 -0.0490 -0.1729
    1W        W40572  27.088  20.944   7.632  0.0041  0.1348  0.1214
    1W        W40573  10.256  24.087   8.256 -0.1906  0.5498 -0.2643
    1W        W40574  13.683  24.364   8.187 -0.2232 -0.1395  0.1251
    1W        W40575   3.000   2.852   7.946  0.0278  0.0712 -0.1911
    1W        W40576  12.847  21.532   2.968  0.0438 -0.2907  0.1411
    1W        W40577   5.502   5.787   1.618  0.0287  0.0578  0.1286
    1W        W40578  17.981   3.360   2.657 -0.0024  0.1348 -0.0725
    1W        W40579  10.123  25.922   9.273 -0.1680 -0.2615 -0.0034
    1W        W40580   1.075  27.366   8.861 -0.1435  0.5974 -0.1768
    1W        W40581   7.453  23.018   6.245  0.0293  0.3975 -0.0430
    1W        W40582  16.412   9.122   9.890  0.0602  0.0372 -0.2658
    1W        W40583  26.510  12.144   0.469 -0.0259  0.1928  0.1658
    1W        W40584  10.380   7.628   8.647  0.2011 -0.0120 -0.3080
    1W        W40585   6.294   2.771   8.647  0.0429  0.0730 -0.0791
    1W        W40586  26.865  22.862   9.485  0.0664 -0.0525 -0.0942
    1W        W40587  11.130  10.641   8.264  0.1286 -0.0608 -0.0401
    1W        W40588  18.478  14.606   2.781 -0.2462 -0.4342 -0.0743
    1W        W40589   6.827  18.460   8.977  0.1464  0.0126 -0.0282
    1W        W40590  18.391  19.991   8.555 -0.0323  0.1295  0.1369
    1W        W40591  22.041  18.495   6.961 -0.0009 -0.1447 -0.2762
    1W        W40592   5.045  16.393   6.077 -0.0115  0.2424  0.0194
    1W        W40593  23.843  20.556   9.624  0.0588 -0.1251  0.2002
    1W        W40594  17.815  28.227   7.085  0.0819  0.0351  0.1326
    1W        W40595  18.128  13.982   2.215  0.1345  0.0256 -0.0268
    1W        W40596  27.546  22.848   0.205 -0.0541  0.0983 -0.0046
    1W        W40597  10.857  23.715   5.708 -0.0436  0.1268  0.2042
    1W        W40598  10.176  24.386   2.599 -0.2547  0.1197 -0.3159
    1W        W40599  16.714   4.221   0.637  0.3221 -0.1992 -0.0713
    1W        W40600   6.948  12.049   8.862 -0.1137 -0.3343  0.1386
    1W        W40601  19.688   0.602   0.955  0.0440 -0.0665  0.3686
    1W        W40602  10.981   4.162   7.328  0.2269  0.0833  0.0150
    1W        W40603   6.351   7.372   9.258 -0.0957  0.2613  0.3022
    1W        W40604   2.288   4.023   2.257  0.2390  0.0468 -0.1198
    1W        W40605   6.070   0.501   1.934 -0.0463 -0.3165  0.2539
    1W        W40606  21.857  24.768   3.050 -0.1147  0.1919 -0.1129
    1W        W40607   3.275   5.858   1.854 -0.1780  0.0168 -0.4116
    1W        W40608  27.569  28.236   8.226 -0.2993  0.0612  0.3069
    1W        W40609  10.855  14.599   7.949  0.0862  0.2031 -0.0003
    1W        W40610  10.712  23.734   0.417  0.2653  0.1225  0.1957
    1W        W40611  14.749   3.250   3.651  0.2050  0.1975  0.1477
    1W        W40612  24.180   5.804   8.994  0.3014 -0.0635 -0.1946
    1W        W40613  15.735  21.946   2.632 -0.0139  0.2583  0.1410
    1W        W40614  13.052  20.271   9.631  0.2510 -0.0620 -0.1000
    1W        W40615  13.828  23.693   2.287  0.3030 -0.1631 -0.3568
    1W        W40616   8.827  18.995   0.644 -0.0072  0.1301  0.2249
    1W        W40617  27.685  14.669   1.197  0.3322  0.0637 -0.2127
    1W        W40618  24.040  13.937   0.028  0.0305 -0.3601  0.2136
    1W        W40619  21.292  28.235   1.316 -0.0517  0.0452 -0.2148
    1W        W40620  19.348  13.957   2.108 -0.0578  0.1048  0.1669
    1W        W40621  17.128  15.421   9.460 -0.1637  0.3062  0.0319
    1W        W40622   5.594  12.682   8.323  0.1143 -0.2814 -0.2832
    1W        W40623   0.607  27.661   9.746 -0.0441  0.0723  0.2534
    1W        W40624  21.335  22.033   7.533  0.3206  0.2836 -0.0594
    1W        W40625   5.034  26.318   2.567 -0.2500  0.3273  0.1362
    1W        W40626  14.701   2.339   2.829  0.0923 -0.0570 -0.4949
    1W        W40627  12.325  16.341   9.480 -0.4330  0.1258 -0.1271
    1W        W40628   4.710  14.825   1.083 -0.0105 -0.0851  0.2072
    1W        W40629  16.154  26.421   9.511  0.1062  0.1385 -0.1705
    1W        W40630  15.355  22.746   8.983  0.0422 -0.0257 -0.2485
    1W        W40631  14.494  14.328   1.045  0.0279  0.1010  0.0999
    1W        W40632   8.609  11.781   8.516  0.1755 -0.0529 -0.0674
    1W        W40633  17.750   5.855   2.877  0.0835  0.3789 -0.1288
    1W        W40634   6.153   4.875   1.806  0.1683 -0.0298  0.2143
    1W        W40635  14.904   0.538   9.464 -0.2327 -0.0601  0.1974
    1W        W40636  11.782   8.789   1.529  0.1162 -0.1533  0.1641
    1W        W40637  17.635   0.370   1.285 -0.1609  0.0274  0.0564
    1W        W40638  27.308   2.895   9.187 -0.1607  0.3021 -0.2634
    1W        W40639  10.686   0.769   9.443  0.2434 -0.0408 -0.0896
    1W        W40640   9.176   8.238   0.588  0.1448 -0.0354  0.0972
    1W        W40641   4.219   6.114   8.641 -0.2188  0.1772  0.2669
    1W        W40642   2.196   1.477   8.370  0.0428  0.1812  0.3298
    1W        W40643  26.261  28.288   2.666  0.1627 -0.0199 -0.0381
    1W        W40644  20.167  12.578   1.797 -0.3732  0.2230  0.1664
    1W        W40645  25.964  23.647   7.204  0.1906 -0.1112 -0.3575
    1W        W40646   0.380  12.286   6.862 -0.0302  0.0046 -0.1556
    1W        W40647  28.344  24.274   8.619 -0.4201  0.1219  0.0181
    1W        W40648   6.049   4.196   7.536  0.1151 -0.0215  0.1113
    1W        W40649  15.368  22.037   2.212 -0.1754  0.2769  0.3240
    1W        W40650  16.699  23.490   9.329  0.0595  0.3907  0.0205
    1W        W40651  20.549  12.566   2.449 -0.0547 -0.0775  0.0983
    1W        W40652  14.525  23.185   1.324 -0.2093  0.2446 -0.0116
    1W        W40653  20.275   8.809   2.437  0.0436  0.3548 -0.0285
    1W        W40654   4.822  21.683   8.978  0.3158 -0.1090 -0.0099
    1W        W40655   2.838  25.569   6.903  0.0475 -0.3620 -0.0274
    1W        W40656  15.888  21.156   9.660 -0.1097 -0.0865  0.0663
    1W        W40657  16.303  10.332   9.198 -0.2082  0.1635 -0.2292
    1W        W40658   4.469   7.375   7.997  0.0654  0.1285 -0.1331
    1W        W40659  11.636  23.672   9.933  0.0282 -0.2363 -0.1301
    1W        W40660  28.121  27.819   2.235 -0.0661 -0.0956  0.0717
    1W        W40661  18.100  10.179   7.184  0.1350 -0.0823 -0.4899
    1W        W40662  22.721   0.650   9.796 -0.1342  0.3356  0.0897
    1W        W40663  28.244  26.622   9.107 -0.2637 -0.2521  0.0114
    1W        W40664   9.386  15.036   8.689  0.0616 -0.3276 -0.0582
    1W        W40665  26.436  16.129   2.210 -0.2408 -0.2665 -0.5819
    1W        W40666  13.370  19.593   8.015 -0.2003 -0.0233  0.0870
    1W        W40667   9.240   5.243   2.548  0.1444 -0.1999 -0.4313
    1W        W40668  10.361  27.069   0.818 -0.0040  0.1916  0.0650
    1W        W40669  24.223  17.933   6.111  0.1987  0.2301 -0.2396
    1W        W40670   2.885  25.010   7.773 -0.1597  0.2605 -0.4196
    1W        W40671  18.575  22.085   9.361  0.3478  0.0457 -0.3133
    1W        W40672  17.077  17.127   7.805 -0.0362  0.0526 -0.1433
    1W        W40673   2.129  19.289   9.912  0.2382 -0.0757 -0.1498
    1W        W40674  20.519   0.446   2.017  0.0805  0.1441  0.0990
    1W        W40675  24.815  21.686   8.874  0.1075  0.2061  0.1184
    1W        W40676  26.510  24.768   6.517 -0.1920 -0.0499 -0.0618
    1W        W40677   9.303   1.411   1.223  0.0534 -0.0932 -0.0813
    1W        W40678  17.833   3.190   7.744 -0.0460  0.4844  0.0664
    1W        W40679   6.520   9.754   1.662  0.1527  0.0009  0.0112
    1W        W40680  27.469  16.313   9.738  0.1417  0.1844 -0.0914
    1W        W40681   1.545  10.825   0.690 -0.0430  0.3882  0.1399
    1W        W40682  26.774   2.953   0.911 -0.0155 -0.0482 -0.0845
    1W        W40683   7.960  26.837   0.182 -0.1401 -0.0772 -0.0935
    1W        W40684   0.080  26.989   6.790  0.2669  0.0289  0.0666
    1W        W40685   7.534  28.188   7.933  0.0207 -0.0383  0.1493
    1W        W40686   4.514  11.175   1.415 -0.4404 -0.1964  0.1610
    1W        W40687  13.086  15.565   9.907  0.3333 -0.0991  0.3541
    1W        W40688   1.246  14.210   1.105 -0.0123 -0.0318 -0.0988
    1W        W40689  25.272  25.659   9.914  0.0310  0.1414 -0.0474
    1W        W40690  14.302   1.432   9.137  0.2591 -0.0674 -0.2341
    1W        W40691   2.558   6.973   2.973  0.0162 -0.3218 -0.1207
    1W        W40692  24.852   1.368   7.054 -0.1590 -0.1862 -0.0076
    1W        W40693   5.258  25.764   3.264 -0.4154 -0.1292  0.4123
    1W        W40694  22.554   6.594   2.929 -0.0816  0.1432  0.1847
    1W        W40695  16.821   3.414   0.174 -0.0344 -0.1888 -0.0608
    1W        W40696  27.863   0.810   6.900 -0.1885 -0.0204  0.3958
    1W        W40697  25.134  10.574   6.955  0.1267  0.1325  0.1780
    1W        W40698  18.171  18.327   3.381 -0.3731  0.0996  0.0207
    1W        W40699   0.684   8.823   6.613 -0.0433  0.1260 -0.2675
    1W        W40700  27.535  14.593   1.693 -0.2195 -0.1332 -0.2407
    1W        W40701  18.924  11.762   0.875  0.2046  0.1516  0.1359
    1W        W40702   7.712  25.152   1.765  0.0687  0.0027  0.2224
    1W        W40703  16.055  20.504   0.316  0.2918  0.0706 -0.1078
    1W        W40704   4.229  19.664   1.160  0.0066  0.0712 -0.0253
    1W        W40705  24.132   4.075   0.523  0.2469  0.1304 -0.3485
    1W        W40706   5.940  19.874   5.732  0.0644 -0.2052 -0.0003
    1W        W40707  25.489   2.036   1.548  0.2894 -0.0496 -0.0303
    1W        W40708  20.729   3.679   7.854  0.3215  0.0334  0.2469
    1W        W40709  23.555  21.510   1.937 -0.0472 -0.0100  0.3990
    1W        W40710  21.640  10.153   0.776  0.0317 -0.3835  0.0109
    1W        W40711  14.134  14.952   0.842  0.2030 -0.2897 -0.2855
    1W        W40712   2.832  24.389   9.513  0.0233 -0.2465  0.1102
    1W        W40713   9.085   3.949   8.638 -0.0519  0.1645  0.1469
    1W        W40714   7.276  25.397   8.678  0.0170 -0.0686  0.1466
    1W        W40715   1.878  20.975   7.064  0.2444  0.0393  0.1526
    1W        W40716   7.128  18.234   9.326  0.1016 -0.1864  0.2535
    1W        W40717  26.301   0.471   8.686 -0.0343 -0.1846  0.3060
    1W        W40718   9.027  27.462   7.815 -0.0897 -0.1436 -0.0676
    1W        W40719  22.200   4.642   7.356 -0.3293 -0.2306  0.0784
    1W        W40720  21.193  17.000   9.379  0.0343 -0.0694  0.0610
    1W        W40721   6.812  20.136   7.332  0.2811  0.0566 -0.0046
    1W        W40722  13.004  28.364   7.316 -0.0691  0.2007 -0.1174
    1W        W40723   3.499  24.091   1.149  0.0893  0.3224  0.1956
    1W        W40724   1.276  17.450   7.200 -0.0385 -0.3168 -0.1611
    1W        W40725   9.060   1.740   3.155  0.1323  0.1267 -0.0115
    1W        W40726  15.889  23.270   4.214 -0.0542 -0.0368  0.0059
    1W        W40727  23.575  11.769   7.983  0.2901  0.3607  0.0985
    1W        W40728  25.966   0.316   7.669 -0.1252 -0.2598  0.0395
    1W        W40729   7.819  21.385   7.173  0.0922 -0.3865  0.0878
    1W        W40730   4.976  25.847   0.146  0.0764 -0.0165  0.0728
    1W        W40731   5.098   8.462   0.891 -0.0969  0.0121 -0.2431
    1W        W40732  24.495   9.132   6.861  0.0652  0.0016  0.0277
    1W        W40733  26.903  22.420   0.596  0.2583 -0.2634 -0.3796
    1W        W40734  19.820  10.666   6.907 -0.1786 -0.2725  0.0960
    1W        W40735   1.281  15.087   1.187  0.0334  0.0046 -0.0306
    1W        W40736  22.818   6.258   3.478 -0.1350  0.1248  0.1511
    1W        W40737  13.697  17.060   3.079 -0.2180  0.1975 -0.0599
    1W        W40738  17.467  13.899   1.368  0.1904  0.1102  0.1807
    1W        W40739  17.489  22.482   9.451 -0.1320  0.1409 -0.0015
    1W        W40740  16.729  16.349   0.668  0.0410  0.1857 -0.1917
    1W        W40741   1.123  20.232   1.309  0.0758 -0.3006  0.2323
    1W        W40742  16.828  24.617   9.257  0.5841 -0.0744  0.0678
    1W        W40743  10.190  26.584   7.372  0.0117  0.1368  0.0424
    1W        W40744   6.440  10.764   2.376  0.0008  0.1179 -0.1903
    1W        W40745  26.946  27.276   1.742 -0.0353 -0.2619  0.3750
    1W        W40746  12.713   7.293   8.711  0.0756  0.0441  0.0848
    1W        W40747   8.827  17.056   1.797 -0.1113  0.0421  0.0853
    1W        W40748  28.589  13.109   1.266  0.0945 -0.2073  0.0243
    1W        W40749   3.842   6.243   6.445 -0.2443  0.0830 -0.0581
    1W        W40750  10.755   3.735   2.773  0.0583  0.2026  0.3594
    1W        W40751  16.345   2.784   3.205 -0.2998  0.6250  0.0622
    1W        W40752  16.660  18.824   9.807 -0.1415 -0.1339 -0.1181
    1W        W40753  25.021  21.233   8.655 -0.0506  0.0909  0.1175
    1W        W40754  26.025  13.005   5.657  0.0630  0.2012 -0.1277
    1W        W40755  19.883   6.035   3.129  0.0378  0.0404  0.2336
    1W        W40756  18.077  28.570   3.391  0.1916 -0.2363  0.0311
    1W        W40757   3.237   3.421   1.609 -0.0132  0.3237  0.1179
    1W        W40758   1.912  20.555   7.711  0.1390 -0.0422 -0.2199
    1W        W40759  28.046   7.403   2.544 -0.1549 -0.0545 -0.0357
    1W        W40760  24.110   3.845   9.558  0.0809  0.1511  0.3032
    1W        W40761  15.905   5.385   8.397  0.2020 -0.0314 -0.0729
    1W        W40762   6.991   6.946   2.556 -0.1799 -0.3234 -0.2877
    1W        W40763  22.664  16.100   7.318 -0.0807 -0.0452 -0.2258
    1W        W40764  13.863  19.190   1.678 -0.0646 -0.0098  0.1541
    1W        W40765  25.950  16.056   7.842 -0.1285 -0.3828 -0.3867
    1W        W40766   4.424  26.559   1.208  0.0056 -0.0039 -0.2525
    1W        W40767  21.383  19.111   9.103  0.0381 -0.0772 -0.1476
    1W        W40768  17.681   5.710   3.405  0.0951  0.1935  0.4353
    1W        W40769   7.765   3.894   6.804 -0.0092 -0.0347  0.1582
    1W        W40770  26.150  24.436   8.512  0.2336 -0.0802 -0.0264
    1W        W40771  16.897   3.504   9.449 -0.1869 -0.2263 -0.0084
    1W        W40772   2.810   5.671   7.425 -0.1208  0.0069  0.1591
    1W        W40773  18.270   4.922   3.156  0.1881  0.3297 -0.2213
    1W        W40774  23.389   0.431   9.161  0.1354  0.3052 -0.1956
    1W        W40775  16.362   5.498   8.194  0.0075  0.1544  0.2578
    1W        W40776  17.657  26.974   1.624  0.1464  0.2056 -0.1223
    1W        W40777  21.621   3.899   7.564 -0.1232 -0.1420  0.0699
    1W        W40778  12.745  23.066   2.125  0.1690  0.1277 -0.0646
    1W        W40779  19.104  16.415   0.904 -0.0919  0.2121  0.2935
    1W        W40780   3.872  16.823   6.392  0.1540  0.1760  0.2329
    1W        W40781   1.584  27.731   0.441  0.0858 -0.0926 -0.1575
    1W        W40782  13.929  23.231   8.425  0.2183 -0.2121 -0.2145
    1W        W40783   4.681  13.198   7.640 -0.3196  0.0376  0.0828
    1W        W40784  28.623  28.302   8.266 -0.2427  0.0039 -0.0163
    1W        W40785  14.212  27.943   8.860 -0.0363 -0.4023  0.0925
    1W        W40786  17.698   7.544   9.797  0.1328 -0.0668 -0.0670
    1W        W40787  11.739  14.931   8.990 -0.2222 -0.1031  0.1914
    1W        W40788  17.241   9.343   9.335  0.0803 -0.1358 -0.1773
    1W        W40789  10.449   4.797   2.854 -0.1674 -0.0003  0.1240
    1W        W40790   8.008  27.698   8.458  0.0158  0.2042  0.2968
    1W        W40791  22.364  18.145   0.770  0.2237  0.0158 -0.2734
    1W        W40792   0.688   4.376   8.335 -0.0593 -0.1267  0.0846
    1W        W40793  10.154   5.909   9.941  0.1351  0.1635 -0.1733
    1W        W40794   0.796  12.932   6.081 -0.3472  0.2093  0.1134
    1W        W40795  12.499   9.379   0.251  0.0628 -0.2285 -0.0096
    1W        W40796  13.192  14.221   8.659 -0.0154 -0.1984 -0.0149
    1W        W40797  24.516   6.851   0.030  0.2352  0.1361 -0.0228
    1W        W40798  14.610   0.802   3.019  0.2730 -0.1488 -0.0391
    1W        W40799  19.526  26.076   3.631 -0.3182 -0.2297  0.1581
    1W        W40800  23.859   6.865   5.902 -0.0781  0.1201 -0.0194
    1W        W40801  18.545   8.314   0.061 -0.0855  0.1019  0.1517
    1W        W40802  27.747  27.575   7.517  0.0959 -0.4641  0.3554
    1W        W40803  26.944   2.247   2.220 -0.0829  0.1636 -0.0509
    1W        W40804  17.184  16.867   1.439 -0.0634 -0.3231  0.1585
    1W        W40805  22.178   5.214   7.258  0.1548 -0.0080  0.4131
    1W        W40806   3.430  22.363   1.104  0.1069 -0.0129 -0.0794
    1W        W40807  12.062  13.581   7.794 -0.0019 -0.0943  0.0419
    1W        W40808  21.890  12.738   2.732  0.0766  0.0452 -0.0502
    1W        W40809  19.226   1.495   5.919 -0.0523  0.2223 -0.0538
    1W        W40810  26.878  17.030   1.699 -0.1332  0.3316  0.0255
    1W        W40811   7.508   0.831   2.916  0.0856  0.0943 -0.3082
    1W        W40812  26.738  11.356   0.905 -0.1375 -0.0212  0.1144
    1W        W40813  27.866  23.611   9.014  0.2165  0.0327  0.0775
    1W        W40814  18.780   5.269   9.588  0.2046  0.1379  0.0209
    1W        W40815  15.810   3.908   7.305 -0.1087 -0.2178 -0.0276
    1W        W40816  25.069   5.033   9.122  0.1387  0.0721  0.2924
    1W        W40817  20.991  26.422   0.177 -0.2104  0.1928  0.0485
    1W        W40818   3.511  10.047   8.271 -0.2609  0.0336 -0.2189
    1W        W40819  10.886  15.202   9.357  0.0935 -0.4010  0.2256
    1W        W40820   9.082   3.179   0.276 -0.1281 -0.1676 -0.0941
    1W        W40821   4.669   7.227   9.519 -0.0152 -0.0311 -0.0185
    1W        W40822  13.850  26.509   0.718  0.0772  0.1156  0.2477
    1W        W40823  26.736  26.055   2.024 -0.2527  0.2405 -0.0358
    1W        W40824   0.120   8.213   1.854  0.3275  0.1770  0.4266
    1W        W40825  20.745  27.277   1.150  0.2413  0.2391  0.0239
    1W        W40826  17.183  26.467   9.038 -0.0840 -0.1359 -0.1075
    1W        W40827   4.172  20.326   6.282 -0.0788  0.0739 -0.0718
    1W        W40828  21.258   4.051   0.269  0.0421 -0.1516  0.0476
    1W        W40829  13.265  21.728   1.147 -0.0278  0.1203  0.0496
    1W        W40830   2.414  18.641   1.000  0.2237 -0.0772 -0.1433
    1W        W40831   1.769   5.536   7.753  0.0417 -0.0148  0.1076
    1W        W40832  27.284   0.204   0.291  0.0003  0.0857  0.2272
    1W        W40833  11.776  25.502   2.042  0.4654  0.0404 -0.3359
    1W        W40834  26.588  28.014   2.464 -0.1225 -0.0320  0.0983
    1W        W40835   4.873  14.288   6.206 -0.1264 -0.2002 -0.1022
    1W        W40836  18.713  14.958   1.941  0.2056 -0.0172  0.0956
    1W        W40837  19.881  12.546   7.912  0.0237 -0.3575  0.4637
    1W        W40838  19.715  15.549   7.949 -0.1751  0.1935  0.2489
    1W        W40839  18.384   3.143   7.074  0.4586  0.4463 -0.0071
    1W        W40840  21.753   6.556   7.330  0.1365  0.2403 -0.1204
    1W        W40841  17.115  19.193   2.650  0.1007 -0.0272 -0.0347
    1W        W40842  11.780   5.552   0.194  0.2314 -0.2332 -0.4681
    1W        W40843   7.077   5.316   8.015  0.2162 -0.0033  0.2344
    1W        W40844  16.369  28.719   0.288  0.4775  0.2867  0.1876
    1W        W40845  24.597  22.459   2.463 -0.4170  0.1050 -0.0083
    1W        W40846  12.177  25.833   9.959  0.0818 -0.1851  0.0033
    1W        W40847  16.648   1.210   6.886 -0.0678 -0.0703 -0.0689
    1W        W40848   0.823   7.256   3.066 -0.0845 -0.2136 -0.0065
    1W        W40849   2.758   0.121   2.821  0.0837  0.3612  0.0158
    1W        W40850   4.106  28.525   6.817 -0.2228  0.0204  0.0050
    1W        W40851   4.079  12.173   7.736 -0.1804  0.1743  0.0021
    1W        W40852  23.105  15.098   1.281 -0.4180  0.0768 -0.1936
    1W        W40853   9.757   5.027   3.440  0.2567 -0.1491  0.1163
    1W        W40854  11.883  23.274   3.812  0.0959  0.1527 -0.0011
    1W        W40855  21.683  24.905   9.261 -0.0691  0.0664  0.2374
    1W        W40856  20.844  23.652   7.808 -0.1313 -0.0857  0.2515
    1W        W40857   8.136  22.534   2.243 -0.1323 -0.0700  0.1500
    1W        W40858  19.732   8.608   0.731  0.0140  0.2805  0.3824
    1W        W40859   9.301   0.482   2.054  0.2872 -0.0125 -0.0286
    1W        W40860   8.557  13.514   8.496  0.0377  0.0814 -0.0035
    1W        W40861  28.535   6.060   2.220 -0.0193  0.1546  0.0422
    1W        W40862  17.568  25.960   6.758 -0.0523 -0.0452 -0.2567
    1W        W40863  22.334  21.994   2.323  0.0969 -0.2447 -0.1997
    1W        W40864   2.827  11.067   6.895 -0.1417  0.1946  0.1832
    1W        W40865   0.270  26.472   0.625 -0.1005  0.0715 -0.0104
    1W        W40866  20.842  11.107   8.609 -0.1053 -0.1890 -0.0034
    1W        W40867  10.842  14.114   0.711  0.0024  0.3410  0.2697
    1W        W40868   9.731  22.365   0.177  0.1437 -0.0979 -0.2507
    1W        W40869   0.636   8.751   0.887 -0.0966 -0.0505 -0.0753
    1W        W40870  25.135  17.874   1.287 -0.2629  0.0900 -0.3670
    1W        W40871  24.267   7.587   8.766  0.1733 -0.1278 -0.2371
    1W        W40872  10.825  25.277   6.106  0.3345 -0.2662  0.1206
    1W        W40873   1.306  14.373   6.832  0.0246  0.0810  0.1621
    1W        W40874   9.953  17.999   2.782  0.0772  0.2239 -0.1399
    1W        W40875  20.239   4.595   8.088  0.0992 -0.0550 -0.2389
    1W        W40876  11.640  14.941   1.926  0.0554  0.1289  0.0237
    1W        W40877  13.851   0.372   8.248  0.0087 -0.2017  0.1621
    1W        W40878  20.664  15.034   9.083 -0.0252 -0.4179  0.0262
    1W        W40879  14.800   0.651   3.484  0.3127 -0.0521  0.1578
    1W        W40880  15.470  20.130   2.820  0.2436  0.0026  0.3216
    1W        W40881  27.023  28.194   3.244 -0.1256 -0.0037 -0.1375
    1W        W40882  15.948  12.571   9.759 -0.3481 -0.2615 -0.0103
    1W        W40883  21.805  19.732   7.509 -0.2824  0.0883  0.0364
    1W        W40884   1.002  16.889   1.774 -0.2562  0.1089 -0.0390
    1W        W40885   9.204   7.423   6.867  0.0052 -0.0425  0.1140
    1W        W40886  15.269  23.016   0.201  0.0191 -0.1123  0.1128
    1W        W40887  19.011  17.080   2.525  0.2724  0.2050 -0.2517
    1W        W40888   2.940  14.176   7.743 -0.2599 -0.2786 -0.3532
    1W        W40889   1.637   1.084   7.234  0.0605  0.1199 -0.2244
    1W        W40890   8.128  11.697   9.953  0.2755 -0.2210  0.0841
    1W        W40891  20.607  10.323   6.680 -0.1298 -0.1898 -0.2139
    1W        W40892  14.093  28.122   2.229  0.1386  0.2282 -0.2656
    1W        W40893  16.478   8.366   2.414  0.2680 -0.2518 -0.0808
    1W        W40894  21.034  11.475   1.229  0.1420  0.2516 -0.2017
    1W        W40895  13.146   1.650   8.868  0.0593  0.0313 -0.0197
    1W        W40896  10.225  18.450   9.574 -0.2814 -0.0406  0.1275
    1W        W40897  11.300  10.891   8.685 -0.0796  0.3470  0.0779
    1W        W40898  21.853  20.476   0.624  0.2364 -0.0981 -0.1924
    1W        W40899  20.058  13.790   6.996 -0.1024 -0.1811 -0.1268
    1W        W40900  18.933  26.847   6.719 -0.0802  0.1626 -0.0273
    1W        W40901   8.646  27.339   1.032  0.0527 -0.0345 -0.1563
    1W        W40902   3.498   3.658   9.629 -0.2263 -0.4068  0.0006
    1W        W40903  19.072  19.218   2.844 -0.0194 -0.0565  0.0948
    1W        W40904  16.998  17.734   1.908  0.2071  0.1921 -0.2708
    1W        W40905   6.513  17.526   9.660 -0.1760  0.1929  0.2753
    1W        W40906   1.428  24.494   9.768  0.1501  0.0296  0.0344
    1W        W40907   6.098  10.006   0.567  0.1811  0.0253  0.2323
    1W        W40908  20.154   5.498   7.289  0.1756  0.0212 -0.0791
    1W        W40909  20.625   5.629   0.468  0.1865 -0.2169  0.2437
    1W        W40910  17.518  19.854   0.735  0.0828  0.2252  0.2517
    1W        W40911  24.624  25.844   6.474 -0.0831 -0.1889 -0.1116
    1W        W40912  18.688  25.045   8.432  0.2218  0.0674  0.2587
    1W        W40913  11.751  20.385   2.033  0.1047  0.0005  0.1091
    1W        W40914  24.593  26.413   6.110 -0.1938  0.2493 -0.0529
    1W        W40915   8.983  18.161   2.615 -0.1094 -0.3640  0.1575
    1W        W40916  14.527  18.714   8.965  0.0698 -0.1181 -0.2071
    1W        W40917   2.784  19.088   2.639 -0.0020  0.2212  0.0092
    1W        W40918  21.662  18.804   9.384  0.3369  0.0678  0.2008
    1W        W40919   4.042   3.933   0.776 -0.1381 -0.1117  0.1820
    1W        W40920  22.505   3.238   7.448 -0.2150  0.1514  0.0317
    1W        W40921  20.651  24.257   8.277 -0.0074  0.0584 -0.0500
    1W        W40922   8.487  14.628   8.368 -0.0158 -0.1312  0.2465
    1W        W40923   0.187   6.270   0.635  0.0609 -0.0102 -0.0085
    1W        W40924   3.715  26.744   0.864  0.3369  0.1679  0.0255
    1W        W40925  18.284  18.042   1.528  0.3322  0.2984  0.0349
    1W        W40926  21.899  27.365   2.809  0.1270 -0.0946  0.0726
    1W        W40927  18.602  12.364   1.530  0.2313 -0.3241  0.1177
    1W        W40928  14.702  27.882   7.628 -0.0198 -0.3433 -0.1635
    1W        W40929   2.745  16.366   8.837  0.0620 -0.0249  0.0384
    1W        W40930   1.423   4.372   7.218 -0.0247  0.1307  0.0373
    1W        W40931  23.536   6.348   0.736  0.1264 -0.0763 -0.1412
    1W        W40932   6.744  21.546   8.292 -0.0770  0.2373 -0.0912
    1W        W40933  28.248   6.947   2.370 -0.2352 -0.1486  0.0015
    1W        W40934  15.205  14.005   2.248 -0.1026 -0.0511 -0.0880
    1W        W40935  10.625  28.615   9.416  0.1227  0.2466  0.3061
    1W        W40936  21.970  20.780   1.207 -0.0794 -0.2510  0.1923
    1W        W40937  24.129  28.058   3.102  0.0488 -0.1135 -0.3439
    1W        W40938   6.370  15.101   6.108  0.1574 -0.0471 -0.3438
    1W        W40939  20.483  12.042   2.563  0.2261 -0.0280  0.0298
    1W        W40940  15.920   1.339   1.452  0.1435 -0.2068 -0.2517
    1W        W40941  17.866  17.772   2.739  0.1514  0.0650  0.3006
    1W        W40942   4.351   2.746   6.549 -0.1435  0.2977  0.0914
    1W        W40943  19.139   6.528   7.887  0.1878  0.0955 -0.1636
    1W        W40944  17.244   4.023   8.151  0.0434  0.3658 -0.0580
    1W        W40945  12.253  24.646   8.841  0.2612 -0.1816 -0.0076
    1W        W40946  20.287  16.089   0.669  0.2116  0.1685  0.1463
    1W        W40947  22.121  22.393   3.710  0.1528 -0.1908 -0.1152
    1W        W40948  14.297   5.266   2.305  0.2232  0.3157  0.1067
    1W        W40949  11.947  27.360   7.989  0.0760 -0.2157  0.0755
    1W        W40950  15.975   9.643   7.967  0.1503  0.0303 -0.2785
    1W        W40951  19.375  16.269   8.976  0.0095  0.0538  0.0033
    1W        W40952   8.657  16.871   0.814 -0.3417 -0.2494 -0.1800
    1W        W40953  27.966   7.567   6.933  0.3171 -0.1985 -0.2899
    1W        W40954   0.363   0.506   1.447 -0.0870 -0.2062  0.1361
    1W        W40955   6.985  13.926   7.555 -0.1337  0.2300  0.0636
    1W        W40956  13.411   6.977   8.056  0.1636  0.0359 -0.0851
    1W        W40957   3.665  16.828   0.487  0.1888  0.1139 -0.1434
    1W        W40958  22.948   1.699   7.344 -0.2063  0.0786 -0.1104
    1W        W40959   0.096  23.696   7.022 -0.4578  0.1270 -0.0721
    1W        W40960   1.871  27.105   8.334  0.0365 -0.0609  0.0677
    1W        W40961  27.093   0.517   1.664 -0.0577 -0.0436  0.1594
    1W        W40962   3.979  21.298   8.326  0.2276  0.2739  0.3330
    1W        W40963  19.755   8.079   8.680 -0.2575  0.0965  0.3376
    1W        W40964  26.558   0.061   7.303 -0.3319 -0.0760  0.0229
    1W        W40965  20.249  26.888   8.100  0.0468 -0.1004 -0.0391
    1W        W40966  17.160  13.312   9.918 -0.0187  0.3276  0.1433
    1W        W40967   4.655   7.555   8.461  0.2391 -0.2057 -0.0334
    1W        W40968  18.062   8.060   2.070 -0.0137 -0.1444  0.0072
    1W        W40969  19.669   5.295   0.956  0.1226  0.1278 -0.1401
    1W        W40970  16.518  22.421   7.686  0.0536 -0.0680 -0.0402
    1W        W40971   6.186  24.331   0.797 -0.1360  0.1891 -0.4686
    1W        W40972  10.287  28.687   9.827  0.1455  0.3456  0.2602
    1W        W40973   0.266  25.876   1.981  0.2657  0.0277  0.3864
    1W        W40974  18.398  18.726   8.231  0.2881 -0.0499  0.2002
    1W        W40975  13.039  10.271   1.392  0.0744  0.2437  0.1843
    1W        W40976  11.149  20.948   2.621  0.1905 -0.0111 -0.1426
    1W        W40977  20.738  25.576   2.056  0.0809 -0.0745 -0.6420
    1W        W40978  26.854   2.411   2.701  0.0492  0.1369 -0.0946
    1W        W40979  28.134  23.069   7.052  0.0221  0.2460 -0.0598
    1W        W40980  26.928  18.120   0.331  0.0137 -0.3260  0.0752
    1W        W40981  21.160  16.254   0.473 -0.0950  0.2727  0.0329
    1W        W40982  16.365  11.257   2.108 -0.2690  0.2898  0.0775
    1W        W40983  17.301  24.229   9.480 -0.1185  0.1568 -0.1200
    1W        W40984   9.178  20.680   9.814 -0.1597 -0.4233  0.0621
    1W        W40985  10.394   1.964   2.156 -0.0877  0.0176 -0.0774
    1W        W40986  15.478  24.986   3.379  0.0551  0.2037  0.0788
    1W        W40987  21.921  10.891   8.046 -0.1421  0.2002  0.0563
    1W        W40988  28.025  26.367   1.079 -0.1229 -0.1427 -0.0009
    1W        W40989   8.458   5.705   1.211  0.0575 -0.2789 -0.0296
    1W        W40990  16.416  12.051   2.580  0.0140 -0.0872 -0.0737
    1W        W40991   4.860   3.492   9.591 -0.0472  0.0270  0.0125
    1W        W40992   8.257  21.346   1.702  0.0408  0.2405  0.2118
    1W        W40993  22.198  24.982   1.993  0.0107  0.1578 -0.0114
    1W        W40994   4.700  20.932   6.912  0.1442  0.1642  0.2333
    1W        W40995   8.141  12.432   9.028 -0.1113  0.0610  0.0119
    1W        W40996  12.488  20.049   8.221 -0.2550  0.0718  0.0806
    1W        W40997  18.981  22.359   1.517 -0.4188 -0.1359 -0.3080
    1W        W40998  12.567   3.814   9.460 -0.0689  0.0870  0.0979
    1W        W40999  22.274   3.162   7.899  0.3364 -0.1029 -0.0242
    1W        W41000  17.883  25.931   9.582 -0.0753  0.3166 -0.1678
    1W        W41001   1.559  10.956   7.527  0.0723 -0.2535  0.0263
    1W        W41002   5.022  15.876   0.732 -0.1487  0.0035 -0.1888
    1W        W41003  13.357   2.264   1.758  0.3761 -0.0115 -0.1792
    1W        W41004  24.615  25.200   7.258 -0.0964  0.2310 -0.1106
    1W        W41005  12.134  23.364   8.416 -0.0530  0.1655 -0.2752
    1W        W41006   7.256  26.100   7.960 -0.1472 -0.3348 -0.0641
    1W        W41007   5.761  19.426   6.429 -0.4666  0.2443 -0.3049
    1W        W41008  16.218  22.066   1.644 -0.1173 -0.1374  0.1156
    1W        W41009  10.190  10.689   8.441  0.0060  0.2498 -0.1834
    1W        W41010   7.639  10.250   1.810  0.2335 -0.0735  0.0202
    1W        W41011   9.988   9.819   1.579  0.2828  0.3498  0.0428
    1W        W41012  12.366  18.129   0.342  0.0463  0.0202 -0.1118
    1W        W41013  19.224   0.203   8.439  0.1349 -0.0109 -0.2563
    1W        W41014   8.580   1.746   1.643 -0.0961  0.2987 -0.4555
    1W        W41015  12.567   2.924   0.747  0.0100 -0.0227  0.0811
    1W        W41016   4.770  15.021   9.043  0.2095  0.1541 -0.2303
    1W        W41017  13.567  22.755   1.428  0.1151  0.0424  0.0885
    1W        W41018  24.006  18.065   7.091 -0.1586  0.4038 -0.1522
    1W        W41019  16.748   7.559   9.914 -0.0458  0.1038 -0.0091
    1W        W41020   2.100   2.237   1.802 -0.0566  0.2563 -0.1343
    1W        W41021  11.026   2.083   3.091 -0.0124  0.0704 -0.0464
    1W        W41022   8.312  15.218   9.011  0.0034 -0.0017 -0.0053
    1W        W41023   8.891  24.883   0.541  0.0456  0.0259  0.2960
    1W        W41024  19.419  18.181   2.432 -0.0378 -0.0358  0.2687
    1W        W41025  19.628  12.086   9.675 -0.0472  0.1316  0.0662
    1W        W41026  27.128  20.499   9.045  0.2950 -0.0272  0.1517
    1W        W41027  17.185   6.128   2.236  0.1215 -0.0496 -0.2929
    1W        W41028  17.752   6.502   2.270  0.1071  0.3111  0.4622
    1W        W41029   7.843   8.232   3.403  0.4233 -0.0300  0.0846
    1W        W41030  18.186  18.840   3.345 -0.0496  0.0911  0.1742
    1W        W41031  16.656   3.529   3.981 -0.0721  0.0713 -0.0431
    1W        W41032  23.345  26.045   8.504  0.4058 -0.2969  0.2665
    1W        W41033  14.741  24.494   1.205  0.0555  0.0565 -0.0162
    1W        W41034  14.613  11.745   1.881  0.0580  0.1794 -0.0548
    1W        W41035  16.921   6.201   2.630  0.1431  0.0318  0.1304
    1W        W41036   9.508  20.213   9.855  0.0404  0.1858  0.1006
    1W        W41037  19.318  25.866   7.226 -0.4003  0.0084  0.0904
    1W        W41038   5.443   7.927   8.766 -0.2863  0.2901 -0.2496
    1W        W41039  23.073  23.405   8.148  0.2058 -0.0460  0.1965
    1W        W41040  23.686  15.911   6.433  0.2304  0.0844 -0.0145
    1W        W41041  18.601   5.296   8.611 -0.2140  0.0663  0.2425
    1W        W41042   9.359  18.895   9.570  0.2678 -0.1855  0.2950
    1W        W41043  28.238   4.976   2.377 -0.1518  0.0763 -0.0377
    1W        W41044  14.247  11.366   0.612 -0.1875 -0.4007 -0.2632
    1W        W41045   3.958   0.141   1.942  0.2006  0.0350 -0.0560
    1W        W41046   3.266  22.157   7.938  0.0710  0.2746 -0.2978
    1W        W41047  18.255  11.612   1.705 -0.2768 -0.3209 -0.1211
    1W        W41048  25.219  13.623   0.506  0.2003  0.2341 -0.2203
    1W        W41049   1.791   4.736   2.558 -0.0105 -0.0034 -0.2534
    1W        W41050  22.247  25.488   7.833  0.3303 -0.1173 -0.0437
    1W        W41051  19.639  10.091   0.069 -0.2827  0.0441 -0.1213
    1W        W41052  25.661  12.558   8.498  0.0984  0.0818 -0.3097
    1W        W41053  14.517  20.409   1.532  0.0014  0.3148 -0.0949
    1W        W41054   2.545  13.715   8.196 -0.1433 -0.2176  0.1851
    1W        W41055  27.435  18.414   9.611 -0.2223  0.1358 -0.2501
    1W        W41056  14.315  18.076   8.640  0.0654  0.0386  0.0873
    1W        W41057   1.535  18.226   2.509  0.3289 -0.0288 -0.0939
    1W        W41058  27.401  27.624   9.560  0.0947  0.0518  0.0664
    1W        W41059  27.265  12.652   0.044  0.0201 -0.0973  0.0485
    1W        W41060  15.067  17.021   9.659 -0.3206  0.0381 -0.2293
    1W        W41061  11.995  20.125   8.765 -0.2716 -0.0249 -0.0624
    1W        W41062  27.733   7.582   7.513 -0.1315 -0.1889 -0.3499
    1W        W41063   0.098  15.325   1.789  0.0115 -0.0112  0.2306
    1W        W41064  26.457  21.157   2.182  0.1280  0.0023 -0.4664
    1W        W41065  11.614  18.596   8.539 -0.0839 -0.0505  0.1147
    1W        W41066  19.471  21.589   1.513 -0.1454 -0.1985  0.1642
    1W        W41067  10.949  25.289   1.674 -0.3277 -0.0954  0.0897
    1W        W41068   3.697  28.517   7.735 -0.4461 -0.2558 -0.1111
    1W        W41069   3.010  24.225   5.836  0.0297 -0.0476  0.0381
    1W        W41070  18.168  24.003   0.309 -0.0666  0.1777  0.0464
    1W        W41071   0.692  20.668   8.054  0.3165 -0.2542 -0.1840
    1W        W41072   4.259  26.111   1.478  0.1210 -0.0388 -0.1494
    1W        W41073  16.506   7.850   1.454  0.1428 -0.1735  0.3509
    1W        W41074  16.325   4.292   2.544  0.0637  0.1186  0.0050
    1W        W41075  15.892   8.894   0.932 -0.1286  0.0242  0.0965
    1W        W41076  26.510   7.005   7.446 -0.1121  0.3428 -0.0214
    1W        W41077  14.393   7.784   0.711  0.0606  0.0306  0.0469
    1W        W41078  17.231  25.639   9.667 -0.0453  0.0278  0.1289
    1W        W41079  17.216  10.252   2.322 -0.1980 -0.1541 -0.3917
    1W        W41080  21.110   4.051   2.690  0.1101 -0.0080  0.1476
    1W        W41081   9.540  15.368   1.419  0.1205  0.2632 -0.0650
    1W        W41082   0.014  18.956   6.258  0.1131  0.0348 -0.0702
    1W        W41083  12.065  12.530   2.277 -0.0416 -0.3589  0.3934
    1W        W41084   1.080  13.904   9.020 -0.1024 -0.1134  0.2409
    1W        W41085  23.482  14.493   7.507 -0.1839  0.1027  0.1319
    1W        W41086  28.127  24.612   6.368 -0.1561  0.2748  0.1691
    1W        W41087  28.513   2.489   7.668  0.1305  0.1585 -0.1984
    1W        W41088   4.393  19.148   0.064 -0.0650 -0.1111 -0.1226
    1W        W41089  24.063  13.260   7.998 -0.1491 -0.2784  0.1469
    1W        W41090  18.240  27.867   0.864  0.2901 -0.1996  0.0561
    1W        W41091  18.387  20.294   9.820  0.2027 -0.4204  0.0571
    1W        W41092   6.516  13.960   7.328  0.3424 -0.1028  0.0450
    1W        W41093   1.479  15.553   1.279  0.1599 -0.2994 -0.0428
    1W        W41094   9.859  15.543   1.756  0.0594 -0.1033 -0.0687
    1W        W41095   9.612  19.033   9.122  0.2418  0.1912  0.0522
    1W        W41096  12.955  12.941   0.223 -0.1891  0.0989 -0.1390
    1W        W41097  11.612   3.563   7.988 -0.1533  0.1444 -0.1215
    1W        W41098  14.195  14.231   2.223 -0.1363 -0.1548  0.2801
    1W        W41099  14.989   1.205   0.125  0.0801  0.0007 -0.3566
    1W        W41100  14.718  12.568   0.065 -0.1795  0.1593 -0.0032
    1W        W41101  22.836  10.978   0.943 -0.0148  0.2406 -0.0935
    1W        W41102  13.304  26.987   8.776  0.1530 -0.3242 -0.0082
    1W        W41103  14.155  27.371   2.871  0.1338  0.1877  0.2264
    1W        W41104  26.046  26.970   2.361  0.2494  0.0478 -0.0806
    1W        W41105   3.013  28.220   3.392 -0.1787 -0.1747  0.1309
    1W        W41106  17.627  20.469   8.506  0.1548  0.2285  0.2270
    1W        W41107   8.087  13.335   1.902 -0.0511  0.2838 -0.0899
    1W        W41108   4.547   3.090   2.462 -0.2459  0.2030 -0.2368
    1W        W41109  18.867   8.358   8.746 -0.0566 -0.5151 -0.2879
    1W        W41110  10.493  21.597   5.989 -0.0761 -0.1657 -0.2231
    1W        W41111   2.170  12.584   1.169 -0.0853  0.0665 -0.2556
    1W        W41112  18.290  14.457   1.355  0.0675  0.0873 -0.0984
    1W        W41113   1.505  21.887   8.948 -0.3227 -0.0862 -0.3664
    1W        W41114  15.406   2.586   9.568 -0.1720  0.1952  0.2609
    1W        W41115   6.209  19.718   8.070  0.1430 -0.1995  0.2876
    1W        W41116   2.276   6.288   3.132  0.1796  0.2195  0.0363
    1W        W41117  15.171  13.722   9.007 -0.0860 -0.3410 -0.0106
    1W        W41118  11.837  16.732   7.636 -0.0528 -0.0900  0.0290
    1W        W41119  23.810  14.427   8.174  0.1797  0.0035 -0.1769
    1W        W41120  19.796  22.635   8.888 -0.0821 -0.0319 -0.0037
    1W        W41121  26.002  21.613   1.637 -0.0238  0.1700  0.0725
    1W        W41122   4.028  21.270   7.737 -0.0876  0.1773 -0.0736
    1W        W41123   4.014  20.953   5.571 -0.2643 -0.1869 -0.2566
    1W        W41124  11.169   9.016   9.845 -0.1061 -0.2210  0.2610
    1W        W41125  15.078   6.058   1.364  0.3964  0.0585  0.0436
    1W        W41126   7.005  15.238   8.988 -0.1175 -0.0472  0.0477
    1W        W41127  24.187  15.923   6.195  0.1451 -0.0507  0.0463
    1W        W41128  10.122   6.759   8.020  0.4574  0.0354 -0.1170
    1W        W41129  12.536   8.388   0.103 -0.1775 -0.0075 -0.2378
    1W        W41130  10.469   0.713   3.418  0.0708  0.0498  0.1712
    1W        W41131   8.742   5.128   3.452  0.0463 -0.2220  0.1101
    1W        W41132   5.119  22.277   9.601  0.1471  0.1839  0.1785
    1W        W41133  26.197  26.512   7.252 -0.0454  0.1644 -0.0388
    1W        W41134   6.236   2.762   1.414  0.0489  0.3252 -0.0646
    1W        W41135  14.830  27.007   1.004  0.0583  0.1506  0.0251
    1W        W41136   1.354  17.297   6.730  0.3137  0.3701 -0.0100
    1W        W41137   5.706  17.203   1.388  0.0971 -0.1868 -0.1418
    1W        W41138  11.137  22.488   9.334  0.0778 -0.0533  0.1335
    1W        W41139   8.929   0.108   8.956  0.3175 -0.2464 -0.0660
    1W        W41140  15.002   1.860   9.290  0.2092 -0.0727  0.7132
    1W        W41141  23.123   9.505   2.599 -0.1087 -0.0232  0.2495
    1W        W41142  13.187   3.772   1.553  0.3966  0.0672 -0.3445
    1W        W41143  14.102   4.700   7.770  0.2801  0.0962  0.4991
    1W        W41144  23.012  18.268   7.965  0.0547 -0.0210  0.1513
    1W        W41145  28.255   8.154   2.636  0.1677  0.0698 -0.0999
    1W        W41146   3.276  10.058   0.739 -0.2438  0.1290 -0.0063
    1W        W41147  21.296  19.827   7.671  0.1750  0.0705  0.3932
    1W        W41148  27.428   1.830   6.757 -0.3807 -0.0163 -0.0726
    1W        W41149  19.098  11.784   0.392 -0.1144  0.1302 -0.0452
    1W        W41150   0.493  13.312   6.941 -0.1253  0.0857  0.3574
    1W        W41151  21.408  17.634   7.110 -0.1044 -0.3068  0.0579
    1W        W41152  21.669  18.725   2.699 -0.1439 -0.2241 -0.1546
    1W        W41153  25.660   9.776   7.224 -0.3251 -0.0090 -0.0196
    1W        W41154   6.061  27.539   0.518 -0.1110  0.1579  0.0179
    1W        W41155  18.539   9.268   0.344 -0.1026 -0.0617 -0.3488
    1W        W41156  12.369  11.256   9.302 -0.3018  0.0780  0.1038
    1W        W41157  26.290   0.732   3.867  0.1164  0.1437 -0.3015
    1W        W41158  24.943  23.814   1.482  0.0134  0.1784 -0.2466
    1W        W41159   0.898   5.603   0.648 -0.0725  0.0968 -0.0859
    1W        W41160  14.832  23.877   0.416 -0.2395 -0.0325 -0.2664
    1W        W41161  19.778  19.866   2.752  0.2277  0.0784  0.2896
    1W        W41162   5.822   2.244   2.640  0.2396  0.0268 -0.1167
    1W        W41163   8.321  16.415   8.754  0.0396  0.2053 -0.1383
    1W        W41164  14.889  27.210   3.533 -0.0708 -0.1735  0.0390
    1W        W41165  22.110  12.927   7.993  0.1342  0.1598 -0.2447
    1W        W41166   7.278  27.147   0.738 -0.2038  0.3172  0.3092
    1W        W41167  23.415  27.527   1.439  0.1548  0.0610 -0.3976
    1W        W41168   5.978  21.263   6.097  0.2378  0.0379  0.2549
    1W        W41169  23.732  12.994   1.858  0.1671  0.1062 -0.0136
    1W        W41170  11.819  14.313   9.690  0.1067 -0.2513 -0.2381
    1W        W41171  25.393  21.021   9.953 -0.0799 -0.0115  0.1752
    1W        W41172  22.790   5.277   3.219  0.1269  0.0607  0.0080
    1W        W41173   5.487   1.949   7.304 -0.4269  0.0406 -0.1662
    1W        W41174  26.280  19.828   9.481 -0.0328  0.1860  0.0285
    1W        W41175  27.503  18.175   0.107 -0.0743 -0.4111 -0.0867
    1W        W41176  20.735   0.349   1.003 -0.2557 -0.0502 -0.0994
    1W        W41177  11.321   2.100   0.456 -0.1494  0.0327  0.0070
    1W        W41178  21.962   0.016   3.171 -0.0577 -0.1567  0.0753
    1W        W41179   3.058  17.015   6.680  0.1530 -0.1155 -0.1944
    1W        W41180  13.083  23.238   8.735 -0.1057 -0.1753  0.0803
    1W        W41181  23.492   0.085   7.775 -0.0429 -0.4868  0.0554
    1W        W41182   9.284  21.645   1.638  0.0442 -0.1274 -0.0753
    1W        W41183  20.551  28.409   0.537 -0.2694  0.1680 -0.0574
    1W        W41184  10.981  21.033   3.150 -0.2146  0.0268 -0.2568
    1W        W41185   6.880  14.154   8.477 -0.1869  0.0651  0.2242
    1W        W41186  17.515  16.624   0.926 -0.2018  0.0112 -0.0708
    1W        W41187  17.782   2.554   3.024  0.0922 -0.0849 -0.1256
    1W        W41188  16.584  24.665   0.133  0.1680 -0.0408 -0.1095
    1W        W41189  25.007  11.611   0.134  0.0277 -0.3018 -0.0302
    1W        W41190   1.698  19.636   6.450  0.1584  0.1204 -0.2435
    1W        W41191   1.840   3.704   1.620  0.1798  0.0271 -0.1543
    1W        W41192  18.008  28.705   2.927 -0.2856 -0.1388  0.3637
    1W        W41193  16.336  13.833   1.847 -0.0803 -0.2036  0.0153
    1W        W41194  20.604   2.292   0.775 -0.1080 -0.0678  0.0814
    1W        W41195   7.142  21.979   8.421 -0.3004 -0.0367 -0.3372
    1W        W41196  13.445  25.300   0.028  0.1418  0.0054 -0.2970
    1W        W41197   8.727  21.194   9.030  0.2385  0.1263 -0.3588
    1W        W41198  17.709   2.900   2.651 -0.2817 -0.1101 -0.1186
    1W        W41199  17.288   5.886   2.723  0.0457  0.1798 -0.1806
    1W        W41200  27.382  13.318   6.291 -0.0542  0.0209  0.1494
    1W        W41201   2.043   7.690   1.562 -0.0600 -0.0604  0.0824
    1W        W41202   6.909   0.519   6.696  0.0622 -0.2163 -0.0508
    1W        W41203  19.001  21.861   1.393 -0.3257 -0.1081  0.3843
    1W        W41204   6.608   9.876   0.745  0.2409 -0.3048 -0.1892
    1W        W41205  24.955  24.599   8.777 -0.3892 -0.0755  0.1294
    1W        W41206  20.452   8.866   1.919  0.1501  0.3820 -0.0790
    1W        W41207  12.241   2.567   6.988 -0.1849 -0.1375 -0.1260
    1W        W41208  10.760  10.059   7.769 -0.2236  0.0462 -0.0999
    1W        W41209   2.796  27.962   2.554  0.0630 -0.0388 -0.2169
    1W        W41210   9.922  26.525   7.939 -0.0988 -0.0718  0.1215
    1W        W41211  22.756  19.782   7.944 -0.0415 -0.2360  0.0942
    1W        W41212   7.524  19.745   9.518  0.2834  0.2750  0.0061
    1W        W41213   3.584  17.368   8.424 -0.2182 -0.2081  0.0877
    1W        W41214  18.983  16.100   8.141 -0.1654  0.0266  0.4365
    1W        W41215   0.058   7.296   0.816  0.2271 -0.1564  0.0620
    1W        W41216  24.166  15.542   1.373  0.5848  0.0246  0.3481
    1W        W41217   9.861  16.140   9.471  0.0777 -0.1823  0.2226
    1W        W41218  20.242   8.293   2.431  0.1104 -0.1895 -0.0071
    1W        W41219  27.467  16.127   2.001 -0.0662 -0.0881 -0.3355
    1W        W41220   7.185   4.828   2.968 -0.2241 -0.2926  0.2177
    1W        W41221  20.416  10.571   1.147 -0.2208  0.2620 -0.0467
    1W        W41222  12.648   4.918   1.818 -0.0663  0.1597  0.1974
    1W        W41223  25.106  20.319   2.811 -0.0107 -0.0191 -0.1921
    1W        W41224  11.581   4.312   2.306 -0.1132 -0.1668  0.1868
    1W        W41225  10.890  28.649   0.035  0.0246  0.1453 -0.0526
    1W        W41226  12.517  13.932   8.026  0.1581 -0.1977  0.0941
    1W        W41227   4.389   6.885   0.798  0.2459  0.1206  0.4688
    1W        W41228  27.005  28.363   3.694  0.0783  0.0662 -0.0864
    1W        W41229   5.563  24.716   6.732  0.1444  0.2361  0.3215
    1W        W41230   0.051   1.165   8.032  0.1282  0.1454 -0.0869
    1W        W41231   4.195   2.812   7.505  0.1713 -0.0950 -0.2062
    1W        W41232  25.661  28.140   0.362 -0.0568 -0.1710  0.1870
    1W        W41233  27.606  23.070   1.445  0.1837  0.2637  0.0662
    1W        W41234  10.763   2.225   0.580  0.3516  0.4060 -0.0655
    1W        W41235  21.488  20.439   1.622  0.1482 -0.0700  0.1472
    1W        W41236  13.237  16.917   0.754 -0.0086  0.1907  0.0557
    1W        W41237   8.259  22.286   9.839  0.1545 -0.1186 -0.0156
    1W        W41238  22.003  19.071   2.523 -0.0771  0.1208  0.0546
    1W        W41239  19.875  17.872   8.335 -0.0794 -0.0912 -0.0409
    1W        W41240  15.523   3.408   9.810  0.2664  0.0261  0.2022
    1W        W41241  19.362  18.881   8.524 -0.0337 -0.2224 -0.0473
    1W        W41242  17.371  19.960   0.278 -0.1895  0.3887 -0.0515
    1W        W41243  10.143   8.061   8.646  0.4050 -0.1601  0.2542
    1W        W41244  21.906  10.837   7.552  0.0016 -0.1317  0.0050
    1W        W41245  22.269  21.651   3.334  0.2137  0.0280  0.0891
    1W        W41246  22.233  27.142   0.781 -0.2418  0.1517  0.0789
    1W        W41247   5.118   9.195   9.149  0.1430 -0.2734 -0.1568
    1W        W41248   3.059  26.674   7.885 -0.0603  0.0353 -0.2230
    1W        W41249  21.410  13.548   8.002 -0.2477 -0.0237 -0.4223
    1W        W41250  23.696  26.434   8.186 -0.0750 -0.0843 -0.0537
    1W        W41251   5.399   3.160   8.977  0.3677  0.3730 -0.0067
    1W        W41252  15.820  19.759   0.690 -0.1994  0.2762 -0.0712
    1W        W41253  20.883  12.104   8.418  0.3676  0.4306  0.0110
    1W        W41254   2.978  25.309   9.278 -0.0570  0.2151  0.3265
    1W        W41255  12.086  15.263   1.819 -0.4184 -0.4046 -0.0657
    1W        W41256  15.241  22.582   0.531 -0.1096 -0.1727 -0.1869
    1W        W41257  17.441  10.228   8.166 -0.0398  0.0217  0.0879
    1W        W41258   7.912   8.313   7.978 -0.1726 -0.0086  0.2554
    1W        W41259   3.249  12.647   6.592  0.0931  0.0129  0.0512
    1W        W41260  13.255   6.446   9.730 -0.1124 -0.1517  0.0346
    1W        W41261  10.393  23.212   9.306  0.1000 -0.1446  0.0920
    1W        W41262  11.231  20.754   7.576  0.1903 -0.1520  0.0084
    1W        W41263  20.131  14.273   2.344  0.1211  0.1368 -0.1795
    1W        W41264  13.969   0.378   4.128  0.1165 -0.2077  0.2165
    1W        W41265   6.555  15.164   0.885 -0.1765  0.2374  0.4675
    1W        W41266  27.312   7.627   7.285  0.0236  0.3064  0.1672
    1W        W41267  14.222  28.143   3.102 -0.0535  0.1505 -0.1646
    1W        W41268   8.529   1.694   7.964 -0.0889 -0.4837  0.4599
    1W        W41269   2.898  19.320   0.393  0.3048 -0.3130  0.2416
    1W        W41270  28.548  22.823   7.940 -0.1198 -0.1367  0.1214
    1W        W41271   7.943   6.796   9.321  0.3321 -0.0675 -0.1018
    1W        W41272  10.905  13.435   9.761  0.1092 -0.0970  0.0662
    1W        W41273  10.263   4.277   7.721  0.1736  0.3062  0.3074
    1W        W41274   3.329  11.284   6.896  0.3348 -0.1064  0.0342
    1W        W41275  20.982   4.057   2.147 -0.2496  0.1400 -0.1093
    1W        W41276   0.499  26.211   2.326 -0.0388  0.2753  0.0235
    1W        W41277  26.610  15.280   7.290  0.3226  0.1443  0.3552
    1W        W41278  12.856   3.435   0.965  0.0554  0.0380 -0.1624
    1W        W41279   1.145  26.418   6.466 -0.0897 -0.0466  0.3908
    1W        W41280  28.555  16.364   0.274 -0.1159 -0.1500  0.1593
    1W        W41281  23.267  28.009   1.284 -0.2115  0.1202  0.0487
    1W        W41282  18.519  25.556   8.870  0.5449  0.2955 -0.0807
    1W        W41283  13.263  17.739   0.292 -0.1259  0.4304  0.2624
    1W        W41284   1.693  17.732   5.980  0.1912  0.0092  0.2717
    1W        W41285  19.304  11.552   1.297  0.1927  0.0715 -0.1072
    1W        W41286   2.405   8.718   8.145  0.1073 -0.1994 -0.0247
    1W        W41287  12.512  23.053   2.658  0.0296  0.0904 -0.3806
    1W        W41288   5.237  27.867   0.007 -0.1154 -0.2023  0.1232
    1W        W41289  11.250  18.738   8.157  0.2073  0.5645 -0.0741
    1W        W41290   4.946  15.414   8.789 -0.0591  0.2079 -0.0241
    1W        W41291  20.160  23.598   0.239 -0.2457  0.0917  0.1232
    1W        W41292  18.982   4.733   9.444  0.1839 -0.2478 -0.1362
    1W        W41293   6.550   2.359   1.933 -0.4220  0.1386 -0.1157
    1W        W41294   2.113   0.793   1.553  0.0647 -0.3059  0.2176
    1W        W41295  11.475  28.484   8.819 -0.0173  0.2426  0.0966
    1W        W41296   1.239  23.294   7.411  0.2950 -0.1088  0.2786
    1W        W41297   1.611  12.127   1.623  0.2008 -0.0991  0.1178
    1W        W41298  22.094  20.597   8.898 -0.0931 -0.3024  0.0531
    1W        W41299  10.085  27.453   9.224 -0.1406  0.2076  0.0964
    1W        W41300  14.769  26.929   7.081  0.1898 -0.2212  0.2869
    1W        W41301  27.465  26.841   6.781  0.0190  0.0864 -0.0656
    1W        W41302   8.355  19.253   0.729  0.0980 -0.1410 -0.0709
    1W        W41303  10.537  17.784   1.481 -0.2881  0.1779  0.1371
    1W        W41304  13.920   7.177   2.738  0.1888  0.1678  0.0226
    1W        W41305  28.565   4.685   1.853  0.2195 -0.1763  0.1486
    1W        W41306  26.903  17.892   7.027  0.2801  0.2060  0.0581
    1W        W41307  25.196  11.051   9.439  0.1250  0.3254 -0.0863
    1W        W41308   0.709  12.136   1.675  0.1028  0.1574 -0.0519
    1W        W41309   3.411  15.179   2.828  0.0596  0.1016  0.0946
    1W        W41310  13.063   3.478   9.951 -0.0549  0.0380  0.0078
    1W        W41311  20.382  26.361   7.937 -0.2130 -0.5000 -0.1124
    1W        W41312  19.905  17.350   9.910 -0.2805 -0.0044 -0.2351
    1W        W41313  15.224  10.208   0.141 -0.1088  0.0234 -0.1969
    1W        W41314  23.711  25.521   3.240  0.0223 -0.2067 -0.1129
    1W        W41315  24.077   3.400   0.452  0.2125 -0.5207 -0.2743
    1W        W41316   5.035   5.972   9.827  0.1096  0.0921 -0.0778
    1W        W41317   8.533  25.677   0.697  0.3950  0.0625 -0.0127
    1W        W41318   0.444  20.364   8.405  0.0859  0.0623 -0.2237
    1W        W41319   0.531   3.636   7.981 -0.0817 -0.1826 -0.0282
    1W        W41320  21.960   1.478   8.652  0.2233 -0.0838  0.2275
    1W        W41321  18.030   6.411   7.834  0.4618  0.0979  0.3296
    1W        W41322  13.266  14.421   7.823 -0.2454  0.0593 -0.1623
    1W        W41323   0.960  25.964   7.614 -0.4039 -0.3104 -0.1452
    1W        W41324   7.463  18.424   8.052 -0.3386 -0.1604 -0.0096
    1W        W41325  19.583  15.205   2.671 -0.2091 -0.0634 -0.1327
    1W        W41326  20.185   0.986   2.919  0.1974  0.0887  0.0801
    1W        W41327   3.868  25.817   1.416  0.0319  0.3112  0.0325
    1W        W41328  17.720  28.587   8.211  0.5064  0.4827  0.2270
    1W        W41329  24.812   4.057   7.594 -0.0731 -0.1339  0.4092
    1W        W41330   5.532   1.671   8.021  0.1741  0.0550 -0.2564
    1W        W41331  26.662  21.922   9.537  0.2602 -0.1910  0.1687
    1W        W41332   7.909  16.862   8.049 -0.0063 -0.2034 -0.1758
    1W        W41333  18.468  17.276   2.181  0.1501  0.1207 -0.0117
    1W        W41334  20.181  22.335   9.649 -0.0822 -0.1314 -0.1299
    1W        W41335  16.086  22.529   8.578 -0.2739 -0.1963 -0.0711
    1W        W41336  15.794  21.233   9.109  0.3434  0.0076  0.0334
    1W        W41337  15.089  12.471   7.820  0.0803 -0.1560 -0.3760
    1W        W41338  23.677   6.929   7.367 -0.1751  0.1615  0.0655
    1W        W41339  17.348  18.841   2.897  0.0744  0.1593 -0.1988
    1W        W41340   2.687  21.087   9.922  0.0347 -0.1882 -0.4473
    1W        W41341  14.015  26.136   8.263  0.0712 -0.0977 -0.1777
    1W        W41342  24.722  11.772   7.769  0.2510  0.3316 -0.0538
    1W        W41343   2.664   9.677   7.488 -0.0753  0.1816 -0.0203
    1W        W41344   8.178  17.445   8.088  0.0847  0.1521 -0.1534
    1W        W41345   3.876  10.569   9.433 -0.1118 -0.1136 -0.5569
    1W        W41346  12.799  25.230   3.155  0.3198 -0.0910  0.0799
    1W        W41347  12.108  20.108   1.064 -0.1845  0.2342  0.1060
    1W        W41348  16.679   2.808   3.694 -0.2786 -0.0455 -0.0491
    1W        W41349  12.470  15.142   2.320 -0.1438 -0.2649  0.0009
    1W        W41350  10.690  11.088   2.375  0.2434 -0.0750  0.0603
    1W        W41351  13.377  24.919   8.163 -0.1826 -0.0346 -0.0936
    1W        W41352  26.395  16.255   1.434 -0.0814  0.1658 -0.1752
    1W        W41353  27.706  16.413   2.348  0.2528 -0.4400 -0.0404
    1W        W41354  13.914   8.329   2.749 -0.2621  0.5568 -0.0196
    1W        W41355  16.216  20.064   0.501 -0.1463  0.0879 -0.1534
    1W        W41356  13.914  24.734   9.718 -0.0367 -0.0076  0.0742
    1W        W41357   5.189  19.817   1.423  0.1777  0.0282  0.1664
    1W        W41358  10.320   6.090   6.874  0.1868 -0.0986  0.1608
    1W        W41359   8.693  16.202   6.628 -0.2189  0.0830 -0.0051
    1W        W41360   4.187   2.657   9.866 -0.1340 -0.0598 -0.3552
    1W        W41361  24.650   8.426   7.030  0.2229 -0.0469 -0.0997
    1W        W41362  10.384  10.943   1.536  0.0975  0.1105  0.1205
    1W        W41363   4.146  19.946   7.427  0.0617  0.1979  0.3545
    1W        W41364  23.696  27.057   2.933 -0.0543  0.0908  0.2495
    1W        W41365  26.281  12.066   6.036  0.1842 -0.1306  0.0557
    1W        W41366   5.666   1.322   2.918 -0.1319  0.0762  0.1233
    1W        W41367  18.477  26.079   8.969  0.2784  0.2358 -0.2560
    1W        W41368   5.904  11.443   8.236  0.2205  0.2808  0.1110
    1W        W41369  27.336   2.729   1.421 -0.0613  0.0441 -0.1261
    1W        W41370  18.977   2.299   7.934  0.3498 -0.1782  0.2347
    1W        W41371  19.555  13.220   2.857  0.0069  0.1454 -0.0889
    1W        W41372  26.848   4.269   2.068 -0.2992 -0.0773  0.1881
    1W        W41373   7.410   2.441   9.050 -0.0567 -0.3202 -0.1159
    1W        W41374  16.030  23.165   3.291 -0.0573 -0.1426 -0.0176
    1W        W41375   4.984  28.320   8.532 -0.1325 -0.1715  0.0171
    1W        W41376   1.752  17.984   2.982  0.1216 -0.0163 -0.1805
    1W        W41377  15.774  12.295   8.462  0.4539 -0.1992  0.0030
    1W        W41378  25.515  26.643   2.382 -0.1191 -0.2651 -0.1367
    1W        W41379  15.122  17.199   0.625 -0.1157 -0.1673 -0.2011
    1W        W41380  22.406  15.511   7.190 -0.2300  0.0700 -0.0378
    1W        W41381  16.485  18.215   0.735  0.3194  0.0237 -0.0149
    1W        W41382  24.788  21.613   8.129  0.3801 -0.2131 -0.2809
    1W        W41383  16.900  18.507   0.699  0.1501 -0.3369 -0.2582
    1W        W41384   4.851  18.097   7.255 -0.2350 -0.0622 -0.0745
    1W        W41385   7.704  16.799   9.790  0.0932  0.0059  0.3240
    1W        W41386  15.177  26.329   9.541 -0.1673  0.0470 -0.0735
    1W        W41387   2.010   2.949   1.680  0.0574  0.2693 -0.0141
    1W        W41388  28.248   2.444   7.281 -0.2771 -0.3556  0.1751
    1W        W41389  14.790  14.231   2.381 -0.1550  0.1450 -0.0993
    1W        W41390  25.160   3.163   6.891  0.0756  0.0330 -0.0860
    1W        W41391  23.969   1.110   2.390  0.0624 -0.1444 -0.0382
    1W        W41392  24.557  15.106   9.486  0.1187  0.0024 -0.1097
    1W        W41393   9.675   7.275   9.458 -0.5229  0.0848 -0.0722
    1W        W41394  21.643  12.883   0.462  0.1321 -0.0934  0.0764
    1W        W41395  28.705  12.156   0.878 -0.1676  0.4432 -0.1424
    1W        W41396   2.724  12.223   2.386 -0.0550 -0.3887  0.0178
    1W        W41397  22.447  21.246   3.006  0.0332 -0.0342 -0.0346
    1W        W41398   6.912  23.018   0.458 -0.1246 -0.2730  0.0966
    1W        W41399  15.327  28.655   4.290 -0.0265 -0.3276  0.1120
    1W        W41400  28.355   3.201   2.156 -0.1995 -0.1668  0.2398
    1W        W41401   5.801   1.167   8.040 -0.0514  0.1926 -0.0612
    1W        W41402  17.868  10.863   7.880  0.1328  0.1827  0.0654
    1W        W41403  26.892  10.729   8.344  0.0510  0.0024  0.0633
    1W        W41404  16.417  25.873   2.124  0.0772 -0.1078  0.0850
    1W        W41405  16.185  10.602   7.759 -0.1001 -0.0230  0.0467
    1W        W41406  13.288  27.785   8.780 -0.1116  0.0114 -0.0926
    1W        W41407  15.926   2.038   6.784  0.3768 -0.2299  0.2696
    1W        W41408  12.321  16.025   7.536 -0.1563  0.0230 -0.2542
    1W        W41409  20.289   2.428   0.272 -0.1914  0.0446  0.3343
    1W        W41410   5.702  24.564   1.658  0.2893  0.0296  0.0295
    1W        W41411   1.978  17.876   8.267 -0.2390  0.0668 -0.1632
    1W        W41412  28.105  20.372   1.065 -0.1481 -0.0042  0.0872
    1W        W41413  19.075  24.974   8.156  0.1474 -0.1071 -0.0023
    1W        W41414   8.490  25.401   1.592 -0.0863 -0.0795 -0.1973
    1W        W41415   5.160  16.494   2.506  0.0677 -0.1702 -0.1561
    1W        W41416  13.252   2.968   2.152 -0.4096  0.1907  0.0361
    1W        W41417  17.272   6.172   1.421  0.0915  0.1984  0.0198
    1W        W41418   5.681   8.609   1.757 -0.4353  0.1447 -0.3451
    1W        W41419   5.348  14.469   2.497 -0.0593 -0.0398  0.1962
    1W        W41420  21.622   3.335   0.799  0.0134 -0.2112 -0.1499
    1W        W41421   2.040  18.665   6.025 -0.1145 -0.2530  0.0538
    1W        W41422   6.737   2.640   8.104  0.2334 -0.1895  0.2123
    1W        W41423   9.046  26.371   8.748  0.2711  0.0489 -0.2793
    1W        W41424  28.498   1.295   0.914  0.1260  0.1661 -0.2839
    1W        W41425   9.639  16.332   1.518  0.5963  0.2271  0.2406
    1W        W41426  14.980  13.616   2.057 -0.0996 -0.1233  0.0787
    1W        W41427  11.696  11.414   9.850 -0.0131  0.1889 -0.2615
    1W        W41428  20.501   0.228   1.502 -0.0298  0.3032 -0.1625
    1W        W41429  27.432  25.202   8.343  0.1104 -0.0898 -0.0573
    1W        W41430   7.852  17.752   8.488  0.2930 -0.3399  0.2423
    1W        W41431  22.570   4.316   0.245  0.1665 -0.0127  0.0116
    1W        W41432   7.739   3.322   2.435 -0.1168  0.2903 -0.0062
    1W        W41433  12.045   0.510   0.191  0.3408  0.0995  0.0273
    1W        W41434   2.221  15.206   9.765  0.0917 -0.0797  0.3571
    1W        W41435  23.323   2.477   9.887  0.0650  0.1723 -0.0021
    1W        W41436  25.504  24.477   3.043  0.1712  0.3565  0.1608
    1W        W41437   7.740   5.380   7.214  0.4815 -0.0263 -0.5822
    1W        W41438   1.838  26.997   6.983 -0.0739  0.1899  0.1149
    1W        W41439   7.454   0.934   7.850  0.1979  0.0896 -0.1532
    1W        W41440   7.500  28.318   8.767  0.0970 -0.0742 -0.0603
    1W        W41441   6.484   8.988   3.182 -0.0621 -0.2475 -0.0216
    1W        W41442   4.321  13.782   9.444  0.0252  0.1338 -0.1926
    1W        W41443  23.545   3.722   2.071  0.0101 -0.2562 -0.0634
    1W        W41444  24.846   9.767   6.624 -0.3064 -0.1096  0.2050
    1W        W41445   9.968   5.779   0.661 -0.0264 -0.2438  0.0524
    1W        W41446   7.383  10.848   8.533  0.1468 -0.2941  0.0548
    1W        W41447   2.772  27.821   9.644 -0.0132  0.2389 -0.2241
    1W        W41448  23.722  18.436   1.079 -0.0439 -0.2847  0.0059
    1W        W41449   4.302   2.203   0.857  0.1587  0.4106  0.0869
    1W        W41450   8.773  12.590   1.587 -0.1390  0.2832  0.0837
    1W        W41451  23.297   6.132   3.603  0.4076 -0.1130  0.1494
    1W        W41452   9.586  24.589   1.701  0.1626  0.2539 -0.2888
    1W        W41453  20.835  21.263   7.172 -0.0574 -0.2847 -0.3923
    1W        W41454  11.243  27.728   7.993  0.0966 -0.0441 -0.0882
    1W        W41455  15.322  20.594   0.688  0.1878  0.3560 -0.0412
    1W        W41456  11.234  19.638   7.829 -0.0960 -0.2023  0.2641
    1W        W41457  11.385  12.019   7.740 -0.0505  0.0403 -0.0018
    1W        W41458   3.623  14.228   2.211 -0.1006 -0.3801  0.0922
    1W        W41459  12.062   2.977   0.791  0.0911  0.0785  0.2119
    1W        W41460  19.546  19.580   2.328  0.4014  0.1804  0.1491
    1W        W41461   4.107   3.195   7.011  0.0705  0.1785  0.1029
    1W        W41462   1.612  13.064   9.853 -0.2064  0.0561 -0.0462
    1W        W41463  28.107   4.363   6.546 -0.0819 -0.1113  0.0788
    1W        W41464  21.241  26.978   2.450 -0.0209  0.0353 -0.0651
    1W        W41465  16.205   6.258   1.922  0.1893 -0.2715  0.1328
    1W        W41466   0.216  22.783   7.293 -0.0635  0.2266  0.1262
    1W        W41467  18.607   1.743   8.943  0.0447 -0.1735 -0.1948
    1W        W41468   3.486  10.975   8.323 -0.0568  0.1528  0.0035
    1W        W41469  22.290  21.098   8.736  0.1502 -0.0671  0.1154
    1W        W41470  16.367  21.546   1.763  0.0758 -0.4525 -0.0717
    1W        W41471  15.320  17.918   2.023 -0.1527 -0.0729  0.0306
    1W        W41472  16.553  14.891   0.986  0.1250 -0.1910  0.3361
    1W        W41473  18.415  16.017   2.689 -0.1602 -0.0334 -0.4271
    1W        W41474  25.809  18.241   8.981  0.3938 -0.3175 -0.0614
    1W        W41475  23.726   0.216   1.264  0.4126  0.3483  0.1999
    1W        W41476  11.923   5.926   8.778 -0.1386 -0.2639  0.0822
    1W        W41477  11.710  23.674   2.377  0.3692  0.1613  0.4391
    1W        W41478  14.685   0.619   0.516  0.2368 -0.3299 -0.2421
    1W        W41479  23.773   2.642   2.489  0.0988 -0.0244 -0.0280
    1W        W41480   1.344   5.971   2.279 -0.1282 -0.0633  0.1242
    1W        W41481   8.828   4.891   1.564 -0.1042  0.2019 -0.0264
    1W        W41482  22.841  25.630   9.350  0.0984  0.1038 -0.0792
    1W        W41483  11.427  15.732   0.364 -0.0298 -0.2288  0.0826
    1W        W41484  21.091  13.162   8.269  0.1466 -0.0356 -0.2998
    1W        W41485  12.223  27.819   8.938 -0.0215 -0.3915 -0.5781
    1W        W41486  24.885   1.976   1.481 -0.1591  0.0524  0.0219
    1W        W41487   2.985  11.899   9.086  0.2817 -0.1684  0.2664
    1W        W41488  20.099   2.852   9.806  0.0876  0.0922  0.1015
    1W        W41489  17.338   5.731   4.277  0.3236 -0.0810 -0.1059
    1W        W41490   2.710   5.170   7.186 -0.0135  0.1239  0.0963
    1W        W41491  10.580  17.494   1.969  0.0032  0.0390  0.1688
    1W        W41492   9.886  24.630   9.379  0.0830 -0.2797  0.0688
    1W        W41493   1.654   5.340   6.919  0.2298 -0.0928  0.0494
    1W        W41494   5.185  25.070   7.408 -0.2872 -0.0215 -0.0816
    1W        W41495  21.918  10.240   2.600  0.0739  0.2395  0.0959
    1W        W41496  12.443  15.184   1.364  0.1027 -0.0038  0.2766
    1W        W41497  20.940  17.490   1.708 -0.1953 -0.2074  0.1800
    1W        W41498  25.197  10.346   6.145 -0.1111  0.0777 -0.1198
    1W        W41499   5.251   2.761   1.577  0.0617  0.2995 -0.1142
    1W        W41500  12.481  23.446   1.892  0.1916  0.0824 -0.0692
    1W        W41501  13.175  21.869   9.155  0.0122 -0.0855 -0.2460
    1W        W41502   8.634  17.564   7.890  0.3175 -0.2021 -0.1589
    1W        W41503  18.483  24.032   0.735  0.2682 -0.1566 -0.2115
    1W        W41504  23.569   6.718   9.417 -0.0914 -0.1056 -0.0884
    1W        W41505  11.353   6.935   0.262 -0.1465 -0.1027 -0.0152
    1W        W41506  20.846   7.334   1.357 -0.0480  0.3082  0.3185
    1W        W41507   0.266   5.165   9.238  0.0612  0.0502  0.0801
    1W        W41508   3.987  14.151   7.546 -0.0216  0.2699  0.1247
    1W        W41509   1.048  11.590   6.636 -0.0306 -0.1070 -0.0990
    1W        W41510  20.614  17.295   7.925 -0.0956 -0.1264  0.0143
    1W        W41511  25.174  19.992   9.017  0.2382 -0.1951  0.0424
    1W        W41512   9.082  16.426   1.530 -0.1136 -0.1350 -0.1764
    1W        W41513   5.539  11.289   1.481  0.1655  0.2486 -0.1568
    1W        W41514  17.123  27.492   8.241  0.1284  0.0511 -0.0332
    1W        W41515  27.143   8.784   0.201 -0.1481  0.0577  0.1304
    1W        W41516  18.531   6.803   8.582  0.1411 -0.1993  0.1120
    1W        W41517  12.864  10.584   9.900 -0.0315  0.3760  0.0918
    1W        W41518  14.298   0.303   0.148 -0.0940 -0.0954 -0.0033
    1W        W41519  16.473   3.373   7.917 -0.1558 -0.0208 -0.2103
    1W        W41520   0.916  18.772   2.364 -0.2065 -0.2278  0.2228
    1W        W41521   7.287   7.991   0.667 -0.1137  0.0179  0.4586
    1W        W41522   0.136   8.338   9.348  0.0519  0.0462  0.0830
    1W        W41523  19.970   9.287   8.898 -0.1473 -0.0771 -0.0061
    1W        W41524  14.049   4.955   8.856  0.0627 -0.2265 -0.0523
    1W        W41525  10.204   4.569   8.659 -0.1193 -0.1045  0.0659
    1W        W41526  10.495   9.115   1.392  0.0852  0.2000  0.0257
    1W        W41527   8.148   3.587   9.003 -0.2626 -0.1303  0.0537
    1W        W41528  10.582  14.145   9.268 -0.1038  0.0209  0.0421
    1W        W41529  10.247   0.452   1.875  0.4851 -0.2948 -0.0220
    1W        W41530   9.847  22.743   7.891  0.0034 -0.2965 -0.1827
    1W        W41531  24.279  14.183   9.213 -0.1617 -0.0035  0.0932
    1W        W41532  23.049  11.730   8.191  0.0118  0.1148  0.0155
    1W        W41533  26.470  10.880   9.785  0.4271  0.0253 -0.0116
    1W        W41534   2.371  21.416   2.593 -0.1577  0.2134 -0.0493
    1W        W41535  13.562   6.527   1.970  0.0208 -0.2292  0.1639
    1W        W41536   9.237  21.725   1.092 -0.0958  0.2440 -0.0618
    1W        W41537  18.321  22.448   0.275 -0.3032 -0.0294 -0.4051
    1W        W41538  26.226  12.981   1.793 -0.0208 -0.5003 -0.1047
    1W        W41539   9.057   8.775   1.510 -0.0298  0.2779 -0.1571
    1W        W41540  28.466   2.152   9.883 -0.0239 -0.1293  0.4173
    1W        W41541   9.936   8.855   0.997 -0.1582  0.3716 -0.0353
    1W        W41542   5.571  10.203   7.238 -0.0048  0.0040  0.1131
    1W        W41543  13.590   5.441   0.034  0.0576 -0.0426  0.1594
    1W        W41544  21.819  17.528   0.308  0.4091 -0.0407 -0.0719
    1W        W41545  26.100   4.952   9.071 -0.0737 -0.1474  0.1069
    1W        W41546   1.339  12.897   7.220 -0.1086 -0.0507 -0.3219
    1W        W41547   0.219  22.221   1.093  0.0849  0.0271 -0.1648
    1W        W41548  14.577   4.509   1.695  0.0890  0.0092  0.0785
    1W        W41549  12.072  16.508   0.917  0.0976 -0.0068  0.1173
    1W        W41550  22.552  23.451   8.693  0.3040 -0.0001 -0.1909
    1W        W41551   5.712  16.743   7.434 -0.1678  0.0267  0.0678
    1W        W41552  22.785   9.845   2.890 -0.1516 -0.2674 -0.1158
    1W        W41553  14.748  14.769   2.272 -0.0246 -0.0368 -0.0468
    1W        W41554  12.849   5.635   0.539  0.0414 -0.1757 -0.2838
    1W        W41555   0.607  16.904   5.572  0.0625  0.0908  0.0797
    1W        W41556  14.411   9.251   9.328  0.0092  0.0690  0.0030
    1W        W41557  23.209  10.292   0.170  0.0783 -0.2898  0.0718
    1W        W41558  11.660  26.354   8.571 -0.2039  0.0979 -0.2459
    1W        W41559  18.159   5.082   1.548  0.1977 -0.0976  0.4870
    1W        W41560   1.285  13.918   7.114 -0.0447  0.3804 -0.1107
    1W        W41561  15.376  11.276   0.689  0.2853 -0.0262  0.2383
    1W        W41562  16.052   3.231   4.594  0.0905  0.0519  0.2331
    1W        W41563   3.839  16.509   6.975  0.0030  0.1717 -0.1337
    1W        W41564  22.119  10.413   8.260 -0.1087  0.2974 -0.0862
    1W        W41565  21.094   7.350   6.964 -0.0963  0.1514  0.2473
    1W        W41566  11.466   5.092   0.124 -0.2367 -0.0606 -0.0133
    1W        W41567   6.738  12.260   2.423  0.1285  0.2904 -0.1639
    1W        W41568  28.691  27.523   7.986  0.1911 -0.1570 -0.0071
    1W        W41569  22.224  27.358   3.731  0.2795 -0.0258 -0.2288
    1W        W41570  13.085   0.254   0.168  0.0382  0.1567 -0.0596
    1W        W41571  15.577   4.854   3.041  0.2021  0.2261  0.0069
    1W        W41572   0.154  11.574   6.560 -0.3722  0.2791 -0.0583
    1W        W41573   7.876   5.186   2.360  0.4016 -0.3034  0.1368
    1W        W41574  14.783  18.389   9.306  0.1315  0.2791  0.0379
    1W        W41575  22.311   3.695   2.048  0.0050  0.1343 -0.1260
    1W        W41576   5.654   1.393   1.674 -0.0125 -0.0362  0.0431
    1W        W41577  16.517  24.712   0.635 -0.1703  0.2245 -0.1689
    1W        W41578  10.115  12.468   9.675 -0.0404 -0.0732  0.0521
    1W        W41579  13.783  24.876   0.221  0.0911 -0.4001  0.2759
    1W        W41580  27.033   3.000   7.721 -0.1912 -0.1612 -0.1148
    1W        W41581   9.401  23.794   8.631  0.3166 -0.2404  0.2407
    1W        W41582  23.215  23.188   7.556  0.0004  0.1278  0.0716
    1W        W41583  27.749  25.944   1.445  0.1593  0.0576  0.1966
    1W        W41584  26.665   7.997   7.816  0.0550  0.0182 -0.5383
    1W        W41585  10.951  22.560   6.758 -0.0956  0.1845  0.0035
    1W        W41586   2.873  17.726   8.730  0.0006  0.1690  0.0411
    1W        W41587  17.623  18.812   9.523  0.0403 -0.1295 -0.0968
    1W        W41588  24.875  22.109   7.817  0.1417 -0.0202 -0.0696
    1W        W41589  27.960   8.145   1.886  0.1628  0.0018  0.0761
    1W        W41590  17.421  11.965   8.240 -0.4169 -0.1145 -0.1540
    1W        W41591  20.078  20.442   0.557 -0.0071  0.1626 -0.0751
    1W        W41592  19.610   9.933   1.361 -0.0525  0.1408 -0.0520
    1W        W41593   4.486   6.383   2.240 -0.1982  0.1825  0.3750
    1W        W41594  15.206   3.590   2.127  0.0508 -0.0248  0.0130
    1W        W41595  19.014  14.683   1.457 -0.0777  0.0080  0.0401
    1W        W41596  16.973  21.761   3.036  0.0258  0.3165 -0.1121
    1W        W41597  15.702   6.224   8.475  0.0771 -0.0739  0.0324
    1W        W41598  16.530  19.191   0.289  0.1457  0.2671  0.1632
    1W        W41599  16.161   0.893   8.966  0.0045 -0.0941 -0.0563
    1W        W41600  11.538  19.855   0.468  0.0935 -0.0883 -0.0917
    1W        W41601  13.300  19.971   8.726  0.2646 -0.1393 -0.2202
    1W        W41602  14.019   9.937   8.584  0.0941  0.1344  0.0141
    1W        W41603   1.999  12.262   9.348  0.0086 -0.1868 -0.1697
    1W        W41604  21.363  17.165   6.825  0.0580  0.2359 -0.0182
    1W        W41605   7.454  26.474   1.749 -0.0739  0.0805 -0.0959
    1W        W41606  10.424  14.997   9.224  0.3265  0.2640  0.2003
    1W        W41607  28.069   1.347   2.045 -0.2946 -0.0312 -0.1136
    1W        W41608   7.352   4.814   7.923  0.0459 -0.1773  0.1812
    1W        W41609  25.250  11.927   0.472  0.0823 -0.0387  0.1256
    1W        W41610  10.665  16.508   2.252 -0.1984 -0.4309 -0.0448
    1W        W41611   2.538  22.077   8.341 -0.0986 -0.1205  0.1991
    1W        W41612  14.974  28.278   7.445 -0.0299  0.0600 -0.3728
    1W        W41613  24.949   4.243   3.182 -0.1270 -0.2158  0.0361
    1W        W41614  21.182   5.033   0.423  0.1379 -0.0698  0.0212
    1W        W41615  15.347   2.474   0.766 -0.2800 -0.2072  0.1301
    1W        W41616  25.502  17.038   9.244  0.0412  0.0786 -0.1093
    1W        W41617   0.077  24.801   7.300  0.1019 -0.0991 -0.1256
    1W        W41618  25.796   5.386   0.706 -0.5243 -0.3161 -0.0169
    1W        W41619  25.963  19.302   9.642  0.4290  0.0987  0.2134
    1W        W41620  14.729  15.599   9.322  0.1669 -0.1130 -0.1556
    1W        W41621   6.218  21.804   9.170 -0.0437 -0.0145 -0.3546
    1W        W41622  24.844  14.948   1.869 -0.4864  0.1166  0.2190
    1W        W41623  19.508   5.307   3.149  0.0402 -0.1211  0.1072
    1W        W41624   4.775   6.412   2.922  0.0968 -0.0070 -0.1236
    1W        W41625  27.618  22.661   7.891 -0.4400 -0.3404  0.2832
    1W        W41626  14.827  23.506   3.444 -0.0008  0.0724  0.1316
    1W        W41627  11.093  25.331   3.384 -0.1156  0.1211 -0.0339
    1W        W41628  14.131  13.997   8.043 -0.1241 -0.1557  0.1148
    1W        W41629  14.217   4.025   3.594 -0.0121 -0.0539 -0.0205
    1W        W41630  27.981  12.792   7.856 -0.3090 -0.0526 -0.2629
    1W        W41631  22.425  16.089   6.873  0.0295 -0.1128 -0.2224
    1W        W41632  12.002  19.529   1.240  0.2033 -0.0844 -0.0363
    1W        W41633  28.649   1.644   7.114 -0.0126 -0.2478  0.2353
    1W        W41634   7.961  27.193   8.251  0.1721 -0.2451 -0.1457
    1W        W41635  23.998  18.518   8.015 -0.1883  0.1490 -0.2495
    1W        W41636   7.091  10.377   1.910  0.0692  0.1432  0.0652
    1W        W41637  15.924  16.951   1.151 -0.1561  0.3253 -0.0635
    1W        W41638  24.809   1.762   8.788 -0.0021  0.1258  0.1293
    1W        W41639  12.626   6.466   1.510 -0.0699  0.0178 -0.2315
    1W        W41640  26.247  25.514   2.463  0.1021  0.0376 -0.3632
    1W        W41641  20.959  27.208   8.944 -0.0005 -0.0976 -0.1639
    1W        W41642  13.768   1.084   7.843 -0.2011  0.2862 -0.1899
    1W        W41643  21.200   7.393   8.225 -0.1864 -0.0657  0.2086
    1W        W41644   2.270   3.179   9.201  0.0243  0.0132  0.2071
    1W        W41645  19.703  12.670   1.575 -0.2273 -0.2644  0.2409
    1W        W41646   3.420   5.103   2.153  0.0348 -0.0861 -0.2004
    1W        W41647  14.459  24.438   3.181 -0.2753  0.3182 -0.2996
    1W        W41648  11.867  27.057   7.602 -0.0798 -0.1063 -0.1022
    1W        W41649  13.959  14.069   9.125  0.0620 -0.1628  0.0450
    1W        W41650   9.415   8.256   9.337  0.0218  0.5226  0.2649
    1W        W41651  23.524  12.663   9.186  0.3367  0.0117  0.0763
    1W        W41652   1.726  24.169   9.935  0.0119  0.0362  0.1953
    1W        W41653  16.900  17.957   3.206  0.0848 -0.0527 -0.3193
    1W        W41654  22.479   9.519   8.408  0.0763  0.0456 -0.1043
    1W        W41655  26.042  25.149   1.692 -0.0223  0.0523  0.0648
    1W        W41656  27.862  26.469   0.313  0.1893 -0.0638  0.1765
    1W        W41657  17.265  27.851   1.397 -0.2034 -0.1136  0.1531
    1W        W41658  11.770  23.932   7.246  0.5026 -0.1427 -0.0946
    1W        W41659  23.894  24.524   0.680 -0.1345 -0.3043 -0.1473
    1W        W41660  28.687  10.697   9.383  0.1070  0.1017 -0.1499
    1W        W41661  19.196   2.916   0.147 -0.1914 -0.0684 -0.1576
    1W        W41662  28.136  11.593   8.692 -0.1223 -0.1298 -0.1955
    1W        W41663  10.597   8.075   9.902  0.0765 -0.0863  0.0731
    1W        W41664  21.795  15.635   9.347 -0.4564  0.0202 -0.1570
    1W        W41665  22.581  15.196   7.807  0.2479  0.0166 -0.0771
    1W        W41666   8.071   4.267   1.788 -0.4334 -0.1179 -0.4361
    1W        W41667  22.875  10.770   8.237 -0.3562  0.5063 -0.0446
    1W        W41668   7.501  27.677   2.605 -0.0708  0.2293  0.0350
    1W        W41669   1.370  22.475   0.154  0.0409  0.0063 -0.0394
    1W        W41670  10.754   0.016   8.411  0.2211  0.3278 -0.0122
    1W        W41671  25.282  22.597   8.606  0.0829  0.0510 -0.3978
    1W        W41672   9.848  18.866   9.595 -0.1914  0.0833 -0.1532
    1W        W41673  26.101  19.480   8.716 -0.0805  0.2625 -0.2481
    1W        W41674  12.322   6.448   7.618 -0.2033 -0.0930 -0.1813
    1W        W41675  21.044  23.213   0.593 -0.1929 -0.1076 -0.2629
    1W        W41676  12.641   4.891   0.971 -0.1107  0.1937  0.0252
    1W        W41677   1.804  19.194   1.337 -0.3939  0.1088 -0.3026
    1W        W41678   5.315  14.545   1.393  0.1074 -0.0919 -0.4264
    1W        W41679   9.393  22.854   1.808  0.0110 -0.0528 -0.1195
    1W        W41680  26.858  26.994   8.486  0.1083 -0.0988 -0.1864
    1W        W41681  16.203  22.199   9.114 -0.0331  0.0094 -0.0335
    1W        W41682   4.559  20.099   6.470 -0.2424 -0.0976  0.2168
    1W        W41683   0.666  27.230   3.181 -0.2104 -0.0351 -0.1515
    1W        W41684   8.978   2.466   9.025  0.0376  0.0391  0.0228
    1W        W41685   2.930  10.017   1.469 -0.0257  0.2486  0.0473
    1W        W41686   1.538  26.757   0.123 -0.2145  0.0740  0.0039
    1W        W41687  15.921  23.660   2.376 -0.2301  0.0460 -0.3201
    1W        W41688  20.106  25.117   7.222 -0.0928  0.3840 -0.2200
    1W        W41689   3.822  10.230   0.811  0.0487  0.2976 -0.0973
    1W        W41690  23.742  27.236   0.919  0.0676  0.1290 -0.0365
    1W        W41691  14.165  25.203   8.680  0.4270  0.0415  0.1287
    1W        W41692  22.158  28.716   8.935  0.2093 -0.0679  0.1635
    1W        W41693  25.750  24.417   6.506 -0.0480 -0.1103  0.2429
    1W        W41694   3.262  18.911   7.981  0.0890  0.0052 -0.2827
    1W        W41695  17.582  17.225   7.974  0.0394  0.0642 -0.1376
    1W        W41696  24.759  11.980   0.424  0.3822  0.0024 -0.0078
    1W        W41697  14.526  13.474   1.160 -0.1725  0.2185 -0.0950
    1W        W41698  24.560   5.992   0.875  0.1562  0.0008  0.1980
    1W        W41699  23.519  26.132   0.215  0.1338  0.2187  0.2988
    1W        W41700  10.528   9.434   7.652  0.2331  0.0675 -0.1996
    1W        W41701  18.584  19.709   7.903 -0.0497  0.0446  0.2867
    1W        W41702   6.318  13.043   0.825 -0.4415  0.2868  0.0057
    1W        W41703  25.961   3.657   2.111  0.0942  0.2181  0.3717
    1W        W41704  11.209  17.894   7.889  0.0150  0.0809  0.0877
    1W        W41705  22.059   0.558   2.095 -0.0416  0.0009 -0.0201
    1W        W41706  28.168   9.149   1.450 -0.2590  0.2069 -0.0592
    1W        W41707   2.075  28.013   1.589 -0.1720  0.1684 -0.1922
    1W        W41708  20.883  27.318   2.524 -0.1570 -0.0404  0.0827
    1W        W41709  21.544  12.828   8.005  0.1320  0.2480 -0.1261
    1W        W41710   6.841  17.887   6.421  0.0151 -0.0514 -0.0363
    1W        W41711   5.384  22.276   1.345  0.2036  0.2901  0.0208
    1W        W41712  14.470   1.392   0.390 -0.1696 -0.0799 -0.3997
    1W        W41713  24.927   2.762   6.676  0.2073  0.2031 -0.1956
    1W        W41714  10.658   7.201   8.575 -0.1321 -0.0759 -0.3457
    1W        W41715   3.555   4.605   9.638  0.1309  0.0771 -0.2837
    1W        W41716  18.697  22.731   0.123  0.1316  0.0147 -0.0896
    1W        W41717  12.754   1.001   9.099 -0.0612  0.1864  0.0938
    1W        W41718  23.420   9.893   8.531  0.0098 -0.1602 -0.2652
    1W        W41719  17.687   6.774   3.076 -0.1246  0.0942 -0.1899
    1W        W41720   7.494   0.567   2.488 -0.1229  0.2677 -0.1487
    1W        W41721  19.891   6.527   9.732  0.4341  0.0036 -0.1836
    1W        W41722  26.331  27.601   2.526  0.0628  0.1870 -0.0243
    1W        W41723  27.533  16.125   7.933  0.0756  0.2441 -0.2275
    1W        W41724  21.304  21.453   7.466 -0.0997 -0.0671 -0.1834
    1W        W41725  11.106  14.178   1.909 -0.0118  0.0701  0.1366
    1W        W41726  24.591   5.848   2.008 -0.0105  0.1925 -0.1376
    1W        W41727  15.771  26.487   8.694  0.1386  0.1550 -0.1904
    1W        W41728  27.142   6.163   1.884 -0.0987  0.1409  0.1611
    1W        W41729   0.551  24.242   6.180  0.0467  0.0049  0.3158
    1W        W41730  12.100   2.640   8.625  0.0046 -0.0128  0.1878
    1W        W41731  19.796   2.601   7.839  0.0541  0.1518  0.1527
    1W        W41732  12.974   8.279   9.782  0.0558 -0.0000 -0.2309
    1W        W41733  26.348   0.333   1.883 -0.0622 -0.0772 -0.2618
    1W        W41734   7.250  11.866   8.467 -0.1783  0.0361  0.2960
    1W        W41735  12.279   4.993   9.315  0.1144  0.1534  0.0265
    1W        W41736   1.182  13.670   1.209  0.1225 -0.0125  0.2038
    1W        W41737  18.909   7.164   3.266 -0.1882  0.0576  0.0887
    1W        W41738   6.862  19.344   6.357 -0.3745 -0.1385 -0.2194
    1W        W41739  18.932   8.702   2.675 -0.1334 -0.2063  0.0379
    1W        W41740  14.076   0.461   7.319 -0.2253  0.1070  0.0338
    1W        W41741   8.087  27.085   7.763 -0.1624  0.0004  0.0659
    1W        W41742  22.792  23.692   0.992  0.0579  0.0930 -0.2194
    1W        W41743  21.108  10.269   9.886  0.1418 -0.0371 -0.0522
    1W        W41744  18.653   6.222   0.124  0.0562  0.2673  0.1574
    1W        W41745   9.528   3.421   2.868 -0.1125 -0.0185  0.1444
    1W        W41746   8.521   1.658   3.989  0.0537 -0.2741  0.0136
    1W        W41747  24.765  15.231   7.707 -0.2734  0.1923 -0.0416
    1W        W41748  23.057  16.880   1.072  0.0862  0.2057  0.3086
    1W        W41749  19.165  14.181   7.402  0.0508  0.0638  0.1899
    1W        W41750  13.268  21.920   0.698 -0.1284  0.2316 -0.2620
    1W        W41751  19.629   5.200   2.691 -0.1195  0.1702  0.0993
    1W        W41752  18.260   3.208   9.263  0.2053 -0.1903 -0.0297
    1W        W41753   5.667   8.313   9.101  0.0880  0.0081 -0.0572
    1W        W41754  26.016  17.596   6.666  0.0202  0.4733 -0.1035
    1W        W41755  19.657  24.047   9.617  0.0104  0.1322 -0.3544
    1W        W41756   1.316  21.295   8.182  0.0112  0.0806  0.0399
    1W        W41757  18.092  23.737   2.947 -0.0844  0.0052 -0.2883
    1W        W41758   1.317  15.300   2.391 -0.0005 -0.2916 -0.1468
    1W        W41759  27.559  15.970   9.336 -0.0583  0.1097  0.0862
    1W        W41760   6.681  12.391   1.337  0.0498  0.0910 -0.0745
    1W        W41761  25.646  16.244   0.478  0.3570  0.1839  0.1830
    1W        W41762  12.612   4.802   8.134 -0.1271  0.0226  0.2027
    1W        W41763   2.659  15.400   2.023  0.1032 -0.1715 -0.1496
    1W        W41764  13.011  10.077   0.021  0.1173  0.0861  0.0362
    1W        W41765  13.368  18.487   1.982 -0.1135  0.1425 -0.0528
    1W        W41766  24.872  12.732   9.044  0.0990 -0.0855 -0.2337
    1W        W41767   2.919   4.606   8.956 -0.2453  0.1304  0.5846
    1W        W41768  27.553  22.909   6.834  0.0313  0.1583  0.1623
    1W        W41769  26.257  28.497   9.119 -0.3123  0.0196 -0.1000
    1W        W41770   9.054  28.333   7.969 -0.1196  0.2716 -0.0505
    1W        W41771   4.199  22.431   8.815 -0.3685 -0.0141 -0.0146
    1W        W41772   6.762  12.312   7.760  0.1707 -0.0744  0.0696
    1W        W41773   5.638   0.135   9.687 -0.1258  0.1057 -0.2328
    1W        W41774  23.696  28.525   0.873  0.0600  0.0437 -0.0928
    1W        W41775   5.803  21.857   5.399  0.0992  0.0198 -0.0637
    1W        W41776   9.700  13.131   2.840  0.0349  0.2018 -0.0290
    1W        W41777   6.664  25.183   0.088 -0.3315 -0.0425  0.1613
    1W        W41778  16.116  24.068   8.939  0.2341  0.2286 -0.3541
    1W        W41779   4.668  24.413   6.440 -0.1938  0.1116  0.1793
    1W        W41780  12.099  25.155   2.106  0.2010  0.0970  0.0412
    1W        W41781   9.357  16.515   7.985  0.0335 -0.0674 -0.0227
    1W        W41782  22.226  20.363   9.857  0.3380 -0.2193  0.1036
    1W        W41783   5.420  16.987   7.798  0.3262  0.1340  0.0822
    1W        W41784  25.279   6.007   9.625  0.1308  0.0003  0.0711
    1W        W41785  10.252   1.867   8.580 -0.0989  0.0935  0.1315
    1W        W41786   9.583  14.801   8.210  0.3638 -0.1040  0.1755
    1W        W41787   5.078  23.395   6.397  0.0254 -0.2091 -0.1407
    1W        W41788   1.527  19.213   1.805  0.2440  0.2427 -0.1239
    1W        W41789  25.105   8.883   1.207 -0.0835  0.0868 -0.0780
    1W        W41790  13.439   0.998   8.237 -0.1597  0.1071  0.0417
    1W        W41791  27.202  20.644   1.747  0.0813 -0.0057 -0.2437
    1W        W41792   9.934  20.462   6.595 -0.1435 -0.2211  0.2068
    1W        W41793  23.871  26.576   0.162  0.2102 -0.1837 -0.0463
    1W        W41794   0.628   3.991   0.907 -0.0676  0.0049 -0.1927
    1W        W41795  23.559  14.331   1.211 -0.0776  0.0124 -0.1208
    1W        W41796   6.497  23.924   6.341  0.0081  0.0422  0.0035
    1W        W41797  24.935  15.390   9.557  0.2198  0.1065  0.2282
    1W        W41798   1.310   6.662   9.901 -0.0805  0.2984 -0.0747
    1W        W41799  26.498  27.003   1.891  0.0619  0.1861 -0.1506
    1W        W41800  23.073  22.759   8.153 -0.1540 -0.4209 -0.0993
    1W        W41801  13.245   6.595   7.714 -0.3221 -0.1188 -0.1014
    1W        W41802  15.619  27.729   0.637  0.0084  0.2221 -0.0622
    1W        W41803   6.181   1.555   1.071 -0.0468 -0.2168  0.1708
    1W        W41804  26.750   7.165   1.173 -0.1616 -0.0526  0.0511
    1W        W41805  23.588  20.183   8.591 -0.0186  0.0921  0.1363
    1W        W41806  24.513  10.695   8.838 -0.2042 -0.2440 -0.2982
    1W        W41807   8.125   8.267   0.058  0.2079  0.0511 -0.0041
    1W        W41808  25.358  18.529   7.297 -0.0547  0.1160 -0.1858
    1W        W41809  11.442   3.909   9.810 -0.4193 -0.3628 -0.1256
    1W        W41810   2.404   3.712   7.502  0.2193  0.4795  0.1242
    1W        W41811  28.283  18.083   7.029  0.1399 -0.1296 -0.0399
    1W        W41812  26.861  27.573   0.030 -0.2419 -0.0136 -0.4341
    1W        W41813   7.008   9.602   1.906  0.1443 -0.1505 -0.1112
    1W        W41814   6.454  28.004   8.583 -0.1253  0.0816  0.0851
    1W        W41815  20.320   3.351   7.672 -0.1736 -0.2403 -0.2253
    1W        W41816   9.478  19.585   6.417 -0.2233  0.2699  0.0798
    1W        W41817  16.320  21.248   3.364 -0.0489  0.1113 -0.2313
    1W        W41818  22.836  21.670   7.412 -0.3248 -0.1979  0.1792
    1W        W41819  21.335  14.967   8.289 -0.0950 -0.0171  0.1082
    1W        W41820  25.330  11.056   7.809 -0.1671 -0.0712 -0.2324
    1W        W41821  11.419   7.770   8.879  0.2089  0.1458 -0.1386
    1W        W41822   7.498  26.844   3.157 -0.1340 -0.0844 -0.0610
    1W        W41823  25.195  22.246   0.926  0.0056 -0.0060  0.1803
    1W        W41824   1.855   8.435   7.500 -0.4037  0.1676 -0.1292
    1W        W41825   0.963   0.005   8.659  0.1805 -0.1418  0.1389
    1W        W41826   4.368  11.493   2.243 -0.1107 -0.0886 -0.2184
    1W        W41827   9.256  12.459   7.879  0.1488 -0.0433 -0.0864
    1W        W41828   6.600  17.648   1.492 -0.1438 -0.1362  0.1329
    1W        W41829  19.921   8.768   0.023 -0.1152 -0.1497 -0.3199
    1W        W41830  13.846   3.266   3.527  0.1973  0.1745  0.0470
    1W        W41831  25.811  14.095   3.082 -0.2554  0.1962  0.1161
    1W        W41832   1.858  27.904   9.441 -0.2036 -0.1057 -0.1221
    1W        W41833  16.474   5.968   2.754 -0.1114  0.0932  0.2859
    1W        W41834  19.450  27.825   7.199 -0.0801 -0.1134  0.1015
    1W        W41835   4.605  16.629   7.461 -0.0987 -0.3349  0.1457
    1W        W41836  21.440   8.452   7.618 -0.0369  0.1702 -0.0796
    1W        W41837  12.710  12.122   9.553 -0.2164  0.0131 -0.0538
    1W        W41838  17.699  23.775   0.148 -0.0727  0.3430 -0.1021
    1W        W41839  22.332  14.722   2.073  0.2200  0.2238 -0.0522
    1W        W41840   1.750   2.722   8.500 -0.0425  0.1628 -0.1159
    1W        W41841   9.295  26.920   9.849 -0.0423 -0.1496  0.0684
    1W        W41842   0.990  26.197   6.049  0.0004 -0.1627 -0.3323
    1W        W41843  10.205  11.350   8.977 -0.2360 -0.2723 -0.1610
    1W        W41844  15.884   9.802   2.626 -0.0577  0.2486  0.0280
    1W        W41845  12.765  27.413   7.277 -0.1556 -0.0934 -0.3663
    1W        W41846  20.861  23.851   2.703  0.1165 -0.2799 -0.2735
    1W        W41847   9.577  10.024   2.832  0.0826 -0.0688 -0.0669
    1W        W41848  15.711   7.515   9.706  0.0212 -0.1017 -0.1524
    1W        W41849  26.804  19.634   3.070  0.0511 -0.0844 -0.1463
    1W        W41850  15.537  26.964   8.878 -0.1682 -0.3628 -0.2880
    1W        W41851  22.444  22.978   0.471  0.1076  0.1249 -0.3115
    1W        W41852   8.061  27.307   8.796  0.0220  0.0730 -0.2848
    1W        W41853  18.888  21.700   9.089 -0.0828  0.1323  0.1259
    1W        W41854  15.028   9.478   2.084  0.1927 -0.0754 -0.1595
    1W        W41855  13.749  12.001   2.327 -0.1889  0.0564  0.1912
    1W        W41856  17.142   8.568   9.870 -0.0057 -0.1141  0.3133
    1W        W41857   0.229  10.805   1.683  0.1255  0.1513 -0.4357
    1W        W41858  22.114   7.969   0.254  0.0641 -0.3483 -0.1176
    1W        W41859  24.691   9.405   2.163 -0.2514  0.0199 -0.0696
    1W        W41860   1.285  27.098   9.856  0.0137  0.0184 -0.0851
    1W        W41861   0.142  22.868   6.100  0.1295 -0.2930 -0.2185
    1W        W41862   9.986   4.574   9.114  0.1021 -0.2243  0.1960
    1W        W41863   2.780  17.595   2.062 -0.3525 -0.5070  0.0024
    1W        W41864  18.091  27.179   2.134  0.2492  0.0507 -0.1526
    1W        W41865  25.000  19.550   9.717 -0.1006  0.0028 -0.0225
    1W        W41866   5.081   0.685   7.738  0.1030 -0.2218  0.3386
    1W        W41867  19.630  18.926   9.290  0.0540  0.0690  0.1349
    1W        W41868   1.472   0.067   8.657  0.2132  0.0289  0.2583
    1W        W41869  26.632  17.768   8.996 -0.2024  0.2912  0.0960
    1W        W41870  23.780   9.360   1.850  0.0277 -0.0791  0.1095
    1W        W41871   3.399  20.269   6.079  0.1751 -0.2648  0.0494
    1W        W41872  14.193  27.998   1.346 -0.1040 -0.2293 -0.1682
    1W        W41873   4.434  13.558   2.749 -0.1319  0.0581 -0.0580
    1W        W41874  26.144  17.523   0.292 -0.1746  0.0093 -0.1697
    1W        W41875   0.015  16.301   0.701  0.1118  0.2419 -0.0475
    1W        W41876   7.448  25.534   1.559 -0.3090 -0.0384 -0.1440
    1W        W41877   0.485  23.580   7.804  0.0715  0.0006  0.0191
    1W        W41878  25.333  14.793   1.609 -0.1506 -0.1831  0.1773
    1W        W41879  21.145  10.152   0.973  0.0893  0.0862 -0.0465
    1W        W41880   9.134  19.322   1.209 -0.2068 -0.0669  0.0663
    1W        W41881  11.317  21.423   0.907  0.0369  0.0545 -0.1508
    1W        W41882   8.213  27.650   1.286  0.0723 -0.1248 -0.0664
    1W        W41883  15.094  23.595   2.729 -0.0844 -0.2152 -0.2887
    1W        W41884   4.623  19.012   1.781 -0.2651  0.1397  0.1742
    1W        W41885  22.017   5.590   9.349 -0.0425 -0.2359 -0.0993
    1W        W41886  26.742  19.411   0.738 -0.1482 -0.1314 -0.0490
    1W        W41887  12.210  20.567   8.871  0.1956  0.1099  0.0770
    1W        W41888  12.093   5.471   8.674 -0.3185 -0.2005 -0.2756
    1W        W41889   5.895   1.927   9.406  0.0112  0.2608 -0.2174
    1W        W41890  11.167  16.219   7.711 -0.0361 -0.1214 -0.0406
    1W        W41891   4.499  16.407   1.077 -0.0714 -0.2710  0.3058
    1W        W41892  16.748   0.552   8.946  0.0002  0.1687  0.1130
    1W        W41893   9.670   7.875   8.384  0.1076  0.3282  0.0535
    1W        W41894  24.586  18.234   7.909  0.1649 -0.6828 -0.1000
    1W        W41895  18.151   0.129   0.245  0.1913  0.1822  0.1185
    1W        W41896  15.986  18.776   2.589  0.1790 -0.2213 -0.1088
    1W        W41897  24.609   3.866   1.329  0.0444 -0.0019  0.3907
    1W        W41898  23.926   7.489   7.941  0.3445  0.1282 -0.3306
    1W        W41899  19.215   5.656   2.372  0.2285 -0.0491 -0.2249
    1W        W41900  18.081   7.975   9.962  0.2405  0.0357 -0.0788
    1W        W41901  17.089  20.045   3.555  0.1236  0.2515 -0.0783
    1W        W41902  24.600   4.420   6.518  0.2153  0.1294 -0.1302
    1W        W41903   5.633   2.414   0.289  0.2220 -0.0196 -0.1088
    1W        W41904   7.339  13.573   7.465  0.0742 -0.0657  0.0361
    1W        W41905   3.781  18.866   0.640  0.1630  0.2636 -0.0733
    1W        W41906   0.204  14.189   9.576  0.1158 -0.0814 -0.0162
    1W        W41907  23.320   5.207   1.705 -0.1735 -0.0002  0.0964
    1W        W41908  22.148   5.471   6.399  0.1694  0.0477 -0.0229
    1W        W41909  13.563   7.728   0.305  0.0520 -0.0241  0.0700
    1W        W41910  23.078   4.757   7.744 -0.1050  0.2884  0.1873
    1W        W41911  21.369  25.011   8.070  0.0129  0.2724 -0.2529
    1W        W41912  16.022  19.185   0.636  0.1271  0.1127 -0.4374
    1W        W41913  16.870  13.727   7.872  0.2855  0.0248 -0.0414
    1W        W41914  20.718  20.770   2.417  0.2151 -0.1627  0.0706
    1W        W41915  25.814  24.168   2.758  0.0062  0.2334 -0.2499
    1W        W41916   9.362  20.253   7.431  0.0500  0.0012  0.2220
    1W        W41917  20.662  24.434   1.027  0.0811 -0.0237  0.2781
    1W        W41918   5.252  17.188   1.925 -0.2218 -0.1447  0.0976
    1W        W41919   8.456   7.136   1.356 -0.3587  0.4450  0.0816
    1W        W41920   6.341  13.708   8.318 -0.1503  0.0623  0.0024
    1W        W41921  17.945  28.638   0.648 -0.0090  0.0739  0.1320
    1W        W41922  21.943  26.568   8.869  0.0922 -0.0160  0.0823
    1W        W41923   6.983  22.232   5.561  0.0355  0.2246  0.1368
    1W        W41924  12.422   5.837   0.768  0.0578  0.4340  0.0447
    1W        W41925  28.630   3.425   0.660  0.1490  0.0043 -0.1208
    1W        W41926  11.784  14.010   0.702  0.0429 -0.1423  0.2959
    1W        W41927  27.942  10.399   7.463  0.2226 -0.1404 -0.2489
    1W        W41928  19.227   8.008   7.528 -0.2318 -0.2469  0.1945
    1W        W41929  12.270  15.286   0.826 -0.2291  0.2143 -0.0061
    1W        W41930  11.797   3.262   2.609  0.0619  0.1393  0.0456
    1W        W41931  27.396  21.914   7.114  0.0535 -0.2108 -0.0461
    1W        W41932   0.133  27.009   2.532 -0.3013 -0.0028  0.1029
    1W        W41933  25.010  15.624   7.960  0.1535  0.3238 -0.2892
    1W        W41934   5.389   6.173   0.157 -0.2213 -0.1326  0.0995
    1W        W41935   2.806  15.918   8.636  0.2316  0.0048  0.2366
    1W        W41936   3.226   1.226   9.557  0.0128 -0.1304  0.1310
    1W        W41937  26.347  19.454   7.171  0.1611 -0.0870  0.6931
    1W        W41938  23.183  13.664   0.435 -0.3994  0.1082 -0.5687
    1W        W41939   5.425   4.825   3.236  0.1225 -0.0787  0.1498
    1W        W41940  15.402  14.726   9.752 -0.2670  0.0770  0.0522
    1W        W41941  23.314  19.223   1.096 -0.2881 -0.1557 -0.0793
    1W        W41942  24.962   1.329   0.527 -0.0707 -0.2999  0.0173
    1W        W41943   8.720  22.352   7.172 -0.3271  0.3368 -0.0322
    1W        W41944  28.160   7.766   8.958 -0.0813  0.0537  0.1482
    1W        W41945  11.118   5.102   3.818 -0.3155  0.2777  0.1817
    1W        W41946  12.396  13.618   0.791  0.0912  0.2378 -0.0614
    1W        W41947  14.350   1.873   0.322  0.0727  0.1404  0.4663
    1W        W41948   9.016  23.500   8.811  0.1996  0.1839  0.4058
    1W        W41949  23.373  27.604   3.125 -0.0042 -0.5288 -0.1402
    1W        W41950  25.522   1.850   8.157  0.2536 -0.0808  0.1847
    1W        W41951  26.757   5.851   8.225  0.2617 -0.0365  0.1985
    1W        W41952  24.435  19.215   6.490  0.0372  0.3125 -0.0310
    1W        W41953  11.390  27.079   0.212 -0.1719  0.0522  0.0147
    1W        W41954   7.162  24.152   7.174 -0.0966 -0.1049 -0.1813
    1W        W41955   1.350  24.430   0.864  0.1363  0.1807  0.1759
    1W        W41956  23.212   0.480   8.196 -0.0322  0.0059  0.0875
    1W        W41957   1.432  16.789   7.842  0.0215 -0.1140  0.1585
    1W        W41958  13.134  13.401   2.110  0.2124  0.2019  0.1162
    1W        W41959  21.348  16.198   9.907 -0.0703  0.0785  0.1570
    1W        W41960  18.144  28.320   2.655  0.2154  0.0960  0.1005
    1W        W41961  27.083  15.794   6.688 -0.0188 -0.0168  0.3619
    1W        W41962  26.160   0.958   7.031 -0.0292  0.1141 -0.2658
    1W        W41963  15.238  22.013   9.533  0.1403  0.5010  0.0537
    1W        W41964  20.725  11.960   1.721 -0.2804 -0.1363  0.2946
    1W        W41965   9.170  24.250   8.712  0.0212 -0.2860  0.0970
    1W        W41966  10.017  16.778   1.324  0.0781  0.0550  0.0009
    1W        W41967   0.164  21.714   6.736 -0.0928 -0.0181  0.0242
    1W        W41968  23.728  21.719   8.809  0.0289 -0.2635 -0.0716
    1W        W41969  27.008  15.614   7.128  0.0959  0.1552  0.1922
    1W        W41970  18.702  16.717   2.370  0.3534  0.0420  0.1368
    1W        W41971  12.410  22.796   6.727 -0.0179  0.0423  0.1617
    1W        W41972   5.615  13.217   8.348 -0.1116  0.0977 -0.1442
    1W        W41973  17.596   7.273   7.906  0.0235 -0.2466  0.0275
    1W        W41974  13.910  12.845   2.518 -0.1871 -0.0866 -0.2999
    1W        W41975  11.336   8.025   8.366  0.4605  0.1111  0.0776
    1W        W41976   8.262   5.508   0.304  0.0514 -0.2052 -0.1609
    1W        W41977   6.495   4.815   8.406 -0.3325  0.1878 -0.0880
    1W        W41978   6.348   4.110   0.259 -0.2120 -0.0402  0.1025
    1W        W41979  12.734  21.692   8.110 -0.0040  0.3802  0.1337
    1W        W41980   8.733  12.159   2.446  0.2327 -0.1562 -0.3508
    1W        W41981  22.924   7.432   7.475  0.1548 -0.0185 -0.1047
    1W        W41982  28.069  13.875   9.872  0.2023  0.0197 -0.3543
    1W        W41983   3.410  26.174   8.960  0.0697  0.0017  0.0924
    1W        W41984  27.391   9.202   0.012 -0.1218  0.3940  0.0005
    1W        W41985   7.392   3.941   0.980  0.2208 -0.2147 -0.3350
    1W        W41986  22.701   5.190   9.925 -0.3295 -0.0634 -0.1262
    1W        W41987   2.518  10.347   1.711  0.2509  0.0965  0.0480
    1W        W41988  28.384   9.118   1.965  0.2414 -0.4232  0.0444
    1W        W41989  11.370  15.845   9.806 -0.0291 -0.1002  0.1468
    1W        W41990  22.972   6.692   1.150 -0.0094  0.0017 -0.3011
    1W        W41991   6.216  27.951   0.320 -0.0248  0.1426  0.1529
    1W        W41992   8.285  26.258   1.429 -0.1169 -0.1739  0.1143
    1W        W41993  17.180  25.241   6.884  0.3669 -0.0216  0.1468
    1W        W41994   6.975  11.251   0.115 -0.2676  0.7315 -0.0931
    1W        W41995   5.238  25.225   1.722  0.2658  0.0503 -0.0680
    1W        W41996  28.604  25.262   9.280  0.4134  0.0365  0.0269
    1W        W41997  27.091  10.910   9.256  0.0854  0.3400 -0.3013
    1W        W41998   2.871  24.037   9.144  0.0336 -0.0439  0.1294
    1W        W41999   1.608  13.020   6.827  0.1849  0.2275  0.2545
    1W        W42000   7.516   6.904   9.514 -0.2347  0.2109  0.0244
    1W        W42001  11.690  24.763   6.094  0.0989  0.0422  0.0500
    1W        W42002  13.811  22.760   3.060  0.1649 -0.4617  0.0969
    1W        W42003  12.716  27.862   1.989 -0.0966 -0.1539  0.1459
    1W        W42004   7.946  18.041   6.162 -0.1099  0.2799  0.0806
    1W        W42005  26.223  15.959   1.823 -0.1505 -0.3250 -0.0578
    1W        W42006  25.736  22.783   7.763 -0.1500 -0.5278 -0.1023
    1W        W42007  11.579  23.123   9.735 -0.0273  0.1499 -0.1220
    1W        W42008   2.136  16.165   0.190 -0.1738  0.5945  0.0003
    1W        W42009  27.523   6.615   0.855 -0.0943 -0.1383 -0.0631
    1W        W42010  19.006   6.948   8.489 -0.3219 -0.0399  0.0687
    1W        W42011  26.532   1.275   8.762  0.1062  0.2483  0.0079
    1W        W42012  27.022   6.705   0.712 -0.0517 -0.0870 -0.1934
    1W        W42013   3.748  15.270   8.653 -0.1318 -0.0630 -0.2910
    1W        W42014   0.506   2.715   9.629  0.0618  0.1076  0.2845
    1W        W42015  20.386   1.199   1.817  0.1096 -0.2698  0.0951
    1W        W42016  26.795   7.740   7.402 -0.0135 -0.1840  0.1436
    1W        W42017  16.636   8.603   9.815  0.0308  0.0722  0.2051
    1W        W42018   1.901  27.907   9.920  0.1740  0.1738 -0.0920
    1W        W42019   9.488   2.845   2.107 -0.0091 -0.1038  0.0152
    1W        W42020  24.977  20.722   1.873  0.1666  0.1496 -0.2472
    1W        W42021  19.202  22.789   7.525  0.0924 -0.4008  0.0147
    1W        W42022  15.379  22.431   3.427  0.0750  0.1152  0.1100
    1W        W42023   2.687   6.907   6.169  0.4314 -0.0220  0.0808
    1W        W42024  20.479  20.812   7.822  0.0061 -0.2170 -0.5117
    1W        W42025   9.129   8.229   1.640  0.4206 -0.0102 -0.1326
    1W        W42026   6.805  19.670   1.575 -0.0806  0.3022 -0.5371
    1W        W42027  26.816  16.367   0.071 -0.0196  0.0889  0.1414
    1W        W42028  23.428  25.333   0.063  0.1268  0.2156 -0.0082
    1W        W42029   5.137  10.047   2.041  0.0534  0.4177 -0.0886
    1W        W42030   7.918  14.028   1.442 -0.1886 -0.0875 -0.0939
    1W        W42031  22.189  24.908   8.868 -0.0157 -0.2514  0.1214
    1W        W42032   7.360  21.008   1.018  0.0004  0.1592  0.1136
    1W        W42033  21.359  24.313   8.869  0.1386  0.1308 -0.0436
    1W        W42034  28.684   1.641   9.495 -0.3120  0.0077 -0.0562
    1W        W42035  16.086  27.226   8.249 -0.2269  0.0481 -0.1912
    1W        W42036  22.911   4.410   8.607  0.1533 -0.1383  0.3377
    1W        W42037  19.470  15.808   1.899 -0.0095  0.0231  0.0299
    1W        W42038   2.153   8.287   7.128 -0.0752 -0.1750 -0.1324
    1W        W42039   6.104   0.369   3.048 -0.0370 -0.0507  0.1314
    1W        W42040   1.624   6.681   8.350  0.0431  0.2261 -0.1219
    1W        W42041  26.534  24.050   7.886 -0.3060  0.1432 -0.1648
    1W        W42042  12.886  25.287   7.332  0.0558  0.0752 -0.0281
    1W        W42043  17.178   8.583   8.919 -0.3103 -0.2815  0.2758
    1W        W42044  17.761  20.706   0.712  0.1252  0.3070  0.1152
    1W        W42045  12.795   6.456   3.365 -0.0950  0.0341  0.1102
    1W        W42046   9.325  21.992   9.150 -0.1455 -0.1082 -0.0872
    1W        W42047  20.890  22.137   1.972  0.1065  0.2886  0.2530
    1W        W42048  21.313  16.759   2.722 -0.0032  0.3159 -0.0511
    1W        W42049  13.230  14.331   0.170  0.2105 -0.1432 -0.1359
    1W        W42050  17.725  13.783   9.301 -0.0745  0.0152 -0.1844
    1W        W42051   5.619   9.121   2.300  0.0355 -0.1413 -0.1318
    1W        W42052  20.008  27.983   2.785 -0.0879 -0.1666  0.0154
    1W        W42053   7.964   6.034   2.281 -0.0506 -0.0642 -0.3277
    1W        W42054  23.617   9.345   2.326 -0.3927  0.2377  0.2142
    1W        W42055  16.081   9.333   9.604  0.0635  0.1014 -0.0537
    1W        W42056  25.392  17.559   2.508  0.0858 -0.0481 -0.2895
    1W        W42057  17.190   6.295   0.674 -0.1418 -0.2541  0.5025
    1W        W42058   6.264  12.009   7.197 -0.1965 -0.0572  0.1061
    1W        W42059  18.730  26.416   8.694  0.0177 -0.0408  0.0487
    1W        W42060  14.656   4.306   3.036 -0.0144 -0.0661 -0.0868
    1W        W42061  19.517  13.829   1.093 -0.1710  0.1423  0.0771
    1W        W42062  26.212  14.144   9.373 -0.1326 -0.1631  0.1269
    1W        W42063   7.255  11.331   8.537 -0.1492  0.0271 -0.2222
    1W        W42064  15.096   0.315   0.352 -0.1387 -0.2842 -0.0123
    1W        W42065   5.770  28.509   8.934  0.3220 -0.1784 -0.0461
    1W        W42066   2.389  15.746   0.570 -0.0698  0.0261 -0.0725
    1W        W42067  26.838   7.575   1.680 -0.0852  0.0179 -0.1960
    1W        W42068  19.264  15.282   7.891  0.0953 -0.0822 -0.0231
    1W        W42069  16.297  19.626   9.238  0.1721 -0.2126  0.2199
    1W        W42070  18.371  25.053   2.886  0.1733  0.0659 -0.1716
    1W        W42071   3.735  13.251   1.092 -0.4176 -0.0781  0.0583
    1W        W42072   6.965  12.586   8.788 -0.0773  0.1750  0.1126
    1W        W42073  27.693   4.433   6.834  0.0848  0.1934 -0.0424
    1W        W42074  21.820  11.366   7.693  0.0613  0.2392  0.0080
    1W        W42075  22.646  20.184   3.309 -0.3492 -0.1077 -0.0744
    1W        W42076  27.698   1.042   9.862 -0.0405  0.0697  0.2713
    1W        W42077  17.090   2.371   7.651  0.2477  0.0616 -0.0331
    1W        W42078  13.396   5.255   3.106  0.2083  0.2010  0.1369
    1W        W42079  18.772  18.998   9.538 -0.1984  0.0371 -0.1150
    1W        W42080  23.901  11.804   9.487 -0.1771  0.1746 -0.0916
    1W        W42081  22.046  11.590   8.712  0.3454  0.0451  0.0357
    1W        W42082  15.783   0.048   1.264  0.2753  0.0569  0.0838
    1W        W42083  10.220  26.420   9.353  0.1060 -0.1449 -0.0118
    1W        W42084   9.369  20.121   8.882  0.0904 -0.2432 -0.0728
    1W        W42085  28.402  23.586   8.288  0.1059 -0.3013  0.3343
    1W        W42086  21.817   4.348   7.187  0.1891 -0.1028  0.0048
    1W        W42087   1.822  12.820   8.057 -0.3169  0.0629  0.0690
    1W        W42088   1.828   5.292   8.192  0.0497 -0.0765 -0.0055
    1W        W42089  21.992   7.391   6.405 -0.1743  0.0083 -0.1059
    1W        W42090  11.362   0.798   0.578  0.0493  0.3210 -0.0651
    1W        W42091   4.901  15.710   9.203  0.0180 -0.0900 -0.0376
    1W        W42092  28.541   5.195   8.975 -0.1247 -0.1250 -0.0726
    1W        W42093  27.479  21.422   8.433 -0.2772 -0.1296 -0.0610
    1W        W42094   6.286  27.635   2.119  0.1464 -0.0375  0.0852
    1W        W42095  17.251   4.119   0.015 -0.2257  0.2378  0.1144
    1W        W42096   9.248   5.115   3.543  0.3733  0.0878 -0.3431
    1W        W42097   3.444   6.271   2.782 -0.2114 -0.0342 -0.0054
    1W        W42098  27.701  10.175   1.883  0.0635  0.2149  0.0231
    1W        W42099   5.966  10.959   1.260 -0.3398 -0.1128 -0.1213
    1W        W42100   5.614  27.764   2.720  0.1873 -0.1073 -0.0926
    1W        W42101  21.672   1.149   8.898  0.1202  0.0148 -0.0746
    1W        W42102  16.447   6.683   9.874 -0.3422  0.1687 -0.0038
    1W        W42103  26.847   7.781   9.317 -0.1445 -0.1711 -0.0770
    1W        W42104   0.202   9.463   0.619  0.0501 -0.0368  0.0190
    1W        W42105   7.072  16.501   7.052 -0.0195 -0.0836  0.1752
    1W        W42106   7.829   7.939   0.792 -0.2251 -0.0538 -0.2806
    1W        W42107  23.498  18.766   8.353  0.2554 -0.0652  0.1578
    1W        W42108   4.063  23.025   8.630  0.2827 -0.1741  0.1692
    1W        W42109   5.020  18.692   1.879 -0.1581  0.1046 -0.4423
    1W        W42110  19.857   2.660   1.922  0.1808 -0.2917  0.0495
    1W        W42111  10.696   0.565   8.048  0.2046  0.3015  0.2917
    1W        W42112  22.211  21.598   0.658  0.0211 -0.1411  0.1177
    1W        W42113   2.185   3.157   2.151  0.0681  0.2229 -0.2643
    1W        W42114  22.619  16.899   9.601 -0.1081 -0.0109 -0.0802
    1W        W42115  19.409  19.154   1.495 -0.0481 -0.4239 -0.1741
    1W        W42116   1.018  22.719   3.089 -0.1420  0.2213  0.1906
    1W        W42117   4.887  15.257   2.169  0.1890 -0.0628 -0.1187
    1W        W42118  23.644  10.689   0.739 -0.0014  0.2426  0.0596
    1W        W42119   3.822   0.059   0.967  0.3348  0.4843  0.6407
    1W        W42120  18.150   1.600   9.150 -0.0186 -0.1378  0.1352
    1W        W42121  28.690  11.354   9.291 -0.1730 -0.2925  0.1251
    1W        W42122  10.819  25.832   9.131 -0.1497  0.4272  0.0621
    1W        W42123  10.659  26.658   0.885 -0.0754  0.2442  0.1449
    1W        W42124   2.535   7.519   1.448  0.0135  0.0055 -0.1694
    1W        W42125  18.690  27.719   3.373  0.2776 -0.2998  0.3162
    1W        W42126  23.867   6.093   6.962 -0.0721  0.1058 -0.0819
    1W        W42127   7.581  10.772   1.902 -0.0981 -0.0834 -0.0983
    1W        W42128  21.101  22.541   8.935  0.1266  0.1109 -0.1912
    1W        W42129  13.177   4.356   0.348  0.3650  0.3770  0.4012
    1W        W42130   5.898   5.246   0.374  0.2169  0.2140 -0.1088
    1W        W42131   9.738  16.352   8.233 -0.0718  0.1194  0.2593
    1W        W42132  15.434   9.687   2.381  0.0001  0.4527  0.1598
    1W        W42133  15.926  12.164   1.111 -0.0596 -0.0864 -0.3588
    1W        W42134  21.634  10.232   8.210 -0.2339 -0.2416 -0.0658
    1W        W42135  10.776  14.431   8.872 -0.0861  0.1117  0.0263
    1W        W42136   8.641   6.522   1.787 -0.1161  0.0761 -0.0900
    1W        W42137  24.446  18.614   8.279 -0.1124  0.1338 -0.0860
    1W        W42138  11.291   3.428   3.440 -0.1994  0.0623  0.2222
    1W        W42139  24.621   0.002   7.549  0.2681 -0.1790 -0.2450
    1W        W42140  10.941   0.934   9.047  0.1547 -0.0664 -0.2773
    1W        W42141  16.466   8.420   9.368 -0.1349  0.1518 -0.1145
    1W        W42142   6.814   4.485   8.609 -0.1783 -0.1944 -0.1257
    1W        W42143  27.316   7.248   6.627 -0.2640 -0.2008  0.3323
    1W        W42144  10.643  18.647   8.246  0.0626 -0.0086 -0.1107
    1W        W42145   6.786  22.576   0.695  0.1287 -0.0347  0.0700
    1W        W42146  20.978  14.613   8.436 -0.2476 -0.0405  0.3644
    1W        W42147   2.131   5.963   2.742 -0.0833 -0.1906  0.0200
    1W        W42148   4.804   2.609   8.359  0.0536 -0.0942  0.0987
    1W        W42149  15.562  19.766   1.946  0.1102 -0.2559  0.1705
    1W        W42150  28.634   9.979   6.346  0.0443  0.1442 -0.2468
    1W        W42151  12.362   8.094   8.208 -0.0411 -0.1255 -0.3045
    1W        W42152  24.128   1.038   0.912  0.2405  0.0338 -0.0266
    1W        W42153  16.339   9.486   1.873  0.0574  0.1242  0.2318
    1W        W42154   4.272   3.857   6.578 -0.0926  0.1883  0.0051
    1W        W42155  12.856   8.197   0.460  0.0668  0.1835 -0.1598
    1W        W42156  10.387  24.388   8.743 -0.0369  0.2693 -0.1963
    1W        W42157  25.545   1.872   2.060  0.1186 -0.0629  0.0574
    1W        W42158  24.831  18.929   7.962 -0.3380  0.1048 -0.0693
    1W        W42159   5.237  18.822   6.341  0.1828  0.1593 -0.1033
    1W        W42160  15.487   2.322   8.006  0.3988  0.1765  0.1223
    1W        W42161   4.064   5.111   7.568 -0.1894 -0.2019 -0.0366
    1W        W42162   6.214   4.377   1.852 -0.0088  0.2056 -0.1244
    1W        W42163  21.687  28.197   2.610  0.2104 -0.0913 -0.3416
    1W        W42164  12.183  18.869   9.706  0.1240  0.1806  0.2083
    1W        W42165   5.093  11.196   3.179 -0.1041 -0.3743 -0.0147
    1W        W42166   9.350  23.836   2.713  0.0107  0.2044  0.1156
    1W        W42167   4.678  27.681   7.216  0.0383 -0.2161  0.2298
    1W        W42168  24.318  24.382   1.960  0.1965  0.0774  0.3186
    1W        W42169   2.933   0.836   8.295  0.1585 -0.1974  0.4311
    1W        W42170  10.247  24.953   9.809  0.3100 -0.2804 -0.0731
    1W        W42171  21.725  21.477   9.617  0.2852 -0.0162 -0.0066
    1W        W42172   2.135   3.435   7.829 -0.0382  0.0996  0.1807
    1W        W42173  19.682  16.207   7.571  0.0631 -0.0608  0.0684
    1W        W42174   1.514  16.318   2.889 -0.0998 -0.2245 -0.1392
    1W        W42175   9.468   5.632   9.441  0.0660  0.1503  0.2473
    1W        W42176  19.726  25.507   2.306 -0.0548 -0.0416  0.1169
    1W        W42177  25.481  15.944   9.477  0.3190  0.0147 -0.2216
    1W        W42178   3.219   6.381   7.894 -0.1709  0.1667  0.0457
    1W        W42179   1.550  18.565   0.446  0.1145  0.0261  0.2188
    1W        W42180  27.161  14.067   8.326 -0.0715  0.1538 -0.1832
    1W        W42181  10.473   0.769   8.977  0.2745  0.2195 -0.0409
    1W        W42182  10.535  25.995   8.314  0.2874  0.0505  0.2575
    1W        W42183   8.342   0.902   9.865  0.3613 -0.1776  0.1805
    1W        W42184   3.629   8.662   1.944 -0.1215  0.1305 -0.1416
    1W        W42185  17.746  11.462   1.817 -0.1473 -0.1079  0.0800
    1W        W42186  12.322  22.371   9.767  0.2180  0.2981 -0.0657
    1W        W42187  14.606  10.508   2.755 -0.0309  0.2762  0.1211
    1W        W42188  11.293  10.438   2.371  0.1663  0.2953 -0.1789
    1W        W42189   7.936   0.619   0.031 -0.0377  0.0553 -0.0092
    1W        W42190   6.466   2.353   0.505  0.2111 -0.1803  0.0885
    1W        W42191  16.272  20.463   0.869 -0.1700  0.2986 -0.0989
    1W        W42192   0.193  28.492   7.896  0.2557 -0.0347 -0.1000
    1W        W42193   4.812   0.681   0.894  0.1509 -0.1640  0.3915
    1W        W42194  27.483   0.256   2.012  0.1292 -0.4027 -0.1763
    1W        W42195  15.355  13.166   1.547  0.0938 -0.0642 -0.0429
    1W        W42196  12.486   2.241   2.811 -0.2203 -0.0252 -0.0412
    1W        W42197  12.433   9.462   1.581  0.3404  0.0163  0.1179
    1W        W42198  27.637  11.905   7.423  0.1315  0.0105  0.1068
    1W        W42199  19.526   4.339   0.282  0.0154  0.1701 -0.1153
    1W        W42200  11.947  16.754   9.800  0.1801 -0.2596 -0.1422
    1W        W42201  16.913  10.784   8.549  0.2128  0.2001  0.1072
    1W        W42202   2.088  20.952   9.308  0.2667  0.0475  0.0989
    1W        W42203   3.205  11.451   9.082 -0.1242 -0.1033  0.1276
    1W        W42204   6.988  14.491   9.765  0.2303  0.0343  0.1642
    1W        W42205  21.288  26.403   9.524 -0.0308 -0.0578  0.1670
    1W        W42206  10.418  14.639   7.107 -0.1010 -0.2257  0.3372
    1W        W42207   9.666  12.460   9.876 -0.2926  0.4260  0.0903
    1W        W42208  26.046  28.189   7.971  0.1571  0.2548 -0.2774
    1W        W42209  10.213  23.581   6.599 -0.1025 -0.2739  0.3036
    1W        W42210  25.106  25.166   0.965  0.1816 -0.0681  0.1801
    1W        W42211  22.501   1.631   6.219 -0.1155 -0.0856  0.1156
    1W        W42212  21.584   1.505   7.090 -0.0666 -0.2901 -0.2112
    1W        W42213  20.136   9.299   2.480 -0.1163 -0.0100 -0.1679
    1W        W42214  11.283  26.090   8.756 -0.2061  0.1076  0.0834
    1W        W42215   9.428  17.747   9.859 -0.0635 -0.0973  0.1782
    1W        W42216  22.065   8.460   6.781 -0.1892  0.0610  0.3559
    1W        W42217  12.537  21.094   1.660 -0.2248 -0.1962  0.0217
    1W        W42218  19.219  11.501   8.657 -0.0774 -0.0328  0.1772
    1W        W42219  18.541   0.405   9.143 -0.0735  0.1892  0.1400
    1W        W42220   8.085  23.278   8.948 -0.0589 -0.0317  0.0414
    1W        W42221  13.993  21.510   8.351  0.2901  0.0868 -0.0681
    1W        W42222  20.870  15.933   0.704  0.1957 -0.1768  0.0158
    1W        W42223   6.835  16.178   6.121  0.2295  0.0989 -0.1631
    1W        W42224   5.970  15.923   2.794  0.1330  0.1202 -0.2638
    1W        W42225  28.303   1.548   0.030  0.0773  0.0385  0.0371
    1W        W42226  20.217  15.558   7.896 -0.0074 -0.2576  0.3015
    1W        W42227   5.911   0.027   6.549  0.2163 -0.2535 -0.0894
    1W        W42228  26.604  20.468   2.024  0.3782  0.1219  0.0462
    1W        W42229  23.912   7.927   9.006 -0.0735 -0.1995 -0.2897
    1W        W42230  13.444  23.615   6.926  0.0383  0.2777 -0.3202
    1W        W42231  26.242  20.719   2.232  0.2304 -0.0832 -0.1843
    1W        W42232   7.000   8.233   8.288 -0.0606 -0.3116  0.0918
    1W        W42233  21.356  21.252   3.576 -0.0613  0.2318  0.2028
    1W        W42234  22.462  24.215   1.647  0.2515  0.0362  0.0782
    1W        W42235  24.884  21.142   2.803  0.0761 -0.1595 -0.1788
    1W        W42236  12.664   2.200   3.937 -0.2573 -0.1385 -0.2350
    1W        W42237   7.052   2.163   1.952 -0.0665  0.5339  0.0001
    1W        W42238   4.173   8.273   9.268 -0.0667 -0.0273 -0.0530
    1W        W42239  28.171  12.794   1.057 -0.3259 -0.3470  0.0344
    1W        W42240  28.113   4.074   6.936 -0.0626  0.3472  0.1975
    1W        W42241   0.750  10.535   7.685 -0.1830  0.1959  0.0454
    1W        W42242  13.287   1.890   9.920 -0.2017 -0.1696 -0.0330
    1W        W42243  15.429  20.813   7.945 -0.0330 -0.1230 -0.0573
    1W        W42244  10.188   7.394   9.405  0.3130 -0.2128  0.3983
    1W        W42245  12.002  27.575   3.381 -0.0870  0.1834 -0.0485
    1W        W42246  15.891  11.199   8.867 -0.0389  0.0965  0.1249
    1W        W42247   0.482  17.717   6.343  0.3489  0.0166  0.3610
    1W        W42248  14.771  20.131   7.682  0.0851 -0.1655  0.0331
    1W        W42249  27.978  16.758   7.077 -0.0971 -0.2928  0.1712
    1W        W42250   1.922  22.128   1.865 -0.0703 -0.1808 -0.2098
    1W        W42251  15.676  20.021   1.070  0.0244  0.2055 -0.2535
    1W        W42252  23.917  21.863   7.612  0.2135  0.1011  0.1160
    1W        W42253  13.480  13.280   8.111 -0.1195 -0.1038  0.0079
    1W        W42254   4.926  12.241   7.129  0.0616  0.0954 -0.2350
    1W        W42255  17.005  27.674   9.697  0.0060  0.3259  0.0474
    1W        W42256  10.140  16.203   0.665 -0.0872  0.1741  0.0230
    1W        W42257   1.564   7.162   8.498 -0.0713  0.0801  0.1590
    1W        W42258   5.310  19.777   8.627 -0.0431 -0.2246  0.2016
    1W        W42259   2.895  18.441   0.780  0.4054 -0.2352 -0.1109
    1W        W42260   5.992  10.689   3.044 -0.3555  0.1045  0.3400
    1W        W42261   4.094  22.858   7.888  0.0203 -0.4996  0.0838
    1W        W42262  26.367  25.166   7.639  0.0646 -0.0571 -0.1907
    1W        W42263  13.972  25.609   3.098 -0.0414  0.0745 -0.1985
    1W        W42264  15.387  28.503   2.948 -0.0379 -0.0357  0.0303
    1W        W42265  15.021  21.147   1.027 -0.0774  0.1308  0.1334
    1W        W42266   0.363   8.925   1.361 -0.1438  0.1472 -0.2098
    1W        W42267  27.239  24.722   9.680  0.0972  0.1187 -0.1001
    1W        W42268   3.483   0.218   0.279  0.0308  0.1392 -0.0397
    1W        W42269   4.076   7.782   6.834 -0.1267 -0.0492 -0.1533
    1W        W42270  20.597   7.991   0.689  0.0089  0.1616 -0.1842
    1W        W42271  26.538   9.475   8.248 -0.2616 -0.0390  0.1137
    1W        W42272  14.135  28.655   2.309 -0.0697 -0.2331  0.1248
    1W        W42273  21.601  23.209   1.354 -0.3085 -0.1181  0.1377
    1W        W42274  12.051  24.262   0.445  0.0849 -0.1702  0.1160
    1W        W42275   8.668  27.589   2.179 -0.1948  0.0793 -0.0252
    1W        W42276  13.244  15.330   9.268  0.2074  0.2266 -0.0316
    1W        W42277  10.220   5.802   7.814  0.1936  0.1072  0.1167
    1W        W42278   4.104   8.805   9.490  0.2117  0.2121 -0.4493
    1W        W42279  28.043   3.139   6.543  0.0195  0.3538  0.2080
    1W        W42280  13.082  19.220   8.134  0.2116 -0.0556 -0.0724
    1W        W42281   9.284  20.370   2.479 -0.1641 -0.0745 -0.1626
    1W        W42282  11.604   5.611   8.567 -0.0181 -0.2560 -0.3601
    1W        W42283   8.753  27.527   0.278 -0.0960 -0.0330  0.2842
    1W        W42284   9.517  25.540   7.616  0.2309  0.0168  0.0657
    1W        W42285  23.801  25.673   0.143 -0.3939 -0.2378  0.1531
    1W        W42286  13.012   0.459   1.082 -0.2608  0.2239  0.1020
    1W        W42287   0.872  19.737   9.955  0.0574  0.0590  0.1197
    1W        W42288   6.286   6.938   3.146 -0.0711 -0.1103  0.2471
    1W        W42289  24.780   3.335   8.484  0.0625  0.2428  0.2043
    1W        W42290  14.031   2.634   8.668 -0.1813  0.0628  0.1006
    1W        W42291  12.176  25.352   1.680 -0.0663  0.0188 -0.1905
    1W        W42292  14.549  14.117   7.156  0.1851 -0.1685 -0.1168
    1W        W42293  27.511  18.652   0.222  0.1039 -0.0410 -0.1539
    1W        W42294   6.668   2.523   2.934 -0.0780 -0.1186 -0.1911
    1W        W42295   1.385  18.691   9.881 -0.1530 -0.1922  0.0911
    1W        W42296  22.687  22.484   7.534 -0.2162  0.5232 -0.1064
    1W        W42297   8.108   2.866   1.781 -0.2744  0.2413 -0.0058
    1W        W42298   2.462  22.984   0.363  0.3031  0.1821 -0.0734
    1W        W42299  13.176  27.557   0.345  0.4253 -0.1523  0.1996
    1W        W42300   5.378  14.213   8.824  0.0713  0.0615 -0.4285
    1W        W42301  25.417  26.258   1.431  0.1275 -0.1780 -0.1120
    1W        W42302  14.976  15.248   9.652 -0.2425 -0.0535  0.1916
    1W        W42303  28.409   9.903   7.084 -0.3114  0.0155 -0.2434
    1W        W42304   7.872   5.528   3.637  0.2969  0.0934 -0.0118
    1W        W42305   7.534   3.474   1.362 -0.0096 -0.1049 -0.1001
    1W        W42306  19.969  14.701   7.632  0.0973 -0.2284 -0.2260
    1W        W42307   3.873   2.687   8.756  0.3318 -0.0951  0.0560
    1W        W42308  10.183  21.348   8.773  0.1436 -0.3027  0.1413
    1W        W42309  23.125  24.126   3.343  0.1511  0.2318 -0.3330
    1W        W42310  21.170  17.914   8.256  0.4286  0.2439  0.2474
    1W        W42311   5.763  17.465   6.265 -0.0150  0.1170  0.2318
    1W        W42312   5.046  14.337   0.965 -0.1179 -0.0398  0.0742
    1W        W42313   8.611  19.673   8.169 -0.1779 -0.2847  0.0671
    1W        W42314  15.793  13.385   8.309 -0.0116  0.1664 -0.0708
    1W        W42315  19.946   7.396   7.612  0.0573 -0.1536 -0.2549
    1W        W42316   1.474   3.146   6.298  0.3473  0.2626  0.1051
    1W        W42317  24.814  20.428   6.741 -0.0363  0.1497  0.0390
    1W        W42318   6.725  20.696   7.854  0.0289  0.1240  0.0544
    1W        W42319  19.510  20.825   2.774  0.1854  0.0328 -0.0605
    1W        W42320  14.201  10.141   8.160 -0.3313 -0.0044  0.1032
    1W        W42321   9.826  26.787   3.534 -0.1873 -0.3302 -0.4990
    1W        W42322  14.514  10.000   0.819 -0.2923  0.1210 -0.0264
    1W        W42323   4.903  24.253   8.701 -0.1293 -0.3215 -0.0021
    1W        W42324  17.224  23.662   8.837  0.0713  0.3312  0.1886
    1W        W42325  15.810  26.023   2.155 -0.2922  0.3313  0.1514
    1W        W42326  23.533  17.702   1.943  0.1059  0.0309 -0.2163
    1W        W42327  12.847  25.907   8.960 -0.0651  0.5269  0.0450
    1W        W42328   4.587  12.975   8.087  0.3349  0.0723  0.0346
    1W        W42329  25.539  18.258   2.827 -0.1331 -0.4613 -0.2078
    1W        W42330   3.275  12.088   2.838 -0.0790 -0.1150  0.0680
    1W        W42331   1.217   8.068   9.831 -0.1461  0.0940  0.0977
    1W        W42332  24.810  26.675   7.866 -0.0672 -0.0621  0.0527
    1W        W42333  26.740  16.248   9.268  0.1227  0.3099  0.1030
    1W        W42334  22.322  27.694   0.137  0.1380  0.0572  0.0953
    1W        W42335  17.675   3.219   2.250 -0.1455 -0.1581  0.0170
    1W        W42336   4.063  25.528   1.783  0.0295 -0.1270  0.0841
    1W        W42337  16.150  16.331   7.581 -0.0298  0.0151 -0.0395
    1W        W42338  13.542   6.520   2.685  0.1585 -0.1222 -0.0223
    1W        W42339  19.839   5.811   0.907  0.4955  0.2861  0.1909
    1W        W42340  19.095   9.027   8.964 -0.2093  0.1870 -0.3586
    1W        W42341  21.580  27.773   1.258  0.3167 -0.0513 -0.2552
    1W        W42342  12.851  22.249   8.367  0.1874  0.2437  0.1784
    1W        W42343  27.132  21.836   9.535 -0.0752 -0.2042 -0.4511
    1W        W42344   5.956   8.330   7.877 -0.1567 -0.2010  0.0044
    1W        W42345  18.655   0.236   3.040 -0.0412  0.0719 -0.3196
    1W        W42346   7.084  16.342   0.156 -0.0144  0.1703  0.2081
    1W        W42347  17.242  14.077   7.641  0.1887  0.3368  0.3436
    1W        W42348   9.541  13.049   1.972 -0.0020 -0.5046 -0.4326
    1W        W42349  20.849  11.618   8.577  0.2263 -0.0514 -0.1958
    1W        W42350   5.154   1.726   7.708  0.0008  0.1361  0.4169
    1W        W42351   4.301  18.225   0.361  0.2031 -0.1860  0.2532
    1W        W42352  15.911   2.868   8.618  0.3137  0.0400  0.0569
    1W        W42353  22.505  23.446   0.260 -0.1188  0.0376 -0.1432
    1W        W42354  13.287  27.758   1.458 -0.1577  0.3188 -0.0330
    1W        W42355   7.131   4.491   0.996 -0.2409  0.1904  0.0112
    1W        W42356  12.994   1.468   9.870 -0.1416  0.0609  0.3373
    1W        W42357  21.142   7.484   8.727  0.1355 -0.1719 -0.1347
    1W        W42358  15.243  18.565   9.075 -0.1433  0.0323  0.0642
    1W        W42359  24.395   4.480   2.348 -0.0219 -0.0373 -0.2675
    1W        W42360  19.190  26.593   8.761 -0.2265 -0.0147 -0.3348
    1W        W42361  25.576   2.928   6.013 -0.0171 -0.0626  0.2448
    1W        W42362  17.146  27.729   1.939  0.0668 -0.0875  0.0228
    1W        W42363  14.375  11.274   9.144  0.2612  0.2711 -0.0287
    1W        W42364  21.740   9.801   7.948  0.7392  0.4083 -0.1748
    1W        W42365  16.191  20.192   7.741  0.0384 -0.2105  0.1474
    1W        W42366  24.304  12.210   1.741 -0.0232 -0.0845 -0.1413
    1W        W42367   2.836  16.913   1.654 -0.3359  0.2129  0.0644
    1W        W42368  26.694  18.572   9.474 -0.2711  0.1041 -0.3128
    1W        W42369   0.685   1.666   3.386 -0.3146  0.3741 -0.1230
    1W        W42370   8.982  10.389   3.092 -0.0973  0.5840  0.1806
    1W        W42371  19.827   8.616   2.181  0.1256  0.2369 -0.1261
    1W        W42372   3.890  26.036   9.270  0.2799 -0.0131  0.0908
    1W        W42373  26.176  14.019   5.430  0.0185 -0.3272  0.2422
    1W        W42374  21.442  22.138   0.625  0.0204 -0.0262 -0.0499
    1W        W42375   7.800  24.353   0.823 -0.1372 -0.0820 -0.1241
    1W        W42376   0.583  12.807   7.761  0.2434  0.0702 -0.0104
    1W        W42377   9.253  16.137   8.374  0.0441 -0.2280 -0.1192
    1W        W42378  13.802   4.699   1.091 -0.0564  0.2335  0.3632
    1W        W42379  13.071  26.611   2.063 -0.1424  0.1133  0.1045
    1W        W42380   1.627  19.095   0.096  0.1140 -0.0300  0.0391
    1W        W42381  10.763  15.039   2.021  0.0107 -0.1016 -0.0462
    1W        W42382  18.684  19.169   8.951  0.2062  0.0930 -0.1551
    1W        W42383  22.624  21.192   8.378 -0.0091  0.0574 -0.0737
    1W        W42384   1.440  23.347   2.017  0.1325  0.1785  0.0397
    1W        W42385   9.416   8.749   9.473  0.1228  0.0278  0.2064
    1W        W42386   1.296  10.629   7.885 -0.0357  0.1260 -0.0867
    1W        W42387   1.393   9.143   8.820 -0.1404 -0.0301 -0.0069
    1W        W42388  18.086  11.070   0.716  0.1346  0.2860 -0.0770
    1W        W42389  18.514  11.342   0.863 -0.2457  0.0580 -0.2761
    1W        W42390   8.822  24.866   6.646  0.2431  0.0467 -0.1120
    1W        W42391  19.197  24.036   2.657 -0.1162 -0.0979  0.0616
    1W        W42392  20.354  22.278   2.917  0.1159  0.1773  0.1307
    1W        W42393   3.597  24.882   0.490  0.3781 -0.0504  0.1208
    1W        W42394   0.152  19.081   0.197 -0.1457 -0.2534  0.1070
    1W        W42395  25.129   3.297   1.155 -0.0544 -0.1291  0.0657
    1W        W42396   7.371   5.553   2.539  0.3544 -0.2861  0.1146
    1W        W42397   5.638   0.544   1.617 -0.2715  0.1180 -0.0076
    1W        W42398   5.529  18.627   9.186 -0.0449 -0.2705 -0.0733
    1W        W42399   2.986  23.567   0.064 -0.0229 -0.1553 -0.0311
    1W        W42400  22.995   3.870   2.020 -0.1044  0.1075 -0.2481
    1W        W42401  25.287  10.125   7.926 -0.1234 -0.0710 -0.3498
    1W        W42402  17.242  24.309   0.250  0.1780  0.0349 -0.2323
    1W        W42403  21.150  20.586   2.568  0.1474  0.2486 -0.0655
    1W        W42404  13.793  11.516   2.386  0.1498  0.1323 -0.0308
    1W        W42405  27.116  13.594   0.417 -0.6347  0.2033 -0.1560
    1W        W42406   7.860  14.330   7.483  0.2258 -0.1617 -0.0048
    1W        W42407  23.944   6.919   0.037 -0.1969  0.0558 -0.1544
    1W        W42408  25.418  19.654   9.396 -0.1307  0.2042  0.1730
    1W        W42409  20.959   6.272   3.371 -0.2685  0.0324  0.2462
    1W        W42410  18.882   9.773   9.892  0.0624 -0.1557 -0.4440
    1W        W42411   1.851  28.218   2.023 -0.0501  0.0443 -0.2401
    1W        W42412   8.665   0.690   7.941 -0.1700 -0.3540  0.0165
    1W        W42413   7.785  25.773   9.383 -0.0262 -0.0833  0.0315
    1W        W42414   3.135  16.252   2.257 -0.0442 -0.1510 -0.0303
    1W        W42415  16.026   6.922   0.368 -0.0747  0.1107  0.0781
    1W        W42416   5.154   0.578   1.298 -0.2888 -0.0884 -0.2171
    1W        W42417  12.800  17.064   8.201 -0.2260 -0.0410 -0.2666
    1W        W42418  19.496   0.277   1.932 -0.0308  0.2367  0.0751
    1W        W42419   5.713   0.293   8.774  0.1342 -0.2590 -0.1560
    1W        W42420  23.548  27.218   7.293  0.3052  0.0602  0.0913
    1W        W42421  19.286   3.688   0.949  0.1344 -0.0185  0.0587
    1W        W42422  11.815  18.055   7.350  0.0059 -0.2074 -0.1873
    1W        W42423  16.846   7.791   7.902  0.2789  0.0601 -0.1429
    1W        W42424  20.378  26.964   2.083 -0.2540 -0.2932 -0.1446
    1W        W42425  18.010  21.698   0.713 -0.2732  0.1231  0.0598
    1W        W42426  27.848   8.127   8.965  0.1027 -0.0697  0.2304
    1W        W42427   7.910  22.995   0.275  0.1780 -0.2571 -0.1366
    1W        W42428   6.304  22.746   6.960 -0.2351 -0.1040  0.0273
    1W        W42429   6.131   2.999   3.592  0.2510  0.1253  0.0063
    1W        W42430  19.870  24.495   9.447  0.0372  0.4476 -0.1003
    1W        W42431  12.608   0.943   8.647 -0.1282 -0.2927  0.1208
    1W        W42432  19.861  19.993   0.334  0.0849  0.1754 -0.1681
    1W        W42433   2.826   5.274   1.472 -0.2786  0.1382 -0.2609
    1W        W42434  17.702  28.294   2.923  0.1060 -0.1727 -0.4411
    1W        W42435  21.798   0.855   6.632  0.0894 -0.3007  0.1100
    1W        W42436  15.779   1.853   8.066  0.2569  0.0822 -0.0061
    1W        W42437  27.518  21.835   3.182 -0.1918 -0.1252  0.0387
    1W        W42438  26.174  17.404   7.988  0.1474 -0.0016 -0.1533
    1W        W42439  15.682   4.183   1.480  0.1067  0.1366  0.0128
    1W        W42440  12.835   4.473   1.222 -0.0774  0.4434 -0.0567
    1W        W42441  27.631  13.407   0.450  0.2799 -0.1005 -0.0266
    1W        W42442  27.632  16.018   6.790  0.0552  0.1518 -0.0733
    1W        W42443  26.472   0.915   1.898 -0.4714 -0.0628 -0.2734
    1W        W42444  16.647  21.274   1.425 -0.0270 -0.0419 -0.1846
    1W        W42445  12.874   8.170   8.228  0.0949  0.1478 -0.1254
    1W        W42446   5.151  14.821   2.026  0.0559  0.3118  0.1557
    1W        W42447  18.555   5.729   9.436  0.4494  0.0940  0.2642
    1W        W42448   9.883  11.714   9.336 -0.0557  0.0527 -0.1220
    1W        W42449  11.042  23.318   1.102 -0.2562  0.0762  0.2080
    1W        W42450  28.167  14.773   1.320  0.0333  0.0699  0.2304
    1W        W42451  23.813   1.322   1.963  0.1462  0.1605 -0.2226
    1W        W42452   1.100  11.962   0.857 -0.0072  0.2761 -0.0831
    1W        W42453  20.871  21.433   0.787  0.0250  0.0385 -0.0427
    1W        W42454   9.495  11.019   2.917  0.0213  0.0560  0.0503
    1W        W42455   0.086  27.062   8.867 -0.1378 -0.0062  0.1072
    1W        W42456  26.463  20.746   9.737 -0.0835  0.0959  0.0643
    1W        W42457  28.435   7.023   9.138  0.3853  0.1324 -0.0641
    1W        W42458  10.515  11.069   0.420  0.0662  0.0739 -0.0399
    1W        W42459  12.333  27.570   2.971  0.2415  0.1165 -0.1675
    1W        W42460   9.060   4.006   8.075  0.0343 -0.1097 -0.2818
    1W        W42461  11.195  13.683   8.041 -0.0314  0.0316  0.3337
    1W        W42462  19.663   2.945   0.781  0.0246  0.2346  0.1943
    1W        W42463   5.023  27.690   2.123 -0.1009 -0.0162 -0.0441
    1W        W42464  27.454   0.014   7.991  0.0284 -0.0578  0.1676
    1W        W42465  14.173  21.349   0.647 -0.1343  0.2166  0.4646
    1W        W42466  11.255  28.131   8.225  0.1548 -0.3258  0.1828
    1W        W42467  16.191  25.505   0.547  0.0608  0.1331 -0.1666
    1W        W42468  16.729  16.252   2.369  0.1250  0.1193  0.1086
    1W        W42469  20.279   2.190   2.129 -0.0693 -0.1222  0.5892
    1W        W42470  27.105  18.296   1.608 -0.0035  0.0039 -0.0063
    1W        W42471   3.320  19.575   1.324  0.3091  0.2323 -0.0033
    1W        W42472  28.691   5.159   3.209  0.2534 -0.3333 -0.2209
    1W        W42473  13.987   4.090   0.320  0.2950 -0.3068 -0.0604
    1W        W42474  23.838  28.104   0.566 -0.0650  0.0366 -0.2127
    1W        W42475  19.147  20.420   8.408 -0.0748 -0.1174  0.0382
    1W        W42476  23.210  24.707   7.831 -0.1550 -0.2677  0.0776
    1W        W42477  25.572  10.499   0.798 -0.1327 -0.1662  0.0897
    1W        W42478   8.855   2.918   8.963 -0.1950  0.3732  0.0144
    1W        W42479  16.350   8.914   9.465 -0.1419  0.2360 -0.1212
    1W        W42480   6.577  10.338   9.868 -0.0498 -0.2312 -0.2643
    1W        W42481  10.475  15.892   8.050  0.0785  0.0441  0.2315
    1W        W42482   9.056  28.565   3.708  0.2460 -0.1572  0.1083
    1W        W42483  26.326  28.573   7.717  0.1063  0.0413 -0.0675
    1W        W42484  16.979   7.340   2.379  0.0488  0.2107  0.0263
    1W        W42485   7.134   3.792   9.927  0.1625 -0.0307 -0.0996
    1W        W42486   0.272   3.777   0.633  0.1721  0.0174  0.4043
    1W        W42487  14.956  24.686   2.608 -0.0905 -0.0842 -0.0983
    1W        W42488  20.074  11.117   7.069  0.1826  0.1111  0.0613
    1W        W42489  17.414  14.727   0.916  0.2376 -0.1314 -0.0528
    1W        W42490   6.219  26.852   1.060  0.1362  0.0910 -0.3212
    1W        W42491   2.003  15.843   0.952  0.0310  0.1277  0.3346
    1W        W42492  21.487  21.977   3.702 -0.2086 -0.0799  0.2996
    1W        W42493  20.476  27.326   8.787  0.3186 -0.1049  0.0052
    1W        W42494   2.398   9.758   0.277  0.1125  0.0339 -0.3023
    1W        W42495   1.714   3.260   1.367 -0.0972  0.0420  0.1451
    1W        W42496  11.432  16.167   2.190  0.0134  0.1377 -0.0328
    1W        W42497  23.364  26.708   2.188 -0.1177 -0.2197 -0.0157
    1W        W42498   9.846  14.311   0.062  0.1283 -0.3039 -0.0682
    1W        W42499   5.631  23.678   0.412 -0.3845  0.3843 -0.1334
    1W        W42500  22.248  10.257   3.123 -0.2598  0.1203 -0.0112
    1W        W42501  14.407  23.457   8.372  0.1010 -0.0813 -0.2831
    1W        W42502  12.439  25.777   1.560  0.1755  0.2385  0.0772
    1W        W42503  14.099  21.229   9.404 -0.1226 -0.0456  0.1223
    1W        W42504  17.593  19.107   9.045  0.0675 -0.3667 -0.0360
    1W        W42505  27.589  20.717   9.011 -0.0541  0.1005  0.0381
    1W        W42506  25.294  17.984   0.750  0.1164  0.1583  0.1141
    1W        W42507  28.455  18.805   0.248  0.0785 -0.2093  0.0581
    1W        W42508  13.010  12.665   7.860  0.1290  0.0153  0.0303
    1W        W42509  24.700  20.663   2.791 -0.3952 -0.0315 -0.0478
    1W        W42510  13.970  25.355   9.881  0.0008  0.2047  0.0947
    1W        W42511   3.465  10.042   7.160  0.0409 -0.0997  0.2439
    1W        W42512  15.039  12.395   8.772  0.2131  0.1623 -0.2483
    1W        W42513   5.862  23.561   8.235  0.1731 -0.1059  0.0145
    1W        W42514  16.005  18.564   8.140 -0.1762  0.2460 -0.0866
    1W        W42515  24.137  27.772   1.783 -0.1014 -0.1265 -0.2145
    1W        W42516  27.974  16.350   7.807  0.0803  0.2842  0.0250
    1W        W42517   0.020  18.439   2.445 -0.0934  0.1071  0.1759
    1W        W42518  13.475  11.357   9.954 -0.1270  0.0924 -0.2970
    1W        W42519  13.900  26.624   8.071  0.1528 -0.0904  0.1557
    1W        W42520  18.973   2.560   9.032  0.1387 -0.0071 -0.0966
    1W        W42521   1.747  14.641   2.734  0.1118  0.1755  0.0478
    1W        W42522   4.056  19.251   6.233 -0.0200 -0.1548  0.0912
    1W        W42523  11.525   7.621   3.397 -0.1622  0.1040  0.3745
    1W        W42524  12.863  25.228   0.449  0.4336  0.3246 -0.0611
    1W        W42525  28.289  18.616   6.992 -0.1002  0.2393 -0.1618
    1W        W42526  12.259  15.794   9.671 -0.0669 -0.1205 -0.0384
    1W        W42527  10.214  22.389   1.009 -0.0512  0.2032  0.3464
    1W        W42528  18.797   9.675   7.579 -0.2822  0.0458 -0.0442
    1W        W42529  21.367  11.873   2.876  0.0679 -0.0100 -0.0520
    1W        W42530   0.851   6.988   2.183  0.1580 -0.0996 -0.0577
    1W        W42531   3.142  18.370   0.313  0.2933  0.0766  0.1396
    1W        W42532  25.440   8.537   1.451 -0.0309  0.0706 -0.2238
    1W        W42533  17.012   7.875   8.355  0.3657  0.2607 -0.1685
    1W        W42534  20.447  23.291   7.497  0.0664 -0.0630  0.0294
    1W        W42535  20.088  11.805   9.295 -0.0131  0.0471 -0.1575
    1W        W42536  18.682  20.226   8.213 -0.0051  0.3492  0.3507
    1W        W42537   1.821   9.610   2.314  0.0523 -0.2553 -0.0611
    1W        W42538  17.561   2.112   1.990 -0.2956  0.0656 -0.3026
    1W        W42539   0.744  21.660   6.955  0.0861  0.0362 -0.5160
    1W        W42540   3.328   2.814   2.504 -0.0832  0.0135  0.1774
    1W        W42541  19.457   6.834   8.610 -0.1363 -0.0522 -0.0598
    1W        W42542  28.243   7.530   0.813  0.3531  0.3371 -0.2050
    1W        W42543  18.074  13.293   7.866  0.1086 -0.3204  0.0804
    1W        W42544  22.432   6.079   7.914  0.0206 -0.1019  0.1474
    1W        W42545   9.194  21.181   8.639 -0.0588  0.1877 -0.0861
    1W        W42546  12.568   3.014   9.742 -0.0696  0.1269  0.1570
    1W        W42547  10.408  18.315   9.072  0.1288  0.2284  0.2536
    1W        W42548   9.806  28.689   2.622  0.0452  0.1158  0.0440
    1W        W42549  19.733  27.349   1.143  0.1803 -0.0414 -0.2591
    1W        W42550  12.475  25.137   8.611 -0.1938 -0.2131 -0.1175
    1W        W42551  22.777  22.945   7.515 -0.0838 -0.0949 -0.0974
    1W        W42552  13.807  27.302   0.050  0.1829 -0.1455 -0.1712
    1W        W42553  17.707  18.234   9.116  0.3518  0.0305  0.0764
    1W        W42554   1.462   9.368   1.979  0.1254 -0.0439 -0.1221
    1W        W42555  24.445   9.050   9.782  0.0746  0.0575  0.1016
    1W        W42556  24.735  14.213   0.144 -0.0566 -0.1347  0.0481
    1W        W42557  27.325  22.765   9.383  0.2872 -0.2095 -0.2038
    1W        W42558  12.141  23.746   2.168 -0.1666 -0.3111  0.1291
    1W        W42559  19.610   7.350   0.242 -0.0012  0.0661  0.1861
    1W        W42560   9.042   8.536   2.178 -0.0647  0.1226  0.2041
    1W        W42561  11.891   8.991   7.064  0.0508  0.2827  0.2137
    1W        W42562  25.252  26.658   8.188  0.0848 -0.1999  0.1405
    1W        W42563   3.396  21.996   8.923 -0.0353 -0.2758 -0.1271
    1W        W42564  27.401  17.505   1.223  0.1322  0.0255  0.0870
    1W        W42565   4.726  10.639   7.549  0.0711 -0.0962 -0.0353
    1W        W42566  19.838  20.462   0.113  0.0301 -0.2844  0.2697
    1W        W42567  26.202  24.567   7.440  0.2728 -0.1950 -0.1755
    1W        W42568   4.227   3.024   8.943 -0.3213  0.1853 -0.0163
    1W        W42569  23.328   5.224   8.603 -0.0776  0.0990 -0.3721
    1W        W42570   1.637  24.051   5.656  0.0155  0.0861  0.1418
    1W        W42571  13.679  16.201   1.907  0.0587  0.2017 -0.1145
    1W        W42572  26.472  12.278   8.941  0.2287  0.0827 -0.1861
    1W        W42573  16.084  12.348   0.714 -0.1163 -0.0389  0.0139
    1W        W42574   8.883   6.721   8.605  0.1037  0.0680 -0.1298
    1W        W42575   1.274   3.008   7.856 -0.3386  0.1620  0.0829
    1W        W42576  23.779  25.650   9.514 -0.0647  0.0227 -0.0944
    1W        W42577   8.163  27.127   0.890 -0.2096 -0.0542  0.3366
    1W        W42578  26.626  15.594   6.224 -0.2070  0.0039  0.2836
    1W        W42579  20.220  16.654   0.670 -0.0357 -0.3853 -0.2311
    1W        W42580  27.932  19.560   8.539  0.0126  0.1225  0.2914
    1W        W42581   9.586  18.581   8.226 -0.0599  0.1044 -0.1320
    1W        W42582  17.711   7.252   3.180 -0.1136 -0.0449 -0.3230
    1W        W42583   9.194  12.150   0.373 -0.1038  0.0691  0.1037
    1W        W42584   4.087  27.606   2.003 -0.1539  0.4290 -0.2320
    1W        W42585  12.424   2.413   2.064  0.1844 -0.0912  0.2244
    1W        W42586   3.228   9.144   9.113  0.1545  0.3330  0.2069
    1W        W42587  15.903  24.216   3.257  0.2030  0.0915  0.0315
    1W        W42588  11.431  22.714   2.236  0.0038 -0.1921 -0.1499
    1W        W42589  26.024  25.062   0.052 -0.0433  0.2400 -0.0128
    1W        W42590   4.553  19.754   9.142 -0.0585  0.3745 -0.1452
    1W        W42591  21.371  28.116   6.717  0.0652 -0.0130  0.0252
    1W        W42592   6.501  18.673   9.355 -0.0293 -0.0714 -0.1379
    1W        W42593   9.874   4.099   1.640  0.3289 -0.0237 -0.0124
    1W        W42594  11.580   8.080   7.235 -0.0091  0.0668 -0.2286
    1W        W42595   7.966  17.063   2.579  0.2093  0.0906 -0.1264
    1W        W42596  14.951  11.861   9.453  0.0797 -0.0276  0.0637
    1W        W42597  18.250   6.145   0.385  0.1585 -0.0439  0.0559
    1W        W42598  11.900  18.499   8.918  0.4357  0.2626  0.2077
    1W        W42599   4.928  19.777   9.497  0.0352  0.0675  0.1947
    1W        W42600   3.813  20.383   7.006 -0.2688  0.2809  0.2099
    1W        W42601  13.936   9.450   2.470  0.1377  0.1102 -0.1750
    1W        W42602  22.941  24.518   0.025  0.1476  0.0766 -0.2670
    1W        W42603  22.778  12.828   2.143 -0.0399 -0.2192 -0.1685
    1W        W42604  10.400   5.072   8.557 -0.0448 -0.0161 -0.2639
    1W        W42605  13.213  18.043   9.909  0.2638 -0.1673  0.1932
    1W        W42606  15.665  23.320   3.729 -0.0779  0.2457  0.3129
    1W        W42607  23.602   5.137   0.183 -0.0582 -0.5375 -0.0773
    1W        W42608  10.866   2.542   2.995 -0.0160  0.0882 -0.0800
    1W        W42609   9.825  26.925   7.462 -0.4784 -0.3874  0.1484
    1W        W42610  14.481   4.888   1.995 -0.1967  0.1122  0.0344
    1W        W42611  19.533   8.501   8.416 -0.0870 -0.1470 -0.1071
    1W        W42612  20.534  21.812   8.713  0.2952  0.1432 -0.1559
    1W        W42613   6.605  18.247   1.018  0.1935 -0.1128 -0.1765
    1W        W42614  23.740  12.696   7.146 -0.0263 -0.2430 -0.2874
    1W        W42615  27.008   1.177   6.677  0.5286  0.1006 -0.2027
    1W        W42616  14.929  25.381   1.092  0.4339 -0.0120  0.4657
    1W        W42617  23.421  11.540   0.422  0.0767 -0.1662  0.4479
    1W        W42618   4.524   5.770   2.221  0.0040 -0.1190 -0.3814
    1W        W42619  25.318  22.856   8.079 -0.1510 -0.0218  0.0061
    1W        W42620  18.468  25.610   1.143 -0.0566 -0.1603 -0.0698
    1W        W42621  19.800   7.333   8.157 -0.3958 -0.1709  0.4840
    1W        W42622   2.618  18.763   5.952 -0.1970  0.0182 -0.1760
    1W        W42623  10.758   8.103   1.659 -0.1356 -0.4351  0.1284
    1W        W42624  25.274  24.734   8.249  0.3700  0.0520 -0.1220
    1W        W42625   0.440  24.381   2.745 -0.1025 -0.1681  0.1501
    1W        W42626  17.784   3.970   1.747 -0.0025 -0.1436  0.0831
    1W        W42627  13.895  24.128   0.720 -0.1237  0.2337 -0.0523
    1W        W42628   8.449  12.073   0.929  0.1200 -0.1125 -0.0398
    1W        W42629  25.905  27.954   2.553 -0.0949  0.1387 -0.0552
    1W        W42630  24.127   5.752   1.207  0.4060 -0.0462 -0.3209
    1W        W42631   3.565  10.532   2.696 -0.2314 -0.3458  0.1458
    1W        W42632   7.849  17.538   0.484 -0.1155 -0.1030 -0.1852
    1W        W42633  16.593  19.787   2.093 -0.2809 -0.0826 -0.0398
    1W        W42634  22.153  11.838   2.919 -0.2138 -0.0862 -0.0870
    1W        W42635  24.719  10.696   6.750 -0.1002  0.0250  0.1360
    1W        W42636  22.208   9.296   8.824 -0.2014  0.0632 -0.1089
    1W        W42637   7.908  10.397   9.186 -0.1392 -0.0908  0.4362
    1W        W42638   7.035  22.283   9.277 -0.0131  0.0980  0.0529
    1W        W42639  15.386  14.450   1.571  0.1062  0.1576 -0.1957
    1W        W42640  28.166  15.959   8.087  0.3289  0.1438  0.2240
    1W        W42641   0.175  11.261   6.195 -0.0603 -0.0983  0.0195
    1W        W42642  20.000  28.582   1.339  0.0874  0.0966  0.1216
    1W        W42643  21.803  27.747   2.404 -0.0532  0.2583 -0.0567
    1W        W42644  24.727  19.235   0.277 -0.1281 -0.0666  0.1970
    1W        W42645  17.584  15.825   0.785  0.0074 -0.2410  0.2399
    1W        W42646  13.280  26.750   2.969 -0.0189 -0.3252 -0.0186
    1W        W42647  28.251   3.278   6.999  0.1330 -0.1661  0.1097
    1W        W42648  17.098  20.141   0.636 -0.1827  0.1506 -0.0488
    1W        W42649  14.084  14.486   1.793 -0.2082 -0.1298 -0.1071
    1W        W42650  11.060   9.736   3.039 -0.1709  0.1657 -0.0451
    1W        W42651   7.187   5.971   0.984 -0.3137 -0.0268 -0.0594
    1W        W42652  10.931   0.743   1.702  0.2555 -0.3656  0.0974
    1W        W42653  11.634  24.042   0.821  0.1430  0.1714 -0.1045
    1W        W42654   6.373   8.496   2.369  0.1194 -0.0211 -0.1067
    1W        W42655  11.317  16.781   7.795  0.1928 -0.1958 -0.0254
    1W        W42656  27.929   5.182   2.698  0.1380  0.1963 -0.3065
    1W        W42657   8.663  14.590   7.895 -0.1633  0.1251 -0.3700
    1W        W42658   3.331  11.428   7.508 -0.1669 -0.2032 -0.2109
    1W        W42659  25.724  13.136   7.075  0.3779 -0.4467 -0.1579
    1W        W42660  20.912  24.330   7.831  0.1632 -0.0426  0.1046
    1W        W42661  26.088  28.323   1.326 -0.1097  0.2581  0.1399
    1W        W42662   4.374  25.645   1.402 -0.0054 -0.1148 -0.1748
    1W        W42663  25.352   0.395   8.569 -0.0125 -0.1891  0.0201
    1W        W42664   1.131   5.118   8.816  0.0458  0.0160 -0.0827
    1W        W42665   1.492   0.729   1.341 -0.1676 -0.1087 -0.0528
    1W        W42666   4.221  22.578   1.072  0.1353 -0.1163 -0.0283
    1W        W42667  11.112  10.921   9.143  0.1361 -0.1259 -0.0547
    1W        W42668   9.866  18.691   7.804  0.1906  0.0371 -0.0581
    1W        W42669  20.623  11.755   9.501  0.1167 -0.0327 -0.1149
    1W        W42670  20.034  15.107   0.560 -0.2199 -0.0594  0.0887
    1W        W42671   6.366  19.075   9.732 -0.1471 -0.2219 -0.0606
    1W        W42672  19.911   0.737   0.486 -0.1344  0.3402 -0.1313
    1W        W42673   9.823  19.995   8.713  0.0900 -0.1516 -0.2586
    1W        W42674  19.268   0.456   0.203  0.0800  0.3460 -0.1044
    1W        W42675  15.561  18.391   2.886  0.1560  0.4172  0.1636
    1W        W42676  13.041   2.474   8.723 -0.2436  0.2332  0.1021
    1W        W42677  18.208  11.464   2.680 -0.2172  0.0822 -0.1530
    1W        W42678   6.751  25.243   1.107 -0.0424 -0.1609  0.0845
    1W        W42679  19.091   4.469   7.510 -0.1336  0.2379 -0.0637
    1W        W42680  25.247  10.518   9.448  0.1788 -0.0444 -0.0885
    1W        W42681   8.470  10.399   9.357  0.1192 -0.2040 -0.0847
    1W        W42682  27.297  26.118   8.331 -0.0374 -0.0966  0.0913
    1W        W42683  25.826   4.183   9.215 -0.0088  0.1380  0.2732
    1W        W42684  13.111   3.276   7.310 -0.0434  0.0601 -0.0523
    1W        W42685   4.388   0.841   2.573 -0.2745 -0.4277  0.3766
    1W        W42686  22.584  13.734   7.794 -0.0622  0.3147  0.0889
    1W        W42687  26.812  14.980   5.980 -0.0481  0.1231  0.1956
    1W        W42688  23.469  25.541   2.149 -0.4195 -0.0864 -0.0071
    1W        W42689  11.386  25.770   3.353  0.5810 -0.0487 -0.2647
    1W        W42690   5.051  21.972   6.958  0.0462 -0.1760 -0.3296
    1W        W42691  26.383  19.019   6.869  0.3055 -0.3784 -0.0930
    1W        W42692   1.803  12.453   0.618 -0.0510 -0.2570  0.2724
    1W        W42693   9.057   2.010   9.160 -0.0142 -0.1302 -0.0260
    1W        W42694  23.334   2.790   6.584 -0.0648  0.0214 -0.3979
    1W        W42695  13.174  24.422   0.194 -0.2141  0.1816 -0.0387
    1W        W42696  21.489   0.924   7.928  0.0381 -0.1717  0.3357
    1W        W42697   1.158  27.802   1.636 -0.0836  0.0270 -0.0713
    1W        W42698  20.099   7.399   3.032  0.0048 -0.0668 -0.0565
    1W        W42699  23.261  18.299   7.473 -0.0894  0.1854  0.1423
    1W        W42700  14.893   6.929   2.697  0.1369 -0.1729  0.4140
    1W        W42701  18.532  23.500   2.918 -0.2978 -0.3806 -0.1468
    1W        W42702  23.110  24.695   8.939  0.3496  0.0190  0.1211
    1W        W42703   3.184   8.705   0.803  0.2530  0.0732 -0.0188
    1W        W42704  22.605  28.110   0.048  0.1303 -0.1732  0.2266
    1W        W42705  20.927  14.726   1.931 -0.2020 -0.2110 -0.0736
    1W        W42706   0.050   7.839   0.861 -0.1026 -0.1323  0.1401
    1W        W42707  28.163  21.777   6.616  0.3159  0.0364  0.2771
    1W        W42708  18.939  21.321   7.029 -0.1680 -0.0078  0.0146
    1W        W42709  10.433  20.157   1.713 -0.1339  0.1216  0.0138
    1W        W42710  25.619   1.848   3.644 -0.0026  0.1339 -0.2512
    1W        W42711  14.631  18.706   2.177 -0.3974  0.0885  0.0825
    1W        W42712   1.878  26.280   0.007 -0.0001 -0.2673  0.1366
    1W        W42713   6.757   8.978   7.904  0.0184 -0.3514  0.2654
    1W        W42714  20.028  23.328   2.664 -0.3957  0.1273  0.2895
    1W        W42715  11.405  28.694   2.602 -0.1044 -0.1439  0.1543
    1W        W42716  11.246  14.872   8.006 -0.1749  0.0909 -0.1361
    1W        W42717  19.348   6.914   1.293  0.2919 -0.2400 -0.1305
    1W        W42718   4.951  11.022   1.043  0.1867 -0.1046 -0.1702
    1W        W42719  21.659  21.784   7.222  0.2184  0.2726  0.0988
    1W        W42720  19.521   6.297   8.863 -0.1919  0.3927 -0.0795
    1W        W42721   9.378   6.259   8.763 -0.0693 -0.1140  0.2787
    1W        W42722   6.486   6.058   7.969 -0.2426  0.0439  0.0758
    1W        W42723   3.402  13.129   0.136 -0.2478  0.3383  0.1984
    1W        W42724  13.926  13.943   1.772 -0.2346 -0.3090 -0.0427
    1W        W42725  16.812   6.684   1.335 -0.0395  0.1443  0.1894
    1W        W42726   6.622  25.644   2.191 -0.3054 -0.0552  0.3282
    1W        W42727  27.422  25.960   7.300 -0.0900 -0.3221  0.1824
    1W        W42728   5.640   8.171   8.283  0.0293  0.0319 -0.0290
    1W        W42729   9.714  22.562   9.075 -0.1120 -0.3594  0.1259
    1W        W42730   6.460  26.192   6.528 -0.3567 -0.0105 -0.3230
    1W        W42731  18.732   3.971   9.075 -0.1492  0.1038 -0.3096
    1W        W42732  25.375   5.739   2.220 -0.0101 -0.1402 -0.1637
    1W        W42733  22.260  12.590   2.438  0.2344 -0.0267  0.2657
    1W        W42734  17.682  24.597   7.999 -0.1269 -0.1337 -0.0734
    1W        W42735   8.268  13.035   2.390  0.0798  0.1643 -0.2150
    1W        W42736  25.441  10.008   9.516  0.0502  0.1990 -0.0243
    1W        W42737  21.827  27.369   7.045  0.0778 -0.0596  0.2286
    1W        W42738   9.206   2.915   8.119  0.2696 -0.0968 -0.3160
    1W        W42739   0.172  14.925   0.368 -0.2724  0.0546 -0.0995
    1W        W42740   1.392  12.088   9.909 -0.3300 -0.0825  0.0332
    1W        W42741  28.174  19.415   8.989 -0.0893 -0.2577  0.2378
    1W        W42742   6.322  10.675   9.535 -0.1070 -0.1102 -0.2208
    1W        W42743  11.005   6.720   9.740  0.3600 -0.0371 -0.3372
    1W        W42744   0.461  24.691   1.864  0.0841  0.0791 -0.0603
    1W        W42745  14.176  22.344   2.787 -0.2776  0.0516  0.1883
    1W        W42746  21.622  22.168   2.721  0.2137 -0.2661 -0.0158
    1W        W42747  26.675  13.542   8.024 -0.2313 -0.2403  0.3462
    1W        W42748   3.279  15.026   8.612  0.1920 -0.0055 -0.0933
    1W        W42749  20.594  19.510   1.945 -0.0798  0.0245 -0.1685
    1W        W42750  13.009   3.109   2.873 -0.2317 -0.2585  0.1339
    1W        W42751  10.925  16.857   2.029 -0.0334  0.1142  0.2198
    1W        W42752   5.155   9.596   9.566 -0.2823  0.3768 -0.2468
    1W        W42753  16.035  20.102   3.850 -0.2346 -0.0471  0.1250
    1W        W42754   0.137  11.644   0.457 -0.1617  0.2955 -0.0945
    1W        W42755  20.280  26.801   7.557  0.3470  0.3471  0.2525
    1W        W42756  17.160   2.127   2.454  0.2782  0.0244 -0.2324
    1W        W42757  26.378  21.687   7.206 -0.1574  0.2065  0.2552
    1W        W42758   7.301  16.684   8.059 -0.1548  0.0198  0.1075
    1W        W42759  19.530  15.315   0.438  0.3414 -0.2531  0.2483
    1W        W42760  13.809  27.572   9.140  0.2879 -0.1441 -0.1107
    1W        W42761   1.508   7.108   7.049 -0.0382  0.0473 -0.2636
    1W        W42762  18.392  25.465   0.592 -0.1490 -0.1348  0.2357
    1W        W42763   4.339   0.759   1.166  0.0785 -0.1557 -0.1100
    1W        W42764  14.070  13.056   2.075 -0.1102 -0.0024  0.1849
    1W        W42765  28.364  19.468   9.462 -0.1709  0.0264  0.1859
    1W        W42766   5.918  11.629   1.238  0.0975 -0.2967 -0.0310
    1W        W42767   7.774   2.338   3.311 -0.1866  0.0655  0.1267
    1W        W42768  28.183  25.226   8.983  0.0757 -0.0277 -0.0586
    1W        W42769   9.420  26.962   7.070  0.0253  0.1267 -0.2317
    1W        W42770  13.205   9.685   9.436  0.0370  0.2304 -0.0753
    1W        W42771  28.207   1.753   2.433 -0.0647  0.3085 -0.0284
    1W        W42772  15.178   9.284   9.423  0.3197  0.0403 -0.2096
    1W        W42773   4.692  27.928   0.247 -0.2340  0.2835 -0.0834
    1W        W42774  10.634  24.185   2.478  0.0643 -0.1673  0.3044
    1W        W42775   2.959   1.445   7.651  0.0389 -0.1788 -0.0317
    1W        W42776   1.670  24.084   1.653  0.0177  0.2815 -0.0483
    1W        W42777  11.969  26.555   1.942  0.1731  0.3353  0.0197
    1W        W42778  16.328  18.924   8.115  0.0250  0.0459 -0.1160
    1W        W42779   8.485  10.317   7.745 -0.0420 -0.3087 -0.0675
    1W        W42780   3.994  17.161   1.505 -0.1839  0.1216 -0.0424
    1W        W42781   5.146   2.747   8.741  0.0086 -0.3168 -0.0734
    1W        W42782  20.498   5.254   2.128  0.0385 -0.1183 -0.1469
    1W        W42783  14.741   9.096   8.729 -0.2490  0.2212  0.3380
    1W        W42784   3.786   7.884   9.322 -0.1883  0.1592 -0.0960
    1W        W42785   0.211   4.920   8.743  0.0867 -0.1288  0.2134
    1W        W42786   8.207  24.893   2.147  0.1094  0.2437 -0.1469
    1W        W42787  15.208  17.857   8.445 -0.1951 -0.1616  0.1034
    1W        W42788   9.732  15.067   1.913 -0.2290  0.3222  0.1553
    1W        W42789   5.796   9.238   0.227 -0.0270 -0.2336 -0.1936
    1W        W42790  20.466   1.612   1.515 -0.0420  0.0041 -0.0818
    1W        W42791   2.831  25.150   0.769  0.0628 -0.0100 -0.2594
    1W        W42792  25.343  28.421   7.266  0.2167  0.2721 -0.2723
    1W        W42793  24.858  11.987   9.095 -0.1006  0.2041 -0.1042
    1W        W42794   6.455  16.549   8.976 -0.0494  0.0397 -0.2825
    1W        W42795   5.667  15.286   0.279  0.0004  0.1614  0.0182
    1W        W42796  20.050   3.398   1.300  0.1396 -0.1594  0.1739
    1W        W42797  20.307  19.392   7.645  0.2553 -0.1614  0.0315
    1W        W42798  26.614  19.332   8.856  0.2920  0.0763 -0.0157
    1W        W42799   1.732  20.215   8.872 -0.2231  0.0968 -0.1745
    1W        W42800  17.025  21.623   0.606 -0.0891  0.2068 -0.0470
    1W        W42801   4.114   8.335   2.651 -0.1163  0.0191 -0.0375
    1W        W42802   0.745   5.846   7.102  0.0888 -0.1478  0.0289
    1W        W42803  11.545   8.242   8.915  0.1468  0.0879  0.0179
    1W        W42804  20.289  17.668   7.156  0.0337 -0.1440  0.0907
    1W        W42805  12.005   4.204   2.737  0.2686  0.0873  0.0770
    1W        W42806  12.992  10.436   2.208  0.0397 -0.0530  0.0574
    1W        W42807  17.302  17.061   0.894  0.4627 -0.1109 -0.1329
    1W        W42808   9.619   1.822   2.280 -0.1062 -0.0161  0.0239
    1W        W42809  22.995   0.750   0.960 -0.1221 -0.0860  0.0845
    1W        W42810  16.045  27.532   0.559  0.0513 -0.0604  0.0955
    1W        W42811   1.313   0.061   9.570 -0.1331  0.1400 -0.3105
    1W        W42812  10.174  20.057   1.281  0.1965 -0.0738 -0.1629
    1W        W42813  12.893  12.258   1.923  0.1378  0.0234  0.2718
    1W        W42814  21.189  11.443   7.224  0.3033  0.1799 -0.0690
    1W        W42815   9.785   0.973   0.640  0.0249  0.2098  0.1070
    1W        W42816  20.370  20.331   7.887 -0.1917  0.1610 -0.0833
    1W        W42817  20.280   8.395   1.956  0.0458  0.0888 -0.1577
    1W        W42818  27.773  17.672   6.353  0.0691  0.1513  0.2576
    1W        W42819  17.321  18.003   1.291  0.0120 -0.0038 -0.0603
    1W        W42820  27.238  13.016   2.118  0.0783  0.2916 -0.0048
    1W        W42821  15.556   8.631   1.983 -0.0597 -0.0241 -0.0485
    1W        W42822  26.427  14.500   8.849 -0.1092  0.2560 -0.1280
    1W        W42823   3.364   1.689   0.350 -0.0401 -0.0344  0.0386
    1W        W42824   1.356   0.358   2.424  0.1618  0.2373 -0.0365
    1W        W42825  24.987   1.621   0.934 -0.0066 -0.2329 -0.0496
    1W        W42826   7.143  17.598   8.177  0.0881 -0.2562  0.2100
    1W        W42827  13.913   2.609   0.333  0.2700 -0.0409 -0.3006
    1W        W42828  26.033   1.388   2.997  0.1995 -0.1990  0.1261
    1W        W42829  26.163  27.431   8.430 -0.0805  0.0467  0.4494
    1W        W42830   5.006  19.432   0.604 -0.2516 -0.2054  0.0303
    1W        W42831  13.743  17.086   9.375  0.0289  0.1113  0.0476
    1W        W42832  20.367  13.281   1.066  0.2774  0.0572 -0.1900
    1W        W42833   0.650   5.211   8.922  0.0183 -0.1078 -0.2046
    1W        W42834  25.522  23.439   0.119 -0.0320 -0.1248  0.0366
    1W        W42835  24.786  13.571   7.481  0.0810  0.0692 -0.1157
    1W        W42836  27.547  28.367   2.270  0.0287 -0.1856  0.1535
    1W        W42837  23.358  28.686   8.319 -0.0237 -0.1796  0.1219
    1W        W42838  17.489   7.720   2.994  0.2982 -0.0013 -0.0771
    1W        W42839  14.224   9.945   9.039  0.0289  0.1710 -0.1028
    1W        W42840  11.997  26.659   0.894 -0.3312 -0.2567  0.2397
    1W        W42841  24.992  11.500   9.017  0.0743  0.1347  0.0293
    1W        W42842  10.423   5.859   2.559 -0.0335 -0.0272 -0.2896
    1W        W42843  16.459  23.499   9.859  0.0619 -0.0694  0.0477
    1W        W42844  23.051   7.782   8.349  0.1233 -0.1078 -0.0312
    1W        W42845   8.927  21.800   6.539 -0.0498  0.1792 -0.2233
    1W        W42846  21.306  21.361   1.889  0.0526 -0.0049  0.2257
    1W        W42847  19.947   1.758   1.776 -0.2510  0.0550 -0.2404
    1W        W42848   8.253  14.501   0.850  0.0983  0.1517 -0.1778
    1W        W42849  10.291   5.941   8.588  0.0452 -0.0289  0.0191
    1W        W42850  15.459   7.389   2.626 -0.3823  0.1441 -0.0165
    1W        W42851   5.119  18.078   6.272  0.2858 -0.2268  0.3037
    1W        W42852   0.748  14.622   7.913 -0.1331 -0.0102  0.0103
    1W        W42853   5.790  21.540   6.497  0.0874  0.1347  0.0736
    1W        W42854   3.564  13.987   7.812  0.2701 -0.1947 -0.1704
    1W        W42855  21.579   7.083   8.165  0.0249 -0.1336  0.0651
    1W        W42856   3.298  16.943   7.149  0.2821  0.0438  0.0603
    1W        W42857  17.861   1.244   9.912  0.2149 -0.2553 -0.1373
    1W        W42858   6.364  13.114   9.472 -0.1998  0.0556 -0.1392
    1W        W42859  13.419   9.004   0.396 -0.1593 -0.0990  0.0481
    1W        W42860  13.141  25.129   8.622  0.1503 -0.3713 -0.0461
    1W        W42861   1.039   2.757   0.273 -0.2506  0.4371  0.1638
    1W        W42862  19.399  19.234   0.985 -0.0705  0.1499  0.3727
    1W        W42863   6.514  28.609   0.984 -0.2342  0.0905 -0.3891
    1W        W42864   1.230  12.048   6.852  0.0451  0.2690  0.3005
    1W        W42865  28.317  14.801   2.832 -0.0027 -0.3411 -0.1713
    1W        W42866   8.244   3.815   1.695 -0.3837 -0.1446 -0.0446
    1W        W42867  27.378  12.271   9.286 -0.0365 -0.2047  0.0861
    1W        W42868   8.573  20.582   7.568 -0.0080  0.2263  0.1323
    1W        W42869   6.453   0.659   3.283 -0.2313  0.0624  0.2750
    1W        W42870  15.170  13.639   0.963  0.2181 -0.0178  0.2275
    1W        W42871   6.889   1.498   0.181 -0.1114  0.0107 -0.2591
    1W        W42872   7.183  23.454   1.850  0.0388 -0.1350 -0.1835
    1W        W42873   2.465  22.056   2.068 -0.1344 -0.1242 -0.0524
    1W        W42874  20.231  26.403   7.220  0.1549  0.2475 -0.1163
    1W        W42875  25.439  20.423   2.477 -0.2412  0.3259 -0.0182
    1W        W42876   8.963  26.331   0.870  0.0557  0.0179  0.1710
    1W        W42877  15.902   6.462   1.478  0.0636  0.0995 -0.2120
    1W        W42878  21.122  10.282   8.131  0.0845 -0.1511  0.2917
    1W        W42879  17.399   8.820   0.202 -0.1890  0.1355 -0.0758
    1W        W42880  11.838  16.943   0.875  0.2956  0.3086 -0.3343
    1W        W42881  19.339  19.632   2.788  0.1544 -0.1634  0.1768
    1W        W42882  25.355   5.570   0.656  0.2303  0.2730  0.0016
    1W        W42883  28.061  25.592   0.480  0.0789 -0.1809 -0.1734
    1W        W42884   0.008  15.067   1.239 -0.0792  0.1093 -0.0832
    1W        W42885   4.938  23.834   8.114 -0.3345  0.1212 -0.3825
    1W        W42886  28.109  19.611   7.146  0.0208  0.0029 -0.2460
    1W        W42887  15.479   1.437   9.115 -0.3233  0.0896  0.1407
    1W        W42888  20.265  24.357   9.706  0.0928 -0.1524 -0.0334
    1W        W42889  15.935   9.213   7.547  0.1341  0.1352  0.1773
    1W        W42890  10.456  14.883   8.135  0.1883 -0.2328  0.5496
    1W        W42891  27.822  28.260   0.027  0.1595  0.1003  0.0098
    1W        W42892   6.206   4.650   0.886  0.0978  0.2117 -0.0290
    1W        W42893  23.256  28.599   3.025  0.2672  0.2939  0.0678
    1W        W42894  17.445   5.060   7.986  0.1376 -0.0717 -0.3319
    1W        W42895   6.447  25.631   8.620 -0.0068  0.2560  0.3810
    1W        W42896  16.926  11.698   9.236 -0.3487  0.0307 -0.1403
    1W        W42897  18.765  21.604   9.595 -0.0693  0.0509  0.1137
    1W        W42898   2.073   7.008   2.860  0.1027 -0.0374  0.0467
    1W        W42899   6.629  26.008   1.881  0.0997  0.3483  0.4706
    1W        W42900   8.632  15.233   0.467  0.0221 -0.3301  0.1498
    1W        W42901  26.720  11.248   9.212 -0.1562  0.1476  0.0906
    1W        W42902   6.383   4.592   7.426  0.0378  0.2272  0.3481
    1W        W42903   9.189   3.009   9.754 -0.0653  0.2020  0.0382
    1W        W42904   7.093  13.957   2.185  0.3525  0.3823 -0.1159
    1W        W42905   0.687   1.197   9.236  0.0142 -0.0486  0.1184
    1W        W42906  15.547  16.863   0.432  0.0144  0.0163 -0.3778
    1W        W42907  25.070  15.886   9.845 -0.3149  0.0216  0.1994
    1W        W42908   1.160  19.963   6.203 -0.1971  0.3844 -0.0674
    1W        W42909  15.363  17.426   8.259 -0.3438 -0.1529  0.0500
    1W        W42910  17.447  20.237   9.894 -0.2712 -0.3992  0.2381
    1W        W42911  26.323  20.850   1.705  0.1297 -0.0528 -0.2321
    1W        W42912  28.161   1.577   9.103  0.0559  0.0636  0.3522
    1W        W42913  14.724  19.745   8.297 -0.2294 -0.0199  0.1482
    1W        W42914   5.883   6.715   7.146  0.0116 -0.1146  0.2295
    1W        W42915  27.174   0.324   6.732 -0.1233 -0.1825 -0.1471
    1W        W42916   2.794  22.734   9.911  0.0978 -0.1879  0.0102
    1W        W42917  10.531  22.350   7.062 -0.0685 -0.2532 -0.2911
    1W        W42918  24.227  17.838   0.179 -0.1805  0.0837  0.0686
    1W        W42919   3.295  20.771   8.377 -0.1496  0.0254 -0.0692
    1W        W42920  21.566  11.476   0.140  0.0138 -0.0676  0.0455
    1W        W42921  21.662   2.830   1.658  0.2046  0.3128 -0.2862
    1W        W42922  25.571  10.778   6.978  0.0014 -0.1131  0.1260
    1W        W42923  27.223  11.126   1.810  0.3876 -0.4375 -0.1250
    1W        W42924  18.377   0.306   1.453 -0.1957  0.2562 -0.1204
    1W        W42925  28.147  26.578   7.366  0.0695  0.1886  0.0566
    1W        W42926  25.180  12.348   9.235  0.0065  0.1537  0.1538
    1W        W42927  25.100  19.121   2.775  0.2080 -0.1572 -0.0092
    1W        W42928  15.652   1.900   3.267 -0.1661 -0.3251 -0.1770
    1W        W42929   3.697  26.794   0.386 -0.1318 -0.1999 -0.1069
    1W        W42930  20.213   4.132   0.482  0.1198 -0.1013  0.2132
    1W        W42931   5.176   8.609   1.776  0.3232  0.1755 -0.3299
    1W        W42932  15.085   9.325   1.648  0.1217 -0.0598  0.1460
    1W        W42933  26.923  25.215   0.005 -0.1536 -0.2034  0.2825
    1W        W42934   6.173   2.133   0.139 -0.3284  0.0114 -0.0841
    1W        W42935  23.298  18.230   0.803 -0.3281  0.1442 -0.1959
    1W        W42936  27.307  28.170   0.922 -0.3309 -0.2800 -0.1279
    1W        W42937  22.868  12.861   0.539 -0.1033 -0.3782  0.0179
    1W        W42938  26.098   7.390   3.315  0.1672  0.1498  0.1732
    1W        W42939   3.168  14.965   8.122  0.0489  0.1476  0.2657
    1W        W42940  25.976   3.777   6.520  0.0726  0.0850  0.4611
    1W        W42941  20.542  12.346   1.059 -0.1306  0.0983 -0.0600
    1W        W42942   8.603   3.659   1.974  0.0377  0.3766  0.1104
    1W        W42943   9.866  14.060   1.679 -0.3414  0.1895 -0.0569
    1W        W42944  22.349   9.589   0.901  0.2238 -0.0526 -0.1912
    1W        W42945  14.967  20.105   1.396 -0.1980  0.1275 -0.0693
    1W        W42946   7.150  25.596   1.086 -0.0669 -0.2085 -0.0182
    1W        W42947   0.439  23.382   1.422  0.0124  0.0980 -0.1035
    1W        W42948   3.814   2.862   9.675  0.2160 -0.3565  0.1113
    1W        W42949   7.836  28.574   2.879  0.0248 -0.1990  0.0140
    1W        W42950  27.152  17.473   5.765  0.3404  0.4042 -0.0922
    1W        W42951   2.274  27.535   9.783 -0.0979 -0.0200 -0.0710
    1W        W42952   1.011   2.356   1.912 -0.3105 -0.1802  0.3276
    1W        W42953  13.425   7.423   2.237 -0.1343 -0.1696  0.1382
    1W        W42954   2.707   4.106   3.188 -0.2425  0.1764 -0.0211
    1W        W42955  14.965   5.671   0.628 -0.3672 -0.2505 -0.0568
    1W        W42956  18.044  17.523   9.776 -0.0352  0.0912  0.0080
    1W        W42957   2.152  24.512   2.291  0.0168  0.0478 -0.0130
    1W        W42958  10.570   3.208   3.715  0.0835 -0.0073  0.1369
    1W        W42959  17.705  17.042   1.236  0.0296 -0.2107  0.0320
    1W        W42960  22.916  15.078   2.839 -0.3685 -0.0668 -0.4057
    1W        W42961  20.103  12.679   0.273 -0.1399  0.0930  0.0109
    1W        W42962  20.863   4.352   9.892  0.1346 -0.0231  0.1171
    1W        W42963  18.892   4.263   6.457 -0.1169  0.0819 -0.2978
    1W        W42964  14.387   7.624   9.675  0.0256 -0.2434 -0.0867
    1W        W42965  13.007   7.677   0.546 -0.2108  0.0513  0.4004
    1W        W42966   2.958  11.162   1.525  0.0054 -0.0407  0.2096
    1W        W42967  11.745   5.606   2.056  0.3141  0.0086 -0.0876
    1W        W42968  17.599   1.824   2.385 -0.1445  0.2210  0.3883
    1W        W42969   8.988   5.536   0.363  0.1990 -0.0523  0.1310
    1W        W42970  26.389  17.664   8.539 -0.0624  0.0120  0.0293
    1W        W42971  15.931  21.368   2.046  0.1454  0.0800 -0.1289
    1W        W42972  22.366  17.226   2.248  0.1771  0.1608  0.0866
    1W        W42973  13.224   2.616   9.755 -0.0970  0.3307  0.1970
    1W        W42974   4.783  26.018   1.500  0.2978 -0.1127  0.0978
    1W        W42975  17.900   3.407   0.270 -0.3728 -0.3445  0.0539
    1W        W42976  26.839   7.647   9.864 -0.1079 -0.1919 -0.0325
    1W        W42977  16.510  27.489   3.249 -0.1270  0.0399  0.0302
    1W        W42978  27.379  19.985   3.038  0.1144  0.0893 -0.1511
    1W        W42979  24.049  10.315   7.539 -0.0598 -0.2160 -0.0070
    1W        W42980   8.206  23.870   8.206 -0.1159 -0.0621  0.0401
    1W        W42981  28.417  24.506   7.444 -0.2120 -0.0338  0.0149
    1W        W42982   6.563   4.053   8.920  0.1708 -0.2100 -0.1225
    1W        W42983  22.545  20.056   6.881 -0.0931 -0.1510 -0.4384
    1W        W42984  22.060  12.600   1.143 -0.0049  0.0690  0.1137
    1W        W42985  20.686   2.716   7.906 -0.2721 -0.1925  0.0289
    1W        W42986   9.409  15.686   1.935  0.1602 -0.2009  0.3230
    1W        W42987   6.251   2.842   9.506 -0.3116  0.2243 -0.0111
    1W        W42988  20.055  14.072   2.807  0.0406 -0.0102  0.0177
    1W        W42989  27.112   0.105   0.789 -0.1676  0.0361  0.0856
    1W        W42990  28.718   3.089   6.878 -0.1018  0.0359 -0.2691
    1W        W42991  22.394   6.635   7.997 -0.1453  0.0076  0.0826
    1W        W42992   1.408  16.102   6.627  0.0265 -0.2676 -0.1249
    1W        W42993   7.611  18.155   1.865 -0.0080  0.0496 -0.2068
    1W        W42994   9.270  13.591   2.791 -0.0283  0.1876 -0.0807
    1W        W42995  23.209  27.951   1.879  0.1307  0.0293  0.1733
    1W        W42996   7.846  25.162   8.772  0.2571  0.2038  0.3138
    1W        W42997   0.914  12.344   9.562  0.0459  0.0849 -0.1274
    1W        W42998  19.673  17.610   7.902  0.2148  0.0310 -0.2979
    1W        W42999  28.675   4.788   0.817  0.2857 -0.1308  0.0008
    1W        W43000  10.370  11.832   2.111  0.0299  0.2139 -0.3509
    1W        W43001   4.128  16.281   1.972  0.0079  0.2019  0.2357
    1W        W43002   8.862   8.668   7.209 -0.1361 -0.2785  0.0424
    1W        W43003   3.412  17.996   1.001  0.0514 -0.1153  0.2302
    1W        W43004   2.417  25.759   6.672 -0.1391  0.0595 -0.1434
    1W        W43005   9.228  10.240   0.183  0.1650 -0.1975 -0.3141
    1W        W43006  23.674   4.573   9.349 -0.2668 -0.2358 -0.2961
    1W        W43007   1.952  23.365   6.888  0.0407  0.0389  0.0228
    1W        W43008   3.401   1.825   7.571 -0.0950  0.2689  0.0318
    1W        W43009  10.685  13.120   7.793 -0.0158  0.1086  0.1387
    1W        W43010  26.028  17.894   0.812  0.1240 -0.0220  0.1917
    1W        W43011  11.494   6.770   0.793  0.2799 -0.0063  0.2500
    1W        W43012   1.132  22.016   1.577 -0.0960 -0.0422 -0.0098
    1W        W43013   5.209  21.992   2.284 -0.1160 -0.1234 -0.1248
    1W        W43014   2.825  20.318   0.242 -0.0915 -0.2052 -0.1978
    1W        W43015   0.135  21.728   8.256 -0.0728  0.0712  0.1972
    1W        W43016   8.027  18.062   6.990 -0.1929  0.3935  0.0320
    1W        W43017  21.599  28.123   0.928  0.1391 -0.1302  0.5218
    1W        W43018  22.078  26.325   0.099 -0.2211 -0.0913  0.0121
    1W        W43019  24.612  24.163   7.457 -0.3479 -0.0037  0.0991
    1W        W43020  17.931  18.855   7.245  0.3089 -0.2527 -0.1266
    1W        W43021   2.156   5.559   2.385 -0.0843 -0.0981 -0.1572
    1W        W43022  19.655   0.134   3.634  0.3298 -0.1215  0.2788
    1W        W43023   1.590  17.217   9.435 -0.1194 -0.0005  0.0763
    1W        W43024   5.478  13.342   9.546  0.1383  0.1107 -0.0824
    1W        W43025  21.793  10.399   1.213  0.1297 -0.0052 -0.0963
    1W        W43026  26.006  25.890   2.728  0.1349 -0.3241 -0.0197
    1W        W43027   0.449  23.095   2.343 -0.2744 -0.1397  0.0238
    1W        W43028  19.201  10.189   2.646 -0.2797  0.1879  0.0368
    1W        W43029   4.331  12.197   2.712  0.1779  0.0833  0.1724
    1W        W43030   1.830   1.722   1.564 -0.3158  0.1421  0.0832
    1W        W43031  26.613  20.701   6.905 -0.4348  0.1680 -0.2218
    1W        W43032   7.557  25.603   2.136  0.0990 -0.3849  0.0672
    1W        W43033  17.334  28.510   7.933 -0.2250 -0.0832 -0.1014
    1W        W43034  15.780   2.762   9.114  0.0786 -0.2681  0.0640
    1W        W43035  25.720  16.027   8.939 -0.2637 -0.0051 -0.0154
    1W        W43036  11.245  17.077   1.693  0.3427  0.4579  0.0810
    1W        W43037  21.074  15.396   2.075 -0.2637  0.0181 -0.3031
    1W        W43038   4.567  14.731   8.622 -0.0311 -0.0994  0.0416
    1W        W43039  27.800  11.832   1.390  0.2329 -0.0352  0.1624
    1W        W43040  17.401  23.134   1.131 -0.0105 -0.0140  0.0384
    1W        W43041   7.502  16.161   7.213  0.1161 -0.2366  0.2722
    1W        W43042   0.321  10.239   2.029  0.2449 -0.0787 -0.1949
    1W        W43043   2.138  26.053   1.285  0.1048 -0.0833  0.0943
    1W        W43044   3.625  27.103   1.151  0.0831 -0.0195  0.0546
    1W        W43045  25.810  28.559   8.899 -0.2170 -0.1704  0.0865
    1W        W43046  16.568  24.176   9.133 -0.4285  0.3973  0.0105
    1W        W43047  16.738  10.936   1.423  0.1405  0.2949 -0.2666
    1W        W43048  26.808   5.213   7.944  0.1756  0.2181  0.2280
    1W        W43049  26.770  16.148   6.842 -0.0121  0.1604  0.0017
    1W        W43050  10.618  25.265   9.712 -0.0839 -0.3712  0.3530
    1W        W43051   5.660   0.594   3.924 -0.1961 -0.1034  0.0854
    1W        W43052  25.620  24.930   2.859  0.0954 -0.0521 -0.1938
    1W        W43053  24.598   7.883   9.057  0.0663 -0.2481  0.1096
    1W        W43054  23.442  12.757   7.601 -0.2097 -0.1846  0.3527
    1W        W43055  18.301  24.719   9.269 -0.3106  0.0299 -0.1826
    1W        W43056   7.457  10.246   9.214 -0.1724  0.0276 -0.1382
    1W        W43057  23.328  24.798   9.847 -0.2121  0.2107  0.3134
    1W        W43058   4.062  18.751   0.245  0.1264  0.1194  0.0327
    1W        W43059  10.616  11.592   8.874 -0.0418  0.0575  0.1639
    1W        W43060  27.487   0.686   9.535 -0.3341  0.3044 -0.0786
    1W        W43061   9.728  11.265   9.125 -0.2092 -0.0728  0.2060
    1W        W43062  20.615  14.779   7.619  0.0652  0.2134  0.0318
    1W        W43063  10.432  20.864   9.891 -0.0075  0.2776  0.1073
    1W        W43064  12.364   3.923   3.634  0.1717  0.3580  0.1853
    1W        W43065  22.506   0.821   1.915 -0.1302  0.3291 -0.2978
    1W        W43066   5.262  26.080   0.964 -0.0689 -0.0397 -0.0920
    1W        W43067  16.790   0.019   7.271  0.0671  0.0881  0.2497
    1W        W43068   6.136  26.284   9.643 -0.2637  0.1078 -0.1396
    1W        W43069   3.394  26.116   9.525  0.0881 -0.1794  0.0901
    1W        W43070   7.379   8.072   7.942  0.1686 -0.1740 -0.0562
    1W        W43071   3.898  11.932   1.642 -0.1163 -0.0255  0.1738
    1W        W43072  19.459  26.862   2.361 -0.0961  0.0431 -0.1368
    1W        W43073  27.706  12.869   8.230 -0.0653 -0.1470 -0.1269
    1W        W43074   8.865  15.250   9.678  0.1890  0.0253 -0.0073
    1W        W43075  12.048  13.732   0.295  0.0763 -0.2094 -0.0891
    1W        W43076   2.225   0.349   2.575  0.2634 -0.1645 -0.4705
    1W        W43077   4.637  19.901   7.649 -0.1466  0.0591 -0.2890
    1W        W43078  17.686   7.455   0.907 -0.1511 -0.0269  0.2082
    1W        W43079  13.323  21.403   7.614  0.1155  0.0830  0.3891
    1W        W43080  12.705  20.525   8.581 -0.3084 -0.2230  0.2165
    1W        W43081  22.888   2.347   8.026  0.0993  0.0700  0.0800
    1W        W43082   5.060  12.566   8.646 -0.1068 -0.3611 -0.2363
    1W        W43083   7.100  10.101   1.078  0.1336  0.0636  0.0339
    1W        W43084  11.214  15.688   2.849 -0.2573  0.0113  0.3317
    1W        W43085   0.819  25.361   8.731 -0.0969 -0.1319  0.0286
    1W        W43086  22.645  24.843   2.733 -0.0383  0.2687 -0.2073
    1W        W43087  20.975   1.737   1.540 -0.0056  0.1462 -0.1142
    1W        W43088  10.707   5.379   2.496 -0.1187  0.0441 -0.1579
    1W        W43089  16.825   4.727   1.058  0.1856 -0.2001  0.0237
    1W        W43090  20.005  14.615   0.762  0.1325  0.0310  0.0271
    1W        W43091   2.705   9.881   1.856 -0.1187 -0.0068  0.2504
    1W        W43092  14.810   4.922   9.586  0.1598  0.0674  0.0615
    1W        W43093  27.422  12.441   7.298 -0.0354 -0.3128  0.3440
    1W        W43094  20.146  11.572   0.181 -0.2109 -0.0058  0.0323
    1W        W43095  24.780   7.276   0.297 -0.1783  0.4082  0.1308
    1W        W43096  25.276   5.614   8.347  0.1117 -0.0531 -0.1404
    1W        W43097   4.858   5.216   6.648 -0.1487 -0.3120  0.2607
    1W        W43098   0.782  21.848   7.484  0.0180 -0.0541 -0.0391
    1W        W43099   7.583  19.547   8.169 -0.0882  0.0783 -0.1497
    1W        W43100  19.106   2.869   8.328  0.1305  0.0423  0.0282
    1W        W43101  17.028  16.270   7.787  0.0569  0.2028  0.1377
    1W        W43102  17.073  19.863   8.041 -0.0138  0.2014 -0.0669
    1W        W43103   6.989  17.999   8.694 -0.0885  0.0309  0.0342
    1W        W43104   7.831   1.994   2.931 -0.0651  0.1441 -0.2135
    1W        W43105  19.827  20.072   2.262 -0.1755 -0.2216  0.0251
    1W        W43106  28.191  17.561   0.026 -0.0096  0.1446  0.1367
    1W        W43107  27.097  18.207   9.312  0.0308 -0.0371 -0.0241
    1W        W43108   8.926  10.471   1.916 -0.3758  0.0451 -0.0707
    1W        W43109   6.422  10.201   2.470  0.1256 -0.1728 -0.2890
    1W        W43110  19.349  11.255   9.714  0.0212 -0.1331  0.0360
    1W        W43111  13.484  17.771   2.564 -0.0082  0.3502 -0.1201
    1W        W43112  22.761  25.471   7.331  0.0354 -0.1835 -0.2741
    1W        W43113  22.594  24.340   2.763  0.2255 -0.0119 -0.3599
    1W        W43114   6.108  17.927   2.598 -0.0442 -0.3474  0.3070
    1W        W43115  12.815   5.135   3.984 -0.0560 -0.1052 -0.2022
    1W        W43116  11.074   7.973   7.908  0.0660 -0.3404  0.0065
    1W        W43117  17.460   5.044   0.333  0.1173  0.3058  0.0505
    1W        W43118  25.906   5.886   0.646  0.4620 -0.1085 -0.0367
    1W        W43119  14.393  25.464   2.156  0.0034  0.0341 -0.0971
    1W        W43120  14.059   1.281   9.553 -0.2951  0.0789  0.0264
    1W        W43121  23.867   2.879   8.499 -0.0187 -0.1917  0.0249
    1W        W43122  26.547  27.131   2.367 -0.1235 -0.0875 -0.0169
    1W        W43123  16.647  25.374   0.604 -0.0339  0.1165 -0.0602
    1W        W43124  12.546  19.860   2.001  0.2963 -0.2386 -0.1741
    1W        W43125   2.729   6.305   8.909  0.2254 -0.1504 -0.0164
    1W        W43126   7.815  25.528   7.484  0.0908  0.1856  0.2231
    1W        W43127   4.601  26.556   7.444  0.2116  0.0443 -0.2075
    1W        W43128   5.861  14.467   7.248 -0.1700  0.0486  0.0578
    1W        W43129  27.179  14.038   7.076  0.1933 -0.3309 -0.0201
    1W        W43130  26.549  28.448   0.184  0.0714 -0.1444  0.0612
    1W        W43131   2.552  17.479   6.794 -0.0958 -0.1720  0.2058
    1W        W43132   7.119  22.319   1.452 -0.0072 -0.0471 -0.3304
    1W        W43133   4.046  20.986   2.178  0.4619 -0.0550  0.0078
    1W        W43134   5.451  28.141   0.869  0.0721 -0.0287 -0.0695
    1W        W43135  13.757  19.308   2.189  0.3390 -0.1214 -0.0171
    1W        W43136  10.038  18.661   9.131 -0.2672 -0.2318 -0.2525
    1W        W43137  17.604  27.818   8.912 -0.0954  0.1798 -0.0655
    1W        W43138  25.480  20.866   9.377 -0.2689  0.1329 -0.2847
    1W        W43139   5.453   4.657   1.975  0.0222  0.0702 -0.4205
    1W        W43140   6.932  22.310   9.762 -0.0193  0.1117 -0.0561
    1W        W43141   7.856   8.128   9.002 -0.0072  0.0307  0.0001
    1W        W43142  16.335  17.558   2.850 -0.3567  0.0735 -0.0242
    1W        W43143  20.491  15.731   7.393  0.2540  0.1562 -0.1004
    1W        W43144  17.770  14.408   1.098 -0.2539 -0.0081  0.0044
    1W        W43145  11.141   0.402   2.947  0.0990  0.2563  0.4755
    1W        W43146   4.250   2.102   9.057  0.0547 -0.1052 -0.0942
    1W        W43147  11.033  13.489   8.884 -0.0145 -0.0840  0.0662
    1W        W43148  12.058  20.189   2.508 -0.0791  0.1438 -0.0473
    1W        W43149   3.324  27.836   7.886  0.1775  0.1309  0.1072
    1W        W43150   3.727  17.200   7.959  0.1595  0.0552  0.4414
    1W        W43151  18.129   0.563   1.089  0.0498  0.1022 -0.0696
    1W        W43152  10.016   3.700   9.514 -0.1858 -0.0753  0.0899
    1W        W43153  12.335   1.303   8.889  0.1560  0.1333 -0.3628
    1W        W43154   0.134  18.472   6.196  0.1091 -0.0542  0.0033
    1W        W43155  24.740  11.558   1.268 -0.3707  0.0795  0.1317
    1W        W43156  10.633  18.520   1.815  0.2344 -0.3886  0.0609
    1W        W43157   6.781   4.841   0.811 -0.0148  0.1979  0.0998
    1W        W43158  21.519  23.979   2.001  0.1364 -0.0375  0.1928
    1W        W43159   1.769  11.150   7.106  0.1748 -0.2679  0.4587
    1W        W43160  10.049   3.598   8.521 -0.1765 -0.0978  0.2812
    1W        W43161  16.595  24.507   8.742 -0.1330  0.1798 -0.3473
    1W        W43162   8.449   5.617   1.749  0.0464 -0.1106  0.0142
    1W        W43163  26.852  11.724   9.231  0.0550  0.2551  0.1895
    1W        W43164   1.267   8.443   7.760 -0.4621 -0.2470  0.0239
    1W        W43165  25.303  12.374   6.673  0.2161 -0.4643 -0.1997
    1W        W43166  12.227  14.218   0.456 -0.1624 -0.1176 -0.0500
    1W        W43167  20.806  10.636   7.787  0.1610  0.0667  0.0285
    1W        W43168  22.333  13.023   1.962 -0.2311 -0.1852  0.0788
    1W        W43169  14.263  10.410   0.869  0.3183  0.3024 -0.2160
    1W        W43170  13.439   0.089   4.448 -0.2715  0.0988  0.0729
    1W        W43171   1.782   1.467   6.969  0.2131 -0.1778 -0.1804
    1W        W43172   9.339  23.229   9.759  0.0227  0.1145  0.1732
    1W        W43173  18.978  22.865   2.344 -0.1320  0.0605 -0.0545
    1W        W43174  14.885   0.869   2.171 -0.1826 -0.0627 -0.0132
    1W        W43175  10.358  27.258   1.271 -0.1957 -0.0513 -0.3019
    1W        W43176  14.589   2.319   3.958 -0.0237  0.0026  0.3303
    1W        W43177  27.663   6.730   0.366  0.0078 -0.0262  0.0895
    1W        W43178   6.664  24.781   0.419  0.4133 -0.1130  0.4260
    1W        W43179  10.622  19.034   8.941 -0.1754 -0.0295 -0.2988
    1W        W43180  13.117  14.885   9.471  0.5375 -0.0612  0.1080
    1W        W43181  26.011  25.454   7.472 -0.0641  0.1439  0.2295
    1W        W43182   3.035  26.392   3.022  0.0354  0.1886 -0.1075
    1W        W43183   3.464  19.409   6.993 -0.0135 -0.1993 -0.0008
    1W        W43184  19.471   8.512   1.432 -0.1853 -0.1102  0.0334
    1W        W43185  27.616  22.537   8.396  0.1008  0.1003  0.1385
    1W        W43186  16.932  10.027   7.923  0.0083 -0.0306 -0.1101
    1W        W43187  21.486   7.243   7.263 -0.1109  0.0690 -0.1309
    1W        W43188  13.542  19.296   0.409 -0.0420 -0.1024  0.0349
    1W        W43189  18.766  28.146   2.925  0.3010 -0.0875 -0.0597
    1W        W43190  25.264  18.374   9.086 -0.2542 -0.2637 -0.0968
    1W        W43191   7.817  10.381   0.173  0.0443  0.0009  0.1124
    1W        W43192   6.988   6.113   0.567  0.1026 -0.0670 -0.0315
    1W        W43193   4.240  14.743   7.444  0.1366  0.3419  0.0347
    1W        W43194  22.393  12.719   1.588  0.2046  0.2612 -0.3754
    1W        W43195  18.245  26.276   9.467  0.0015  0.3231 -0.1635
    1W        W43196   7.766  20.061   1.848 -0.0845  0.1479  0.1988
    1W        W43197   9.434  10.872   0.161  0.0915  0.1524  0.1734
    1W        W43198  12.792   7.371   0.954  0.0923  0.0998 -0.1885
    1W        W43199  11.519   9.402   7.768  0.0438 -0.2811  0.0143
    1W        W43200  18.428   5.437   1.800 -0.1153 -0.0023  0.0512
    1W        W43201  21.567   3.252   3.297  0.1923  0.3635 -0.0984
    1W        W43202   6.546   9.229   8.265 -0.2663 -0.4684 -0.2142
    1W        W43203  15.166   7.151   2.306  0.0473  0.2149  0.0641
    1W        W43204  14.891   5.952   7.632 -0.1065  0.5205  0.1684
    1W        W43205  18.919  11.177   2.202 -0.1784 -0.3329 -0.2452
    1W        W43206  18.606   2.518   8.195 -0.2213  0.2491 -0.2039
    1W        W43207   9.739  24.148   9.683 -0.1376 -0.1543  0.0206
    1W        W43208  24.274  10.135   2.622 -0.0599  0.0707 -0.0182
    1W        W43209   8.083   4.762   2.577  0.0423  0.0917  0.1062
    1W        W43210  27.788   5.600   3.211 -0.0986  0.0472  0.0751
    1W        W43211   3.594  25.256   8.441 -0.2885 -0.2515  0.2130
    1W        W43212  22.008  25.953   2.260 -0.4336  0.0506  0.1355
    1W        W43213  25.817  22.348   2.161 -0.1956 -0.2594 -0.0188
    1W        W43214   1.403  27.918   9.711  0.0856  0.2306 -0.3624
    1W        W43215  16.067  18.840   7.723 -0.2793  0.0637  0.2297
    1W        W43216   5.218  26.566   0.638  0.1577  0.0358  0.3324
    1W        W43217   7.960   7.197   1.658 -0.1990  0.1588  0.1358
    1W        W43218  13.865  14.292   7.723  0.2152  0.0414 -0.3226
    1W        W43219   8.190  10.416   1.186 -0.0896  0.1392 -0.0527
    1W        W43220   7.158  15.589   7.472  0.2313  0.1835 -0.0805
    1W        W43221  27.144   6.911   2.137  0.1216  0.1233  0.1395
    1W        W43222  16.095  14.645   9.036 -0.0079 -0.1598  0.1642
    1W        W43223   4.982  26.120   6.682  0.1490  0.0082  0.0008
    1W        W43224   2.819   3.951   2.328  0.2297 -0.1995 -0.1189
    1W        W43225  27.101   4.028   9.563 -0.0048  0.0353 -0.0884
    1W        W43226  28.576  18.370   0.037  0.0663  0.1611 -0.1816
    1W        W43227  21.601  14.966   8.694 -0.0565  0.1866  0.1616
    1W        W43228  27.325  23.532   6.462  0.1537 -0.0422 -0.2601
    1W        W43229   2.537  25.999   9.022 -0.1001 -0.2248 -0.1613
    1W        W43230  15.476  21.369   7.975 -0.0959  0.0753 -0.1283
    1W        W43231  24.608  22.149   9.021  0.0968  0.0050  0.1268
    1W        W43232  27.815  27.101   8.500 -0.0493  0.0540  0.0883
    1W        W43233  12.532  19.160   1.197  0.0992  0.0154 -0.0503
    1W        W43234  18.714  13.756   0.751  0.1057 -0.0957  0.2826
    1W        W43235  27.042  16.427   8.797 -0.2390 -0.0874 -0.3862
    1W        W43236  20.305  12.214   9.147 -0.0065 -0.1590 -0.3240
    1W        W43237  16.997   2.375   0.518  0.2722  0.2748 -0.1216
    1W        W43238  15.849  22.429   2.522  0.3787 -0.2646 -0.3255
    1W        W43239   9.731   4.606   1.538  0.1177  0.1058 -0.4401
    1W        W43240   5.363  11.912   6.962 -0.0500 -0.2117 -0.0024
    1W        W43241   0.702   4.013   7.383 -0.0181  0.0250 -0.3403
    1W        W43242  13.496  27.590   2.806  0.1349  0.0078  0.0211
    1W        W43243  28.520  11.492   9.737  0.3246 -0.1438  0.0159
    1W        W43244  15.707  11.093   9.426 -0.3399 -0.2560  0.1365
    1W        W43245  18.400  22.359   3.056 -0.0816 -0.0415  0.0470
    1W        W43246  10.021   1.846   8.079 -0.1843  0.0357  0.3669
    1W        W43247   1.793  14.790   9.656  0.2440  0.0373  0.0850
    1W        W43248  28.565  13.874   2.171  0.0052 -0.1445  0.3377
    1W        W43249  27.690  22.277   7.456 -0.3717  0.0091 -0.1675
    1W        W43250  24.696  13.300   2.408 -0.1823  0.3101  0.1454
    1W        W43251  21.876   0.859   8.330 -0.0932  0.3729 -0.0600
    1W        W43252   5.010   8.822   0.052  0.1532  0.2892  0.2870
    1W        W43253  24.127   6.556   7.838 -0.1791 -0.0589 -0.2710
    1W        W43254  28.534  10.272   8.680 -0.0914  0.2588 -0.0301
    1W        W43255   6.027   7.601   1.058  0.0491  0.0404 -0.0450
    1W        W43256  12.728  22.964   7.672  0.1484 -0.1701  0.0947
    1W        W43257  27.516  21.299   1.890  0.1855  0.2051  0.1956
    1W        W43258  23.811   5.098   1.672 -0.0727  0.0946  0.0452
    1W        W43259  11.797  26.928   8.940  0.0033 -0.4104  0.1989
    1W        W43260   7.377   2.985   1.336  0.0828 -0.1029  0.1681
    1W        W43261   6.342  18.955   0.260  0.0212  0.3556 -0.0565
    1W        W43262  19.267  11.507   1.897 -0.0680  0.1540  0.1762
    1W        W43263   0.401  23.695   0.996 -0.1682  0.1870 -0.2981
    1W        W43264  19.684  19.929   8.705 -0.0089  0.0477  0.0199
    1W        W43265  14.924  16.470   9.778 -0.0912  0.0772  0.1648
    1W        W43266  12.033  23.723   1.298  0.1971  0.0612  0.0089
    1W        W43267  15.691  24.198   8.077 -0.3826  0.1312  0.2421
    1W        W43268  16.906  27.409   3.551  0.0112 -0.2123 -0.1088
    1W        W43269  19.498  23.979   8.142 -0.1039  0.2678 -0.3092
    1W        W43270  25.631  23.650   7.604 -0.1574  0.0504 -0.2384
    1W        W43271   9.776  10.351   8.620 -0.2944 -0.1326 -0.0454
    1W        W43272  27.953  10.889   7.246 -0.0362 -0.4442  0.0461
    1W        W43273   3.489  12.750   1.969 -0.4107 -0.1961 -0.1657
    1W        W43274   5.097  24.455   9.550  0.0118 -0.1432 -0.1849
    1W        W43275  19.322   4.910   2.994  0.3108 -0.0297  0.1838
    1W        W43276  24.841  17.616   9.055 -0.1168  0.2343  0.1503
    1W        W43277  11.485  20.786   3.034  0.1846 -0.0003 -0.1797
    1W        W43278  20.539  15.112   2.083  0.2196  0.2172  0.1508
    1W        W43279  28.335  23.612   7.806  0.0804  0.1595  0.1899
    1W        W43280  13.579  20.593   8.088 -0.3078  0.0676  0.3083
    1W        W43281   1.434   9.976   9.313  0.1376  0.2412 -0.1613
    1W        W43282   3.553   9.486   8.513  0.2712 -0.0713 -0.0532
    1W        W43283  18.585   1.865   2.152  0.2884 -0.2536  0.1241
    1W        W43284   7.747   5.609   2.117 -0.1044 -0.1935 -0.2504
    1W        W43285  21.037  21.311   6.188 -0.1059  0.1334 -0.1592
    1W        W43286  18.799  27.684   8.883 -0.2207 -0.0165 -0.1266
    1W        W43287   0.891  23.519   1.204 -0.1454  0.2438  0.0509
    1W        W43288  14.614   7.498   3.534 -0.0060  0.1114 -0.0288
    1W        W43289  13.421   5.700   1.006  0.0970  0.0078 -0.0631
    1W        W43290   7.869  26.816   1.683 -0.0989  0.0775 -0.3050
    1W        W43291  11.924  18.947   7.383 -0.1234  0.2588 -0.0815
    1W        W43292  27.846  25.598   8.278 -0.0353 -0.0736 -0.0092
    1W        W43293   8.424  16.689   8.343  0.2037 -0.0147  0.1413
    1W        W43294  10.117   0.764   2.350 -0.0502 -0.1583  0.0949
    1W        W43295  28.467  22.396   1.356 -0.2606  0.1771  0.0156
    1W        W43296   8.073   6.755   7.709  0.0863  0.3855  0.0570
    1W        W43297   2.962  20.766   7.182 -0.0294 -0.1177  0.3178
    1W        W43298   1.326  12.030   8.750 -0.2089  0.3701  0.1511
    1W        W43299  12.586   1.203   8.192  0.3142  0.0700  0.2404
    1W        W43300   5.383  23.747   7.805  0.3011 -0.1565  0.2691
    1W        W43301  23.400  24.856   9.299 -0.1001 -0.2381 -0.0151
    1W        W43302  24.107  20.886   0.323  0.0508 -0.3811  0.1342
    1W        W43303  26.830  19.139   5.989  0.0522  0.0386  0.2201
    1W        W43304  23.046   2.804   6.132 -0.1313  0.0347  0.0042
    1W        W43305  12.967  19.258   1.472  0.2679 -0.0492 -0.2946
    1W        W43306  15.271  11.791   9.080  0.4743 -0.2815  0.1929
    1W        W43307  19.830  26.901   7.781 -0.2832 -0.3021  0.2222
    1W        W43308  13.487  28.613   0.536 -0.1129  0.0451 -0.0404
    1W        W43309  15.476   0.005   0.158 -0.3195  0.0244 -0.0187
    1W        W43310  26.910  25.993   3.019  0.0971  0.1926 -0.2160
    1W        W43311  17.530  26.641   3.221 -0.1704  0.1041 -0.1472
    1W        W43312  11.662  13.082   9.534  0.3382 -0.1805  0.1654
    1W        W43313  16.101  20.697   8.703 -0.2837  0.2662  0.1794
    1W        W43314   1.329  11.149   0.267  0.1007  0.2108 -0.0867
    1W        W43315  19.140  28.668   9.840 -0.0658 -0.1393  0.1727
    1W        W43316  20.269  22.757   2.789 -0.0496 -0.0019  0.2982
    1W        W43317  14.456  18.779   1.703  0.0387 -0.0805  0.1586
    1W        W43318  24.031   6.526   2.957  0.2309 -0.3005 -0.0352
    1W        W43319  21.642   6.672   0.814 -0.2086 -0.3238  0.0992
    1W        W43320  15.814  17.010   2.177  0.1328 -0.3206  0.0047
    1W        W43321  11.320   9.525   8.292  0.2185 -0.0012  0.0329
    1W        W43322  10.257   4.079   1.966  0.4157 -0.0452 -0.2457
    1W        W43323  13.519  13.807   7.891  0.2582 -0.2077  0.0157
    1W        W43324   2.665   6.893   6.667 -0.3671 -0.1095 -0.0792
    1W        W43325   9.534  15.167   7.748  0.0856  0.3628 -0.1207
    1W        W43326  23.691  25.971   7.968  0.1097  0.0219 -0.0506
    1W        W43327  25.150   2.565   7.066  0.1160  0.3351  0.3235
    1W        W43328   3.328   6.192   6.307  0.2180 -0.1860 -0.2251
    1W        W43329  14.709  18.054   8.298  0.0712 -0.0420 -0.1385
    1W        W43330   2.587   1.161   6.884  0.0003  0.1236 -0.0703
    1W        W43331  11.948  14.424   9.207  0.1534  0.0032 -0.0790
    1W        W43332  25.664   2.325   0.084  0.2524  0.0389 -0.1310
    1W        W43333  27.634  27.463   0.396  0.1474  0.0305 -0.0686
    1W        W43334  11.135  23.509   2.913 -0.0694 -0.1550  0.4759
    1W        W43335  14.569  13.642   1.637  0.0217 -0.0319 -0.0126
    1W        W43336  21.806  26.414   0.542 -0.0548 -0.0446 -0.1977
    1W        W43337   4.728  17.300   1.208 -0.2892  0.2445  0.0121
    1W        W43338  23.086   8.553   2.316  0.0688 -0.2905 -0.1397
    1W        W43339  11.217  20.509   8.455 -0.0395  0.2536 -0.0999
    1W        W43340   8.391  25.104   7.914  0.0292 -0.0759  0.2940
    1W        W43341   7.682  20.038   6.008  0.0218  0.1667 -0.0160
    1W        W43342  11.746  13.077   2.033 -0.2386 -0.1330 -0.0462
    1W        W43343  25.324  28.557   8.623 -0.1910 -0.2049 -0.0864
    1W        W43344   0.649  14.000   1.522  0.3534 -0.0356  0.6825
    1W        W43345  26.651  20.282   1.106 -0.0230  0.2572  0.0315
    1W        W43346   1.729  18.744   1.066 -0.0950 -0.1845  0.0964
    1W        W43347  22.947  21.555   8.500 -0.2225 -0.2325 -0.0350
    1W        W43348  12.676   6.178   2.525  0.0921 -0.3109 -0.2650
    1W        W43349  15.000  26.189   9.096 -0.1956  0.1746  0.0394
    1W        W43350  10.138   8.779   2.844 -0.1814 -0.0964  0.0479
    1W        W43351  13.105  26.153   9.311  0.0754  0.1039  0.0041
    1W        W43352  26.260   0.634   0.986 -0.1551  0.2926 -0.0287
    1W        W43353  10.441  11.597   9.345  0.2246 -0.3696 -0.3163
    1W        W43354  17.022  28.684   1.033 -0.0092 -0.0099  0.0650
    1W        W43355  24.455  22.057   0.009  0.0347 -0.0169 -0.0040
    1W        W43356  10.315  21.720   0.540  0.1281 -0.1739 -0.2665
    1W        W43357  25.832   0.170   2.994  0.0413 -0.1466 -0.1678
    1W        W43358  18.380  28.095   2.038  0.0960 -0.1840  0.0702
    1W        W43359   0.484  24.524   6.973  0.2874  0.0136 -0.1505
    1W        W43360  23.333  26.781   2.699  0.2216 -0.1122 -0.1281
    1W        W43361  21.349   2.935   1.253 -0.2168 -0.3452  0.2899
    1W        W43362   8.117  23.544   6.629 -0.0680 -0.1445  0.0026
    1W        W43363  20.518  21.553   9.599  0.1576 -0.1590 -0.2610
    1W        W43364  20.896  18.857   0.019 -0.0250  0.0290 -0.1443
    1W        W43365  13.951  24.789   0.804  0.0826  0.2348  0.0899
    1W        W43366   0.472  20.627   8.844 -0.0678  0.5025  0.0567
    1W        W43367  16.195   0.377   2.848  0.0697 -0.0615  0.0337
    1W        W43368  27.166   1.940   8.817  0.1644 -0.1165 -0.1404
    1W        W43369   6.662  18.596   8.037 -0.1309  0.0552 -0.4210
    1W        W43370  16.799  27.018   6.900 -0.3216  0.1727  0.1616
    1W        W43371  22.350  10.858   7.331 -0.2228  0.0683 -0.0146
    1W        W43372  28.636  14.506   1.390  0.0978 -0.0025 -0.3832
    1W        W43373  19.913  21.493   0.352 -0.1555 -0.0900 -0.3983
    1W        W43374  24.548  17.872   2.755  0.2282 -0.0655  0.0349
    1W        W43375  25.103   0.756   9.719 -0.1192  0.0089 -0.1337
    1W        W43376  21.412  23.061   9.421 -0.1430 -0.0694 -0.1598
    1W        W43377  10.370  15.328   7.549 -0.1370 -0.0205  0.0251
    1W        W43378   4.755  21.405   9.639 -0.1825 -0.2326  0.2358
    1W        W43379   8.175  25.775   1.191  0.0020 -0.1130  0.1249
    1W        W43380  25.501  12.080   7.204  0.1336  0.4131 -0.2503
    1W        W43381   9.460  21.683   8.806  0.2527  0.1657 -0.0677
    1W        W43382  24.473  22.913   2.243  0.1351  0.3118  0.0087
    1W        W43383  28.602  18.579   7.351  0.0158 -0.2056 -0.1303
    1W        W43384  12.529  25.588   0.205 -0.3351  0.0652 -0.0539
    1W        W43385  13.415  23.908   0.853  0.2120 -0.0491 -0.1504
    1W        W43386   7.176  22.791   8.305 -0.0996 -0.0973  0.1265
    1W        W43387  20.512  28.155   2.841  0.1938 -0.0156 -0.0456
    1W        W43388  13.527  11.047   2.558  0.0839  0.1304 -0.0301
    1W        W43389  21.944  19.531   2.889 -0.0682 -0.1365 -0.2276
    1W        W43390  27.529   5.869   1.656 -0.0434 -0.1332 -0.0754
    1W        W43391   5.920   3.608   9.530 -0.3092  0.4152 -0.2569
    1W        W43392   6.310   8.668   2.809 -0.0706  0.0230  0.1487
    1W        W43393   1.242   7.215   1.472  0.0323 -0.2480 -0.0328
    1W        W43394  19.737  14.765   0.309 -0.3541 -0.0485 -0.1759
    1W        W43395  19.897  21.543   2.895 -0.2563  0.2744  0.3102
    1W        W43396  11.936  10.280   8.090  0.2116 -0.4449 -0.1003
    1W        W43397  13.332  13.446   0.622 -0.4546 -0.1016 -0.1741
    1W        W43398  15.982  27.599   1.535  0.0240  0.0926 -0.0324
    1W        W43399   0.101  13.899   0.776 -0.2354 -0.2673 -0.0723
    1W        W43400  20.148  25.524   8.576 -0.1438 -0.3857  0.1250
    1W        W43401  20.991   7.683   2.584 -0.2411 -0.1153 -0.3891
    1W        W43402  15.104  25.672   2.459  0.1049  0.1887  0.0403
    1W        W43403   2.923  19.509   8.545  0.1628  0.3778 -0.2349
    1W        W43404   4.052  23.120   9.629  0.0064  0.0612 -0.0436
    1W        W43405  27.178  19.066   8.771  0.1149  0.3110  0.1005
    1W        W43406   5.763  17.002   6.190 -0.1507 -0.1685  0.1396
    1W        W43407  16.169  25.015   8.896 -0.0050  0.4378 -0.0220
    1W        W43408  13.525  25.772   2.995 -0.2366 -0.0851  0.1575
    1W        W43409  14.919  14.162   7.700 -0.1859  0.0366 -0.1862
    1W        W43410  16.656  28.349   1.251 -0.3198 -0.1401 -0.2370
    1W        W43411   8.191   5.979   9.453  0.4554 -0.1720 -0.0859
    1W        W43412  19.661   9.663   8.219  0.0130  0.2694  0.0045
    1W        W43413   6.763  23.207   2.362 -0.0854 -0.3322  0.3821
    1W        W43414   5.265  23.367   5.795 -0.1257  0.0961 -0.0206
    1W        W43415   5.058  10.027   9.385 -0.3749 -0.0603 -0.2369
    1W        W43416  27.556   8.072   9.656  0.0065 -0.0307  0.2612
    1W        W43417   7.677  19.516   1.860  0.1948  0.1440 -0.2746
    1W        W43418  24.673   7.009   1.302  0.1109 -0.0772 -0.1594
    1W        W43419  18.805  15.560   8.798 -0.0485  0.2532 -0.0946
    1W        W43420   3.503  12.363   8.761  0.2873  0.1112  0.1395
    1W        W43421  24.768  16.293   7.331  0.1317 -0.1890  0.0079
    1W        W43422   1.108   8.901   7.395  0.1486 -0.0606 -0.0392
    1W        W43423  24.049  23.648   1.761  0.0878  0.1215  0.1182
    1W        W43424  23.870  17.661   8.817 -0.1298  0.1260  0.0122
    1W        W43425  13.521  28.571   7.600  0.0332 -0.0373  0.2322
    1W        W43426  16.928  15.608   2.258 -0.0458 -0.0585 -0.0385
    1W        W43427   3.972  10.294   7.261 -0.0726  0.2517 -0.2152
    1W        W43428   1.621   2.291   8.278 -0.1979 -0.4361 -0.0024
    1W        W43429  18.613  22.583   0.697 -0.0172 -0.2724 -0.0258
    1W        W43430   9.646  21.385   1.242 -0.4071 -0.0069  0.1067
    1W        W43431  25.603   3.573   6.182  0.0464 -0.2652  0.1837
    1W        W43432  22.108   6.065   0.621 -0.0369 -0.1182 -0.0325
    1W        W43433   0.476  12.869   8.660 -0.0178 -0.4023  0.0563
    1W        W43434   8.589  23.958   1.668 -0.0416  0.1022 -0.0609
    1W        W43435   4.758  21.742   8.504 -0.1394  0.3423  0.2674
    1W        W43436  25.504  14.747   9.744 -0.2681  0.1353 -0.1554
    1W        W43437   3.969   4.359   9.798 -0.1841  0.0471  0.0592
    1W        W43438   6.748   0.053   0.097  0.0821 -0.0859  0.0006
    1W        W43439  15.082   3.593   3.497  0.1195 -0.1864 -0.1567
    1W        W43440  16.500  20.570   7.840  0.1179  0.1475 -0.0039
    1W        W43441   5.211  11.677   9.124  0.0655  0.2246 -0.0401
    1W        W43442  22.382   4.612   1.688 -0.1530  0.2787  0.0720
    1W        W43443  13.616  25.192   9.513 -0.1675  0.3305 -0.0699
    1W        W43444  11.542  13.979   1.824  0.0927  0.0352  0.2019
    1W        W43445   9.002   7.274   9.411  0.2802 -0.2137  0.0287
    1W        W43446  16.508  10.168   8.108  0.2126 -0.3780  0.0547
    1W        W43447  20.661  22.813   8.444  0.1690 -0.2113  0.3294
    1W        W43448  10.321  10.176   8.456 -0.1719 -0.0569 -0.1019
    1W        W43449  13.425   5.244   0.459 -0.0365  0.0853  0.2844
    1W        W43450   2.746   4.261   8.137  0.1389 -0.1044  0.0458
    1W        W43451  17.592  19.546   8.777  0.2688 -0.1804 -0.2188
    1W        W43452  14.423   0.441   9.550 -0.0747  0.1881  0.1422
    1W        W43453   7.259   8.251   7.463 -0.1296 -0.0884 -0.0917
    1W        W43454   4.842  18.521   6.393  0.1659  0.1216  0.1931
    1W        W43455  17.255   8.713   7.613 -0.1397 -0.0163  0.0213
    1W        W43456   4.528  13.691   3.266  0.1527 -0.0322 -0.3124
    1W        W43457  10.244   5.747   1.408 -0.1204 -0.2242  0.1819
    1W        W43458  12.457  10.281   8.236  0.1795  0.0301  0.0141
    1W        W43459  27.973   1.241   8.341 -0.1809 -0.0544  0.2575
    1W        W43460   2.300  21.763   6.980  0.1811 -0.0149 -0.2669
    1W        W43461   3.837  24.071   2.748 -0.0931  0.3643 -0.0644
    1W        W43462  10.295   8.191   1.626 -0.2743 -0.3023  0.2211
    1W        W43463   2.889   6.777   8.022 -0.2495 -0.1766  0.0511
    1W        W43464  12.561  18.928   0.574 -0.0337 -0.0406  0.0746
    1W        W43465  24.776  11.447   9.482  0.2189 -0.0066  0.1322
    1W        W43466  14.506  26.374   3.518  0.4804  0.0532  0.0565
    1W        W43467  24.394  11.723   0.825 -0.0661 -0.2530 -0.1850
    1W        W43468   9.572  22.892   9.440  0.0546  0.0496  0.1399
    1W        W43469  14.667   1.271   3.977 -0.2568 -0.0626 -0.0623
    1W        W43470  11.843   8.727   8.015 -0.1881  0.1418 -0.1372
    1W        W43471  19.807  28.024   9.136 -0.0708 -0.1270 -0.0892
    1W        W43472  10.696   4.845   8.294  0.0267  0.1439 -0.3803
    1W        W43473  10.193   7.160   7.679  0.0590 -0.3362 -0.0240
    1W        W43474   3.499   7.361   6.440  0.1822 -0.2464  0.0265
    1W        W43475   1.240  27.896   3.342  0.0437  0.1942  0.1464
    1W        W43476   2.481   1.261   0.969 -0.1681 -0.0602  0.0463
    1W        W43477  19.460  27.114   8.046 -0.1582  0.0644  0.3237
    1W        W43478  23.577  12.670   9.789 -0.0543 -0.0157  0.0097
    1W        W43479  16.406  25.831   9.772 -0.0762 -0.0620  0.3062
    1W        W43480   8.183  24.689   9.639  0.0056  0.0405 -0.1046
    1W        W43481   1.981  10.365   2.160 -0.1506 -0.1016 -0.0747
    1W        W43482   6.609  15.822   6.501  0.0456  0.3105  0.0231
    1W        W43483   6.784  16.808   7.733 -0.2358 -0.1223 -0.2563
    1W        W43484   4.577  14.011   2.041 -0.0716  0.2355 -0.3007
    1W        W43485   5.320  25.513   0.193  0.0275  0.5463  0.1082
    1W        W43486   2.401  17.887   9.541  0.1282  0.0003  0.1045
    1W        W43487   1.937  13.316   8.070 -0.1841 -0.1019 -0.0699
    1W        W43488  24.892  22.869   7.157  0.2037  0.1928  0.0150
    1W        W43489  23.499  26.089   9.421  0.3296  0.0752 -0.0224
    1W        W43490   8.428  14.085   1.626  0.0733 -0.0802 -0.1585
    1W        W43491   7.174   1.154   9.386 -0.2473 -0.0537  0.0306
    1W        W43492  18.494  10.902   0.413  0.1100 -0.0482  0.0784
    1W        W43493  28.619  15.457   6.828 -0.4513 -0.2735  0.1627
    1W        W43494   7.220  15.825   9.861  0.2809 -0.0481  0.1153
    1W        W43495   5.229   7.153   7.614 -0.1343  0.2927  0.0916
    1W        W43496   3.849   2.990   2.486  0.0980 -0.0633  0.0472
    1W        W43497   4.083  12.862   8.189  0.2099 -0.0981  0.0598
    1W        W43498   6.066  26.427   2.320  0.2666  0.2684  0.0070
    1W        W43499   0.065  24.292   9.507  0.0738  0.0444  0.0924
    1W        W43500  11.845   4.794   1.313  0.1046 -0.1808  0.2498
    1W        W43501  19.426   6.730   9.670 -0.0950 -0.0834 -0.2562
    1W        W43502  20.772  15.633   1.436 -0.1330 -0.1182  0.0698
    1W        W43503  19.386  20.357   2.766 -0.1111  0.0027  0.0876
    1W        W43504   5.172  10.076   9.857 -0.1708  0.0439 -0.2513
    1W        W43505   8.489   3.085   1.167 -0.2190  0.1388 -0.0364
    1W        W43506  13.270   0.032   1.037  0.0147 -0.4267  0.4479
    1W        W43507   5.512   8.802   0.070  0.2443  0.0111 -0.0433
    1W        W43508   7.904   9.830   1.724 -0.2184 -0.0013  0.0284
    1W        W43509  10.395  13.648   0.011  0.1330 -0.1783 -0.0528
    1W        W43510  12.397   4.689   8.552 -0.0260 -0.0038  0.1949
    1W        W43511   0.468  23.074   1.803 -0.0855  0.0049  0.2640
    1W        W43512  11.755  20.001   0.020 -0.0470 -0.0002  0.0215
    1W        W43513  25.482   8.984   5.662 -0.0969  0.1322 -0.1666
    1W        W43514  22.495  14.967   1.312 -0.0102 -0.2271  0.0029
    1W        W43515   2.380   6.600   2.724 -0.1129  0.2094  0.0011
    1W        W43516  21.509   2.397   1.438  0.3396  0.1447 -0.2424
    1W        W43517  19.878  27.002   6.813 -0.3417 -0.1085  0.3043
    1W        W43518   2.337  12.768   0.758 -0.1281 -0.3281 -0.3269
    1W        W43519  19.608  13.879   0.067 -0.0633  0.2383  0.0413
    1W        W43520  22.397   3.325   0.535  0.0859 -0.0846  0.0806
    1W        W43521  20.552  20.216   3.157  0.0434  0.0170 -0.3025
    1W        W43522  23.587  24.994   8.319 -0.1745 -0.2959  0.1835
    1W        W43523  16.549   3.676   8.823  0.0693  0.0269  0.0828
    1W        W43524  25.236  10.802   7.399 -0.1990 -0.0510  0.1365
    1W        W43525  13.376  15.172   9.769  0.3072 -0.2014  0.3223
    1W        W43526   7.800   0.554   3.372  0.3208 -0.2002 -0.1616
    1W        W43527  16.980   2.973   8.689 -0.0438 -0.0161  0.0943
    1W        W43528   0.288  11.648   2.680 -0.2386  0.0085  0.2201
    1W        W43529  17.580  26.494   0.515 -0.1254  0.0297 -0.4161
    1W        W43530   9.150   3.974   7.126 -0.0542 -0.1014 -0.0442
    1W        W43531  19.396   2.531   3.113 -0.1461  0.3091 -0.1751
    1W        W43532  26.650  21.403   7.592 -0.0652  0.2260  0.2452
    1W        W43533  12.825  13.464   9.924 -0.1771  0.2669 -0.0582
    1W        W43534   4.776   0.952   1.390  0.0812 -0.0011  0.2379
    1W        W43535  21.529   4.854   0.115 -0.2015 -0.2208  0.0720
    1W        W43536   4.464  25.563   6.084  0.0620  0.0408 -0.0818
    1W        W43537  12.287  25.214   1.161 -0.3247 -0.2900  0.1856
    1W        W43538   1.041  10.305   8.140  0.1926  0.1254  0.3112
    1W        W43539   7.514  24.825   0.577  0.4176  0.0853  0.2765
    1W        W43540  14.836  16.277   2.612  0.0686  0.1815 -0.3806
    1W        W43541  26.763   4.193   7.825  0.0365  0.0979 -0.0717
    1W        W43542  11.159  22.907   9.894  0.3096  0.0818 -0.1274
    1W        W43543  14.984  16.699   7.698  0.0114 -0.1553 -0.2935
    1W        W43544  23.462  16.240   0.217 -0.0633 -0.1698 -0.2351
    1W        W43545  25.540  21.019   2.239  0.0086  0.0400  0.3519
    1W        W43546   3.829  15.796   2.170 -0.0337 -0.0164  0.3391
    1W        W43547  23.594  23.450   1.447 -0.3233  0.0731 -0.0040
    1W        W43548  22.927  23.505   2.623  0.1760 -0.1085  0.2280
    1W        W43549   8.744  16.015   2.736 -0.0886  0.0987  0.1389
    1W        W43550   5.055   3.921   2.059  0.0801  0.0389 -0.1014
    1W        W43551  26.698   8.636   0.459 -0.2500  0.0266 -0.3782
    1W        W43552  12.525   6.593   2.813  0.1303 -0.0283  0.0841
    1W        W43553  20.568   7.288   3.200  0.0417 -0.3179  0.4031
    1W        W43554   3.257   3.656   0.262 -0.1138 -0.2347  0.1649
    1W        W43555  17.472  10.830   2.311  0.0842 -0.0297 -0.4652
    1W        W43556   6.556  25.252   0.587 -0.0777  0.0076 -0.1637
    1W        W43557  13.132   3.310   1.422  0.0830 -0.0206 -0.0398
    1W        W43558  10.681  12.233   1.122  0.1941  0.0703  0.4159
    1W        W43559  23.563   7.170   0.892  0.1746 -0.2064  0.0398
    1W        W43560  13.299  24.045   2.249  0.0297 -0.4309 -0.0993
    1W        W43561   0.454  17.041   0.150  0.0978 -0.0256 -0.3214
    1W        W43562  12.073  23.038   2.878  0.1969  0.0243 -0.1993
    1W        W43563  20.756  28.137   1.009 -0.0615 -0.2600  0.1197
    1W        W43564   4.223   4.261   2.110  0.0808  0.0945  0.0066
    1W        W43565   3.882  15.662   9.103  0.1539  0.2169  0.0974
    1W        W43566   0.940  13.686   8.586  0.3842 -0.0886 -0.0669
    1W        W43567  20.321  25.500   2.350 -0.0609 -0.0518 -0.2846
    1W        W43568  27.984  16.339   3.182 -0.1494 -0.0410 -0.1875
    1W        W43569   4.452  19.576   7.249 -0.2696  0.0752  0.1269
    1W        W43570  18.988  11.867   1.558  0.2894  0.2449  0.0058
    1W        W43571  27.828  27.823   8.987 -0.1964  0.1184 -0.1429
    1W        W43572  25.345  11.003   8.287  0.1014 -0.3682  0.1645
    1W        W43573   9.032   7.730   7.679  0.1831  0.0914  0.0329
    1W        W43574   1.621  27.865   1.410 -0.3745 -0.2784  0.2577
    1W        W43575  14.353  20.635   9.402 -0.2077  0.1861  0.1198
    1W        W43576   4.864   6.191   1.963 -0.1385 -0.0073  0.0235
    1W        W43577   0.416  15.135   0.864 -0.3070  0.0259  0.2894
    1W        W43578   4.290  28.476   7.907  0.4910 -0.1757 -0.1518
    1W        W43579  22.151  18.178   6.603  0.0745 -0.0582  0.0094
    1W        W43580  26.018  17.127   9.346 -0.2140 -0.3447  0.0403
    1W        W43581  18.581   2.214   2.528 -0.2513  0.0592  0.2843
    1W        W43582  27.569   3.672   0.399  0.2886  0.3308  0.1638
    1W        W43583  12.660  20.477   8.091 -0.2637 -0.1385  0.0786
    1W        W43584   8.908   6.938   8.151  0.0554  0.1901  0.0803
    1W        W43585  19.098   3.227   2.333 -0.1036  0.3415 -0.1323
    1W        W43586  23.992  12.482   0.076 -0.3386 -0.0926 -0.3962
    1W        W43587  28.634   5.601   8.209  0.2410 -0.4857  0.1295
    1W        W43588  27.346  16.973   9.079  0.2214 -0.3464 -0.3246
    1W        W43589  10.034   8.259   1.197 -0.1543 -0.0127  0.1674
    1W        W43590  23.101   8.893   0.922  0.0804  0.0634  0.0476
    1W        W43591  16.537  13.938   2.329  0.2225  0.2982  0.0109
    1W        W43592   3.250  10.748   6.868 -0.0547 -0.3121 -0.1188
    1W        W43593   3.119  20.240   7.648 -0.1717 -0.1199 -0.2629
    1W        W43594  21.573  11.509   6.859 -0.0171 -0.0912  0.0662
    1W        W43595  10.743  25.216   2.160 -0.0726  0.1702 -0.3398
    1W        W43596  25.462   5.219   0.317  0.2254  0.0446 -0.1416
    1W        W43597   9.467   7.783   0.725  0.0787 -0.2063 -0.0241
    1W        W43598   8.938   2.809   1.817  0.2666 -0.0598 -0.1371
    1W        W43599  18.978  25.109   6.586 -0.0558 -0.0320 -0.0156
    1W        W43600   3.187  28.225   9.446  0.0979  0.2034  0.0878
    1W        W43601  24.903  25.158   3.666 -0.1061  0.0473  0.2910
    1W        W43602   1.635  10.765   9.672  0.0338 -0.1251 -0.0527
    1W        W43603  16.691  24.231   0.359 -0.0117  0.0810 -0.0480
    1W        W43604  17.747   4.763   8.298 -0.2675  0.0923  0.1470
    1W        W43605  12.664   1.310   3.801 -0.0242 -0.3241 -0.5291
    1W        W43606   5.999  12.813   1.165  0.0943  0.1898 -0.2356
    1W        W43607  22.697  26.659   8.491  0.0191 -0.0378 -0.0022
    1W        W43608  27.706   0.836   1.122  0.4347 -0.1310  0.2778
    1W        W43609  14.049  28.447   2.760 -0.1741 -0.0285 -0.3652
    1W        W43610   9.314  21.185   0.740 -0.2468  0.1103 -0.0063
    1W        W43611  28.097   8.606   8.944 -0.0254  0.1852  0.2484
    1W        W43612   3.109   6.937   6.929  0.3535  0.0879 -0.2189
    1W        W43613  26.513   1.678   0.497 -0.1607 -0.0770  0.0698
    1W        W43614   3.105  17.183   8.581 -0.0583 -0.1437  0.0805
    1W        W43615  22.047  20.467   2.327 -0.0235 -0.0644  0.0422
    1W        W43616   8.191   2.056   2.563 -0.2858 -0.3326 -0.3606
    1W        W43617   8.119   2.036   7.880 -0.0947  0.3477 -0.0030
    1W        W43618  10.514  23.693   8.518  0.0110  0.0697  0.0309
    1W        W43619   8.146  17.119   0.661 -0.0607  0.3833 -0.1378
    1W        W43620  11.340   1.381   1.381 -0.1992 -0.0887  0.0907
    1W        W43621  26.085  27.947   8.463 -0.2215  0.0651 -0.1430
    1W        W43622  26.598  19.865   7.111 -0.0926 -0.0148  0.1954
    1W        W43623  17.188  22.029   2.674  0.1882  0.0713 -0.1073
    1W        W43624  25.120   6.799   8.140 -0.3712 -0.0829  0.1097
    1W        W43625  13.553  13.781   9.397  0.0145  0.3118  0.0067
    1W        W43626   0.898   8.059   7.692  0.0920 -0.1390 -0.1865
    1W        W43627  21.695  11.036   2.859  0.0150  0.3221  0.2324
    1W        W43628  14.488  22.335   2.400 -0.0800  0.1858  0.0246
    1W        W43629   9.041  23.443   1.258  0.3770 -0.0321 -0.1265
    1W        W43630  19.285   5.344   8.195  0.1606  0.0010  0.0988
    1W        W43631  18.828   4.577   2.404  0.1733  0.1237 -0.0689
    1W        W43632  27.271   8.280   8.622  0.0249 -0.0255 -0.3032
    1W        W43633  13.156   1.264   0.629  0.0592  0.2760  0.0531
    1W        W43634  13.555  24.485   9.543 -0.1038  0.0336 -0.4195
    1W        W43635  19.387  22.734   6.890  0.1694 -0.1379 -0.0028
    1W        W43636  13.147   5.267   0.947 -0.1437 -0.1253 -0.0049
    1W        W43637  20.398  16.144   2.132  0.1112 -0.0923 -0.1773
    1W        W43638   7.609   3.627   0.224  0.1048 -0.2060  0.0883
    1W        W43639   8.363  23.132   0.118 -0.5463  0.0049  0.1536
    1W        W43640  20.138  10.531   7.840  0.2719 -0.0752 -0.1613
    1W        W43641   6.817  21.656   0.807 -0.2987 -0.3082  0.1293
    1W        W43642  13.681   4.157   2.315  0.2062  0.0501  0.0719
    1W        W43643  20.288  25.307   0.966  0.1886 -0.1665  0.1169
    1W        W43644  19.935  19.139   0.832  0.1833  0.1411 -0.1725
    1W        W43645  25.104  14.474   8.367  0.2643  0.0820 -0.0954
    1W        W43646  19.918  22.101   3.663  0.1822 -0.0180 -0.1754
    1W        W43647   3.814  11.363   0.017 -0.0957  0.0309 -0.0253
    1W        W43648   6.407  15.953   7.685  0.3210 -0.0977 -0.0779
    1W        W43649   1.989  18.430   9.649 -0.1412 -0.0236 -0.0160
    1W        W43650  24.264   3.250   8.241 -0.1289  0.1620  0.2488
    1W        W43651   3.059   1.226   6.611 -0.3085 -0.1427  0.2045
    1W        W43652   4.983   0.231   2.149 -0.2756 -0.0655 -0.1892
    1W        W43653  19.436  14.824   3.033  0.0227  0.0405  0.0750
    1W        W43654  12.800   7.855   1.038  0.2964 -0.2278 -0.2200
    1W        W43655  25.045   4.589   1.872  0.0536 -0.0080 -0.3235
    1W        W43656  19.730   0.227   0.618  0.1055 -0.2906 -0.0003
    1W        W43657   8.720  24.955   9.936 -0.4350 -0.0399  0.1329
    1W        W43658  25.742  27.095   8.323  0.0473  0.0411  0.3453
    1W        W43659   4.744  24.332   9.256 -0.2325  0.2084  0.2116
    1W        W43660  18.412  11.194   9.933  0.1845  0.1884  0.0510
    1W        W43661   3.702  20.953   1.118 -0.1465 -0.1662  0.2637
    1W        W43662  17.114  10.368   0.299  0.2891 -0.0136  0.1413
    1W        W43663   6.000  22.179   9.428  0.2572  0.0577  0.0383
    1W        W43664  17.343  20.456   7.859 -0.1299 -0.0998  0.3423
    1W        W43665   3.634  13.142   7.716 -0.3528 -0.0030  0.3173
    1W        W43666   3.165   6.715   0.409 -0.0507 -0.1446  0.1032
    1W        W43667   5.345   4.276   6.982 -0.0884  0.0297 -0.1429
    1W        W43668  27.545  10.768   1.247 -0.1178  0.2077 -0.2576
    1W        W43669   5.872   3.690   8.331  0.0275  0.0615 -0.3160
    1W        W43670  26.686  22.721   2.787  0.1374  0.3496 -0.0745
    1W        W43671  28.066  11.287   0.418 -0.0018 -0.1118  0.0458
    1W        W43672  24.506  13.987   1.866 -0.0113  0.2427  0.0093
    1W        W43673   7.591  23.611   2.734 -0.2483 -0.1455  0.1391
    1W        W43674  22.986  24.645   6.696  0.2353 -0.0334 -0.0610
    1W        W43675  22.856   0.823   8.308  0.0033  0.1306 -0.3597
    1W        W43676   3.168  21.053   0.802  0.3852 -0.0708  0.0500
    1W        W43677   8.813   7.785   0.431  0.1383 -0.0569  0.2214
    1W        W43678   9.843   7.731   0.340 -0.1588 -0.2028  0.1781
    1W        W43679  17.319  27.303   2.670 -0.0111 -0.0126 -0.1788
    1W        W43680   4.704  14.951   7.551 -0.1839 -0.0860 -0.1815
    1W        W43681  18.487   7.881   2.307 -0.0963  0.2443  0.0734
    1W        W43682   2.768   3.291   1.809  0.0172 -0.2187 -0.3266
    1W        W43683  13.275   2.953   0.230  0.1009 -0.0507 -0.1619
    1W        W43684  25.013  17.421   7.829  0.1739 -0.0046 -0.0308
    1W        W43685  24.599   0.085   9.932 -0.1224 -0.3300 -0.0825
    1W        W43686  24.081  20.268   7.392 -0.0497  0.1341  0.1006
    1W        W43687  16.067   5.211   7.170  0.2960  0.0944  0.1700
    1W        W43688  12.855  12.425   0.046  0.1317 -0.0590  0.3211
    1W        W43689   1.312  19.979   7.656 -0.6475 -0.4572  0.3046
    1W        W43690  21.194  13.898   9.586  0.2238  0.0328 -0.0617
    1W        W43691  26.436   2.379   9.261 -0.1690  0.0727  0.0017
    1W        W43692   2.325  18.598   1.917  0.1631 -0.2370 -0.0125
    1W        W43693   3.233  23.923   1.672 -0.1040 -0.0218 -0.1762
    1W        W43694  19.826  16.059   2.170  0.0628  0.4512  0.0582
    1W        W43695  21.334  13.254   0.275  0.2180  0.1646 -0.3699
    1W        W43696  16.493   0.881   8.036  0.1151 -0.0795 -0.1121
    1W        W43697   3.479  21.492   9.780 -0.1269 -0.1395 -0.0122
    1W        W43698  15.863  15.333   1.475  0.1905 -0.0026 -0.0500
    1W        W43699  18.891  14.418   8.183  0.1068  0.1545  0.0137
    1W        W43700  13.910   5.197   1.324 -0.2357 -0.3538  0.1812
    1W        W43701  18.006  23.856   0.858 -0.1924 -0.1414 -0.1834
    1W        W43702  14.680  11.102   1.948 -0.0286 -0.1703  0.2856
    1W        W43703   2.272   4.009   0.222 -0.1690  0.2969 -0.3712
    1W        W43704   2.790  20.462   9.244 -0.3041  0.1272  0.0510
    1W        W43705   9.586   9.236   8.028 -0.1897 -0.0265 -0.0015
    1W        W43706   0.497  16.694   6.596 -0.0565 -0.2609  0.0389
    1W        W43707  21.747  22.350   1.734 -0.0501  0.1656 -0.0540
    1W        W43708  28.608   0.451   8.231  0.1261 -0.1898  0.0356
    1W        W43709  22.218  18.400   8.340 -0.1164 -0.1178 -0.3640
    1W        W43710   4.667  23.108   6.867  0.0757  0.2682 -0.3742
    1W        W43711   0.919  13.074   9.796 -0.2374  0.1699 -0.1565
    1W        W43712  28.472  16.703   7.169  0.1834 -0.1576  0.0246
    1W        W43713  11.585  13.993   2.498 -0.2896  0.0258 -0.0087
    1W        W43714  11.259  13.771   2.262  0.2947  0.0976 -0.0162
    1W        W43715  11.805   9.131   9.309  0.0283  0.0334  0.1092
    1W        W43716  17.784   3.626   3.106 -0.3033 -0.2390  0.2744
    1W        W43717  11.532  25.113   8.614  0.4710 -0.1347 -0.0060
    1W        W43718  26.974  19.392   9.683 -0.0448 -0.0131  0.1101
    1W        W43719  21.261  24.902   0.450 -0.0374 -0.0072 -0.2471
    1W        W43720   6.412  18.716   0.756 -0.1418 -0.3273  0.1037
    1W        W43721  18.660  16.798   8.614  0.0447  0.1437  0.0896
    1W        W43722   7.129  25.000   0.287  0.2069 -0.1397  0.0784
    1W        W43723  24.898  25.346   9.552 -0.1433  0.2300  0.2323
    1W        W43724  16.120  26.395   0.867  0.2610  0.2733 -0.2299
    1W        W43725  19.733  26.878   9.135 -0.0028  0.1001  0.2111
    1W        W43726  26.594  20.806   7.474  0.1859  0.2971 -0.2721
    1W        W43727   0.508  16.933   7.486 -0.0676 -0.1143  0.0563
    1W        W43728   8.860   0.472   1.445 -0.1731 -0.0094 -0.3255
    1W        W43729  24.928  19.959   7.053 -0.0376  0.2078 -0.0180
    1W        W43730  17.626  17.517   9.009 -0.0238 -0.1774  0.0075
    1W        W43731  20.866   6.307   2.867  0.2029  0.3888  0.0063
    1W        W43732   6.381   0.048   8.277  0.2236 -0.0338  0.0385
    1W        W43733   8.548   6.974   3.120 -0.0218 -0.0739  0.2040
    1W        W43734  11.442   0.984   1.707  0.0934 -0.2085 -0.1822
    1W        W43735  20.097  17.058   2.240  0.1194  0.0307 -0.1003
    1W        W43736  14.157  19.626   8.762  0.1572  0.1459  0.1085
    1W        W43737   7.776  27.903   2.965  0.0372 -0.1413  0.2108
    1W        W43738   9.550  16.956   7.629  0.1017  0.1419  0.1639
    1W        W43739  22.327  19.346   1.675  0.0086 -0.2458  0.0880
    1W        W43740  20.372  28.438   7.313  0.1872 -0.1004  0.0545
    1W        W43741  25.582  12.339   8.944 -0.1396 -0.1371  0.1565
    1W        W43742   8.304  28.174   9.637 -0.0928 -0.0226  0.0602
    1W        W43743  10.790  10.812   8.543 -0.1246 -0.2518  0.0571
    1W        W43744   6.178   8.982   9.956 -0.2327  0.0684  0.2645
    1W        W43745  24.518  17.453   7.613 -0.2818 -0.1907 -0.1988
    1W        W43746   3.259  23.983   7.643 -0.2202 -0.0390 -0.0610
    1W        W43747   5.989   3.280   0.618  0.2245  0.1768  0.2660
    1W        W43748   2.024   0.288   8.267  0.0967  0.1570 -0.2668
    1W        W43749   3.762   9.878   3.361  0.0874  0.1030 -0.1334
    1W        W43750  22.309  10.491   2.169  0.1824  0.0606 -0.2992
    1W        W43751  27.930  10.876   1.612 -0.0745 -0.1119 -0.0970
    1W        W43752   9.072  21.485   7.953 -0.0502 -0.4005 -0.0568
    1W        W43753  19.801  11.442   1.987  0.2020  0.1797  0.1001
    1W        W43754   1.242  28.552   8.283  0.1310  0.1768  0.2061
    1W        W43755  13.347  27.254   9.170 -0.1205  0.0708 -0.0091
    1W        W43756   0.585  22.967   5.837  0.2781  0.1947  0.1379
    1W        W43757  23.024   1.038   1.602 -0.1034  0.0224  0.1307
    1W        W43758  22.895  22.929   1.354  0.0762  0.5137 -0.1813
    1W        W43759  26.811  11.076   7.845  0.2043  0.0119  0.0566
    1W        W43760  13.563   8.858   3.859 -0.1760 -0.1662  0.2472
    1W        W43761   7.360  22.530   6.285 -0.4067  0.0981 -0.0023
    1W        W43762  27.722  12.546   8.675  0.0181  0.0071 -0.0622
    1W        W43763   8.122   7.801   7.993  0.1537 -0.1692  0.1263
    1W        W43764   6.655   8.327   1.940 -0.0564  0.2484 -0.1960
    1W        W43765  22.780   4.743   0.441 -0.0073  0.0791  0.1083
    1W        W43766   8.071  17.687   7.537  0.0030 -0.0587 -0.0989
    1W        W43767  14.642  21.338   9.455 -0.1786 -0.1238 -0.0606
    1W        W43768  13.194   8.441   3.006  0.0500  0.2730  0.1233
    1W        W43769   4.968   2.292   2.555 -0.1306  0.2330 -0.0604
    1W        W43770  24.416   0.944   2.502  0.1055  0.2044  0.0502
    1W        W43771  13.327   7.958   8.715 -0.3532  0.3456 -0.0861
    1W        W43772   7.193   4.301   3.224  0.0150  0.2263 -0.1174
    1W        W43773  12.118  27.496   2.439 -0.3064  0.2539  0.0493
    1W        W43774  22.171  28.283   5.952  0.2922 -0.1765 -0.0735
    1W        W43775  15.731   8.427   0.020  0.0677 -0.1646  0.0778
    1W        W43776  20.452   7.386   2.722 -0.0839  0.1492  0.1104
    1W        W43777   7.390  12.748   9.583  0.0391 -0.1426 -0.1282
    1W        W43778  19.298  10.542   8.716 -0.3077 -0.1196 -0.1780
    1W        W43779  23.528  20.603   7.325 -0.5226  0.1742  0.0180
    1W        W43780  10.712  16.006   2.208  0.0757 -0.0758  0.2730
    1W        W43781  17.074   2.898   9.228  0.6126  0.1691 -0.1467
    1W        W43782   3.147  22.285   1.670  0.1665 -0.1369 -0.5341
    1W        W43783  14.633  21.635   0.671 -0.0408  0.0807 -0.0233
    1W        W43784   8.057  11.410   8.998  0.1597 -0.0917  0.4046
    1W        W43785  28.176   9.755   8.563  0.0691  0.3843  0.1939
    1W        W43786  21.846  19.226   7.310  0.2676 -0.0699 -0.0543
    1W        W43787   9.226  10.027   9.668  0.0372  0.2360 -0.0539
    1W        W43788  22.282   9.187   2.883  0.1571  0.0589  0.2679
    1W        W43789  23.083   1.578   7.774 -0.1275  0.0554 -0.2486
    1W        W43790  21.347   5.323   9.903 -0.1744  0.1641 -0.0045
    1W        W43791  12.428  24.913   3.009 -0.2441  0.0171 -0.2372
    1W        W43792   7.557  21.619   6.792  0.0741 -0.0329 -0.2436
    1W        W43793  11.630  13.623   1.413 -0.0080 -0.1707  0.3121
    1W        W43794  16.062  27.612   7.939 -0.1847 -0.1868  0.1402
    1W        W43795   8.088  20.697   0.897  0.1115 -0.1906  0.4358
    1W        W43796   1.679   6.207   8.560  0.2441 -0.0369  0.1911
    1W        W43797   8.351  19.798   0.719  0.3789  0.1500 -0.0527
    1W        W43798   8.995  20.492   6.247  0.2925  0.0983 -0.2155
    1W        W43799  21.485   6.305   1.250 -0.0469 -0.1902  0.0347
    1W        W43800  19.657   3.720   1.315  0.1750 -0.1966  0.0686
    1W        W43801  10.388   7.503   2.522  0.0654  0.0528 -0.2012
    1W        W43802   0.320  26.954   0.679 -0.0285 -0.3108 -0.0276
    1W        W43803  19.644  23.569   9.917  0.2190  0.0609 -0.0890
    1W        W43804   2.314  17.664   0.089 -0.3005  0.0036 -0.2569
    1W        W43805   1.892   5.087   0.029 -0.0354  0.0600  0.3630
    1W        W43806  14.307  28.118   0.397 -0.2473  0.1961 -0.2799
    1W        W43807  23.850  27.743   8.054  0.3464  0.0201  0.0871
    1W        W43808  25.252  11.785   1.272  0.0492 -0.0737  0.1206
    1W        W43809   3.628  15.711   6.559 -0.1148  0.0432  0.2052
    1W        W43810  10.785   1.652   3.028 -0.0692 -0.1776  0.2777
    1W        W43811   0.451  21.250   9.737 -0.0652  0.2757 -0.1050
    1W        W43812  24.190   4.361   2.828 -0.1081  0.0094  0.1117
    1W        W43813   7.365   6.450   9.832 -0.1542 -0.0273  0.0776
    1W        W43814  25.861  10.448   8.509  0.1539  0.0511 -0.0158
    1W        W43815  18.711   1.266   2.352 -0.1189  0.0208 -0.0431
    1W        W43816  19.717   5.897   0.363  0.1495 -0.1556 -0.0718
    1W        W43817   6.412  12.379   2.069 -0.2688 -0.0166  0.0250
    1W        W43818  15.147   0.945   1.401 -0.0131  0.2829 -0.1191
    1W        W43819  22.480  26.540   2.537 -0.2875  0.0806 -0.2080
    1W        W43820  25.426  19.904   2.354 -0.0797 -0.0043  0.4625
    1W        W43821  23.270  24.171   1.933  0.3391 -0.0081 -0.0060
    1W        W43822  23.329   8.857   0.417  0.2791 -0.3028  0.1920
    1W        W43823  24.317   3.691   0.787  0.3742 -0.1151 -0.1152
    1W        W43824  28.427  15.134   7.692 -0.4265  0.3974 -0.1102
    1W        W43825   5.235  17.879   9.383  0.2198  0.1395 -0.1210
    1W        W43826  24.775  19.340   0.771  0.0325  0.0476  0.2248
    1W        W43827  28.232  13.555   8.562 -0.2717  0.0861  0.1648
    1W        W43828   9.626  23.178   0.693 -0.1168 -0.1898  0.3199
    1W        W43829   5.677   1.791   2.952  0.0123  0.1546 -0.1912
    1W        W43830  10.349   6.388   9.337  0.1174 -0.1650 -0.0096
    1W        W43831  13.926   0.793   0.925 -0.0978 -0.2660  0.2839
    1W        W43832   7.749  10.282   8.703  0.1960  0.1464  0.1034
    1W        W43833  17.089   0.704   0.647  0.1120 -0.2347  0.1651
    1W        W43834   2.805   1.120   2.227 -0.2377  0.1266 -0.0347
    1W        W43835  21.614  18.605   8.313  0.0171  0.2002 -0.2589
    1W        W43836  26.784  22.465   7.632  0.0799 -0.0506 -0.1183
    1W        W43837  19.829  14.988   8.980 -0.1349  0.0552  0.0305
    1W        W43838  19.737  28.039   8.659  0.0030  0.0629  0.0774
    1W        W43839  18.251  11.347   8.341 -0.0417  0.0541 -0.1479
    1W        W43840  11.012  27.277   7.714 -0.0068 -0.2995 -0.0963
    1W        W43841  26.433  20.444   6.463  0.0133  0.1315  0.0041
    1W        W43842   2.410  18.364   8.266 -0.1637 -0.2082  0.3232
    1W        W43843  28.204  21.246   0.144  0.0740  0.0258  0.1789
    1W        W43844  14.082  14.544   1.134 -0.1406 -0.0976  0.1121
    1W        W43845   7.432  24.307   7.658 -0.1158 -0.0051 -0.2247
    1W        W43846   3.845   6.918   1.739  0.2345  0.1002 -0.1260
    1W        W43847  22.623  15.653   7.642 -0.2419 -0.1198  0.0313
    1W        W43848   0.891  17.215   7.488  0.2212  0.0995 -0.1603
    1W        W43849  24.900  16.120   6.818 -0.0595  0.1807 -0.2239
    1W        W43850   4.592  23.411   6.463 -0.1579 -0.1214  0.0006
    1W        W43851   9.851  25.145   0.912 -0.2069  0.1524  0.2881
    1W        W43852   8.190  20.506   0.008 -0.1422  0.0981  0.1052
    1W        W43853  15.133  25.851   9.729 -0.0707  0.2901  0.1914
    1W        W43854   2.105  21.955   0.578  0.3753  0.2130 -0.0159
    1W        W43855  18.176   6.071   8.844 -0.0670  0.1094  0.1546
    1W        W43856  19.041  20.402   2.350  0.0066 -0.2014  0.2749
    1W        W43857   0.444  28.409   7.501  0.3704  0.2461  0.1442
    1W        W43858  20.393  25.156   0.011  0.0577 -0.2230 -0.1130
    1W        W43859  12.505   7.538   9.661  0.0387  0.0209  0.3288
    1W        W43860  26.597   8.969   8.238 -0.0083  0.0367 -0.0742
    1W        W43861   1.577  14.751   7.991  0.3087 -0.2234  0.0179
    1W        W43862  17.528  10.290   7.248 -0.3588 -0.3289 -0.1058
    1W        W43863  10.278  25.481   1.114  0.1670  0.1010 -0.1835
    1W        W43864   0.638  17.214   1.800 -0.0386 -0.0017 -0.1526
    1W        W43865  16.680  20.181   8.186 -0.0834 -0.2718 -0.0328
    1W        W43866   1.123   4.955   2.545 -0.1996 -0.2409  0.0411
    1W        W43867  17.560  28.510   3.366 -0.3158  0.0567  0.1080
    1W        W43868  10.697   5.262   9.633  0.0612  0.1687 -0.1856
    1W        W43869   6.975   8.321   3.233  0.0687  0.0063 -0.0379
    1W        W43870  18.681   1.440   8.363  0.1627  0.1319 -0.1768
    1W        W43871   5.931  20.152   8.230  0.4735  0.0690 -0.1517
    1W        W43872  20.189  22.873   7.670  0.1385  0.1432 -0.0113
    1W        W43873  12.315  20.928   7.876 -0.0443 -0.1989 -0.0571
    1W        W43874  28.048   6.230   7.111  0.3886  0.1259 -0.4181
    1W        W43875  27.275  23.280   0.333  0.2057 -0.0151  0.1069
    1W        W43876  16.199   8.146   0.254 -0.1995  0.0298 -0.1776
    1W        W43877  28.400   2.541   0.828  0.2054 -0.1092  0.3574
    1W        W43878  15.218   5.432   2.213  0.1106  0.0838 -0.1831
    1W        W43879  26.682  22.675   8.329 -0.1241 -0.1405 -0.0937
    1W        W43880   5.551  26.450   2.507  0.0965 -0.2184 -0.1960
    1W        W43881   3.933  11.942   7.129 -0.1307  0.2175 -0.0591
    1W        W43882  17.103  15.419   1.730  0.0336 -0.0303 -0.1936
    1W        W43883   9.240   7.570   1.096  0.0232  0.3438 -0.2192
    1W        W43884  27.288  15.356   1.059  0.4763 -0.2898  0.0099
    1W        W43885  18.856  20.788   2.133  0.2089  0.0027  0.3314
    1W        W43886  27.037  14.360   7.909  0.1568 -0.0356  0.0320
    1W        W43887  22.847  14.849   9.025  0.1149  0.0663 -0.1651
    1W        W43888  19.431  26.563   7.950 -0.4103 -0.2840  0.0780
    1W        W43889   9.775  13.134   7.895 -0.1579 -0.0031  0.0426
    1W        W43890  10.790  20.998   7.475  0.1199  0.1358 -0.1752
    1W        W43891  23.247  17.762   0.997  0.1061 -0.1766  0.1319
    1W        W43892  27.207   6.780   9.253 -0.2122  0.0616 -0.0685
    1W        W43893  26.921   1.134   8.527 -0.0001  0.0965 -0.1870
    1W        W43894  14.131  16.261   2.907 -0.0418 -0.0216  0.1926
    1W        W43895  14.791  12.474   7.433 -0.1303  0.0021 -0.1330
    1W        W43896  15.203   2.533   2.937 -0.0893  0.4096  0.2113
    1W        W43897   2.758  11.620   1.493 -0.2232 -0.2776  0.1105
    1W        W43898   4.768   1.543   0.283 -0.1717 -0.1791  0.1702
    1W        W43899   2.151  17.523   9.237  0.2604  0.1661 -0.1926
    1W        W43900   4.314   4.679   0.093 -0.2224  0.4808 -0.2142
    1W        W43901  24.414  23.059   8.934  0.0710 -0.0891  0.1043
    1W        W43902  14.259  14.648   9.732  0.2243  0.1191  0.1016
    1W        W43903  28.591  21.389   6.877 -0.2789 -0.0089  0.0486
    1W        W43904  15.596   3.899   8.987  0.1078  0.0317 -0.1510
    1W        W43905   5.408  22.086   5.729 -0.1205  0.3241 -0.1485
    1W        W43906   7.946  13.275   7.840  0.1589  0.2503 -0.0402
    1W        W43907  17.404  26.474   2.156 -0.2021  0.1183 -0.0209
    1W        W43908  20.833  12.904   1.698  0.0399 -0.1753  0.0863
    1W        W43909  10.557   2.884   7.357 -0.1490 -0.0803 -0.0706
    1W        W43910   5.851  28.376   1.086  0.3173 -0.2072  0.1215
    1W        W43911  18.054   1.503   4.032  0.1042 -0.1574  0.0778
    1W        W43912   2.212  24.850   8.939 -0.1416 -0.1579  0.2011
    1W        W43913  25.484  25.312   7.514 -0.0173  0.0636 -0.1560
    1W        W43914   7.544  24.295   0.401 -0.0332 -0.1718 -0.0825
    1W        W43915   0.265  27.716   0.166 -0.4592  0.2375  0.0647
    1W        W43916  18.583  19.951   0.838  0.0854 -0.1687  0.0882
    1W        W43917  22.896  25.325   1.824  0.1248 -0.1435  0.0920
    1W        W43918  26.093  28.403   9.869  0.0818 -0.1427 -0.5270
    1W        W43919   7.608  22.333   7.638  0.2733  0.1438 -0.0217
    1W        W43920  18.290   5.396   1.205 -0.2546  0.0365  0.2619
    1W        W43921  17.789  23.405   2.223  0.0083  0.1757  0.1017
    1W        W43922   1.314  24.386   6.659  0.1685 -0.0423 -0.2744
    1W        W43923  13.055  25.841   2.839 -0.1896  0.1124  0.0498
    1W        W43924   7.161  19.220   9.623  0.0162 -0.0120  0.0652
    1W        W43925  28.275  13.566   0.970 -0.0875 -0.2361  0.0980
    1W        W43926  24.720  14.788   8.450 -0.2821 -0.1557 -0.0780
    1W        W43927  18.810  23.533   3.679  0.0843 -0.1012  0.1647
    1W        W43928   3.037   1.156   0.178 -0.0160  0.1436  0.2655
    1W        W43929  10.659  23.017   9.747 -0.0693 -0.3031  0.0462
    1W        W43930   0.799  24.297   0.716 -0.2946  0.0665  0.1480
    1W        W43931  19.389  21.547   2.223  0.2956 -0.2197 -0.0107
    1W        W43932  23.363  19.769   9.496  0.2366  0.0143 -0.1986
    1W        W43933   8.831  18.691   1.972 -0.1150 -0.4599  0.2133
    1W        W43934  22.324   4.187   6.981 -0.0666 -0.0189 -0.2793
    1W        W43935  25.027  10.913   8.840 -0.0131 -0.0111  0.2922
    1W        W43936  20.108  27.710   8.867  0.0664 -0.2057 -0.1385
    1W        W43937   1.613  27.504   2.525  0.0207 -0.0270 -0.2133
    1W        W43938  18.850  26.361   9.232 -0.0447  0.0544 -0.1113
    1W        W43939  13.681  24.463   8.764 -0.1591 -0.0094 -0.2455
    1W        W43940  21.701  21.008   3.224 -0.0313  0.1474 -0.0328
    1W        W43941  27.396   7.659   1.749 -0.2274  0.0174  0.2565
    1W        W43942  26.698   0.619   8.312  0.0195  0.2986 -0.0310
    1W        W43943   7.922   8.700   1.155  0.0289  0.0397  0.2030
    1W        W43944  24.311   8.611   9.362 -0.2955  0.0890  0.0556
    1W        W43945  26.092  14.746   0.553  0.2873  0.2360 -0.2292
    1W        W43946  17.035   0.106   2.640  0.4790  0.2373  0.2940
    1W        W43947  18.598   5.777   3.554  0.1122 -0.0457  0.0887
    1W        W43948   1.690  11.178   1.435  0.1053  0.1075  0.2762
    1W        W43949   3.302   5.011   0.668 -0.1459  0.2269  0.0233
    1W        W43950   9.503  12.804   2.462  0.1746 -0.3135 -0.3898
    1W        W43951   0.918  24.109   7.468  0.0912  0.0213  0.1969
    1W        W43952  25.244  21.268   7.865 -0.0901  0.0079 -0.3399
    1W        W43953  28.106   8.636   2.807 -0.2075 -0.1151  0.4033
    1W        W43954  14.736  24.211   1.595  0.0747 -0.0703 -0.0452
    1W        W43955  23.732   4.212   0.762 -0.0646 -0.1530 -0.0856
    1W        W43956  25.594  13.270   5.863  0.3351  0.2455  0.1304
    1W        W43957   1.866  10.280   1.047  0.1144  0.1207  0.2770
    1W        W43958  20.181  28.282   8.937  0.3381 -0.1083 -0.1600
    1W        W43959   2.293   0.542   7.188  0.1976 -0.2363 -0.0846
    1W        W43960  28.572   6.401   6.975 -0.2863  0.0304  0.4988
    1W        W43961  11.767  27.450   0.409 -0.0016 -0.2461  0.3176
    1W        W43962  11.078  24.024   2.915 -0.1519 -0.0961  0.0714
    1W        W43963  20.714   6.225   0.636  0.0234 -0.0881 -0.1327
    1W        W43964   5.418  10.823   0.456 -0.0589 -0.2123 -0.0309
    1W        W43965   3.771  22.377   8.088 -0.2471 -0.1058 -0.0439
    1W        W43966  22.500  14.286   7.793 -0.1433 -0.0890  0.0556
    1W        W43967  12.779  21.878   8.775 -0.0369  0.0536 -0.1333
    1W        W43968   8.280  21.254   0.589 -0.0027  0.0354  0.1668
    1W        W43969  14.942  28.293   1.073  0.0904  0.2069 -0.0459
    1W        W43970   3.679  12.481   1.536  0.0525  0.1319 -0.0068
    1W        W43971   7.392   6.942   0.025 -0.3851  0.0197 -0.0992
    1W        W43972   3.133  12.675   7.063 -0.1032 -0.0194  0.2322
    1W        W43973  16.643   8.088   2.862 -0.3869  0.3070  0.0360
    1W        W43974   1.293  16.010   8.271  0.0826 -0.0973  0.0542
    1W        W43975  15.750  19.259   0.189 -0.0477 -0.2287  0.0977
    1W        W43976   2.338  28.386   1.870  0.3011  0.1630  0.2621
    1W        W43977  16.229  11.536   2.504 -0.0688 -0.0307  0.1091
    1W        W43978  26.801  25.992   1.078 -0.2525 -0.0550 -0.2635
    1W        W43979  22.109  11.855   1.286  0.0811 -0.0981  0.2033
    1W        W43980  16.286  16.452   2.652 -0.2313  0.0331 -0.0715
    1W        W43981  13.934  26.009   2.783 -0.2188  0.1480 -0.1830
    1W        W43982   0.820   2.848   7.478 -0.0786  0.0869  0.5047
    1W        W43983  17.134  13.488   1.500 -0.0065  0.0789 -0.1321
    1W        W43984  13.796   6.560   9.860 -0.6032  0.1574 -0.3752
    1W        W43985  15.161  12.691   2.461  0.1572  0.2106 -0.0426
    1W        W43986  17.289  28.097   0.953 -0.3095 -0.1883 -0.0144
    1W        W43987   1.015  28.015   7.574  0.1772  0.2185 -0.0788
    1W        W43988  23.308   1.535   8.262  0.0099  0.0973  0.0492
    1W        W43989  11.818  16.003   7.549 -0.0712  0.0811  0.1066
    1W        W43990  25.513   5.327   2.496  0.0004  0.1426 -0.0481
    1W        W43991  16.906   3.483   8.580 -0.2586 -0.0885  0.0240
    1W        W43992  25.400   0.832   6.506 -0.0615 -0.1080 -0.1897
    1W        W43993  20.990   3.938   9.219  0.2273  0.2034  0.3696
    1W        W43994   1.140  21.951   2.430 -0.0862 -0.2573 -0.0594
    1W        W43995  20.624  21.152   8.172  0.0331  0.1110 -0.0496
    1W        W43996  10.549   7.449   9.073 -0.2521 -0.2130 -0.1411
    1W        W43997  15.773   7.368   1.782 -0.0484 -0.0093 -0.1493
    1W        W43998  10.316  23.978   9.884 -0.0598  0.0686 -0.5531
    1W        W43999  15.929  24.929   9.327  0.2552 -0.0063  0.1072
    1W        W44000   1.358  20.504   8.680  0.0748 -0.0021  0.0846
    1W        W44001   9.980  25.210   7.623  0.0508  0.0801 -0.0661
    1W        W44002  12.666  12.744   1.046 -0.0140  0.3009 -0.0777
    1W        W44003  24.380   8.196   0.911  0.2135 -0.0228 -0.0768
    1W        W44004   2.750  17.680   9.327  0.0825  0.1510 -0.0333
    1W        W44005  17.033   2.078   2.004 -0.1163 -0.0398 -0.1742
    1W        W44006  14.396  26.056   0.686  0.4447  0.0431 -0.0154
    1W        W44007  21.098   7.232   3.402 -0.0414 -0.3294  0.1016
    1W        W44008   3.397  19.286   0.529  0.2173 -0.0559  0.1984
    1W        W44009  22.822   6.942   7.928  0.0767  0.0050 -0.1457
    1W        W44010   6.454  11.077   8.139  0.0064 -0.1459 -0.0998
    1W        W44011   8.472   1.657   1.031 -0.1605 -0.0579 -0.1134
    1W        W44012   2.152  22.195   6.277  0.0102  0.0057  0.0456
    1W        W44013  23.301  21.556   1.085  0.1830 -0.0253  0.3234
    1W        W44014  13.405   2.121   1.130 -0.1413  0.0074  0.2644
    1W        W44015   5.712  27.191   0.244 -0.0751 -0.2213  0.1430
    1W        W44016  20.536   1.024   7.986  0.0154 -0.1633  0.1144
    1W        W44017  26.781   6.244   9.924 -0.0326  0.2826 -0.3648
    1W        W44018   7.926   5.866   3.284  0.0786  0.0999  0.1548
    1W        W44019  21.261  17.395   1.325 -0.0911  0.0988  0.2043
    1W        W44020  23.070  10.896   0.252  0.0015 -0.1863 -0.4088
    1W        W44021   4.897  16.248   7.712 -0.2560  0.2030 -0.0993
    1W        W44022  28.188   2.194   2.028 -0.0681 -0.2345  0.1320
    1W        W44023  22.354  13.436   0.915  0.0464  0.2306  0.1961
    1W        W44024   6.055  23.298   0.259 -0.0999 -0.2560  0.3290
    1W        W44025   5.276  14.172   5.958 -0.0575 -0.1900  0.0220
    1W        W44026  19.654   8.165   7.044 -0.1611  0.3607 -0.3024
    1W        W44027   0.244  11.763   7.032  0.4158  0.0642  0.2648
    1W        W44028  19.300  25.436   3.810 -0.1352  0.0220  0.0112
    1W        W44029  20.729  23.688   8.289  0.1196 -0.0773 -0.1571
    1W        W44030   6.830   5.595   2.609  0.1304  0.0706 -0.0433
    1W        W44031  22.771  19.212   1.922  0.1111 -0.0686  0.3828
    1W        W44032  22.372  19.157   0.682 -0.2442 -0.2148  0.2542
    1W        W44033  17.620  26.394   8.308 -0.2487 -0.0883 -0.3327
    1W        W44034  14.727   6.405   2.815  0.0974 -0.0926 -0.0204
    1W        W44035  21.371   3.301   1.792 -0.2812 -0.2175 -0.0125
    1W        W44036  13.441  21.791   0.105 -0.0391 -0.3437 -0.0728
    1W        W44037   8.007  11.815   2.054 -0.1499 -0.1295 -0.1098
    1W        W44038  28.696  28.338   1.827  0.0491 -0.0199  0.2773
    1W        W44039  16.369   8.857   7.548  0.0778  0.0722 -0.0700
    1W        W44040   0.710   8.432   9.072  0.1224  0.1340 -0.2099
    1W        W44041   1.542   9.600   0.891 -0.2375  0.1218 -0.1107
    1W        W44042   1.758   2.050   9.634  0.2839  0.0899 -0.1197
    1W        W44043  10.629  17.009   8.670 -0.0329  0.1469  0.1721
    1W        W44044  12.890  23.898   0.698  0.2016  0.0126 -0.1534
    1W        W44045  22.863  17.706   6.967  0.1171 -0.1031 -0.0101
    1W        W44046  22.091  21.574   7.693 -0.1306 -0.1613 -0.0889
    1W        W44047  26.988   4.053   6.500 -0.1529 -0.0374  0.2226
    1W        W44048  22.314  17.397   0.054  0.3604  0.0470 -0.2886
    1W        W44049   7.506  27.976   8.369  0.3266 -0.0459 -0.0137
    1W        W44050   1.349  14.366   7.336 -0.2168  0.2915 -0.0343
    1W        W44051  28.606   7.163   6.215 -0.1679  0.1946  0.1650
    1W        W44052  26.828  14.943   7.592 -0.0381 -0.0715 -0.1061
    1W        W44053   9.417   8.616   1.236 -0.2927 -0.0474 -0.0289
    1W        W44054  22.357   9.912   8.727  0.0836  0.2451  0.0122
    1W        W44055   9.914  23.720   0.771  0.0036 -0.0372 -0.2181
    1W        W44056  24.270  21.246   6.940 -0.3228 -0.2391 -0.0351
    1W        W44057  15.173   4.696   8.749 -0.1679  0.1035 -0.0804
    1W        W44058  13.706  17.382   0.293  0.2188 -0.3310 -0.0930
    1W        W44059  20.784   0.860   7.467 -0.3620  0.1762 -0.0089
    1W        W44060  27.278   2.126   2.735 -0.0057  0.1841 -0.1260
    1W        W44061  20.383  16.678   8.222 -0.2124 -0.0788 -0.1244
    1W        W44062   8.629  23.030   9.598  0.0036 -0.3603  0.0720
    1W        W44063  20.780  18.657   7.915 -0.1459  0.1515 -0.1556
    1W        W44064  27.461  20.855   7.182 -0.0367 -0.2334 -0.0374
    1W        W44065  28.499   7.481   9.324 -0.1057  0.3544  0.1203
    1W        W44066   6.389  26.711   6.574 -0.1164  0.0930  0.2519
    1W        W44067  12.510  18.819   8.710 -0.0910  0.5143 -0.0393
    1W        W44068  15.258  25.990   1.522  0.2713 -0.2293 -0.0793
    1W        W44069   0.349   6.778   0.540 -0.2160  0.1245  0.0232
    1W        W44070   3.888  19.374   7.685  0.1016  0.3335 -0.1239
    1W        W44071   1.071  16.887   6.586  0.0705  0.0816 -0.1004
    1W        W44072  13.430  19.200   1.356  0.1893 -0.0637 -0.2172
    1W        W44073   2.748  14.605   2.633 -0.0563 -0.2831 -0.1763
    1W        W44074  19.523  14.380   8.151 -0.0352 -0.1139 -0.1870
    1W        W44075  17.925  26.974   0.589  0.3078  0.0547 -0.0305
    1W        W44076  12.520  19.970   0.551 -0.1817 -0.0981  0.0877
    1W        W44077  14.172  10.396   7.571  0.1791  0.0315  0.0767
    1W        W44078  25.674   6.326   9.466  0.1030 -0.0254  0.0903
    1W        W44079   9.275  20.155   0.803 -0.0614  0.3383  0.0994
    1W        W44080  25.179  13.231   8.615 -0.3832 -0.1206 -0.2477
    1W        W44081   6.499   6.909   9.441 -0.0924 -0.3132 -0.1005
    1W        W44082  23.103  23.118   1.765 -0.0284  0.1932  0.0221
    1W        W44083  19.239  18.811   1.839 -0.2597 -0.0935  0.1952
    1W        W44084  22.663   1.050   6.482  0.2830 -0.1971  0.0685
    1W        W44085  20.205   1.616   1.112  0.1163  0.0668  0.0688
    1W        W44086  21.414  23.280   8.717  0.3336 -0.1072  0.1727
    1W        W44087  15.138  14.333   9.600  0.2076 -0.1265  0.0092
    1W        W44088  13.835  27.780   3.123  0.1646  0.0024  0.1465
    1W        W44089  18.723   3.278   8.406 -0.2290 -0.0956 -0.2653
    1W        W44090   5.761  20.246   6.907  0.1423 -0.1412 -0.1512
    1W        W44091  23.663  24.153   6.770 -0.0869 -0.1635  0.3480
    1W        W44092   1.590   2.104   9.050 -0.1164  0.0715  0.0836
    1W        W44093  23.887  28.595   8.642 -0.1841 -0.0893 -0.4682
    1W        W44094   0.673  20.702   9.636  0.0322  0.1028 -0.0430
    1W        W44095  17.717   8.963   7.554  0.1842  0.0330 -0.0790
    1W        W44096  17.540  23.280   1.635  0.2389  0.2055  0.2860
    1W        W44097   7.223   1.431   9.804  0.0060 -0.0339  0.1646
    1W        W44098  22.098  18.811   0.416  0.0522  0.1538  0.0168
    1W        W44099  16.183   4.044   9.197 -0.0099  0.2223 -0.0310
    1W        W44100  11.979  27.226   0.800  0.0104  0.1733  0.0949
    1W        W44101   9.821  21.029   0.896 -0.0946 -0.2378  0.1097
    1W        W44102  16.757  21.824   2.494  0.4006 -0.0498  0.0237
    1W        W44103   0.037  14.028   8.167  0.0857 -0.1049 -0.2738
    1W        W44104  19.714  10.299   8.969 -0.1590  0.0639 -0.1523
    1W        W44105  15.705  11.571   9.168 -0.2642 -0.0066 -0.2162
    1W        W44106   5.789  20.256   2.660  0.1995 -0.1873 -0.1111
    1W        W44107  16.611   4.435   9.133 -0.1884  0.3494 -0.2783
    1W        W44108   2.944   9.156   9.903  0.1973 -0.2143  0.0911
    1W        W44109  12.696   3.605   1.517 -0.3905  0.2041  0.1531
    1W        W44110   6.826   6.708   9.796 -0.1309 -0.0480  0.1033
    1W        W44111  15.422  19.245   3.150 -0.1779 -0.3180  0.0190
    1W        W44112  15.803   0.079   2.966  0.0947 -0.3175  0.3027
    1W        W44113  21.690  14.107   7.879  0.1857  0.0063 -0.2564
    1W        W44114  15.160  12.365   7.013  0.0279  0.4342  0.3632
    1W        W44115  17.302  14.244   1.068 -0.0561  0.1302  0.1170
    1W        W44116  24.767   6.188   1.276  0.0293 -0.1111 -0.4935
    1W        W44117   6.130  24.811   2.350 -0.0735  0.3082 -0.0826
    1W        W44118  17.491   0.439   2.206 -0.3304  0.0360 -0.1283
    1W        W44119  19.512  28.684   0.199  0.2211 -0.1065  0.1024
    1W        W44120  27.929   9.539   0.402  0.0417  0.1322 -0.2650
    1W        W44121  12.420   9.033   9.318  0.1043  0.0715  0.0143
    1W        W44122  28.099  25.408   6.228  0.1597  0.0151 -0.2958
    1W        W44123  24.867  13.576   7.997 -0.1095  0.1512  0.1564
    1W        W44124   5.956  24.813   9.297 -0.1010  0.1346  0.0147
    1W        W44125   9.443   2.225   8.658 -0.1166 -0.0883  0.1684
    1W        W44126   0.223  11.737   1.949 -0.1709 -0.1055 -0.3102
    1W        W44127  20.335  27.971   2.413  0.2963  0.4726 -0.1026
    1W        W44128   3.191  27.316   2.108 -0.3583  0.2606 -0.2689
    1W        W44129   2.373   4.372   6.771  0.0968  0.1758  0.1972
    1W        W44130  16.929  11.913   1.345 -0.0139 -0.1357 -0.0001
    1W        W44131  15.411  26.214   0.117  0.1013 -0.1216  0.1313
    1W        W44132   9.736  22.910   7.415  0.1317 -0.2606  0.0252
    1W        W44133   2.645  23.906   9.806  0.1920 -0.0909  0.1486
    1W        W44134  26.089  13.827   0.082  0.1679  0.0070  0.1870
    1W        W44135   8.004  22.251   0.473 -0.0175 -0.1401  0.0321
    1W        W44136  12.124   4.856   0.906  0.0710  0.1379 -0.2158
    1W        W44137  27.348   3.679   2.108 -0.1249 -0.1379  0.0898
    1W        W44138   3.248  24.484   9.821 -0.1173 -0.0989 -0.0010
    1W        W44139  10.670  15.463   8.055 -0.3148 -0.2703  0.2360
    1W        W44140   2.089  14.342   9.615  0.0919 -0.0003  0.0297
    1W        W44141  15.087   5.659   8.497  0.1379  0.4193  0.0614
    1W        W44142   1.802   1.191   2.390  0.0625 -0.0397  0.0713
    1W        W44143   8.750  27.541   8.906 -0.0095  0.0262  0.0006
    1W        W44144   1.921  26.261   7.511 -0.0513  0.1663  0.0692
    1W        W44145  23.153  25.192   9.582 -0.1497 -0.1065  0.2585
    1W        W44146  27.113   4.946   0.596 -0.1243  0.0084  0.1646
    1W        W44147  19.540  11.388   7.953  0.3694 -0.0014  0.0374
    1W        W44148  27.354  20.468   9.513 -0.0048 -0.0444 -0.0522
    1W        W44149  21.996   9.059   7.925 -0.0598  0.0686  0.1863
    1W        W44150   7.643  14.016   0.320 -0.2674 -0.1100 -0.0479
    1W        W44151  13.488  13.441   1.078  0.0099 -0.2874  0.0191
    1W        W44152  16.721   3.861   9.919 -0.2812 -0.0817  0.0369
    1W        W44153  25.852  16.904   7.389 -0.0513  0.1332 -0.1291
    1W        W44154  20.320   5.803   2.137  0.0802  0.0929 -0.0256
    1W        W44155  23.732  13.911   0.524 -0.0574 -0.1817 -0.1180
    1W        W44156  16.592   9.425   1.397  0.0118 -0.1464  0.5357
    1W        W44157  27.327  19.140   6.023 -0.2505 -0.3972 -0.1528
    1W        W44158  14.371  18.832   2.580  0.0727  0.1076 -0.0748
    1W        W44159  11.970   5.334   1.074  0.0889  0.0760  0.1199
    1W        W44160   4.001  13.765   2.533 -0.1170  0.0336  0.2804
    1W        W44161   2.573   7.537   0.823  0.0490 -0.2934 -0.2440
    1W        W44162  17.860   0.061   2.392  0.1658 -0.0057 -0.2162
    1W        W44163   5.458  15.852   1.739  0.2114 -0.0016 -0.1963
    1W        W44164   7.924   4.249   8.550  0.0277 -0.0717  0.0178
    1W        W44165  19.005  24.884   4.197 -0.1479 -0.0860  0.2128
    1W        W44166  22.641  17.906   3.429  0.5236  0.2690  0.1929
    1W        W44167   3.751   3.934   7.996 -0.1230 -0.1846 -0.0303
    1W        W44168  12.059  28.646   1.362  0.2100  0.0699  0.2230
    1W        W44169   2.312  22.916   1.746 -0.0083  0.0140  0.0006
    1W        W44170  11.516   9.597   2.841 -0.2452 -0.0755  0.0682
    1W        W44171   4.941  21.440   7.708 -0.0585 -0.1187 -0.2659
    1W        W44172  28.149  18.168   7.875 -0.2395  0.0917  0.0865
    1W        W44173  22.298  19.844   7.776 -0.1023 -0.3849  0.3028
    1W        W44174  13.925   8.786   2.487  0.1206  0.0245 -0.2949
    1W        W44175  24.286  18.269   1.655  0.0197  0.1125 -0.0649
    1W        W44176  11.597  22.608   9.644  0.0799 -0.0702  0.1500
    1W        W44177  24.688  22.572   1.836 -0.0257 -0.0966 -0.1498
    1W        W44178  19.625  28.538   9.645  0.1519 -0.1861 -0.2440
    1W        W44179  27.729   3.896   2.362 -0.1042  0.1276  0.1198
    1W        W44180   0.931   3.659   9.678 -0.0083 -0.1341  0.1616
    1W        W44181  19.428  27.846   2.333 -0.1844 -0.0835 -0.0922
    1W        W44182  27.578  22.546   1.681 -0.1457 -0.2853  0.0393
    1W        W44183  17.672   9.345   2.120  0.1775 -0.2468 -0.4563
    1W        W44184  13.259  22.634   7.033  0.1022  0.0502 -0.0995
    1W        W44185   2.829  17.289   7.665  0.2643  0.0185  0.2330
    1W        W44186   8.929   8.998   9.389  0.0070  0.1141  0.2765
    1W        W44187  10.728  26.317   7.379  0.1129  0.0829  0.0441
    1W        W44188   7.147  27.051   8.410  0.0889  0.0313 -0.2449
    1W        W44189   0.723   6.313   6.304 -0.2758 -0.0956  0.3221
    1W        W44190  12.304   3.822   8.094 -0.1425  0.2725 -0.2832
    1W        W44191   7.929  22.963   2.912  0.0892 -0.1314  0.2439
    1W        W44192  21.666  25.777   1.536 -0.0025 -0.2034  0.2731
    1W        W44193  16.244  13.317   1.800 -0.0727  0.2133 -0.0800
    1W        W44194  13.387  23.135   1.763 -0.2500  0.0596  0.1902
    1W        W44195   6.095   1.863   6.788 -0.1619 -0.0317  0.0011
    1W        W44196  23.011  16.254   6.918 -0.1744  0.2486  0.0534
    1W        W44197  11.024  24.990   8.372  0.0265  0.0096 -0.4653
    1W        W44198   8.425   7.847   0.026 -0.1617  0.2038  0.2427
    1W        W44199  26.722   2.002   5.744 -0.1593 -0.1571 -0.0217
    1W        W44200   7.709   2.569   2.035  0.2789  0.2155  0.1040
    1W        W44201   2.441   2.201   7.461  0.0836 -0.0264 -0.1668
    1W        W44202  16.921  12.056   2.723  0.1983 -0.0065 -0.1305
    1W        W44203   5.157  11.865   7.507 -0.2534 -0.1711  0.0412
    1W        W44204  15.020  10.963   1.136 -0.2919  0.2176  0.0228
    1W        W44205  15.363  18.395   0.078  0.0722 -0.2366 -0.0664
    1W        W44206   8.553  13.463   2.089 -0.0946 -0.2197 -0.0990
    1W        W44207   8.798  15.935   1.154  0.0971  0.1472 -0.1295
    1W        W44208   8.866   4.142   2.478 -0.1027  0.0903 -0.1690
    1W        W44209  12.305  17.645   0.526 -0.1783  0.0762  0.1211
    1W        W44210  11.580   8.115   3.300 -0.1018  0.0059 -0.4348
    1W        W44211  10.508  22.396   2.548  0.1159 -0.3049  0.0861
    1W        W44212  22.119  23.130   2.426 -0.0974 -0.2176 -0.0242
    1W        W44213  22.128  26.454   2.176 -0.2582 -0.0375 -0.5590
    1W        W44214   2.567  15.583   9.382 -0.1368  0.1494  0.1669
    1W        W44215  13.245   6.873   0.464 -0.2069 -0.1909  0.0431
    1W        W44216  10.614  12.680   7.475 -0.0082 -0.0847  0.1390
    1W        W44217   0.718  16.019   7.751  0.2148 -0.2001  0.0544
    1W        W44218  10.593   4.468   7.329  0.0501  0.0552  0.1805
    1W        W44219   1.499   4.160   2.578 -0.0808 -0.1608  0.2497
    1W        W44220  13.153   5.201   2.672 -0.2129  0.0609  0.0724
    1W        W44221   2.517  25.036   8.126  0.2012  0.1322  0.1366
    1W        W44222   1.496  17.173   8.373  0.3273  0.0135  0.0413
    1W        W44223   5.135   7.378   2.390 -0.2676 -0.1198 -0.2672
    1W        W44224   3.353   8.021   9.650 -0.0576  0.0919 -0.2415
    1W        W44225  21.661  12.748   9.062  0.1929  0.1019 -0.1095
    1W        W44226  28.353  25.822   0.822 -0.0183 -0.0724  0.0746
    1W        W44227   0.819  19.822   6.600  0.1757  0.0191 -0.2106
    1W        W44228   3.633  11.510   1.668  0.5208  0.0620 -0.1077
    1W        W44229  17.365  18.805   2.406 -0.2070  0.1068 -0.2098
    1W        W44230   6.485  19.997   1.386  0.2063 -0.2762  0.0325
    1W        W44231  15.764  10.044   9.263  0.0827 -0.2246 -0.2195
    1W        W44232   0.812   0.287   7.737 -0.1402 -0.1025  0.0475
    1W        W44233  27.811   9.010   8.846 -0.1557  0.2092 -0.1846
    1W        W44234  21.179  24.723   9.130  0.3848  0.0798 -0.0868
    1W        W44235  11.645   5.190   9.256 -0.1359 -0.1341  0.2598
    1W        W44236  13.763  13.863   8.527  0.2923 -0.0667  0.0408
    1W        W44237   7.606   6.812   0.909  0.0389  0.1915  0.4538
    1W        W44238  25.483  26.784   6.558  0.0884 -0.0232  0.2591
    1W        W44239  15.371  19.617   0.892 -0.0497 -0.0001 -0.0038
    1W        W44240   5.570   2.879   0.547  0.0194  0.1368  0.1198
    1W        W44241  11.666  14.033   0.203 -0.2515 -0.0409  0.0985
    1W        W44242  19.711  23.023   9.187  0.1403  0.2914  0.0061
    1W        W44243  19.842  15.229   7.622  0.1196  0.3690  0.0784
    1W        W44244  12.147  19.772   0.185 -0.0503 -0.1511  0.3059
    1W        W44245  20.022  28.438   8.511  0.2179 -0.1792 -0.1316
    1W        W44246  18.696   5.778   1.430 -0.1220 -0.4545 -0.4139
    1W        W44247   0.406   4.883   1.094  0.2070 -0.0580 -0.1739
    1W        W44248  27.560  27.964   1.319 -0.4966 -0.3083 -0.0385
    1W        W44249  28.509  26.161   1.298  0.0859  0.2572 -0.0537
    1W        W44250  18.589  15.904   0.410  0.1363  0.0436  0.0246
    1W        W44251  22.188   6.610   7.077  0.1205  0.0506 -0.0534
    1W        W44252  20.820  19.340   7.452  0.3301  0.1523  0.0497
    1W        W44253  14.983   3.718   7.743 -0.2306 -0.0738  0.0736
    1W        W44254  28.144  26.008   2.344 -0.0754  0.1120  0.0565
    1W        W44255  21.914   2.843   2.551 -0.0241 -0.0176  0.2073
    1W        W44256   6.232   5.269   2.110 -0.2671  0.1288  0.3049
    1W        W44257  16.886  25.840   8.755 -0.1906  0.2773 -0.0236
    1W        W44258  23.885  14.045   6.609 -0.0641  0.0417 -0.0748
    1W        W44259  28.530   7.213   2.705  0.0295 -0.2600 -0.1814
    1W        W44260  22.323  20.200   3.645 -0.0504  0.2624 -0.1180
    1W        W44261  20.979  21.000   0.990  0.0275 -0.0873  0.2009
    1W        W44262  20.966  15.328   8.292 -0.2216  0.0687 -0.2100
    1W        W44263  21.783  10.548   2.187  0.2101  0.2485 -0.0195
    1W        W44264   7.978   2.976   2.803 -0.0216 -0.0450  0.0899
    1W        W44265  11.239  26.182   3.041 -0.2195 -0.0716  0.1725
    1W        W44266  20.824  27.124   7.331  0.1515  0.0782 -0.0869
    1W        W44267  24.206  12.589   0.494  0.3326  0.3827  0.3389
    1W        W44268  28.343  13.718   6.447 -0.0856 -0.0063 -0.2715
    1W        W44269   5.502  17.626   1.333  0.3752 -0.1957  0.1032
    1W        W44270  23.908  22.216   0.805  0.2551  0.6491  0.3561
    1W        W44271   8.800  10.020   9.473 -0.1455 -0.2912 -0.0498
    1W        W44272  13.220  11.143   1.869  0.2766 -0.1990 -0.0603
    1W        W44273  14.950  24.519   6.870 -0.0637  0.2735  0.0785
    1W        W44274   0.478  27.561   8.136  0.0082  0.0337 -0.1740
    1W        W44275  12.061   3.647   2.734  0.0613  0.0002 -0.3780
    1W        W44276  26.973  20.099   3.240 -0.0715 -0.2150 -0.2469
    1W        W44277   6.976  19.834   9.387 -0.5426  0.0245  0.0823
    1W        W44278   8.604   7.186   9.679  0.2020  0.2228  0.2029
    1W        W44279  10.799  25.704   1.908 -0.3292 -0.2795  0.0942
    1W        W44280  10.258  24.455   9.634 -0.0560 -0.1711 -0.0899
    1W        W44281  24.747  10.070   7.662  0.0432 -0.0856  0.2184
    1W        W44282   1.667  25.462   9.399  0.0908  0.1910 -0.0687
    1W        W44283  24.924  23.077   8.908  0.1413 -0.1896  0.2319
    1W        W44284  24.957  23.369   7.125 -0.2051 -0.0042 -0.2136
    1W        W44285   9.751  25.555   8.046  0.0965 -0.3295 -0.2144
    1W        W44286  25.767   7.452   8.994  0.0852  0.0188  0.3553
    1W        W44287  12.756   2.273   2.388 -0.2522 -0.0221 -0.1948
    1W        W44288   3.026  28.310   1.021 -0.4978  0.4088 -0.1828
    1W        W44289   0.608  17.044   0.907 -0.2206  0.2300  0.2340
    1W        W44290  24.830   0.908   0.804  0.2573 -0.2033 -0.1638
    1W        W44291  14.604  27.440   0.878 -0.0461 -0.2106 -0.0527
    1W        W44292  17.232   5.080   0.736  0.0620 -0.0409 -0.0566
    1W        W44293  19.263  23.292   9.673  0.0696  0.0209  0.1300
    1W        W44294  16.707  15.379   0.754  0.0608 -0.1995  0.1894
    1W        W44295  17.534  11.501   8.177  0.3208 -0.2208 -0.1234
    1W        W44296  22.991  24.307   0.452 -0.1855 -0.1100 -0.1767
    1W        W44297  14.845   1.084   2.681  0.1056 -0.0860  0.0597
    1W        W44298  16.330   1.739   9.520  0.2764 -0.1660  0.3342
    1W        W44299   9.863   0.312   9.394 -0.0830  0.1606 -0.1767
    1W        W44300  23.617  17.633   8.370  0.0877 -0.1674  0.1111
    1W        W44301   4.974   3.780   8.414 -0.0568  0.1048 -0.1797
    1W        W44302  27.192   6.462   7.230  0.4338  0.0067  0.2512
    1W        W44303   4.203  21.316   6.761 -0.0360 -0.0527  0.1314
    1W        W44304   3.713   3.706   8.485  0.1820  0.3315 -0.0244
    1W        W44305   9.305  19.772   9.234  0.1164  0.3057  0.2005
    1W        W44306  27.123  11.954   1.326  0.0805 -0.0264 -0.0700
    1W        W44307  14.308  27.027   7.343  0.3520 -0.3491  0.1245
    1W        W44308   3.654  17.851   1.688 -0.0072  0.6816 -0.0999
    1W        W44309  27.239  21.205   9.881  0.3886  0.1792  0.0865
    1W        W44310  27.629  13.137   6.711 -0.0458  0.1648  0.2529
    1W        W44311  13.589  12.865   1.852  0.2554 -0.0555 -0.1386
    1W        W44312   7.904   7.699   8.516 -0.1297  0.0694 -0.2020
    1W        W44313  27.988  25.101   3.924  0.0034 -0.0518  0.0494
    1W        W44314  17.593   7.226   1.559  0.1544  0.0696 -0.2099
    1W        W44315   1.308  10.405   0.989  0.0199  0.1240 -0.2066
    1W        W44316  12.624  23.273   8.555 -0.2070  0.0906 -0.0465
    1W        W44317   4.283  13.636   8.479  0.0136  0.1984  0.1448
    1W        W44318  26.720   9.070   2.939 -0.1431 -0.0200 -0.1466
    1W        W44319   9.973  25.508   9.022 -0.0186  0.0501  0.1661
    1W        W44320  16.112   4.530   8.978 -0.0724 -0.0830 -0.3616
    1W        W44321  27.223  12.687   6.251 -0.0413 -0.3060 -0.0005
    1W        W44322  10.844   6.539   9.315 -0.3351 -0.1671  0.3278
    1W        W44323   4.722  11.630   7.667 -0.1506 -0.0792 -0.0482
    1W        W44324   2.214  22.924   0.946  0.0185  0.1160 -0.0416
    1W        W44325  12.433  25.533   2.080 -0.0988 -0.0503  0.3332
    1W        W44326   8.133  15.618   7.676  0.0895  0.1419  0.2142
    1W        W44327   3.044  12.089   7.979  0.0979  0.3393  0.2678
    1W        W44328  24.426  21.234   2.906  0.0505 -0.1720  0.3395
    1W        W44329  27.503  19.221   1.734  0.1583  0.1946  0.3183
    1W        W44330   5.160   7.166   0.458  0.0572  0.1198 -0.0701
    1W        W44331  26.371  27.736   0.763  0.0860  0.0817 -0.1453
    1W        W44332   3.663   4.788   8.358  0.0959 -0.1663 -0.2248
    1W        W44333  14.546  20.246   3.307  0.1590  0.2294 -0.0555
    1W        W44334  28.373  26.723   1.083 -0.0563  0.0902 -0.5610
    1W        W44335   4.405  20.510   0.565  0.2468 -0.1750  0.1166
    1W        W44336   9.026  16.097   7.906  0.1471  0.0975  0.0053
    1W        W44337   3.690   9.482   1.887  0.0912 -0.0174 -0.0433
    1W        W44338  27.878  22.500   2.254 -0.3016  0.1480  0.1391
    1W        W44339   6.018  13.421   8.027 -0.0916 -0.0091  0.3202
    1W        W44340  12.280  12.998   8.599 -0.1270  0.2972 -0.1304
    1W        W44341   4.591  23.967   5.706  0.1081  0.0549  0.1459
    1W        W44342  14.110  16.308   9.912  0.1765  0.1577  0.0198
    1W        W44343  25.835   2.762   9.733  0.1262  0.0296  0.2646
    1W        W44344   1.426  25.341   8.620 -0.1825  0.0022  0.0551
    1W        W44345   5.232  20.385   6.170  0.2310 -0.0144  0.1247
    1W        W44346  12.206  27.823   9.507  0.1751  0.1112  0.1249
    1W        W44347  19.214   3.891   1.442  0.0205  0.1327  0.0117
    1W        W44348  12.264   4.283   0.023  0.4051  0.1927 -0.1069
    1W        W44349   6.223  23.450   6.264 -0.3000 -0.1710 -0.0789
    1W        W44350  10.063   8.178   9.147  0.1018  0.2179 -0.1348
    1W        W44351   9.832  17.759   2.235 -0.2301 -0.0209  0.1975
    1W        W44352   7.318  20.823   6.948 -0.5552  0.1284 -0.0644
    1W        W44353   2.964   8.653   1.867 -0.1479 -0.2053  0.3820
    1W        W44354  13.475  26.705   0.970 -0.0001  0.1745 -0.2741
    1W        W44355   0.456  11.199   9.212  0.0413 -0.1478 -0.3155
    1W        W44356   4.159   6.039   0.679  0.0617  0.0568 -0.1846
    1W        W44357  13.084  22.581   1.482  0.2174 -0.0043 -0.1083
    1W        W44358   5.028  24.059   9.924 -0.1337  0.1507  0.0702
    1W        W44359  15.815  24.141   2.118 -0.1499  0.2657 -0.0062
    1W        W44360  24.289  16.815   8.674  0.1224  0.1795 -0.2325
    1W        W44361  13.956  20.814   3.563 -0.2557 -0.0730  0.0045
    1W        W44362  24.974  12.309   2.503  0.3065  0.1610  0.0106
    1W        W44363  14.665  21.788   3.133 -0.0709 -0.0204  0.3693
    1W        W44364  25.988  11.361   8.352  0.0024 -0.2903 -0.1600
    1W        W44365  15.434  20.142   2.276 -0.2108 -0.2180  0.0822
    1W        W44366  24.034  13.008   7.542  0.2062  0.0027  0.1924
    1W        W44367  10.632  19.032   7.340  0.1078  0.0078 -0.2803
    1W        W44368   6.456  15.743   8.920 -0.1131  0.0252  0.2740
    1W        W44369   8.425   2.656   2.683  0.1571  0.0709  0.1345
    1W        W44370   8.746  26.464   9.120 -0.1376 -0.0207 -0.0559
    1W        W44371  12.514   3.220   1.831 -0.1278  0.0881  0.2092
    1W        W44372   2.655  11.943   6.853  0.1634 -0.1471 -0.0098
    1W        W44373   9.140  14.945   1.302  0.0029  0.0714 -0.1248
    1W        W44374   3.675  18.247   7.243 -0.0858 -0.0586 -0.1322
    1W        W44375   5.973   1.213   2.438 -0.0118  0.1470  0.0289
    1W        W44376   5.545  28.031   9.092 -0.1083 -0.1478 -0.2257
    1W        W44377  11.597   8.324   1.443  0.0773 -0.1197  0.1150
    1W        W44378   4.492  19.172   6.968 -0.0577 -0.1829  0.0285
    1W        W44379   1.671  18.254   0.865  0.1749  0.1240  0.0318
    1W        W44380  19.466   1.693   1.500 -0.1400 -0.1852 -0.2516
    1W        W44381   7.238  19.417   1.446  0.1908 -0.2825 -0.0082
    1W        W44382   0.769  14.373   6.582 -0.0113  0.3704 -0.1145
    1W        W44383   8.270  27.718   3.021  0.1154  0.1754 -0.1263
    1W        W44384  12.867  14.857   1.367 -0.0721  0.1863  0.0065
    1W        W44385  24.676  16.368   0.498  0.1909  0.2092 -0.1491
    1W        W44386   6.390  16.470   1.430 -0.0333  0.0122 -0.1783
    1W        W44387  11.938   5.935   8.260 -0.0666  0.2084  0.0473
    1W        W44388  14.118   4.999   8.345 -0.0395 -0.0654 -0.2184
    1W        W44389  22.563   6.967   8.375 -0.1298  0.0108  0.1542
    1W        W44390  26.735  19.499   0.185  0.1337  0.1973 -0.1869
    1W        W44391  26.476  26.822   6.878 -0.0318 -0.3683  0.0727
    1W        W44392  19.602  26.935   0.320 -0.0513  0.0697 -0.1650
    1W        W44393  16.538  21.795   9.049 -0.1520 -0.0911  0.2295
    1W        W44394  26.020   2.146   8.030  0.2075  0.0206 -0.1496
    1W        W44395   4.812   8.042   3.312 -0.0227 -0.2181  0.0205
    1W        W44396  28.621  23.566   9.609  0.3249  0.1176 -0.2419
    1W        W44397  23.683  23.732   7.013  0.1857 -0.0110  0.0412
    1W        W44398  25.606  20.553   9.858  0.0545  0.2650 -0.0247
    1W        W44399  16.917  15.070   9.120  0.0652 -0.3216 -0.0891
    1W        W44400  26.944  14.148   2.133 -0.1592 -0.1176 -0.0597
    1W        W44401  19.208   7.245   8.815  0.1654 -0.0080  0.0126
    1W        W44402   8.546  27.847   7.926 -0.0294 -0.0864  0.0207
    1W        W44403   1.333  20.265   6.995  0.1770  0.3234  0.3994
    1W        W44404  27.227  28.302   7.901 -0.0461  0.0599  0.1649
    1W        W44405  20.369   8.745   1.464  0.2674  0.0532 -0.0759
    1W        W44406  26.538   9.382   1.679  0.3741  0.0640  0.0314
    1W        W44407   5.671   5.287   8.884  0.2390  0.3420 -0.0264
    1W        W44408  23.219   9.042   2.401  0.3905 -0.1760  0.1037
    1W        W44409  12.344   7.794   2.194  0.0149  0.2140  0.0557
    1W        W44410   3.354   8.161   0.899  0.1149 -0.2716  0.1220
    1W        W44411  17.455   8.471   6.790  0.0432 -0.0986 -0.0871
    1W        W44412  19.554  17.199   7.584  0.2163  0.1924 -0.0568
    1W        W44413   5.027   3.656   1.587  0.0347  0.0733 -0.1930
    1W        W44414  26.005   7.161   0.172 -0.2038  0.0864  0.1043
    1W        W44415  19.617  21.879   6.886 -0.0617 -0.1364  0.0925
    1W        W44416  21.913  19.333   2.022  0.2761 -0.4283 -0.0265
    1W        W44417   2.230  16.093   7.217  0.0940 -0.1589 -0.1185
    1W        W44418  24.663  14.684   6.631  0.2696 -0.1150 -0.2338
    1W        W44419  10.805   5.877   2.207  0.1246  0.2626  0.3340
    1W        W44420  16.476  28.183   0.824  0.0813  0.0244 -0.0232
    1W        W44421  23.467   7.132   0.332  0.2638 -0.1106  0.1738
    1W        W44422   5.214  11.198   9.236  0.1396 -0.0582  0.2663
    1W        W44423  14.304   6.093   8.996 -0.0463  0.2108 -0.1001
    1W        W44424  17.139  20.294   8.354  0.0918 -0.0367 -0.1524
    1W        W44425  24.428  11.417   2.336 -0.1683 -0.1796  0.0337
    1W        W44426   5.175   9.839   7.373  0.0845  0.0653 -0.0470
    1W        W44427  20.321   0.787   2.356 -0.0658 -0.0707 -0.0770
    1W        W44428  14.116   0.887   9.208  0.0244  0.0438  0.2614
    1W        W44429  15.668  22.553   0.895  0.0137  0.0719 -0.1230
    1W        W44430  12.890   8.054   1.481  0.0152 -0.0439 -0.3468
    1W        W44431   2.568   2.022   7.004  0.2224 -0.3236 -0.0371
    1W        W44432  26.978  12.986   1.629  0.1319  0.0149  0.0244
    1W        W44433  27.924   8.485   7.011 -0.0805 -0.3061 -0.1661
    1W        W44434  10.551  16.684   7.740  0.0889 -0.2084  0.0127
    1W        W44435  17.364   6.604   8.536  0.1149 -0.1365  0.0307
    1W        W44436   9.657  20.312   0.536  0.0164  0.0128  0.3417
    1W        W44437  28.133  22.576   8.294  0.0965 -0.2518  0.5401
    1W        W44438   0.269  25.421   0.172  0.0530  0.2233 -0.1062
    1W        W44439  27.250   6.918   7.991  0.0644  0.0821 -0.0626
    1W        W44440  23.062  10.924   9.677 -0.2954  0.0988  0.0831
    1W        W44441   7.258  26.057   1.438 -0.1071 -0.3388 -0.0840
    1W        W44442  28.366   3.712   1.439 -0.0124  0.0633 -0.2491
    1W        W44443   2.826   6.412   0.132  0.4029 -0.0032 -0.2654
    1W        W44444  14.325  11.322   0.111  0.2501  0.1949 -0.1640
    1W        W44445  12.802   6.481   7.421 -0.2708 -0.0907  0.0883
    1W        W44446  26.662  11.774   1.225 -0.0461  0.3538 -0.1047
    1W        W44447   6.087  10.149   9.767 -0.0293 -0.0084 -0.1850
    1W        W44448   2.905  17.737   7.520 -0.0760 -0.2078 -0.1504
    1W        W44449  24.113   8.451   8.251 -0.0812 -0.1376  0.3145
    1W        W44450   5.533  11.066   9.946  0.1690  0.0804 -0.1171
    1W        W44451  11.836  11.251   9.206  0.2326 -0.3051 -0.1980
    1W        W44452   2.327   8.005   2.924 -0.3099 -0.0835  0.3131
    1W        W44453   2.196  17.920   1.391  0.0413 -0.2942  0.2560
    1W        W44454  28.278  16.302   7.330 -0.0300 -0.2218  0.0497
    1W        W44455  27.170   0.817   1.222 -0.2454 -0.0416 -0.0506
    1W        W44456  27.438  18.508   8.691 -0.0152 -0.1112 -0.0211
    1W        W44457  24.178  28.079   1.354 -0.1880 -0.0812  0.0884
    1W        W44458  24.018  15.775   2.146 -0.0289  0.5101 -0.0828
    1W        W44459  11.205  20.024   9.197 -0.2291  0.2447 -0.0476
    1W        W44460  12.226  15.873   0.871  0.0409  0.0824 -0.2135
    1W        W44461  11.112  19.158   2.652 -0.3013 -0.0910  0.1079
    1W        W44462  12.370   3.424   0.644 -0.3320  0.2256 -0.0734
    1W        W44463  21.829  26.872   0.746  0.0388  0.0619  0.0166
    1W        W44464  10.731   4.430   8.619 -0.0156  0.2261  0.3376
    1W        W44465  18.936  16.760   0.503  0.0677 -0.1049  0.2646
    1W        W44466  17.650  28.058   9.953  0.1585 -0.0123  0.0342
    1W        W44467   3.364   3.383   8.471 -0.0030  0.2439  0.2391
    1W        W44468  19.250  26.401   6.964 -0.0908 -0.0128 -0.0508
    1W        W44469   2.660  16.395   6.568  0.1422  0.3575  0.2374
    1W        W44470  26.465   8.366   2.336 -0.1182  0.0744  0.2986
    1W        W44471  17.758  20.926   2.703  0.0201  0.0227  0.1036
    1W        W44472  26.260  10.218   2.076 -0.0643 -0.3399  0.0058
    1W        W44473   1.253  10.930   7.012  0.2582 -0.0142  0.1127
    1W        W44474  24.539  10.460   2.340  0.2691 -0.0690 -0.0454
    1W        W44475  18.638   5.851   8.398 -0.0080  0.0312 -0.1249
    1W        W44476  17.238   5.204   2.537 -0.0666 -0.0323 -0.0662
    1W        W44477   9.678  21.144   8.738 -0.3449 -0.0267  0.2184
    1W        W44478  14.580   2.083   7.559 -0.0500  0.0051  0.3663
    1W        W44479   0.429  21.167   1.350 -0.0178  0.2028  0.0540
    1W        W44480  26.547   9.073   6.603  0.0493  0.1994  0.0224
    1W        W44481   9.400  20.096   1.557 -0.1664 -0.1815  0.1373
    1W        W44482  26.251   5.573   2.976  0.1594  0.0000  0.2479
    1W        W44483  22.683  21.411   7.832  0.0102 -0.0417  0.3336
    1W        W44484   0.997  27.854   9.468 -0.1080  0.0445  0.1363
    1W        W44485   6.364   7.839   9.185 -0.1112  0.1765 -0.0382
    1W        W44486   7.163  10.843   2.459  0.0989  0.1906 -0.2149
    1W        W44487  11.343   0.617   2.010  0.2409  0.0557 -0.0222
    1W        W44488  14.241  20.249   9.770  0.1620  0.2342 -0.0990
    1W        W44489  14.297   5.504   3.374 -0.1206  0.1004 -0.0769
    1W        W44490  22.975  19.426   2.752  0.1537 -0.2833  0.4087
    1W        W44491  13.648  26.935   0.430  0.2682  0.0738  0.1331
    1W        W44492  12.536  21.953   2.390 -0.1246  0.2021 -0.1506
    1W        W44493   6.436   9.834   3.589 -0.0213 -0.0770  0.1201
    1W        W44494  17.478  22.528   8.801  0.1102  0.0246 -0.0719
    1W        W44495   4.219   0.220   3.181  0.0294  0.1152  0.0086
    1W        W44496   6.747  26.236   1.449  0.0129 -0.0334  0.2086
    1W        W44497  23.152  17.440   8.527 -0.0311  0.2570 -0.1295
    1W        W44498  21.501  23.893   0.939 -0.0329 -0.1901  0.4263
    1W        W44499   5.921   5.463   2.519 -0.0796 -0.0333  0.1447
    1W        W44500   6.111  20.359   5.633 -0.0098  0.3616  0.3776
    1W        W44501  26.758   9.481   6.828 -0.1925  0.1684  0.0246
    1W        W44502  17.971   8.048   8.865 -0.1045  0.0017  0.1318
    1W        W44503  23.685  17.888   1.031 -0.0109 -0.2731  0.2347
    1W        W44504  19.490  26.085   1.376  0.1332  0.0312  0.1762
    1W        W44505  25.723  17.078   5.562 -0.3216 -0.0776  0.0769
    1W        W44506  26.389   5.565   8.502  0.0262  0.1974  0.0329
    1W        W44507  13.764  28.542   3.177  0.2455  0.3343  0.2312
    1W        W44508   6.114  11.993   7.745  0.0910  0.0927 -0.1049
    1W        W44509  17.404  16.359   8.348 -0.0159 -0.0496 -0.2426
    1W        W44510  25.951   8.235   9.605 -0.4992 -0.0206  0.1282
    1W        W44511  12.724   7.748   8.448  0.2246 -0.1520  0.0844
    1W        W44512  19.294  27.065   8.989  0.1045  0.3592 -0.1207
    1W        W44513   3.219  12.177   2.350  0.2870 -0.1859 -0.1973
    1W        W44514  26.471  23.993   0.917 -0.4386  0.1004 -0.1230
    1W        W44515  24.228  22.502   2.079  0.0177  0.4449  0.1016
    1W        W44516  22.021  18.857   7.991  0.0736 -0.1504  0.3956
    1W        W44517   1.728  13.015   0.441 -0.0394  0.1399 -0.1904
    1W        W44518   1.840  10.485   2.632  0.0556 -0.1205  0.0321
    1W        W44519  20.056  22.542   1.547  0.0180  0.1380  0.0234
    1W        W44520  24.185  18.848   0.270 -0.0908 -0.2296 -0.0044
    1W        W44521  23.447  17.678   2.646  0.1292  0.1610  0.0248
    1W        W44522  12.708   3.914   0.687 -0.2393  0.0023  0.0050
    1W        W44523  21.100  19.675   0.875 -0.1181 -0.1485  0.1996
    1W        W44524   0.957  23.685   7.710 -0.0918 -0.0302 -0.0888
    1W        W44525   0.405   2.864   7.155 -0.3198 -0.2827  0.0018
    1W        W44526  22.146   6.634   0.629  0.0439  0.1209  0.0297
    1W        W44527   7.556  16.458   0.322  0.1311 -0.0293  0.0804
    1W        W44528  11.489   7.919   1.721  0.1209 -0.1300 -0.0263
    1W        W44529  24.783  23.387   9.754 -0.1448 -0.2384  0.0898
    1W        W44530   6.910  24.998   7.089  0.1648 -0.1761 -0.0374
    1W        W44531   7.269   2.276   2.661 -0.3334  0.3485 -0.2840
    1W        W44532  26.469  22.373   0.886  0.0357 -0.1556  0.2602
    1W        W44533  22.987  24.077   1.552 -0.1332 -0.0852 -0.3214
    1W        W44534  27.309   7.079   0.416  0.0587  0.1416 -0.1350
    1W        W44535  17.437  21.212   8.550 -0.2397 -0.2186  0.2289
    1W        W44536   3.308   4.862   9.154  0.3345  0.2285 -0.0913
    1W        W44537  21.251  22.973   6.504  0.1407 -0.1648 -0.1274
    1W        W44538   6.844  12.232   8.395  0.2771 -0.4148 -0.1547
    1W        W44539  12.159  13.232   2.447  0.0814  0.1325 -0.1324
    1W        W44540   4.453   1.189   9.009 -0.0127  0.0929 -0.2108
    1W        W44541   1.377  13.547   8.803 -0.4709 -0.2198 -0.3393
    1W        W44542  23.800  14.020   9.277  0.1271 -0.1400 -0.2090
    1W        W44543  28.704  10.741   8.857 -0.0511 -0.1445  0.1000
    1W        W44544  15.007   8.666   2.989  0.1079 -0.0492  0.1974
    1W        W44545  14.254   0.133   8.650 -0.2501 -0.0058 -0.0805
    1W        W44546  13.458  21.443   1.889  0.0361 -0.0845  0.0664
    1W        W44547   0.077  26.106   9.178 -0.3117 -0.1425  0.2355
    1W        W44548  13.637   3.879   0.752 -0.0027 -0.1818  0.2734
    1W        W44549  25.832  26.842   2.810  0.9229  0.1003 -0.1193
    1W        W44550   7.958   5.712   0.678 -0.2869 -0.3025 -0.0547
    1W        W44551   4.204  24.296   2.456  0.0507 -0.0877 -0.0527
    1W        W44552  23.203   3.003   7.938 -0.3968 -0.0057 -0.1635
    1W        W44553  14.941  22.593   3.125 -0.1795  0.2226 -0.2589
    1W        W44554  22.091   0.399   7.768 -0.1527 -0.1473 -0.0869
    1W        W44555  17.129  28.364   8.882 -0.0750 -0.1270 -0.0281
    1W        W44556  11.898  11.725   1.189 -0.0157  0.1715 -0.1872
    1W        W44557  12.043  19.265   9.381 -0.1731 -0.1044  0.0049
    1W        W44558  10.245  24.335   1.249  0.1573 -0.0597  0.0142
    1W        W44559  15.588  12.798   0.102  0.2128  0.2095  0.0675
    1W        W44560   6.075  25.314   1.759  0.1624  0.2150 -0.1411
    1W        W44561  27.168   7.393   2.081 -0.0936 -0.0250 -0.1710
    1W        W44562  15.026   4.212   7.417 -0.2017  0.2583  0.1572
    1W        W44563  18.981  14.991   9.380  0.1726  0.1645 -0.3413
    1W        W44564  23.245  13.083   0.928 -0.0419  0.1786 -0.2738
    1W        W44565   9.556  11.130   1.541 -0.0725 -0.0470 -0.3201
    1W        W44566  16.302   3.442   2.308  0.2296 -0.2597  0.0232
    1W        W44567  24.180  11.924   9.911  0.1961  0.1548 -0.2643
    1W        W44568  12.070   8.390   1.668 -0.0040 -0.0414 -0.1013
    1W        W44569  22.789  23.193   0.835 -0.0001 -0.0514 -0.0760
    1W        W44570  14.727  16.459   0.881  0.0551  0.0171  0.0832
    1W        W44571   5.455   2.688   9.097 -0.0995 -0.1501  0.0580
    1W        W44572  22.361   1.892   2.071  0.0986  0.0903  0.0691
    1W        W44573  24.923   6.336   7.326 -0.2605  0.1457 -0.2888
    1W        W44574  22.719  17.790   0.730  0.0253  0.0257 -0.1337
    1W        W44575   9.009   0.248   0.892  0.1443  0.2507 -0.2529
    1W        W44576  14.025  25.356   7.737 -0.1888  0.5866 -0.2170
    1W        W44577  15.995   6.515   0.707 -0.3033 -0.1667  0.0103
    1W        W44578  19.419   7.522   2.391 -0.0603  0.0503 -0.1154
    1W        W44579  20.543  23.347   2.949 -0.0397  0.0307 -0.0219
    1W        W44580  15.316   5.523   8.915  0.0430  0.0348 -0.3204
    1W        W44581  14.957  11.578   7.206  0.0629 -0.0650 -0.0604
    1W        W44582   4.252  11.269   7.940  0.0937  0.2910 -0.1855
    1W        W44583  27.846  25.955   0.777  0.1084  0.1075 -0.0001
    1W        W44584  14.934  20.314   8.159  0.0560  0.0011 -0.1431
    1W        W44585  23.302  27.458   6.900 -0.0783 -0.0561 -0.1916
    1W        W44586   9.873   3.191   8.746 -0.0185  0.1725 -0.1353
    1W        W44587  10.082  20.889   8.626  0.0102 -0.3095  0.0977
    1W        W44588   4.855  23.584   7.685  0.1535 -0.1531  0.1177
    1W        W44589  13.802  21.624   9.308 -0.0137  0.2736 -0.0948
    1W        W44590  14.655  10.046   2.758  0.0611  0.1925 -0.4001
    1W        W44591  17.917   0.814   7.675  0.0050 -0.1294 -0.2736
    1W        W44592   3.258   7.226   0.276 -0.1533 -0.0531 -0.3055
    1W        W44593  13.847  24.768   1.790 -0.1628 -0.0678 -0.0612
    1W        W44594  23.020   3.911   8.488  0.1567 -0.1186  0.2114
    1W        W44595   8.470   0.518   1.795  0.0733 -0.0350  0.0681
    1W        W44596  12.607   1.530   2.171  0.0611 -0.1232  0.3686
    1W        W44597  10.287  10.147   7.888 -0.1219  0.1078  0.0851
    1W        W44598  26.997  12.228   0.304  0.0065 -0.2108 -0.0462
    1W        W44599  16.507  28.543   1.847  0.2584 -0.0964  0.0920
    1W        W44600  15.275   1.092   8.214  0.2675 -0.0238 -0.0452
    1W        W44601  19.211   1.695   8.604  0.0535  0.2290 -0.4886
    1W        W44602  28.566  20.291   0.172  0.2368 -0.1350 -0.0870
    1W        W44603  20.877  10.115   7.687 -0.2648  0.1668  0.2057
    1W        W44604   2.291   9.250   1.213 -0.0326 -0.3379  0.1159
    1W        W44605  14.538  18.061   9.595  0.2248 -0.4642  0.0112
    1W        W44606  11.974   9.041   1.165 -0.0081 -0.0849 -0.2790
    1W        W44607  16.259  22.423   2.760  0.1571 -0.0301  0.1104
    1W        W44608  15.736  25.120   7.786 -0.0197  0.0032 -0.0884
    1W        W44609   2.728  11.158   6.393  0.0239 -0.2108 -0.0028
    1W        W44610   8.251   2.616   0.611  0.4166 -0.0598  0.0011
    1W        W44611  13.031   5.394   3.461 -0.0143 -0.1575 -0.2446
    1W        W44612  10.547   0.014   3.448 -0.0759 -0.0745  0.3137
    1W        W44613  21.517   0.694   8.747 -0.0065  0.3834 -0.0565
    1W        W44614   4.260   8.944   7.062  0.2045  0.1603 -0.0485
    1W        W44615   2.726   9.688   3.140  0.0482  0.0190  0.0056
    1W        W44616   0.289   6.006   7.209  0.0328  0.1391 -0.2987
    1W        W44617  23.848  12.749   1.416  0.0366 -0.1992 -0.0027
    1W        W44618   1.868   2.917   1.055  0.3467 -0.3550  0.0434
    1W        W44619   7.448   4.387   9.324 -0.0648 -0.0464 -0.3356
    1W        W44620  23.868  22.991   8.315 -0.2437 -0.1121 -0.0409
    1W        W44621  10.904   6.186   1.698 -0.1348 -0.1420  0.4438
    1W        W44622  20.891  19.870   3.206  0.2151  0.0916  0.1734
    1W        W44623  15.054  15.624   1.457 -0.0730 -0.2655 -0.4260
    1W        W44624  16.506  16.320   0.111 -0.0232 -0.1049 -0.5066
    1W        W44625  14.959  19.701   7.870 -0.0738  0.2871  0.3996
    1W        W44626  23.053   6.642   8.346 -0.0781  0.0112  0.1228
    1W        W44627  25.095  10.598   7.847 -0.2741 -0.0013  0.1502
    1W        W44628  19.381  13.102   9.724 -0.0316  0.2364  0.1446
    1W        W44629  15.827   5.589   2.106 -0.1065 -0.0882 -0.3755
    1W        W44630  28.111   6.335   7.905 -0.2413 -0.1215 -0.3665
    1W        W44631  14.024   3.132   8.600  0.0909 -0.0925 -0.0131
    1W        W44632   2.515   4.341   8.668  0.2801  0.0410  0.1934
    1W        W44633   7.231   1.324   2.100  0.3700 -0.2607  0.1318
    1W        W44634   7.564  11.167   8.948 -0.0216 -0.2449 -0.1368
    1W        W44635  22.511  21.596   0.183 -0.2671  0.2184 -0.1322
    1W        W44636   1.696  28.496   0.151 -0.0431 -0.1824 -0.0184
    1W        W44637  26.888  11.664   0.336 -0.4755  0.4712 -0.0266
    1W        W44638   9.738  21.173   9.438 -0.0989 -0.0311 -0.1554
    1W        W44639  23.174  10.590   0.662  0.0152  0.0206  0.1841
    1W        W44640  21.340   6.620   1.715  0.1698  0.4051 -0.0963
    1W        W44641   5.957  20.086   9.740 -0.1585 -0.1561  0.0349
    1W        W44642   9.172   0.602   2.555 -0.3680  0.0457 -0.1790
    1W        W44643   6.669   7.268   9.916 -0.0944 -0.2747  0.3803
    1W        W44644  11.567  13.528   7.769 -0.2870  0.0775 -0.0009
    1W        W44645   2.701   1.352   1.766  0.2133  0.1392 -0.3246
    1W        W44646  17.247  11.265   0.301  0.1284 -0.0457 -0.1964
    1W        W44647  21.198  17.308   8.141  0.0480  0.3597 -0.0781
    1W        W44648  22.276   0.727   0.152 -0.3166 -0.0135  0.2749
    1W        W44649   6.988   6.628   8.205 -0.0446 -0.1666 -0.1623
    1W        W44650   0.209  13.505   1.715  0.0809  0.1737  0.3591
    1W        W44651  20.666  26.667   2.958  0.0443 -0.3192  0.2050
    1W        W44652  21.750  11.824   0.520 -0.0937 -0.2590  0.0183
    1W        W44653  13.811   2.194   8.522  0.0227  0.2741  0.0072
    1W        W44654   2.468   2.059   1.232 -0.2872 -0.2849  0.0441
    1W        W44655  24.112   5.159   1.091 -0.0297  0.1433 -0.1285
    1W        W44656  13.542  12.933   0.847 -0.1148  0.1038 -0.1778
    1W        W44657   4.949  11.085   6.320  0.3812 -0.1655  0.1100
    1W        W44658   0.804  10.854   9.108  0.1010  0.3173  0.0907
    1W        W44659  12.221   2.281   9.533 -0.1024 -0.0287 -0.1701
    1W        W44660  21.142  15.569   1.050  0.1493  0.0083 -0.0385
    1W        W44661   9.565  19.921   8.224 -0.0779 -0.1009  0.0835
    1W        W44662   2.815  12.496   0.487 -0.1917  0.2447 -0.1544
    1W        W44663   6.429   1.376   8.055 -0.0584  0.4186 -0.1864
    1W        W44664  25.031  28.356   1.533  0.0110 -0.0551 -0.1625
    1W        W44665  22.959   9.291   7.341  0.2342 -0.0223 -0.2780
    1W        W44666   2.463  17.802   5.482 -0.0525  0.0603 -0.0538
    1W        W44667  15.046  15.373   7.126  0.1950 -0.1680  0.0321
    1W        W44668   0.599  19.354   6.474 -0.2437  0.1660  0.0828
    1W        W44669  10.470  13.461   2.059 -0.2222  0.1185 -0.0604
    1W        W44670  28.519  27.738   2.653 -0.3502  0.0096  0.1234
    1W        W44671  24.280  16.102   0.299  0.0976  0.1650 -0.1569
    1W        W44672  19.470  23.839   0.831 -0.1176  0.4527 -0.0846
    1W        W44673  11.677   0.085   1.025 -0.1160 -0.4926  0.1069
    1W        W44674  22.310  11.254   7.814 -0.1480 -0.1196  0.1989
    1W        W44675   6.491  12.613   9.518  0.1729  0.1253  0.0270
    1W        W44676  11.887   9.972   0.955  0.3798  0.0381  0.0483
    1W        W44677   4.183  22.186   0.121  0.1649  0.0073  0.1354
    1W        W44678  25.651  22.031   9.231  0.2594 -0.2990  0.1494
    1W        W44679  24.075  20.985   6.264 -0.1893 -0.4136 -0.2755
    1W        W44680   8.489  24.733   8.280  0.1989  0.0501 -0.0412
    1W        W44681   6.431   0.946   7.236  0.2445 -0.1350  0.0913
    1W        W44682  16.964  15.670   2.950  0.1717 -0.0833 -0.4811
    1W        W44683   4.559  21.066   0.688 -0.1690  0.0629  0.3133
    1W        W44684  21.647   8.058   0.340  0.0848  0.1196  0.0457
    1W        W44685   3.077  13.845   2.911  0.1170  0.1706  0.0372
    1W        W44686  17.356   2.181   8.839 -0.0120 -0.2093 -0.0351
    1W        W44687  14.127  21.344   2.456 -0.1445  0.1289  0.0380
    1W        W44688  17.536   6.394   1.813  0.3724 -0.0721  0.1407
    1W        W44689   1.056  19.171   8.115  0.2757  0.4589 -0.3084
    1W        W44690   0.514  23.016   2.864  0.0814 -0.3156 -0.0059
    1W        W44691  16.447  24.649   2.506  0.0394  0.3770 -0.1805
    1W        W44692  12.407  12.698   0.047 -0.0514  0.0225 -0.0208
    1W        W44693  25.463  15.264   7.957  0.1624 -0.1013  0.0529
    1W        W44694  25.529  19.557   6.193  0.1087 -0.1613 -0.2374
    1W        W44695   9.183  27.185   0.296  0.1479 -0.1827  0.0853
    1W        W44696  19.456  15.395   9.348  0.0601 -0.0773 -0.0331
    1W        W44697  20.272  16.259   8.659 -0.1940 -0.0298 -0.1005
    1W        W44698   3.590  25.864   7.383 -0.1567  0.0849  0.1511
    1W        W44699  24.964  16.432   0.063  0.2813 -0.0445 -0.2872
    1W        W44700  19.869   1.144   7.617  0.0933 -0.2453 -0.1743
    1W        W44701   7.942   8.756   7.571 -0.0464 -0.1214 -0.0186
    1W        W44702  13.624  13.318   8.566 -0.0050  0.1566 -0.0331
    1W        W44703  25.854  28.556   7.396  0.0228  0.0799 -0.1443
    1W        W44704  15.960  23.672   3.295 -0.2104 -0.2059  0.1666
    1W        W44705  25.074  26.101   0.053  0.0202  0.1162 -0.3018
    1W        W44706   0.481  14.221   7.939  0.1074  0.1455 -0.0329
    1W        W44707   2.844  23.606   9.411  0.1854 -0.3693 -0.0638
    1W        W44708   7.139   0.634   2.080  0.2633  0.0888 -0.0286
    1W        W44709  23.792   2.414   8.257 -0.0936  0.2660 -0.2557
    1W        W44710   0.854   2.673   7.975  0.0439 -0.1357 -0.2298
    1W        W44711   0.220   0.797   8.361  0.1515 -0.3750  0.2966
    1W        W44712   5.906  26.213   7.944  0.0425  0.1247 -0.0204
    1W        W44713   1.660  26.063   7.889 -0.1048  0.0415  0.0683
    1W        W44714  17.788  25.062   7.618  0.2238 -0.1295  0.0445
    1W        W44715  20.885   0.476   1.596 -0.2546  0.1201  0.0114
    1W        W44716   0.549   7.006   2.550  0.1128  0.1785 -0.1653
    1W        W44717   9.338  25.140   9.749 -0.3281 -0.1854 -0.1267
    1W        W44718  10.600   5.102   3.877 -0.0202 -0.2530 -0.1093
    1W        W44719  24.992   7.318   2.081  0.0481 -0.1732  0.0347
    1W        W44720  26.276  13.624   7.026  0.0015  0.1711  0.2774
    1W        W44721  11.839  22.985   9.259  0.2175  0.0422 -0.0706
    1W        W44722   0.210  11.834   8.247 -0.0660  0.3035 -0.2815
    1W        W44723  21.136  27.700   7.506  0.0756 -0.1709  0.1308
    1W        W44724  14.568  10.319   3.275  0.1924  0.0979 -0.1306
    1W        W44725   0.615  16.280   0.548 -0.0970 -0.1105  0.1778
    1W        W44726  26.630  18.969   9.894 -0.1013  0.1830 -0.3212
    1W        W44727   3.482  22.153   7.468 -0.0773 -0.2577 -0.1817
    1W        W44728   7.510  15.761   7.958  0.1342  0.3015  0.1397
    1W        W44729  12.415  17.377   0.017  0.2550  0.0931 -0.2411
    1W        W44730   3.033   7.617   7.572 -0.2496 -0.0078 -0.0046
    1W        W44731  12.050   8.955   9.676 -0.4752 -0.3059 -0.2734
    1W        W44732  26.969  22.372   9.543  0.0086  0.0988 -0.2525
    1W        W44733   4.010  21.168   9.375  0.1297 -0.4053  0.1364
    1W        W44734   8.034  10.865   9.015 -0.2969  0.0113  0.1853
    1W        W44735  27.907   5.339   2.197 -0.0462  0.1540 -0.0393
    1W        W44736  21.535  24.949   2.092  0.1872 -0.1799  0.0621
    1W        W44737  15.938  23.372   2.829  0.1388 -0.0720  0.2490
    1W        W44738   2.439  19.272   8.785 -0.2507 -0.0867 -0.1186
    1W        W44739  11.480  22.211   1.590  0.2532  0.1217  0.1027
    1W        W44740   7.007   8.821   9.444  0.1323 -0.3964 -0.2340
    1W        W44741   8.949  14.295   1.760 -0.0425  0.1341 -0.0921
    1W        W44742   8.225  11.696   1.292  0.1615  0.2585  0.2671
    1W        W44743  17.821   3.095   3.067  0.2434  0.0117  0.0449
    1W        W44744  23.881  17.941   8.022  0.2431  0.0603  0.5124
    1W        W44745  20.063  24.258   7.364 -0.0340 -0.1083 -0.1752
    1W        W44746  22.494   9.898   3.436 -0.1023  0.2140 -0.2566
    1W        W44747  17.890  23.788   2.480 -0.0935 -0.0664  0.0982
    1W        W44748   0.224   2.099   1.576 -0.0513 -0.0194  0.1964
    1W        W44749  25.962   4.849   8.543  0.1401  0.0453 -0.0184
    1W        W44750   5.609   5.811   8.406  0.0024 -0.0789 -0.1433
    1W        W44751  13.907   0.767   1.792 -0.0806  0.3870 -0.2640
    1W        W44752  11.352   6.396   9.362 -0.2882 -0.1757 -0.1295
    1W        W44753   6.271  11.033   2.821 -0.1719 -0.1882  0.3122
    1W        W44754   5.401   3.542   8.616  0.0450  0.0351 -0.2153
    1W        W44755   9.900  26.240   2.837  0.0985  0.0981 -0.1554
    1W        W44756  28.234  22.980   2.238 -0.0357  0.2757  0.0273
    1W        W44757  25.745   3.599   7.394  0.0251  0.0479 -0.0602
    1W        W44758   0.415  21.241   1.855  0.1497  0.0667  0.0065
    1W        W44759   6.624   6.334   0.796 -0.1735  0.0704 -0.1398
    1W        W44760  18.968  21.357   2.037 -0.0868 -0.0201  0.0750
    1W        W44761  20.395  12.913   8.560  0.1934 -0.0085 -0.2713
    1W        W44762   7.862   2.642   9.172  0.1625  0.0137 -0.4778
    1W        W44763   0.460  21.520   7.694 -0.0021  0.0990  0.1643
    1W        W44764  19.278  11.712   9.545 -0.3257 -0.0244  0.0895
    1W        W44765  11.806  12.709   8.813 -0.0071  0.1767 -0.1910
    1W        W44766   2.206  14.234   0.775  0.0744 -0.0525 -0.2008
    1W        W44767  24.043   8.425   0.654 -0.1419  0.1405 -0.0138
    1W        W44768  15.700  14.433   0.010  0.2166 -0.0210 -0.1142
    1W        W44769  19.417   4.421   3.455 -0.0013 -0.2037  0.0812
    1W        W44770  26.034   2.985   3.261  0.1510  0.1759  0.2228
    1W        W44771  15.645  26.947   8.368 -0.0691 -0.1286 -0.2220
    1W        W44772   5.634  28.670   7.922  0.0554  0.4141 -0.0642
    1W        W44773   8.877  23.066   0.127 -0.1442 -0.0466 -0.2292
    1W        W44774  10.209  12.897   7.750  0.1648 -0.3809  0.0381
    1W        W44775   8.289  12.517   1.612  0.0236 -0.0974  0.4526
    1W        W44776   6.921   0.492   1.259  0.0506  0.0455  0.3495
    1W        W44777  12.795   4.780   9.067 -0.1500  0.1442 -0.1889
    1W        W44778  24.146  15.330   8.829  0.0748  0.1497 -0.2030
    1W        W44779  10.193   2.341   8.684 -0.0044 -0.3273 -0.0031
    1W        W44780  26.358   2.848   1.174 -0.1213  0.3006  0.1548
    1W        W44781  16.913   9.832   2.323 -0.0482 -0.0801 -0.0227
    1W        W44782  11.399  15.152   9.323  0.2152 -0.0937  0.2750
    1W        W44783  24.333  10.514   8.443 -0.1243 -0.2101  0.0639
    1W        W44784  15.088  15.018   2.018 -0.0628  0.0219  0.3673
    1W        W44785  28.047   3.738   8.432 -0.0499  0.2053  0.0961
    1W        W44786   2.709  18.069   7.942  0.0710 -0.0432 -0.0101
    1W        W44787  27.449  19.293   9.654  0.0181  0.1855  0.0756
    1W        W44788   3.932   3.821   9.814 -0.1092 -0.1217 -0.4813
    1W        W44789  19.716   4.406   2.007 -0.0972  0.2303  0.2702
    1W        W44790   9.636   4.857   9.324 -0.0440  0.2050  0.4537
    1W        W44791  23.414  23.631   2.667  0.1114  0.1276  0.2077
    1W        W44792   1.085  23.665   2.934 -0.2690  0.2028 -0.1039
    1W        W44793   7.525  11.816   2.084  0.0803  0.0619  0.2241
    1W        W44794   9.653  15.828   8.235 -0.1325  0.0596 -0.0772
    1W        W44795  25.623   7.409   0.223 -0.2148  0.1938 -0.0782
    1W        W44796  20.112   4.172   8.819 -0.1920  0.2735 -0.0530
    1W        W44797  22.911  16.138   0.168  0.1123  0.2143 -0.0593
    1W        W44798  15.881  19.460   2.301  0.1570  0.0788  0.0950
    1W        W44799  14.419  17.725   1.085  0.0198  0.0358  0.0429
    1W        W44800   7.542   4.398   6.757  0.3152 -0.2475 -0.2806
    1W        W44801   3.708   7.653   2.916  0.1974  0.2425 -0.3001
    1W        W44802  26.209  26.476   8.744 -0.3416 -0.2757 -0.0912
    1W        W44803  17.099  26.103   7.820  0.0966  0.1273  0.1794
    1W        W44804  19.409  22.670   2.657 -0.3079  0.0190  0.1318
    1W        W44805  19.640   6.322   0.148 -0.1983  0.0926  0.0591
    1W        W44806  26.727  21.006   7.933  0.1371 -0.2266  0.1056
    1W        W44807  25.809   4.602   9.460 -0.2835 -0.0556  0.0499
    1W        W44808  23.616  21.844   2.479  0.1070  0.0323 -0.1310
    1W        W44809  18.326   0.990   2.412 -0.0724  0.1031 -0.1884
    1W        W44810  20.573   5.807   9.313  0.2546 -0.0996  0.0102
    1W        W44811  13.530  13.703   1.977 -0.2870 -0.1192  0.3461
    1W        W44812  14.667  19.680   2.622  0.0689  0.2748 -0.2794
    1W        W44813  22.333   1.055   9.592 -0.0867 -0.2485 -0.0237
    1W        W44814  16.676   9.391   2.382  0.2257  0.1478  0.1061
    1W        W44815  27.913   6.147   0.730 -0.0110  0.0757 -0.3006
    1W        W44816  16.750  16.053   8.877  0.0507  0.1713 -0.0056
    1W        W44817  18.589  11.162   8.077 -0.0468  0.2422  0.3431
    1W        W44818   7.833  25.609   6.970  0.1937  0.1594 -0.0567
    1W        W44819  20.051  15.534   7.139  0.1619 -0.3271  0.2120
    1W        W44820   7.685  26.369   7.161 -0.0474  0.1673 -0.0416
    1W        W44821  19.824  20.159   7.768  0.0044  0.2058  0.2484
    1W        W44822   9.486  11.858   7.555 -0.1585  0.0940 -0.0626
    1W        W44823  22.958  22.803   2.133  0.4610  0.0044 -0.2147
    1W        W44824  21.200  22.904   2.778 -0.1424  0.2564 -0.3992
    1W        W44825  20.697   4.259   0.412 -0.1411  0.0208  0.0635
    1W        W44826   8.426   0.590   8.843 -0.2094 -0.3733 -0.3823
    1W        W44827  12.576  12.418   2.856  0.1921 -0.1414 -0.1890
    1W        W44828   0.820   7.630   7.949  0.2288  0.0853  0.1683
    1W        W44829  19.028  21.455   7.592 -0.3815 -0.0377 -0.0185
    1W        W44830   5.689  14.471   5.984 -0.0872 -0.1130 -0.0365
    1W        W44831   2.235   3.025   2.656  0.1626 -0.0570 -0.0465
    1W        W44832  18.692  27.647   2.885 -0.2312 -0.2448  0.0197
    1W        W44833  11.660   1.556   8.319 -0.1281  0.0322  0.0556
    1W        W44834  17.720  18.255   0.940 -0.0804  0.0461  0.4231
    1W        W44835  21.463  22.759   1.888  0.3275  0.0398  0.1205
    1W        W44836  11.443  15.666   8.292 -0.2246  0.2032 -0.0028
    1W        W44837  24.833  15.973   1.980  0.2911 -0.1359 -0.2430
    1W        W44838  17.232  17.622   0.408  0.0494  0.0557 -0.0908
    1W        W44839  12.809  11.444   2.182 -0.3229 -0.0235 -0.0736
    1W        W44840   9.114  27.421   2.696 -0.1397 -0.5083 -0.1064
    1W        W44841  17.864  25.483   9.330 -0.0549  0.2087  0.4539
    1W        W44842  13.151  11.637   9.643  0.0903  0.1449 -0.1077
    1W        W44843   0.286   0.921   9.352  0.2387  0.2445 -0.1555
    1W        W44844  27.775  15.330   1.258 -0.1228 -0.0776  0.0511
    1W        W44845   1.751   8.622   9.628 -0.3159  0.0054 -0.0199
    1W        W44846  23.797   4.433   7.600 -0.0327  0.0085 -0.0441
    1W        W44847  20.911  20.504   7.869 -0.2522 -0.2450 -0.0917
    1W        W44848   4.682   9.782   9.789 -0.0647 -0.0794  0.0651
    1W        W44849   2.057   0.895   2.753  0.2780  0.0739 -0.3795
    1W        W44850   8.562  19.485   1.761 -0.1111  0.0754  0.1500
    1W        W44851  21.066  14.745   7.940 -0.0681 -0.1414  0.0429
    1W        W44852   4.681   1.534   7.524  0.3223  0.2149 -0.4645
    1W        W44853  24.425  27.043   8.028 -0.1619  0.1347  0.0236
    1W        W44854   7.748  23.932   0.060 -0.1759 -0.1314  0.1132
    1W        W44855  13.138  25.186   1.365  0.2383  0.0390 -0.0228
    1W        W44856   3.681  27.371   1.610  0.1131  0.3443 -0.1870
    1W        W44857   6.190  23.588   1.536 -0.0719  0.1002 -0.0253
    1W        W44858  17.570   1.223   7.985 -0.1354 -0.2122 -0.2563
    1W        W44859  24.549  16.114   9.387  0.2937 -0.1960 -0.1015
    1W        W44860   9.807  26.694   3.039  0.0789  0.0182 -0.0649
    1W        W44861   6.316   6.146   1.145  0.0458  0.0757 -0.3363
    1W        W44862  26.551  23.944   8.912 -0.2895  0.2121  0.1147
    1W        W44863  12.933   5.685   1.247 -0.3117 -0.1208 -0.0014
    1W        W44864  18.796  23.611   7.111 -0.3651  0.0289  0.0052
    1W        W44865  23.473  18.153   0.006  0.1558  0.3153  0.1509
    1W        W44866  23.984  19.844   8.318 -0.0192 -0.0162  0.1421
    1W        W44867   3.867  13.959   1.699  0.0638  0.1424  0.2718
    1W        W44868   8.819  20.365   6.707  0.1737  0.0767  0.0886
    1W        W44869  12.369  14.887   7.607  0.1680  0.0462 -0.1883
    1W        W44870  26.411  19.393   5.712 -0.1482  0.0805 -0.0142
    1W        W44871   3.602   8.968   9.393 -0.1798 -0.0867 -0.1027
    1W        W44872   4.717  22.405   6.235  0.1458 -0.0200 -0.2200
    1W        W44873  14.171  22.263   3.927  0.0825  0.1457 -0.1105
    1W        W44874  19.959  12.147   1.879  0.2150  0.0612 -0.1290
    1W        W44875  11.341  14.398   9.892 -0.1090  0.1573 -0.1146
    1W        W44876   6.389  26.542   7.880 -0.0419  0.0924  0.3073
    1W        W44877  16.297   5.499   2.860  0.0023  0.0426  0.1313
    1W        W44878  27.004  24.815   2.475 -0.2165  0.0123 -0.0759
    1W        W44879  10.007  18.064   9.211  0.0745 -0.3834  0.0430
    1W        W44880  15.047  15.118   8.033  0.1153  0.0274  0.0312
    1W        W44881  17.269   6.826   1.529  0.2725 -0.2019 -0.2777
    1W        W44882  16.487  26.874   9.843 -0.1605 -0.3625  0.0841
    1W        W44883  21.304  28.066   1.854  0.2090 -0.0124  0.2737
    1W        W44884   6.912  23.354   6.192 -0.0617  0.2381 -0.0266
    1W        W44885   4.988  25.633   0.571  0.0708  0.0375  0.1016
    1W        W44886   1.337   1.652   8.903  0.0511  0.1555 -0.1857
    1W        W44887  23.642   2.050   1.512  0.0192 -0.1786  0.0375
    1W        W44888   0.479   0.449   8.661 -0.0949 -0.1460 -0.0312
    1W        W44889  20.165  14.807   2.284  0.2085 -0.0641 -0.0339
    1W        W44890  15.701   2.401   2.947 -0.0271  0.1544 -0.3780
    1W        W44891   4.662  17.380   9.674  0.4181 -0.0559  0.2900
    1W        W44892   1.395  25.543   0.011  0.0233 -0.4115 -0.2225
    1W        W44893   3.793   1.982   0.384 -0.1939 -0.3326  0.1229
    1W        W44894  18.140  22.219   6.972 -0.0412  0.1227  0.3343
    1W        W44895  12.228  21.728   1.081 -0.1404 -0.1041  0.0264
    1W        W44896   4.932  24.884   1.509 -0.0502  0.1807 -0.1342
    1W        W44897   8.969  19.577   2.037 -0.0904  0.1441  0.0514
    1W        W44898  14.691   9.187   0.234  0.1421  0.1052  0.4598
    1W        W44899  24.514  15.872   7.068 -0.1552  0.0697 -0.1314
    1W        W44900  15.157  14.447   8.285 -0.2023  0.2045  0.0508
    1W        W44901   2.742  18.008   0.268 -0.1270 -0.0835 -0.0498
    1W        W44902  27.888  14.982   7.639  0.1417 -0.1886  0.1760
    1W        W44903  11.127  10.012   2.139 -0.0510  0.2503 -0.0739
    1W        W44904  28.545  10.746   1.327  0.1179  0.2531  0.0491
    1W        W44905  26.570  21.964   8.365 -0.2093  0.0533  0.0219
    1W        W44906   1.817   2.942   2.864 -0.2411  0.3651 -0.3036
    1W        W44907   8.555   2.135   8.930 -0.0777  0.3305  0.0600
    1W        W44908  20.218  25.685   9.896 -0.1221 -0.2417  0.1433
    1W        W44909   1.920   0.787   9.125 -0.0239  0.1018 -0.2562
    1W        W44910   5.282  26.418   8.359 -0.1681 -0.0664  0.0119
    1W        W44911   4.628  27.048   8.684 -0.2407 -0.1906 -0.1833
    1W        W44912  20.448  13.442   7.660 -0.3376 -0.2699  0.1431
    1W        W44913  20.003  21.823   8.421 -0.0783  0.1612 -0.0019
    1W        W44914  16.424  17.093   3.137  0.1597  0.0660 -0.3567
    1W        W44915   1.188  21.604   7.337  0.3619 -0.1372 -0.2456
    1W        W44916  27.468   7.849   0.211  0.1772  0.1324 -0.1670
    1W        W44917  11.976  16.171   2.746 -0.2681  0.1276  0.1177
    1W        W44918  16.057  14.130   8.072  0.1449  0.2077  0.0471
    1W        W44919  12.593   0.195   9.394 -0.2751 -0.2944 -0.0823
    1W        W44920   2.416   3.185   7.343  0.0332  0.0702  0.1350
    1W        W44921  21.704   1.043   7.103 -0.1237  0.0257  0.0795
    1W        W44922  24.604  14.621   0.480  0.2561  0.0553  0.0156
    1W        W44923   6.078  11.232   3.233  0.0026 -0.4132  0.2228
    1W        W44924  15.458  25.563   8.640 -0.0265  0.1865  0.0788
    1W        W44925  18.104   2.067   9.295  0.1173  0.1625 -0.0040
    1W        W44926   5.113  14.689   8.811 -0.0600  0.1034 -0.3553
    1W        W44927  18.692  11.337   1.765 -0.3124 -0.1152  0.0577
    1W        W44928  17.825   2.401   2.299  0.4420 -0.1354 -0.2460
    1W        W44929   5.254  26.957   0.360 -0.1003 -0.2759  0.3437
    1W        W44930   9.235  27.164   7.476  0.1658  0.0078 -0.0026
    1W        W44931   9.499   6.664   8.624  0.1122 -0.3186  0.3090
    1W        W44932   3.253  18.780   1.705  0.1012 -0.7670 -0.4754
    1W        W44933  12.161   4.761   3.564  0.0315  0.3730  0.0300
    1W        W44934   1.061  22.963   6.598  0.4495  0.1163  0.1061
    1W        W44935   8.566  22.394   9.463  0.1091 -0.0939 -0.4561
    1W        W44936  19.842  12.269   9.208  0.2935 -0.0631  0.2153
    1W        W44937   9.733  26.714   1.620  0.0282 -0.1064  0.0068
    1W        W44938   4.022  26.234   8.439 -0.2927 -0.0652 -0.2736
    1W        W44939  27.064   7.532   0.919  0.2138 -0.0324  0.1297
    1W        W44940  22.406   5.838   9.083  0.2913 -0.1689 -0.4707
    1W        W44941   8.074  26.655   9.668 -0.0505 -0.1890 -0.2599
    1W        W44942  11.348  24.575   2.346 -0.0271  0.0046 -0.0555
    1W        W44943   1.011  23.800   8.900  0.0343 -0.1015 -0.0916
    1W        W44944  15.258   0.993   9.306 -0.0205  0.1639  0.1079
    1W        W44945  25.458   9.832   0.047 -0.1902  0.0409 -0.1392
    1W        W44946   6.123  23.132   9.276  0.0366  0.0666 -0.3551
    1W        W44947   4.876  15.146   6.067 -0.0031  0.0681 -0.3547
    1W        W44948   3.879   9.874   9.355 -0.0763 -0.1073  0.1141
    1W        W44949  20.385  15.689   1.781 -0.1554 -0.0830  0.2640
    1W        W44950   7.689  21.342   9.621 -0.0273  0.0452 -0.1564
    1W        W44951  21.876  16.133   9.893  0.1452  0.0544  0.2730
    1W        W44952  25.999  20.574   7.654  0.0970  0.1830  0.1140
    1W        W44953  21.425  14.480   9.594  0.1778  0.1085 -0.0341
    1W        W44954  19.609  23.708   3.543  0.0031 -0.0667 -0.3205
    1W        W44955  16.227  17.444   0.637  0.0006  0.0765 -0.2296
    1W        W44956   6.570   5.282   9.551  0.1275  0.1641 -0.0153
    1W        W44957  22.492   1.953   1.063  0.2564  0.1398 -0.0758
    1W        W44958  22.004  27.488   1.492  0.4494  0.1135  0.0208
    1W        W44959   3.944  25.309   8.829 -0.4108  0.1306 -0.2186
    1W        W44960  27.375  15.017   1.448  0.1544  0.0203  0.0523
    1W        W44961  10.827   9.821   0.021  0.0936  0.0144  0.0259
    1W        W44962  17.552  25.050   8.110  0.0896  0.0314 -0.0410
    1W        W44963   1.578  11.979   0.912 -0.0648 -0.1323 -0.0627
    1W        W44964   0.468  11.982   0.389 -0.3697 -0.6846  0.0538
    1W        W44965   8.482   7.015   3.598  0.0085 -0.3247 -0.0368
    1W        W44966  14.578   0.154   9.060  0.3154  0.0555  0.0997
    1W        W44967  21.858  11.285   0.515  0.0107  0.2751 -0.2332
    1W        W44968  10.174   0.489   8.265 -0.2201  0.0786 -0.2074
    1W        W44969   9.603   0.851   2.424  0.1218 -0.0895 -0.3106
    1W        W44970  22.327  19.541   2.312 -0.1096  0.0239 -0.0024
    1W        W44971  12.908  11.148   0.971  0.0039  0.1502 -0.2831
    1W        W44972   8.810  24.022   2.907  0.0959 -0.1136 -0.2456
    1W        W44973  20.641   9.460   3.908 -0.2693  0.2138  0.1584
    1W        W44974  27.886   0.550   2.101 -0.0681  0.1383  0.1742
    1W        W44975  23.031  17.671   9.066 -0.0936  0.3475  0.0072
    1W        W44976  18.613   2.603   7.748 -0.0884 -0.2082 -0.1769
    1W        W44977  13.912  13.562   7.739  0.2066 -0.0428 -0.0970
    1W        W44978   6.615  17.720   8.328  0.0482  0.1222  0.0932
    1W        W44979  18.824  21.593   8.313 -0.0062  0.0360 -0.2517
    1W        W44980  20.221  23.279   0.666  0.1542  0.0783  0.1757
    1W        W44981   2.072   6.632   9.834 -0.2573 -0.0525  0.0043
    1W        W44982  27.398   2.312   9.088 -0.2767  0.2086 -0.2147
    1W        W44983   9.977   7.994   0.709 -0.0605 -0.0578  0.0597
    1W        W44984  24.611   2.367   2.239 -0.2193 -0.0963 -0.1893
    1W        W44985   0.513  25.202   7.302 -0.4937 -0.0919 -0.4880
    1W        W44986  26.884   0.053   9.366  0.0413  0.0657 -0.0617
    1W        W44987  21.329   4.293   8.392  0.4328  0.1360 -0.0904
    1W        W44988  13.161   2.062   9.126 -0.0034 -0.1029  0.1896
    1W        W44989   2.064  25.471   1.783 -0.1964  0.0349 -0.2359
    1W        W44990  20.055   8.431   9.571  0.3497 -0.2365  0.3338
    1W        W44991   9.968  23.251   2.218 -0.3526 -0.2921 -0.0578
    1W        W44992  22.567  14.390   1.155  0.1681 -0.1270  0.1261
    1W        W44993  10.251  10.169   3.060 -0.0199  0.1478  0.3950
    1W        W44994   2.938  17.392   7.095  0.2637 -0.0199 -0.0468
    1W        W44995   3.755   3.742   1.158  0.3190 -0.0655 -0.2760
    1W        W44996   6.682   0.041   1.446  0.0034 -0.1702 -0.1023
    1W        W44997  16.017  19.255   9.473 -0.4096 -0.0446 -0.0586
    1W        W44998  10.994   1.044   2.119 -0.1532  0.1709  0.1513
    1W        W44999   7.572   2.757   8.107  0.0201 -0.1600 -0.1842
    1W        W45000   2.574  13.891   7.024 -0.1510  0.2162 -0.0526
    1W        W45001   7.111   8.552   1.007 -0.1350 -0.5607 -0.1062
    1W        W45002  11.804  17.750   8.640  0.1175  0.1411  0.1622
    1W        W45003   6.562  17.183   7.440 -0.1220 -0.0591  0.0500
    1W        W45004   6.464   3.890   7.362  0.0573 -0.1275 -0.0206
    1W        W45005  26.893  19.892   0.385  0.1590 -0.2733  0.0164
    1W        W45006  22.502  12.814   8.828  0.0606  0.0423  0.1414
    1W        W45007   7.544   3.086   7.198 -0.3605  0.4012 -0.2058
    1W        W45008  24.933  15.890   0.717  0.0690  0.2733 -0.0082
    1W        W45009   7.992   5.321   1.258 -0.0482  0.1354 -0.2589
    1W        W45010   7.325  19.197   6.267  0.0340  0.2968 -0.1126
    1W        W45011  23.495   1.381   8.744 -0.1835  0.3224  0.0140
    1W        W45012  18.761  26.730   6.274  0.2405  0.0278  0.0307
    1W        W45013  21.517  25.285   0.493 -0.0290 -0.1251  0.0062
    1W        W45014  25.036  14.227   1.190 -0.1656 -0.0169 -0.3758
    1W        W45015   0.780  24.482   2.303  0.2738 -0.0500 -0.3825
    1W        W45016  16.376  20.652   2.607  0.0179  0.0781  0.0775
    1W        W45017   2.046  23.228   0.532  0.2465  0.1619  0.2654
    1W        W45018  21.501  27.850   7.179 -0.1161  0.1756 -0.0865
    1W        W45019   3.283  10.601   0.899 -0.2529  0.2377  0.3073
    1W        W45020  12.636  17.875   8.919 -0.1547  0.0400  0.0062
    1W        W45021  10.197  24.103   7.135  0.0794  0.2714  0.3633
    1W        W45022  12.588  23.504   0.145  0.0022  0.2161  0.2260
    1W        W45023  25.704   4.000   1.883 -0.1584  0.3104 -0.1867
    1W        W45024   8.192  26.330   2.466  0.1097 -0.0471 -0.3332
    1W        W45025   3.771  23.016   1.913  0.0543 -0.0010 -0.2119
    1W        W45026  11.038  19.445   9.050  0.0489 -0.2134 -0.0492
    1W        W45027   9.324  25.636   9.923 -0.1078 -0.1815  0.0845
    1W        W45028  16.951  20.733   7.891  0.0778 -0.0299 -0.0460
    1W        W45029   0.664  23.929   9.244  0.1120 -0.0979 -0.1200
    1W        W45030  26.261  27.803   7.163  0.3712 -0.3546  0.1127
    1W        W45031   5.213  27.525   1.732 -0.3003  0.0297  0.2343
    1W        W45032  12.643  18.622   9.685 -0.0523 -0.0113 -0.0583
    1W        W45033  18.540  19.579   1.128 -0.0998  0.2421 -0.2880
    1W        W45034   1.294  25.344   2.597  0.1927  0.2597  0.2432
    1W        W45035   9.539   3.574   8.727 -0.3138 -0.0180  0.1002
    1W        W45036  24.794  17.990   9.440 -0.1606  0.0943  0.2432
    1W        W45037   9.271  20.195   6.930 -0.0297 -0.1361 -0.3288
    1W        W45038   6.882  16.502   1.267 -0.0562 -0.1316 -0.1892
    1W        W45039   3.896   2.106   7.024 -0.1856 -0.1905  0.4969
    1W        W45040   3.725  10.995   6.780  0.1266  0.0570 -0.2052
    1W        W45041   9.508  11.905   2.243 -0.3407 -0.0297  0.0510
    1W        W45042   4.621  16.893   9.205  0.1029  0.2922  0.1485
    1W        W45043   0.881   4.885   6.251 -0.0122  0.0617  0.0227
    1W        W45044   6.145   8.991   2.421 -0.1429  0.0712  0.0512
    1W        W45045  10.518   4.476   3.357 -0.3158 -0.0190  0.0466
    1W        W45046  11.352   3.191   7.771  0.1674 -0.0893 -0.1834
    1W        W45047  18.404  23.830   2.546 -0.0542 -0.2312  0.0302
    1W        W45048  27.973  22.623   7.074  0.1433  0.0065 -0.2353
    1W        W45049  10.469  27.077   2.746  0.0579  0.3141  0.1097
    1W        W45050  26.310  11.121   2.764  0.1190  0.1172  0.2011
    1W        W45051  10.016   4.801   1.129  0.1951  0.2062  0.0617
    1W        W45052   1.306   2.275   9.874  0.2863  0.1299 -0.1043
    1W        W45053   5.447  28.323   9.788 -0.1234  0.0018 -0.5069
    1W        W45054  13.051  28.493   2.932  0.1600  0.1267 -0.0092
    1W        W45055   1.170   0.496   8.725  0.3116 -0.0953 -0.0820
    1W        W45056  26.019   6.219   1.085  0.0241  0.0091 -0.0764
    1W        W45057  17.485  21.659   1.713  0.1539  0.0942  0.1494
    1W        W45058   6.392   3.842   2.035  0.0455  0.0947 -0.0769
    1W        W45059   2.408  18.208   0.650  0.3620  0.3000  0.0588
    1W        W45060   2.927  15.795   9.090  0.0350  0.1837  0.3422
    1W        W45061  24.121  11.099   1.658  0.5307 -0.2327 -0.1716
    1W        W45062  28.349  17.076   9.748  0.0322  0.3783  0.0969
    1W        W45063  13.285  22.546   1.044 -0.2398 -0.2890 -0.1389
    1W        W45064  26.138  16.509   7.614 -0.0696 -0.1287  0.0354
    1W        W45065  28.102  25.463   2.412 -0.3173  0.2329  0.2296
    1W        W45066   7.211  22.524   7.929  0.0851  0.1296 -0.2053
    1W        W45067   3.991  21.064   6.377 -0.1590  0.3921  0.0880
    1W        W45068  15.986  13.080   9.429  0.2057  0.2583 -0.1092
    1W        W45069  23.678  15.491   2.613 -0.0741  0.1115 -0.3274
    1W        W45070  18.849  15.391   1.163  0.1317  0.3200  0.0769
    1W        W45071  12.743   5.354   2.444 -0.1909  0.2175 -0.0597
    1W        W45072  16.671  28.519   7.692 -0.1347 -0.1455  0.3604
    1W        W45073  22.896  23.820   7.789  0.3136 -0.1250  0.0075
    1W        W45074  12.253   6.916   2.503 -0.0423 -0.0170  0.1693
    1W        W45075   0.001  28.358   8.803 -0.0833  0.3753  0.0560
    1W        W45076  18.201  15.702   8.279  0.0799 -0.1314  0.4287
    1W        W45077   3.158   1.047   1.859 -0.0177  0.0143  0.1219
    1W        W45078   3.249  12.309   1.280  0.2297 -0.2652 -0.1018
    1W        W45079   2.905  10.151   3.251  0.1017  0.1866  0.2350
    1W        W45080   1.260  13.469   9.773 -0.2681 -0.1209  0.0364
    1W        W45081   1.124  20.892   7.522 -0.0030  0.0730  0.0030
    1W        W45082  12.972  18.176   1.984  0.1328  0.0573 -0.1168
    1W        W45083   8.806   6.956   7.387  0.2832 -0.0545 -0.2576
    1W        W45084  27.216  16.428   9.295 -0.2688 -0.0490  0.0978
    1W        W45085  18.366  11.946   9.513  0.3149 -0.0749 -0.2584
    1W        W45086  18.196  16.947   9.681 -0.0186 -0.2073 -0.0938
    1W        W45087  25.692  21.087   9.008 -0.1260  0.2314  0.0852
    1W        W45088  27.241   2.854   0.874  0.1840 -0.0183  0.0221
    1W        W45089  20.277   4.802   3.268  0.0119  0.0606 -0.0659
    1W        W45090  27.490   4.813   9.103 -0.1050 -0.0680 -0.1747
    1W        W45091  16.750  19.430   2.830 -0.3720 -0.0184 -0.1639
    1W        W45092  26.825  10.891   6.592  0.0049  0.1483  0.0105
    1W        W45093   0.516  21.487   8.874  0.0769  0.0398  0.3422
    1W        W45094  23.412  20.909   9.007 -0.1845 -0.1076  0.0061
    1W        W45095   4.909  21.834   6.447 -0.2327 -0.0097 -0.3415
    1W        W45096  22.319   8.713   6.422  0.2173  0.0383  0.3057
    1W        W45097  23.657   1.239   9.776  0.1431  0.1197  0.1935
    1W        W45098   4.214   1.472   3.452  0.1530 -0.2129  0.0344
    1W        W45099  14.083  17.879   9.532 -0.1717 -0.2064  0.2299
    1W        W45100  23.547  16.477   0.656 -0.3587  0.1334  0.1448
    1W        W45101  19.547   7.075   9.285  0.0146  0.1747 -0.3710
    1W        W45102   5.739   6.720   3.935  0.0602  0.0356 -0.1430
    1W        W45103  17.661  24.039   0.587 -0.1454 -0.0660 -0.0142
    1W        W45104  17.963   4.165   2.478  0.2401 -0.1979  0.0279
    1W        W45105  11.488  24.970   0.264 -0.1250 -0.0216 -0.0963
    1W        W45106  24.473  15.719   7.876 -0.2576 -0.0310  0.0427
    1W        W45107  24.474   1.861   0.803 -0.2994 -0.1664  0.2523
    1W        W45108  19.060  25.909   1.084 -0.1093  0.1944  0.1788
    1W        W45109   2.234   6.328   7.751  0.1156 -0.0302  0.0684
    1W        W45110   0.584  25.849   9.161  0.2197  0.3983  0.0010
    1W        W45111  10.205  26.568   2.057  0.1018 -0.1078 -0.0854
    1W        W45112  12.806  22.554   0.080  0.2188 -0.0823 -0.3606
    1W        W45113   1.641   1.948   6.941 -0.0519  0.0399 -0.0021
    1W        W45114  16.925   4.257   4.208  0.2698 -0.0632 -0.2270
    1W        W45115  10.739  11.166   1.218  0.0583  0.0496  0.2457
    1W        W45116  11.853  11.609   8.615  0.1575  0.0424  0.2705
    1W        W45117  20.278   7.669   3.406  0.0767 -0.1220  0.0613
    1W        W45118  12.486  13.186   0.222 -0.0480  0.1059 -0.0162
    1W        W45119  12.309  20.429   7.626  0.0715  0.1834  0.0740
    1W        W45120  24.941   1.337   7.535 -0.2095  0.1492  0.2661
    1W        W45121   4.075  25.015   1.867  0.2507 -0.1162  0.1798
    1W        W45122  19.806  13.674   8.567  0.2742  0.1400  0.2777
    1W        W45123  17.895  13.025   1.486  0.0400  0.2711  0.2015
    1W        W45124  22.689   5.746   1.737 -0.2981 -0.1649  0.1513
    1W        W45125  19.615   3.951   0.578  0.2601  0.0560 -0.0297
    1W        W45126  22.931   8.045   1.356  0.0456  0.2561 -0.2316
    1W        W45127  24.134  23.906   7.102  0.2417  0.2634  0.0278
    1W        W45128  26.578  16.675   2.184  0.1727  0.0185 -0.5377
    1W        W45129   8.870   7.534   8.977 -0.1142  0.0320  0.0049
    1W        W45130  24.202  14.991   9.837  0.2004  0.0757 -0.2783
    1W        W45131   8.685  28.605   1.013  0.0419  0.1844 -0.3961
    1W        W45132  11.200   3.995   2.229 -0.2262  0.3697 -0.2755
    1W        W45133  16.726  26.181   9.183  0.1775  0.2472  0.2765
    1W        W45134  17.331  12.219   7.791 -0.0841 -0.1553 -0.1229
    1W        W45135   5.454  18.173   8.750 -0.1699  0.0948  0.0484
    1W        W45136  23.969  23.261   0.296  0.3263 -0.0221  0.1405
    1W        W45137  14.672  17.797   9.197 -0.2573 -0.0136 -0.1724
    1W        W45138  20.646  22.974   2.550 -0.0782  0.2645  0.1620
    1W        W45139   4.229  18.721   6.200  0.0050  0.1400  0.0758
    1W        W45140  22.213  21.982   9.077  0.0608 -0.0052 -0.2266
    1W        W45141  14.626  12.372   1.047 -0.0791 -0.1246  0.0733
    1W        W45142   2.166  24.800   8.418  0.3336 -0.0545 -0.1591
    1W        W45143   5.009  17.714   7.615  0.0572  0.0717  0.0191
    1W        W45144   4.125  25.091   1.344 -0.1933 -0.1047  0.1971
    1W        W45145  13.562  27.724   4.136  0.2604  0.0229  0.0348
    1W        W45146   0.010  23.134   0.179 -0.1093 -0.0037 -0.0341
    1W        W45147  13.683  27.158   2.886  0.0456 -0.0065 -0.3418
    1W        W45148  27.356   4.287   1.122 -0.0996  0.3765 -0.0792
    1W        W45149   4.387  24.983   7.846 -0.0624  0.3127 -0.0117
    1W        W45150  26.002   7.142   9.468 -0.1995  0.1098  0.1355
    1W        W45151   5.015  10.921   7.192  0.0630  0.2132  0.0797
    1W        W45152   4.298  17.886   1.739  0.1416 -0.4527 -0.0122
    1W        W45153  14.317   2.705   0.686 -0.0767 -0.2252  0.0976
    1W        W45154  19.492  11.044   1.180  0.1206  0.2492 -0.1346
    1W        W45155   4.801  24.464   1.239  0.2522  0.3879  0.1228
    1W        W45156   7.968  19.955   1.079 -0.1152  0.0686  0.0675
    1W        W45157  10.797  24.831   7.303  0.2976 -0.0810  0.3029
    1W        W45158  26.911  14.509   0.212 -0.2216 -0.2498 -0.0905
    1W        W45159   7.514  19.013   0.620  0.2595  0.1336  0.2817
    1W        W45160  14.400  20.562   0.168  0.3470 -0.1628  0.0481
    1W        W45161   5.694   6.526   2.484 -0.2559  0.0871  0.1950
    1W        W45162  10.146  23.769   1.254  0.1528  0.0730 -0.3326
    1W        W45163   4.728   8.083   8.179  0.1950  0.1427 -0.2497
    1W        W45164  27.242  22.302   0.198  0.0751 -0.3762  0.1378
    1W        W45165  19.989  24.360   2.168 -0.2992  0.0823  0.2416
    1W        W45166  13.682  22.314   2.873 -0.1233 -0.3707  0.1465
    1W        W45167  25.547  20.414   7.779 -0.1163 -0.1606 -0.0904
    1W        W45168  18.289  12.125   8.211  0.1897  0.1684 -0.1955
    1W        W45169  16.347   4.264   0.116 -0.2209 -0.2196  0.1989
    1W        W45170  28.041   5.211   8.919  0.4276  0.0948 -0.1382
    1W        W45171  18.498   3.859   2.439 -0.0784 -0.1149  0.1200
    1W        W45172  23.321  21.047   2.863 -0.2450  0.1272 -0.3097
    1W        W45173   8.651  19.081   8.315 -0.2090  0.2669 -0.1891
    1W        W45174   6.594   2.931   7.071  0.0931 -0.0121  0.0251
    1W        W45175  21.637   1.946   7.411 -0.2973 -0.1053  0.0787
    1W        W45176   0.882   7.817   6.645 -0.1410  0.0518  0.1096
    1W        W45177  28.689   0.713   2.391  0.1648  0.2321  0.0335
    1W        W45178  20.112   5.482   2.413  0.0685  0.3238  0.1477
    1W        W45179  26.465  15.174   8.019 -0.1224  0.1710 -0.0756
    1W        W45180  22.189   4.643   0.231 -0.1227  0.0893 -0.0842
    1W        W45181  26.837  18.504   2.527  0.0967 -0.0027  0.2010
    1W        W45182  26.383  10.078   5.487  0.1995  0.0226  0.0184
    1W        W45183  24.452   4.402   7.844  0.2579 -0.0525  0.1953
    1W        W45184  15.879  11.977   9.804  0.1241  0.0737  0.3700
    1W        W45185   6.409  13.685   9.366  0.1071  0.0580 -0.2653
    1W        W45186  22.251   1.000   2.360  0.0550  0.0323  0.1065
    1W        W45187   2.726  28.129   7.385  0.1627 -0.2149  0.1076
    1W        W45188  14.253   4.426   8.854 -0.0895  0.0330 -0.0987
    1W        W45189  13.853   2.084   0.422  0.2053  0.1262  0.0340
    1W        W45190  27.784   4.030   8.850 -0.2020  0.2214  0.1033
    1W        W45191   6.428  21.650   0.469 -0.0032  0.0097 -0.0580
    1W        W45192  24.449  12.324   0.153 -0.0695 -0.2202 -0.0188
    1W        W45193  11.182   6.969   9.369  0.0541  0.1393  0.1480
    1W        W45194  21.920  25.362   0.911  0.0913 -0.2082  0.2672
    1W        W45195  23.040  23.882   2.313  0.0731 -0.1003  0.1347
    1W        W45196   8.070   0.196   9.615  0.1717  0.1771 -0.1872
    1W        W45197  20.401  18.971   2.350 -0.0695  0.1797  0.3643
    1W        W45198   6.418  27.302   1.386  0.4015  0.0567  0.1931
    1W        W45199  21.437  25.135   1.024  0.0314 -0.1565  0.2713
    1W        W45200  25.690  15.900   0.892 -0.1372  0.0942 -0.1479
    1W        W45201  16.841  27.682   2.381 -0.2460  0.0720 -0.1111
    1W        W45202   5.509  15.281   6.862  0.0218 -0.0591 -0.1682
    1W        W45203   9.400  20.731   0.401 -0.0392  0.4539 -0.1634
    1W        W45204   9.818  13.673   7.738 -0.0324  0.2194  0.2716
    1W        W45205   8.549  23.737   7.054  0.1239 -0.0524  0.1007
    1W        W45206  16.713   6.201   7.698 -0.0963 -0.2328 -0.0101
    1W        W45207  11.767  26.859   2.909 -0.0163  0.5046  0.1202
    1W        W45208  13.660  14.733   7.966 -0.0212 -0.1130 -0.0120
    1W        W45209  21.176  24.018   2.306  0.2818  0.0452  0.0285
    1W        W45210   3.851  10.486   8.460  0.0533  0.0209 -0.0387
    1W        W45211   8.919  25.245   2.418  0.0452 -0.0517  0.3323
    1W        W45212  13.931  21.327   7.860 -0.0930 -0.2448  0.0252
    1W        W45213  27.764  19.279   6.948 -0.2586 -0.0031  0.0274
    1W        W45214  27.553   9.182   6.443  0.2894 -0.3276  0.0816
    1W        W45215   5.540  12.658   7.683  0.2416  0.1685  0.1386
    1W        W45216  24.876  22.337   7.203 -0.0080 -0.0511  0.1571
    1W        W45217   6.449   3.127   9.057 -0.0464  0.0677  0.2663
    1W        W45218  27.365  24.734   5.898  0.0655  0.0669 -0.1617
    1W        W45219  25.484   9.953   6.433  0.0464 -0.1203 -0.1737
    1W        W45220  23.473   0.196   3.426  0.1022  0.2169  0.1458
    1W        W45221  28.103   7.456   3.010  0.0234 -0.0952 -0.1937
    1W        W45222  17.022  20.840   1.276  0.0272 -0.1424  0.1198
    1W        W45223  17.732   1.811   3.226 -0.1591 -0.1738 -0.0435
    1W        W45224  21.734  11.894   2.251  0.0819  0.3048  0.0695
    1W        W45225  14.376  12.169   0.059  0.1689  0.0964  0.0517
    1W        W45226   2.725  22.920   5.775  0.0405  0.1944 -0.3511
    1W        W45227   2.687  23.525   0.549  0.0163  0.2075 -0.2326
    1W        W45228  22.953   7.773   6.407  0.0016 -0.0837  0.1245
    1W        W45229   2.575   8.755   9.960  0.1622  0.0538  0.3681
    1W        W45230   1.461   8.644   0.384  0.0535 -0.4250  0.1752
    1W        W45231  11.727   2.264   9.452  0.1137 -0.0574 -0.0053
    1W        W45232  22.590   2.321   2.595  0.0705  0.0137  0.0429
    1W        W45233  25.133  26.895   1.677  0.0250 -0.0318 -0.2854
    1W        W45234  28.038  24.627   3.621 -0.1004 -0.1640 -0.1713
    1W        W45235  24.032  18.553   7.116 -0.1917  0.0295  0.0193
    1W        W45236  16.668  15.665   9.636  0.1735 -0.3088  0.2061
    1W        W45237  24.699   9.320   6.456 -0.0801  0.2398 -0.0133
    1W        W45238  16.095   5.476   0.327  0.0072  0.3349  0.1327
    1W        W45239   7.950  26.371   1.840  0.1162  0.0268  0.0298
    1W        W45240  26.800  10.898   8.802 -0.2630 -0.0979 -0.0947
    1W        W45241  21.345   0.844   6.815 -0.2437 -0.0642 -0.1467
    1W        W45242   8.916   7.436   2.088 -0.1786  0.1297 -0.3149
    1W        W45243   2.591  13.039   8.976  0.0315 -0.1738 -0.1263
    1W        W45244  24.977  11.544   1.711  0.0653  0.1363  0.2214
    1W        W45245  23.978  25.122   7.888 -0.1100  0.0023  0.4022
    1W        W45246   9.073  15.880   2.278  0.0240  0.2837  0.3292
    1W        W45247   2.445  25.696   7.278 -0.1360  0.3489  0.1683
    1W        W45248  25.700  22.513   8.281  0.2707 -0.1269  0.3928
    1W        W45249   3.402  14.402   9.446 -0.4269  0.0305 -0.1096
    1W        W45250  11.105  24.150   2.415  0.0470 -0.2282 -0.1417
    1W        W45251  23.686  22.093   8.505  0.2074 -0.2328  0.0967
    1W        W45252  26.565  13.917   0.158  0.1957 -0.1500  0.0910
    1W        W45253  10.584  26.542   2.474 -0.3834  0.0110  0.1045
    1W        W45254  17.099  25.200   7.433 -0.1647 -0.3357  0.3027
    1W        W45255  18.338   2.448   2.144 -0.2257 -0.0744 -0.1136
    1W        W45256   4.122  23.684   5.463 -0.5086  0.0916 -0.1487
    1W        W45257  22.384  19.980   9.545 -0.0889  0.1237  0.0632
    1W        W45258   1.980   8.790   8.867  0.1002 -0.3065  0.2635
    1W        W45259  27.968  17.281   1.906  0.2345 -0.0773  0.2279
    1W        W45260  25.965   0.940   1.813  0.1614 -0.4353 -0.2688
    1W        W45261  27.409  23.225   9.544  0.1880  0.1696 -0.0766
    1W        W45262  22.703   9.499   8.932  0.2038 -0.3037  0.0783
    1W        W45263  15.521   3.385   0.341 -0.3500 -0.0453 -0.0369
    1W        W45264  19.451   5.785   3.253 -0.1930 -0.1040 -0.0808
    1W        W45265  11.444  20.641   8.013 -0.1064 -0.2131  0.0454
    1W        W45266  27.524  14.745   9.745 -0.1112 -0.1089 -0.3499
    1W        W45267   5.535   2.235   8.822 -0.1082 -0.2296 -0.0969
    1W        W45268  19.317  22.119   6.509  0.0429 -0.4320 -0.1850
    1W        W45269  11.247  15.140   8.585 -0.1124 -0.0920  0.1230
    1W        W45270   6.489  10.227   1.131  0.1075 -0.2207 -0.2156
    1W        W45271  28.510  20.636   9.789 -0.0013 -0.0134  0.2436
    1W        W45272  19.525  27.799   0.682 -0.3674  0.1862 -0.2691
    1W        W45273  19.581  25.253   7.265 -0.3241 -0.0272  0.2107
    1W        W45274  27.770  25.042   1.803  0.1116  0.4628  0.3574
    1W        W45275  10.425  24.795   2.352  0.0744 -0.0570 -0.1205
    1W        W45276  15.946   3.444   7.999 -0.3191 -0.2400  0.0097
    1W        W45277   8.858  15.176   2.138  0.2600  0.3141  0.1913
    1W        W45278  11.523  19.185   9.378 -0.0545  0.2105  0.1527
    1W        W45279  13.089   2.388   3.663  0.0241  0.0631  0.2120
    1W        W45280  20.493  17.806   9.144 -0.0889  0.4156  0.0229
    1W        W45281  22.505   5.072   2.242 -0.1166  0.2636 -0.1190
    1W        W45282   2.026  19.448   5.378 -0.0026  0.1218 -0.0579
    1W        W45283  28.242  26.974   8.653  0.1661  0.0356 -0.3514
    1W        W45284  25.378  23.083   9.751  0.0647  0.0780 -0.3236
    1W        W45285   0.242  20.071   1.955 -0.1847 -0.0641  0.0911
    1W        W45286  24.109  15.729   8.183 -0.2748 -0.0739 -0.0220
    1W        W45287  20.551  26.123   0.689  0.0289  0.0820  0.1571
    1W        W45288  19.750   8.105   0.804  0.4160 -0.3052 -0.0938
    1W        W45289   4.154  21.858   6.773 -0.0891  0.0098  0.2105
    1W        W45290  11.158  14.389   8.580 -0.1312  0.0729  0.0361
    1W        W45291  26.892  21.026   8.436  0.1468  0.2635 -0.0252
    1W        W45292  10.167  24.081   2.228  0.2247 -0.1735 -0.0247
    1W        W45293  20.323   1.021   7.535 -0.1440  0.6177  0.4854
    1W        W45294  26.569  16.525   8.878  0.1703 -0.1787  0.0935
    1W        W45295  28.011  25.025   0.420  0.0935 -0.0710 -0.1192
    1W        W45296   2.058  13.185   6.846  0.1234 -0.1389  0.0651
    1W        W45297  23.149   9.552   3.116  0.1388 -0.1720 -0.1220
    1W        W45298  17.382   4.861   2.887 -0.0310 -0.1911 -0.1843
    1W        W45299  20.796  12.486   6.719 -0.2273 -0.0194  0.0579
    1W        W45300  16.117  28.415   2.155 -0.1435 -0.1092 -0.0392
    1W        W45301  21.802   5.448   2.358 -0.2623 -0.2319 -0.1489
    1W        W45302  10.554  16.146   1.669 -0.0280  0.3856 -0.0430
    1W        W45303  17.452   9.933   1.492 -0.3730  0.0994  0.1889
    1W        W45304  10.538  14.978   2.435 -0.1619 -0.0244  0.1434
    1W        W45305  14.300  19.997   2.415  0.1773  0.3131  0.1246
    1W        W45306  27.486   6.604   8.829 -0.2666  0.0447  0.0925
    1W        W45307  13.358  16.458   0.563  0.0603  0.1527  0.1097
    1W        W45308   3.150   9.361   2.350 -0.2003 -0.1799 -0.0623
    1W        W45309  13.425  16.033   2.383  0.1015 -0.1334  0.1310
    1W        W45310  11.194   6.302   3.325 -0.1510 -0.1028 -0.1107
    1W        W45311  27.937   5.649   8.463 -0.0255  0.2764 -0.1825
    1W        W45312  11.928  15.533   0.495  0.0545  0.0955  0.2045
    1W        W45313  20.858  25.185   9.300 -0.0140  0.1187  0.1810
    1W        W45314  11.453  22.468   1.176 -0.2120 -0.0784 -0.0809
    1W        W45315   8.179  12.992   9.828 -0.1313  0.0179  0.0658
    1W        W45316  20.848  19.929   8.837 -0.1159 -0.1949  0.0321
    1W        W45317  19.466  19.238   0.444  0.1706  0.2820  0.0445
    1W        W45318   7.605   1.814   9.819 -0.0454  0.1300  0.0479
    1W        W45319  23.125  12.002   6.786  0.1202 -0.2096 -0.2089
    1W        W45320   7.237  18.818   7.160  0.1017  0.2538  0.1377
    1W        W45321  15.961   4.167   3.423 -0.0888  0.2325 -0.0692
    1W        W45322   4.626  25.866   1.907  0.3333 -0.0752 -0.2190
    1W        W45323  20.636  24.427   2.840  0.1417  0.3435 -0.2021
    1W        W45324   5.581  17.443   7.694 -0.1998  0.0709  0.0362
    1W        W45325   1.290  27.563   1.209  0.1420  0.1468  0.1624
    1W        W45326  12.458  28.711   1.688  0.0997 -0.1702  0.0916
    1W        W45327  12.444  27.979   1.064  0.2879  0.0742  0.2270
    1W        W45328  24.808  17.901   7.615  0.0115  0.2210  0.2035
    1W        W45329  26.903   7.173   0.112  0.1418 -0.0639 -0.5108
    1W        W45330  15.951  21.633   9.815  0.1057  0.1109 -0.0435
    1W        W45331  10.848   3.473   9.309  0.1945 -0.2819  0.0051
    1W        W45332  23.945  26.738   0.982  0.1696  0.0651  0.1727
    1W        W45333  18.294  27.847   2.557 -0.0075 -0.1900  0.2907
    1W        W45334  14.633  15.058   2.798  0.3222 -0.0196  0.2921
    1W        W45335   2.631  25.707   2.550  0.0737 -0.0131 -0.3462
    1W        W45336  27.390  23.191   1.852 -0.1415  0.0732 -0.1359
    1W        W45337  25.700  14.759   6.040 -0.1638  0.0393 -0.2738
    1W        W45338   8.197  10.768   0.263 -0.0907  0.2820  0.0073
    1W        W45339  24.951  21.335   0.215  0.1200  0.0043 -0.0578
    1W        W45340  16.985  10.304   8.355  0.0707 -0.0800 -0.1997
    1W        W45341   1.338   0.365   2.930  0.1874 -0.0625  0.0648
    1W        W45342  12.263  24.963   6.573  0.3630 -0.1915  0.1768
    1W        W45343  24.911  24.674   2.449  0.1390 -0.1908 -0.0291
    1W        W45344  18.068   1.958   3.629  0.0965 -0.2817 -0.0651
    1W        W45345   1.952  12.639   7.036 -0.1654 -0.1615 -0.0110
    1W        W45346   0.870  14.158   7.022  0.2017 -0.0736 -0.1480
    1W        W45347  11.322  28.487   7.772 -0.1642  0.3094  0.0849
    1W        W45348  12.544  21.456   0.018  0.0316 -0.3315  0.0137
    1W        W45349  27.856  12.997   8.915 -0.1778  0.3102 -0.1565
    1W        W45350  26.739   7.605   8.462  0.0094 -0.2468  0.1621
    1W        W45351  25.489   3.914   0.763  0.2947 -0.0534 -0.0271
    1W        W45352  18.903  11.648   2.433 -0.0208 -0.1891 -0.1694
    1W        W45353   2.431   5.411   6.554 -0.0177  0.1657 -0.1118
    1W        W45354  23.737  25.005   0.487 -0.3830 -0.0961  0.3238
    1W        W45355   7.035  23.268   8.419 -0.3824 -0.0582 -0.1726
    1W        W45356   3.992   1.486   1.213 -0.0489 -0.0447  0.2339
    1W        W45357  21.180   8.040   2.817 -0.2379 -0.3101 -0.1715
    1W        W45358   7.428   7.976   8.422  0.0571  0.1646 -0.0040
    1W        W45359  25.629   1.263   1.070 -0.1325 -0.1170 -0.1846
    1W        W45360   6.033  20.296   0.505  0.0018  0.0449 -0.0062
    1W        W45361  19.044   8.815   2.089 -0.1908 -0.0618  0.5235
    1W        W45362   1.585  16.475   0.087 -0.2060  0.1392  0.0207
    1W        W45363   4.579  27.890   8.969  0.1091  0.1806  0.0538
    1W        W45364  19.683  13.116   7.354  0.0018  0.0454 -0.2327
    1W        W45365  20.549   4.669   2.217 -0.0652 -0.0982  0.0152
    1W        W45366  11.609  17.531   2.248 -0.0247 -0.0450  0.1185
    1W        W45367  21.453   0.147   3.243 -0.1202 -0.1358 -0.0137
    1W        W45368  14.295  20.657   1.127  0.1927  0.0830  0.0670
    1W        W45369   1.487  21.116   8.663  0.3453  0.0609 -0.1632
    1W        W45370  14.243   5.465   8.157 -0.1369  0.0743 -0.1163
    1W        W45371  27.617  13.604   1.674 -0.2361  0.0587 -0.0748
    1W        W45372  25.641   5.305   7.847  0.2120  0.0510 -0.2212
    1W        W45373   1.997  19.107   0.454 -0.0450  0.1273  0.1099
    1W        W45374  22.165  12.161   0.314  0.1193 -0.2944 -0.2590
    1W        W45375   5.415  12.870   9.307 -0.2534  0.1726 -0.0431
    1W        W45376  22.908   9.565   3.592  0.1825  0.1376  0.0997
    1W        W45377  11.532  23.248   7.146  0.0027  0.1362 -0.0928
    1W        W45378  15.328   8.255   2.721 -0.2487  0.1158  0.5230
    1W        W45379   9.300  14.831   2.149 -0.1006  0.3075 -0.0354
    1W        W45380   4.191  14.852   6.364 -0.1492  0.2468  0.0759
    1W        W45381  17.378  16.567   1.842  0.2906 -0.1487  0.0461
    1W        W45382  18.996  24.615   0.915 -0.0994 -0.0896 -0.1046
    1W        W45383  28.069  24.590   9.033  0.0459 -0.0461  0.2490
    1W        W45384   1.554  22.253   7.898 -0.2063  0.0113  0.3782
    1W        W45385  15.962  16.640   1.618 -0.0950  0.2144 -0.0132
    1W        W45386  21.585  15.985   0.313 -0.1343 -0.1440 -0.2937
    1W        W45387  11.951  10.279   7.603  0.1048 -0.0569  0.0698
    1W        W45388   3.582  25.702   7.922 -0.0517 -0.2262  0.1936
    1W        W45389  10.115  11.322   1.362  0.2051  0.1916 -0.0614
    1W        W45390  28.297  16.736   6.656 -0.2049 -0.0529  0.1572
    1W        W45391  10.847  26.128   7.856 -0.0289  0.0683 -0.2333
    1W        W45392  18.488  11.412   2.187  0.1345 -0.1396 -0.1069
    1W        W45393  11.572   7.809   7.714  0.0783 -0.0836 -0.0981
    1W        W45394   2.116  23.328   8.509  0.1558  0.1757  0.0466
    1W        W45395  26.793   8.081   0.202  0.1224 -0.1371 -0.1187
    1W        W45396  26.388   9.063   0.569 -0.1225 -0.0937  0.0471
    1W        W45397  23.384  13.076   9.556 -0.1370  0.0066 -0.2952
    1W        W45398   6.373   8.466   0.301  0.2932  0.0952 -0.0406
    1W        W45399  12.085   7.284   2.028 -0.3001  0.1903  0.0122
    1W        W45400  18.153  13.094   1.874 -0.3630 -0.2813 -0.1143
    1W        W45401   2.928  26.356   7.525 -0.2800 -0.1349 -0.2315
    1W        W45402  24.093  21.044   0.861 -0.0932  0.1511 -0.0065
    1W        W45403  11.630  15.339   0.134 -0.1492 -0.1333  0.2166
    1W        W45404  21.643  26.352   2.864 -0.0914 -0.1144  0.1633
    1W        W45405  24.980   9.597   0.962 -0.2584 -0.2708 -0.2910
    1W        W45406  22.849  18.501   1.766  0.2735  0.1590 -0.0492
    1W        W45407   7.356  18.060   9.754  0.0578  0.0340 -0.0015
    1W        W45408   2.521  26.425   1.773 -0.2173  0.0507 -0.0219
    1W        W45409  21.884  18.387   7.425  0.2063 -0.1768  0.0446
    1W        W45410   3.113  19.145   1.368 -0.1424  0.1234 -0.1485
    1W        W45411  26.391   7.470   7.630 -0.1441  0.0596 -0.0661
    1W        W45412  24.453  23.521   6.882 -0.1301 -0.4237 -0.1178
    1W        W45413   1.447  21.134   6.438  0.0618  0.2294  0.2226
    1W        W45414   9.912   8.825   9.640  0.0660 -0.1538  0.0455
    1W        W45415  28.473   4.893   1.330 -0.1688  0.1426  0.1952
    1W        W45416  11.108  26.249   1.755 -0.0928  0.0982  0.1874
    1W        W45417  18.735  23.390   2.443 -0.1126 -0.2278  0.2345
    1W        W45418  11.929   0.188   7.650  0.1300  0.1002  0.1552
    1W        W45419  15.400  21.511   9.022 -0.1295 -0.2287 -0.0157
    1W        W45420  28.697  23.125   0.718 -0.3547 -0.0361 -0.1518
    1W        W45421   0.539   5.896   0.767 -0.1501 -0.3572  0.0144
    1W        W45422   4.723   4.450   9.229 -0.0923 -0.1136  0.0667
    1W        W45423   5.957  27.117   7.839  0.1761 -0.0837 -0.0656
    1W        W45424  21.240  27.208   1.106 -0.3108 -0.1042 -0.2088
    1W        W45425  17.134   9.800   8.422  0.1189  0.1305 -0.3550
    1W        W45426   9.777   9.935   9.695  0.0469  0.0272  0.0964
    1W        W45427  17.102   0.322   1.368 -0.0626  0.2340  0.2435
    1W        W45428  11.359  10.248   8.045  0.1743  0.2606  0.2032
    1W        W45429  22.631   8.100   7.306  0.1347 -0.1119  0.1625
    1W        W45430  24.562   4.647   3.107 -0.2133  0.0279 -0.0961
    1W        W45431   4.805  28.112   2.391 -0.5885 -0.1516  0.0983
    1W        W45432  27.461  19.441   0.902 -0.3888 -0.0137 -0.1711
    1W        W45433  19.525  28.394   1.454  0.0615  0.1735  0.1943
    1W        W45434   4.559  22.356   9.819  0.0503 -0.0191  0.0521
    1W        W45435  21.557  25.811   7.349  0.0478 -0.2020 -0.1405
    1W        W45436   0.877  16.509   2.126  0.1357 -0.0201 -0.1320
    1W        W45437  23.886  23.822   2.426  0.0988  0.0060 -0.1465
    1W        W45438   6.146   1.382   2.915 -0.0754 -0.1730 -0.1046
    1W        W45439  22.566   8.831   0.956 -0.1794  0.0120 -0.0534
    1W        W45440   3.900   8.500   3.094 -0.3911  0.1449  0.1230
    1W        W45441  26.289  15.310   0.633 -0.5532 -0.1051 -0.3054
    1W        W45442   2.174   6.078   1.462 -0.2434 -0.1106  0.1731
    1W        W45443  27.104  28.061   1.332 -0.0487 -0.0668 -0.0608
    1W        W45444  12.323  24.491   7.677 -0.0015 -0.2903 -0.0499
    1W        W45445   1.411  27.154   9.160  0.1517 -0.0658 -0.1619
    1W        W45446  26.755  17.986   8.413 -0.1710 -0.0369  0.2622
    1W        W45447  17.076  17.954   2.414 -0.3826  0.1017 -0.2956
    1W        W45448   5.011  12.004   8.804 -0.2257 -0.2200  0.4124
    1W        W45449   0.788  26.731   2.081 -0.0634  0.2494  0.3473
    1W        W45450   3.511  16.123   9.656  0.0443 -0.0150  0.3119
    1W        W45451  11.729  23.553   8.042 -0.1054  0.2547  0.0558
    1W        W45452   6.646  27.656   6.726  0.0978 -0.0196 -0.2295
    1W        W45453  24.908  21.843   0.093 -0.2320 -0.1678 -0.1832
    1W        W45454   5.347   4.447   1.337 -0.1680  0.0172  0.0320
    1W        W45455   4.113  12.305   8.221 -0.1599  0.1287  0.1360
    1W        W45456  20.086  13.945   0.262 -0.1785 -0.0914 -0.1996
    1W        W45457  23.515   7.981   6.067 -0.4161 -0.0014  0.0655
    1W        W45458  21.400  14.891   2.311  0.0841  0.0764 -0.0157
    1W        W45459  26.353  22.846   2.273  0.2286  0.1517  0.0362
    1W        W45460   8.798  21.990   9.192 -0.1524 -0.0156 -0.1670
    1W        W45461  19.336   3.920   1.918 -0.1755 -0.0201  0.0383
    1W        W45462  25.001  14.919   7.984 -0.1463 -0.0882 -0.1487
    1W        W45463  17.896   1.167   9.420  0.1030  0.3555 -0.0061
    1W        W45464  20.706  19.305   1.041  0.2196 -0.2733  0.1515
    1W        W45465  17.908  23.908   1.988  0.0318  0.2356  0.0419
    1W        W45466   2.999   6.595   8.612 -0.0285 -0.2343  0.0697
    1W        W45467   5.335   8.889   1.358 -0.0895  0.2064  0.0342
    1W        W45468  19.949   0.197   9.583 -0.0447 -0.0056 -0.0508
    1W        W45469  24.789  14.419   7.058  0.1575 -0.0662  0.1028
    1W        W45470   0.598   8.115   2.922  0.2912  0.0564 -0.0944
    1W        W45471   6.652  25.361   9.048 -0.0220 -0.0007 -0.1780
    1W        W45472  19.215   3.271   7.544  0.0065  0.3721  0.0148
    1W        W45473  17.048  14.098   7.175  0.1545  0.2333 -0.0165
    1W        W45474  14.667   6.481   1.376  0.1907  0.0881 -0.2833
    1W        W45475  12.994   7.290   2.475  0.0851  0.0251 -0.0123
    1W        W45476   7.690   2.191   2.387  0.3097 -0.1019 -0.1279
    1W        W45477  17.343  25.546   1.853 -0.0020  0.2239  0.0446
    1W        W45478   3.486  28.678   1.711  0.3587 -0.2659 -0.0082
    1W        W45479   9.261  17.573   9.050 -0.0132 -0.2901  0.0437
    1W        W45480  26.187  15.547   8.932  0.0068 -0.0053 -0.1248
    1W        W45481  23.689  27.122   2.360  0.0912  0.1035  0.1125
    1W        W45482   5.774   6.119   3.254  0.0823 -0.1570  0.1101
    1W        W45483   8.655   6.921   0.492  0.1543 -0.1707  0.0237
    1W        W45484  13.925  22.239   7.538 -0.0729 -0.0627  0.0116
    1W        W45485  24.687  24.994   6.530  0.1357  0.1813  0.0213
    1W        W45486   6.013   8.877   6.229  0.4527  0.1087 -0.1697
    1W        W45487  25.149  15.929   7.186  0.3253  0.1227 -0.0872
    1W        W45488   4.684   6.235   9.527 -0.3657  0.2970 -0.1253
    1W        W45489   4.252  13.447   6.496  0.1180  0.1120 -0.0155
    1W        W45490   2.601  26.132   8.250 -0.0701 -0.0462 -0.0813
    1W        W45491   9.469   9.053   1.608  0.4596  0.1734  0.1728
    1W        W45492   6.518  22.758   1.154  0.3297 -0.0035 -0.1444
    1W        W45493   3.896  13.124   9.800 -0.0611 -0.1117  0.1103
    1W        W45494  19.127  25.458   2.497 -0.1757 -0.4686  0.0786
    1W        W45495  19.053   2.360   7.439  0.1276  0.2785  0.1745
    1W        W45496   6.732  23.873   9.120 -0.1632 -0.0846 -0.1790
    1W        W45497  14.271   5.073   2.755 -0.1615  0.0620 -0.0657
    1W        W45498  24.902  15.102   6.680  0.1945 -0.0828  0.1023
    1W        W45499  11.883   0.676   1.835  0.0747 -0.0639 -0.0547
    1W        W45500  15.690   1.524   0.997  0.2980  0.1082  0.0752
    1W        W45501   6.881  23.149   8.870 -0.0700 -0.0312 -0.1808
    1W        W45502  23.743   2.180   7.767 -0.2325 -0.0475  0.1950
    1W        W45503  17.235   6.832   2.298 -0.0190 -0.2421  0.2353
    1W        W45504   1.873  22.650   6.268  0.2650 -0.1543 -0.2074
    1W        W45505  10.349  24.500   7.967  0.0532  0.0471  0.0587
    1W        W45506  22.724  21.584   0.775 -0.1070 -0.1878 -0.1286
    1W        W45507  17.659  15.489   8.681  0.1032 -0.2679 -0.0440
    1W        W45508  24.343  13.507   3.078 -0.0081 -0.0802  0.0567
    1W        W45509  25.060  23.473   1.889  0.0177 -0.1878 -0.1106
    1W        W45510  19.600  17.715   3.167  0.1013  0.0071 -0.0495
    1W        W45511   1.666  11.734   0.420  0.0426  0.0297 -0.3508
    1W        W45512  16.667  10.362   2.261  0.2917  0.1804 -0.0213
    1W        W45513   0.552  23.188   8.685  0.3104  0.0565 -0.0226
    1W        W45514  21.417  12.709   8.491  0.3041  0.4340 -0.0750
    1W        W45515  17.925  27.185   7.820 -0.1186  0.0105 -0.1345
    1W        W45516   2.126   2.114   2.924  0.0584  0.3081 -0.7535
    1W        W45517  25.239   2.336   9.701 -0.1344  0.2265 -0.0445
    1W        W45518  13.507  16.981   9.900  0.2122 -0.2420 -0.0215
    1W        W45519  27.581  20.789   9.814 -0.0293 -0.4649 -0.1022
    1W        W45520   6.770   0.119   2.758  0.0077  0.2487 -0.1831
    1W        W45521  17.302  11.598   1.829 -0.1273 -0.1069 -0.0249
    1W        W45522  24.203   6.349   8.288  0.0832 -0.0790  0.1303
    1W        W45523  24.621  15.929   8.286 -0.1933 -0.1636  0.1843
    1W        W45524  26.173  13.287   0.264 -0.1235 -0.1743 -0.0996
    1W        W45525  24.973  16.730   7.746  0.2171  0.0674  0.0767
    1W        W45526   5.744  26.690   0.278 -0.1934 -0.3196  0.3502
    1W        W45527  17.530  11.615   9.879 -0.2494  0.1774 -0.0710
    1W        W45528   5.321  27.609   9.214 -0.2578 -0.4189  0.2449
    1W        W45529  16.318   6.916   9.444 -0.2241  0.1940  0.0774
    1W        W45530  19.700  25.518   8.737 -0.0879  0.1154 -0.0247
    1W        W45531  17.376   2.137   3.064 -0.0567  0.2153  0.1478
    1W        W45532  14.852   8.116   8.964 -0.1323 -0.0837  0.0394
    1W        W45533   6.657  10.838   9.899  0.0021 -0.1217  0.2507
    1W        W45534  26.461  26.084   0.023  0.3919  0.0767 -0.0625
    1W        W45535   5.552  14.863   6.359 -0.0744 -0.0581  0.1147
    1W        W45536  14.405   0.908   2.350  0.1736 -0.4457  0.1778
    1W        W45537  10.586  27.995   0.413  0.1260  0.1354  0.0263
    1W        W45538  11.880   6.433   9.017 -0.0210 -0.0287  0.0574
    1W        W45539  15.379  19.770   9.736  0.4971 -0.0122 -0.1653
    1W        W45540   3.478   6.866   0.060 -0.2704  0.0387  0.5449
    1W        W45541  16.469  25.010   8.482 -0.2323 -0.3314 -0.1138
    1W        W45542   0.956  20.789   6.386 -0.1273 -0.0069  0.0282
    1W        W45543  28.033  14.386   2.758 -0.2163  0.1717 -0.2830
    1W        W45544  12.013  14.839   1.585  0.2715 -0.1621  0.0891
    1W        W45545  16.769   3.290   9.022 -0.1256 -0.0399 -0.0513
    1W        W45546   9.851   1.865   8.854 -0.0619  0.1475  0.2326
    1W        W45547   9.751  26.614   9.194 -0.2249 -0.0594  0.0546
    1W        W45548   2.063  24.126   0.870 -0.0458 -0.2455  0.3333
    1W        W45549  24.650  14.355   8.116 -0.0211  0.0770 -0.0753
    1W        W45550  25.757   7.465   8.491  0.0950 -0.1403  0.0515
    1W        W45551   6.517  10.678   6.919  0.3346 -0.3085 -0.1307
    1W        W45552  26.483   5.151   6.422 -0.1322  0.1631 -0.0690
    1W        W45553  28.158  15.254   0.979  0.1760  0.3379 -0.0872
    1W        W45554  26.882   3.305   9.403 -0.1650  0.0574 -0.1035
    1W        W45555  12.291   3.760   8.995 -0.1098  0.2459 -0.1479
    1W        W45556  21.490   2.474   8.930 -0.4330  0.1308  0.2825
    1W        W45557  25.101  14.216   1.782 -0.1377 -0.0226 -0.3089
    1W        W45558  11.148  15.327   9.760 -0.0688 -0.0040 -0.1718
    1W        W45559  23.155  11.109   2.441 -0.0299 -0.0811 -0.2385
    1W        W45560   0.899   4.339   6.965 -0.1145  0.1281 -0.1107
    1W        W45561   8.226  12.917   0.359 -0.0052  0.0505  0.0894
    1W        W45562   4.300  24.734   8.245  0.0045 -0.1992 -0.1874
    1W        W45563  27.822  22.129   1.877 -0.2091 -0.1042  0.0142
    1W        W45564  14.003  20.080   8.961 -0.1475  0.1006  0.0199
    1W        W45565   9.812  20.021   7.132  0.0112 -0.1445 -0.2700
    1W        W45566   8.231  19.219   8.482  0.2727 -0.0247 -0.3341
    1W        W45567   0.587  27.692   9.152 -0.2359 -0.0459  0.2954
    1W        W45568  21.046  12.484   9.722  0.0778  0.2347 -0.0843
    1W        W45569   3.159  18.324   8.038  0.0016 -0.0703 -0.3128
    1W        W45570   6.635   6.445   9.216 -0.2204 -0.0781  0.1224
    1W        W45571  10.285   3.347   2.487 -0.0976 -0.1222 -0.0587
    1W        W45572  13.143  23.535   0.910  0.0178  0.1050  0.1021
    1W        W45573  18.684  16.359   0.238 -0.1800  0.2113  0.0361
    1W        W45574   9.799   5.950   6.779 -0.0847 -0.2558  0.0405
    1W        W45575   9.608  17.360   9.566 -0.1930 -0.0861  0.0897
    1W        W45576  13.260  25.392   2.735 -0.1311  0.2012  0.0618
    1W        W45577  18.461  10.018   7.738  0.0278  0.0112  0.1692
    1W        W45578  17.827   2.796   8.717 -0.0711  0.1145  0.0886
    1W        W45579   7.897  10.700   8.468  0.1099 -0.2704 -0.0716
    1W        W45580  26.459  12.628   0.770  0.3091  0.1732 -0.1596
    1W        W45581   9.588   8.761   2.860 -0.2598  0.2206  0.1589
    1W        W45582  27.433  24.673   8.255  0.1207 -0.1196 -0.2608
    1W        W45583  22.701   0.104   3.395 -0.0395 -0.0673  0.0786
    1W        W45584  18.899   1.137   1.422 -0.3590 -0.1064  0.0059
    1W        W45585  23.688  25.600   1.216 -0.2729 -0.0877 -0.0270
    1W        W45586  17.935  22.510   9.109  0.1502  0.2380 -0.1701
    1W        W45587   2.046  14.316   9.086 -0.4470  0.1097  0.0112
    1W        W45588  23.673   8.282   8.763  0.0230 -0.2666  0.0797
    1W        W45589  27.110  26.561   0.403 -0.0840  0.0349  0.0149
    1W        W45590  10.024   6.037   2.322 -0.0581 -0.1926  0.1343
    1W        W45591   4.994   3.546   3.281 -0.2466 -0.1466  0.0742
    1W        W45592   0.453  19.024   9.451 -0.0784 -0.1187 -0.2210
    1W        W45593   9.713   8.523   9.104 -0.0217 -0.1670 -0.2285
    1W        W45594   7.417  20.406   1.614  0.0599  0.0175 -0.1422
    1W        W45595  20.169  26.991   3.053 -0.1049  0.1566  0.0077
    1W        W45596  14.994  28.116   2.598  0.0447  0.0505  0.0703
    1W        W45597  11.450  25.223   1.754  0.2954 -0.2459  0.1052
    1W        W45598   0.435  28.484   1.963 -0.1347 -0.1017  0.1296
    1W        W45599  11.524   1.469   7.380  0.1204 -0.1125  0.3164
    1W        W45600  12.509   5.769   2.281 -0.0663  0.1613  0.1758
    1W        W45601  17.290   3.871   3.210 -0.0695  0.0974 -0.1127
    1W        W45602  26.854  24.760   9.309 -0.0227 -0.3293 -0.0452
    1W        W45603  19.038   2.210   9.383  0.0083 -0.4571  0.3342
    1W        W45604   7.192   0.198   7.033  0.1276  0.0184 -0.1382
    1W        W45605   4.987   2.973   8.096 -0.2315 -0.1622 -0.2534
    1W        W45606  24.870  22.425   8.213 -0.1538 -0.1045 -0.1187
    1W        W45607  11.117   4.152   7.923  0.0102  0.0518 -0.0839
    1W        W45608  18.301  24.787   2.463  0.0599  0.0801  0.1187
    1W        W45609  24.963  23.215   7.946 -0.0764 -0.1625 -0.3008
    1W        W45610  10.562  22.108   8.594  0.0754 -0.0843 -0.1223
    1W        W45611  18.187  20.354   9.343 -0.2782  0.0868  0.2330
    1W        W45612  24.915  11.919   0.931  0.0075 -0.2416 -0.1372
    1W        W45613   8.179   3.597   8.116 -0.1884  0.1036  0.0400
    1W        W45614   0.711   0.202   9.099 -0.0141 -0.0680 -0.0391
    1W        W45615  17.846   2.199   0.413  0.0584 -0.1691 -0.1103
    1W        W45616  19.253  16.790   2.219 -0.3007 -0.1466  0.0627
    1W        W45617  12.419  26.766   1.764 -0.1046 -0.3584  0.0454
    1W        W45618  28.674  24.519   6.868 -0.1194 -0.1682 -0.1120
    1W        W45619   4.996   6.686   1.645  0.1060  0.0415  0.1573
    1W        W45620   6.332  20.197   0.106 -0.0727  0.1112  0.2188
    1W        W45621  10.241  26.810   1.212  0.2477 -0.0023 -0.0759
    1W        W45622   4.680  21.026   6.074  0.1454 -0.0397 -0.0905
    1W        W45623   6.170   5.933   0.708  0.0210 -0.0506 -0.0034
    1W        W45624  11.622  12.408   0.957  0.2150  0.2015  0.1281
    1W        W45625   1.309   4.515   2.344 -0.1165 -0.2406 -0.2709
    1W        W45626  18.822   3.633   7.731 -0.0094 -0.2178  0.1102
    1W        W45627   3.259   2.591   9.662 -0.0223  0.0307 -0.0761
    1W        W45628  14.131   2.956   9.796  0.2661  0.0552  0.0380
    1W        W45629   9.330  13.914   1.623  0.1282 -0.2311  0.1147
    1W        W45630   1.563   4.185   7.844 -0.0109  0.0809  0.2323
    1W        W45631  16.925  25.641   0.289  0.1282  0.1020  0.1322
    1W        W45632   3.543  14.993   0.578  0.0183 -0.3491 -0.0264
    1W        W45633   7.728   0.157   9.173  0.0884  0.0188  0.2338
    1W        W45634  27.790  12.128   0.773  0.1576 -0.1830 -0.0638
    1W        W45635   6.177  27.020   2.938 -0.2129  0.2036  0.0343
    1W        W45636  20.877  28.162   3.708 -0.4370 -0.0904  0.0497
    1W        W45637  19.764  12.887   1.152 -0.0641  0.2058  0.4194
    1W        W45638  12.422   1.070   9.957  0.3298  0.3204 -0.0320
    1W        W45639  15.286  26.793   0.795 -0.2934 -0.2568 -0.1438
    1W        W45640  26.752  22.123   2.245 -0.1641  0.1353 -0.1646
    1W        W45641   1.794  22.973   8.575 -0.2001  0.1412  0.1395
    1W        W45642  16.977   1.158   8.110 -0.1118 -0.2424 -0.1072
    1W        W45643   6.262  17.356   1.771 -0.1756 -0.0489  0.1121
    1W        W45644   3.791  20.831   8.167 -0.0985  0.1803 -0.0251
    1W        W45645   6.731  19.141   9.329  0.0761 -0.0063  0.0147
    1W        W45646  18.740  14.443   8.754  0.2248  0.3548 -0.2483
    1W        W45647   8.610  20.964   7.893 -0.1191 -0.2220  0.0374
    1W        W45648   3.554  12.938   6.950 -0.1818 -0.0290  0.1546
    1W        W45649   5.307  10.912   1.987 -0.1649 -0.1877  0.3422
    1W        W45650  28.544   0.208   2.455 -0.0203 -0.1217 -0.2406
    1W        W45651  15.729  20.259   0.652  0.3718 -0.1394 -0.1518
    1W        W45652  22.207  24.318   9.264 -0.1179 -0.2779 -0.0229
    1W        W45653   3.149  21.263   2.070  0.2948  0.0660 -0.0686
    1W        W45654  24.401  19.728   3.095  0.2341 -0.0405 -0.0620
    1W        W45655   2.853  20.112   6.434 -0.0204  0.1552  0.1041
    1W        W45656   4.612  18.729   9.025  0.1118 -0.0914  0.0470
    1W        W45657   7.903   1.295   2.122  0.1633  0.0491  0.1032
    1W        W45658  25.490   3.280   9.292  0.3480 -0.2662 -0.1382
    1W        W45659   8.266  12.774   8.687  0.0492 -0.1263 -0.0658
    1W        W45660  19.591  10.169   0.676 -0.1098  0.2744 -0.0241
    1W        W45661  23.444  23.686   7.853 -0.1372 -0.1512 -0.0618
    1W        W45662  28.514  14.171   9.137  0.0569 -0.0203 -0.0256
    1W        W45663  25.349   6.836   2.268 -0.3626 -0.0349  0.0237
    1W        W45664  23.493   4.661   7.987  0.0700  0.3604 -0.2902
    1W        W45665  25.806  27.077   1.228 -0.4321 -0.2379 -0.1211
    1W        W45666  17.350  13.789   8.507  0.0737  0.0468  0.1447
    1W        W45667  22.403  28.409   0.759  0.1997 -0.1341 -0.3453
    1W        W45668  27.718   6.922   6.681  0.3274 -0.1416 -0.2163
    1W        W45669  23.906  26.105   7.016 -0.2133  0.0586 -0.1909
    1W        W45670   5.626   2.915   1.123 -0.0575  0.0801  0.0540
    1W        W45671   8.483  15.213   2.416  0.0244 -0.2052  0.0640
    1W        W45672  12.175  15.796   1.895  0.1776  0.2017 -0.0997
    1W        W45673  17.270  28.141   9.644  0.0186 -0.0255 -0.2312
    1W        W45674  27.559   1.165   8.032  0.0685 -0.2165 -0.0157
    1W        W45675   5.617   9.062   8.516 -0.2223 -0.0900 -0.0497
    1W        W45676   8.274   5.077   2.075  0.2140 -0.1934  0.2307
    1W        W45677   5.663   8.026   0.036  0.0538 -0.3895 -0.3327
    1W        W45678  20.809   6.130   7.384 -0.0333  0.2133  0.0453
    1W        W45679  11.966  20.778   2.872  0.1942  0.0154  0.2487
    1W        W45680  18.252  22.577   7.776 -0.0568  0.2889 -0.1470
    1W        W45681  18.461  16.002   8.995  0.2972 -0.0889  0.4311
    1W        W45682  13.373  25.593   1.564 -0.2433 -0.1035  0.0765
    1W        W45683   4.818  19.736   8.704  0.0895 -0.1971 -0.0037
    1W        W45684  15.884   3.844   3.848  0.0875  0.1148 -0.2235
    1W        W45685  24.874  26.929   9.341 -0.1427 -0.2441 -0.0289
    1W        W45686   6.261  22.290   1.299  0.0097  0.0287 -0.0199
    1W        W45687  12.367   8.078   1.329  0.0958 -0.3565  0.0006
    1W        W45688  14.286  18.134   9.141  0.0953 -0.0071  0.1822
    1W        W45689  16.038  25.061   1.520 -0.0688 -0.0191  0.0047
    1W        W45690   1.720   0.466   7.849 -0.2931 -0.0124  0.3669
    1W        W45691  27.000   4.405   0.751 -0.0307  0.1347 -0.3322
    1W        W45692  11.163  12.501   1.215 -0.1627  0.0660 -0.4010
    1W        W45693  20.023   3.939   0.925 -0.0384  0.1700 -0.3295
    1W        W45694  13.078   6.691   8.215 -0.4074  0.2852  0.3310
    1W        W45695  12.988  22.815   2.567 -0.0513 -0.1310 -0.0233
    1W        W45696  21.770   6.179   0.298 -0.1516  0.0613  0.0035
    1W        W45697   1.124   4.799   0.182 -0.1737 -0.0913 -0.1964
    1W        W45698  14.414  21.978   9.837  0.1670 -0.1263  0.1848
    1W        W45699  25.600  26.329   8.066  0.0510  0.0716 -0.1657
    1W        W45700  14.818   2.654   7.643 -0.1241 -0.1179 -0.2375
    1W        W45701  17.339  19.818   8.470 -0.0761  0.0829  0.1195
    1W        W45702   6.764   1.361   3.057  0.1391 -0.0241 -0.1898
    1W        W45703  24.113  25.799   2.926 -0.0149  0.5035  0.0782
    1W        W45704  15.758  26.912   2.850 -0.2723  0.3667  0.1652
    1W        W45705   1.243  10.044   3.022  0.1201  0.3245  0.1069
    1W        W45706  21.152   3.756   1.558 -0.2477 -0.2807 -0.1700
    1W        W45707  11.508  16.181   0.920 -0.1786  0.1748 -0.5245
    1W        W45708   0.577  11.631   1.531 -0.2088 -0.3747 -0.4398
    1W        W45709   6.124  17.310   6.632 -0.0376  0.0186  0.0641
    1W        W45710  20.758  19.005   1.991  0.3318 -0.1041 -0.0065
    1W        W45711   1.220  16.896   8.704 -0.1708  0.1178 -0.0701
    1W        W45712   9.731   1.289   1.057 -0.1110 -0.1658 -0.0743
    1W        W45713  16.447   2.535   1.846  0.1183  0.0745 -0.3128
    1W        W45714  23.722  22.979   1.525  0.1308  0.1027  0.0669
    1W        W45715  15.882  18.337   8.644  0.4864 -0.0472  0.2664
    1W        W45716   2.174  25.150   9.477 -0.1620 -0.0037 -0.0403
    1W        W45717   9.280  24.989   1.742 -0.1709 -0.3171  0.0969
    1W        W45718  27.027  21.367   1.824 -0.0610  0.1236 -0.1533
    1W        W45719   5.685   2.538   2.254  0.2365  0.0720 -0.1091
    1W        W45720  17.689   0.846   0.716  0.1993  0.0237  0.0985
    1W        W45721   7.667  27.516   9.570  0.1279 -0.2414 -0.2217
    1W        W45722  21.838   8.326   9.341  0.2057 -0.1858  0.2444
    1W        W45723  19.306  26.105   7.909  0.0536  0.1384 -0.0353
    1W        W45724  13.600  11.514   7.664  0.2187 -0.1594 -0.1393
    1W        W45725  27.209   2.436   0.252  0.0355 -0.1205  0.0901
    1W        W45726  13.866   1.736   0.011  0.0358 -0.3672  0.2352
    1W        W45727  21.817  27.661   0.788  0.2390  0.0544 -0.0192
    1W        W45728   1.679  16.258   9.306  0.3117 -0.0104 -0.0002
    1W        W45729   2.451  25.435   0.444  0.2393  0.3000  0.0920
    1W        W45730  13.143  13.238   8.515  0.1419 -0.0495  0.1549
    1W        W45731  16.454   6.531   0.467 -0.3184  0.1372 -0.0144
    1W        W45732  22.922   5.432   8.326 -0.1799 -0.0223  0.0407
    1W        W45733  20.761   2.882   1.388 -0.1158  0.3511  0.0404
    1W        W45734   9.383  13.154   9.345 -0.1263 -0.0277 -0.0596
    1W        W45735  24.804   9.186   8.936 -0.2564  0.1700 -0.2999
    1W        W45736  12.763  14.224   7.688  0.0170  0.2940 -0.0365
    1W        W45737  16.984  14.645   8.877 -0.4543  0.1677 -0.1032
    1W        W45738  22.063   4.855   2.012  0.0921 -0.1103 -0.1069
    1W        W45739  19.229  18.022   9.827 -0.1275 -0.0513 -0.1181
    1W        W45740  11.760   9.640   9.725  0.0287 -0.2165 -0.1485
    1W        W45741  28.205   1.928   7.272 -0.1381  0.0832 -0.1038
    1W        W45742  16.787   0.373   0.938  0.3891 -0.1384  0.1386
    1W        W45743  14.541  24.072   9.420 -0.1770  0.0619  0.2324
    1W        W45744  18.545  13.343   8.030 -0.3191  0.1794  0.1154
    1W        W45745  25.492  18.973   0.625  0.1945  0.3212  0.2426
    1W        W45746  15.424  14.270   7.841 -0.0754 -0.0612 -0.1619
    1W        W45747  15.744  20.648   9.404 -0.1772 -0.2433 -0.0878
    1W        W45748  12.591   2.669   8.522 -0.3524  0.2040 -0.3542
    1W        W45749   7.117   1.000   2.553 -0.1905 -0.0739  0.2060
    1W        W45750   7.857   7.980   7.066  0.2496 -0.2490  0.3035
    1W        W45751  11.113  12.661   9.761  0.2005  0.0746  0.1091
    1W        W45752  25.469   5.478   9.774  0.0832 -0.0702  0.1623
    1W        W45753   3.246   8.712   8.426  0.2265 -0.1186  0.2690
    1W        W45754   7.653  22.699   8.143 -0.1824  0.2381 -0.1792
    1W        W45755  10.325   7.665   0.031  0.1000  0.0939 -0.0317
    1W        W45756  22.059  15.245   9.571  0.0073  0.0930 -0.2695
    1W        W45757  12.216  10.299   1.270 -0.2151 -0.2577 -0.1450
    1W        W45758  13.256  16.440   2.655 -0.4091  0.1466 -0.1555
    1W        W45759   2.892  10.263   1.044 -0.0380  0.1141 -0.3783
    1W        W45760  23.657  13.350   8.829  0.0419  0.1513  0.1173
    1W        W45761   3.788  10.846   9.870 -0.4067  0.0391  0.0205
    1W        W45762  17.009  14.097   8.254 -0.2081  0.0453  0.0195
    1W        W45763   6.919  23.627   8.779 -0.0168 -0.0027 -0.1069
    1W        W45764  28.105  12.536   8.396  0.0536  0.0758  0.0603
    1W        W45765  17.399  11.707   8.747  0.1884  0.2126 -0.3280
    1W        W45766  17.940   6.869   7.721 -0.0687 -0.2288  0.0200
    1W        W45767   6.117  13.619   1.052  0.0471 -0.1136  0.0812
    1W        W45768  28.131  24.155   1.209 -0.0779  0.2460 -0.4108
    1W        W45769   4.835  13.764   7.720 -0.0158 -0.2868  0.1652
    1W        W45770  12.410  11.094   7.686  0.1467  0.1244  0.1440
    1W        W45771  14.153  16.461   1.041  0.0027 -0.0870  0.2487
    1W        W45772  14.720   9.421   3.555  0.2072  0.0866 -0.2661
    1W        W45773   6.858  16.123   8.691  0.0472  0.1995 -0.1048
    1W        W45774  25.436   5.548   7.413  0.0075  0.4438  0.0929
    1W        W45775  20.590  21.079   6.318  0.1792  0.1609 -0.0243
    1W        W45776  24.073   9.506   2.228 -0.0906 -0.0684 -0.0194
    1W        W45777  14.332   4.293   7.915 -0.0598 -0.0852  0.1105
    1W        W45778   1.551  17.125   0.017  0.0451 -0.0893 -0.0172
    1W        W45779  19.754   8.167   9.272  0.0191  0.3654  0.2538
    1W        W45780  12.657  21.949   7.077 -0.0287  0.0938 -0.1660
    1W        W45781  16.664   5.020   0.678  0.1172 -0.3404  0.0578
    1W        W45782  14.902  20.885   2.173 -0.1409 -0.1361 -0.0295
    1W        W45783   0.280  10.376   0.452  0.1977 -0.4061  0.1985
    1W        W45784  11.873  24.123   9.826 -0.0870 -0.2162  0.1636
    1W        W45785  15.416   1.603   0.085  0.3246 -0.2946 -0.2011
    1W        W45786  19.616   1.170   8.543 -0.2173 -0.0592  0.3596
    1W        W45787   7.542  22.580   7.148 -0.0896  0.0701  0.4919
    1W        W45788   4.399  13.100   7.212 -0.2230  0.0329 -0.0282
    1W        W45789  22.377   9.937   2.468 -0.0103 -0.0165 -0.0085
    1W        W45790  13.560   9.084   2.538 -0.1812 -0.0728  0.1414
    1W        W45791  20.102   0.449   8.145 -0.2457  0.0104  0.1495
    1W        W45792  15.525  23.597   2.020  0.0403  0.0553 -0.3667
    1W        W45793  24.821  21.648   7.599 -0.0265  0.0569 -0.2525
    1W        W45794  26.507   6.068   1.209 -0.1014  0.2196 -0.0343
    1W        W45795  17.696  10.311   0.461 -0.1436  0.2408  0.0603
    1W        W45796   5.396  24.896   2.703 -0.2269 -0.1146  0.1873
    1W        W45797  20.159  15.017   7.926  0.0717  0.2221 -0.0287
    1W        W45798   7.126  25.279   9.143 -0.3375 -0.1894 -0.5237
    1W        W45799   8.614  13.019   1.309  0.2036 -0.4920  0.2589
    1W        W45800  26.761  26.477   3.052  0.0810  0.0477  0.0426
    1W        W45801  18.479  24.598   0.854  0.0137 -0.0073  0.0963
    1W        W45802  26.660  12.193   2.138 -0.0732  0.0410 -0.1045
    1W        W45803  21.144   8.151   3.417  0.3524 -0.0140  0.1861
    1W        W45804  20.007   6.149   6.723 -0.0649 -0.0301 -0.1790
    1W        W45805  16.727  22.487   8.158  0.0956  0.1203  0.1896
    1W        W45806  22.448  21.254   3.889 -0.3782  0.0733 -0.0631
    1W        W45807  14.032   9.458   9.013 -0.0975 -0.0311 -0.0288
    1W        W45808  16.731  25.028   2.389  0.2791  0.1890  0.0007
    1W        W45809  28.206  24.160   0.277  0.1023 -0.0752 -0.1280
    1W        W45810   4.340  14.068   1.548 -0.4612 -0.0968  0.0083
    1W        W45811  18.496  19.474   9.304  0.2312  0.0890 -0.0071
    1W        W45812  20.457  22.500   2.414 -0.2068 -0.0265 -0.2801
    1W        W45813   1.514  15.781   9.570 -0.0571 -0.2265  0.1929
    1W        W45814   0.550   2.139   8.170  0.0778 -0.0049 -0.2871
    1W        W45815   3.274  14.646   9.892  0.1654 -0.1210  0.0697
    1W        W45816  14.322  21.689   7.776 -0.1485 -0.0441 -0.3858
    1W        W45817  13.904  20.482   2.588 -0.0110  0.1283  0.0249
    1W        W45818  13.878  28.680   6.648  0.1814  0.0864  0.3425
    1W        W45819  12.376   0.928   0.513  0.1254 -0.0294 -0.0267
    1W        W45820  12.317  28.249   2.256 -0.0562  0.2247 -0.0225
    1W        W45821  17.928  25.903   2.068  0.0844 -0.0724  0.2306
    1W        W45822   7.420   5.032   2.600  0.0163 -0.1184  0.2264
    1W        W45823  11.827  23.261   0.370 -0.2994 -0.1161  0.0762
    1W        W45824   3.469   1.601   6.727  0.1215 -0.0361  0.1201
    1W        W45825  25.967  24.611   2.566 -0.0188  0.1347 -0.0462
    1W        W45826  14.102  19.791   9.962 -0.0997  0.2140 -0.0786
    1W        W45827   4.290   7.604   2.149  0.0420 -0.1099 -0.0170
    1W        W45828   8.593  18.826   6.658  0.1907 -0.1347 -0.0156
    1W        W45829   5.016  25.418   9.745 -0.0883 -0.2308  0.0299
    1W        W45830   0.616   5.008   0.309  0.0920 -0.3258  0.0581
    1W        W45831  11.979   4.499   3.148 -0.0946 -0.2730  0.2786
    1W        W45832  14.045  23.497   0.256  0.1017 -0.0849  0.1386
    1W        W45833  25.141  14.391   6.722  0.1161 -0.0730 -0.3607
    1W        W45834  10.783   5.269   7.991  0.0025 -0.0950  0.0565
    1W        W45835  16.425  13.501   8.789 -0.1831 -0.1169  0.1297
    1W        W45836   8.759  19.533   0.852 -0.0236  0.2291 -0.2020
    1W        W45837  26.466   2.057   2.398 -0.2591 -0.0514  0.1777
    1W        W45838  27.081  22.664   1.511  0.1193 -0.2164 -0.0351
    1W        W45839  15.649   6.819   9.090 -0.0255  0.1735  0.0435
    1W        W45840   7.798  24.418   9.859 -0.3321  0.0708 -0.4298
    1W        W45841   1.662  25.162   1.750 -0.1118  0.0734 -0.1444
    1W        W45842  27.148  19.359   2.690  0.2158  0.2922  0.1938
    1W        W45843  13.842  25.650   0.992  0.2880  0.0017 -0.1777
    1W        W45844  14.108  12.644   0.257 -0.0972  0.1585  0.2577
    1W        W45845   7.655  23.997   7.292  0.0058  0.0994  0.2542
    1W        W45846  25.757  10.433   7.387  0.0601  0.3099  0.0826
    1W        W45847   0.370   2.469   8.514 -0.2802  0.1415  0.1751
    1W        W45848   5.045   5.104   8.736 -0.1296  0.1195  0.0042
    1W        W45849   2.258  13.571   7.795 -0.0026  0.1439  0.3696
    1W        W45850   3.956  27.143   7.134 -0.0666  0.1522  0.1991
    1W        W45851  20.625  14.969   0.245 -0.0823 -0.4229  0.0497
    1W        W45852  11.456  12.617   9.236  0.0788 -0.0024 -0.1562
    1W        W45853  19.410  21.602   2.989 -0.1527  0.2243 -0.2000
    1W        W45854  17.823  27.762   7.766  0.1791  0.0607  0.2995
    1W        W45855   8.814   4.730   8.167 -0.2757 -0.0550 -0.0056
    1W        W45856  27.885   9.962   9.165 -0.0556 -0.2987 -0.1467
    1W        W45857  19.584   3.410   8.956  0.2471 -0.0290 -0.1466
    1W        W45858  10.662   1.460   0.005 -0.0619 -0.0420 -0.2355
    1W        W45859  11.189  23.023   3.131  0.1108  0.2001 -0.0782
    1W        W45860   3.394   3.924   1.535 -0.2764 -0.0473 -0.0951
    1W        W45861   3.409   0.374   1.070  0.2032  0.0482 -0.4321
    1W        W45862  10.298  21.337   1.451  0.0402 -0.0138 -0.1294
    1W        W45863   8.942  27.872   8.135 -0.0614  0.0750  0.0162
    1W        W45864   2.405  14.781   9.554  0.1270 -0.0377 -0.1668
    1W        W45865  12.941   5.563   3.012 -0.1316  0.1523  0.0350
    1W        W45866  21.530  16.877   9.037 -0.2218 -0.0992  0.2512
    1W        W45867  14.537  25.054   1.171 -0.3243 -0.1977 -0.1311
    1W        W45868  24.690   4.261   8.286  0.0712  0.1126 -0.1235
    1W        W45869  21.191  28.441   3.324 -0.0192 -0.0730  0.0299
    1W        W45870  27.009   5.761   7.807  0.2646  0.0439  0.2290
    1W        W45871  24.093   4.865   9.049 -0.0616 -0.1432  0.0592
    1W        W45872  10.884  27.435   2.770  0.1305 -0.1084 -0.1292
    1W        W45873  16.166   6.205   7.643 -0.0385  0.3003 -0.2297
    1W        W45874  25.633  22.246   0.554 -0.0734 -0.0449  0.3902
    1W        W45875   8.123  10.349   8.105 -0.1804 -0.0523 -0.3658
    1W        W45876  14.969  25.924   0.812  0.3152  0.3154  0.1352
    1W        W45877  11.052  23.906   9.254 -0.3801 -0.0837 -0.0959
    1W        W45878  10.952  26.572   7.712  0.2666 -0.3084 -0.0162
    1W        W45879  16.197  28.694   2.532 -0.2403  0.3162 -0.1002
    1W        W45880  19.287  27.252   0.077  0.0792  0.0540  0.2295
    1W        W45881  28.349  23.449   2.164 -0.2059 -0.2586 -0.0388
    1W        W45882  17.543   9.101   9.750  0.1646 -0.4530 -0.1460
    1W        W45883   4.283   6.984   8.577 -0.0104 -0.5071  0.2405
    1W        W45884  26.064  23.297   2.280 -0.2101 -0.2406  0.4823
    1W        W45885   6.656  19.316   0.247  0.0309 -0.0905 -0.0428
    1W        W45886  10.605  24.057   9.510  0.1077 -0.1676 -0.0627
    1W        W45887   2.019   8.710   2.530  0.0774  0.1942 -0.2175
    1W        W45888  25.544  24.288   8.316 -0.1439 -0.1988  0.1078
    1W        W45889  19.093  15.704   1.604 -0.1413  0.1735 -0.0324
    1W        W45890  16.327   6.247   1.447  0.0411  0.0688  0.1169
    1W        W45891  26.177  25.667   6.919 -0.1544  0.1032 -0.1808
    1W        W45892  15.789  20.278   7.479 -0.0836  0.0434  0.1826
    1W        W45893  22.446   9.753   1.396  0.1459  0.0867 -0.2487
    1W        W45894  12.558   0.940   1.810 -0.4724 -0.2923  0.0629
    1W        W45895   3.866  11.369   7.665  0.0493  0.0442 -0.1035
    1W        W45896  19.531  20.600   9.248 -0.0685  0.1400  0.1449
    1W        W45897  11.804   4.051   8.873 -0.1060  0.0893  0.0991
    1W        W45898  11.644  20.228   8.259 -0.0474  0.1860 -0.0285
    1W        W45899  14.707  25.337   2.605  0.1495 -0.1219  0.2412
    1W        W45900  19.601  10.858   8.969 -0.0904 -0.0620 -0.1219
    1W        W45901  19.763   9.711   0.851  0.0130 -0.1639 -0.0280
    1W        W45902   9.266  16.129   2.751  0.1714 -0.1761 -0.2510
    1W        W45903  11.842  27.869   2.905 -0.2975 -0.4021  0.1921
    1W        W45904  23.466  12.371   6.930  0.0290 -0.0452  0.0105
    1W        W45905   0.378  28.574   9.263 -0.1490  0.1124  0.1273
    1W        W45906  20.641  22.739   8.993  0.1030  0.0670  0.0771
    1W        W45907  14.339   2.187   2.553  0.0879  0.1538  0.1742
    1W        W45908  27.940  26.862   6.995  0.1491  0.0500  0.0162
    1W        W45909   5.629  10.340   0.130 -0.2289  0.1991  0.1521
    1W        W45910  21.357   3.672   7.963  0.0726  0.0653 -0.1234
    1W        W45911  20.356  24.577   0.429 -0.2066 -0.2915  0.2309
    1W        W45912  25.104  20.548   9.409 -0.0143 -0.1461 -0.0679
    1W        W45913  26.045  16.894   2.328  0.2042 -0.1679 -0.2189
    1W        W45914  12.732  15.193   9.056 -0.1683 -0.1134 -0.1553
    1W        W45915  17.298   1.303   9.642 -0.1958  0.0360 -0.1937
    1W        W45916   4.056  24.487   1.917  0.2269  0.0849  0.1794
    1W        W45917  22.327   6.154   8.729 -0.1162  0.3065  0.1098
    1W        W45918  18.134  19.999   8.991  0.3549 -0.1585 -0.2805
    1W        W45919  17.538  10.808   7.451 -0.1085  0.2208 -0.5058
    1W        W45920  20.190   2.573   9.283 -0.1359 -0.1841  0.2963
    1W        W45921  11.417   6.723   8.855  0.1436 -0.1488  0.0993
    1W        W45922  13.472  18.801   0.544  0.0039  0.0591  0.0043
    1W        W45923  24.110  25.844   7.364 -0.5835  0.2415 -0.2086
    1W        W45924  21.493  25.744   6.875 -0.0746  0.0766  0.0804
    1W        W45925   3.365   3.127   9.638  0.0520  0.0452 -0.0379
    1W        W45926  11.325   6.948   7.635  0.0060 -0.0198  0.0053
    1W        W45927  16.414  18.392   8.416  0.1687 -0.1484 -0.0421
    1W        W45928  19.337  19.875   9.589 -0.1768 -0.1858 -0.1122
    1W        W45929  25.363   0.828   1.836  0.0424  0.3354 -0.0107
    1W        W45930   8.452  24.334   1.388 -0.2195 -0.0027 -0.0148
    1W        W45931   7.214   0.424   4.170  0.2757 -0.0419 -0.2014
    1W        W45932  26.568  20.788   1.043  0.2405  0.3154 -0.1805
    1W        W45933   2.999   9.067   0.476 -0.1427 -0.2078  0.0357
    1W        W45934  16.670  26.477   0.287  0.0339 -0.1172 -0.2825
    1W        W45935  10.189  18.709   7.366 -0.1010  0.1850  0.0221
    1W        W45936  14.717   9.007   1.828 -0.1541  0.0379 -0.2299
    1W        W45937   6.106   2.828   0.397  0.1125  0.1080 -0.2833
    1W        W45938  18.723  21.114   8.074 -0.2211  0.0399 -0.0437
    1W        W45939   1.039  22.046   8.020  0.3687  0.0485  0.3296
    1W        W45940  17.759  21.154   3.214 -0.0406  0.0034 -0.0450
    1W        W45941  13.219   4.416   9.011  0.0305  0.2066  0.0487
    1W        W45942  11.205  17.309   9.320  0.1297  0.1853 -0.0525
    1W        W45943  25.452  15.213   6.323 -0.1108 -0.1409 -0.0371
    1W        W45944  21.941  19.156   8.967 -0.2994  0.0182  0.2918
    1W        W45945  18.913  21.118   9.857 -0.1059 -0.2338  0.1213
    1W        W45946   2.123   7.918   9.940  0.2832  0.0539  0.0082
    1W        W45947  25.594  14.374   8.232  0.0562  0.2415 -0.1401
    1W        W45948  15.046   5.152   1.782 -0.3985  0.1631 -0.3016
    1W        W45949   4.258  13.175   1.338  0.0033  0.1429 -0.1548
    1W        W45950   0.047  16.326   1.242  0.0964 -0.0533 -0.1568
    1W        W45951  14.404  20.211   8.212 -0.0201 -0.1204 -0.2251
    1W        W45952   3.363   0.374   8.070 -0.0431  0.1420 -0.0011
    1W        W45953   0.338  28.199   8.398 -0.0203  0.0484 -0.2527
    1W        W45954   6.692  22.095   1.648  0.1105  0.0488 -0.2826
    1W        W45955  20.881  10.085   9.157  0.1171 -0.2207  0.0213
    1W        W45956   0.958   8.735   8.801  0.2524 -0.2016  0.1180
    1W        W45957   0.875  26.052   0.004  0.3034  0.1373 -0.1494
    1W        W45958   8.686   6.494   8.166 -0.0041 -0.1187 -0.1247
    1W        W45959  12.961  16.130   0.697 -0.0152 -0.3814  0.1620
    1W        W45960  18.815   9.039   9.542 -0.3288 -0.1129 -0.2323
    1W        W45961  12.139   2.094   7.275 -0.0553  0.1356 -0.1786
    1W        W45962  23.900  14.473   1.620  0.2620  0.2172  0.0809
    1W        W45963  28.022  15.887   8.877  0.0124  0.2872  0.0975
    1W        W45964  10.664   4.105   8.198 -0.1125 -0.2221 -0.2791
    1W        W45965  21.832   9.396   8.481  0.3629  0.0386 -0.0641
    1W        W45966   1.338  28.385   3.330 -0.1178 -0.2006  0.1189
    1W        W45967   0.719  18.537   0.136 -0.4582 -0.1199  0.1716
    1W        W45968  24.572  10.963   2.431  0.2356 -0.0241 -0.0279
    1W        W45969  17.849  24.923   9.226 -0.0093  0.3909  0.0604
    1W        W45970  11.053  10.321   9.850  0.0925  0.4655  0.0619
    1W        W45971  12.848   7.855   3.304  0.1111 -0.0347 -0.2916
    1W        W45972  17.379   2.568   2.078 -0.0779 -0.0991  0.0927
    1W        W45973  10.772   4.425   1.568  0.0838  0.1264  0.2392
    1W        W45974  20.210   2.336   8.035 -0.0941  0.0120  0.4209
    1W        W45975   7.245   5.679   9.069  0.2717  0.3488  0.1164
    1W        W45976  11.225  25.160   9.695  0.0969  0.0820 -0.0384
    1W        W45977   0.691  25.482   6.907  0.2172 -0.2888  0.0747
    1W        W45978  17.999  13.976   1.290 -0.0130 -0.2489 -0.0293
    1W        W45979   9.165  21.650   0.427 -0.2935 -0.0861  0.0496
    1W        W45980  12.135  11.823   8.175  0.3537 -0.3028  0.1431
    1W        W45981  20.035   0.507   9.148  0.0996  0.3082  0.0733
    1W        W45982  19.726  27.823   6.768 -0.1772  0.2423 -0.2559
    1W        W45983  11.342   3.729   3.925  0.0534 -0.0766 -0.0403
    1W        W45984   6.278  12.599   1.582 -0.2273 -0.0393 -0.1728
    1W        W45985  13.156  17.899   7.897 -0.3191 -0.0560 -0.1469
    1W        W45986  22.995  27.417   1.698 -0.2349  0.0141 -0.1991
    1W        W45987   2.591   0.636   2.787 -0.1796  0.0530 -0.0014
    1W        W45988  25.864  27.684   0.535  0.1333 -0.1961 -0.0077
    1W        W45989  14.693  12.295   0.525 -0.0469  0.0108  0.1179
    1W        W45990  17.784  24.958   2.463 -0.2023 -0.1453 -0.0340
    1W        W45991  12.423  15.928   2.333 -0.2335  0.2999  0.0686
    1W        W45992  19.769  18.084   1.045 -0.4110  0.3104 -0.1167
    1W        W45993   7.703   0.506   7.981  0.3116 -0.0967 -0.3315
    1W        W45994   0.019  19.154   9.624 -0.0614  0.1019  0.0100
    1W        W45995  24.251  23.042   1.827  0.1718 -0.2526 -0.4590
    1W        W45996  14.842  21.321   7.733  0.0685 -0.0179 -0.1980
    1W        W45997  27.425  25.080   2.958  0.1974 -0.0390 -0.3982
    1W        W45998  20.674  19.878   6.772 -0.1852  0.0855 -0.0902
    1W        W45999  18.807  22.897   8.568 -0.1682  0.2389  0.3934
    1W        W46000  10.876  13.446   2.318 -0.4204  0.0533  0.1202
    1W        W46001   5.311   6.463   2.183  0.0344 -0.1759 -0.0060
    1W        W46002  13.353  26.100   3.785 -0.1908 -0.1205 -0.2484
    1W        W46003   3.226  14.745   9.058 -0.0971 -0.2220 -0.1693
    1W        W46004  21.744  18.009   0.427 -0.2148 -0.4954 -0.0922
    1W        W46005   4.228  28.318   0.264 -0.3653 -0.1965 -0.1269
    1W        W46006   6.387  18.348   2.707 -0.3742  0.0190  0.0511
    1W        W46007  15.775   4.241   0.980  0.0986  0.2223 -0.2652
    1W        W46008  23.188   4.413   7.062  0.1700 -0.2916 -0.0465
    1W        W46009  23.063  22.288   1.289 -0.3342 -0.0536  0.0219
    1W        W46010   3.616   7.161   6.935  0.1604 -0.1239  0.1593
    1W        W46011   3.188  16.898   7.689  0.1187  0.0005  0.1946
    1W        W46012  20.846  26.699   8.759  0.0238  0.1489  0.3626
    1W        W46013  25.092  24.230   9.741 -0.1104 -0.1348 -0.0541
    1W        W46014  14.209  14.243   8.682  0.3004 -0.2131 -0.1986
    1W        W46015   0.990   5.331   9.302  0.1881 -0.0478  0.0027
    1W        W46016  11.204  15.929   1.813  0.0192  0.1436  0.3710
    1W        W46017  16.915  10.750   2.462  0.0660 -0.2402  0.0282
    1W        W46018   6.043  20.317   0.997  0.0601  0.2953 -0.1167
    1W        W46019  16.101  18.863   7.180  0.0987  0.4857  0.3293
    1W        W46020  10.249  25.776   8.695  0.3393  0.3535 -0.0521
    1W        W46021   7.378  15.779   9.377 -0.1013 -0.0326  0.0702
    1W        W46022  21.179  25.887   3.351 -0.3065  0.4383 -0.0640
    1W        W46023   6.828  17.403   7.085 -0.1538 -0.2009  0.1280
    1W        W46024  10.336  21.926   0.083 -0.2772  0.0099  0.0563
    1W        W46025  14.937   9.907   3.258  0.0497  0.0903 -0.0524
    1W        W46026   8.649  23.418   1.665  0.3908  0.1708 -0.0800
    1W        W46027  25.080   1.922   8.341  0.2405 -0.1793 -0.1546
    1W        W46028   1.931  11.307   8.404  0.0513  0.2555 -0.0579
    1W        W46029  16.877  27.937   1.126  0.1690  0.0383  0.0780
    1W        W46030   3.600   4.229   8.459  0.0976  0.1299  0.0895
    1W        W46031  26.333  16.948   9.002  0.4714 -0.2656  0.0871
    1W        W46032  18.343  18.003   9.588  0.0193  0.1729 -0.3790
    1W        W46033   9.602   1.682   3.203 -0.0988 -0.1897 -0.3528
    1W        W46034  26.269   2.976   2.385  0.0948  0.1783  0.0963
    1W        W46035   4.786  13.019   8.710  0.1609  0.1344  0.3263
    1W        W46036  10.056  22.138   7.168 -0.2255 -0.2829 -0.1757
    1W        W46037   8.861  27.259   1.533  0.0042  0.0611  0.0410
    1W        W46038  12.446  26.369   2.101  0.0697  0.1174  0.0406
    1W        W46039   8.329  24.601   0.916 -0.1904  0.0691  0.1227
    1W        W46040  14.698  27.187   2.554  0.1422 -0.0814 -0.0168
    1W        W46041  23.027   2.867   1.275 -0.0218 -0.4005  0.2069
    1W        W46042   5.799   1.079   3.775  0.1850  0.0146  0.0061
    1W        W46043  10.945  11.578   7.030  0.0752 -0.0346  0.0351
    1W        W46044  20.457   5.750   8.393  0.0069 -0.2196  0.1232
    1W        W46045  21.511   5.357   9.425  0.1703 -0.1489  0.1342
    1W        W46046  18.788  19.678   8.839  0.0547  0.1152 -0.0083
    1W        W46047   1.873   0.460   2.904 -0.1562 -0.0698  0.0051
    1W        W46048  20.013   6.483   7.209 -0.2361  0.1082  0.0564
    1W        W46049  19.730  12.074   6.918 -0.0089 -0.7730  0.4664
    1W        W46050  25.778  11.491   6.504 -0.1812  0.2415  0.2011
    1W        W46051  20.469  19.514   9.150 -0.0237  0.3318 -0.0252
    1W        W46052  17.101  26.873   2.931  0.1371 -0.2552  0.0121
    1W        W46053   1.340  19.471   7.751  0.1519  0.0869  0.0325
    1W        W46054   5.908   0.839   2.871  0.0329 -0.2305  0.4954
    1W        W46055  22.819  14.635   8.024 -0.3173 -0.1580 -0.3439
    1W        W46056  26.700  23.000   7.635  0.2042 -0.0097 -0.0253
    1W        W46057   6.666  15.611   1.035 -0.2854 -0.3298  0.0106
    1W        W46058   8.462   0.064   8.602 -0.0267 -0.0642 -0.0102
    1W        W46059  25.596  20.182   1.741 -0.3155  0.0671 -0.0721
    1W        W46060  23.469   9.859   9.868 -0.0001  0.0571 -0.1812
    1W        W46061  21.426  24.649   0.852 -0.3618  0.0041  0.3823
    1W        W46062  23.987  16.681   7.439 -0.1084 -0.0579 -0.0896
    1W        W46063   5.682   9.643   0.726 -0.2359 -0.0854  0.1256
    1W        W46064   9.465  16.876   0.302  0.0626  0.0296  0.2782
    1W        W46065   8.256  23.148   0.633  0.1721  0.1619 -0.1775
    1W        W46066  13.955   3.397   8.119  0.1236  0.1191  0.0134
    1W        W46067  15.359  22.757   2.403 -0.2876  0.0941 -0.2152
    1W        W46068  26.502  26.126   7.996  0.0537  0.2813 -0.1234
    1W        W46069  28.671  13.752   7.435  0.0309 -0.2764 -0.1222
    1W        W46070  20.007  27.170   8.685 -0.2053  0.1143  0.0474
    1W        W46071   6.692  26.524   1.020 -0.0616 -0.0559  0.1699
    1W        W46072   6.648   4.225   8.199  0.0060  0.0122 -0.0241
    1W        W46073   6.085  23.182   1.283 -0.0380  0.1947 -0.0119
    1W        W46074  17.001   8.352   9.437 -0.0698  0.0757 -0.2207
    1W        W46075  26.542  21.453   8.167  0.1660 -0.3028  0.4516
    1W        W46076  23.572   0.955   6.845  0.3075  0.1003  0.0219
    1W        W46077  16.870   8.668   7.300 -0.1622 -0.1382  0.0874
    1W        W46078  16.292   1.919   3.935  0.2884 -0.0978 -0.0844
    1W        W46079  24.489  21.296   0.615  0.0938  0.3820  0.1443
    1W        W46080  16.446  23.415   0.413 -0.1928 -0.2506 -0.1527
    1W        W46081  19.806  12.888   9.218 -0.2937  0.1093  0.0944
    1W        W46082  23.523  23.450   0.368 -0.0555  0.1892  0.1575
    1W        W46083  11.724  14.128   8.394  0.1752  0.2927  0.3378
    1W        W46084  14.580  15.546   2.879 -0.0660 -0.0025  0.0269
    1W        W46085  24.687  14.554   3.047  0.0292  0.0111 -0.2956
    1W        W46086  20.871  26.041   2.020 -0.0678 -0.1559 -0.0855
    1W        W46087   7.489  17.472   7.691 -0.1275  0.0230  0.0051
    1W        W46088  24.396  15.065   1.179 -0.0561  0.0042 -0.0526
    1W        W46089   3.001  11.716   9.542  0.2678 -0.1175 -0.0369
    1W        W46090  25.777  12.097   5.832  0.1995  0.1310  0.1405
    1W        W46091  24.069   3.713   1.844  0.0171 -0.2148  0.2746
    1W        W46092  16.506  23.750   8.074 -0.1433  0.0467 -0.1614
    1W        W46093   3.571  15.197   7.725  0.0725  0.0932 -0.4375
    1W        W46094  26.041  21.772   0.459 -0.1354 -0.0391 -0.0591
    1W        W46095  17.147   2.818   6.843  0.0262  0.1143 -0.3135
    1W        W46096   5.028   7.142   1.066  0.1280  0.0548 -0.0108
    1W        W46097  21.180   1.429   8.672 -0.1281 -0.3515  0.1122
    1W        W46098  10.345   6.105   0.403 -0.0751 -0.2280  0.0797
    1W        W46099  16.991   8.523   0.924  0.1697 -0.0825  0.1088
    1W        W46100  23.197  14.455   8.475 -0.0195 -0.0096  0.3708
    1W        W46101   4.560  19.437   0.438 -0.1969 -0.0970  0.2043
    1W        W46102  15.054   5.134   1.231  0.1343  0.0458 -0.0162
    1W        W46103  27.434  16.083   8.836 -0.1372  0.2605 -0.1014
    1W        W46104  21.806  15.634   8.748 -0.2143 -0.2758  0.1800
    1W        W46105   4.020   9.761   2.314  0.1861  0.0942  0.1272
    1W        W46106  22.290  21.424   7.229  0.4129 -0.1234 -0.1639
    1W        W46107  22.572   6.147   2.747  0.1351  0.0075 -0.2402
    1W        W46108  13.829   7.606   0.768  0.0563 -0.2528 -0.0471
    1W        W46109  25.700  15.325   6.804  0.2328  0.2743  0.3046
    1W        W46110  11.862  27.341   2.833  0.1645  0.0475 -0.1581
    1W        W46111  20.513  25.317   8.869 -0.0576 -0.2782 -0.0203
    1W        W46112  19.853  28.464   2.962  0.0475  0.0262  0.0720
    1W        W46113   3.456  18.798   0.306  0.0728  0.2115  0.1809
    1W        W46114  28.658  18.172   8.950  0.0945 -0.2416  0.0610
    1W        W46115  24.812  24.459   9.383 -0.1296  0.0262  0.0178
    1W        W46116  20.542   9.404   0.471 -0.2313 -0.0722 -0.1279
    1W        W46117  13.321   4.987   3.540  0.2282 -0.0334 -0.0975
    1W        W46118  25.539   7.641   7.113 -0.2415  0.0019  0.2963
    1W        W46119  21.511   3.773   8.485 -0.5446 -0.1778  0.0870
    1W        W46120  26.282  17.571   2.382 -0.0007 -0.0686 -0.0277
    1W        W46121  14.486  13.767   8.375  0.0148 -0.0354 -0.0433
    1W        W46122   0.483   9.894   8.996  0.1363 -0.0207 -0.0386
    1W        W46123  12.107  24.002   0.857  0.0420  0.0398  0.1336
    1W        W46124  13.875  13.656   0.836  0.2246 -0.0405 -0.0121
    1W        W46125   4.844  20.994   9.944  0.0344  0.0066  0.0075
    1W        W46126  14.880  25.189   7.529  0.1684 -0.2908 -0.1573
    1W        W46127   2.300  11.706   7.119  0.3518  0.2428 -0.0572
    1W        W46128  21.549  19.172   3.565 -0.0181  0.0327 -0.1593
    1W        W46129   6.762   6.059   1.351 -0.1611 -0.1778  0.2329
    1W        W46130   5.860   4.189   8.470  0.3084 -0.2270 -0.2375
    1W        W46131  27.267   0.816   2.848 -0.1694  0.0513 -0.2705
    1W        W46132  14.493   0.584   8.160  0.3725  0.2829  0.0156
    1W        W46133  13.537   0.695   3.596  0.1653 -0.2128 -0.0821
    1W        W46134  14.231   6.302   9.558 -0.1643  0.0037 -0.2463
    1W        W46135   1.386  24.701   8.275 -0.1176  0.1322  0.0279
    1W        W46136  20.254  19.265   8.123 -0.0682  0.0199 -0.0535
    1W        W46137  27.626   9.017   8.087  0.0251  0.0324 -0.1860
    1W        W46138  20.616   8.859   8.780 -0.2779 -0.0867 -0.0389
    1W        W46139  14.010  11.018   8.785  0.1597  0.1875 -0.0428
    1W        W46140  20.626   4.921   9.739  0.1931  0.1542 -0.3452
    1W        W46141  23.527   5.927   2.135 -0.0713  0.2149 -0.0735
    1W        W46142  25.914   9.957   8.791 -0.2006  0.1675 -0.2540
    1W        W46143   3.848  15.905   0.233  0.0643  0.1398  0.2290
    1W        W46144  22.137   3.197   2.255  0.1503 -0.0680  0.2433
    1W        W46145  26.478   8.209   9.391  0.0162  0.1720 -0.1431
    1W        W46146   5.471  10.206   8.503  0.1775  0.0487  0.0871
    1W        W46147   1.512  26.100   1.907  0.2465 -0.0515  0.1700
    1W        W46148  16.556   4.118   1.127  0.0831  0.0138  0.3700
    1W        W46149  13.025  27.057   1.743 -0.1288 -0.0649 -0.0540
    1W        W46150  27.196  10.358   1.105  0.0507 -0.0909  0.2249
    1W        W46151   9.956  10.746   1.610  0.1528 -0.1809  0.1527
    1W        W46152   1.814   0.422   8.732 -0.1134  0.1758  0.2388
    1W        W46153  14.485   2.507   1.638 -0.2426  0.0514  0.0577
    1W        W46154  21.588  11.392   8.854  0.3936  0.4511  0.0577
    1W        W46155  22.809  12.427   2.527  0.1326 -0.1734  0.1737
    1W        W46156   3.380  11.931   1.835  0.1378 -0.1569 -0.0095
    1W        W46157  12.749  17.029   0.607  0.1100  0.2999  0.0416
    1W        W46158   4.693   8.209   1.024  0.1355 -0.0864  0.1068
    1W        W46159   1.204   4.500   8.078 -0.0989 -0.0452  0.2542
    1W        W46160   1.853  23.064   5.979  0.1011  0.0671  0.2419
    1W        W46161  17.666   0.885   1.348  0.1905  0.2214 -0.1452
    1W        W46162  18.239  24.202   3.119  0.4135  0.2775  0.1099
    1W        W46163   6.266  17.789   9.314  0.1702  0.0976 -0.0434
    1W        W46164  19.536   5.730   2.780 -0.1494  0.1722 -0.0686
    1W        W46165   2.867   9.852   2.345  0.1108  0.0451  0.0425
    1W        W46166  14.524   4.813   8.683 -0.1476 -0.0598 -0.1506
    1W        W46167   6.840  11.995   7.141  0.2240 -0.0618 -0.0855
    1W        W46168  15.508  16.799   9.866 -0.0741 -0.2524 -0.1438
    1W        W46169  20.895  27.745   9.922  0.0591  0.1600  0.1462
    1W        W46170   0.098  10.822   0.462  0.0204 -0.0292 -0.0652
    1W        W46171  11.463  17.700   7.495  0.1409 -0.4540 -0.1328
    1W        W46172   4.690  10.007   8.765 -0.2709  0.1582  0.0392
    1W        W46173  23.049  16.932   8.666  0.0056 -0.1293  0.0294
    1W        W46174   8.376   4.744   6.685  0.2220  0.1837  0.3713
    1W        W46175  16.101  24.092   1.131 -0.0057  0.0615 -0.2551
    1W        W46176   9.914  24.101   0.281 -0.0202 -0.0903 -0.2695
    1W        W46177  14.723  11.884   2.412 -0.0633  0.0825  0.0829
    1W        W46178   7.368  25.803   9.107  0.0038 -0.3850  0.0466
    1W        W46179  27.210   6.292   7.827  0.2285  0.0752  0.0116
    1W        W46180   0.118  12.353   0.056  0.0414  0.0077 -0.0093
    1W        W46181   9.964  23.074   9.023  0.1203 -0.0419  0.2478
    1W        W46182  20.411   9.371   2.103  0.2399 -0.0201  0.1556
    1W        W46183  22.432   8.999   3.375  0.2005 -0.0477  0.0763
    1W        W46184   5.014  28.381   0.093 -0.1498 -0.0998 -0.1799
    1W        W46185  26.713  19.096   9.356 -0.0988 -0.1760  0.2071
    1W        W46186   0.583   8.906   7.153  0.0354 -0.0766 -0.1207
    1W        W46187   0.302  27.657   1.217 -0.2984 -0.0996 -0.1839
    1W        W46188   4.698  19.155   8.646  0.3741 -0.4358  0.1389
    1W        W46189  24.595   2.379   1.789  0.1075  0.2235 -0.1167
    1W        W46190   7.220   2.499   2.244  0.0899  0.1289 -0.0319
    1W        W46191  27.381   0.540   0.754 -0.0658  0.0218 -0.2729
    1W        W46192  22.261  10.471   1.032 -0.0153 -0.3860  0.2068
    1W        W46193   1.075  19.186   7.357  0.1928 -0.1845 -0.0048
    1W        W46194  12.053  28.718   8.398  0.2506  0.2688  0.4256
    1W        W46195   2.172   0.265   1.580  0.2631 -0.0123 -0.1763
    1W        W46196  21.960   7.692   2.389 -0.0546  0.3898 -0.1644
    1W        W46197  19.487  18.689   2.325 -0.0829 -0.1438 -0.2722
    1W        W46198   3.274   6.124   8.874  0.2971 -0.0870  0.1087
    1W        W46199  19.957  20.341   1.893  0.2283 -0.0915  0.3487
    1W        W46200  23.118   8.313   7.148 -0.1801  0.3687 -0.0285
    1W        W46201   2.098   1.918   7.159 -0.1717 -0.3021 -0.1033
    1W        W46202  14.775  13.387   8.258 -0.1605  0.1082 -0.0492
    1W        W46203   3.396  12.864   1.039  0.3009  0.2278  0.4172
    1W        W46204  13.110   3.443   1.936  0.1612  0.0478  0.0252
    1W        W46205   5.370  24.403   0.981 -0.3232  0.2064  0.1524
    1W        W46206  22.760  19.097   8.774  0.1280  0.1844 -0.1732
    1W        W46207   4.303   0.473   1.672  0.1821  0.1997 -0.1069
    1W        W46208   0.479  13.059   0.073  0.1263  0.0905  0.2207
    1W        W46209  28.416  18.403   0.510  0.0378 -0.0450  0.0524
    1W        W46210  18.416   8.188   1.651 -0.0462 -0.0019 -0.1391
    1W        W46211   5.022  12.320   1.065 -0.1164 -0.0475  0.0014
    1W        W46212  17.776   9.801   0.543  0.4109  0.5008  0.2810
    1W        W46213  18.701  20.394   0.599  0.0019 -0.0570  0.0242
    1W        W46214  25.760  18.740   1.492 -0.1525 -0.1068 -0.1070
    1W        W46215  23.306  19.483   2.346  0.2805 -0.0184 -0.2733
    1W        W46216  15.922  16.880   9.539  0.0156  0.4396 -0.1628
    1W        W46217  22.776  21.172   0.127 -0.2559  0.2866  0.2856
    1W        W46218  20.920  22.428   2.494  0.4840  0.1914  0.0682
    1W        W46219  25.169  12.810   0.860  0.1462  0.4321  0.2070
    1W        W46220  22.626   0.732   1.409  0.0426 -0.0019  0.1789
    1W        W46221  27.228  11.113   1.296  0.1048 -0.0961 -0.0665
    1W        W46222  18.664  20.734   8.436 -0.1147 -0.1617  0.1281
    1W        W46223  20.352   7.271   3.702  0.0577 -0.1115  0.1469
    1W        W46224   3.372  20.656   1.382 -0.1632  0.1837  0.0675
    1W        W46225   9.672  28.344   7.962  0.0293  0.2507 -0.0349
    1W        W46226  27.992  25.880   1.892 -0.0967 -0.0872 -0.3470
    1W        W46227  16.795  20.708   8.375  0.2377 -0.1119  0.0249
    1W        W46228   8.709   3.665   8.492  0.2528 -0.0133 -0.0609
    1W        W46229  18.325  23.190   0.247 -0.2221  0.3551  0.0444
    1W        W46230   7.705  21.106   8.103 -0.0392  0.0797 -0.3372
    1W        W46231   7.294   8.878   0.046 -0.0902 -0.0973  0.0474
    1W        W46232  21.311  10.564   2.012 -0.0666  0.0710 -0.0630
    1W        W46233  18.898  22.606   7.174  0.0488 -0.2407 -0.0059
    1W        W46234   6.399  11.881   1.137  0.1109  0.2570 -0.2372
    1W        W46235  16.328  15.362   1.283 -0.0599 -0.1393 -0.1024
    1W        W46236  18.593  14.012   0.181 -0.2509  0.1682  0.0483
    1W        W46237  23.146   9.024   8.745 -0.0695  0.1385  0.4418
    1W        W46238   6.694   0.916   9.353 -0.3704 -0.1680 -0.0572
    1W        W46239   1.677   7.373   6.686 -0.0911  0.3194  0.2175
    1W        W46240  21.875   4.342   6.588  0.0597 -0.1098 -0.1620
    1W        W46241  16.081  27.714   3.495  0.0398  0.3993  0.1027
    1W        W46242   3.027  18.645   8.412  0.0681 -0.0798  0.2616
    1W        W46243   0.755  16.540   5.980 -0.0814 -0.0245 -0.0645
    1W        W46244  27.540  27.189   0.797 -0.1019 -0.4164  0.1067
    1W        W46245   2.720  22.787   0.858 -0.1675 -0.5502  0.3846
    1W        W46246  21.784   2.529   9.471 -0.1145  0.0671  0.0557
    1W        W46247   1.158  24.393   7.898 -0.0268  0.1558  0.1327
    1W        W46248  25.499   3.992   8.294 -0.1642 -0.3154 -0.0690
    1W        W46249  19.620   3.740   9.487 -0.0189 -0.2612 -0.1818
    1W        W46250  27.009  18.048   9.794  0.2494 -0.0422  0.0857
    1W        W46251   9.529  10.383   9.415 -0.0508 -0.0095 -0.1598
    1W        W46252  24.962  24.655   1.550 -0.0679  0.0053 -0.0216
    1W        W46253  16.255   0.436   0.512 -0.0996  0.0393  0.0172
    1W        W46254  12.633  15.974   1.126 -0.0667 -0.0976 -0.1063
    1W        W46255  27.260  27.621   1.532 -0.2465 -0.0639 -0.0697
    1W        W46256  18.241   5.314   6.912  0.2212 -0.0019  0.1367
    1W        W46257  19.655  11.170   1.611 -0.2113  0.0911 -0.1091
    1W        W46258   9.106  21.176   0.123 -0.1280  0.2863  0.0559
    1W        W46259   7.140  18.714   1.497 -0.1304 -0.0785  0.0158
    1W        W46260  14.291  24.464   1.836 -0.3484  0.0482  0.6308
    1W        W46261   1.100   3.703   8.235 -0.2292  0.0467  0.0200
    1W        W46262  11.767   4.291   0.001 -0.4034  0.0287  0.0213
    1W        W46263   7.417  21.519   1.539  0.0655  0.0007  0.0217
    1W        W46264   9.585  21.143   7.943 -0.1642 -0.3967 -0.2273
    1W        W46265  20.395  25.916   9.491 -0.0435 -0.0534  0.4601
    1W        W46266  26.927  14.771   5.248 -0.0539 -0.1763 -0.1530
    1W        W46267  23.578  22.257   3.243  0.3256  0.1535  0.0666
    1W        W46268   4.204  23.809   7.138 -0.2595  0.0124 -0.0750
    1W        W46269  26.130   8.230   6.578  0.1390  0.1732 -0.0331
    1W        W46270   9.812  15.575   7.869 -0.0747 -0.1441 -0.1704
    1W        W46271  14.818  22.038   2.112 -0.0091 -0.1863 -0.0477
    1W        W46272   1.684  28.007   7.036 -0.0242 -0.0589 -0.2091
    1W        W46273  16.000  25.851   3.664  0.0473  0.1067 -0.3822
    1W        W46274  20.500  14.662   8.113  0.2746 -0.0309 -0.0462
    1W        W46275  23.376   4.420   9.754  0.2097  0.0812  0.3178
    1W        W46276  14.361   2.350   0.303  0.0654 -0.0017  0.6541
    1W        W46277   9.880   4.757   7.960  0.0142  0.0695  0.0940
    1W        W46278  21.434  10.056   6.996 -0.0489 -0.0491  0.0089
    1W        W46279  24.901   4.506   2.329  0.0843  0.0484  0.0648
    1W        W46280  22.520  26.821   7.117  0.0683  0.3036 -0.1708
    1W        W46281   8.201  26.294   0.426  0.3390 -0.4155 -0.0154
    1W        W46282   7.568  20.175   1.212  0.1570 -0.2589  0.0052
    1W        W46283   1.358   4.666   2.841 -0.3074  0.1064 -0.0611
    1W        W46284   1.511   8.614   8.784  0.3640 -0.1261  0.1292
    1W        W46285   5.911  18.181   8.484 -0.3790  0.2564  0.0425
    1W        W46286  26.881  14.000   7.568 -0.1547  0.2393 -0.4138
    1W        W46287  23.512  16.818   6.666 -0.0604  0.2203  0.0644
    1W        W46288  13.134  22.417   2.896 -0.1818  0.0229 -0.0205
    1W        W46289   1.177  14.333   7.931  0.0444  0.1937  0.5799
    1W        W46290  21.426  15.669   0.641  0.1079 -0.0798  0.1572
    1W        W46291  21.113  24.614   1.348 -0.0555 -0.1119  0.0005
    1W        W46292   3.617   6.602   1.308 -0.0016  0.1919 -0.1537
    1W        W46293   9.549  17.852   9.343  0.3831 -0.2349  0.0774
    1W        W46294  17.472   3.371   2.708 -0.0922 -0.0974  0.0567
    1W        W46295  26.125   5.399   7.164 -0.1471 -0.0740 -0.1654
    1W        W46296   4.520   5.635   1.572 -0.0397  0.0413 -0.0503
    1W        W46297  14.827  26.261   2.747  0.0761 -0.0431  0.1935
    1W        W46298  25.905  12.767   8.864 -0.0958 -0.1299  0.0632
    1W        W46299  11.483   9.710   0.648 -0.2486  0.0672 -0.0202
    1W        W46300   6.345   6.445   2.956 -0.2003  0.2711 -0.0284
    1W        W46301   6.031  14.979   1.765  0.0203  0.1584  0.0614
    1W        W46302  12.324   6.169   8.037 -0.2822 -0.2441  0.1437
    1W        W46303  10.721  27.345   2.350  0.1936 -0.0341  0.1387
    1W        W46304  24.951   5.406   7.274  0.1653  0.3454 -0.4070
    1W        W46305   1.242  28.468   2.836  0.1124 -0.3178  0.3046
    1W        W46306   5.629  14.682   9.449 -0.1923 -0.1188  0.0763
    1W        W46307  10.294  15.623   0.232 -0.1546  0.1609 -0.1831
    1W        W46308  23.284   4.795   1.961 -0.0343  0.0722 -0.0759
    1W        W46309  11.835  15.016   0.472  0.0940  0.1333  0.0971
    1W        W46310  16.771  26.882   2.066 -0.1208 -0.0565 -0.3481
    1W        W46311  11.848  25.994   9.585 -0.0909  0.1315  0.1936
    1W        W46312  19.266  27.397   2.516 -0.0196 -0.0510  0.0944
    1W        W46313  24.301  13.315   9.441 -0.0837 -0.1046 -0.0034
    1W        W46314  15.108  25.107   2.420  0.0178  0.3261  0.1003
    1W        W46315   0.369   9.836   1.764 -0.1795 -0.0499  0.0255
    1W        W46316  20.934  18.326   1.389  0.2167  0.1594  0.1128
    1W        W46317  27.314  25.729   8.601  0.2351  0.1026 -0.0800
    1W        W46318  25.449  20.255   0.827  0.0014 -0.2684  0.0241
    1W        W46319   6.424   9.602   1.212  0.1359 -0.3300  0.1680
    1W        W46320  21.572  19.706   8.438  0.3947  0.0073  0.0135
    1W        W46321  18.880  18.805   8.679 -0.3760 -0.0429  0.2253
    1W        W46322  18.492  23.506   0.629  0.2359 -0.1020 -0.0225
    1W        W46323  24.655  22.759   1.280  0.0137 -0.0581  0.1281
    1W        W46324  15.599  23.428   0.316  0.0082  0.0873 -0.0063
    1W        W46325  13.144   8.485   8.491  0.3300  0.1711  0.0830
    1W        W46326  21.778   7.592   7.410  0.0145  0.0872  0.1671
    1W        W46327  10.464  23.682   6.989 -0.3082  0.0385  0.0446
    1W        W46328  10.685  11.467   1.638  0.1028  0.1430  0.1369
    1W        W46329   4.875   9.895   1.639  0.2104  0.1854  0.0300
    1W        W46330   9.539  17.385   0.256 -0.5562  0.3350 -0.1712
    1W        W46331   8.681  23.656   7.946 -0.0581  0.0360 -0.0666
    1W        W46332  17.107  16.684   7.396  0.0364  0.0868 -0.1235
    1W        W46333  13.508   6.398   1.492 -0.1383 -0.0014  0.2351
    1W        W46334  27.434  26.521   0.006 -0.0166  0.0553 -0.1108
    1W        W46335   8.443  18.499   8.985 -0.1340 -0.2808 -0.0668
    1W        W46336   0.816  21.977   5.777 -0.1613  0.0704  0.0190
    1W        W46337  12.694   7.885   0.086  0.1118  0.1218 -0.0321
    1W        W46338  18.386   9.529   8.764  0.1617  0.0764  0.1230
    1W        W46339  24.246  26.098   0.148 -0.3236  0.0864  0.0129
    1W        W46340   0.938  18.731   7.076 -0.0980  0.1652 -0.0650
    1W        W46341  22.347  20.858   2.048  0.0034  0.2362 -0.2711
    1W        W46342  15.293  25.431   7.492 -0.2518  0.1305 -0.0636
    1W        W46343   8.066  17.195   6.456  0.0465  0.0937 -0.1736
    1W        W46344  23.137  11.124   7.417 -0.2917 -0.4473 -0.2954
    1W        W46345  17.569  27.687   8.372 -0.2101 -0.0918 -0.3536
    1W        W46346  22.915  27.955   7.230  0.1169 -0.0694 -0.0673
    1W        W46347   2.139  21.039   0.637 -0.1016  0.1521 -0.0551
    1W        W46348  16.655  19.850   1.302  0.0591 -0.0016  0.1172
    1W        W46349   5.873   6.014   2.377 -0.0148  0.3153 -0.1373
    1W        W46350   3.106  17.625   0.303 -0.1530 -0.1920 -0.1210
    1W        W46351   0.012   0.260   0.684  0.0745 -0.4593 -0.1124
    1W        W46352   0.341   2.177   6.418  0.3342 -0.0119  0.0059
    1W        W46353   5.834  14.751   1.294 -0.0507  0.1491 -0.1157
    1W        W46354   7.402  20.046   7.473 -0.2152  0.1849  0.2725
    1W        W46355  28.282   3.237   1.246 -0.3002  0.0542 -0.6062
    1W        W46356  20.648  20.339   2.649  0.0148  0.0217 -0.1545
    1W        W46357  28.117  24.684   1.823  0.2527 -0.0638 -0.0144
    1W        W46358  26.589  14.797   7.170  0.2802  0.3707  0.0440
    1W        W46359  21.364  26.237   0.717 -0.1981 -0.0729 -0.0114
    1W        W46360   2.664  19.548   6.569 -0.0539 -0.0679  0.0965
    1W        W46361   8.502   0.771   1.262 -0.0827 -0.1727  0.0257
    1W        W46362  24.174  20.068   9.654 -0.2624 -0.1229 -0.1551
    1W        W46363   5.513   7.274   1.998  0.2216 -0.1484 -0.0760
    1W        W46364  27.627   6.580   7.925  0.1591 -0.0703 -0.1835
    1W        W46365  25.130   6.064   5.882 -0.0320 -0.1430 -0.0251
    1W        W46366  12.132  20.389   9.327  0.2501 -0.1552  0.0290
    1W        W46367  11.373   1.111   9.139  0.0076 -0.1706  0.1961
    1W        W46368   7.734  20.734   1.821 -0.0937 -0.1812  0.1481
    1W        W46369  19.020  14.565   1.956 -0.0680 -0.0625  0.1522
    1W        W46370   6.676  17.154   1.533  0.0281 -0.2516  0.1436
    1W        W46371   7.401   9.958   0.212  0.0171  0.0547 -0.2473
    1W        W46372   9.271  11.512   3.071  0.1166 -0.1560  0.2787
    1W        W46373   8.052   9.932   8.316 -0.1537  0.1739 -0.0106
    1W        W46374  24.432  22.284   7.891 -0.3558 -0.2554 -0.1121
    1W        W46375  26.144  17.916   9.161  0.0941 -0.0132  0.0312
    1W        W46376  14.957  24.690   8.180  0.0344 -0.1146  0.0738
    1W        W46377  27.955  19.871   8.964  0.0605 -0.1288  0.1209
    1W        W46378   8.230  28.234   2.846 -0.2045  0.1209  0.2126
    1W        W46379   5.132   1.429   8.224 -0.1306 -0.3569  0.2338
    1W        W46380   4.034   5.912   2.346 -0.0123 -0.4744 -0.0617
    1W        W46381   3.953   7.306   2.569  0.1733 -0.0398  0.0495
    1W        W46382  12.799   5.020   8.577  0.2574  0.0155  0.1534
    1W        W46383  22.083  10.234   9.780  0.3667  0.1398 -0.1448
    1W        W46384  21.953  22.149   0.815  0.2017  0.1346  0.1493
    1W        W46385   6.362   9.482   8.809 -0.0658  0.3719  0.3368
    1W        W46386   1.187  26.292   6.938  0.1309  0.2588 -0.2180
    1W        W46387  28.285  26.107   6.112 -0.2125 -0.0224 -0.1684
    1W        W46388  15.722  14.947   2.341  0.2186 -0.0867 -0.0451
    1W        W46389  18.315   7.823   1.270 -0.0020  0.1535 -0.0243
    1W        W46390  13.542  13.788   1.476  0.1570 -0.0633  0.3748
    1W        W46391  14.107   3.906   8.961 -0.2648  0.0155  0.0015
    1W        W46392  15.383  25.188   3.820  0.0775  0.0544  0.2585
    1W        W46393  19.924   6.075   9.202  0.1964  0.0822 -0.1088
    1W        W46394   9.574  22.789   2.279 -0.0862 -0.3207 -0.1764
    1W        W46395  15.274  13.469   8.055 -0.0078 -0.1037  0.2896
    1W        W46396   7.315  28.465   2.235  0.0482 -0.0821 -0.2102
    1W        W46397  23.065  24.042   2.817 -0.3820 -0.1104  0.1051
    1W        W46398  17.929  27.330   8.286  0.2418 -0.1742 -0.0124
    1W        W46399  18.302   9.211   8.324 -0.0184 -0.2018  0.2643
    1W        W46400   5.722   4.178   2.575 -0.0277 -0.0977  0.3411
    1W        W46401   7.677  25.023   5.825  0.1461 -0.2198  0.2521
    1W        W46402   8.226  15.869   1.097 -0.2428 -0.0008 -0.0818
    1W        W46403  11.854  20.200   0.536 -0.0738 -0.1960 -0.1098
    1W        W46404  19.944   4.581   6.958  0.3032 -0.0203  0.3998
    1W        W46405   8.606  17.825   9.536 -0.0375 -0.0336 -0.2676
    1W        W46406  16.696  26.310   2.282  0.0213  0.2488 -0.0616
    1W        W46407   4.667  21.438   1.918  0.0329 -0.2040 -0.0896
    1W        W46408   7.704  10.930   0.492  0.2206  0.0415  0.2388
    1W        W46409  13.637  17.769   0.629 -0.2178 -0.1922 -0.0837
    1W        W46410   8.358  26.335   9.432 -0.1100 -0.1275  0.1319
    1W        W46411  21.103  15.609   6.980  0.1900  0.1624  0.0585
    1W        W46412  24.201   8.542   2.174  0.0544  0.4766  0.1225
    1W        W46413  23.528  24.930   8.795  0.3339 -0.0289 -0.1685
    1W        W46414  22.328  16.040   7.966  0.2842  0.2568  0.1058
    1W        W46415   4.681   0.371   1.291 -0.1753 -0.3370 -0.0027
    1W        W46416  26.840  25.779   0.103 -0.1781  0.0846  0.2852
    1W        W46417  15.856   4.887   9.259 -0.0044 -0.3381  0.3876
    1W        W46418  18.438  25.362   4.098  0.1309  0.1569 -0.1592
    1W        W46419   8.944   2.481   7.626 -0.0040  0.0995  0.1321
    1W        W46420  14.514   6.529   9.078  0.1275 -0.5032  0.0202
    1W        W46421  11.175  13.788   1.138 -0.0544  0.3226  0.0665
    1W        W46422  20.292  15.927   2.571  0.1705 -0.1059 -0.0296
    1W        W46423   1.931   5.447   8.854  0.1780 -0.2276 -0.0192
    1W        W46424   4.876  12.697   0.693  0.2295 -0.3303 -0.1239
    1W        W46425  17.893  25.776   1.159 -0.2862 -0.0521  0.0657
    1W        W46426  17.475  23.168   8.095 -0.5236  0.0716  0.1280
    1W        W46427   7.529   6.552   9.041  0.0971  0.0094 -0.0258
    1W        W46428   9.610   4.076   8.792  0.3107 -0.0045 -0.0304
    1W        W46429  28.416  27.092   9.170 -0.2775  0.1709  0.2062
    1W        W46430   4.707   1.642   8.068  0.0013 -0.1311 -0.0566
    1W        W46431  10.515  23.184   8.446  0.2314  0.4297 -0.3475
    1W        W46432  16.706  10.595   7.204  0.0168 -0.1850 -0.1266
    1W        W46433   5.532   8.689   3.283 -0.0380  0.2377 -0.0979
    1W        W46434  23.728   4.958   2.198  0.0119  0.0281  0.0529
    1W        W46435   3.452  15.537   2.430  0.3692  0.1979 -0.0674
    1W        W46436  13.671  24.740   3.053 -0.1218 -0.1137 -0.3462
    1W        W46437   6.983   2.973   1.642  0.1583 -0.0468 -0.0368
    1W        W46438   7.332  12.028   9.228 -0.1358  0.1398 -0.0554
    1W        W46439   8.338   4.397   7.046 -0.3750 -0.1398 -0.1524
    1W        W46440  25.862  10.900   6.563  0.0284 -0.1477  0.0229
    1W        W46441  10.393  22.074   9.595 -0.1616  0.1843  0.1781
    1W        W46442   5.034   8.463   9.362 -0.0613 -0.1403 -0.2571
    1W        W46443  13.925   0.324   3.630  0.1156  0.1478  0.1197
    1W        W46444   4.896  27.474   9.000  0.0175 -0.1507  0.2463
    1W        W46445  10.263  11.551   8.096 -0.0284 -0.0861  0.1793
    1W        W46446   5.527   7.734   7.963 -0.1874 -0.0039 -0.1080
    1W        W46447   3.746   3.190   2.943 -0.0790  0.1882 -0.0099
    1W        W46448   9.006   8.347   2.978 -0.1470  0.0280  0.3043
    1W        W46449  24.346  18.404   2.713  0.2558  0.2975  0.2096
    1W        W46450  10.962   5.568   4.058 -0.2125  0.0477 -0.0901
    1W        W46451  10.933   4.952   2.191  0.0459  0.0014 -0.0673
    1W        W46452  16.772  11.447   0.285  0.0226 -0.2339 -0.1796
    1W        W46453  11.829  17.827   0.637 -0.2861  0.1143 -0.1662
    1W        W46454   9.839  20.760   2.960  0.1519 -0.2114 -0.0765
    1W        W46455  23.333  10.715   7.551 -0.3195  0.1609  0.1348
    1W        W46456  13.814  10.189   0.650 -0.0500 -0.1975  0.1939
    1W        W46457  20.617  26.816   6.214  0.1576  0.0493 -0.0755
    1W        W46458  19.095   4.283   9.790  0.1895  0.1284 -0.0334
    1W        W46459   3.665  26.259   0.056 -0.0839 -0.0892  0.3558
    1W        W46460   4.881   4.481   7.254 -0.3114 -0.2675 -0.1408
    1W        W46461  15.830  23.001   1.108 -0.1276 -0.1629 -0.0539
    1W        W46462  17.148  25.225   3.054 -0.1243 -0.1778 -0.0110
    1W        W46463   3.974  19.502   9.422 -0.0895 -0.0593 -0.1797
    1W        W46464  11.715  19.620   9.629 -0.0235 -0.2764 -0.1580
    1W        W46465  11.382  22.173   8.116  0.0196 -0.1936 -0.0728
    1W        W46466  15.897  15.524   1.042  0.2375 -0.2397  0.1864
    1W        W46467   6.517  18.434   0.055 -0.1915  0.2208  0.0507
    1W        W46468   3.115  15.444   7.865 -0.0595  0.2291 -0.1471
    1W        W46469   0.725  23.216   8.108  0.1533  0.2172 -0.2558
    1W        W46470   7.838  12.859   9.397 -0.1273 -0.0184  0.2888
    1W        W46471  11.295  23.621   5.965 -0.1242  0.1032 -0.0906
    1W        W46472   1.173  22.929   7.055  0.0338  0.0323 -0.3407
    1W        W46473  14.488   4.286   8.410  0.1066  0.0063 -0.1679
    1W        W46474   3.989  15.707   9.748  0.1466 -0.2226  0.1433
    1W        W46475  16.419   6.162   8.481 -0.2221  0.3584  0.3090
    1W        W46476   5.730  15.721   0.017  0.1509  0.0676  0.1455
    1W        W46477   6.647   1.454   1.110  0.0713  0.1488 -0.2692
    1W        W46478  17.811  22.929   8.823  0.1921 -0.2623 -0.1171
    1W        W46479   5.480  18.871   8.056  0.0950 -0.0770  0.0114
    1W        W46480  15.989  12.506   1.533  0.1490  0.0548  0.2904
    1W        W46481  11.673   5.450   3.275  0.6650 -0.2794  0.0107
    1W        W46482   9.544  20.678   1.004 -0.1121  0.3091 -0.1839
    1W        W46483  18.636   0.261   0.302 -0.1164 -0.0257  0.0985
    1W        W46484  27.162  15.175   5.438 -0.0658  0.1563  0.2996
    1W        W46485   3.255   3.947   8.228  0.2051  0.2644  0.0348
    1W        W46486   4.770   9.584   0.708 -0.0737  0.0809  0.0344
    1W        W46487  14.219   3.893   2.981 -0.2489 -0.4057 -0.0856
    1W        W46488   5.298   7.698   2.021 -0.4384  0.0797 -0.0119
    1W        W46489   4.707  15.972   1.146 -0.0124  0.0897  0.0698
    1W        W46490   2.617  22.822   7.836  0.1018 -0.2578  0.0282
    1W        W46491   3.022  14.000   8.169  0.0072  0.5809 -0.0649
    1W        W46492  18.061  25.308   0.922 -0.0074  0.4128  0.2216
    1W        W46493  24.215  16.397   6.441  0.0276  0.0302 -0.2636
    1W        W46494  24.796   0.267   6.735  0.2411  0.2001 -0.0450
    1W        W46495   7.388  23.703   8.613 -0.0344  0.2514 -0.3299
    1W        W46496  11.904   1.197   1.691  0.1319  0.0860 -0.3777
    1W        W46497   6.854  20.892   7.005  0.0430 -0.1826  0.2167
    1W        W46498   7.926  12.402   7.975 -0.1669 -0.2274 -0.3516
    1W        W46499  17.753   5.820   8.158 -0.3076 -0.0632  0.1636
    1W        W46500  18.521  19.545   7.364  0.1181 -0.0467  0.4417
    1W        W46501  24.460  24.555   2.762  0.0657 -0.0106  0.1541
    1W        W46502  21.071  26.086   6.897  0.1844 -0.0969 -0.1218
    1W        W46503   1.837   6.120   0.087  0.0841 -0.4619 -0.1073
    1W        W46504  12.673   2.767   8.014  0.1421 -0.1188 -0.1784
    1W        W46505  26.174   9.910   9.215 -0.1698 -0.2811  0.0435
    1W        W46506  21.835  19.300   9.429  0.0215  0.1119  0.3210
    1W        W46507  11.859   9.770   7.774 -0.0167  0.1124 -0.2994
    1W        W46508  17.230  26.338   9.613 -0.2893  0.1607 -0.0347
    1W        W46509   6.766  22.394   7.661 -0.1612 -0.0877  0.3540
    1W        W46510  27.635   6.041   8.669  0.0736 -0.0659  0.2733
    1W        W46511  10.441  17.289   9.083  0.1823  0.0084 -0.1838
    1W        W46512   4.711   8.925   9.443 -0.1619 -0.4648  0.2015
    1W        W46513   7.928  20.274   8.482  0.0144 -0.2513 -0.0322
    1W        W46514  11.113  19.794   0.861  0.0379  0.0706  0.1224
    1W        W46515  19.868   3.894   0.046 -0.0981 -0.1312 -0.1663
    1W        W46516  18.478  14.656   7.740 -0.0185  0.1481 -0.2072
    1W        W46517   7.219  27.362   9.745  0.0675 -0.0078 -0.2702
    1W        W46518  13.147   7.615   1.321 -0.1785  0.1379 -0.2789
    1W        W46519  19.894   8.693   1.677 -0.0424 -0.1783  0.0981
    1W        W46520  24.303  11.535   9.589  0.3719 -0.3905  0.0694
    1W        W46521  25.957  26.300   9.223 -0.1571  0.1235  0.4229
    1W        W46522   5.019  19.007   8.311 -0.6151 -0.0673  0.4473
    1W        W46523  19.349   3.570   8.505 -0.0899 -0.1953 -0.2647
    1W        W46524   5.778  23.490   1.828  0.0005  0.1170  0.0764
    1W        W46525   8.652  22.264   6.561 -0.2322  0.1350 -0.2107
    1W        W46526   0.579   5.136   7.938  0.0601 -0.1622 -0.1036
    1W        W46527   1.814   4.010   9.428 -0.0270  0.0681 -0.1448
    1W        W46528  16.998  22.580   2.640  0.0228 -0.1124 -0.1194
    1W        W46529   2.743   6.523   7.655  0.0824 -0.0576 -0.0123
    1W        W46530   2.527   8.070   9.644  0.1858  0.1883 -0.3200
    1W        W46531  13.002  17.535   9.873  0.3305 -0.2936 -0.3488
    1W        W46532   2.878  28.055   9.132  0.1573  0.2286 -0.2561
    1W        W46533  13.962   2.847   1.037 -0.0700  0.2583 -0.1874
    1W        W46534   4.206   9.488   1.561  0.3213 -0.0848  0.2321
    1W        W46535  14.639  28.182   3.468 -0.0444  0.0208 -0.2679
    1W        W46536   5.679  21.950   9.061 -0.2505 -0.1176  0.0627
    1W        W46537   7.447   0.799   1.263  0.2285  0.1713 -0.0723
    1W        W46538  14.563  11.261   7.353 -0.0481 -0.0193 -0.0654
    1W        W46539   1.947  23.432   9.350 -0.5209  0.1240 -0.0644
    1W        W46540  22.783  28.119   9.523  0.0179  0.3227 -0.0194
    1W        W46541   9.509   5.298   8.595 -0.0644 -0.0720  0.1423
    1W        W46542  18.353   4.834   0.241 -0.3599  0.0401 -0.0469
    1W        W46543  15.317  22.398   0.005  0.2392 -0.1654  0.0687
    1W        W46544  21.347  13.532   1.701 -0.1828  0.2143 -0.1333
    1W        W46545  16.232  14.858   1.466  0.2069 -0.0149 -0.1407
    1W        W46546  17.045   5.342   1.617  0.1418  0.3640 -0.3049
    1W        W46547  23.290   6.814   7.123 -0.2363  0.0619  0.1905
    1W        W46548   5.479   6.844   2.873  0.1406  0.2790  0.0709
    1W        W46549   8.494  19.056   8.870  0.2501  0.1265  0.2039
    1W        W46550   7.111  22.099   0.826  0.0334 -0.2423  0.1976
    1W        W46551  25.982   9.239   2.068  0.1511  0.2441 -0.0590
    1W        W46552  11.672  16.718   2.279 -0.1176 -0.0688  0.2412
    1W        W46553  24.550  13.874   8.223  0.1323 -0.0066  0.2740
    1W        W46554  18.748  15.813   7.454 -0.0200 -0.1732 -0.2700
    1W        W46555   0.056  19.639   9.861  0.3454 -0.0329  0.0614
    1W        W46556  28.032   5.464   9.382 -0.2188 -0.3755 -0.4769
    1W        W46557   8.992   9.330   2.330 -0.0121  0.1423 -0.0528
    1W        W46558  20.232  24.295   0.819 -0.0161  0.2355  0.1750
    1W        W46559  28.139   1.676   1.076 -0.1075  0.2365  0.2302
    1W        W46560  15.188  24.507   1.646 -0.1482  0.1952  0.1074
    1W        W46561  15.865   9.523   2.149 -0.2237 -0.0752 -0.1924
    1W        W46562   2.321   5.805   7.440 -0.1533  0.1828 -0.1610
    1W        W46563   2.414  10.373   7.431  0.0927  0.2919 -0.0497
    1W        W46564   5.892  12.926   8.013  0.1552 -0.2191  0.1352
    1W        W46565  23.281  25.091   1.984  0.1788 -0.1184  0.1151
    1W        W46566  16.729   5.175   2.581 -0.0278  0.0586  0.1794
    1W        W46567  13.458   4.411   8.538  0.0735 -0.0590 -0.2766
    1W        W46568  10.677   5.487   8.496  0.1391  0.2178 -0.0751
    1W        W46569  11.703  17.151   1.826 -0.3454  0.2833 -0.1275
    1W        W46570  16.010  24.525   0.831 -0.1846 -0.2100  0.0895
    1W        W46571  19.226   2.228   2.213 -0.1595  0.0078 -0.2534
    1W        W46572  26.266   5.144   0.083 -0.1204 -0.2019  0.2553
    1W        W46573  28.344  11.390   7.763  0.0124 -0.0479 -0.3217
    1W        W46574   5.618  26.853   2.110  0.0695  0.0047 -0.0475
    1W        W46575  21.868  23.601   0.719 -0.0321 -0.0006 -0.2094
    1W        W46576   7.653  14.548   2.069 -0.3083 -0.2472  0.1329
    1W        W46577   0.823   5.766   5.836  0.1038  0.0013  0.0388
    1W        W46578  15.704   5.704   1.191  0.3355 -0.0813  0.0256
    1W        W46579  27.840  24.299   1.720 -0.1157 -0.0405  0.0492
    1W        W46580  13.834  17.943   7.521  0.1776  0.0349 -0.0448
    1W        W46581   3.363   7.227   9.690 -0.2670  0.1083 -0.0683
    1W        W46582  28.110   2.205   1.105 -0.2466 -0.1474  0.0793
    1W        W46583  10.090  12.111   2.437 -0.0424 -0.0020 -0.1888
    1W        W46584  18.496   2.269   0.168  0.0554  0.1626 -0.0238
    1W        W46585  12.344  22.711   1.854 -0.0081  0.0622 -0.0011
    1W        W46586   9.523  11.432   0.183 -0.3799 -0.1281 -0.0965
    1W        W46587   2.903  19.767   5.571  0.1325  0.0983  0.0331
    1W        W46588  13.750  26.975   8.951  0.0580  0.1375 -0.0432
    1W        W46589  11.677  28.311   1.288  0.2386  0.1450 -0.0392
    1W        W46590  25.040   5.106   1.795 -0.0221 -0.2506  0.1422
    1W        W46591  12.270  18.259   9.838 -0.4367 -0.0767 -0.1794
    1W        W46592   6.687   8.183   1.098 -0.0667 -0.1329 -0.0151
    1W        W46593  12.116  25.612   2.472  0.0283  0.0314  0.1251
    1W        W46594  19.613  10.509   2.281 -0.0455  0.0128  0.0375
    1W        W46595   6.789   6.935   9.045  0.1723 -0.0440  0.0164
    1W        W46596  25.532   9.906   2.656 -0.2342 -0.2413 -0.0336
    1W        W46597  22.329  17.808   9.795 -0.1234  0.0667  0.3504
    1W        W46598  16.447  26.128   2.878  0.0360 -0.2247  0.2052
    1W        W46599  20.799  10.722   1.885 -0.1272  0.1749 -0.0842
    1W        W46600  28.198  25.781   1.291  0.1104 -0.1888 -0.2933
    1W        W46601  22.664  20.361   9.575 -0.0047 -0.0962 -0.3049
    1W        W46602   6.174  28.130   9.105 -0.2548 -0.1492  0.2842
    1W        W46603   7.114   6.630   9.396  0.1160  0.1707 -0.0122
    1W        W46604  12.398  21.382   8.366 -0.0615  0.0793 -0.1663
    1W        W46605   7.583  20.463   7.621  0.1439 -0.0495 -0.2305
    1W        W46606   4.895  16.498   6.990  0.0687 -0.0368 -0.1703
    1W        W46607  11.499  19.271   1.953 -0.0135  0.3151 -0.1103
    1W        W46608   5.400  11.489   9.587  0.2145  0.2315  0.3899
    1W        W46609   9.179  23.831   9.149 -0.1055 -0.1409 -0.2759
    1W        W46610  18.931   8.504   0.283 -0.0882 -0.3561 -0.1327
    1W        W46611  12.161  13.240   2.994 -0.2670  0.1110  0.4202
    1W        W46612   6.628  22.464   0.184 -0.4718  0.0944  0.2922
    1W        W46613  20.752   8.204   8.049 -0.1546  0.1605  0.2511
    1W        W46614  27.744   9.511   6.773  0.3580 -0.2557 -0.4892
    1W        W46615   5.853   7.301   0.682  0.0323 -0.0205 -0.2274
    1W        W46616  21.757   6.300   3.213  0.0710 -0.1799 -0.2064
    1W        W46617  25.122  10.733   0.837 -0.1471  0.1500 -0.1208
    1W        W46618   0.573  14.496   2.370 -0.0819  0.3890  0.0515
    1W        W46619  14.160  10.897   7.487  0.2269  0.1482  0.1015
    1W        W46620  19.639   9.557   7.344 -0.0037 -0.0940 -0.1608
    1W        W46621  11.723  28.356   8.406  0.2055  0.2121  0.0756
    1W        W46622  19.263   6.425   2.025  0.0497 -0.0028  0.0692
    1W        W46623  14.392   6.995   8.435 -0.0182  0.0391  0.1819
    1W        W46624   0.581  28.066   7.885  0.1223 -0.3414 -0.0685
    1W        W46625  13.958  18.374   8.838  0.0832  0.0975 -0.2998
    1W        W46626  16.035  18.723   1.498 -0.0034  0.0812  0.1333
    1W        W46627  24.007  26.084   3.341 -0.1746 -0.0850 -0.0515
    1W        W46628  15.476   4.010   9.595 -0.0084 -0.1127 -0.1941
    1W        W46629  23.136  24.133   8.879 -0.2276  0.1372 -0.1754
    1W        W46630  26.606  22.846   1.387  0.0424 -0.0624 -0.1737
    1W        W46631   3.700  23.997   9.364  0.2429  0.0527  0.0571
    1W        W46632   1.447   8.496   7.246  0.1170  0.4708  0.0634
    1W        W46633   7.537  13.603   1.393  0.1346  0.0357  0.2658
    1W        W46634   6.675  27.116   7.122  0.1070  0.1918 -0.1570
    1W        W46635   3.140  17.279   2.577  0.2300 -0.1513  0.0629
    1W        W46636  11.697  20.586   7.223  0.3386  0.1470 -0.0093
    1W        W46637  28.243  12.385   0.791 -0.2587 -0.0573  0.0434
    1W        W46638   2.049  11.427   6.765 -0.2699  0.1026  0.1079
    1W        W46639   7.871  10.460   6.958  0.0027  0.2211  0.1537
    1W        W46640  15.487  22.063   9.069 -0.3261 -0.1565 -0.3197
    1W        W46641  27.968  28.659   0.219 -0.0676  0.2918 -0.2085
    1W        W46642  10.642  22.111   0.983  0.0287 -0.0614  0.3454
    1W        W46643  23.160  11.944   2.569 -0.1643 -0.1349  0.0565
    1W        W46644   8.637   1.889   0.638  0.1059  0.0317 -0.0554
    1W        W46645  16.461  25.415   2.413 -0.0017 -0.0508 -0.0766
    1W        W46646  19.801   3.677   1.829  0.0250 -0.1571 -0.1493
    1W        W46647   1.665  22.395   1.222 -0.1099  0.1681  0.3032
    1W        W46648   1.893  11.619   1.371 -0.1849 -0.0908  0.2210
    1W        W46649  15.110  10.077   2.316  0.2354  0.3150  0.0406
    1W        W46650  22.629  11.852   2.781 -0.0123 -0.0079 -0.1945
    1W        W46651   9.193  15.903   1.516 -0.2366  0.1461 -0.4450
    1W        W46652  14.084  20.869   8.750 -0.0401 -0.0175  0.0178
    1W        W46653  22.817  21.742   3.094  0.2388 -0.0481 -0.0783
    1W        W46654  11.239  12.122   7.147  0.1701 -0.1378  0.1924
    1W        W46655   2.441  11.884   5.993  0.0952 -0.0373 -0.1713
    1W        W46656  13.665  12.050   9.483 -0.1806 -0.1033  0.0072
    1W        W46657  23.235  23.852   0.514 -0.0657 -0.0134 -0.2032
    1W        W46658   1.345  23.378   8.450  0.0730  0.0298 -0.0542
    1W        W46659  19.312  22.912   1.263  0.1151 -0.0464  0.2352
    1W        W46660  25.073   5.355   8.757 -0.0097 -0.2949 -0.0184
    1W        W46661   1.645   3.406   9.802  0.0196  0.2360  0.1423
    1W        W46662  17.616  17.914   7.322  0.1702 -0.0349  0.3128
    1W        W46663   8.384   6.366   0.353  0.1932  0.4190  0.0681
    1W        W46664   7.874   9.678   1.266 -0.0622  0.2328 -0.4576
    1W        W46665  15.042  18.413   2.953 -0.1380 -0.4076 -0.2742
    1W        W46666  18.125   2.469   2.654  0.1412 -0.0772  0.0415
    1W        W46667   5.215  17.667   6.724  0.0075  0.0531  0.0846
    1W        W46668  25.087   5.835   1.271 -0.0089 -0.0288  0.1604
    1W        W46669  18.016  23.076   1.465  0.2709  0.1948 -0.0465
    1W        W46670   6.062   0.351   3.552 -0.0517  0.1423  0.1479
    1W        W46671  13.264  10.693   1.522 -0.1874  0.0705 -0.2834
    1W        W46672   2.950   5.437   8.397  0.0876 -0.0772 -0.1463
    1W        W46673   1.174  18.695   1.902  0.1027 -0.1955 -0.0755
    1W        W46674  25.500   4.620   8.422  0.3173  0.0591  0.3973
    1W        W46675   3.608   5.027   7.897 -0.0305  0.0637  0.2477
    1W        W46676   4.947  23.194   9.899 -0.0313  0.0788  0.0860
    1W        W46677  20.719  18.450   9.678  0.1053  0.1720 -0.0576
    1W        W46678  22.688  18.491   7.543  0.0331 -0.0572 -0.1008
    1W        W46679  12.680  25.790   3.259 -0.0301 -0.0616 -0.0631
    1W        W46680  11.737  27.115   9.764  0.0350  0.0663 -0.1990
    1W        W46681   4.091   7.836   2.625 -0.0762  0.0380  0.2808
    1W        W46682  11.991   8.194   2.127  0.2422 -0.0729 -0.0969
    1W        W46683  20.852  17.460   9.671  0.4481 -0.2492  0.0186
    1W        W46684  27.336  23.467   9.083  0.2085 -0.0520  0.1497
    1W        W46685  10.723  23.684   3.213  0.0957  0.1367  0.2308
    1W        W46686   3.862  20.601   1.940  0.0752 -0.2733 -0.5636
    1W        W46687  13.443  24.578   7.716 -0.2285  0.2597  0.0261
    1W        W46688   0.490  21.559   0.195  0.0058  0.3616 -0.0039
    1W        W46689  19.976  25.721   2.727  0.1051 -0.2558 -0.0241
    1W        W46690  10.401  18.195   8.373  0.0189 -0.3160  0.1968
    1W        W46691  12.215   7.494   8.537 -0.2626 -0.1938 -0.0851
    1W        W46692   5.106  13.004   8.318 -0.1533 -0.3048  0.0595
    1W        W46693  23.136  17.230   0.134  0.0079  0.0020  0.3548
    1W        W46694  20.216  15.818   8.973  0.1125 -0.1028 -0.0923
    1W        W46695  12.987   4.480   0.766  0.1557  0.0500  0.2209
    1W        W46696  25.892  28.695   8.033  0.0087  0.5616 -0.0442
    1W        W46697  19.032  23.476   0.506 -0.0747  0.0270 -0.0944
    1W        W46698  25.269  16.583   7.300 -0.0225 -0.3058  0.0129
    1W        W46699  28.130   6.138   8.820  0.3419 -0.3077  0.1513
    1W        W46700   1.691   1.587   8.109 -0.2883 -0.1658 -0.0467
    1W        W46701   0.450  16.799   2.035  0.0991 -0.1110 -0.1309
    1W        W46702   7.690  10.105   7.857  0.0365 -0.1108  0.0975
    1W        W46703   2.711  16.334   1.788  0.1821 -0.1135 -0.1809
    1W        W46704  15.235  25.040   7.862  0.1287  0.0980 -0.0096
    1W        W46705   2.549  27.110   1.259  0.3122  0.2311  0.0893
    1W        W46706  21.966   4.500   2.373 -0.1673 -0.0881 -0.0503
    1W        W46707  14.425  26.678   9.883  0.0553  0.1730  0.0066
    1W        W46708   4.202  17.376   8.409  0.1750  0.5936  0.0312
    1W        W46709  13.909  17.487   7.495  0.1979  0.2069  0.2865
    1W        W46710  19.730   2.744   9.437  0.2056 -0.0830  0.2226
    1W        W46711   9.809  23.315   6.572  0.1665  0.2252 -0.1078
    1W        W46712   4.436   3.338   9.273 -0.0037 -0.4406  0.1923
    1W        W46713  21.261   8.844   1.540 -0.1575  0.1856 -0.0649
    1W        W46714  10.154   9.823   0.624 -0.0872  0.2255  0.0124
    1W        W46715  23.560  20.711   2.079 -0.2400 -0.2045 -0.1436
    1W        W46716   1.971  22.445   7.661  0.0120 -0.3074  0.2521
    1W        W46717   7.012   9.132   8.508  0.0456 -0.0989  0.4680
    1W        W46718   9.880   4.208   2.210  0.0161  0.0825 -0.0944
    1W        W46719   2.671  11.302   8.333  0.3080 -0.1589 -0.2483
    1W        W46720  14.657  18.540   9.750  0.0376  0.0050 -0.0915
    1W        W46721  23.873  14.733   1.178  0.2159  0.0813 -0.3358
    1W        W46722   6.189   8.185   3.507  0.2884 -0.1522  0.1334
    1W        W46723  24.385   2.833   0.721  0.1207  0.1367  0.0265
    1W        W46724  12.448  20.762   9.358  0.0290  0.2872 -0.0426
    1W        W46725   4.897  15.899   9.685  0.0531 -0.1525 -0.0962
    1W        W46726  10.612  26.626   8.467 -0.0716  0.0069  0.1383
    1W        W46727  22.523  14.968   8.315 -0.0344 -0.1149  0.0665
    1W        W46728  13.440  28.151   9.005 -0.2950 -0.0281 -0.3073
    1W        W46729   8.739   6.373   2.857 -0.1080 -0.0144 -0.1932
    1W        W46730   7.911  17.156   2.108  0.2582 -0.0810  0.4341
    1W        W46731   7.576  18.683   7.578  0.4546 -0.1086  0.1641
    1W        W46732   4.304   1.283   0.511 -0.1421  0.2020 -0.2479
    1W        W46733  13.536  17.645   9.834  0.0355 -0.0240  0.3807
    1W        W46734  15.253  24.218   8.277  0.1359 -0.0326 -0.3790
    1W        W46735  10.984   3.449   8.802  0.1706 -0.0704 -0.2199
    1W        W46736   6.042   8.628   3.274 -0.2697  0.1554  0.0938
    1W        W46737   7.276  26.764   3.691  0.0707  0.4845 -0.0026
    1W        W46738   8.212  27.284   0.379  0.0772  0.1822  0.1278
    1W        W46739  28.376  23.804   2.568  0.0433 -0.2858 -0.3960
    1W        W46740  19.522   8.383   3.312 -0.2634 -0.2002  0.0864
    1W        W46741  27.883  24.667   9.567  0.0051  0.2648  0.0637
    1W        W46742  26.183   9.960   1.014  0.1971  0.2957  0.0533
    1W        W46743  25.965  19.281   7.527 -0.0731 -0.0763 -0.0548
    1W        W46744  11.891   4.808   0.203 -0.0899 -0.1667 -0.3626
    1W        W46745  14.100  28.383   8.569 -0.0627  0.1456  0.1061
    1W        W46746  21.208   6.900   0.655  0.1107  0.1908  0.0564
    1W        W46747  17.873  15.919   2.183  0.0423 -0.1467  0.1149
    1W        W46748   8.287  23.633   0.672  0.1018 -0.0616 -0.0043
    1W        W46749  21.802  14.577   9.908 -0.5071  0.1542  0.1395
    1W        W46750  15.457   3.058   9.452  0.1355  0.2698  0.0444
    1W        W46751   0.471   3.155   8.021  0.0614 -0.2930  0.1999
    1W        W46752  10.750  22.014   0.537  0.1778  0.4137  0.0347
    1W        W46753   4.281  17.236   6.721 -0.0532  0.0778  0.5798
    1W        W46754  11.630  16.341   0.009 -0.0184  0.2386 -0.1067
    1W        W46755   7.854  18.757   9.759  0.0720  0.4128  0.1127
    1W        W46756  14.209  23.519   1.245  0.0664 -0.1433  0.0754
    1W        W46757  10.142   1.727   1.177 -0.0520 -0.3180  0.0975
    1W        W46758  16.887  24.850   0.964  0.2694 -0.2215 -0.0499
    1W        W46759  18.009  15.231   8.380  0.1823  0.2269 -0.0162
    1W        W46760   2.409  13.763   0.775 -0.3054  0.0129 -0.1115
    1W        W46761  18.025  16.999   7.771  0.3446 -0.0158  0.0459
    1W        W46762  21.074  13.786   2.077  0.0630 -0.0191 -0.1262
    1W        W46763   1.050   5.128   6.826  0.0794  0.0447  0.1001
    1W        W46764   4.899  23.630   6.833 -0.2871 -0.3163  0.0961
    1W        W46765   1.125  14.806   7.607  0.0885 -0.2552  0.1080
    1W        W46766   1.569  10.836   1.928 -0.1236  0.0816 -0.0704
    1W        W46767  21.784  12.386   2.302  0.2346 -0.0164  0.0257
    1W        W46768  27.222  23.681   1.788  0.0322 -0.2520  0.1365
    1W        W46769  23.417  24.186   2.436 -0.0404 -0.3677  0.1231
    1W        W46770   7.270   2.371   7.448  0.2667 -0.1556 -0.1808
    1W        W46771  16.305  10.716   1.822 -0.4031 -0.2125  0.0712
    1W        W46772   9.020   0.860   8.339  0.0462  0.2927 -0.1670
    1W        W46773  27.975  26.811   9.951 -0.2199  0.1135 -0.1427
    1W        W46774   0.504  19.443   8.200 -0.0701  0.3061  0.0851
    1W        W46775  23.695  18.831   9.680  0.1172  0.0792  0.0731
    1W        W46776  11.632  18.506   2.199 -0.1416 -0.2378  0.2614
    1W        W46777   1.312  26.787   3.312  0.0591  0.2447 -0.1412
    1W        W46778  16.520  23.528   8.520  0.1699 -0.0239  0.1536
    1W        W46779  16.724  20.777   2.189 -0.0108  0.0226  0.2201
    1W        W46780   6.784  15.037   9.754  0.2149 -0.2600 -0.2205
    1W        W46781  23.746   1.324   9.224 -0.0641 -0.1347 -0.1426
    1W        W46782   1.871  19.852   6.847  0.1132  0.0585 -0.1186
    1W        W46783  17.761  19.590   0.396 -0.1946 -0.1429 -0.1949
    1W        W46784  16.659   5.594   2.314  0.0661 -0.2426 -0.1478
    1W        W46785  10.710  24.707   9.833  0.3887  0.0903 -0.3552
    1W        W46786  12.640  24.792   7.322  0.1440  0.2742  0.0972
    1W        W46787   3.775   8.766   8.150 -0.0309  0.0712 -0.1089
    1W        W46788  28.159  10.246   8.337 -0.2271 -0.2957 -0.1328
    1W        W46789  24.410  12.089   1.290 -0.1557 -0.3169 -0.0552
    1W        W46790   5.641  20.776   6.929  0.3486 -0.2817 -0.0419
    1W        W46791   9.783  22.760   1.375 -0.0893  0.1126  0.1774
    1W        W46792   7.797  15.771   8.369 -0.0959  0.0806  0.0651
    1W        W46793  24.342  17.778   3.242 -0.2692  0.0002 -0.0933
    1W        W46794  16.769   3.642   7.328  0.1162  0.0950 -0.2156
    1W        W46795  26.312   3.274   0.811 -0.2402  0.0374 -0.0226
    1W        W46796   3.159  16.508   7.357 -0.0971 -0.0996  0.1108
    1W        W46797  23.012  25.108   7.626 -0.1508 -0.1279 -0.2258
    1W        W46798   9.869  19.381   1.694 -0.1973 -0.0308  0.1272
    1W        W46799   1.191   5.624   6.961  0.0476 -0.0203 -0.4577
    1W        W46800  22.205  28.212   7.587 -0.1086 -0.1121  0.1540
    1W        W46801  22.982   2.203   7.277  0.0840  0.3438 -0.0264
    1W        W46802  25.117  20.390   6.300 -0.0769  0.3773 -0.2379
    1W        W46803  19.764  13.593   0.456  0.1980  0.1233  0.2756
    1W        W46804  14.136  16.275   8.322 -0.0397 -0.1562 -0.2380
    1W        W46805  10.206  26.429   1.577 -0.0910  0.4058 -0.0152
    1W        W46806   5.424   1.458   9.957 -0.1334 -0.1878  0.3435
    1W        W46807   5.135  16.336   9.744  0.1361  0.0240  0.3602
    1W        W46808  16.898   5.430   3.518 -0.1465  0.0298  0.4206
    1W        W46809   3.940  24.334   9.063  0.0578  0.0127 -0.0636
    1W        W46810   3.766  14.447   8.338  0.0443 -0.1765 -0.0849
    1W        W46811  27.787  21.277   9.825 -0.2672 -0.2250  0.0857
    1W        W46812  12.898   2.320   3.186 -0.0671  0.1037  0.1548
    1W        W46813  22.644  19.458   7.573 -0.1213 -0.0444  0.0473
    1W        W46814  24.416  10.368   1.872 -0.0501  0.0393 -0.1268
    1W        W46815   4.039  25.033   0.768  0.5168 -0.2571 -0.0679
    1W        W46816  11.217  21.269   7.452  0.1207  0.1506 -0.0398
    1W        W46817  15.387  13.487   9.947 -0.1928 -0.1949 -0.1110
    1W        W46818   0.876   3.277   8.901 -0.4048  0.3069  0.0724
    1W        W46819   7.339  25.530   7.596  0.1853  0.2580  0.1911
    1W        W46820  28.343  23.601   6.065  0.0589  0.0819 -0.0531
    1W        W46821  19.366  25.836   0.697  0.0510 -0.1451  0.0444
    1W        W46822   0.212  14.290   6.158 -0.1324  0.4671  0.1856
    1W        W46823  25.397  23.011   9.026  0.1877  0.0459 -0.1781
    1W        W46824  15.033  24.024   2.410 -0.2974 -0.0158 -0.1366
    1W        W46825  25.863   3.598   8.281  0.0016 -0.1103 -0.2974
    1W        W46826  18.928   8.598   9.213 -0.0465  0.0729  0.1143
    1W        W46827   4.721  20.621   0.970  0.1374 -0.0136  0.2372
    1W        W46828   7.985  27.414   1.706  0.1214  0.3511  0.2537
    1W        W46829  27.789   0.270   2.768 -0.0006  0.2452 -0.0472
    1W        W46830  28.022   1.210   0.935 -0.0839  0.2060 -0.2317
    1W        W46831   5.478  16.897   8.337  0.3719  0.0387  0.0444
    1W        W46832   5.121  15.102   7.258  0.1343 -0.2906  0.0982
    1W        W46833   7.453   9.234   9.376  0.0741 -0.1694  0.1375
    1W        W46834  26.546   7.809   0.538 -0.0402  0.3481  0.0969
    1W        W46835  14.241   3.737   8.404 -0.2017  0.1900  0.0167
    1W        W46836  11.683  12.150   1.413  0.2632 -0.1056  0.0185
    1W        W46837  18.334  14.787   0.915 -0.0628 -0.1817  0.0201
    1W        W46838  21.978   2.235   1.897  0.2455  0.0276  0.0263
    1W        W46839  25.179  25.424   9.081  0.2889  0.0032  0.4071
    1W        W46840  14.273  27.630   9.238 -0.2175 -0.3527  0.0312
    1W        W46841  13.455  24.085   0.372 -0.0033 -0.2471 -0.1212
    1W        W46842  17.463   4.526   0.383 -0.1317 -0.2683  0.1097
    1W        W46843  23.094  13.578   1.202  0.1461 -0.0334 -0.0795
    1W        W46844   3.488  20.083   1.264  0.2762  0.0797 -0.0553
    1W        W46845  18.083  14.840   1.988 -0.0347  0.1351 -0.2563
    1W        W46846  23.926   1.718   9.578  0.3544  0.0863  0.2616
    1W        W46847   7.356  12.873   9.047  0.0376  0.2538  0.1456
    1W        W46848   6.106  17.343   9.449 -0.0066  0.0497  0.0533
    1W        W46849   8.518   5.579   8.516  0.3321 -0.2448  0.1220
    1W        W46850  13.657   7.265   0.376 -0.0638  0.2225  0.2208
    1W        W46851  11.681  21.547   1.233 -0.0823  0.2188  0.1432
    1W        W46852  28.029  12.244   1.764  0.1539 -0.0667 -0.0995
    1W        W46853  10.317   7.287   1.241 -0.1219  0.0572 -0.1791
    1W        W46854   4.344  21.816   2.555 -0.2584 -0.0506  0.0140
    1W        W46855   3.388   8.043   2.219  0.1765  0.0921  0.1485
    1W        W46856   5.879  28.505   3.848  0.1144  0.0603 -0.0060
    1W        W46857   0.247  19.479   6.140  0.1159  0.1292 -0.0042
    1W        W46858  17.581  10.388   1.990  0.0637  0.0157  0.1742
    1W        W46859   2.949  19.064   8.753  0.1108  0.0745 -0.1217
    1W        W46860  22.306  17.233   7.203  0.0772  0.1153 -0.2728
    1W        W46861  23.563  11.812   6.948  0.0043  0.2061 -0.2236
    1W        W46862  13.346  24.065   9.336 -0.0683 -0.0783  0.1270
    1W        W46863  21.458   7.156   1.049  0.1368 -0.0694 -0.1315
    1W        W46864  20.571  10.658   2.751  0.1616 -0.2894 -0.2734
    1W        W46865   5.437  21.324   7.751 -0.1975  0.2257 -0.0479
    1W        W46866   7.583  22.288   6.716 -0.3203 -0.2703 -0.3342
    1W        W46867  15.320  11.137   8.117  0.2262 -0.0801  0.0542
    1W        W46868  20.996  22.269   8.179 -0.0557  0.1177 -0.0008
    1W        W46869  28.682   0.416   9.624 -0.0012  0.2545 -0.0022
    1W        W46870  11.190  26.857   1.499 -0.1840 -0.3718 -0.0150
    1W        W46871  24.397   6.270   7.540  0.1673  0.2545  0.1913
    1W        W46872   4.595  22.773   7.818 -0.0326 -0.0965 -0.2740
    1W        W46873  12.775  23.469   7.590  0.1037 -0.2237 -0.1193
    1W        W46874   4.238  11.728   7.652 -0.0587  0.2494 -0.0229
    1W        W46875  28.063  15.923   9.431  0.3419  0.0035 -0.0719
    1W        W46876   3.879   6.644   7.703  0.0359  0.0979  0.1641
    1W        W46877  14.863  15.951   8.982  0.0725 -0.0942 -0.3503
    1W        W46878  22.003   2.553   9.038  0.0497  0.2529 -0.3507
    1W        W46879  27.414   0.814   2.002 -0.0549  0.1175 -0.0301
    1W        W46880  27.272  26.011   7.770  0.0084  0.2685 -0.4193
    1W        W46881  10.314   3.685   1.057 -0.0962  0.0527 -0.1113
    1W        W46882  13.825   6.655   3.593 -0.1089 -0.0690 -0.1348
    1W        W46883  17.822  27.424   2.494 -0.1656 -0.0158  0.1008
    1W        W46884  13.938  13.507   8.219 -0.2699  0.2354  0.2712
    1W        W46885   5.906  12.199   3.409 -0.1042  0.1504  0.0918
    1W        W46886   3.452  28.170   2.342 -0.4468 -0.0665 -0.0310
    1W        W46887  19.213  21.563   0.001 -0.1468  0.3024  0.0440
    1W        W46888  12.440  11.941   3.019  0.2198  0.1011 -0.0001
    1W        W46889  17.228  27.236   9.659 -0.4806 -0.0551  0.2385
    1W        W46890  12.003  26.160   7.592  0.0211 -0.1804 -0.1887
    1W        W46891   8.873  18.601   0.892 -0.2656  0.2800 -0.0800
    1W        W46892  15.048   5.851   1.978 -0.3851 -0.1481  0.0584
    1W        W46893  27.398  14.212   7.617 -0.2416  0.0463  0.0218
    1W        W46894   3.131  13.518   9.826 -0.1205  0.0351 -0.0063
    1W        W46895   8.519   2.104   1.339 -0.3802  0.2134  0.2168
    1W        W46896  20.833   8.825   7.265 -0.0099  0.1208  0.1349
    1W        W46897  12.244  26.175   9.153  0.0520  0.1590 -0.3128
    1W        W46898  11.510   1.948   3.193 -0.4694  0.2909  0.0069
    1W        W46899  27.270   2.553   3.003  0.1574 -0.0126 -0.2498
    1W        W46900   3.596   9.453   2.909 -0.0355  0.2032  0.0530
    1W        W46901   8.683   5.201   6.610 -0.1825 -0.3044 -0.1332
    1W        W46902  12.975   2.175   9.634  0.0159 -0.1620  0.0209
    1W        W46903  21.211  17.839   2.588 -0.2134  0.1320 -0.0279
    1W        W46904   9.116   1.537   2.519 -0.0030  0.1177 -0.2569
    1W        W46905  11.975   3.304   1.881  0.3811 -0.0096  0.1538
    1W        W46906  20.761  10.280   3.330  0.2265 -0.0548  0.1580
    1W        W46907  28.209  17.113   7.302  0.2130  0.1487  0.0683
    1W        W46908  21.466  14.738   9.123  0.4126  0.0370  0.0927
    1W        W46909  26.563   9.564   0.895  0.1530 -0.2163 -0.1907
    1W        W46910   5.683   4.779   1.271  0.0164  0.2934  0.1920
    1W        W46911   4.186  26.917   9.083 -0.1165  0.0450 -0.2197
    1W        W46912  24.269  24.611   0.336 -0.0888  0.0767 -0.3819
    1W        W46913   6.931   1.201   8.924  0.1303 -0.1534  0.1976
    1W        W46914  20.419   1.027   9.594 -0.0199  0.1256 -0.1761
    1W        W46915  10.910   3.972   9.107  0.0195  0.0909 -0.0214
    1W        W46916  18.071   1.205   1.650 -0.4949 -0.0891 -0.0928
    1W        W46917  20.230  22.061   1.601 -0.1863 -0.1620  0.1272
    1W        W46918  25.097  27.973   7.691  0.0812 -0.0537 -0.4195
    1W        W46919  11.663  17.910   8.132 -0.1303 -0.2121 -0.2572
    1W        W46920  25.203  21.745   3.390 -0.3749  0.0003  0.0168
    1W        W46921  22.060  20.181   7.483 -0.0671 -0.1244 -0.0103
    1W        W46922  27.299   5.321   7.748 -0.0198 -0.1200  0.3612
    1W        W46923  25.435   2.462   2.024  0.2121 -0.1283 -0.0541
    1W        W46924   1.126  24.814   2.471 -0.1950  0.0712 -0.2109
    1W        W46925  22.365  14.470   8.286 -0.1361  0.1725  0.3263
    1W        W46926   4.339  21.572   9.478 -0.0474 -0.0377 -0.0547
    1W        W46927   1.629  17.571   1.800 -0.1634  0.2594 -0.0500
    1W        W46928  20.657  15.836   8.556  0.0677  0.3460  0.1329
    1W        W46929   7.253   7.053   9.071 -0.1503 -0.0088  0.0395
    1W        W46930  26.117  12.301   0.764  0.1227  0.4129 -0.0938
    1W        W46931  22.569  27.160   9.265 -0.0484 -0.2937  0.0479
    1W        W46932   2.810  24.006   7.216 -0.1696 -0.1112  0.0054
    1W        W46933   0.375  10.274   1.471 -0.0074  0.3095 -0.0280
    1W        W46934  10.152   3.607   1.558  0.2359  0.0878 -0.1195
    1W        W46935   3.554   1.101   2.747  0.0126 -0.1254  0.1360
    1W        W46936  19.880  27.773   2.091 -0.0733  0.1652 -0.0612
    1W        W46937  26.660  19.577   2.025 -0.2257 -0.0383 -0.2289
    1W        W46938  15.652   4.310   3.838  0.1222  0.1925 -0.1064
    1W        W46939   6.111  18.998   6.711  0.1051 -0.0535  0.0015
    1W        W46940  10.662  15.606   8.985 -0.1049 -0.1507  0.0994
    1W        W46941   9.263  10.886   9.286  0.2302 -0.2001 -0.2676
    1W        W46942  24.908   6.414   8.391  0.0176  0.0687  0.2262
    1W        W46943  17.712  25.977   1.607 -0.0769 -0.4788 -0.2632
    1W        W46944   4.209  14.764   1.718  0.1430 -0.2095  0.2352
    1W        W46945   7.099  20.175   6.910 -0.2962 -0.2147  0.0897
    1W        W46946   8.210   3.100   9.122  0.3928 -0.0745 -0.2681
    1W        W46947  20.485  19.167   2.875 -0.2008  0.0516  0.0617
    1W        W46948  10.666   6.417   0.708 -0.0977 -0.0702  0.3111
    1W        W46949   7.085  17.418   6.657 -0.2466 -0.0087 -0.1760
    1W        W46950  28.390  19.227   5.899 -0.0640 -0.0724  0.1877
    1W        W46951   9.103  14.097   0.706  0.0920 -0.1219  0.2436
    1W        W46952  25.697  21.503   2.156 -0.2473 -0.1963  0.3040
    1W        W46953   3.500   6.305   7.460  0.1553  0.0102  0.2090
    1W        W46954  12.899   2.917   1.742 -0.2039 -0.1516  0.1261
    1W        W46955  26.867  27.057   0.186  0.2193  0.2100  0.2515
    1W        W46956  13.290   3.258   9.222 -0.0062 -0.2676 -0.0642
    1W        W46957   2.558  17.903   6.446 -0.1002  0.1696 -0.0431
    1W        W46958  25.403  22.632   0.062 -0.1236 -0.2297 -0.2154
    1W        W46959   6.826  13.844   8.064  0.3366 -0.3523  0.0011
    1W        W46960  17.561  14.272   9.198 -0.0210 -0.3968 -0.3817
    1W        W46961  16.334  27.916   0.390 -0.1024  0.2673  0.1716
    1W        W46962  16.430  12.704   1.582  0.0860 -0.1598  0.0445
    1W        W46963  20.971   6.819   8.857 -0.3654  0.0071  0.2338
    1W        W46964   0.687  22.131   2.388 -0.1030  0.0058 -0.0112
    1W        W46965  16.622   0.694   3.020 -0.1369 -0.3106 -0.2574
    1W        W46966   5.185  23.362   1.233  0.1851 -0.0645  0.5708
    1W        W46967   2.066   1.056   9.516  0.1609 -0.3745  0.1395
    1W        W46968  26.672  15.480   0.973  0.1900 -0.0054  0.0759
    1W        W46969  15.592   3.172   2.013 -0.2355  0.0214  0.0855
    1W        W46970  15.387  23.755   1.385 -0.2401 -0.0665  0.1420
    1W        W46971  19.439   1.913   9.059  0.0370 -0.1605 -0.0513
    1W        W46972  17.154  12.896   0.199  0.1555 -0.2703 -0.0568
    1W        W46973   2.291   2.545   2.764  0.0774  0.0168  0.0501
    1W        W46974   8.842  16.216   0.444 -0.0427  0.1477  0.1546
    1W        W46975   6.023  19.910   2.253  0.0736 -0.2658 -0.0222
    1W        W46976  27.004   3.379   1.857 -0.2407 -0.1020 -0.2748
    1W        W46977   2.645  17.405   1.542  0.4025  0.0311 -0.2408
    1W        W46978  25.203  14.000   8.285 -0.2677  0.0653 -0.2427
    1W        W46979  11.060  14.015   8.923 -0.1937  0.0642 -0.0479
    1W        W46980   1.752   0.030   6.530  0.0883 -0.3685 -0.2058
    1W        W46981  19.854   5.680   6.871  0.0652  0.0805 -0.1050
    1W        W46982  22.269   7.196   1.435 -0.1451 -0.2702 -0.0866
    1W        W46983  21.770  28.451   9.080  0.2422  0.3478  0.1997
    1W        W46984  12.340  17.702   1.582 -0.1992  0.0270 -0.4117
    1W        W46985  21.878  17.960   9.883  0.2622 -0.2422  0.0893
    1W        W46986   9.358   6.801   9.540  0.2454  0.2392 -0.1987
    1W        W46987   2.987   1.838   8.060  0.2461 -0.0883 -0.0458
    1W        W46988   0.326  25.417   8.090  0.0263  0.1396 -0.0170
    1W        W46989  16.630   3.575   1.890  0.2960 -0.0045  0.0911
    1W        W46990   0.253  18.939   5.779 -0.0431  0.0374 -0.2928
    1W        W46991  26.556  23.265   2.520  0.0035 -0.1306  0.2246
    1W        W46992  18.085  17.730   3.516  0.1517 -0.4258  0.0842
    1W        W46993  16.430  16.071   9.240 -0.2783  0.2387  0.2312
    1W        W46994  27.094  26.572   8.488 -0.2749  0.0563  0.0231
    1W        W46995  19.429   4.652   9.189 -0.2851 -0.2038  0.0721
    1W        W46996  12.475   0.433   2.596  0.2335  0.0836 -0.2632
    1W        W46997   5.227  23.936   8.922 -0.2104  0.1723  0.2557
    1W        W46998   5.589  26.551   9.017  0.2179 -0.0416 -0.2531
    1W        W46999  17.006  16.729   2.086  0.1866 -0.2240 -0.1737
    1W        W47000  20.487  13.310   2.449 -0.1033 -0.2105  0.0091
    1W        W47001  19.784   4.000   2.246  0.1883 -0.0869  0.1019
    1W        W47002  19.348   1.318   6.820 -0.0262  0.0871  0.1244
    1W        W47003  27.512  22.515   9.780  0.0100  0.2174 -0.2471
    1W        W47004  15.743  10.563   9.295 -0.1309  0.0984 -0.1501
    1W        W47005  22.207   9.039   8.386 -0.1175 -0.1673 -0.3081
    1W        W47006  12.302  15.110   2.748 -0.0095  0.1055  0.0594
    1W        W47007  19.524   0.041   7.449 -0.0922 -0.0729 -0.2524
    1W        W47008  20.366   3.669   0.142 -0.0967 -0.0592  0.0430
    1W        W47009   8.583  12.492   3.132 -0.0881  0.1710 -0.1846
    1W        W47010  25.116   3.255   9.684  0.0418 -0.1271  0.1555
    1W        W47011  17.185  20.716   2.203 -0.0600  0.0055 -0.2096
    1W        W47012  26.536  12.207   8.458 -0.1113  0.2029  0.0710
    1W        W47013  28.408  24.311   2.081 -0.0173  0.0068  0.0709
    1W        W47014  14.039   0.975   3.223  0.1309  0.0004 -0.0151
    1W        W47015   8.064  24.772   6.570 -0.0853  0.1154  0.1424
    1W        W47016  17.240  13.361   8.274  0.0537  0.1088  0.1834
    1W        W47017   5.960  21.322   7.803  0.0631 -0.3494  0.0412
    1W        W47018  24.126  21.192   9.490  0.1803 -0.0580 -0.1310
    1W        W47019  16.665  10.218   9.562  0.1116 -0.2664 -0.0905
    1W        W47020  25.122  17.180   8.952  0.0496  0.2428 -0.2239
    1W        W47021  22.313   4.364   3.010  0.0303 -0.1257 -0.1937
    1W        W47022  10.959  14.124   8.065  0.0556 -0.0013 -0.1523
    1W        W47023  18.894   3.164   6.883 -0.0918  0.2431  0.1347
    1W        W47024   3.664  12.288   2.101  0.2322 -0.0245  0.2094
    1W        W47025   7.380   6.030   0.263 -0.2062  0.0505 -0.0367
    1W        W47026   1.142  13.481   0.612  0.1186  0.1200 -0.1585
    1W        W47027  19.054   9.468   0.372  0.0339 -0.0849  0.1301
    1W        W47028  27.419   9.157   0.539  0.0636  0.2651 -0.1307
    1W        W47029  28.144   1.075   9.126 -0.0770  0.0668 -0.0790
    1W        W47030   1.170  13.219   1.808  0.1867  0.0062  0.1187
    1W        W47031  24.910   5.102   5.861  0.0223 -0.1200 -0.3915
    1W        W47032   6.543  21.803   1.175 -0.0071  0.2471 -0.1437
    1W        W47033   7.767  17.825   7.951  0.1937  0.3252  0.0250
    1W        W47034  22.336   1.145   1.512 -0.0130 -0.3886 -0.1000
    1W        W47035  12.216  14.784   0.769  0.2419  0.3757  0.1300
    1W        W47036  11.693  12.200   9.351  0.4365 -0.1901  0.2929
    1W        W47037  11.973  13.351   0.639 -0.1403 -0.0775  0.1820
    1W        W47038   1.769  27.231   7.450  0.0976  0.2174  0.2724
    1W        W47039   4.720  26.933   1.064  0.3980 -0.0489  0.1267
    1W        W47040  26.231  13.859   0.562 -0.1257  0.0799 -0.0347
    1W        W47041  22.488   4.716   2.619  0.0155  0.1518  0.1214
    1W        W47042  27.010  20.467   0.726 -0.0597  0.0689  0.0240
    1W        W47043   5.991   7.284   7.123 -0.0147  0.1281  0.1574
    1W        W47044   1.389   7.358   8.924  0.1542 -0.0754 -0.0836
    1W        W47045  25.232  21.421   7.353  0.0639  0.0583  0.0610
    1W        W47046  24.481   2.811   1.869 -0.1667 -0.0547 -0.1451
    1W        W47047  18.880   2.174   1.330  0.2073  0.2618  0.1985
    1W        W47048  11.649  25.662   0.637  0.2860  0.0780 -0.1777
    1W        W47049   9.112  20.841   2.334 -0.0285  0.1769  0.1232
    1W        W47050  25.430   3.878   0.082  0.1937  0.1005  0.1756
    1W        W47051   1.017  16.183   0.792 -0.2130 -0.1641 -0.2510
    1W        W47052   7.737  17.287   9.917  0.2283 -0.1306 -0.1330
    1W        W47053  19.555  12.640   0.027  0.0209 -0.0420  0.1048
    1W        W47054  25.437   3.911   1.457 -0.0150 -0.1772 -0.0774
    1W        W47055  19.218  14.740   0.619 -0.2019  0.1373  0.0826
    1W        W47056  16.825   5.600   7.894  0.1082 -0.2561  0.0275
    1W        W47057   5.198  27.269   8.566 -0.1110 -0.2472  0.0231
    1W        W47058   6.211   2.504   2.272  0.3516 -0.1124  0.0250
    1W        W47059  12.558  17.871   2.068  0.1007  0.3741 -0.1180
    1W        W47060  23.973  20.105   8.858  0.0237  0.2671 -0.0913
    1W        W47061   9.799  22.654   5.758 -0.2250  0.2099  0.1901
    1W        W47062  14.092  12.526   8.591 -0.1504 -0.1697 -0.2636
    1W        W47063   2.649   0.426   9.663 -0.0863 -0.1152  0.0832
    1W        W47064  17.066  13.111   9.167 -0.0131  0.1216 -0.0713
    1W        W47065   2.739  11.002   0.533 -0.0967  0.0253 -0.0060
    1W        W47066  13.185   4.847   1.278 -0.2711  0.0699 -0.0635
    1W        W47067   3.655  21.443   6.725  0.0741 -0.0270 -0.1153
    1W        W47068  20.470  20.495   9.476  0.2376 -0.1981  0.1435
    1W        W47069   1.919   3.929   2.532  0.0315 -0.0647  0.0638
    1W        W47070  15.050  23.467   2.207 -0.0137 -0.0090 -0.3459
    1W        W47071  12.746  22.925   1.161  0.1617 -0.3476  0.3949
    1W        W47072  24.389  10.058   7.242  0.0261  0.1215  0.1329
    1W        W47073  26.066  12.269   9.613  0.2433  0.1213 -0.1740
    1W        W47074  21.333  15.402   8.633  0.0779 -0.1093 -0.3258
    1W        W47075  18.365   1.120   3.883  0.1282 -0.0902  0.2177
    1W        W47076  15.315   4.304   9.073 -0.3145 -0.0172  0.0466
    1W        W47077  25.433  22.035   7.392  0.0638  0.0946 -0.0915
    1W        W47078  17.310  19.259   2.075 -0.4384 -0.1221 -0.0109
    1W        W47079  16.151   3.694   1.768  0.0512 -0.2109 -0.1716
    1W        W47080  16.429  14.976   0.018 -0.0070  0.1785 -0.1891
    1W        W47081  19.991  24.263   8.898 -0.1961 -0.0496  0.1005
    1W        W47082   4.780  18.239   1.545  0.1138  0.0356 -0.0058
    1W        W47083  15.937  11.064   2.554 -0.2382  0.1577 -0.2719
    1W        W47084   1.926  18.820   7.575 -0.0577 -0.0053  0.1036
    1W        W47085   3.349  18.672   1.138 -0.1315 -0.0832 -0.0970
    1W        W47086   8.422  16.399   7.473 -0.2285  0.0208 -0.0372
    1W        W47087   0.175  27.256   8.417 -0.2408 -0.1049  0.2096
    1W        W47088  20.520  15.035   2.721 -0.0043 -0.3652  0.0594
    1W        W47089  23.972  26.749   7.095  0.0759 -0.4613  0.1467
    1W        W47090  10.159  12.547   8.120  0.2543  0.0748 -0.0813
    1W        W47091  24.702  18.027   0.375  0.5209 -0.3594  0.1136
    1W        W47092   1.994  10.244   0.236  0.1482 -0.0937 -0.0230
    1W        W47093   5.685   8.254   3.444  0.1344 -0.1724  0.1194
    1W        W47094  13.205   0.608   2.433 -0.0136  0.0819  0.5594
    1W        W47095   7.004  15.422   9.440  0.2773 -0.1675  0.2262
    1W        W47096   9.099  24.003   7.831  0.0761  0.0265 -0.1438
    1W        W47097  25.896   7.676   7.710 -0.0899 -0.0026 -0.0560
    1W        W47098   5.803  20.855   2.386 -0.1114  0.4062 -0.0322
    1W        W47099  21.685   8.737   2.425 -0.2083 -0.2335 -0.4214
    1W        W47100  27.996   3.898   2.811  0.1855 -0.2844 -0.0816
    1W        W47101   8.502  21.339   2.250 -0.0259 -0.0748  0.0522
    1W        W47102  15.281   1.829   8.198 -0.0050  0.1714 -0.2882
    1W        W47103  23.756  15.334   2.153  0.0714 -0.0015 -0.2322
    1W        W47104  10.782   4.014   1.859 -0.0627  0.3951 -0.0321
    1W        W47105   7.138  17.547   1.216 -0.2183 -0.0817  0.1562
    1W        W47106   4.733  23.496   1.879 -0.2683 -0.1391 -0.3025
    1W        W47107  25.372  23.118   8.519 -0.0667 -0.0891 -0.1576
    1W        W47108   1.805  22.248   0.051  0.0288 -0.3681 -0.1882
    1W        W47109  27.700  18.173   9.180  0.0406 -0.1340  0.1898
    1W        W47110  27.833  11.060   9.929  0.1351  0.0576 -0.0986
    1W        W47111   5.343  13.639   9.083  0.0035 -0.0760  0.0490
    1W        W47112  22.787   2.021   8.917 -0.0161 -0.1675  0.0622
    1W        W47113  20.188  19.192   3.314 -0.1642 -0.0080  0.1174
    1W        W47114   2.100  27.237   9.437 -0.1775 -0.0595  0.3527
    1W        W47115  12.557   3.523   2.651  0.1483 -0.3531 -0.1230
    1W        W47116  12.498  16.316   0.745 -0.0279 -0.2309 -0.0495
    1W        W47117   8.217  26.376   8.948  0.2382 -0.0445  0.2233
    1W        W47118  15.403  20.249   8.231  0.2132  0.1148 -0.0116
    1W        W47119   9.108  22.105   1.618 -0.1404 -0.0714  0.2135
    1W        W47120  22.182   4.979   0.986  0.0046 -0.0883  0.2116
    1W        W47121  22.729  10.407   8.592  0.0562  0.1086  0.1987
    1W        W47122   8.705  16.395   9.132  0.1192  0.0200 -0.0446
    1W        W47123  13.972  12.837   1.561  0.1779 -0.3372  0.0927
    1W        W47124  15.855  20.459   2.484  0.2625  0.2053  0.0059
    1W        W47125  21.446  28.647   1.011  0.1656 -0.2255  0.1951
    1W        W47126   7.638   7.909   2.059 -0.0327 -0.1388  0.2245
    1W        W47127  19.998   3.227   8.762 -0.2505  0.0263 -0.1583
    1W        W47128   7.525  25.127   7.270  0.0337 -0.1064 -0.0950
    1W        W47129   4.000  14.487   9.814  0.1033  0.0033  0.0203
    1W        W47130  15.177  23.673   0.073  0.1555  0.1341 -0.0463
    1W        W47131   7.925  24.619   0.449 -0.3353  0.0021 -0.3166
    1W        W47132  14.600  27.129   0.424 -0.1878 -0.1607  0.2869
    1W        W47133  18.081  21.998   1.105  0.0707  0.1551 -0.4071
    1W        W47134  25.429  22.606   9.540  0.3349  0.1935 -0.1539
    1W        W47135  26.796  22.565   3.261 -0.2256 -0.1699 -0.1908
    1W        W47136   9.444  28.050   9.546  0.2150  0.2472  0.1476
    1W        W47137  16.586  15.940   0.403 -0.2202 -0.0769  0.0786
    1W        W47138  18.795   4.241   1.299  0.1068 -0.0183  0.1034
    1W        W47139  21.046  12.852   7.492  0.1721  0.0688 -0.1483
    1W        W47140  21.068   4.546   2.165 -0.1591  0.0355  0.0004
    1W        W47141  25.959   8.774   8.953  0.0803  0.1112 -0.1585
    1W        W47142   4.167  21.535   6.351  0.0331  0.0283  0.0949
    1W        W47143   3.296  17.576   9.457  0.0213  0.2368  0.2756
    1W        W47144  26.365  14.718   0.136  0.0211 -0.1074 -0.1850
    1W        W47145  27.965  21.321   6.370 -0.2064  0.2348  0.0605
    1W        W47146   9.852   3.301   3.333  0.4548 -0.1220 -0.0938
    1W        W47147  15.716  12.718   1.121  0.0373 -0.2264  0.1669
    1W        W47148  10.989  16.337   1.938 -0.1459  0.1375 -0.1219
    1W        W47149   0.811  23.912   2.600 -0.0541 -0.2228 -0.0231
    1W        W47150  17.640  26.576   9.321  0.0537 -0.0387 -0.0121
    1W        W47151   3.590  16.235   6.524 -0.3621 -0.2680  0.2850
    1W        W47152   3.139   7.742   2.716  0.1630 -0.0696  0.1447
    1W        W47153   7.918   0.503   2.095  0.0595 -0.1491  0.1209
    1W        W47154  14.932  24.382   9.301 -0.3123 -0.2472  0.0257
    1W        W47155  23.847  14.693   3.218  0.2721  0.0686 -0.1857
    1W        W47156  14.241  27.128   2.414 -0.0069  0.2915 -0.1258
    1W        W47157   0.674   6.436   9.403  0.0914 -0.1095  0.2001
    1W        W47158  10.474  12.946   8.243 -0.1333  0.1472 -0.1124
    1W        W47159  21.385   3.739   2.463  0.1138 -0.1473 -0.1780
    1W        W47160  16.717  17.160   9.632  0.2241  0.2649  0.0588
    1W        W47161  26.481  11.401   9.574  0.0953 -0.0813  0.0597
    1W        W47162  23.943   1.372   6.628 -0.0609  0.0588 -0.0518
    1W        W47163   0.998  19.642   1.260 -0.2710  0.1145 -0.0487
    1W        W47164  21.947  18.182   1.640  0.4483  0.0106 -0.2513
    1W        W47165  20.814  21.148   9.753  0.3330 -0.0283 -0.0417
    1W        W47166  20.861  19.188   2.507  0.2813  0.1674  0.0868
    1W        W47167   9.067   3.678   9.605 -0.0876  0.1929  0.0542
    1W        W47168   0.717   1.070   2.368  0.1240  0.0539 -0.0144
    1W        W47169   2.540  16.511   7.433  0.2778 -0.3483  0.1668
    1W        W47170   3.704  22.507   1.530  0.2246  0.2672  0.0877
    1W        W47171  15.028   5.659   0.134  0.1900 -0.0181  0.0899
    1W        W47172  18.471  11.721   0.010  0.0897 -0.2583  0.1635
    1W        W47173   8.749  17.806   6.312  0.1117  0.1765  0.1001
    1W        W47174   7.395  15.458   8.345  0.1126 -0.0851 -0.1172
    1W        W47175  16.701  11.578   2.331 -0.1684 -0.2487 -0.2758
    1W        W47176  21.370  10.397   9.099  0.1171  0.1114 -0.4751
    1W        W47177  23.496  10.199   0.578 -0.3169  0.0716 -0.5544
    1W        W47178  20.231   0.897   0.128  0.0935  0.1480  0.3895
    1W        W47179   4.386  14.478   2.077 -0.1711  0.0105  0.3369
    1W        W47180  20.825  23.214   2.021 -0.0091 -0.0575 -0.4124
    1W        W47181  28.051   6.726   1.943 -0.0766 -0.0649  0.2897
    1W        W47182  23.675  12.102   0.049 -0.1878 -0.4004 -0.3381
    1W        W47183  25.241  12.101   1.774 -0.1162 -0.1538  0.3510
    1W        W47184   5.610  27.244   9.008 -0.0061  0.0869  0.1861
    1W        W47185  24.144  17.175   7.540  0.0825 -0.1630  0.2511
    1W        W47186  21.035   5.198   9.515 -0.0506 -0.0217  0.2649
    1W        W47187   4.863  14.619   7.203 -0.1851 -0.1408  0.0973
    1W        W47188  15.585  28.431   2.050 -0.1812  0.0785 -0.1943
    1W        W47189  21.941  17.064   7.574  0.0563  0.2436  0.1800
    1W        W47190  18.452  19.810   9.830 -0.0511  0.0560 -0.2473
    1W        W47191  20.432   5.490   2.794 -0.1120 -0.1135  0.0020
    1W        W47192  27.116  20.491   8.538 -0.1576  0.0424 -0.2574
    1W        W47193   3.604  23.378   6.613 -0.1006  0.3687  0.0014
    1W        W47194  10.868   6.516   2.248  0.0888  0.0844 -0.1749
    1W        W47195  19.238  23.872   9.411  0.0139  0.0246 -0.1113
    1W        W47196   4.505  26.325   2.787  0.0761 -0.1124 -0.3690
    1W        W47197   9.039  18.487   8.346  0.4147 -0.2372 -0.0485
    1W        W47198   8.523  10.123   0.942 -0.1780 -0.2044 -0.0312
    1W        W47199  13.707  18.727   8.458  0.1518 -0.0285  0.2194
    1W        W47200   8.151  27.696   9.463 -0.1331 -0.1480 -0.1587
    1W        W47201   3.377  17.181   1.739  0.0945  0.0213  0.1401
    1W        W47202   9.428  15.260   2.288  0.0030  0.1461 -0.1994
    1W        W47203  23.741   6.467   9.833 -0.0891  0.0947  0.2517
    1W        W47204   6.069  20.449   2.188 -0.2482  0.2039 -0.2483
    1W        W47205  25.082   7.208   6.562  0.1446 -0.0287  0.1995
    1W        W47206   3.382   2.646   8.716 -0.0209 -0.1216  0.0127
    1W        W47207   1.952  19.266   2.231  0.1576 -0.0600 -0.0059
    1W        W47208   8.890  10.516   1.053  0.3687  0.1509  0.0079
    1W        W47209  23.664  21.277   0.811  0.0371 -0.1869  0.0043
    1W        W47210  26.881   4.954   8.890 -0.4166  0.0295  0.2081
    1W        W47211   4.706  15.795   8.509  0.1164  0.0742 -0.1575
    1W        W47212  27.000  14.147   6.325 -0.1311  0.1467 -0.1268
    1W        W47213  14.658  28.008   9.227 -0.2863 -0.0702 -0.0878
    1W        W47214   6.884   7.707   9.852  0.1560  0.2172 -0.0335
    1W        W47215  17.282  23.667   0.420  0.0323 -0.0128  0.1443
    1W        W47216  27.804  20.279   6.370 -0.0055 -0.3533  0.1470
    1W        W47217   5.023   9.703   8.983 -0.0480 -0.1962  0.0989
    1W        W47218  13.374  10.267   0.986  0.4059  0.0619 -0.4578
    1W        W47219   6.212   8.148   2.980 -0.1966  0.0286  0.0293
    1W        W47220   0.720  26.570   0.861  0.0208 -0.0138  0.0846
    1W        W47221  15.302  27.925   8.973 -0.3658 -0.1203  0.2998
    1W        W47222  22.223  10.602   8.741  0.0247  0.2364  0.0859
    1W        W47223  19.496   0.203   7.944  0.2924 -0.0912 -0.1131
    1W        W47224  23.174  15.926   1.677 -0.0849  0.1624  0.2394
    1W        W47225  18.972  17.073   8.849 -0.0038  0.1833 -0.0224
    1W        W47226  14.097   4.697   7.273  0.0440  0.1737 -0.2917
    1W        W47227   6.524  26.602   8.924  0.0807 -0.2574  0.0594
    1W        W47228  13.697  16.098   8.069 -0.0681 -0.2048 -0.2263
    1W        W47229  14.758  21.550   8.592  0.0043 -0.2482 -0.0523
    1W        W47230  24.260  28.397   2.701  0.1083  0.0128  0.0146
    1W        W47231  12.853  20.305   1.989 -0.0508  0.2295 -0.0364
    1W        W47232  25.334  26.512   0.928 -0.0085  0.1608  0.1061
    1W        W47233  20.004   5.363   1.910 -0.2567  0.1875  0.0075
    1W        W47234  16.575  23.229   1.903 -0.1157 -0.1993  0.4340
    1W        W47235   3.054  24.383   8.868 -0.1532 -0.1774  0.0105
    1W        W47236  26.284  27.697   8.924  0.0153  0.0238 -0.0102
    1W        W47237  10.750  28.406   8.034 -0.1219  0.4574  0.0069
    1W        W47238   8.491  27.353   8.068  0.0072  0.1623 -0.0004
    1W        W47239   5.575  12.860   2.066  0.0176  0.0963  0.2348
    1W        W47240   3.004   1.907   8.556  0.1224 -0.1224  0.1759
    1W        W47241  18.965  11.573   9.937  0.1392 -0.0959  0.0270
    1W        W47242  11.240   8.690   0.828 -0.1790 -0.1278  0.1160
    1W        W47243  20.253  20.318   2.279  0.2600 -0.0302 -0.2499
    1W        W47244  23.799  22.740   2.956  0.3745  0.0689  0.0445
    1W        W47245  19.906   3.258   6.864  0.0156  0.1210 -0.1724
    1W        W47246   2.844  18.511   9.812  0.2465 -0.2074 -0.1079
    1W        W47247  17.734  11.661   1.380 -0.1314  0.1542 -0.0644
    1W        W47248  13.045   6.938   9.565 -0.2048  0.0998 -0.4122
    1W        W47249  13.354   6.663   3.180  0.4605 -0.0463  0.1199
    1W        W47250   8.369   0.361   9.950 -0.2465 -0.1792  0.0327
    1W        W47251  25.220  21.304   6.369  0.2541 -0.1630  0.0482
    1W        W47252   6.800  12.160   0.898  0.3692 -0.2930  0.1332
    1W        W47253  22.662   9.020   8.693  0.0018  0.0425  0.0793
    1W        W47254  22.354   8.139   8.992  0.5297 -0.1826  0.0853
    1W        W47255  17.969  15.546   9.094 -0.0583 -0.2412  0.1959
    1W        W47256  26.546  15.863   2.646 -0.2761 -0.2907  0.0092
    1W        W47257   7.458  27.330   7.075 -0.0749 -0.1131 -0.0715
    1W        W47258  17.199  26.349   0.188 -0.0963  0.0931 -0.2677
    1W        W47259  23.625  10.286   1.429  0.4092  0.3975  0.2211
    1W        W47260   6.266  10.466   0.746  0.0348 -0.3267  0.0998
    1W        W47261  10.743   7.666   1.205  0.1694  0.1522  0.1401
    1W        W47262  13.275  13.350   0.089 -0.1767 -0.1346  0.0706
    1W        W47263  26.826  26.077   7.552 -0.1587 -0.0640 -0.2116
    1W        W47264   4.039  23.853   5.939 -0.0464 -0.0245 -0.3184
    1W        W47265  28.399   6.448   8.406 -0.0394 -0.2070 -0.1112
    1W        W47266   7.607   4.587   3.042  0.0643  0.1026 -0.1892
    1W        W47267  15.619  28.501   9.687  0.3028 -0.2561 -0.0185
    1W        W47268  20.989   4.771   7.556 -0.0068  0.0582 -0.1107
    1W        W47269  22.026  16.032   9.016 -0.0935  0.1026 -0.0092
    1W        W47270  24.975  12.401   0.518 -0.2119  0.0343 -0.1625
    1W        W47271   4.342  26.228   7.126 -0.0146 -0.0037  0.0645
    1W        W47272   4.731   0.692   8.253 -0.0013  0.0208  0.1169
    1W        W47273   3.525   3.763   2.039  0.1752  0.0593 -0.1563
    1W        W47274  16.795  24.735   7.553  0.1809  0.0388  0.1734
    1W        W47275   3.417   0.870   8.205  0.1008 -0.1139  0.1293
    1W        W47276   6.681  27.133   7.617 -0.1443  0.0079 -0.1578
    1W        W47277   7.619   2.224   7.814 -0.0880  0.0463 -0.0768
    1W        W47278  12.644  19.058   0.076 -0.1171  0.2961  0.3185
    1W        W47279  14.534  23.039   7.174 -0.1184 -0.1067 -0.1053
    1W        W47280  27.938   9.590   9.833 -0.0327 -0.3764 -0.0772
    1W        W47281  11.293   1.833   7.659  0.1509 -0.1181 -0.1162
    1W        W47282   0.511  17.438   8.286  0.4949  0.0151  0.0636
    1W        W47283   9.368  26.462   1.118 -0.1079  0.0050  0.3960
    1W        W47284   1.250  25.689   1.781  0.2674  0.1418 -0.1895
    1W        W47285   2.454  19.993   6.658  0.1493  0.1139  0.2687
    1W        W47286  24.552  19.769   9.955  0.0259  0.0206 -0.0563
    1W        W47287   9.020   7.687   2.525  0.4533 -0.0997  0.2028
    1W        W47288  11.341  18.263   8.307  0.0833 -0.3538  0.0311
    1W        W47289  27.556   7.038   1.782 -0.2275  0.0834  0.1533
    1W        W47290   3.557   0.116   9.052  0.0649  0.0100  0.1752
    1W        W47291  25.211   4.074   7.209 -0.3264  0.0802 -0.1924
    1W        W47292  21.565   2.937   9.125  0.1160  0.2197 -0.1867
    1W        W47293  20.870  14.492   0.392 -0.3579  0.0461 -0.1111
    1W        W47294  15.909   0.782   9.735 -0.2767 -0.1456 -0.0857
    1W        W47295   6.635   2.858   7.608  0.1974  0.1208 -0.1123
    1W        W47296  11.748   7.242   7.675 -0.0135 -0.1802 -0.1332
    1W        W47297  11.571  24.356   8.382  0.0582  0.0768 -0.1652
    1W        W47298  13.007  20.939   8.634  0.1295  0.1163 -0.1812
    1W        W47299  27.611   3.216   6.929  0.1748 -0.3006 -0.0977
    1W        W47300   3.812   4.642   0.197  0.0027 -0.1214 -0.0229
    1W        W47301  23.159  17.902   0.457 -0.0111 -0.0309  0.2680
    1W        W47302  20.088  12.512   1.300 -0.0509 -0.0413  0.0941
    1W        W47303  18.579  12.781   1.900 -0.0854  0.0242 -0.2281
    1W        W47304  20.261  13.414   8.403  0.3178 -0.0364  0.3389
    1W        W47305  12.831  17.288   2.456 -0.1744  0.1373  0.0742
    1W        W47306   7.765  13.005   0.102  0.2379 -0.1673 -0.2333
    1W        W47307  23.910   9.022   7.361  0.0748  0.0862 -0.1882
    1W        W47308   1.286  14.956   9.289 -0.2621  0.3000 -0.0291
    1W        W47309  22.676   7.936   1.747 -0.0002  0.0943 -0.2558
    1W        W47310  19.034   6.082   8.677  0.0085  0.1089 -0.0535
    1W        W47311  24.579   6.685   7.674  0.1090 -0.0514 -0.1997
    1W        W47312  27.914   3.023   2.370  0.0283 -0.0122 -0.1325
    1W        W47313   2.608  23.251   9.799 -0.0851  0.0502 -0.1223
    1W        W47314  21.669  27.005   7.603  0.1544 -0.1657  0.0930
    1W        W47315  20.157  20.010   1.319  0.4430  0.0797 -0.0418
    1W        W47316  20.917  24.605   8.674  0.1190  0.0959 -0.2121
    1W        W47317   8.562  13.438   9.721 -0.0355 -0.0786 -0.3341
    1W        W47318  23.960  23.760   0.189  0.4999  0.2193 -0.1255
    1W        W47319  21.631   8.731   8.061  0.1373 -0.1295 -0.1763
    1W        W47320  22.192  13.493   2.256 -0.1274  0.1290 -0.3410
    1W        W47321  15.676  26.584   3.998  0.0329  0.2894  0.1670
    1W        W47322   8.413   9.782   3.718 -0.1475 -0.0244  0.0890
    1W        W47323  15.421  21.596   2.818  0.0613 -0.1581 -0.2111
    1W        W47324  15.014  11.999   2.036  0.0445  0.0993 -0.1732
    1W        W47325  18.214  27.752   3.568 -0.0284 -0.4973  0.0040
    1W        W47326  19.856  26.020   2.282  0.1197  0.1936 -0.1198
    1W        W47327  10.752  14.453   9.692  0.0842  0.0151  0.0682
    1W        W47328  13.947  26.637   1.662  0.1196  0.0540  0.2389
    1W        W47329  11.620   4.688   1.860  0.4644  0.0496 -0.0067
    1W        W47330  13.770   2.857   3.071 -0.0460 -0.0113  0.0075
    1W        W47331  11.668  21.795   6.839 -0.1580  0.1066  0.1379
    1W        W47332  26.002   2.200   1.182 -0.2388 -0.0553 -0.1621
    1W        W47333  28.279  27.312   1.192  0.2546 -0.2195  0.2671
    1W        W47334   4.902  22.359   7.788 -0.2695 -0.0268 -0.0701
    1W        W47335   4.706  16.217   2.437  0.0147  0.2813  0.1404
    1W        W47336   6.323  16.540   9.487 -0.2560 -0.1930 -0.2393
    1W        W47337  15.359  14.555   8.710  0.1688 -0.2900 -0.0381
    1W        W47338   9.624   3.815   0.539  0.3008 -0.0187 -0.2217
    1W        W47339  10.551  27.821   3.304  0.0645  0.0568  0.1174
    1W        W47340   2.536  25.740   1.221  0.1368 -0.1643 -0.3871
    1W        W47341  26.236  17.348   6.161  0.1070 -0.0154 -0.0565
    1W        W47342  18.026   1.599   7.966  0.0731 -0.2100  0.4897
    1W        W47343   9.533  20.469   7.955 -0.2697 -0.1587  0.0234
    1W        W47344  18.983  14.502   9.235 -0.2646 -0.2577 -0.3546
    1W        W47345  10.186  27.972   2.838  0.0189 -0.3447 -0.1786
    1W        W47346   4.758  16.802   2.758 -0.0393 -0.0840 -0.0390
    1W        W47347  24.594  28.054   8.682 -0.2279  0.0403 -0.1406
    1W        W47348  12.403  10.169   0.857  0.0498 -0.0347  0.1163
    1W        W47349  17.304  22.327   8.127 -0.1368 -0.1341  0.0978
    1W        W47350   2.625  22.582   6.978  0.0371 -0.1012  0.1794
    1W        W47351  28.668   2.848   8.881 -0.0337  0.2364  0.0262
    1W        W47352  17.555  18.349   2.670  0.1563  0.1180 -0.1691
    1W        W47353   0.566  16.639   7.929  0.0123  0.1844  0.0393
    1W        W47354   0.503   5.447   1.735  0.0490 -0.3552  0.0464
    1W        W47355  16.701  19.391   8.268  0.2055 -0.1803  0.1822
    1W        W47356  19.829   1.076   9.184 -0.1105  0.2647  0.0689
    1W        W47357   6.444  21.579   7.834 -0.1556  0.1109  0.4200
    1W        W47358   8.119  23.980   1.513  0.0080  0.0316  0.0672
    1W        W47359  19.996  11.927   2.754  0.1555  0.0709  0.0149
    1W        W47360  15.820  16.760   2.682 -0.0550 -0.1646 -0.2364
    1W        W47361   3.945  11.977   6.491 -0.3105  0.1078 -0.4641
    1W        W47362   1.030  26.329   2.100 -0.2789  0.1429 -0.2432
    1W        W47363  20.451  27.300   8.296 -0.2549  0.0581  0.1093
    1W        W47364  16.218   9.847   9.315 -0.2823  0.0837 -0.2048
    1W        W47365  14.501  14.626   1.431 -0.4369  0.3258  0.1100
    1W        W47366  15.262   6.068   0.349 -0.3457  0.1148 -0.2394
    1W        W47367  26.468  25.079   3.109 -0.1113  0.0475 -0.0584
    1W        W47368   1.974  21.516   0.374 -0.1586 -0.0351  0.0404
    1W        W47369   6.255   7.551   6.745  0.0679 -0.3131 -0.1983
    1W        W47370  14.995  20.921   7.349 -0.2255 -0.2493  0.2271
    1W        W47371  25.870   0.610   2.563 -0.0780 -0.2073 -0.1925
    1W        W47372  28.190  13.886   6.960 -0.0306  0.1451 -0.1067
    1W        W47373  26.384   2.362   1.497  0.1825 -0.1732  0.2831
    1W        W47374  10.159   5.476   9.675 -0.2897 -0.4242 -0.1150
    1W        W47375  25.467  10.525   6.594  0.2035 -0.1639 -0.0868
    1W        W47376  26.520  28.037   1.174  0.0499 -0.1931 -0.2280
    1W        W47377   0.223  10.156   0.008 -0.1771 -0.1518 -0.0071
    1W        W47378   2.908   9.354   9.448 -0.2411 -0.1356 -0.4088
    1W        W47379  22.659  11.022   0.016  0.1227  0.0851  0.2222
    1W        W47380  17.893  24.579   4.006  0.1666  0.0653  0.0875
    1W        W47381   0.485   3.833   9.572 -0.0224  0.2624 -0.0385
    1W        W47382  21.742  28.264   2.117  0.1322 -0.1107 -0.1570
    1W        W47383  10.750  25.288   7.099 -0.0395  0.3292  0.0812
    1W        W47384  15.450  23.901   0.613 -0.1286 -0.0532  0.2202
    1W        W47385  13.534  27.745   9.877 -0.3242  0.2341 -0.1018
    1W        W47386  13.870   4.324   3.314 -0.0887 -0.0979 -0.1932
    1W        W47387  25.160  14.630   2.097  0.2128  0.0798  0.1436
    1W        W47388  13.546  27.690   7.619 -0.1759 -0.0743 -0.0889
    1W        W47389  18.672   1.696   0.080  0.0567  0.0499 -0.2143
    1W        W47390  20.417  12.130   2.086  0.0735 -0.2626  0.1055
    1W        W47391   4.146   8.558   1.068 -0.1142 -0.1373 -0.1867
    1W        W47392  19.252  24.542   2.611  0.0851 -0.1070 -0.1311
    1W        W47393  24.425  11.046   8.520 -0.0616 -0.1132  0.0251
    1W        W47394  12.625  26.643   3.983  0.2434  0.0157 -0.0028
    1W        W47395   9.318  16.179   1.946  0.1014  0.2617  0.1692
    1W        W47396  16.119  19.737   1.918 -0.0245  0.5159 -0.2714
    1W        W47397  12.192  19.069   7.897  0.2169 -0.2100  0.0027
    1W        W47398  26.648   2.093   8.788 -0.2558 -0.2604 -0.3169
    1W        W47399  22.134  17.861   8.214  0.0984  0.0195  0.0263
    1W        W47400  12.187   7.406   2.533 -0.1187 -0.0566 -0.2926
    1W        W47401  12.874   2.162   8.292  0.2434  0.0050  0.0872
    1W        W47402  24.403  19.744   1.715  0.1244  0.0429 -0.0316
    1W        W47403  21.301   2.317   7.561 -0.2031  0.4562  0.2372
    1W        W47404   7.478  10.277   9.714 -0.0937 -0.0034  0.0039
    1W        W47405   0.848  26.037   2.647 -0.1404 -0.3246 -0.1937
    1W        W47406   1.567   4.495   1.246  0.2385  0.1163 -0.3246
    1W        W47407  14.354   9.112   2.564 -0.0885 -0.1987 -0.2288
    1W        W47408  12.939  24.386   2.237  0.0149 -0.0620  0.1278
    1W        W47409  18.074  27.636   8.663  0.1061  0.2153  0.0322
    1W        W47410  10.482   9.520   0.306  0.0231  0.0813 -0.1405
    1W        W47411  10.106   4.924   9.690  0.1494  0.1608  0.3128
    1W        W47412  16.984  16.029   8.325 -0.1772  0.2328 -0.0341
    1W        W47413  14.857   7.057   8.148 -0.0448  0.1303 -0.0018
    1W        W47414  28.182   5.455   8.024  0.4015 -0.3920  0.1882
    1W        W47415  10.167  25.756   1.523 -0.0055 -0.1426  0.0449
    1W        W47416   6.991   4.655   2.259 -0.1993 -0.2387 -0.0174
    1W        W47417  21.267  16.812   1.857  0.1360 -0.0947 -0.0811
    1W        W47418   1.116   5.317   1.063 -0.0537  0.0652  0.0038
    1W        W47419  11.078  12.403   8.525  0.0727  0.4055  0.1172
    1W        W47420  17.716   8.193   2.775  0.0117  0.2717 -0.1353
    1W        W47421  10.830   0.844   8.492  0.2351 -0.0113  0.1358
    1W        W47422  26.338  10.971   6.356 -0.1182 -0.2863 -0.0919
    1W        W47423   1.013   6.596   7.178  0.1855 -0.2714  0.2908
    1W        W47424  24.163  25.754   0.551 -0.1482 -0.0792 -0.1388
    1W        W47425  26.990   9.109   2.467  0.2104 -0.1731 -0.0292
    1W        W47426  12.148   2.804   1.953 -0.0460 -0.0406 -0.1252
    1W        W47427  27.793   6.336   1.141  0.1122  0.3733 -0.0715
    1W        W47428  13.832   1.101   1.365  0.0216  0.0773  0.1025
    1W        W47429  22.668   7.454   8.540 -0.2332 -0.1008 -0.1331
    1W        W47430  17.286  17.387   1.335 -0.1437  0.3518 -0.1600
    1W        W47431  22.960  10.949   3.392  0.1461  0.3776  0.0789
    1W        W47432  22.529  16.012   8.917  0.3537  0.0369  0.2656
    1W        W47433   6.169  10.630   7.981 -0.1018  0.4179  0.0119
    1W        W47434  12.817   3.958   0.174 -0.0258  0.2260  0.1995
    1W        W47435  18.075   1.652   0.294  0.0639  0.3242 -0.4133
    1W        W47436  16.759  13.219   0.248 -0.0324 -0.0288  0.0278
    1W        W47437  25.342  21.856   2.168  0.0709 -0.1151  0.1761
    1W        W47438   7.497  10.546   2.325 -0.0028 -0.0133 -0.0165
    1W        W47439  22.578  20.126   7.385 -0.0552 -0.1216 -0.0905
    1W        W47440   6.584  21.131   7.519 -0.0170 -0.0616 -0.0975
    1W        W47441  15.601   8.466   0.912 -0.0949  0.0962 -0.0468
    1W        W47442   8.452   7.658   8.382 -0.1726 -0.0462 -0.0024
    1W        W47443   7.416  20.963   0.370  0.2487 -0.2974  0.2205
    1W        W47444   5.996   9.021   1.915  0.0647 -0.2359 -0.0387
    1W        W47445  16.095   5.289   8.910  0.4845  0.2372 -0.1147
    1W        W47446  25.545   3.401   6.626 -0.0429  0.0869 -0.1503
    1W        W47447   7.587   1.637   0.778 -0.1835 -0.1299  0.1417
    1W        W47448   5.868   7.809   8.992 -0.1353  0.0946  0.2846
    1W        W47449  27.086  15.775   2.796  0.0761 -0.0105  0.1740
    1W        W47450  13.402   5.845   9.797 -0.0843 -0.1227 -0.1414
    1W        W47451   1.411   7.676   3.173  0.1866 -0.3974 -0.2050
    1W        W47452  27.157  19.103   0.105 -0.2840 -0.2033 -0.0929
    1W        W47453  20.977   4.234   1.608  0.0270  0.1329  0.2093
    1W        W47454   8.724  12.580   1.041  0.4038  0.0527 -0.0656
    1W        W47455   2.179  20.465   9.170 -0.1661  0.1254  0.1465
    1W        W47456  16.359   2.255   9.664 -0.2357 -0.0379  0.0189
    1W        W47457   2.666  11.632   3.138 -0.0021 -0.2707 -0.2508
    1W        W47458  24.724   5.671   8.552  0.0847 -0.1565  0.2970
    1W        W47459  22.575  15.153   0.093  0.1337  0.0551 -0.2048
    1W        W47460  26.160  28.437   8.444 -0.1990  0.0647 -0.0559
    1W        W47461  28.112   8.042   8.203 -0.1973  0.1816 -0.1079
    1W        W47462  13.398  26.983   3.409 -0.2119  0.1249  0.0934
    1W        W47463  24.251  24.061   2.701 -0.1531  0.0699 -0.1888
    1W        W47464   3.585  23.024   7.807 -0.1258 -0.0919  0.1153
    1W        W47465  10.626  12.551   0.047  0.1705 -0.4068 -0.1626
    1W        W47466  21.757  15.865   7.556  0.1865 -0.0760 -0.2916
    1W        W47467  25.643  13.356   0.412 -0.1933  0.1008 -0.0881
    1W        W47468  15.545  16.371   8.464  0.1853 -0.4258 -0.1932
    1W        W47469   8.280  12.414   0.100 -0.2264 -0.0937  0.3258
    1W        W47470  12.767  14.942   0.884  0.1605  0.0026  0.0641
    1W        W47471  27.800  11.754   0.197 -0.0773 -0.2001 -0.1058
    1W        W47472   1.664   6.225   5.781  0.0372 -0.0136 -0.0740
    1W        W47473  14.820  24.329   2.098  0.2054 -0.0628 -0.2216
    1W        W47474  13.357  11.432   0.938 -0.2605 -0.2977  0.0644
    1W        W47475  24.436  12.713   7.659 -0.0503  0.0421 -0.1993
    1W        W47476  16.211   7.178   1.936  0.1393  0.0553  0.0330
    1W        W47477  28.559  22.669   9.184  0.2394  0.0664  0.0375
    1W        W47478  17.853   8.001   3.442 -0.0154  0.1880  0.2582
    1W        W47479   5.975  27.784   7.395  0.1067 -0.1470 -0.1349
    1W        W47480   1.548   5.787   8.872  0.3541  0.2359  0.0461
    1W        W47481  18.317  21.606   8.181 -0.2485 -0.1569 -0.2018
    1W        W47482  10.690  27.652   9.944 -0.0458 -0.0971 -0.0232
    1W        W47483  15.172  20.116   0.927  0.1891  0.2776 -0.3368
    1W        W47484  14.221  10.863   1.794 -0.0039  0.2349 -0.1117
    1W        W47485   3.985  16.720   9.187 -0.4271 -0.0893  0.3214
    1W        W47486   7.187  16.081   7.683 -0.1602 -0.1533 -0.1126
    1W        W47487  21.237   6.534   7.959 -0.0628 -0.1406  0.2696
    1W        W47488  20.928   9.740   2.816  0.1953 -0.3099 -0.0657
    1W        W47489  24.931   0.405   2.641  0.1487 -0.0068  0.3175
    1W        W47490  21.599   5.702   2.713  0.1135 -0.0424  0.2250
    1W        W47491  27.330  16.224   0.680  0.0315  0.3066  0.1629
    1W        W47492  10.150   0.022   1.039  0.0682 -0.1222  0.1487
    1W        W47493  19.886  14.233   7.811 -0.1339 -0.1380  0.1574
    1W        W47494  26.836  27.755   8.886 -0.3912  0.1076  0.1150
    1W        W47495  20.388  19.164   0.692 -0.2862 -0.0924  0.4003
    1W        W47496  18.413  27.458   0.057 -0.2428  0.3391 -0.0148
    1W        W47497   0.394  19.874   2.613 -0.0972 -0.1111  0.2800
    1W        W47498  23.252   2.477   6.961  0.0748  0.0417  0.1089
    1W        W47499   0.482   6.880   8.851 -0.1279 -0.1273  0.0945
    1W        W47500  24.770  15.630   6.658  0.0085  0.0655 -0.0442
    1W        W47501  22.921   5.174   1.324  0.0807  0.0404  0.2049
    1W        W47502  28.642   8.694   6.106  0.1719  0.2648  0.3486
    1W        W47503   7.231  27.023   9.330 -0.0169 -0.1259 -0.0947
    1W        W47504  20.262  22.778   0.449 -0.2825 -0.0475  0.2524
    1W        W47505  16.831   9.752   9.513 -0.0382 -0.4008  0.2404
    1W        W47506  10.969   3.249   1.788  0.0265 -0.2336  0.0120
    1W        W47507  26.090  15.244   9.340 -0.1364 -0.3025 -0.1398
    1W        W47508   5.003   6.389   8.844 -0.0668  0.2939  0.1722
    1W        W47509   4.348  14.025   0.993  0.1959  0.0565  0.1769
    1W        W47510  16.387  12.349   9.671  0.2108  0.1059 -0.0274
    1W        W47511  22.228  16.799   2.074  0.1250  0.3600  0.2259
    1W        W47512  15.966  13.095   0.956 -0.2059  0.0770 -0.0201
    1W        W47513  28.403  17.447   7.642  0.0342 -0.0312 -0.0045
    1W        W47514   0.672  22.265   0.588  0.0000 -0.1945  0.2241
    1W        W47515  19.856  27.686   9.489 -0.0113 -0.1673 -0.2331
    1W        W47516   2.387   0.248   0.213 -0.2815  0.0632  0.0813
    1W        W47517  18.161  24.407   7.188  0.0778  0.3311  0.2877
    1W        W47518   7.009  18.711   9.365 -0.2017  0.1805 -0.0704
    1W        W47519   9.238  26.941   1.559 -0.0212  0.0112  0.2961
    1W        W47520  12.115   9.092   2.431 -0.0552 -0.0719 -0.1208
    1W        W47521  16.409  17.434   9.257 -0.0661  0.0299 -0.3918
    1W        W47522   5.604   1.006   0.025  0.1156  0.2086 -0.2592
    1W        W47523  13.296   7.836   8.227 -0.1325  0.2616 -0.1950
    1W        W47524   5.848   0.176   9.222 -0.0547 -0.0003  0.2472
    1W        W47525  23.884  11.860   1.077  0.4840 -0.3884  0.0073
    1W        W47526  23.903   6.307   9.291  0.4137  0.0563  0.0590
    1W        W47527  23.821  10.733   7.416 -0.0590 -0.0396 -0.0198
    1W        W47528  26.245   1.455   0.098  0.2474 -0.0082 -0.1207
    1W        W47529  14.054  21.029   8.309  0.2147 -0.2066 -0.0284
    1W        W47530  12.012   4.581   2.224 -0.0153 -0.0342  0.2414
    1W        W47531  27.753   6.731   7.126  0.2626  0.2175  0.1735
    1W        W47532   7.583  18.600   8.560  0.3226  0.0408 -0.0781
    1W        W47533  16.717   7.481   1.937 -0.4030  0.1672 -0.1504
    1W        W47534  14.332  21.811   2.713  0.3005  0.0207 -0.1957
    1W        W47535  11.354  14.418   8.117 -0.2341  0.0474 -0.1590
    1W        W47536  26.696   1.377   1.997 -0.0052 -0.0003 -0.0227
    1W        W47537  25.147   3.620   6.252  0.0117 -0.2624 -0.1604
    1W        W47538   7.923   8.700   8.276  0.2052  0.2872  0.0808
    1W        W47539   6.420  25.151   9.568 -0.0083  0.0339 -0.1048
    1W        W47540  15.411   4.558   1.212 -0.2300 -0.2909  0.3813
    1W        W47541   1.786   3.287   8.928  0.5195 -0.2484  0.0970
    1W        W47542  22.732  23.060   8.412 -0.0810  0.0653 -0.0107
    1W        W47543  13.066   4.517   9.483  0.0805  0.2407  0.0758
    1W        W47544  14.029  20.999   0.210  0.3634 -0.0760  0.1608
    1W        W47545  17.422  24.546   0.622  0.2685 -0.0466  0.1121
    1W        W47546  21.643  24.087   7.200 -0.0337  0.1308 -0.0690
    1W        W47547   8.006  17.448   1.602 -0.0158  0.0406  0.2384
    1W        W47548  27.533  18.048   6.160  0.1843  0.0687  0.1841
    1W        W47549  22.331  17.750   7.076 -0.3268  0.1590  0.0589
    1W        W47550   0.514   2.761   0.233 -0.2022  0.0637 -0.2691
    1W        W47551  26.520   9.065   0.057  0.1126 -0.0015 -0.0072
    1W        W47552   7.967   4.738   9.747  0.2364 -0.0934  0.4963
    1W        W47553  19.523  18.451   9.879 -0.0638  0.2112  0.2192
    1W        W47554   1.842  28.502   7.053 -0.1386 -0.0405  0.0203
    1W        W47555  15.977   4.879   8.489 -0.1372  0.1436  0.0657
    1W        W47556   1.940  17.506   7.832  0.1960 -0.1715  0.2413
    1W        W47557  28.057  13.943   8.211 -0.3366  0.1218  0.2255
    1W        W47558  21.888  20.568   3.531 -0.1683  0.0487  0.1741
    1W        W47559   1.805   1.218   6.436 -0.1593 -0.0818  0.0328
    1W        W47560   9.454  15.141   9.622 -0.0016  0.2940  0.1964
    1W        W47561  17.045  15.875   9.308 -0.2126 -0.0856  0.2045
    1W        W47562   9.757   7.054   8.926 -0.0128  0.0713 -0.2376
    1W        W47563  27.610   1.704   8.270 -0.0560 -0.2722 -0.0151
    1W        W47564   1.207  19.782   2.457 -0.1797 -0.1805 -0.4000
    1W        W47565  19.921   8.675   1.153  0.1099  0.4934 -0.0280
    1W        W47566  18.766  23.289   1.079 -0.1434  0.1729  0.0681
    1W        W47567  23.716  15.752   9.088  0.1472  0.2203 -0.1173
    1W        W47568  19.429   9.248   0.667 -0.1240  0.1058  0.1196
    1W        W47569  28.494  20.011   7.215 -0.0579 -0.1403 -0.1838
    1W        W47570   1.827  23.892   7.211 -0.2863  0.1407 -0.0384
    1W        W47571  28.308  14.280   7.916  0.2110 -0.0421 -0.2657
    1W        W47572  18.263  25.140   2.125 -0.2728  0.2961 -0.0012
    1W        W47573  25.276  25.737   1.921 -0.0885  0.0329 -0.1322
    1W        W47574  15.218   8.477   9.168  0.0656 -0.3837  0.3792
    1W        W47575  25.496   3.766   2.795  0.0318 -0.0406 -0.0637
    1W        W47576  19.790  16.950   9.524 -0.2876  0.0349 -0.0603
    1W        W47577   2.622   9.547   9.848  0.0793  0.1362  0.0175
    1W        W47578  16.635  22.802   8.554 -0.1498  0.3515 -0.2975
    1W        W47579   1.951  28.338   1.230  0.0997 -0.0968  0.0783
    1W        W47580   7.328  24.912   8.826  0.2830 -0.0002  0.0641
    1W        W47581  25.425  27.191   8.954 -0.1445 -0.3412 -0.0013
    1W        W47582  15.041   1.471   2.972  0.3640 -0.0981 -0.1825
    1W        W47583  13.817   2.291   7.640  0.1814 -0.0842 -0.1037
    1W        W47584  24.852  14.602   2.506 -0.2230  0.1405 -0.0539
    1W        W47585  25.036  16.283   2.796 -0.1613  0.0658 -0.0358
    1W        W47586  28.374   6.493   9.209  0.1007 -0.0026 -0.1091
    1W        W47587  22.868   7.722   2.671 -0.0134  0.0740  0.0863
    1W        W47588  23.972   2.785   1.651 -0.0017  0.2277  0.1259
    1W        W47589  19.711  22.769   0.486  0.2363 -0.0320 -0.0998
    1W        W47590   9.804  14.907   8.894 -0.2846  0.2274 -0.0276
    1W        W47591  19.854  26.407   9.932  0.2117 -0.2918  0.2128
    1W        W47592  24.564  16.420   8.494  0.1730  0.4461 -0.2448
    1W        W47593  12.953  12.131   7.824 -0.2432 -0.1343 -0.3644
    1W        W47594   8.961  26.718   7.378 -0.0621  0.1252 -0.3554
    1W        W47595   2.710   4.649   7.445  0.0803 -0.2703 -0.0823
    1W        W47596   3.986  15.420   0.906  0.4700  0.0352  0.3611
    1W        W47597   3.727  15.516   0.489  0.0111 -0.1339 -0.2713
    1W        W47598   6.580  17.584   6.693 -0.1719 -0.2635  0.1781
    1W        W47599  26.509   7.635   2.928  0.0365 -0.1883 -0.0582
    1W        W47600  10.367   9.708   8.110  0.0301 -0.0695  0.1253
    1W        W47601  25.252  18.166   7.633  0.0984 -0.1484  0.1537
    1W        W47602  24.573  11.513   8.241 -0.0807  0.3898 -0.1410
    1W        W47603  13.850   6.259   7.993  0.2211 -0.1018 -0.2614
    1W        W47604  20.142  24.324   2.669 -0.0191 -0.0405 -0.0654
    1W        W47605   4.797  22.726   5.274 -0.1745 -0.0770  0.4872
    1W        W47606  18.554  22.608   2.193 -0.0215  0.1927  0.0320
    1W        W47607  24.867   4.442   0.067 -0.1146 -0.0747  0.1336
    1W        W47608  20.333  21.024   3.643 -0.0553 -0.0210 -0.0498
    1W        W47609  21.827  28.306   1.333  0.0369  0.4909 -0.3455
    1W        W47610  13.200  12.151   0.419  0.0120 -0.0860  0.0095
    1W        W47611  19.199   2.310   6.967 -0.0456  0.1101  0.0715
    1W        W47612  11.978   7.192   1.546 -0.1798  0.2019  0.2287
    1W        W47613  16.253   6.689   1.259  0.1732 -0.1242 -0.1030
    1W        W47614   8.952   0.682   3.033 -0.0017  0.0347 -0.0897
    1W        W47615  27.238   6.285   6.039  0.0747 -0.1150  0.2153
    1W        W47616  28.443  27.512   8.652  0.2123 -0.1088 -0.0819
    1W        W47617   1.697  28.638   1.847 -0.2608  0.3897  0.0200
    1W        W47618   6.424   2.605   9.947  0.0569 -0.0631 -0.1549
    1W        W47619  11.386  10.507   0.157 -0.2331  0.1307  0.0156
    1W        W47620  15.652   8.635   8.832  0.1452 -0.2979 -0.1695
    1W        W47621   9.493   3.708   7.846 -0.2852  0.1224  0.0934
    1W        W47622  11.975  16.700   2.725  0.1589 -0.0384 -0.0801
    1W        W47623  10.798  20.717   0.404 -0.0031  0.1989  0.1011
    1W        W47624  17.833   9.886   1.831  0.2117  0.0510  0.0872
    1W        W47625  11.286  25.447   1.327  0.0297  0.1218 -0.0848
    1W        W47626  22.986  20.867   0.486  0.2979  0.0239 -0.1443
    1W        W47627  12.847  28.074   1.340 -0.1297 -0.0808 -0.3181
    1W        W47628   1.028   1.838   6.368  0.2222  0.0045 -0.0162
    1W        W47629  11.812  14.190   7.497  0.2718 -0.1002  0.1870
    1W        W47630   2.169  15.110   7.497  0.0502  0.3980  0.1725
    1W        W47631  27.546  25.865   6.798 -0.0314  0.0474  0.1098
    1W        W47632   6.100  13.652   6.573 -0.0229  0.1044  0.3387
    1W        W47633  16.209   2.545   0.874  0.3158  0.1081 -0.2400
    1W        W47634  10.496   2.948   7.899  0.0486  0.0801 -0.0897
    1W        W47635  16.997   3.234   1.726 -0.0059  0.0142  0.0042
    1W        W47636  10.872  12.242   7.597 -0.3576 -0.2680 -0.2046
    1W        W47637  24.743   6.494   2.513  0.1246  0.1885  0.0068
    1W        W47638  26.689   0.698   8.829 -0.0573  0.0343  0.0463
    1W        W47639  21.865   1.127   2.660 -0.1045  0.2108  0.0105
    1W        W47640  20.973   5.506   8.166 -0.0118  0.1938 -0.2497
    1W        W47641   4.287   3.784   9.050 -0.0760  0.1274  0.1285
    1W        W47642  15.557  10.249   8.835  0.0909  0.3576  0.1566
    1W        W47643  25.860  23.209   7.463 -0.0127 -0.2153  0.0057
    1W        W47644  12.359  11.083   0.671 -0.0459 -0.1479  0.2749
    1W        W47645  10.403  25.019   6.871 -0.1617  0.1505  0.3716
    1W        W47646  23.422   3.723   6.345 -0.1204  0.0605  0.2383
    1W        W47647   4.720  15.675   1.923 -0.1218  0.0983 -0.1299
    1W        W47648   5.501  21.017   1.965  0.2178 -0.2179  0.0056
    1W        W47649  12.921  20.059   2.646 -0.0723 -0.1703 -0.0994
    1W        W47650  14.346   6.054   0.031  0.5218  0.0188 -0.0707
    1W        W47651  11.344  26.979   7.557 -0.1697  0.1583  0.0259
    1W        W47652  23.033  15.496   7.857 -0.0436 -0.0274  0.0202
    1W        W47653  11.427  23.382   1.550 -0.0924 -0.0570  0.2790
    1W        W47654  28.461   7.223   7.794  0.1676  0.1194  0.0762
    1W        W47655   6.766  16.754   6.133 -0.2711  0.0902 -0.3854
    1W        W47656  24.132  24.747   1.606 -0.1640  0.0351 -0.2354
    1W        W47657  27.630   8.323   7.605 -0.3040 -0.0791  0.1709
    1W        W47658   5.966  12.386   8.675  0.1018  0.0166 -0.2935
    1W        W47659   1.327  28.280   8.817 -0.0981  0.0125 -0.1841
    1W        W47660  18.946  25.529   1.338 -0.0449  0.1584  0.0855
    1W        W47661   5.938  24.250   0.200  0.1416  0.1868  0.0158
    1W        W47662  21.133  11.954   1.454  0.1243  0.0826  0.2000
    1W        W47663  18.098  12.897   7.558 -0.3046 -0.3033  0.0221
    1W        W47664  24.632   6.389   2.054 -0.1519  0.0948  0.1290
    1W        W47665  24.871  11.777   8.559 -0.0095  0.3606  0.0885
    1W        W47666  16.196  17.887   2.350 -0.1865 -0.0859 -0.2582
    1W        W47667  14.996   3.510   2.604  0.0723  0.0820  0.0871
    1W        W47668  14.164  25.929   7.821  0.0671  0.3131 -0.0422
    1W        W47669  21.197  26.793   7.403  0.1998  0.1010 -0.2102
    1W        W47670  14.756   4.265   1.309 -0.2020 -0.0989 -0.1336
    1W        W47671   3.628  14.210   0.169 -0.2699 -0.0150  0.0388
    1W        W47672   2.119  25.243   7.909  0.3314 -0.0364  0.1134
    1W        W47673  18.607  22.720   3.457  0.0897  0.3725 -0.2896
    1W        W47674  28.538  27.950   0.074  0.3032  0.0492  0.3660
    1W        W47675  24.103  11.438   8.396 -0.0792 -0.3402  0.1034
    1W        W47676   9.653  27.007   0.254  0.1974 -0.1573  0.1971
    1W        W47677   5.791   3.129   0.149 -0.2029 -0.1011 -0.1824
    1W        W47678  20.981   6.947   2.015  0.0177  0.1678  0.1177
    1W        W47679  18.932   0.017   2.681 -0.0500 -0.1283 -0.0712
    1W        W47680   9.999   7.456   2.892  0.2296 -0.2568  0.1311
    1W        W47681  10.708  11.982   9.157  0.0829  0.0715  0.2338
    1W        W47682   1.781  14.968   1.156 -0.0897 -0.1914  0.0889
    1W        W47683   7.895  16.608   2.183  0.1629 -0.3212 -0.0756
    1W        W47684   9.565  25.942   7.234  0.1824 -0.2553  0.2032
    1W        W47685   4.550  16.122   6.615 -0.1018 -0.0270 -0.0815
    1W        W47686   5.331  17.053   0.207  0.2916  0.3096  0.3114
    1W        W47687   4.473  19.537   9.604 -0.1976  0.3209 -0.2253
    1W        W47688  16.237   6.260   2.427 -0.0200 -0.0371  0.1103
    1W        W47689  19.806   5.842   2.141  0.1502 -0.1298  0.2009
    1W        W47690  13.564  27.459   1.109 -0.1829  0.1980 -0.1453
    1W        W47691   5.208  15.675   2.211  0.1239 -0.1011 -0.1000
    1W        W47692  17.080   9.612   8.926 -0.1523 -0.1184  0.2118
    1W        W47693  17.308   0.763   1.063 -0.2676  0.2020 -0.0333
    1W        W47694   3.264  17.953   9.934 -0.0627  0.1656 -0.3029
    1W        W47695   2.783  24.313   0.138  0.2017  0.1711 -0.0287
    1W        W47696   3.339  17.901   7.107  0.2356 -0.1440  0.0772
    1W        W47697  20.558  11.830   0.381  0.0588 -0.4231  0.0689
    1W        W47698   4.029  19.939   6.934 -0.0532  0.1698  0.2856
    1W        W47699  15.486  18.975   9.395 -0.1760  0.1394 -0.3555
    1W        W47700   2.134   2.809   8.821 -0.1948 -0.1329 -0.0667
    1W        W47701   7.461  18.804   0.103 -0.2309 -0.0310 -0.1537
    1W        W47702   6.761   0.615   2.404 -0.1171  0.1697 -0.0417
    1W        W47703  16.598  26.800   8.332 -0.1467 -0.1640 -0.0426
    1W        W47704   2.452  25.285   6.804 -0.2172 -0.1897  0.3610
    1W        W47705  25.976   6.663   9.249  0.3746  0.1723  0.0146
    1W        W47706   8.858  19.229   7.890  0.0875  0.0051  0.0910
    1W        W47707  15.661   0.606   2.056  0.0303  0.0051  0.0321
    1W        W47708  11.888  17.468   8.046 -0.0813  0.2499 -0.1630
    1W        W47709  22.336  27.876   1.429  0.2921  0.1788 -0.0126
    1W        W47710  16.139  10.963   9.238 -0.3266  0.0431  0.0673
    1W        W47711  14.383   6.860   2.862  0.0052  0.0301 -0.2694
    1W        W47712   2.812   2.717   1.964 -0.1322 -0.0269 -0.4951
    1W        W47713  28.064   4.572   6.043  0.1291  0.2596  0.1039
    1W        W47714   1.030  12.602   0.043  0.0813 -0.0396 -0.1948
    1W        W47715   2.228   1.457   0.511 -0.1324 -0.2086  0.0427
    1W        W47716   6.209  22.479   9.814 -0.0008 -0.4445  0.3736
    1W        W47717  15.425  27.537   1.694  0.0612 -0.2447 -0.2724
    1W        W47718  22.377   7.071   6.204 -0.2976 -0.0114  0.1398
    1W        W47719  15.041  18.164   9.724 -0.0336 -0.2459  0.2943
    1W        W47720  24.079   4.034   7.063  0.0870  0.1018 -0.2697
    1W        W47721  11.392  14.835   2.464 -0.0548 -0.2984 -0.1269
    1W        W47722  23.012  21.379   2.087  0.1550  0.1006  0.4690
    1W        W47723   3.294   5.266   8.796 -0.0670 -0.0988 -0.1538
    1W        W47724  24.237   4.340   9.365 -0.4831  0.1809 -0.1342
    1W        W47725  22.850  10.160   0.456 -0.0902  0.0317 -0.2494
    1W        W47726   4.187  15.574   7.419 -0.1002 -0.3284 -0.0466
    1W        W47727   3.506   6.529   8.683 -0.0112 -0.1287 -0.1866
    1W        W47728  14.439  13.162   0.814  0.0142  0.1076  0.1468
    1W        W47729   1.148   2.120   2.280 -0.0973  0.0605  0.0818
    1W        W47730   5.967  17.677   1.424 -0.0624 -0.0338 -0.2814
    1W        W47731  21.879  19.728   8.011  0.0043  0.0094 -0.2950
    1W        W47732  22.316  10.971   9.165  0.0229  0.0612 -0.2721
    1W        W47733  21.577   5.303   0.387 -0.0923  0.0070  0.1457
    1W        W47734  23.592  26.376   1.213 -0.0275  0.0612 -0.0145
    1W        W47735   9.964   8.662   0.132  0.1922 -0.0883  0.0831
    1W        W47736   8.363   6.599   6.613 -0.1168  0.0872  0.2605
    1W        W47737  12.829   3.890   8.234  0.1945 -0.1514  0.0792
    1W        W47738   2.862  10.577   6.458 -0.1975 -0.0585 -0.1260
    1W        W47739   7.459  18.490   9.631  0.0425 -0.0859 -0.0942
    1W        W47740   2.225   1.819   9.610 -0.1086  0.2373 -0.2469
    1W        W47741   1.347  10.697   6.318  0.1801  0.0080  0.0812
    1W        W47742  19.189   5.764   1.534 -0.3713 -0.0030  0.3496
    1W        W47743  12.050  12.960   7.858 -0.0263  0.1493 -0.1370
    1W        W47744  13.963   1.468   0.535  0.0393 -0.0286 -0.1974
    1W        W47745  12.039  28.632   9.440 -0.0333  0.0086  0.0575
    1W        W47746  19.195  25.311   0.244 -0.1783 -0.2265 -0.0541
    1W        W47747  25.919   1.978   3.228 -0.2826 -0.0120  0.0831
    1W        W47748   1.746   5.676   2.177  0.1153  0.2001  0.3079
    1W        W47749   6.152   6.370   9.131  0.3796  0.1915 -0.1127
    1W        W47750  27.832  20.477   9.400 -0.0174 -0.1569  0.0914
    1W        W47751   1.750   8.027   1.821  0.0710 -0.3261 -0.1924
    1W        W47752  26.299  13.304   8.201 -0.1004  0.0653 -0.3198
    1W        W47753   5.285  18.613   6.781 -0.1766  0.0884 -0.3869
    1W        W47754  14.526  13.886   2.065 -0.0993 -0.0372  0.2841
    1W        W47755   7.214  25.229   1.903 -0.1892  0.0888 -0.2316
    1W        W47756  23.674  21.466   2.948  0.0873 -0.1442 -0.4551
    1W        W47757   3.833   1.690   2.093  0.2451  0.1387 -0.0338
    1W        W47758  10.406   6.776   9.647 -0.0853 -0.0273  0.0964
    1W        W47759   5.071  19.501   7.606  0.3087  0.0776  0.3182
    1W        W47760  24.686  14.573   9.373  0.1846  0.0572  0.2143
    1W        W47761   4.397  19.988   8.625 -0.1247  0.0541 -0.0373
    1W        W47762  22.044  27.573   6.631 -0.1333 -0.1675 -0.0977
    1W        W47763  12.656  17.442   8.631 -0.2274  0.2875  0.0009
    1W        W47764   7.144  26.576   1.184 -0.0904 -0.1112 -0.1886
    1W        W47765  18.541   2.747   0.712  0.0510 -0.2004  0.0585
    1W        W47766   5.510   7.990   9.517 -0.1357  0.0622  0.1856
    1W        W47767  18.506   3.498   3.652 -0.2222  0.2246  0.1278
    1W        W47768  11.594   8.411   7.691  0.3247 -0.2054 -0.0870
    1W        W47769   9.133  12.937   8.975 -0.0384 -0.1689  0.0981
    1W        W47770  12.701   2.816   2.222 -0.2904  0.0080  0.2490
    1W        W47771   0.414  15.340   1.269 -0.1632 -0.0144 -0.1981
    1W        W47772  24.066   3.879   2.986 -0.4226 -0.2105  0.1249
    1W        W47773   7.027  13.004   8.100 -0.2260  0.1222  0.0180
    1W        W47774  10.784   9.373   9.656 -0.1452  0.2560  0.0006
    1W        W47775  21.854   7.527   0.338 -0.0817  0.1578  0.0046
    1W        W47776  25.926  20.349   2.155 -0.1907 -0.0040  0.0587
    1W        W47777   5.921   7.089   1.628  0.0281  0.2864  0.1359
    1W        W47778   0.258  11.714   9.067  0.2748 -0.1048  0.2784
    1W        W47779  28.671   6.875   6.965 -0.2665 -0.4342 -0.0266
    1W        W47780   4.126  23.728   1.245 -0.0264 -0.0816  0.0238
    1W        W47781   9.864  18.920   1.841  0.0684  0.0749  0.1196
    1W        W47782   3.374   8.038   9.150  0.1168 -0.3132  0.0043
    1W        W47783  11.007  15.973   8.158  0.0979  0.1963  0.1293
    1W        W47784  19.718   6.511   9.285 -0.0241  0.1460 -0.0670
    1W        W47785  17.389  25.799   0.343 -0.0194 -0.2625 -0.1421
    1W        W47786   4.439  24.017   2.113  0.0717 -0.0639  0.0534
    1W        W47787  21.675   3.896   0.067  0.1101  0.2334 -0.3869
    1W        W47788  23.918  20.863   9.215  0.0197  0.0403  0.0971
    1W        W47789   8.030   7.246   3.679 -0.2821 -0.1739  0.0358
    1W        W47790  11.550   2.239   2.672  0.3338 -0.1057  0.1597
    1W        W47791  10.788   9.356   9.138 -0.2679 -0.0493 -0.1700
    1W        W47792  16.366  23.993   3.140  0.2346 -0.2493  0.0025
    1W        W47793   0.172  18.286   8.210  0.2173 -0.0569 -0.0255
    1W        W47794  18.769  11.464   1.279  0.0413 -0.2267  0.2765
    1W        W47795  16.060   1.566   7.692 -0.0922 -0.2416  0.1168
    1W        W47796  27.093   1.208   2.260 -0.2992 -0.3750  0.6487
    1W        W47797  12.183  22.100   7.623 -0.1850 -0.1271 -0.0936
    1W        W47798  22.984  27.791   0.738  0.1377 -0.2720 -0.1964
    1W        W47799  22.758  10.964   7.734  0.0774 -0.2158 -0.3639
    1W        W47800  20.303   2.075   9.353  0.0226 -0.1507 -0.0047
    1W        W47801   8.064   7.644   0.303  0.0867  0.1624 -0.3228
    1W        W47802  11.729  20.604   8.548 -0.0091 -0.0472 -0.2450
    1W        W47803   6.552  11.550   7.135  0.0502  0.0474 -0.1562
    1W        W47804  20.490  13.103   9.111 -0.1982  0.1917 -0.4396
    1W        W47805  24.138  13.979   2.746  0.2256 -0.0458  0.1972
    1W        W47806  27.071  13.403   6.760  0.0520  0.0144  0.1954
    1W        W47807   8.277   6.593   2.777 -0.1520 -0.3525  0.2420
    1W        W47808  13.984  16.662   2.064 -0.0637  0.2292 -0.1947
    1W        W47809  24.789  16.918   8.665 -0.1481  0.1142  0.0619
    1W        W47810  23.648   4.248   0.211 -0.1792 -0.1256 -0.0376
    1W        W47811  12.229  10.742   9.205 -0.0536 -0.1885  0.2814
    1W        W47812  14.825  25.626   7.278 -0.0978 -0.0407  0.2197
    1W        W47813  21.038  23.651   2.015  0.2008 -0.0940  0.0122
    1W        W47814   3.686  15.754   8.513 -0.0900  0.0853 -0.2721
    1W        W47815   2.631  14.887   6.787  0.1943 -0.3189 -0.2145
    1W        W47816  21.364  22.035   8.977 -0.1549 -0.3575 -0.0129
    1W        W47817  15.889   3.724   2.209 -0.1845 -0.0760 -0.0208
    1W        W47818  11.178  13.185   2.757  0.1557 -0.1508 -0.0064
    1W        W47819  11.816   8.800   8.817  0.0304  0.1028  0.1421
    1W        W47820  28.635   7.942   9.564 -0.1178 -0.0142  0.2140
    1W        W47821  24.339   8.232   7.392  0.0624 -0.1433  0.2054
    1W        W47822  27.135  18.876   9.582  0.0243  0.0932 -0.2707
    1W        W47823  10.520   4.269   2.770  0.2778 -0.0337  0.1580
    1W        W47824  25.550   6.801   9.575 -0.1947  0.0061 -0.1498
    1W        W47825  21.160   8.924   7.680  0.0879 -0.0681  0.2429
    1W        W47826   0.514  21.044   6.433 -0.3283 -0.4868 -0.1364
    1W        W47827   7.252   1.305   2.935 -0.0892  0.2147 -0.1746
    1W        W47828  10.811   5.772   2.914  0.3626 -0.2482 -0.2481
    1W        W47829   8.788  19.794   9.483  0.1711  0.0018 -0.1160
    1W        W47830  15.573   0.854   3.187 -0.3101 -0.0960 -0.0764
    1W        W47831  16.562  13.901   8.487 -0.0815  0.1451 -0.0894
    1W        W47832   6.059   0.053   0.049 -0.1405 -0.0323  0.0566
    1W        W47833   2.127  19.042   0.906  0.0296  0.2666  0.1259
    1W        W47834  16.959   1.517   3.261  0.2594  0.2157 -0.1301
    1W        W47835  10.043  19.045   1.251  0.2068  0.0847 -0.3890
    1W        W47836   2.541   6.754   9.635  0.1013  0.0530  0.1629
    1W        W47837  16.509   9.396   9.389  0.0624  0.0131  0.2250
    1W        W47838  20.025   0.412   1.574 -0.0832 -0.0293 -0.0900
    1W        W47839  18.569  26.622   7.810 -0.1054  0.1579  0.1918
    1W        W47840  16.734  12.345   1.737 -0.1273 -0.1534 -0.0933
    1W        W47841  20.214  16.096   7.814 -0.1748 -0.1710 -0.0278
    1W        W47842   3.765   0.641   7.103  0.2417  0.1961  0.1523
    1W        W47843   9.749  23.568   8.941  0.0374  0.0112 -0.0299
    1W        W47844  19.295  17.027   9.343  0.0180  0.2127  0.0932
    1W        W47845   4.023   6.460   2.052 -0.1853 -0.1821 -0.2297
    1W        W47846  15.293   2.031   1.585  0.1025  0.0633  0.0664
    1W        W47847  10.835   5.590   0.489  0.1873 -0.1335  0.0699
    1W        W47848   6.733   2.803   2.008 -0.1193  0.3004  0.1984
    1W        W47849  13.510  17.541   1.776 -0.1766 -0.3537  0.0541
    1W        W47850  18.635   4.923   3.479 -0.4323 -0.0166  0.1805
    1W        W47851  14.553  15.014   0.519 -0.1111 -0.0439 -0.2186
    1W        W47852   9.685  11.734   1.593  0.0971 -0.3247  0.0983
    1W        W47853  25.275  12.351   7.585 -0.1047 -0.1154  0.4700
    1W        W47854  17.617   4.459   2.694 -0.1218 -0.2019  0.2854
    1W        W47855  15.502   9.557   2.871  0.1228  0.0965  0.0568
    1W        W47856  24.100   2.722   1.114  0.2040 -0.1921  0.3851
    1W        W47857  17.995  22.729   6.933  0.0573 -0.2173 -0.1194
    1W        W47858  23.418   7.324   7.140 -0.0425 -0.1705 -0.2185
    1W        W47859  14.043   0.853   8.272 -0.1575 -0.2102 -0.0907
    1W        W47860  20.759  18.844   0.837  0.1484 -0.2987  0.1720
    1W        W47861  28.239  18.925   7.600 -0.0240 -0.0882 -0.0207
    1W        W47862  13.210  24.626   8.656 -0.0773  0.1102  0.2864
    1W        W47863  23.358   6.973   1.350  0.1539  0.1501 -0.2498
    1W        W47864  16.378  13.608   8.147 -0.0102 -0.0759  0.0005
    1W        W47865  26.138  18.500   9.907  0.2721 -0.3716 -0.0016
    1W        W47866   4.445   9.668   3.173 -0.1954 -0.3642  0.0318
    1W        W47867  22.565   5.127   8.009  0.0630 -0.2043 -0.3040
    1W        W47868  12.730  27.638   0.660 -0.0538 -0.0543 -0.0490
    1W        W47869  26.292  19.293   1.062 -0.2121  0.1044  0.0515
    1W        W47870  11.293  18.223   0.405  0.3003  0.3304  0.0396
    1W        W47871  22.159  27.394   2.306  0.0983  0.1911 -0.4269
    1W        W47872  26.447   7.338   7.096 -0.1245 -0.1584 -0.1138
    1W        W47873   1.826  15.757   0.476  0.0225 -0.1114  0.0251
    1W        W47874  25.282  15.685   1.060 -0.0433  0.0019  0.2292
    1W        W47875   9.422  20.863   6.239  0.3033  0.0970 -0.2231
    1W        W47876   0.321  20.029   0.087  0.1089 -0.1447  0.1801
    1W        W47877  10.913  13.387   8.345  0.1813  0.2444  0.1079
    1W        W47878  13.685  19.807   2.255  0.0731  0.0731 -0.1643
    1W        W47879  19.002  23.725   0.958  0.2444  0.2873  0.1966
    1W        W47880   6.563  27.916   2.439  0.0733 -0.2055 -0.4108
    1W        W47881  14.903  24.995   0.790  0.0277 -0.2470  0.3335
    1W        W47882  14.411   6.924   0.436  0.3232 -0.0299 -0.1070
    1W        W47883   7.281   1.735   0.322 -0.1038  0.1232 -0.1587
    1W        W47884  16.541  27.297   1.864  0.1793 -0.2902  0.1614
    1W        W47885   7.365  26.294   0.126  0.0028 -0.1132  0.2409
    1W        W47886  12.499  26.330   7.774 -0.1273 -0.0599  0.2472
    1W        W47887   8.113  17.143   7.697  0.0803  0.0093 -0.2391
    1W        W47888  20.806   5.230   0.750 -0.1279  0.3563  0.2529
    1W        W47889  19.264  20.878   9.594  0.1341  0.2795  0.2667
    1W        W47890   2.528  19.933   2.362 -0.1868 -0.0305  0.0156
    1W        W47891  12.979  23.499   2.031  0.2114  0.1302  0.1299
    1W        W47892   1.176   5.613   2.594 -0.1620  0.2984  0.0738
    1W        W47893  13.900  14.482   9.439  0.0332 -0.1160 -0.1465
    1W        W47894   3.631  19.057   2.088  0.1514  0.1159 -0.0013
    1W        W47895  22.461  27.871   8.311  0.0463  0.0464  0.1642
    1W        W47896   5.506  10.645   2.884 -0.0731 -0.2671 -0.0675
    1W        W47897  26.637  12.490   9.543 -0.1782  0.0525 -0.0959
    1W        W47898  19.947  19.039   7.804 -0.2334  0.2104  0.0181
    1W        W47899  17.871  12.113   8.492 -0.0878  0.1276 -0.1846
    1W        W47900  18.650  22.410   8.049  0.1301  0.1177  0.0649
    1W        W47901  23.748  27.596   0.493  0.1313 -0.0054 -0.0767
    1W        W47902  24.695  15.000   2.761  0.0071 -0.2462 -0.0637
    1W        W47903  10.885   2.520   3.468  0.3349 -0.1967  0.3433
    1W        W47904  17.722  18.876   0.728 -0.1139 -0.4904  0.1773
    1W        W47905   8.570  25.877   7.499 -0.1195  0.1861  0.2391
    1W        W47906   5.029  12.887   0.194  0.0164 -0.1052  0.1317
    1W        W47907   0.622   4.479   0.226  0.2165  0.0965  0.1253
    1W        W47908  11.435  10.107   2.924  0.0143  0.1089 -0.1844
    1W        W47909   1.310   6.219   7.566 -0.0540 -0.0855  0.0504
    1W        W47910   8.352  15.603   8.131  0.0851 -0.0825  0.0686
    1W        W47911  12.951  13.128   8.102  0.1723  0.1641 -0.2097
    1W        W47912   6.396   7.992   7.573 -0.1682  0.0372 -0.0284
    1W        W47913  24.241  12.618   2.839 -0.2352  0.0098  0.1900
    1W        W47914   3.094  22.068   2.295  0.0578 -0.0222 -0.1292
    1W        W47915  16.160  28.455   1.118 -0.1117  0.0970 -0.1186
    1W        W47916   9.976  22.017   1.803 -0.3471 -0.2709  0.0498
    1W        W47917   9.231  24.135   6.914 -0.2385 -0.3576  0.0248
    1W        W47918   4.539   5.698   0.628  0.2851 -0.2038  0.0880
    1W        W47919  24.116   5.888   8.490 -0.2394  0.2502  0.0310
    1W        W47920   2.295  20.723   1.935 -0.1808  0.2010  0.2609
    1W        W47921   8.035  14.845   1.730  0.0739  0.0870  0.0327
    1W        W47922  19.283   6.672   9.065  0.1193 -0.1558 -0.3772
    1W        W47923  21.403   2.070   6.125 -0.2693 -0.0889 -0.1222
    1W        W47924  16.364  28.546   3.976  0.0535  0.2633  0.2269
    1W        W47925   1.475  18.036   0.420 -0.0817 -0.3463  0.1244
    1W        W47926   3.151   5.012   8.198  0.0399 -0.0828 -0.0515
    1W        W47927  22.392   4.306   8.815  0.1772  0.2225  0.1110
    1W        W47928  24.668   8.385   1.531  0.0246  0.3803 -0.0650
    1W        W47929  28.583   7.073   3.225 -0.0798  0.1448 -0.4059
    1W        W47930  17.368   6.352   9.292  0.0708 -0.1257 -0.0211
    1W        W47931  15.146   4.448   3.707  0.1802  0.2994  0.0324
    1W        W47932   2.187  14.714   0.066  0.2115  0.0668  0.1995
    1W        W47933  14.469   9.121   0.679  0.2748  0.0378  0.5157
    1W        W47934  21.715  16.948   1.605  0.1424 -0.1419 -0.0920
    1W        W47935   2.928   0.650   1.699 -0.2086  0.1437 -0.4026
    1W        W47936   7.337  27.729   6.793  0.0289 -0.1031  0.0850
    1W        W47937  10.566  16.233   8.388  0.0981 -0.3992  0.1912
    1W        W47938  11.131  17.161   8.779 -0.0312  0.0679  0.1325
    1W        W47939   6.900   2.251   8.999  0.2518  0.0225  0.3285
    1W        W47940  26.390  21.746   9.079 -0.1236  0.1928 -0.2060
    1W        W47941  15.658   7.131   0.651  0.4073 -0.1927  0.0726
    1W        W47942   5.147  11.756   1.561 -0.0410  0.2852 -0.0344
    1W        W47943  24.543  13.054   6.855 -0.2104 -0.1195  0.2728
    1W        W47944  23.183   2.819   9.185  0.2302  0.0051  0.1868
    1W        W47945  18.867   9.146   7.092  0.1328 -0.0902 -0.1819
    1W        W47946   8.365  11.425   8.330  0.4181 -0.0953  0.1922
    1W        W47947  17.426  20.155   8.841  0.1243  0.1069 -0.0534
    1W        W47948  21.752   4.953   8.147  0.2809 -0.0035  0.0328
    1W        W47949  10.072  20.421   8.897 -0.1997 -0.0685 -0.3352
    1W        W47950  14.730  23.609   9.837 -0.1015  0.0664  0.1487
    1W        W47951  24.823   5.372   8.180 -0.3076  0.2990 -0.1199
    1W        W47952  27.022   4.812   2.586  0.0886 -0.0261  0.0939
    1W        W47953  15.411  20.941   3.485 -0.3326  0.0736  0.1579
    1W        W47954  12.788   3.532   8.978 -0.1751 -0.0912 -0.1412
    1W        W47955  16.316   6.003   7.033  0.2652 -0.1618  0.0147
    1W        W47956   0.252  11.334   8.730  0.0036  0.0365  0.0928
    1W        W47957  16.723   0.067   2.238  0.3420  0.1391 -0.3974
    1W        W47958  27.090  18.428   7.959  0.3060  0.0228  0.0564
    1W        W47959  14.169  22.976   7.700 -0.0578  0.0056  0.2718
    1W        W47960  13.710   3.486   9.098 -0.2613 -0.2857 -0.1285
    1W        W47961   3.674  19.690   7.361  0.1014 -0.2780  0.0536
    1W        W47962   5.524   9.977   9.140 -0.0333 -0.2385 -0.1173
    1W        W47963  10.233  13.860   9.353 -0.1562  0.0756 -0.2413
    1W        W47964  10.110  12.856   1.394  0.2440 -0.0914  0.0868
    1W        W47965  25.064  17.254   2.205 -0.4202 -0.0821 -0.0042
    1W        W47966  20.853   1.370   2.096 -0.0402 -0.2577 -0.1835
    1W        W47967   9.991  19.549   1.165  0.0994  0.1335  0.0368
    1W        W47968   9.990  13.294   1.767 -0.3668  0.0794  0.1230
    1W        W47969   7.619  23.143   8.440  0.1053  0.1511 -0.0303
    1W        W47970  24.766  10.362   9.108 -0.2051 -0.1696 -0.2816
    1W        W47971  21.956   8.952   1.594  0.2887  0.0084  0.1497
    1W        W47972   4.704   7.926   7.540 -0.4218 -0.0351  0.0214
    1W        W47973  11.421   5.982   9.586  0.1294  0.3843  0.0137
    1W        W47974  19.149   2.820   7.190  0.1770  0.0437  0.1975
    1W        W47975   3.593  21.121   8.646 -0.1331 -0.5045 -0.2950
    1W        W47976  24.208  16.201   1.450  0.1612  0.0325  0.4903
    1W        W47977  11.303   3.875   0.411  0.0696 -0.3333  0.2549
    1W        W47978   6.854   0.332   3.245  0.1431 -0.2745 -0.1790
    1W        W47979  15.295   6.521   8.902 -0.1640 -0.0281 -0.2950
    1W        W47980  15.323   8.020   0.832 -0.1085  0.3652  0.0288
    1W        W47981   9.194   3.115   2.430 -0.3049 -0.0208 -0.1075
    1W        W47982  20.020   9.757   8.692  0.0122 -0.2731 -0.2453
    1W        W47983  13.647  22.445   1.782 -0.0303 -0.4957  0.2703
    1W        W47984  26.383   5.174   5.586  0.0996  0.4769  0.0642
    1W        W47985  26.576   5.591   7.473  0.0939 -0.1472 -0.2557
    1W        W47986   4.224  11.084   2.515  0.5503  0.1217  0.3905
    1W        W47987  21.583  24.699   2.675 -0.0003 -0.2394 -0.2585
    1W        W47988   3.371   0.811   8.721 -0.1331  0.1840 -0.5154
    1W        W47989  17.184  13.977   9.570 -0.1015  0.0744  0.2099
    1W        W47990   8.089   9.386   1.615 -0.0535  0.0624  0.1530
    1W        W47991  28.615  28.236   7.402 -0.1117 -0.0735  0.0316
    1W        W47992  23.768  27.450   1.797 -0.1668  0.5182  0.1172
    1W        W47993   0.230  22.755   8.854  0.3743  0.2397 -0.0642
    1W        W47994  16.905   2.459   8.749 -0.4338  0.0274  0.2696
    1W        W47995  13.522   7.112   3.202 -0.0826 -0.0022 -0.2255
    1W        W47996  12.142  21.331   9.724 -0.0555 -0.0330 -0.0040
    1W        W47997   2.109  12.992   8.916 -0.2383  0.1451  0.3230
    1W        W47998  19.772  10.961   8.424  0.1040  0.0705  0.0752
    1W        W47999   5.551  16.679   9.914 -0.0054  0.2382  0.2309
    1W        W48000   8.595  26.558   0.600  0.1504 -0.0302 -0.0425
    1W        W48001  11.668  25.033   9.807 -0.1984  0.2022  0.1184
    1W        W48002   9.150  12.654   0.171 -0.3279  0.0407 -0.0989
    1W        W48003  26.571  23.142   9.159  0.3159  0.0454  0.0917
    1W        W48004  10.265   1.354   8.353 -0.2120  0.1550  0.1080
    1W        W48005  15.267  13.173   9.600  0.0958 -0.1528  0.2505
    1W        W48006  18.990   1.438   9.689  0.0639 -0.0089  0.0778
    1W        W48007   1.415   4.895   9.747  0.1199 -0.1675 -0.1972
    1W        W48008   8.865  17.830   7.500 -0.0657 -0.1089 -0.0418
    1W        W48009  13.715  26.690   3.174 -0.2373  0.0099  0.0175
    1W        W48010  25.942  16.404   7.106 -0.2437 -0.1803 -0.0560
    1W        W48011  16.394  13.166   7.939 -0.0928  0.1633  0.0925
    1W        W48012  13.595   0.536   9.224 -0.0829  0.1407 -0.1165
    1W        W48013  18.407  27.151   0.500 -0.1852 -0.0686 -0.2265
    1W        W48014   3.328  24.372   2.003 -0.1042 -0.2827 -0.0092
    1W        W48015   8.867   6.779   1.284  0.0956  0.0235  0.0920
    1W        W48016   1.695  23.007   7.185 -0.0228 -0.3000  0.2965
    1W        W48017  16.913   0.545   3.456  0.0593  0.1200 -0.3323
    1W        W48018   0.530  11.006   7.628 -0.2430  0.2662  0.0611
    1W        W48019  10.631  26.841   8.925  0.1242  0.0106  0.1110
    1W        W48020  12.181  26.987   9.941 -0.1312 -0.0124 -0.2256
    1W        W48021   4.972   9.894   6.489 -0.0800 -0.4055 -0.3962
    1W        W48022  18.257  14.255   7.622  0.1480 -0.0540  0.3022
    1W        W48023  24.285   0.341   1.303  0.3371 -0.0618  0.0006
    1W        W48024   0.123   6.668   9.491 -0.0903  0.4047 -0.1351
    1W        W48025   4.432  20.950   9.536  0.1420 -0.0607  0.3173
    1W        W48026  14.687  16.777   9.410  0.1206 -0.1196  0.0163
    1W        W48027  20.803  27.935   9.483 -0.1066  0.1233  0.3626
    1W        W48028  18.089  26.095   2.982 -0.2075  0.0008  0.0024
    1W        W48029   1.446  15.885   0.857 -0.2016  0.0028 -0.1122
    1W        W48030  17.977   3.698   7.796 -0.2666  0.1029  0.1305
    1W        W48031  11.882  20.545   3.313 -0.0150 -0.2515  0.0111
    1W        W48032   1.626  28.373   0.658 -0.0584  0.0853  0.2893
    1W        W48033   7.988   3.064   8.123  0.1348  0.3758 -0.1136
    1W        W48034  25.382   6.389   0.900 -0.0448  0.0709 -0.1443
    1W        W48035   7.113   7.502   1.290  0.3499 -0.3894  0.1869
    1W        W48036   2.830  18.155   8.440 -0.3139 -0.2660  0.0492
    1W        W48037   4.450  28.040   7.602 -0.2216  0.1278  0.0693
    1W        W48038  26.766  10.403   1.291 -0.1516 -0.0802  0.1740
    1W        W48039   3.089   0.364   0.550 -0.1570 -0.0884 -0.2238
    1W        W48040   9.640  21.308   0.366 -0.0990 -0.1175 -0.3075
    1W        W48041  11.973  23.770   0.352 -0.1634 -0.4527 -0.2513
    1W        W48042   6.227   0.147   8.716 -0.1938 -0.1058 -0.0634
    1W        W48043  18.928  19.205   1.236  0.0740 -0.2960 -0.0142
    1W        W48044   5.547   7.148   0.101  0.0256  0.1355  0.0543
    1W        W48045  20.860  23.504   1.538  0.0068  0.2185  0.1484
    1W        W48046  25.279  21.553   9.812  0.0749 -0.2822  0.1493
    1W        W48047   0.685  22.938   7.183 -0.2112  0.2714 -0.1586
    1W        W48048  23.636  27.795   2.123  0.1067 -0.1374 -0.4064
    1W        W48049   8.347   0.782   2.203 -0.0691 -0.0920 -0.0235
    1W        W48050  20.359   1.894   8.054  0.2070  0.1227  0.1637
    1W        W48051  16.225   8.903   1.378  0.2020  0.2757  0.2228
    1W        W48052  13.348  23.577   2.436  0.1568 -0.0063 -0.1423
    1W        W48053   5.018  14.160   7.451 -0.2602 -0.1346  0.0111
    1W        W48054   7.425   9.403   8.391 -0.0650 -0.1857  0.2728
    1W        W48055   5.443  12.271   7.335 -0.0119 -0.1393  0.2850
    1W        W48056  13.157  20.096   9.174  0.1948  0.0497  0.0130
    1W        W48057   3.497  11.018   7.287  0.2656  0.0450 -0.3625
    1W        W48058  28.721  17.156   9.337 -0.1978 -0.4608 -0.0831
    1W        W48059  12.870  24.794   8.321  0.1692  0.2649 -0.2105
    1W        W48060  19.623  25.823   8.264  0.0500  0.2396  0.1402
    1W        W48061   2.421   6.833   0.765 -0.0171 -0.2415  0.1749
    1W        W48062  12.390  19.953   7.720 -0.0412 -0.3553 -0.1828
    1W        W48063  17.432  22.568   6.888  0.1969  0.0764  0.3820
    1W        W48064   2.377  11.907   1.680  0.2532  0.0352  0.1121
    1W        W48065  16.822  28.108   1.661  0.0067  0.0125 -0.2579
    1W        W48066  15.566  14.804   1.846  0.2929  0.0077  0.1005
    1W        W48067   8.107   7.800   7.494  0.1533  0.2371 -0.0222
    1W        W48068   4.348  15.937   2.286  0.1641  0.3865 -0.1406
    1W        W48069  20.262  25.140   1.433 -0.1634 -0.3453  0.3513
    1W        W48070  19.900   0.848   1.306 -0.2717  0.0170  0.1949
    1W        W48071   1.464   0.571   0.407 -0.1198 -0.2903  0.0704
    1W        W48072   5.058   2.426   1.217 -0.3357 -0.4502  0.0088
    1W        W48073  23.836   0.090   1.742 -0.1177 -0.2725  0.1088
    1W        W48074   3.264  24.574   6.625 -0.0579  0.2764  0.5037
    1W        W48075  26.093  21.291   7.420 -0.0023 -0.1185  0.1513
    1W        W48076   9.007  18.173   1.201  0.0471 -0.0206 -0.2059
    1W        W48077  19.840  14.285   9.918 -0.1725 -0.0065  0.0586
    1W        W48078   0.813   2.097   1.479 -0.2123 -0.3306  0.2097
    1W        W48079  12.099  24.487   0.988  0.1318  0.0275  0.4069
    1W        W48080   6.232  14.035   9.106 -0.0689  0.3122 -0.5173
    1W        W48081   5.558  22.005   9.508 -0.0840  0.4573  0.1221
    1W        W48082   2.432   1.876   2.611 -0.0271  0.1244  0.3834
    1W        W48083  14.424  13.866   7.640 -0.0728 -0.0579  0.2466
    1W        W48084   8.686   2.065   3.270 -0.1186 -0.2587  0.3741
    1W        W48085   6.890   8.750   2.995  0.1570 -0.1440 -0.1802
    1W        W48086  20.058  23.772   2.306  0.0792  0.1083  0.0049
    1W        W48087  26.150   5.671   1.497 -0.0095 -0.0694 -0.1842
    1W        W48088  19.735  18.220   0.576 -0.1187 -0.4306 -0.2039
    1W        W48089  17.637   3.034   0.343 -0.0038  0.2243 -0.3106
    1W        W48090  15.491  16.431   7.937  0.1526 -0.0766  0.3080
    1W        W48091  15.088   8.025   1.335 -0.1851 -0.2978  0.0584
    1W        W48092  18.966   9.401   0.940 -0.2054 -0.1303  0.1392
    1W        W48093  14.434  21.058   9.059  0.4446  0.2180 -0.1642
    1W        W48094  22.252  24.360   8.714  0.2666 -0.1918  0.1209
    1W        W48095   3.866   2.001   7.711 -0.5072  0.2220 -0.0699
    1W        W48096  23.807  23.538   9.581 -0.0340  0.0648  0.0086
    1W        W48097   1.213   6.170   1.830  0.0591 -0.0525  0.1564
    1W        W48098   3.562   5.921   9.823  0.4947 -0.2719  0.1436
    1W        W48099  21.603  12.663   0.894  0.2335  0.1270  0.0667
    1W        W48100  28.538  12.010   1.902  0.0894 -0.0732  0.0704
    1W        W48101  18.395   4.362   2.326 -0.1376  0.0825 -0.1277
    1W        W48102  15.156   4.072   3.276  0.1943  0.2130  0.1343
    1W        W48103  15.879   0.457   8.559 -0.1310  0.0794  0.0609
    1W        W48104  19.739  22.140   0.213  0.1847 -0.0393 -0.1629
    1W        W48105  27.821   8.971   6.105 -0.0379 -0.1570 -0.1513
    1W        W48106   8.828   1.320   0.829  0.1037  0.1454 -0.0539
    1W        W48107  15.466  12.665   8.753  0.2785  0.3115 -0.3737
    1W        W48108   5.369   4.947   1.614 -0.0207 -0.0963  0.0616
    1W        W48109  21.616  12.292   3.294  0.0838  0.3179 -0.1977
    1W        W48110  19.553  12.564   9.482  0.1062 -0.3351  0.0773
    1W        W48111  18.541  13.412   8.958  0.1416  0.1427 -0.2135
    1W        W48112   9.544  23.266   1.995  0.1310 -0.2861  0.0168
    1W        W48113   0.163   4.927   7.293 -0.2789  0.0793 -0.1905
    1W        W48114   4.157   3.550   0.307 -0.2581  0.0494  0.0488
    1W        W48115  24.849   6.390   8.970 -0.0742 -0.2770  0.1184
    1W        W48116  25.942  16.621   9.144 -0.0105 -0.0454  0.3290
    1W        W48117  26.585  18.063   9.404  0.0359 -0.2417  0.2501
    1W        W48118  23.899   7.302   8.387 -0.1093 -0.0076 -0.0691
    1W        W48119  24.916  12.840   1.298  0.1449 -0.0036 -0.1394
    1W        W48120  10.983   1.723   0.303 -0.3089 -0.2906 -0.0303
    1W        W48121  26.317  12.230   7.653  0.2103  0.1405  0.1397
    1W        W48122  22.255  27.698   7.838 -0.2100 -0.0578  0.0830
    1W        W48123  19.349  17.548   9.947 -0.2160  0.0946 -0.0405
    1W        W48124   4.915  24.501   0.098  0.1273  0.0406  0.1163
    1W        W48125   8.226  25.925   9.194  0.1210 -0.0391  0.0772
    1W        W48126  25.691   8.957   6.559 -0.0434 -0.0739  0.3324
    1W        W48127  20.401  17.130   9.775 -0.0849 -0.0438 -0.5119
    1W        W48128   8.984  17.196   8.698 -0.0712 -0.1103 -0.1364
    1W        W48129  19.911   6.326   7.711  0.1743  0.0414  0.0507
    1W        W48130  14.498  10.227   9.884 -0.3155  0.0657  0.1025
    1W        W48131  25.030  17.595   1.809  0.2003 -0.2485 -0.0658
    1W        W48132   1.722  12.498   9.823 -0.0281  0.0679 -0.0931
    1W        W48133   8.628  10.621   2.798  0.2546  0.1052  0.0652
    1W        W48134  16.857  26.536   1.307 -0.0638 -0.0243  0.1334
    1W        W48135   4.142   2.426   3.129 -0.0344  0.1403  0.3884
    1W        W48136  18.706  27.228   8.851 -0.1660  0.1499 -0.0019
    1W        W48137  26.529  28.096   8.631  0.1178 -0.2733 -0.0269
    1W        W48138  22.165  25.187   6.469  0.1596 -0.2629 -0.4751
    1W        W48139  21.724  10.421   3.090  0.1736 -0.0805  0.3702
    1W        W48140  19.292  11.750   8.214  0.2407 -0.2095 -0.0855
    1W        W48141   9.037  25.550   9.499 -0.1986  0.1665  0.0683
    1W        W48142   5.867  12.232   1.339 -0.1124 -0.1838  0.1882
    1W        W48143  19.942  11.386   2.522 -0.1050  0.0306 -0.1781
    1W        W48144  13.116   0.719   8.827 -0.0326 -0.3356 -0.0238
    1W        W48145   3.827  26.683   7.175 -0.0653 -0.2698  0.0728
    1W        W48146  27.917  28.094   1.805 -0.3936  0.1301  0.1687
    1W        W48147  20.282   4.176   3.212 -0.2079  0.2013 -0.0608
    1W        W48148  24.192  14.545   0.163 -0.1092 -0.1957 -0.1404
    1W        W48149  12.068  22.764   9.635 -0.0503 -0.3837  0.0633
    1W        W48150  17.552   1.782   1.117 -0.1768  0.3026 -0.2831
    1W        W48151  26.608  27.244   0.592 -0.2873  0.1012 -0.1149
    1W        W48152  23.652  28.367   8.016  0.0244 -0.3313 -0.1606
    1W        W48153   6.686  10.185   3.188 -0.1890  0.2161  0.0827
    1W        W48154  19.997  24.754   9.918  0.0624 -0.0179 -0.0056
    1W        W48155  17.688  16.564   1.451 -0.0460 -0.2642 -0.3385
    1W        W48156  20.574   7.330   1.772  0.0848 -0.2120 -0.2277
    1W        W48157   3.462  28.153   9.058  0.0595  0.0971 -0.1109
    1W        W48158  21.404  20.931   6.107 -0.0485  0.1470 -0.1021
    1W        W48159   4.692  24.600   7.978  0.1017 -0.2607 -0.1266
    1W        W48160   9.623   7.951   9.842 -0.2949 -0.1776  0.0510
    1W        W48161  28.584  26.303   7.295 -0.1080  0.1882 -0.2892
    1W        W48162  28.209   4.106   9.775 -0.0703 -0.1652  0.1121
    1W        W48163   6.650   0.672   1.828  0.0047 -0.0504 -0.0812
    1W        W48164  21.069  17.062   1.001  0.1477  0.2580 -0.3196
    1W        W48165  18.543   3.955   8.459 -0.0914 -0.0335 -0.0412
    1W        W48166  20.938  19.304   1.560 -0.1040 -0.1948  0.1651
    1W        W48167  25.195  16.004   7.667  0.2122  0.0089 -0.1429
    1W        W48168  27.302   7.472   9.293  0.4241 -0.0175 -0.0134
    1W        W48169  19.823  13.662   9.108  0.3652 -0.1054  0.1161
    1W        W48170  14.442  21.593   7.295 -0.0488  0.0295  0.2168
    1W        W48171   8.218   5.531   2.229  0.0808 -0.3514  0.3503
    1W        W48172   8.764  24.611   8.709  0.1830  0.0233 -0.1519
    1W        W48173  26.647   8.473   7.974  0.2510 -0.1474  0.0942
    1W        W48174   8.194   7.042   0.440 -0.0135  0.2838  0.2162
    1W        W48175   5.887  12.422   7.998  0.0154 -0.3791 -0.1161
    1W        W48176   2.183   2.617   1.417  0.1312 -0.2439 -0.0539
    1W        W48177   9.368  13.440   9.722 -0.3509 -0.3039  0.0430
    1W        W48178  19.659   3.942   8.031  0.5455  0.1153  0.1264
    1W        W48179   6.347  25.596   0.084 -0.1407  0.0796  0.2116
    1W        W48180  27.297   9.305   6.942 -0.2773  0.3417 -0.3240
    1W        W48181  19.594  17.365   1.633 -0.0905 -0.2820 -0.0726
    1W        W48182  17.637   2.683   6.986 -0.0029  0.0674 -0.0726
    1W        W48183   6.019  17.205   7.578 -0.1148  0.0371 -0.5223
    1W        W48184   8.534  12.925   2.868 -0.1646  0.5085 -0.0929
    1W        W48185  27.217  24.426   0.334 -0.0721 -0.0206  0.0907
    1W        W48186   7.770   7.695   3.154  0.1518  0.0349  0.0610
    1W        W48187   2.283   0.451   9.026 -0.1920  0.1914  0.1436
    1W        W48188  27.934  21.281   0.629  0.0191  0.2549 -0.0412
    1W        W48189  12.579   4.105   8.608 -0.1651 -0.0542  0.1582
    1W        W48190  22.662   7.881   0.186 -0.1761  0.0119 -0.2008
    1W        W48191  18.721  12.150   0.143  0.2982 -0.1053 -0.0238
    1W        W48192   7.973  15.341   1.632 -0.2114 -0.0054 -0.2708
    1W        W48193  22.738   4.509   8.109 -0.0549 -0.1766 -0.0226
    1W        W48194  13.576  22.612   9.811  0.0307 -0.1025  0.2016
    1W        W48195  22.075   8.027   7.420 -0.2800 -0.1164  0.1091
    1W        W48196  14.597  13.273   2.061  0.0408  0.0402  0.0586
    1W        W48197  23.853   3.815   5.964  0.1838 -0.1314  0.3299
    1W        W48198  13.667  10.844   8.331 -0.1409  0.0389 -0.1855
    1W        W48199   2.626   7.632   9.286  0.0405  0.0488 -0.1136
    1W        W48200  18.795   0.943   8.184  0.1100 -0.2484 -0.1843
    1W        W48201  26.404   3.700   8.117 -0.2944  0.3527  0.0023
    1W        W48202  20.289  25.898   0.970 -0.0074  0.2049 -0.2445
    1W        W48203  14.590   2.635   9.835  0.0738  0.1314 -0.1254
    1W        W48204   0.672  15.261   7.993 -0.1253  0.0602 -0.3683
    1W        W48205   3.087   0.058   9.527  0.1267 -0.3520 -0.4953
    1W        W48206  12.842  26.143   8.006  0.1291 -0.1186 -0.0638
    1W        W48207   5.662  18.905   6.534 -0.1439  0.1446 -0.0205
    1W        W48208  19.048   9.768   1.296 -0.2013  0.1472  0.0310
    1W        W48209  20.085  16.116   1.746  0.0053  0.2043  0.0019
    1W        W48210   3.527  10.570   6.423  0.2836 -0.1996  0.2254
    1W        W48211  16.953  28.147   7.976  0.0302 -0.0085 -0.1289
    1W        W48212  20.806  12.909   2.205 -0.3927  0.0411 -0.0588
    1W        W48213   6.680  21.083   1.636  0.0078 -0.2800  0.0644
    1W        W48214  22.383  14.782   7.820 -0.2387 -0.0589  0.1110
    1W        W48215  24.565  15.077   8.938 -0.0192 -0.0482  0.1280
    1W        W48216  28.628  25.566   8.314  0.1263  0.2397 -0.0509
    1W        W48217  21.123  16.301   7.132  0.0081  0.2281  0.1042
    1W        W48218   3.558   0.332   6.684 -0.0680  0.0924  0.1456
    1W        W48219  21.127  25.443   1.228 -0.0000 -0.0262  0.3047
    1W        W48220  17.971  26.275   9.076  0.1340  0.0192  0.2678
    1W        W48221  19.214  22.638   8.063 -0.0689  0.0331 -0.1591
    1W        W48222  21.018  28.045   7.086  0.0627 -0.0681 -0.0884
    1W        W48223  13.623   8.413   1.706  0.0570 -0.0271  0.0292
    1W        W48224   2.597  19.145   1.070 -0.4863  0.1376  0.0284
    1W        W48225  18.339  15.296   2.096 -0.4352  0.0368  0.1648
    1W        W48226  11.506   6.112   9.015 -0.1319  0.3018  0.1013
    1W        W48227  22.628  17.733   2.930 -0.1704  0.4094 -0.0339
    1W        W48228  22.537   1.307   8.834  0.0610 -0.2247 -0.5044
    1W        W48229  18.322  10.940   7.724 -0.0513  0.0498  0.1139
    1W        W48230  14.796  17.816   9.940 -0.0074  0.1039  0.1362
    1W        W48231   6.152   7.229   0.241 -0.0141 -0.0777 -0.2201
    1W        W48232  20.815  17.599   8.293  0.0751  0.2537  0.0553
    1W        W48233  20.485  22.125   8.273 -0.0071 -0.1111  0.0080
    1W        W48234   9.456  11.145   8.320 -0.2147 -0.0862 -0.0880
    1W        W48235   0.482  15.732   8.984 -0.2728 -0.0820 -0.0418
    1W        W48236  19.962  19.589   7.946  0.1607 -0.0642  0.2508
    1W        W48237   1.099  10.000   8.892 -0.0372 -0.0525 -0.1623
    1W        W48238  10.696   5.820   7.636 -0.1535 -0.2984 -0.1320
    1W        W48239   4.685  15.178   2.719  0.2697 -0.0828  0.2436
    1W        W48240  11.926   9.301   8.034 -0.0566  0.2023 -0.0339
    1W        W48241  20.763  11.743   2.211 -0.2393 -0.1074  0.0175
    1W        W48242  24.287  20.700   3.033  0.0049  0.0451  0.3759
    1W        W48243   2.688  18.095   1.072 -0.2638 -0.0761 -0.0868
    1W        W48244  11.488  18.075   9.954 -0.0610  0.0731  0.1564
    1W        W48245   1.625   2.207   2.246 -0.1014  0.1973  0.0209
    1W        W48246  21.383   9.159   2.244  0.0677  0.1210 -0.1128
    1W        W48247  15.733  16.008   7.751  0.1569  0.0259  0.0301
    1W        W48248  14.397  24.351   3.741 -0.2704  0.2359 -0.1838
    1W        W48249  16.276  10.178   0.358  0.1143 -0.2543  0.2064
    1W        W48250  21.825   6.757   0.257 -0.0283 -0.1039  0.1635
    1W        W48251  12.583  23.367   6.602 -0.1586  0.0850  0.1994
    1W        W48252  25.555   5.810   8.762  0.0761  0.2121 -0.0690
    1W        W48253   5.193  10.642   0.065  0.0128  0.2700 -0.0086
    1W        W48254   8.409  10.222   1.976 -0.0416  0.1421  0.3569
    1W        W48255  19.249  14.831   8.092 -0.1364  0.3380  0.0284
    1W        W48256  16.986   9.562   1.811  0.1828 -0.0479 -0.1036
    1W        W48257   2.955   2.045   9.473 -0.1467  0.1822  0.1882
    1W        W48258  18.055  21.835   1.619 -0.0232 -0.0448  0.0105
    1W        W48259   9.255   3.785   0.965 -0.0077 -0.0467 -0.1014
    1W        W48260  15.119  18.356   8.192  0.1622 -0.1515  0.0278
    1W        W48261  24.376   0.119   9.446 -0.3760  0.1698  0.0242
    1W        W48262  14.701  19.370   9.273 -0.1705 -0.3418  0.0705
    1W        W48263   1.412   0.068   0.403  0.0973  0.0817 -0.1768
    1W        W48264   7.482   1.041   0.777  0.3882 -0.0262  0.2274
    1W        W48265  15.196  20.866   1.655 -0.2412  0.1872  0.3765
    1W        W48266  24.564   4.723   1.951 -0.3088  0.2893  0.3521
    1W        W48267  18.007  24.736   2.985  0.3353 -0.1208 -0.2876
    1W        W48268  15.046  18.377   2.081  0.0319  0.1787  0.0043
    1W        W48269  17.274   1.856   1.521  0.0322 -0.0322 -0.1546
    1W        W48270  20.726  13.327   1.430 -0.0978 -0.1568  0.0529
    1W        W48271   7.377  15.143   0.494  0.0509  0.2764 -0.0033
    1W        W48272  14.292   4.538   1.133 -0.2707  0.1809  0.0647
    1W        W48273  12.901  17.014   1.229 -0.2085  0.0118  0.1002
    1W        W48274   7.751  25.942   9.927  0.0448 -0.2117 -0.2666
    1W        W48275  15.126   4.549   3.112  0.0741 -0.1048 -0.1946
    1W        W48276   8.091  13.462   7.230  0.0396 -0.3024 -0.0320
    1W        W48277   7.982  15.998   1.602 -0.1296 -0.2467  0.1560
    1W        W48278   7.519  11.106   1.547 -0.1943  0.2078 -0.0082
    1W        W48279   0.594   0.966   1.165 -0.0799  0.1674 -0.1635
    1W        W48280  13.518  23.479   8.620 -0.2366  0.2768 -0.0169
    1W        W48281  12.168  15.987   1.376  0.4327  0.0761  0.2049
    1W        W48282   0.814   7.833   0.899  0.1767  0.0436 -0.3075
    1W        W48283  25.586   9.134   8.243  0.0584  0.3006 -0.0967
    1W        W48284  27.570   4.422   7.910  0.3227  0.3541  0.1199
    1W        W48285  13.414   3.689   3.153  0.1355 -0.0807  0.0808
    1W        W48286  15.563   8.043   8.329 -0.3394  0.0339  0.0991
    1W        W48287  24.002  19.946   7.742  0.0736 -0.0732 -0.1709
    1W        W48288   0.322  24.854   9.140 -0.1143  0.0034 -0.0220
    1W        W48289   5.856  19.441   0.895  0.3001 -0.2926 -0.1751
    1W        W48290  21.923  17.695   9.296  0.0839  0.2624  0.2181
    1W        W48291   2.979   7.756   0.417  0.0727  0.0052  0.0750
    1W        W48292  16.991  27.496   2.963 -0.0545 -0.0213 -0.2880
    1W        W48293  10.341   0.911   8.522  0.0466  0.4027  0.0143
    1W        W48294  28.428  12.929   8.064  0.2966 -0.0272 -0.1525
    1W        W48295   1.210   7.398   6.509 -0.1538 -0.0647 -0.2497
    1W        W48296  13.265  28.465   3.394  0.0363 -0.2981  0.2745
    1W        W48297  13.329  16.372   7.414  0.1876 -0.3649 -0.0402
    1W        W48298  12.806   1.136   0.317  0.2680  0.3777  0.1526
    1W        W48299  16.078  17.894   0.790  0.1323 -0.2063  0.0879
    1W        W48300  21.802  19.569   3.346  0.0962 -0.1810  0.0360
    1W        W48301   0.869  28.519   7.809 -0.0172 -0.0243  0.0452
    1W        W48302  16.696  15.721   8.008 -0.1583  0.1944 -0.2453
    1W        W48303  17.255   4.831   1.300  0.0041 -0.1513 -0.2338
    1W        W48304  24.757   8.292   8.750  0.0900 -0.0095 -0.3871
    1W        W48305   8.803   9.830   2.339  0.2143  0.3810  0.1227
    1W        W48306  14.282  17.770   0.062 -0.1431  0.1925 -0.2177
    1W        W48307   5.529   5.787   9.230 -0.0513  0.1080 -0.0291
    1W        W48308  23.359  25.394   7.300  0.1884  0.2348 -0.3879
    1W        W48309   7.196  12.653   0.120 -0.0875  0.1579 -0.3222
    1W        W48310   0.089   8.853   7.129  0.0558  0.1743 -0.0507
    1W        W48311  24.972   4.631   9.500 -0.2084 -0.1133 -0.1450
    1W        W48312  17.259  24.847   3.632 -0.1029  0.1877  0.2302
    1W        W48313   3.590  20.051   8.903 -0.2502 -0.3060 -0.0006
    1W        W48314  17.839  21.230   0.818  0.2212 -0.0155 -0.3568
    1W        W48315  27.353  20.848   2.190 -0.3125 -0.0873  0.1032
    1W        W48316   9.517   5.897   2.255 -0.0406 -0.1369  0.2633
    1W        W48317  24.365  20.688   7.108 -0.1459  0.1630  0.1059
    1W        W48318   6.938  25.239   6.626 -0.2823  0.0560 -0.0798
    1W        W48319   5.589   2.109   8.294 -0.0586 -0.0644 -0.0032
    1W        W48320   0.603   5.978   1.698  0.0512 -0.0163 -0.1229
    1W        W48321  16.707  26.355   8.598 -0.0156  0.1050  0.1152
    1W        W48322   3.757  20.560   8.930  0.0761  0.2002 -0.0663
    1W        W48323   4.570  14.209   9.658  0.0595  0.1421 -0.0461
    1W        W48324   4.808  28.341   3.399 -0.1920  0.1152 -0.0704
    1W        W48325  19.768   7.114   9.759  0.1070  0.2432  0.0219
    1W        W48326  27.104  15.746   6.144 -0.2519  0.2319 -0.1449
    1W        W48327   7.310  27.348   1.245  0.4556 -0.3428  0.0366
    1W        W48328  18.771   3.755   1.162 -0.2804 -0.0875 -0.2040
    1W        W48329  22.423  27.225   6.720  0.1191 -0.2198  0.0924
    1W        W48330   9.561  10.626   1.317 -0.0385  0.1771  0.2714
    1W        W48331  17.122   1.085   7.142  0.1615  0.3034  0.0044
    1W        W48332  11.701   3.941   0.780  0.3992  0.0264 -0.3332
    1W        W48333  13.668   1.024   2.878  0.1645 -0.1841 -0.1946
    1W        W48334  28.378  27.812   7.054  0.1861 -0.1292 -0.1447
    1W        W48335  25.874  22.617   0.261  0.0643 -0.0953 -0.1409
    1W        W48336   4.246  24.732   3.158 -0.0516 -0.0611  0.1041
    1W        W48337  26.253   4.018   9.139 -0.0079 -0.0698  0.1914
    1W        W48338   4.341   1.195   7.781  0.3106 -0.0655  0.0924
    1W        W48339   7.767  11.978   9.658  0.0826 -0.1450 -0.1549
    1W        W48340   7.818  13.641   8.757 -0.0753 -0.1023 -0.2846
    1W        W48341  25.577  14.582   0.628  0.1901 -0.1760 -0.1979
    1W        W48342   4.826   6.701   2.196 -0.0497  0.2560 -0.1880
    1W        W48343  10.402   9.607   1.437 -0.1934 -0.0913  0.0047
    1W        W48344   5.610  19.748   7.916 -0.0510 -0.2553  0.1962
    1W        W48345   4.046  22.599   6.222  0.2543 -0.0042 -0.1404
    1W        W48346  21.111  21.839   3.383  0.0723 -0.2090 -0.1349
    1W        W48347  13.571   4.901   1.557 -0.4947  0.1400  0.0712
    1W        W48348   7.389   9.743   1.581  0.0960 -0.1122  0.1443
    1W        W48349  20.407  21.610   2.868  0.1141 -0.1932 -0.1169
    1W        W48350  12.254  20.396   0.729  0.2143  0.0237  0.2279
    1W        W48351   7.575   3.539   0.789 -0.2698 -0.0012 -0.0085
    1W        W48352  24.613   5.141   2.955  0.1450  0.1672 -0.0143
    1W        W48353  21.907  23.542   2.536 -0.0458  0.1800 -0.0183
    1W        W48354   1.349   5.498   9.697  0.0679  0.2876 -0.0998
    1W        W48355  11.023  19.959   2.184  0.0198 -0.0237 -0.0504
    1W        W48356  24.678   4.666   7.030 -0.0691  0.1553 -0.2426
    1W        W48357  27.936  21.857   7.108  0.2232  0.0729  0.1039
    1W        W48358  18.105   8.450   0.468  0.0669  0.0297 -0.1577
    1W        W48359  15.703  22.056   1.357 -0.0290 -0.0831  0.1081
    1W        W48360   6.036  22.945   0.824  0.3192 -0.0894 -0.1240
    1W        W48361  19.978  21.753   1.312  0.0959 -0.1815  0.3601
    1W        W48362  23.311  18.700   1.085  0.3271 -0.2170  0.2528
    1W        W48363  15.597  23.956   9.692  0.1999  0.1281  0.2285
    1W        W48364  24.601  18.997   7.564 -0.1496 -0.2735 -0.1729
    1W        W48365  20.666  16.224   8.125  0.2995  0.2115 -0.3368
    1W        W48366   9.688   9.558   3.155 -0.0527  0.2301  0.0706
    1W        W48367  24.200   4.945   2.193  0.1207 -0.2246  0.1308
    1W        W48368   5.161  27.162   9.375  0.7273 -0.1371  0.1695
    1W        W48369   1.592  13.947   6.738 -0.1002 -0.0705 -0.3597
    1W        W48370  20.950  24.058   7.025 -0.0552  0.0843  0.3121
    1W        W48371   8.963   1.753   1.093  0.0662 -0.4532 -0.1889
    1W        W48372  25.610  13.067   8.566  0.0679  0.0504  0.0701
    1W        W48373  18.923  20.981   3.593 -0.2260  0.2300  0.0487
    1W        W48374   5.579  25.647   9.126  0.1398 -0.3072 -0.3208
    1W        W48375   8.499   7.331   0.192  0.0820  0.0017 -0.0715
    1W        W48376  12.215   3.243   2.934  0.1452 -0.0024  0.0005
    1W        W48377   9.979  11.924   8.244 -0.1593  0.1984 -0.2838
    1W        W48378  13.670   9.581   9.480 -0.0023  0.2008 -0.1892
    1W        W48379  21.936  13.844   6.941 -0.0879  0.1616 -0.2977
    1W        W48380   6.597  23.990   1.276 -0.0014 -0.1875  0.0986
    1W        W48381   2.922   3.770   6.667 -0.1982  0.0072 -0.0441
    1W        W48382  27.268  22.610   7.083  0.0251 -0.0588  0.2316
    1W        W48383   5.827  26.718   8.177 -0.0059  0.5079 -0.2002
    1W        W48384   4.794  20.740   0.391 -0.3217  0.3420 -0.0363
    1W        W48385   2.381  20.305   9.765  0.0327 -0.0063 -0.0543
    1W        W48386   6.281  12.514   2.547 -0.1781  0.0438 -0.0231
    1W        W48387  16.363  28.489   8.099  0.0126 -0.0048 -0.1227
    1W        W48388  13.551  27.241   3.822 -0.3225 -0.1579 -0.1354
    1W        W48389   1.447   6.593   6.961 -0.0324 -0.1747  0.0868
    1W        W48390  15.913   5.016   8.015 -0.1355 -0.1797 -0.0917
    1W        W48391  11.857   2.810   7.900  0.0442  0.2884 -0.0699
    1W        W48392  19.565  18.802   7.529  0.0245  0.1032  0.1545
    1W        W48393   5.990  27.531   1.588 -0.1142 -0.1542 -0.4037
    1W        W48394  10.942  12.453   0.764 -0.0194  0.0018 -0.4283
    1W        W48395  13.052   6.782   8.706 -0.0571  0.2846  0.3916
    1W        W48396  24.525  21.044   1.331 -0.1946  0.1987 -0.1208
    1W        W48397  25.881   8.233   0.651  0.1267  0.1137 -0.1556
    1W        W48398  25.226  15.008   7.514  0.1991  0.0447 -0.1723
    1W        W48399  24.589   9.369   1.289  0.4782 -0.1365  0.4028
    1W        W48400  18.792  28.399   2.030 -0.1467 -0.0197  0.0289
    1W        W48401  20.624  27.397   9.389 -0.0304 -0.0064 -0.2555
    1W        W48402   1.994  17.844   0.873  0.1098  0.2928 -0.1429
    1W        W48403  25.032  15.035   2.326  0.0152 -0.0584 -0.0014
    1W        W48404  24.613  10.010   8.223  0.1589 -0.2479 -0.1610
    1W        W48405   6.770  26.269   2.841 -0.4151  0.0960  0.2486
    1W        W48406   8.771  23.337   8.375 -0.3670 -0.1773  0.0159
    1W        W48407  25.764   5.053   9.861  0.2588  0.1011 -0.1327
    1W        W48408  17.953   3.216   6.784 -0.0783 -0.0459  0.1207
    1W        W48409  20.729   9.746   0.785  0.1722  0.0390  0.0351
    1W        W48410  17.231  14.946   7.779  0.0645 -0.0118 -0.3032
    1W        W48411  21.366  26.852   7.941  0.0184  0.0622 -0.1463
    1W        W48412  25.475  27.634   2.599 -0.1355  0.0267 -0.1130
    1W        W48413   8.282  21.695   2.530 -0.2617 -0.0242  0.2926
    1W        W48414   9.435  21.473   8.340  0.0221 -0.1053  0.2090
    1W        W48415  23.126  14.638   2.632  0.1142  0.0601  0.1051
    1W        W48416   1.419  26.284   0.355  0.1832 -0.1797  0.1184
    1W        W48417   7.766   5.237   0.734  0.0224 -0.0526 -0.0058
    1W        W48418  26.246   3.486   3.372 -0.0268 -0.1466 -0.0731
    1W        W48419  15.011   2.910   9.588 -0.2881 -0.0160 -0.2476
    1W        W48420  17.394  17.916   2.860  0.4695  0.1181  0.0148
    1W        W48421  22.218   4.139   7.956  0.0078  0.0690 -0.1107
    1W        W48422  24.115  12.325   9.559 -0.0838  0.0563 -0.0674
    1W        W48423  18.099   5.620   2.590 -0.2658  0.2452  0.0327
    1W        W48424  23.814  23.397   9.129 -0.1284 -0.0771  0.2231
    1W        W48425   2.297  23.602   9.667 -0.0539  0.2107 -0.1630
    1W        W48426  13.363  21.130   2.282 -0.0997 -0.1614  0.1781
    1W        W48427   4.954  19.963   6.041  0.1321  0.0041  0.1461
    1W        W48428  18.947  26.582   2.963  0.2851 -0.0200 -0.1294
    1W        W48429  27.802   8.790   7.466 -0.2723  0.3303  0.0146
    1W        W48430   8.199  25.574   7.777  0.1659 -0.1274  0.1268
    1W        W48431   5.806  15.341   8.538  0.1183 -0.2281  0.0884
    1W        W48432   7.155  19.782   0.443  0.2084  0.1557 -0.1108
    1W        W48433  20.526  23.531   2.428 -0.0351  0.0689  0.0755
    1W        W48434  25.123  19.045   7.564 -0.2565  0.0246 -0.1445
    1W        W48435  12.103  18.421   9.353  0.0555  0.2722 -0.0874
    1W        W48436  27.983   7.347   9.231  0.2115 -0.1002 -0.2773
    1W        W48437   5.655  18.138   1.203  0.0090  0.1705  0.1224
    1W        W48438   1.177  21.713   6.077  0.1964  0.0005  0.0283
    1W        W48439   8.918   9.125   0.388  0.0584  0.0555  0.0948
    1W        W48440   2.221  21.290   7.215 -0.2410  0.1074  0.0627
    1W        W48441  28.275  16.669   8.522 -0.0512 -0.0768 -0.2741
    1W        W48442   8.074  16.013   7.417  0.3667 -0.0932  0.0510
    1W        W48443  20.378   0.019   7.724  0.0744  0.0858  0.1137
    1W        W48444  19.135  19.038   9.132  0.2529  0.1749  0.1052
    1W        W48445   8.466  22.570   5.609 -0.0073  0.1034  0.2882
    1W        W48446  14.072   3.479   1.819 -0.1787  0.1203 -0.1520
    1W        W48447   4.026  17.152   0.528 -0.0143  0.2117  0.2192
    1W        W48448   6.561  13.816   8.741 -0.1660 -0.2669  0.3559
    1W        W48449  18.746   6.979   1.161  0.0873 -0.1641 -0.0343
    1W        W48450  17.657  16.262   7.913  0.0600 -0.0407  0.0084
    1W        W48451   0.090   5.694   7.639 -0.0725  0.0923  0.1302
    1W        W48452  12.852   3.510   0.429  0.0750  0.1293 -0.2088
    1W        W48453  10.451  23.200   1.084 -0.1531  0.3142 -0.0852
    1W        W48454  16.320  10.689   1.252  0.1349  0.0753 -0.3201
    1W        W48455   1.934  17.198   5.998  0.1606  0.1700  0.1438
    1W        W48456   0.236  17.982   1.539 -0.1466  0.0427 -0.0601
    1W        W48457  17.878  14.696   8.452  0.1455  0.0346  0.2284
    1W        W48458   2.691   4.229   1.939 -0.0478 -0.1344 -0.0921
    1W        W48459   7.717   4.588   8.917 -0.0797 -0.0243 -0.1761
    1W        W48460   9.651  25.977   1.850 -0.0328 -0.0461  0.1640
    1W        W48461  22.050  15.121   8.042 -0.2968  0.2257 -0.1362
    1W        W48462  26.038  20.340   9.481 -0.1262 -0.1530  0.2576
    1W        W48463  23.752  13.189   7.114 -0.0026  0.1513 -0.1121
    1W        W48464   8.779   8.421   1.274 -0.1590 -0.1467 -0.0022
    1W        W48465  17.271  26.231   2.583  0.2269 -0.1142  0.1592
    1W        W48466  21.351   6.037   3.153 -0.0188 -0.1591  0.2794
    1W        W48467   7.213  16.213   9.616 -0.1728  0.0160 -0.2134
    1W        W48468  20.519  15.140   0.673  0.1722 -0.2145 -0.1612
    1W        W48469   8.548   2.893   3.512 -0.1754 -0.0024 -0.0918
    1W        W48470  14.229  25.720   9.642 -0.0766 -0.0908 -0.0118
    1W        W48471  19.987  10.601   9.280 -0.0698 -0.0913 -0.1265
    1W        W48472  24.641   4.827   2.578 -0.2405  0.1702  0.0954
    1W        W48473  22.172  23.820   8.635  0.3279 -0.1830  0.1533
    1W        W48474   8.495   2.706   2.063  0.2447  0.1466 -0.1782
    1W        W48475  16.185  17.813   9.523 -0.2324 -0.1423  0.0638
    1W        W48476  20.791   9.577   1.758  0.3995  0.0456  0.0031
    1W        W48477  19.831  13.465   7.776 -0.1341 -0.0166  0.0007
    1W        W48478  22.254   6.511   1.978  0.1872 -0.0504 -0.0288
    1W        W48479   0.936   6.814   9.566 -0.0190  0.0102  0.0420
    1W        W48480  19.123   4.597   8.500 -0.3233 -0.1145 -0.1523
    1W        W48481  26.288   7.837   7.290  0.1825  0.0099 -0.2153
    1W        W48482   7.357  13.586   2.366 -0.2103 -0.0631 -0.0433
    1W        W48483  11.646  14.170   1.381 -0.1603  0.2854  0.4530
    1W        W48484   0.884  22.561   0.134 -0.0700 -0.1114  0.0718
    1W        W48485  24.095   3.044   2.422  0.0443  0.4196  0.1032
    1W        W48486  18.912   7.693   3.406 -0.0357 -0.3289 -0.0184
    1W        W48487  17.392   0.059   8.599 -0.3478  0.1434  0.0368
    1W        W48488  21.488  17.320   7.652 -0.1746 -0.3266  0.1272
    1W        W48489  17.030  22.492   8.549  0.2316  0.3099  0.0241
    1W        W48490  27.711   1.933   1.306 -0.1285  0.1506  0.0741
    1W        W48491  11.175  24.676   7.899  0.0199  0.2040  0.3424
    1W        W48492   8.206  11.265   9.757  0.0593  0.1221 -0.1283
    1W        W48493   4.566  25.997   8.735  0.1239  0.1368  0.2789
    1W        W48494  11.533  24.286   1.762 -0.0016 -0.1891  0.0122
    1W        W48495  11.749  19.022   9.799 -0.1661  0.0863  0.1033
    1W        W48496  13.455   7.833   9.622 -0.1041  0.0236 -0.3898
    1W        W48497  15.500  12.350   9.776  0.0047 -0.1279  0.1172
    1W        W48498  26.735  21.773   7.881  0.5701 -0.0967 -0.0932
    1W        W48499  15.424  23.285   1.156 -0.0324  0.1824  0.1410
    1W        W48500  13.678   5.533   7.571  0.0379 -0.3358 -0.1364
    1W        W48501  11.294   9.888   1.625 -0.3175  0.2746  0.0500
    1W        W48502   6.570  18.647   8.545  0.0042  0.0150  0.0100
    1W        W48503  14.418  11.764   8.842 -0.0065  0.1042 -0.1775
    1W        W48504   8.288  18.409   6.515 -0.0101  0.2440  0.1903
    1W        W48505   8.740  11.643   1.232  0.1421 -0.1350 -0.1300
    1W        W48506  19.242  11.042   8.633  0.0760  0.1252  0.2250
    1W        W48507   0.647  10.722   0.511 -0.0620  0.2358  0.0294
    1W        W48508  27.906   4.856   6.599 -0.1789  0.1677 -0.1919
    1W        W48509  10.722  27.894   2.820  0.2945  0.0737 -0.3008
    1W        W48510  11.800   6.744   7.701 -0.1591 -0.0545  0.0060
    1W        W48511   0.224  19.824   8.410 -0.4209 -0.2612  0.1974
    1W        W48512   3.739   0.435   7.554  0.2088 -0.2389 -0.3745
    1W        W48513  26.820   6.727   9.719 -0.2268  0.3353  0.0634
    1W        W48514  19.169  20.145   0.939  0.1385 -0.2552  0.0511
    1W        W48515  24.172   9.438   7.206  0.2364  0.1586 -0.1666
    1W        W48516   7.930   9.423   8.495 -0.0659 -0.0697  0.1714
    1W        W48517   1.434  24.979   9.526  0.0091  0.1257 -0.1373
    1W        W48518   6.179  14.844   7.079 -0.0771  0.0976  0.0382
    1W        W48519  28.424   6.562   2.852  0.1045 -0.0018  0.1203
    1W        W48520  14.621  15.575   9.825 -0.1762  0.2069 -0.0233
    1W        W48521   8.847  13.218   7.722 -0.3743  0.0348 -0.3172
    1W        W48522  10.509  16.101   0.330  0.1276 -0.2612  0.3549
    1W        W48523  18.221  20.240   0.635 -0.5670  0.0048  0.0754
    1W        W48524  14.494  12.351   2.859 -0.0162  0.1422  0.1199
    1W        W48525   7.064  24.483   0.458  0.2280  0.1257 -0.0821
    1W        W48526  22.541  10.213   9.502  0.0127  0.4649  0.0249
    1W        W48527   8.626   2.875   0.188  0.0761  0.2714 -0.1135
    1W        W48528   5.152  22.821   7.912  0.2474 -0.2008 -0.0896
    1W        W48529  18.996   4.647   3.278 -0.1202 -0.0149  0.1724
    1W        W48530   4.179  18.499   8.204 -0.1737 -0.0549  0.1426
    1W        W48531  11.500  26.435   1.165  0.0566  0.3663  0.1570
    1W        W48532   2.006  28.334   9.237 -0.1620  0.0367 -0.2898
    1W        W48533  25.199  18.129   8.605  0.1648 -0.0243  0.0677
    1W        W48534  15.803  26.125   9.063  0.0953 -0.1135  0.0573
    1W        W48535   6.052  11.566   7.423  0.3811  0.1303  0.2224
    1W        W48536   8.135  16.506   1.667  0.0007  0.1694 -0.1101
    1W        W48537   8.804  20.471   2.156 -0.0326  0.4202 -0.1452
    1W        W48538  28.544   7.283   1.723 -0.1795 -0.0211  0.3070
    1W        W48539  10.593  16.176   9.755  0.0775 -0.0766  0.0461
    1W        W48540   1.331  28.392   7.146 -0.0798 -0.2045  0.0565
    1W        W48541  20.010   3.777   7.656  0.1687 -0.1369 -0.0475
    1W        W48542   1.513  10.409   2.199  0.0547  0.1774  0.3988
    1W        W48543   0.552  22.825   6.356 -0.0111 -0.3003  0.0434
    1W        W48544   4.090  26.493   0.260  0.0865  0.1819  0.0712
    1W        W48545   0.570  12.329   7.754 -0.2889  0.0438  0.0521
    1W        W48546  11.948  23.326   1.856  0.2315 -0.2153  0.2317
    1W        W48547  10.965  15.573   8.516  0.0841 -0.0515  0.2439
    1W        W48548  24.413  13.134   0.510  0.0699 -0.3805 -0.2954
    1W        W48549   2.468   1.917   8.481  0.0296  0.1726  0.2643
    1W        W48550   1.177   5.761   7.480  0.2334  0.4999 -0.0654
    1W        W48551   2.104   9.143   1.705 -0.0216 -0.2957  0.1023
    1W        W48552   8.907  20.233   7.348 -0.2294  0.4380 -0.0421
    1W        W48553  12.844  17.637   8.177  0.1421 -0.0302 -0.1595
    1W        W48554   0.681  25.258   7.768  0.0244 -0.1560  0.2414
    1W        W48555  22.591  11.442   2.408  0.0281 -0.0296  0.0074
    1W        W48556  19.695   7.552   9.448 -0.1117 -0.1015  0.1051
    1W        W48557  14.687  10.626   1.695 -0.1795 -0.2410 -0.1971
    1W        W48558   8.109  26.783   8.549  0.3340 -0.0246  0.3607
    1W        W48559  26.592  27.341   8.716  0.0395 -0.0147 -0.5004
    1W        W48560  26.688  26.389   7.150  0.1482  0.2141 -0.0488
    1W        W48561  16.390   7.592   9.063  0.3143  0.6987 -0.4930
    1W        W48562  27.829  17.342   1.433 -0.3833 -0.2298  0.1910
    1W        W48563   6.966   9.302   9.434  0.3254 -0.2965 -0.1983
    1W        W48564  26.740  16.353   2.561  0.1800  0.0119 -0.2000
    1W        W48565  16.767  19.902   2.659  0.1759  0.4648 -0.0531
    1W        W48566  24.784   0.271   0.599 -0.2199  0.3785  0.1744
    1W        W48567  27.178  21.445   7.584  0.0407  0.0840  0.0545
    1W        W48568   8.622   3.654   1.433 -0.1290 -0.0046 -0.1336
    1W        W48569  13.014  19.920   3.105  0.1169  0.1371  0.2500
    1W        W48570  16.260  24.034   9.921 -0.1871 -0.1433 -0.0135
    1W        W48571  17.762   1.925   9.921  0.1417 -0.1368 -0.0774
    1W        W48572   7.640  26.534   6.664 -0.1476 -0.1614 -0.3517
    1W        W48573  10.641   2.611   8.646 -0.0084 -0.2756 -0.1660
    1W        W48574  20.862   3.161   2.619  0.0236  0.1150  0.3655
    1W        W48575  16.824  15.506   1.257 -0.0261 -0.0644  0.0594
    1W        W48576   7.779  12.577   0.396  0.4946  0.3048 -0.3031
    1W        W48577   0.271  21.067   8.952  0.1231 -0.0946 -0.2474
    1W        W48578  14.532  24.414   8.988 -0.2549  0.2061  0.2958
    1W        W48579   6.928  26.017   2.272 -0.1025 -0.1010 -0.2441
    1W        W48580  12.184   7.978   2.657 -0.1045  0.0990 -0.1481
    1W        W48581  27.897  23.196   0.276  0.1864 -0.0146 -0.2841
    1W        W48582  24.966  24.328   7.120  0.2638 -0.4231  0.3269
    1W        W48583   1.488  10.358   1.695 -0.3982 -0.0490  0.0958
    1W        W48584  25.815  26.725   9.632  0.1049 -0.1579 -0.2448
    1W        W48585   3.610   2.268   3.210 -0.1322  0.1204 -0.2056
    1W        W48586   7.328  14.591   7.631 -0.2752 -0.1186 -0.6557
    1W        W48587  23.121  10.177   8.914  0.1820 -0.0384 -0.0952
    1W        W48588  25.304  26.372   0.394 -0.3814 -0.0283 -0.0900
    1W        W48589  18.298   8.186   7.993  0.0416 -0.3428 -0.2443
    1W        W48590  28.319   1.159   1.402  0.0083 -0.0956  0.3403
    1W        W48591  26.377  16.588   9.344 -0.0552  0.0757  0.0727
    1W        W48592   9.558  20.951   0.008  0.1944 -0.2027 -0.1569
    1W        W48593  21.294   5.291   0.874 -0.0491 -0.0833  0.2295
    1W        W48594  12.336  27.031   2.693  0.0885  0.2216  0.1559
    1W        W48595  17.355   5.908   0.971  0.1569  0.1541  0.0240
    1W        W48596   6.568   0.964   6.770 -0.0612  0.1095 -0.0024
    1W        W48597  18.894  11.965   8.586 -0.2342 -0.2048  0.1274
    1W        W48598  26.428  12.638   1.443 -0.1107 -0.2123  0.0807
    1W        W48599  25.405  10.993   2.677 -0.1153 -0.1539  0.2531
    1W        W48600   6.862   0.283   7.437 -0.0172 -0.4584 -0.0529
    1W        W48601  22.873  17.541   6.479 -0.4764  0.1073  0.2138
    1W        W48602  24.685  17.178   9.351 -0.2454  0.0012  0.0479
    1W        W48603   1.316   7.421   7.795  0.0637 -0.0050 -0.4393
    1W        W48604  14.390   0.718   8.648 -0.0853  0.0657  0.0672
    1W        W48605  27.010   2.822   1.808  0.3177 -0.2119  0.1566
    1W        W48606   2.546  22.188   7.303  0.0348 -0.2683 -0.0951
    1W        W48607  21.915  16.780   7.145  0.0483  0.2757  0.3727
    1W        W48608   6.690   2.413   2.409  0.0702 -0.3995  0.2773
    1W        W48609  28.008  25.679   8.968  0.0774  0.3085 -0.1089
    1W        W48610  24.715  23.675   7.497 -0.0870  0.1914 -0.1145
    1W        W48611   9.742  26.336   0.600 -0.0757 -0.1835 -0.1195
    1W        W48612  16.496  11.851   7.663 -0.5635  0.3302 -0.1667
    1W        W48613  11.885   0.039   0.127  0.1473  0.1478  0.0839
    1W        W48614  21.073   6.808   2.625 -0.1576  0.0117 -0.2080
    1W        W48615   9.314  21.177   7.036 -0.0948 -0.0123 -0.1251
    1W        W48616  28.161  27.775   3.833  0.1189  0.3044  0.0956
    1W        W48617  16.999  22.535   7.738 -0.0238  0.1485  0.1876
    1W        W48618  10.759  21.923   6.385  0.0662  0.1113 -0.1915
    1W        W48619  25.551  27.321   0.393 -0.2244  0.2246 -0.0777
    1W        W48620   3.401  18.729   8.805  0.2113 -0.0703 -0.5723
    1W        W48621   6.437  25.164   6.638  0.0506 -0.0807  0.0466
    1W        W48622   0.240   8.536   6.758  0.1600  0.2573 -0.0990
    1W        W48623   5.621   3.429   1.044 -0.1033 -0.1537  0.1604
    1W        W48624   1.412  19.510   6.014  0.4111 -0.0987  0.0756
    1W        W48625  16.735  28.071   9.552 -0.0332  0.0986  0.0634
    1W        W48626   6.872  10.029   8.265  0.0979  0.1171 -0.0242
    1W        W48627  25.138  28.525   9.064 -0.1324 -0.1845 -0.2989
    1W        W48628  15.351  18.311   8.661 -0.2100  0.0418  0.0126
    1W        W48629   7.275  22.624   0.636  0.1059  0.1609 -0.1491
    1W        W48630   0.579   7.233   9.844 -0.2939 -0.1569 -0.0435
    1W        W48631  13.801  13.321   1.710  0.0256  0.1420  0.0342
    1W        W48632  28.696  14.660   7.764 -0.0476  0.1485  0.1499
    1W        W48633   7.568  15.533   0.678 -0.2076 -0.0537 -0.1656
    1W        W48634  23.462   1.238   7.783  0.0743 -0.0180 -0.2209
    1W        W48635  13.894  21.872   2.825  0.0700 -0.1728 -0.1291
    1W        W48636   3.723   2.987   7.324  0.4199 -0.0067  0.3057
    1W        W48637  26.565  11.452   7.617  0.0192 -0.0326  0.5442
    1W        W48638  26.450  23.868   6.401  0.0447  0.0739  0.0606
    1W        W48639  12.719  18.190   8.181  0.1622 -0.5536 -0.0495
    1W        W48640   0.604   4.996   1.869  0.2197 -0.3650 -0.4050
    1W        W48641  21.148   3.951   9.693 -0.0377 -0.0494 -0.0817
    1W        W48642   0.442  27.677   8.682  0.1195 -0.1822  0.1174
    1W        W48643  16.738  25.398   9.811  0.0225 -0.3125  0.2218
    1W        W48644  17.234  16.426   2.408 -0.0613  0.0908  0.2173
    1W        W48645  25.907   5.089   2.621  0.1703  0.1656 -0.0228
    1W        W48646  20.532  28.594   1.061  0.1977  0.2359  0.0559
    1W        W48647  14.698  22.985   3.575  0.2982 -0.1277 -0.0116
    1W        W48648  27.977  18.475   0.096  0.1707 -0.0271 -0.4926
    1W        W48649  24.737   8.993   1.742 -0.1857 -0.0733  0.0187
    1W        W48650  27.948  21.295   8.463 -0.1901 -0.0224  0.1620
    1W        W48651   3.927  26.015   3.137  0.2090  0.2547 -0.0775
    1W        W48652   2.978   1.167   7.205  0.1846  0.0609  0.3842
    1W        W48653  11.067   0.393   8.360  0.1486 -0.1060 -0.1519
    1W        W48654  26.637  23.586   1.697  0.0948 -0.0416  0.2701
    1W        W48655   4.676  26.664   2.380  0.0923  0.0130  0.0875
    1W        W48656   3.341  27.710   9.404  0.0604 -0.1184 -0.1424
    1W        W48657   5.561  23.213   0.557 -0.2224 -0.2053  0.1261
    1W        W48658  22.899  10.767   1.470 -0.0136 -0.0432  0.1795
    1W        W48659  11.180  16.671   0.311  0.2549 -0.1878 -0.2264
    1W        W48660  23.529  13.538   8.259 -0.2091 -0.0522  0.0259
    1W        W48661  15.876  13.972   1.368 -0.0181  0.0845  0.1378
    1W        W48662  10.768  23.333   2.329 -0.3040  0.0041 -0.3877
    1W        W48663  18.191   9.490   7.819 -0.2701  0.1000 -0.3518
    1W        W48664  24.585   5.231   8.936 -0.0700  0.2519  0.1104
    1W        W48665   1.205  27.472   0.708  0.1311  0.0848  0.0717
    1W        W48666   2.113  25.878   2.128  0.0736  0.2516 -0.3630
    1W        W48667  28.159  28.155   0.373 -0.1725  0.1772  0.2528
    1W        W48668  15.497  26.970   9.400  0.2083  0.1887  0.1360
    1W        W48669   4.635  17.564   7.996  0.1815  0.0478 -0.0888
    1W        W48670  27.772  13.680   2.851 -0.1995 -0.0752 -0.1199
    1W        W48671  25.496  19.388   9.804  0.0441 -0.2738 -0.0670
    1W        W48672   0.598  22.580   0.955  0.4164 -0.0155  0.0969
    1W        W48673  18.467  28.511   3.072  0.2701 -0.0666 -0.0553
    1W        W48674   7.818  14.297   9.935  0.3049 -0.3287 -0.0101
    1W        W48675  27.924   5.047   7.423 -0.3093  0.2309 -0.1139
    1W        W48676   9.699  12.011   0.291 -0.2606 -0.0522 -0.1536
    1W        W48677  20.988  17.196   2.615  0.0553  0.0891  0.0168
    1W        W48678  10.105  27.048   9.482  0.0430  0.0358  0.1298
    1W        W48679   8.096  15.564   7.161 -0.2191 -0.0319  0.1260
    1W        W48680  19.694   7.271   8.657 -0.0116  0.1920  0.1106
    1W        W48681  13.757  28.027   8.030  0.2890 -0.0302 -0.0471
    1W        W48682  17.681   5.951   7.504 -0.0966  0.0673 -0.0557
    1W        W48683   0.491  15.490   2.192 -0.4212  0.1341  0.1164
    1W        W48684  20.646  16.639   7.735 -0.2093  0.1990 -0.1428
    1W        W48685  20.889   2.716   0.920 -0.2387  0.1001 -0.3810
    1W        W48686   7.140  17.125   7.967  0.1455 -0.1277 -0.1050
    1W        W48687  20.740   6.637   8.209 -0.1401 -0.3031 -0.1058
    1W        W48688  16.381  17.129   1.117 -0.1345 -0.0612 -0.0538
    1W        W48689   6.955   1.460   2.531  0.2567 -0.2446 -0.0403
    1W        W48690  15.544   6.205   1.248  0.0080  0.0403 -0.0590
    1W        W48691  25.149   0.596   0.561  0.3846  0.0240  0.0491
    1W        W48692  22.128  13.943   1.007  0.3378  0.0822  0.0560
    1W        W48693   4.441  24.577   8.907  0.0767 -0.0470  0.2717
    1W        W48694  14.786  25.796   1.376 -0.2063 -0.2644  0.2651
    1W        W48695  17.413  22.052   3.330 -0.0911 -0.2532 -0.1808
    1W        W48696   7.115   2.817   7.767 -0.3431  0.1171 -0.1637
    1W        W48697  27.604  21.966   9.789 -0.1130  0.2599  0.0350
    1W        W48698  16.647   1.475   0.430  0.3677  0.1869 -0.2029
    1W        W48699   2.123   8.930   7.428 -0.2639 -0.0357  0.4660
    1W        W48700  22.230  16.433   8.332  0.0092 -0.0450  0.1910
    1W        W48701  20.019   0.966   8.093 -0.1052  0.3948  0.0303
    1W        W48702  19.123  16.274   1.443  0.0384 -0.0467 -0.2204
    1W        W48703  14.227  16.059   0.386  0.1814 -0.4837  0.0308
    1W        W48704  20.158  11.897   9.773  0.0608  0.1206  0.0720
    1W        W48705  26.076  25.276   6.378  0.1474  0.0376 -0.3032
    1W        W48706   8.407  26.074   2.853  0.0238  0.2662 -0.0117
    1W        W48707   6.319  11.217   2.387 -0.0971  0.2124  0.0981
    1W        W48708   6.413  11.493   0.122 -0.0925 -0.2751 -0.0455
    1W        W48709  21.190  11.867   8.768 -0.0892  0.1436  0.0084
    1W        W48710   5.365  11.437   4.023 -0.4664  0.0486 -0.2597
    1W        W48711   4.661   2.791   8.851  0.1008  0.1987  0.0288
    1W        W48712  23.954  20.929   7.444 -0.0825 -0.0056 -0.0299
    1W        W48713   2.463  17.833   8.337 -0.0994 -0.3160 -0.0693
    1W        W48714  11.790   0.653   9.274  0.1215  0.1641  0.1925
    1W        W48715  24.273  24.094   0.407  0.0244  0.2303  0.0249
    1W        W48716  15.556  21.359   0.085 -0.0531 -0.0404  0.0261
    1W        W48717  19.279  24.466   9.523 -0.2339  0.2378  0.1171
    1W        W48718   4.683   5.572   0.123  0.1969  0.0365 -0.1693
    1W        W48719   4.808  26.247   8.432 -0.1870  0.0801 -0.1379
    1W        W48720  27.719   1.540   2.370 -0.0071 -0.1788  0.2628
    1W        W48721   2.399   6.688   8.074 -0.0058 -0.1702  0.1128
    1W        W48722  12.641  26.426   9.953  0.2559 -0.0082  0.0595
    1W        W48723   8.053  24.823   6.103  0.1569 -0.3069 -0.2070
    1W        W48724  10.071   2.964   9.143 -0.2564 -0.1161 -0.1693
    1W        W48725  12.640   6.083   1.162 -0.2333  0.0347  0.0701
    1W        W48726   5.500  14.010   7.272 -0.1061  0.0420 -0.0073
    1W        W48727  15.339   1.161   8.708 -0.4768  0.1621  0.2344
    1W        W48728  24.798  23.828   2.119  0.0547  0.3035 -0.3439
    1W        W48729   5.751  24.066   0.781  0.3032 -0.0875  0.5415
    1W        W48730  24.380  13.282   7.235  0.0890 -0.0947 -0.1231
    1W        W48731   7.338  23.609   8.132 -0.1502  0.1896  0.6027
    1W        W48732  22.240  20.747   8.306  0.0181 -0.2002  0.2666
    1W        W48733  23.844   8.034   6.658 -0.4037  0.1317 -0.3047
    1W        W48734  17.000  12.228   0.900 -0.1135  0.0852  0.0412
    1W        W48735  13.384  13.850   8.900  0.0073 -0.0285 -0.0049
    1W        W48736  21.416   4.661   2.602  0.0717 -0.0701 -0.3085
    1W        W48737  25.913  20.198   7.376  0.5593 -0.0053  0.1063
    1W        W48738   2.284  23.861   7.515 -0.1520 -0.2483  0.1514
    1W        W48739  27.546  24.181   1.240  0.0022  0.0945 -0.0767
    1W        W48740   9.646   6.180   2.729 -0.1027  0.1954 -0.2753
    1W        W48741  21.429   4.824   7.768  0.0434 -0.0217  0.0828
    1W        W48742  16.622  22.114   9.855  0.1155  0.0234 -0.5079
    1W        W48743  28.086  17.699   7.898 -0.0670  0.3549  0.0258
    1W        W48744   5.745   2.498   9.454  0.1780  0.0396  0.0116
    1W        W48745  23.964  18.596   8.510  0.1011 -0.1258 -0.0218
    1W        W48746   0.964  27.515   7.422 -0.1255  0.0654  0.3328
    1W        W48747   4.992   2.285   0.764 -0.1787 -0.1005  0.0092
    1W        W48748   3.721   8.853   7.577 -0.0649  0.2087 -0.0117
    1W        W48749   1.055  24.377   2.764 -0.0107 -0.0484 -0.1241
    1W        W48750   3.632  20.372   8.504 -0.0240  0.1072 -0.0054
    1W        W48751  16.231  12.212   6.982 -0.0222 -0.0622  0.3677
    1W        W48752   0.868  16.795   7.017  0.1907  0.5287  0.0067
    1W        W48753  15.471   9.668   1.800  0.1009  0.4111 -0.0866
    1W        W48754   2.691  25.302   9.728  0.1040 -0.0594 -0.0480
    1W        W48755   7.916   9.211   9.680  0.2238 -0.0920  0.2022
    1W        W48756  24.409  25.516   0.186 -0.0425  0.2768  0.2784
    1W        W48757  24.196  16.613   9.474 -0.1630  0.1723  0.0160
    1W        W48758  12.927  21.195   2.043 -0.2140 -0.0888  0.0386
    1W        W48759  17.498  12.038   1.620 -0.1190  0.0581 -0.0091
    1W        W48760  25.340  19.039   1.490  0.0819 -0.3115 -0.0274
    1W        W48761  10.735   2.044   9.098  0.1792  0.0732 -0.0739
    1W        W48762  23.518  19.406   6.740  0.1680 -0.0882  0.3555
    1W        W48763  17.726  13.678   8.040 -0.3055  0.1784  0.0236
    1W        W48764  21.978  25.122   0.354  0.1085  0.2033  0.1626
    1W        W48765  27.656  27.653   1.806  0.0960  0.1443  0.3159
    1W        W48766   0.180   3.772   6.556 -0.3342 -0.0394 -0.0273
    1W        W48767  23.182  20.678   7.722  0.0050 -0.0485  0.1909
    1W        W48768  19.400  26.343   7.474 -0.2200  0.2200  0.2224
    1W        W48769   4.396   3.166   0.659 -0.2308 -0.0578  0.1961
    1W        W48770  18.434  25.152   7.897  0.0372 -0.0079 -0.0397
    1W        W48771   9.404  10.562   8.946 -0.2599  0.0260  0.4621
    1W        W48772   9.030  26.976   9.443  0.1557 -0.0956  0.3123
    1W        W48773   2.220   7.337   1.058 -0.1616  0.1358 -0.0544
    1W        W48774  21.895  15.183   0.699 -0.0972  0.0833 -0.0502
    1W        W48775  12.253   5.262   2.574  0.1079 -0.0243 -0.0401
    1W        W48776  26.571   4.896   2.408 -0.1889 -0.0006  0.0064
    1W        W48777  24.392   6.311   9.174 -0.2458 -0.3320 -0.1088
    1W        W48778  21.599   9.271   3.539  0.1470 -0.3277  0.1742
    1W        W48779  17.882  14.428   1.640  0.2912 -0.2908  0.0944
    1W        W48780  19.485  26.686   9.823 -0.3784  0.0076  0.0440
    1W        W48781  25.755  23.180   6.606 -0.1802 -0.0115 -0.0713
    1W        W48782  21.706  13.204   8.800  0.0409 -0.0252 -0.0335
    1W        W48783   8.211  14.423   9.706  0.0003 -0.0238 -0.0550
    1W        W48784  15.166  14.811   1.206  0.0946  0.1357 -0.0206
    1W        W48785   9.095   8.752   2.602 -0.0348  0.3047  0.0429
    1W        W48786   5.230  21.576   7.335 -0.4175  0.1440  0.0944
    1W        W48787   9.418   0.042   7.770 -0.3598 -0.0876 -0.3615
    1W        W48788   4.506  18.642   0.041  0.0493  0.0401  0.0433
    1W        W48789  17.420  18.117   7.685  0.0366 -0.2770  0.4253
    1W        W48790  14.179  11.223   2.157  0.5131  0.0703 -0.1122
    1W        W48791  28.221  14.732   7.903 -0.1089  0.0828  0.0982
    1W        W48792   7.137  23.134   1.455  0.0915 -0.2246 -0.1521
    1W        W48793  15.549   6.854   2.555 -0.0516 -0.2563 -0.1386
    1W        W48794  18.527  27.072   7.473  0.0148  0.0820 -0.2242
    1W        W48795  25.625  15.635   7.148  0.1441 -0.0370  0.0449
    1W        W48796  26.128  26.235   6.079 -0.2447 -0.3317 -0.0129
    1W        W48797  24.177   4.153   8.503 -0.4101  0.1359 -0.2774
    1W        W48798   5.349  17.685   1.882  0.0876  0.0184  0.1821
    1W        W48799   6.761  13.412   7.861 -0.5162  0.2948 -0.1070
    1W        W48800  20.336  23.625   1.463 -0.0713 -0.0752 -0.0545
    1W        W48801  28.077  23.032   7.939 -0.1761 -0.1384 -0.2105
    1W        W48802  25.844  16.284   9.529  0.1099  0.1334  0.3954
    1W        W48803  13.634   4.820   8.033  0.0247 -0.0029  0.0456
    1W        W48804   0.795  16.568   1.464 -0.1160 -0.2735  0.0176
    1W        W48805  25.219  23.125   2.553  0.0430  0.1543  0.3284
    1W        W48806  22.265  16.462   8.863 -0.1870  0.0718 -0.0333
    1W        W48807   3.766  25.366   0.473 -0.2998  0.1572 -0.0066
    1W        W48808  19.428  15.485   1.268  0.1182  0.2030 -0.0474
    1W        W48809   2.704   9.003   9.019  0.4541 -0.1741 -0.1244
    1W        W48810  27.679  23.405   6.818 -0.2402  0.2213 -0.0906
    1W        W48811   9.126  12.803   2.095  0.2140 -0.1953 -0.1414
    1W        W48812  17.486  13.063   1.067 -0.0250  0.0642  0.1699
    1W        W48813  14.367  24.670   9.962 -0.1869 -0.0218  0.1272
    1W        W48814  27.388  25.645   8.132  0.1350 -0.0633 -0.1227
    1W        W48815  24.944  24.369   2.938 -0.1179 -0.0552 -0.0289
    1W        W48816   6.195  15.630   0.949 -0.1251  0.3708 -0.1743
    1W        W48817  22.508   6.717   0.274  0.1865  0.0426  0.0933
    1W        W48818   8.354  13.653   0.701  0.0783 -0.0925  0.0335
    1W        W48819  23.070  28.429   7.001 -0.1088  0.0043 -0.4129
    1W        W48820  12.589  14.605   0.478  0.1467  0.0058  0.0002
    1W        W48821  18.125   1.248   8.353  0.1207 -0.2014 -0.0750
    1W        W48822  15.986   7.437   7.969  0.2428  0.2302 -0.0351
    1W        W48823  21.326  21.441   6.975 -0.2240  0.1939  0.0499
    1W        W48824  26.267   1.429   7.198  0.1743 -0.2094  0.2945
    1W        W48825  15.410  19.832   1.410  0.1503 -0.2566  0.0795
    1W        W48826  10.482  10.592   1.172 -0.0181  0.0924  0.0938
    1W        W48827   8.511  26.767   8.145  0.0317  0.0099 -0.0201
    1W        W48828   3.043  24.456   7.667 -0.0231  0.1731  0.1963
    1W        W48829   0.667   1.997   2.000 -0.2520  0.1066 -0.2105
    1W        W48830   4.526  28.327   6.598  0.0273  0.0707  0.1980
    1W        W48831   2.036  28.010   7.963  0.1710  0.2379 -0.1557
    1W        W48832  24.984  12.069   8.094 -0.0334  0.2814 -0.0931
    1W        W48833   7.188  19.378   9.103  0.3965  0.0961 -0.1874
    1W        W48834  10.046  13.264   8.552  0.3526  0.0111  0.2149
    1W        W48835  27.579   8.351   0.578 -0.1857  0.0175 -0.0974
    1W        W48836  27.734  19.420   1.328  0.0438  0.2258  0.2552
    1W        W48837  27.037   4.605   9.221  0.0064  0.1790 -0.2762
    1W        W48838   7.317  19.845   1.763 -0.1879  0.0437 -0.0028
    1W        W48839  16.214  25.837   2.560  0.0507  0.2136  0.1615
    1W        W48840  28.283   0.595   7.838  0.1814 -0.0543 -0.3859
    1W        W48841  17.258   8.484   0.520  0.1578 -0.2306  0.1204
    1W        W48842  22.543  24.358   0.205  0.0257  0.0842 -0.0215
    1W        W48843  23.777   6.614   1.096  0.0921 -0.0716 -0.0022
    1W        W48844   9.808  23.823   6.413 -0.0239 -0.1460 -0.4119
    1W        W48845   1.296  26.266   2.569  0.1204 -0.1082  0.3159
    1W        W48846  21.031  25.303   0.661  0.1181  0.1654  0.0912
    1W        W48847  16.926  27.968   0.613 -0.0861  0.2496 -0.0472
    1W        W48848  19.554   1.485   1.977  0.1371 -0.1120 -0.0316
    1W        W48849   4.294  13.485   9.946  0.0066 -0.0283  0.2769
    1W        W48850   4.856   0.721   2.338  0.4531 -0.3181  0.2268
    1W        W48851   3.723  28.243   8.178 -0.0226  0.1327  0.0109
    1W        W48852  12.052  18.695   1.847  0.1143 -0.1285 -0.2810
    1W        W48853   9.835   4.808   2.527  0.2740  0.2334  0.0826
    1W        W48854   9.420  14.879   9.216  0.0939  0.0396  0.2713
    1W        W48855  11.749  25.608   1.566  0.2809 -0.2679  0.3180
    1W        W48856   6.477  22.504   8.644  0.1134  0.3343 -0.0390
    1W        W48857   2.882   7.207   9.541 -0.0849 -0.0049 -0.2037
    1W        W48858   1.357  14.103   1.644  0.1547  0.0571 -0.0484
    1W        W48859  26.199  18.384   9.358  0.0364  0.0436  0.1839
    1W        W48860  11.963   3.888   1.239 -0.0075 -0.3859 -0.3114
    1W        W48861   0.984   0.368   0.465 -0.2069  0.0615  0.1141
    1W        W48862  24.771  26.259   2.838 -0.1789 -0.0884 -0.0408
    1W        W48863  21.770  18.486   1.258  0.1199  0.1847 -0.1051
    1W        W48864   6.193   7.147   1.214 -0.1560 -0.2975  0.1117
    1W        W48865   9.871   2.853   1.555 -0.0574 -0.2139 -0.0898
    1W        W48866   5.296  23.533   0.735  0.2125 -0.2132 -0.3941
    1W        W48867   3.587  17.079   2.306  0.2462  0.0450  0.1966
    1W        W48868  20.302   4.649   0.598 -0.0181 -0.1554  0.1866
    1W        W48869  20.887  16.591   1.150 -0.1655 -0.2842 -0.0296
    1W        W48870   4.666   6.606   9.156  0.0885  0.0114 -0.4845
    1W        W48871  25.142  19.807   0.654 -0.1347  0.2429 -0.2089
    1W        W48872  24.665  24.277   2.320  0.2091  0.0139 -0.0330
    1W        W48873   7.138  16.379   0.752 -0.0089 -0.2552 -0.0176
    1W        W48874  11.938  23.077   8.018 -0.1851  0.1290  0.1682
    1W        W48875  10.315  18.006   9.747 -0.1946 -0.2485 -0.0286
    1W        W48876  26.769  21.941   0.922  0.0324  0.0983  0.0360
    1W        W48877  27.585   7.207   7.095 -0.0822  0.0875  0.4316
    1W        W48878  24.949   2.710   1.967 -0.0681 -0.0635 -0.3124
    1W        W48879  14.881  13.632   7.805  0.2324 -0.0102 -0.1299
    1W        W48880  15.723   6.090   0.450 -0.1620  0.0564 -0.1825
    1W        W48881  21.780   9.254   2.625  0.1721 -0.1485 -0.0193
    1W        W48882  11.229   4.630   1.464 -0.1351 -0.3806 -0.1630
    1W        W48883  23.738   6.266   3.375 -0.0269 -0.0607 -0.0472
    1W        W48884  25.760   1.284   7.031 -0.2002 -0.0230  0.1375
    1W        W48885  28.549  21.045   2.182 -0.1916  0.2313  0.0355
    1W        W48886   5.047  15.688   7.627  0.0920 -0.0473  0.0332
    1W        W48887  27.901  17.045   4.105 -0.1064  0.2143 -0.5449
    1W        W48888  15.784  10.449   1.714 -0.1005 -0.0006 -0.1344
    1W        W48889   3.784   8.753   1.450 -0.0544 -0.2388 -0.1282
    1W        W48890   0.862   7.003   0.212  0.2293  0.1282 -0.5426
    1W        W48891  20.411   6.959   9.043  0.1286 -0.1095 -0.2264
    1W        W48892   4.444  28.649   9.322 -0.2608 -0.1459  0.0514
    1W        W48893  18.790   5.261   9.052  0.0368 -0.0222 -0.0268
    1W        W48894  18.996  14.670   7.712 -0.1723 -0.0753  0.0893
    1W        W48895   7.176   8.169   0.213 -0.2251  0.1726 -0.0013
    1W        W48896  23.433  10.095   9.455 -0.4988 -0.0919 -0.1474
    1W        W48897  25.557  28.311   6.807  0.0274  0.0345 -0.1934
    1W        W48898   5.589   0.356   7.663 -0.1571 -0.2683  0.1195
    1W        W48899  25.986  19.050   0.593  0.3133 -0.0820  0.1176
    1W        W48900  10.959  28.459   9.065 -0.3711 -0.3482 -0.2271
    1W        W48901  17.928   4.335   1.197 -0.1759  0.1642 -0.0355
    1W        W48902  24.071   4.647   0.913  0.0277  0.0103  0.3196
    1W        W48903  24.356  18.993   9.216 -0.1205  0.1116  0.1924
    1W        W48904  23.465  14.856   0.935 -0.1243  0.0458  0.0957
    1W        W48905   2.245  20.889   6.182 -0.2219 -0.0571  0.0889
    1W        W48906   3.286  15.801   8.240 -0.1984 -0.0880 -0.0212
    1W        W48907  11.153   7.287   9.891  0.3174 -0.3183  0.2535
    1W        W48908  25.584  22.134   8.686  0.0713 -0.2307  0.3064
    1W        W48909   6.381   4.563   8.960  0.0665  0.2473  0.1671
    1W        W48910  27.259   5.348   6.852 -0.1036 -0.0108  0.1845
    1W        W48911  12.981  22.957   3.046 -0.0379 -0.0648 -0.0909
    1W        W48912   6.017  20.807   5.790 -0.1586 -0.4148  0.4465
    1W        W48913   3.556   4.186   1.000 -0.1199 -0.4383 -0.0734
    1W        W48914  10.542  16.790   8.223 -0.1497 -0.0628 -0.2376
    1W        W48915   1.330  20.535   6.187 -0.1515  0.4129 -0.0332
    1W        W48916  24.494   8.801   8.964  0.0927  0.2281  0.1233
    1W        W48917  24.001  15.086   7.492 -0.2420  0.1052  0.2170
    1W        W48918  11.683  25.927   0.113  0.1283  0.0614  0.1257
    1W        W48919   8.721   7.048   8.987  0.2300  0.2510  0.0489
    1W        W48920  15.022  26.820   0.351  0.0569 -0.3296 -0.3321
    1W        W48921   3.678  24.396   2.300 -0.1730 -0.1384  0.1377
    1W        W48922  28.133   3.200   1.714 -0.1548  0.2148  0.1212
    1W        W48923  25.320   0.084   0.419 -0.0483  0.2591 -0.0571
    1W        W48924  20.211  21.293   7.585  0.0007 -0.0119  0.0761
    1W        W48925  17.894  19.913   8.560  0.0502 -0.1463  0.1502
    1W        W48926  15.157  17.959   7.010 -0.0098  0.2141 -0.0573
    1W        W48927   4.289  22.828   7.342 -0.1346 -0.3671  0.0757
    1W        W48928   5.268  23.349   1.714 -0.1158  0.1374  0.0316
    1W        W48929  14.443   7.321   0.135 -0.0192  0.0455 -0.3269
    1W        W48930  20.919  19.438   6.979 -0.1522 -0.1964  0.1428
    1W        W48931   3.211  25.988   2.164 -0.0126 -0.1168  0.1189
    1W        W48932  21.502   5.685   8.244 -0.0380  0.0285 -0.1812
    1W        W48933   1.305  10.518   8.531  0.1337  0.2425  0.2263
    1W        W48934   4.573   2.839   0.314  0.0234  0.0103  0.0024
    1W        W48935  17.172  10.459   1.446 -0.1086 -0.1522  0.2898
    1W        W48936  19.120  20.553   6.718  0.0873  0.0254  0.0510
    1W        W48937   0.619  11.986   9.352  0.0058 -0.0722  0.2521
    1W        W48938  17.422  16.810   0.174 -0.1055 -0.0319  0.3540
    1W        W48939  22.117  28.147   8.065  0.2166 -0.0339  0.0587
    1W        W48940  19.725  28.169   1.078  0.0589  0.0542 -0.1223
    1W        W48941  26.941  12.477   0.782  0.0604 -0.0801  0.1690
    1W        W48942   0.541   2.852   2.163  0.0912  0.1236 -0.1287
    1W        W48943  25.830  18.590   0.312  0.1090  0.1842  0.0849
    1W        W48944   7.368   8.053   1.675 -0.2125 -0.1121  0.2074
    1W        W48945   5.380   7.387   3.026 -0.1378 -0.0499 -0.2648
    1W        W48946  25.388  22.615   7.040  0.0844 -0.1118  0.0842
    1W        W48947   8.835   0.609   2.144 -0.1458  0.0314 -0.1811
    1W        W48948  25.610   9.429   9.746 -0.0730 -0.1898 -0.0263
    1W        W48949  26.968  12.677   8.978  0.1052 -0.0333  0.0074
    1W        W48950   4.083  10.286   9.030  0.1225  0.0091 -0.4836
    1W        W48951   1.327   1.836   2.711  0.1356 -0.1536  0.0399
    1W        W48952  24.945   6.144   1.751  0.2332  0.0114 -0.4114
    1W        W48953  11.781  21.722   9.667  0.1009 -0.1031  0.0006
    1W        W48954  22.139   9.753   0.070  0.1087 -0.3732  0.0663
    1W        W48955   4.773  19.199   7.860 -0.0557 -0.1640  0.0138
    1W        W48956  19.346  19.857   1.941  0.2188 -0.3476 -0.0798
    1W        W48957  26.716   3.420   2.748 -0.0635  0.1014  0.4993
    1W        W48958  25.791  18.888   8.396  0.0199 -0.0929  0.0704
    1W        W48959   3.780  17.144   7.449  0.1715 -0.1178  0.1856
    1W        W48960  18.110  10.784   1.257 -0.2860 -0.0661  0.0191
    1W        W48961  19.713  16.397   1.800  0.2944 -0.1168 -0.0413
    1W        W48962   2.414   0.476   1.172 -0.0882  0.0613 -0.1705
    1W        W48963   4.087  11.512   0.404  0.0254  0.0770  0.0144
    1W        W48964   6.410  27.702   9.026 -0.0751 -0.4925  0.0399
    1W        W48965  13.681   2.277   2.184  0.1977  0.0535  0.2097
    1W        W48966   2.683  24.710   7.378  0.1659 -0.4707 -0.1221
    1W        W48967  24.720   7.673   6.628  0.0412  0.3007  0.2377
    1W        W48968   1.050  19.516   5.606  0.1481  0.1896  0.0681
    1W        W48969  21.949  19.273   8.279  0.2803 -0.2385 -0.3649
    1W        W48970  21.867   1.341   8.167 -0.0680  0.0246  0.4468
    1W        W48971  15.810   3.906   7.950  0.1790 -0.0467  0.2365
    1W        W48972  15.381   9.776   9.932  0.0411 -0.0140  0.0230
    1W        W48973  27.324   7.065   0.934  0.1153  0.2644  0.2773
    1W        W48974   2.671  26.588   6.933  0.1763 -0.0849 -0.0737
    1W        W48975   6.175   0.725   0.685 -0.2712 -0.1595 -0.1621
    1W        W48976  22.670  21.044   2.315  0.0273 -0.1286  0.0391
    1W        W48977  28.483   2.398   1.515  0.1015 -0.4162 -0.1793
    1W        W48978  23.440   2.068   8.223  0.1012  0.0615 -0.2346
    1W        W48979  19.797  10.598   0.563  0.1094 -0.3212  0.0922
    1W        W48980  18.134  15.681   0.443  0.2398 -0.0729 -0.2910
    1W        W48981   8.575  12.620   2.088 -0.2634  0.0594 -0.0597
    1W        W48982  27.582  19.446   3.082 -0.2122  0.3883 -0.1687
    1W        W48983   6.134   3.765   7.916  0.3390  0.0490  0.2626
    1W        W48984   1.057   4.885   2.021  0.0396 -0.1172 -0.1469
    1W        W48985   0.596  14.088   0.093 -0.0712  0.1471 -0.2701
    1W        W48986   2.960   6.010   9.252 -0.2452 -0.0566 -0.1875
    1W        W48987   2.692   5.920   6.999  0.3661 -0.0107 -0.1897
    1W        W48988   8.136   2.325   2.110 -0.1656  0.0221 -0.1978
    1W        W48989  18.521  11.808   0.533  0.3169  0.0119 -0.0976
    1W        W48990   4.588  17.560   0.730  0.0504  0.0400 -0.1460
    1W        W48991   6.776   5.440   2.149  0.0290  0.2208 -0.1085
    1W        W48992   8.662  25.575   7.927 -0.2160 -0.2866 -0.0673
    1W        W48993   3.320   3.805   7.197 -0.0070 -0.2460 -0.0775
    1W        W48994  26.526  14.560   1.118 -0.2493 -0.0029 -0.2907
    1W        W48995   1.980   3.484   7.113  0.1577  0.1654 -0.0975
    1W        W48996  12.917   1.481   1.736 -0.0218 -0.3188  0.0040
    1W        W48997   3.705   3.524   7.149  0.1446  0.2336 -0.1076
    1W        W48998  28.393  16.596   9.823  0.0640 -0.0541  0.0751
    1W        W48999  19.566   5.310   7.746  0.0462 -0.0203  0.0419
    1W        W49000  24.441  27.637   1.352 -0.1759 -0.2007  0.3146
    1W        W49001   6.262  26.437   1.293  0.0918 -0.1442 -0.3915
    1W        W49002  10.905  12.962   1.452 -0.2366  0.1969  0.0878
    1W        W49003   9.869   1.356   8.007 -0.3114 -0.2645 -0.0835
    1W        W49004  26.768  21.680   1.334 -0.2349  0.2149 -0.0816
    1W        W49005  21.652  18.021   2.617 -0.0579 -0.1471 -0.0873
    1W        W49006  22.315  15.898   9.443  0.0712  0.0074 -0.4298
    1W        W49007  23.253   2.058   1.166  0.0168 -0.1307 -0.2397
    1W        W49008   7.734  10.241   2.824 -0.0271 -0.0299 -0.0540
    1W        W49009  14.983  23.522   1.226 -0.0320  0.3777  0.0266
    1W        W49010   0.945   4.928   8.206  0.2497 -0.1403  0.0408
    1W        W49011  17.588  27.815   2.255 -0.2292 -0.0908  0.0781
    1W        W49012  17.001  24.793   0.501  0.0261  0.1040  0.0273
    1W        W49013   4.550  27.408   1.131  0.2330  0.1475 -0.4846
    1W        W49014  14.336  13.534   2.899 -0.0291  0.3751  0.0690
    1W        W49015  15.197   8.417   2.234  0.0857  0.0004 -0.0576
    1W        W49016  17.312   4.488   7.965 -0.3082 -0.0457 -0.0560
    1W        W49017   4.676   1.925   1.159 -0.1370  0.1890  0.1255
    1W        W49018  25.853   8.036   7.166  0.0174 -0.0679  0.1628
    1W        W49019   5.636  27.706   1.265  0.0353  0.2181 -0.0428
    1W        W49020  10.942  11.333   9.231 -0.0504  0.2130 -0.0427
    1W        W49021  12.814   3.032   9.248  0.0841 -0.2206  0.1576
    1W        W49022   4.932  26.158   7.695 -0.1702 -0.3878 -0.0371
    1W        W49023  25.607   6.881   0.227 -0.1446  0.1478  0.1112
    1W        W49024  27.498   8.305   6.781  0.0787  0.1895  0.0907
    1W        W49025  26.890  21.140   1.410 -0.1272  0.0212 -0.2836
    1W        W49026  15.894  27.289   9.276 -0.2458 -0.2257  0.3555
    1W        W49027   3.471  23.664   0.145 -0.0228 -0.0901  0.1534
    1W        W49028   6.132   9.090   7.081 -0.1071  0.0922  0.0013
    1W        W49029  19.724   2.115   2.106  0.2257 -0.1480  0.0591
    1W        W49030  10.749  13.909   8.524  0.0342  0.0636 -0.1389
    1W        W49031   3.730   2.444   7.394  0.0013 -0.4246 -0.0212
    1W        W49032   0.436  11.971   7.458  0.2130  0.1898 -0.1200
    1W        W49033   1.291  24.124   1.339  0.0311 -0.1122 -0.1466
    1W        W49034   9.327   3.006   1.638 -0.0413  0.0355  0.0578
    1W        W49035   2.737  12.180   1.326  0.0187  0.1471 -0.4089
    1W        W49036  19.203  11.929   2.135 -0.0763 -0.1263 -0.2213
    1W        W49037   2.301  10.519   9.798  0.2832 -0.1981 -0.0464
    1W        W49038  18.279  21.469   7.427 -0.2640 -0.2313 -0.0790
    1W        W49039   1.003  21.558   0.247 -0.0258  0.0077 -0.2056
    1W        W49040  25.507   7.117   1.397 -0.0014  0.0218  0.0553
    1W        W49041  21.112  24.872   6.779 -0.0504 -0.0536  0.2334
    1W        W49042  16.595   1.465   7.779  0.1766 -0.1871  0.0475
    1W        W49043  27.362  21.580   2.694  0.0126 -0.2855 -0.1486
    1W        W49044  22.278   5.790   7.478  0.3352  0.1661 -0.2807
    1W        W49045  23.703  23.314   7.556 -0.0976 -0.1291 -0.0143
    1W        W49046  12.642  25.291   1.516  0.2057  0.0288 -0.1428
    1W        W49047  17.177   7.508   9.586 -0.3334  0.1206  0.2795
    1W        W49048  15.694  21.116   8.550 -0.1814 -0.2167 -0.1977
    1W        W49049   6.820  22.384   8.338 -0.1755 -0.1324  0.2588
    1W        W49050   9.367  13.448   7.851  0.0702  0.0267  0.1243
    1W        W49051  19.372  23.369   9.108 -0.0613 -0.0461 -0.0134
    1W        W49052  25.573   7.723   8.103  0.0191  0.0584  0.1860
    1W        W49053  13.699  24.440   0.073 -0.0652  0.1884  0.1829
    1W        W49054  11.986  11.007   2.774  0.1992  0.2376 -0.0986
    1W        W49055  20.108   4.801   9.716  0.0745 -0.0431 -0.0459
    1W        W49056  27.758  12.901   2.130  0.1961  0.2179 -0.0702
    1W        W49057  10.372   3.093   1.546  0.0708  0.0356  0.2394
    1W        W49058   7.385   1.378   6.987 -0.0911  0.1237 -0.1867
    1W        W49059  12.502  23.494   2.378  0.1590 -0.3714  0.0128
    1W        W49060  22.433  18.984   8.311 -0.2186  0.1585  0.2440
    1W        W49061  19.237   0.898   0.504 -0.0169 -0.0645 -0.0311
    1W        W49062  15.502   8.072   1.863  0.5222  0.1723 -0.0916
    1W        W49063  21.134   7.677   7.375 -0.2179  0.0279 -0.0693
    1W        W49064   9.432  19.746   1.964 -0.1090  0.0144 -0.1904
    1W        W49065  25.313   7.279   8.004 -0.3365  0.1412 -0.0231
    1W        W49066  26.224  15.011   6.841 -0.0087 -0.0912  0.3677
    1W        W49067  16.607  25.511   1.184  0.4596  0.4806 -0.0715
    1W        W49068  21.824   2.891   3.034  0.3407  0.3072 -0.1120
    1W        W49069  24.527   9.846   1.475  0.2858 -0.0183 -0.2798
    1W        W49070  23.114  10.832   2.873 -0.0311 -0.1759 -0.1268
    1W        W49071   8.195  14.827   2.242  0.2940  0.0563 -0.1136
    1W        W49072  23.927  14.465   7.660  0.0296 -0.0771 -0.1706
    1W        W49073   3.219   9.917   0.239  0.0891 -0.2745  0.2513
    1W        W49074   5.614  24.993   0.412 -0.0872 -0.0806  0.4399
    1W        W49075  12.011  24.030   2.595 -0.0391  0.0038 -0.2411
    1W        W49076  24.426  26.526   7.087 -0.0346 -0.2315 -0.1230
    1W        W49077  28.608  19.219   2.087 -0.0348 -0.4170  0.1379
    1W        W49078  16.720  10.899   2.017  0.3378  0.2610  0.3307
    1W        W49079   9.200   2.314   0.218  0.0172  0.6942  0.3427
    1W        W49080   2.961  22.315   9.686 -0.0643  0.0249 -0.0481
    1W        W49081   4.892   5.654   1.868  0.2721  0.0298 -0.1498
    1W        W49082   0.046  21.673   1.924  0.0187 -0.0863 -0.0905
    1W        W49083  27.041  17.597   1.631 -0.1487  0.3030  0.1476
    1W        W49084  13.493  28.118   3.035 -0.0107 -0.0786  0.2937
    1W        W49085   5.072   3.191   1.678  0.0288  0.0949 -0.1062
    1W        W49086   5.212  17.954   1.480  0.0672  0.0342  0.0110
    1W        W49087   6.827  16.029   0.610 -0.1955  0.0363  0.2466
    1W        W49088  23.832  17.586   2.327  0.1297 -0.0307 -0.3254
    1W        W49089  14.326  21.452   9.858  0.1522  0.0198 -0.2763
    1W        W49090   4.721  10.381   6.833  0.4024  0.3254  0.1283
    1W        W49091  15.720   2.973   3.733 -0.0533 -0.0020  0.3378
    1W        W49092  26.516  10.509   8.696 -0.2091 -0.0052 -0.1729
    1W        W49093  17.448   5.725   1.529 -0.0447 -0.2915  0.1973
    1W        W49094  20.723   1.378   0.963 -0.0538 -0.2288 -0.0886
    1W        W49095   1.606   1.204   9.299 -0.0452  0.1092  0.0533
    1W        W49096  15.216   0.285   3.350  0.1699  0.0049  0.0160
    1W        W49097   2.273  11.267   0.713 -0.0508 -0.1683  0.1273
    1W        W49098  24.787  22.580   0.794  0.0028 -0.0433 -0.0705
    1W        W49099  18.323  12.738   1.276  0.0945  0.0157 -0.4154
    1W        W49100   5.923  28.301   0.017  0.1478  0.2308 -0.1974
    1W        W49101  24.564  17.470   0.934 -0.1326  0.1399  0.3565
    1W        W49102   3.172  27.405   9.800  0.0205 -0.0125 -0.0537
    1W        W49103  26.025  26.651   8.293  0.2928 -0.0800  0.2113
    1W        W49104  19.013  24.748   9.920  0.0472  0.0941 -0.0481
    1W        W49105  18.101  13.349   0.180  0.1236  0.0987 -0.2149
    1W        W49106   5.260   2.265   9.238 -0.0909  0.2294  0.0625
    1W        W49107  21.156   5.544   8.674  0.1681  0.0814 -0.1976
    1W        W49108  22.329  24.879   9.356  0.1631  0.1727  0.1624
    1W        W49109  20.001  12.437   9.690 -0.0834  0.2874  0.1040
    1W        W49110  11.971  21.387   7.761  0.0990 -0.0910 -0.1381
    1W        W49111  23.473  14.575   9.431  0.0244 -0.4268 -0.0873
    1W        W49112  27.784   0.893   0.633 -0.2526 -0.0331  0.0133
    1W        W49113  19.910  22.853   2.431  0.0885  0.1922 -0.0617
    1W        W49114   3.562  27.259   0.130 -0.2676  0.1324  0.1723
    1W        W49115  16.348  14.464   7.661  0.4267  0.0146 -0.2602
    1W        W49116  21.815  21.281   9.159  0.1985  0.1604  0.0053
    1W        W49117   9.369  11.848   1.133 -0.2291  0.0441 -0.0925
    1W        W49118  27.094  14.004   0.139 -0.0310  0.3580 -0.0245
    1W        W49119  23.438   7.587   8.098 -0.0516  0.2313 -0.3222
    1W        W49120   0.514  27.816   3.100  0.1202  0.0891  0.2014
    1W        W49121  20.066  27.553   2.557 -0.2386  0.0720  0.1184
    1W        W49122  28.636  16.720   1.558 -0.2754 -0.1861 -0.0948
    1W        W49123  17.550  21.947   1.229  0.2048 -0.1576  0.0883
    1W        W49124   0.425   1.076   0.275  0.3209  0.1329 -0.1793
    1W        W49125  17.460  22.817   1.503 -0.0646  0.4099  0.1779
    1W        W49126  22.306  27.493   9.587 -0.3004  0.1623 -0.1609
    1W        W49127   6.509  17.071   6.801 -0.1101 -0.1295 -0.0228
    1W        W49128  28.681  21.933   6.327  0.1725  0.2336 -0.1674
    1W        W49129   2.615  26.808   9.095  0.3156 -0.1560  0.0317
    1W        W49130   7.760  26.065   0.433  0.0134 -0.2627  0.0020
    1W        W49131   5.056  15.336   9.471  0.4288 -0.0529 -0.0043
    1W        W49132  12.416   1.527   3.431 -0.2270  0.0664  0.0622
    1W        W49133  24.862  17.582   0.419 -0.2050  0.1008  0.0392
    1W        W49134   8.182   1.265   0.299  0.0463 -0.1189 -0.1887
    1W        W49135   1.000  17.766   0.662  0.1113  0.1761  0.1749
    1W        W49136  13.468   7.999   1.448  0.0109 -0.0487 -0.0282
    1W        W49137   9.640   7.414   1.509 -0.2141 -0.2784  0.0975
    1W        W49138  28.511  25.571   1.602 -0.0312 -0.1227 -0.1205
    1W        W49139   9.071  25.716   0.373  0.3608 -0.1309 -0.2345
    1W        W49140  27.777   2.019   9.170 -0.0273 -0.0112 -0.1500
    1W        W49141  23.098  12.643   9.447 -0.2351  0.0318 -0.0548
    1W        W49142  27.279  11.744   2.471 -0.3004 -0.1805  0.2781
    1W        W49143   4.525   6.071   9.056  0.0156 -0.2531  0.0356
    1W        W49144   9.566  21.966   7.252 -0.1020  0.0477  0.0357
    1W        W49145  21.363  14.519   0.180  0.0605 -0.2914 -0.1981
    1W        W49146  24.416  18.350   9.311 -0.0113  0.2411 -0.1599
    1W        W49147   5.073  15.185   7.829 -0.0252  0.2232 -0.1237
    1W        W49148  21.055  23.517   3.098  0.0252 -0.0609  0.2490
    1W        W49149   4.593  22.590   1.459 -0.3544 -0.2043 -0.0447
    1W        W49150   9.194  12.291   1.297  0.0035  0.0988 -0.0366
    1W        W49151  17.074  25.646   0.861  0.3137  0.0389  0.2468
    1W        W49152  10.425  21.754   1.801  0.0836  0.0586 -0.1198
    1W        W49153  21.154  25.254   2.078 -0.0930 -0.1849  0.2025
    1W        W49154  26.686  14.925   6.684  0.0877  0.1771 -0.0527
    1W        W49155   7.421  19.842   8.979  0.0457 -0.0925  0.3195
    1W        W49156   4.570   0.750   8.727  0.0440  0.0643  0.1674
    1W        W49157  10.217  24.136   6.608 -0.4183  0.2343  0.1377
    1W        W49158  26.195  14.508   7.151 -0.0391  0.0415  0.0713
    1W        W49159  20.402  19.198   1.587  0.0105 -0.2040  0.0828
    1W        W49160  23.542  15.927   2.103  0.3720 -0.2107  0.1514
    1W        W49161  21.393  24.479   6.956  0.1892  0.1004  0.0510
    1W        W49162   5.601   3.847   0.786  0.1963 -0.1913 -0.4761
    1W        W49163   0.565  13.934   6.291 -0.0855 -0.0044  0.2087
    1W        W49164   5.961  14.642   0.665  0.1458 -0.1632 -0.0228
    1W        W49165   9.476   0.181   1.006  0.0013 -0.0374  0.0560
    1W        W49166   6.492  21.180   8.429  0.0151 -0.1658 -0.2977
    1W        W49167  18.629   8.728   7.251 -0.0390  0.0714 -0.2252
    1W        W49168  27.694   7.967   8.534 -0.1330  0.1488  0.0748
    1W        W49169   5.558  27.809   6.739  0.0767 -0.3173 -0.2899
    1W        W49170   5.953  23.528   6.792 -0.3350  0.4966  0.0821
    1W        W49171  10.430  25.538   9.283  0.1357 -0.0666  0.0961
    1W        W49172   8.928  21.530   8.435 -0.0185  0.1420 -0.1222
    1W        W49173  21.655   3.284   0.130  0.0298  0.0374 -0.2986
    1W        W49174  17.541   3.446   7.458 -0.0104 -0.1045  0.1110
    1W        W49175  22.657   2.567   6.308 -0.4777 -0.1111  0.1155
    1W        W49176  26.760   4.205   3.116  0.0777 -0.0232  0.2256
    1W        W49177   7.333  17.413   7.239  0.0570 -0.0787  0.2435
    1W        W49178  18.677  28.702   9.391 -0.0358  0.2834 -0.1454
    1W        W49179   0.576  18.054   0.598  0.1620 -0.3408  0.1029
    1W        W49180  14.098  26.660   2.189 -0.0825 -0.0607  0.2089
    1W        W49181  16.042   4.209   1.860  0.0149 -0.0029  0.1031
    1W        W49182  20.058   2.377   8.616  0.1535  0.2295 -0.0246
    1W        W49183   0.580   0.322   1.898 -0.2311  0.1456  0.2237
    1W        W49184  15.999   3.692   2.724 -0.2016  0.1670 -0.0429
    1W        W49185  15.771  18.735   9.803 -0.1489  0.1457  0.1057
    1W        W49186  23.581  20.037   3.503 -0.0555 -0.1798  0.3421
    1W        W49187  12.106   6.745   2.051 -0.2207  0.2283 -0.1160
    1W        W49188  15.053   9.133   7.922  0.1962  0.0455  0.0790
    1W        W49189  13.343  16.529   9.608 -0.2744  0.3294 -0.1898
    1W        W49190   5.498   2.439   0.807  0.3724 -0.0074 -0.2910
    1W        W49191   7.450   4.751   2.037 -0.0089 -0.0500 -0.0115
    1W        W49192   2.643   9.813   1.042  0.1520 -0.2907  0.0427
    1W        W49193  23.086  11.596   1.645 -0.2068  0.5373 -0.1997
    1W        W49194  27.864  20.035   2.387 -0.1164  0.0165  0.0104
    1W        W49195  23.843  19.665   9.650 -0.0169  0.1162  0.1082
    1W        W49196   1.127   8.645   0.963 -0.1301 -0.4475  0.2943
    1W        W49197  11.213   9.563   9.731  0.0951  0.3167  0.3738
    1W        W49198   7.186   2.377   8.141 -0.0790 -0.1039 -0.0275
    1W        W49199  12.637   9.082   7.884  0.1955 -0.2722 -0.2933
    1W        W49200  18.711  14.035   7.686  0.3332  0.4103 -0.1285
    1W        W49201  17.719   3.968   3.496  0.0745  0.0379  0.1330
    1W        W49202   9.446   2.039   8.000  0.1612  0.2291  0.0365
    1W        W49203   8.353  21.732   1.996  0.0674 -0.0817 -0.2893
    1W        W49204  10.432   4.804   9.226  0.2010 -0.1943 -0.2141
    1W        W49205   7.577   9.671   0.562  0.2153 -0.0219  0.0050
    1W        W49206  20.504   8.619   2.871 -0.0303  0.0198  0.2265
    1W        W49207  24.656   4.987   7.834 -0.0875  0.0433 -0.1251
    1W        W49208   0.949  25.842   7.148 -0.4408 -0.0898 -0.0323
    1W        W49209  18.391   6.699   0.788 -0.0569  0.1685 -0.1117
    1W        W49210  18.637  13.512   8.491 -0.0199 -0.3282  0.1551
    1W        W49211  16.518  15.963   7.614 -0.1524 -0.1215 -0.1384
    1W        W49212  20.619  13.040   8.164  0.0305  0.1297  0.2057
    1W        W49213  20.405  17.602   9.703 -0.1111 -0.0290  0.1329
    1W        W49214  13.338   7.399   0.829 -0.4603 -0.0691 -0.1110
    1W        W49215   1.919  17.380   0.539  0.2319  0.3083  0.2644
    1W        W49216  18.212  25.265   6.601 -0.0544  0.0299  0.0545
    1W        W49217   0.168  26.509   3.198  0.0114  0.0277 -0.0931
    1W        W49218   7.571   8.351   0.927 -0.0466  0.1998 -0.3771
    1W        W49219  19.202   0.106   2.319 -0.2055  0.0569  0.1605
    1W        W49220  23.109  25.184   8.684 -0.1850  0.0332 -0.3410
    1W        W49221  12.835  25.099   2.687  0.4637  0.2276  0.2608
    1W        W49222   6.794  23.794   7.194  0.2371  0.0401 -0.0200
    1W        W49223   1.680   0.603   7.008  0.1184 -0.0459 -0.1296
    1W        W49224  21.653   9.352   0.054 -0.0321 -0.0285 -0.0470
    1W        W49225  21.333  12.198   2.344  0.2235 -0.1019 -0.2278
    1W        W49226   2.949  20.323   2.535  0.1132  0.0202 -0.1535
    1W        W49227  15.606  13.285   7.597 -0.2275 -0.0277  0.3503
    1W        W49228  18.734   6.112   9.097  0.1176 -0.0711  0.0687
    1W        W49229   2.491  24.631   1.849  0.0009 -0.0886  0.3340
    1W        W49230  14.256  19.277   9.883  0.1671  0.1388  0.1504
    1W        W49231  23.578  20.218   0.960  0.0883  0.0145 -0.0912
    1W        W49232   8.757   3.261   9.815  0.0520  0.0407  0.1718
    1W        W49233   8.745  26.088   0.442 -0.2185  0.0927  0.2869
    1W        W49234  14.487  14.925   1.847  0.0322 -0.1621  0.1552
    1W        W49235  14.520   9.727   0.042 -0.2858 -0.3362  0.3267
    1W        W49236  14.948  27.622   1.136  0.2179  0.3135  0.0626
    1W        W49237   1.298  24.838   8.859 -0.2317 -0.1964 -0.0729
    1W        W49238  22.246  20.941   9.231 -0.1550  0.2473 -0.2850
    1W        W49239   2.174   5.819   1.936 -0.1915 -0.3958  0.1356
    1W        W49240  15.246   3.031   0.579  0.1309 -0.0577  0.0396
    1W        W49241   6.175  25.818   2.043 -0.3173  0.0853  0.1729
    1W        W49242   0.031   0.742   7.802 -0.2304 -0.0285 -0.1651
    1W        W49243  26.059   7.094   6.916  0.2435  0.1681  0.0656
    1W        W49244  11.136  14.657   2.060 -0.0562  0.1534 -0.0045
    1W        W49245  21.706  11.669   0.988  0.0095  0.0240 -0.2146
    1W        W49246  25.529  21.195   1.666  0.2645  0.2351  0.0449
    1W        W49247  22.155  21.953   7.353  0.0712 -0.0057 -0.0228
    1W        W49248  24.701  10.126   6.221  0.2968  0.1396 -0.2491
    1W        W49249  11.172  11.147   0.961  0.0376 -0.4308  0.0019
    1W        W49250  18.982  19.730   0.482 -0.3177 -0.0381 -0.0343
    1W        W49251  12.638   7.629   2.566 -0.1278  0.0711 -0.1631
    1W        W49252   3.806  14.469   7.162  0.0600  0.0734  0.2152
    1W        W49253  17.318  14.994   2.268  0.0529  0.0612  0.1860
    1W        W49254  17.507  14.269   7.286  0.0881 -0.3384 -0.2111
    1W        W49255   6.371  16.262   1.952 -0.0300 -0.3781  0.1409
    1W        W49256  27.457   8.522   9.006  0.1204  0.2276 -0.0836
    1W        W49257   3.529   1.362   0.020 -0.0482  0.1285  0.0375
    1W        W49258  24.344  11.340   6.689 -0.1457 -0.0453  0.1389
    1W        W49259  11.917  27.887   0.120  0.2482  0.0667  0.1597
    1W        W49260  10.444  16.685   1.806  0.0757 -0.1979 -0.2197
    1W        W49261  19.242   7.016   0.098 -0.0961 -0.0829 -0.1058
    1W        W49262  10.041  28.368   1.467  0.0417  0.4800 -0.0587
    1W        W49263  12.613   5.431   0.987  0.1127  0.0418  0.0938
    1W        W49264   6.261  27.493   3.025 -0.0555  0.0654 -0.3889
    1W        W49265  18.164   6.072   8.169  0.1562  0.1038 -0.0521
    1W        W49266   5.096   7.177   9.219  0.3173  0.0702  0.0421
    1W        W49267  20.052   6.774   1.655  0.2638 -0.2389 -0.1560
    1W        W49268   7.866  25.233   7.969 -0.2556  0.2431  0.0045
    1W        W49269   4.606  14.442   8.177  0.0698 -0.0680 -0.0085
    1W        W49270  22.268  17.154   1.762 -0.1164  0.0849  0.0143
    1W        W49271  11.932   9.518   8.471  0.1470 -0.1299 -0.1600
    1W        W49272  16.798  19.648   7.379 -0.0212  0.0889 -0.0917
    1W        W49273   2.058   3.650   9.082  0.0228 -0.0620 -0.0847
    1W        W49274   7.761  25.911   1.688  0.0687 -0.0270 -0.2659
    1W        W49275  22.206  23.962   2.737 -0.3252  0.0004  0.0177
    1W        W49276  28.443   0.639   1.463 -0.0097 -0.0441  0.0719
    1W        W49277  21.200  21.480   9.925  0.0528 -0.1950  0.0689
    1W        W49278   0.856  28.316   1.619  0.0176  0.2600 -0.0772
    1W        W49279   6.493   7.587   0.740  0.0834  0.0694  0.4507
    1W        W49280   5.201  12.274   2.237 -0.2767  0.0174 -0.1589
    1W        W49281  21.269   0.303   1.892 -0.0914  0.1938 -0.1296
    1W        W49282   1.188  11.782   1.750  0.0343  0.0843 -0.0452
    1W        W49283  24.277  14.459   6.388  0.4846 -0.0384 -0.2828
    1W        W49284   0.014  17.387   8.411 -0.1770 -0.1006  0.1955
    1W        W49285  12.890   0.876   0.809 -0.0066  0.2054  0.0433
    1W        W49286  24.255  17.676   1.259 -0.1924 -0.0896  0.3977
    1W        W49287   9.826  15.577   2.228 -0.1521  0.4150 -0.0598
    1W        W49288  19.503  12.626   7.585 -0.1241 -0.2609  0.1418
    1W        W49289  13.482   0.489   9.713 -0.0958 -0.3651  0.0082
    1W        W49290   9.621   5.297   2.856 -0.5205  0.0050  0.2317
    1W        W49291  27.194  17.965   2.014 -0.3491 -0.0886  0.0307
    1W        W49292  19.964  17.877   2.216  0.1261 -0.1115  0.2620
    1W        W49293  15.444   3.854   0.176 -0.0629  0.3967  0.0761
    1W        W49294   8.122  23.314   1.587  0.0566  0.0027  0.2708
    1W        W49295  22.393  24.149   7.732 -0.0259  0.1648 -0.1099
    1W        W49296  20.388  23.830   6.695 -0.1364  0.0989 -0.0874
    1W        W49297   0.921  14.756   0.908 -0.2306 -0.0499 -0.1687
    1W        W49298  17.730   0.725   9.087  0.1245 -0.0458  0.2322
    1W        W49299  23.809  22.540   1.187  0.0075  0.1007  0.1750
    1W        W49300  17.484  16.845   2.228  0.1376 -0.0801  0.2438
    1W        W49301   1.901  19.557   5.906 -0.3745  0.1636  0.0200
    1W        W49302   5.843  25.059   6.458 -0.1913 -0.1527  0.0828
    1W        W49303  26.023  20.624   9.069  0.1766  0.0671 -0.1250
    1W        W49304  13.207   5.360   2.196  0.3817  0.2389  0.2038
    1W        W49305   3.981  12.871   7.255 -0.3440  0.1119  0.0500
    1W        W49306   7.448   5.714   0.648  0.1987 -0.0202  0.0730
    1W        W49307   1.413   5.657   8.116 -0.0031  0.3977 -0.1679
    1W        W49308  19.064   5.124   7.814  0.0960  0.0857 -0.0914
    1W        W49309  21.634   8.696   9.094 -0.0906  0.0741  0.2591
    1W        W49310   9.280  12.815   8.421  0.2769 -0.0566  0.1129
    1W        W49311  24.597  26.452   0.140  0.0079  0.0028  0.4156
    1W        W49312   5.124   4.615   0.161  0.0576  0.2631  0.1503
    1W        W49313  19.049  20.670   3.152  0.0382  0.0516  0.2607
    1W        W49314   6.921  14.650   8.854  0.0833 -0.1245  0.3827
    1W        W49315   8.622   1.819   2.219 -0.0143 -0.0438 -0.0671
    1W        W49316  15.508  27.915   7.451  0.0084  0.5262 -0.1574
    1W        W49317   5.049   7.905   7.158  0.0157 -0.1769 -0.0955
    1W        W49318  16.561  26.352   9.816 -0.0710 -0.2412  0.1021
    1W        W49319  16.188  21.835   0.672 -0.4986  0.2056  0.0353
    1W        W49320  16.983   1.181   0.073 -0.0311 -0.0288  0.0448
    1W        W49321  12.055  21.995   3.221 -0.2580  0.1244  0.1434
    1W        W49322  22.185  22.101   8.510 -0.0616 -0.1100  0.0915
    1W        W49323  27.360  12.309   0.951 -0.0274 -0.0631  0.0642
    1W        W49324   2.443  21.178   2.160 -0.1389  0.1520  0.1842
    1W        W49325  14.428  12.799   1.796 -0.1281 -0.1569 -0.1554
    1W        W49326  12.417  19.963   8.954  0.0329 -0.0444 -0.1925
    1W        W49327  12.895  19.375   0.797  0.0170 -0.0814 -0.0629
    1W        W49328  12.655   3.216   3.197  0.0553 -0.2940  0.0112
    1W        W49329  22.683  15.001   1.941 -0.0609  0.0968  0.0757
    1W        W49330  20.349   1.711   8.974 -0.1232  0.0731 -0.3110
    1W        W49331  21.451   0.481   8.292 -0.1707  0.1365  0.4562
    1W        W49332   1.646   7.832   2.405  0.0720  0.1613  0.0806
    1W        W49333  24.018  12.763   8.918 -0.0250  0.4409  0.1687
    1W        W49334   5.609   0.239   3.048  0.0696 -0.1586 -0.1903
    1W        W49335   8.265  13.881   8.703 -0.0297  0.0892  0.1178
    1W        W49336  23.596  11.118   7.681  0.2224 -0.0932 -0.2075
    1W        W49337  14.766  23.075   8.206  0.2300 -0.1902 -0.1452
    1W        W49338  21.744   7.290   1.435 -0.0941  0.0662  0.0660
    1W        W49339  20.974  23.608   0.959  0.2284  0.0808  0.1246
    1W        W49340   5.733  13.552   0.777  0.0862 -0.2184 -0.1334
    1W        W49341  18.912   8.534   0.796  0.0993 -0.3420 -0.0279
    1W        W49342   6.394   8.214   1.561  0.0659 -0.0195 -0.3173
    1W        W49343  21.967  18.935   9.899 -0.1981 -0.3217  0.2629
    1W        W49344  24.031  24.818   8.352 -0.2395 -0.0426 -0.0072
    1W        W49345  20.503   4.518   8.964 -0.0484 -0.0130 -0.0184
    1W        W49346   0.047   3.378   7.854  0.1631 -0.2033 -0.0404
    1W        W49347   9.862  12.554   2.231  0.0408 -0.1466 -0.2219
    1W        W49348   4.791  26.350   1.968 -0.0664 -0.0527 -0.1436
    1W        W49349  17.606  13.188   0.127  0.2447  0.0226 -0.1692
    1W        W49350   2.940  14.148   9.183 -0.0737 -0.3039  0.3220
    1W        W49351  12.555   4.769   3.169 -0.1639  0.2431 -0.2899
    1W        W49352  24.316  23.901   2.160 -0.1019  0.0935 -0.1690
    1W        W49353  11.695  27.846   8.179 -0.0567  0.2614 -0.4236
    1W        W49354  16.791  24.374   3.371 -0.0852 -0.4214 -0.0005
    1W        W49355  25.236  24.258   9.184  0.4801 -0.0361 -0.1684
    1W        W49356  22.937   8.351   7.663  0.0295  0.0762  0.4009
    1W        W49357  24.343  18.349   0.207 -0.2919 -0.0107  0.0596
    1W        W49358   2.016  27.773   8.879  0.2606 -0.1513 -0.2215
    1W        W49359  18.351  27.741   9.068  0.0060 -0.0434  0.1808
    1W        W49360  13.919  19.039   2.612 -0.1948 -0.1420  0.0743
    1W        W49361   1.889   5.644   6.609  0.0248 -0.0389  0.0053
    1W        W49362  15.160   1.215   4.130 -0.0353 -0.0956 -0.1957
    1W        W49363  11.663   9.890   7.326 -0.0473  0.1144  0.0228
    1W        W49364  19.552  27.826   2.860 -0.1638  0.0466  0.0315
    1W        W49365  18.015  10.892   0.169 -0.0678  0.0509 -0.3412
    1W        W49366  14.956   4.566   2.060 -0.0604  0.2784  0.1285
    1W        W49367  14.995  20.846   2.714 -0.1035  0.1166 -0.1129
    1W        W49368   1.802  19.987   2.337  0.0471 -0.1882 -0.0980
    1W        W49369   0.057   1.315   8.528 -0.0168 -0.2155  0.0951
    1W        W49370   6.134  26.392   0.795  0.0927 -0.2272 -0.1454
    1W        W49371  17.753  19.809   1.199  0.1262 -0.0488 -0.1865
    1W        W49372  24.451   7.752   0.579 -0.0302  0.0116 -0.2383
    1W        W49373   8.227  20.323   0.601  0.2348  0.0226  0.0719
    1W        W49374   4.653  10.123   2.209 -0.0300 -0.1419 -0.0867
    1W        W49375  13.123   0.983   3.554  0.0964 -0.0656  0.0692
    1W        W49376  19.032   1.669   9.242 -0.1881  0.1549  0.1316
    1W        W49377   5.764   2.831   1.635  0.1171 -0.0477 -0.0075
    1W        W49378  15.854  10.177   0.682  0.2979 -0.2036 -0.1460
    1W        W49379   2.787   2.290   8.377  0.0507  0.3108  0.0569
    1W        W49380  27.375  11.869   8.965  0.1838 -0.0595  0.1920
    1W        W49381   8.749  19.976   0.613 -0.1869 -0.0963 -0.0899
    1W        W49382  25.294   8.254   2.154 -0.0710  0.0551  0.0582
    1W        W49383  26.010   7.051   8.454  0.2127 -0.3371  0.0720
    1W        W49384   7.935  16.962   1.623 -0.0211  0.0751  0.1379
    1W        W49385  12.086  18.147   1.445  0.0332  0.2359  0.0446
    1W        W49386   5.075  22.516   1.638  0.0862 -0.1691 -0.1583
    1W        W49387  21.772   1.207   9.789  0.1979 -0.1631  0.0576
    1W        W49388   3.827  20.244   9.294 -0.0593 -0.2925  0.3850
    1W        W49389  21.940  15.688   0.706  0.3749 -0.0085 -0.1149
    1W        W49390  11.232  15.011   1.607 -0.0976 -0.0452 -0.0956
    1W        W49391  19.227  21.447   3.436  0.3158  0.1311  0.1538
    1W        W49392  27.798  16.833   1.567 -0.0898 -0.1430 -0.1665
    1W        W49393  20.469   2.206   8.875  0.0912  0.1475  0.0335
    1W        W49394   0.678  16.512   0.094 -0.1968  0.3213  0.4357
    1W        W49395   8.900  26.281   7.595 -0.1744  0.0957  0.0996
    1W        W49396   3.911  23.345   0.137 -0.3426  0.0624 -0.1727
    1W        W49397   5.619  27.450   9.553  0.0609  0.1433 -0.2617
    1W        W49398  25.265  24.761   1.149 -0.0886 -0.0468 -0.0600
    1W        W49399  10.423   4.322   9.008  0.0147  0.0626 -0.2657
    1W        W49400  26.992   1.647   3.780  0.3536 -0.1109 -0.0322
    1W        W49401  13.297   2.065   8.572 -0.1540 -0.1518  0.5015
    1W        W49402  22.098  26.249   2.645 -0.2230 -0.0909 -0.1139
    1W        W49403  14.250   9.445   0.364 -0.1548 -0.0407 -0.3217
    1W        W49404   7.890  21.364   6.445  0.1213 -0.0956  0.1463
    1W        W49405  15.399  15.206   1.616  0.2068  0.1701  0.1181
    1W        W49406   8.384  18.144   9.862  0.1241  0.0220 -0.1570
    1W        W49407  19.369  13.445   2.458 -0.0698  0.2861 -0.2555
    1W        W49408  20.354  22.129   7.294 -0.2576 -0.1741 -0.2645
    1W        W49409   1.771  17.356   7.060  0.2297  0.3753  0.2140
    1W        W49410  11.355  17.124   2.176 -0.0641 -0.2102 -0.1481
    1W        W49411  20.070   7.878   9.560 -0.0750  0.1956 -0.0666
    1W        W49412   1.026  13.857   6.090  0.0458 -0.0235  0.1022
    1W        W49413   8.729  24.094   1.070  0.3383  0.1447 -0.0125
    1W        W49414  12.198  20.892   7.148 -0.0237 -0.1531 -0.0812
    1W        W49415   5.779  25.284   7.825 -0.4635 -0.1026 -0.0323
    1W        W49416  13.926  21.698   2.074  0.0755  0.0409 -0.0669
    1W        W49417  22.656  15.340   8.673  0.0321 -0.0339  0.1048
    1W        W49418   0.235   7.245   0.340 -0.1616 -0.5948 -0.2335
    1W        W49419  20.414  16.446   1.100  0.0234  0.3580 -0.0300
    1W        W49420  15.779  13.194   9.915 -0.1984 -0.1857  0.0573
    1W        W49421  18.802   7.558   8.894 -0.0908  0.0411  0.0015
    1W        W49422   0.779   3.114   0.457 -0.2244 -0.0046 -0.2378
    1W        W49423   5.857   7.553   9.443 -0.1643 -0.1894 -0.2176
    1W        W49424   8.453  25.953   6.945  0.0062 -0.0639  0.2256
    1W        W49425  13.020  20.676   9.249  0.1864 -0.0422 -0.0720
    1W        W49426   1.984   5.012   9.288 -0.0908 -0.0688 -0.4096
    1W        W49427  28.175   6.097   6.688  0.2017  0.2499 -0.2292
    1W        W49428  27.419  10.621   1.720 -0.1323 -0.0154  0.2617
    1W        W49429   0.563  26.020   8.657 -0.0022 -0.1651  0.0537
    1W        W49430   4.801  19.065   7.339 -0.0136 -0.3109 -0.3179
    1W        W49431  27.095   1.402   8.125 -0.0967 -0.2054  0.3330
    1W        W49432  19.407  28.141   9.417 -0.2684 -0.0276  0.3470
    1W        W49433  21.344  20.038   8.747 -0.2087  0.2428 -0.2095
    1W        W49434   0.821  24.009   2.049  0.2037 -0.0883 -0.0132
    1W        W49435  13.033   2.160   0.723 -0.1205  0.1643  0.2519
    1W        W49436  11.371  19.760   1.870  0.0988 -0.2236 -0.1099
    1W        W49437   8.922   6.540   2.317 -0.0000  0.2486 -0.0174
    1W        W49438  19.809  13.058   1.854  0.0458  0.1503 -0.1873
    1W        W49439  12.064   0.910   8.589  0.0272 -0.1599  0.1043
    1W        W49440  14.681  16.161   0.503  0.0673  0.1880  0.2060
    1W        W49441  25.999  12.334   1.588  0.0486 -0.3830 -0.0574
    1W        W49442  15.594   3.811   1.134 -0.1085 -0.1866  0.2055
    1W        W49443  22.052  25.485   2.397 -0.2888 -0.3179 -0.2713
    1W        W49444  28.462  17.274   0.728 -0.0640  0.0287  0.2513
    1W        W49445   1.099  26.150   1.595  0.1614 -0.0618 -0.1167
    1W        W49446   8.377  13.431   2.657 -0.0092  0.1305  0.0532
    1W        W49447  24.328  23.864   7.763  0.0801 -0.0709 -0.0105
    1W        W49448  13.215  11.645   1.625 -0.1816  0.1815 -0.1231
    1W        W49449   2.236  23.032   7.065 -0.0259  0.1154  0.0263
    1W        W49450  19.694   7.657   2.009  0.1486 -0.0129 -0.2484
    1W        W49451  18.746  14.954   7.357  0.0463  0.1451 -0.0368
    1W        W49452  14.382  12.694   2.375 -0.3268 -0.1035  0.0681
    1W        W49453  27.439  22.517   0.600 -0.1765 -0.1477  0.0497
    1W        W49454   9.984  28.110   7.643 -0.0036 -0.2120 -0.0808
    1W        W49455  10.920   6.752   8.817 -0.0603  0.1954 -0.2199
    1W        W49456  18.173   8.197   0.896  0.2594  0.2578 -0.0612
    1W        W49457  24.067  11.613   7.908  0.0414  0.1727  0.1767
    1W        W49458  27.270  25.803   1.079 -0.2813 -0.1961  0.1692
    1W        W49459  26.203  18.959   1.860 -0.1651  0.1251  0.0576
    1W        W49460  11.185  15.714   2.269  0.4204  0.1711 -0.1059
    1W        W49461  24.472  13.179   1.216 -0.1118 -0.1506  0.2512
    1W        W49462   8.631   8.915   9.937 -0.1826  0.2077 -0.1452
    1W        W49463   6.109  11.129   9.855 -0.2962 -0.0357  0.1507
    1W        W49464  14.041   7.592   0.284  0.2062  0.2378 -0.3462
    1W        W49465   0.789  28.659   9.562  0.0883  0.0347 -0.0021
    1W        W49466   5.550  18.385   0.238  0.0159  0.0428  0.1699
    1W        W49467  15.773  10.152   0.160 -0.3453 -0.0331 -0.0494
    1W        W49468  17.759   9.635   0.023 -0.0944 -0.1530 -0.2050
    1W        W49469   5.919   8.679   3.774  0.2900  0.0430 -0.0599
    1W        W49470   0.106  23.335   2.078  0.0980  0.3939 -0.0273
    1W        W49471  20.640   6.580   7.165  0.1482  0.3978  0.0977
    1W        W49472  13.675   4.820   0.427  0.0397  0.0100 -0.0630
    1W        W49473  13.735  26.975   2.404 -0.1193  0.1887 -0.3514
    1W        W49474  13.869  13.860   2.308 -0.0517 -0.1254 -0.1963
    1W        W49475  17.462  18.170   1.753  0.2125 -0.0428 -0.1525
    1W        W49476  12.873   2.750   7.446  0.3573  0.1348 -0.2128
    1W        W49477   8.966  17.516   9.523  0.0603  0.0450 -0.1133
    1W        W49478  14.168  15.516   2.080  0.0304 -0.0846 -0.1861
    1W        W49479   7.603  11.737   0.174 -0.1143 -0.0903  0.1338
    1W        W49480  19.264   1.416   0.510 -0.1877 -0.2983  0.1005
    1W        W49481  10.788  11.709   1.216 -0.1611  0.0219  0.3683
    1W        W49482  14.851   0.906   8.356  0.1220 -0.0226 -0.2001
    1W        W49483  14.179  23.918   6.745 -0.0565 -0.2674  0.1087
    1W        W49484   8.471  14.633   1.739 -0.0042 -0.1265 -0.0554
    1W        W49485  17.198  24.636   3.102  0.1541 -0.1005 -0.1205
    1W        W49486   1.907  26.352   2.654 -0.0792 -0.1286  0.0410
    1W        W49487  18.750  27.835   8.015 -0.0492 -0.1487 -0.0674
    1W        W49488  16.771   4.819   2.883  0.0927 -0.1739  0.2188
    1W        W49489  15.724  14.428   2.133 -0.2229 -0.1540  0.2135
    1W        W49490   8.187   2.715   3.174  0.2033  0.2073  0.3523
    1W        W49491   4.814  16.389   1.441 -0.1738 -0.1304  0.5103
    1W        W49492  22.371  18.751   2.535  0.0565  0.1411 -0.0151
    1W        W49493  14.278  28.363   8.044  0.3201 -0.3626  0.2193
    1W        W49494   3.988  23.850   8.213  0.2008  0.1205  0.0005
    1W        W49495  11.294  27.796   8.604  0.3427  0.1065  0.2351
    1W        W49496   2.128  23.051   8.972 -0.2005 -0.0725 -0.0272
    1W        W49497  27.073  10.810   2.112  0.2526 -0.0924 -0.0124
    1W        W49498  27.349  27.970   9.129  0.0003 -0.3238  0.2098
    1W        W49499  17.108  21.819   2.132  0.1311 -0.1912 -0.2186
    1W        W49500   6.898  17.877   0.866 -0.1648  0.0835  0.0252
    1W        W49501  15.723  14.846   1.355 -0.0160  0.1613 -0.1549
    1W        W49502  18.238   2.840   2.980  0.0548  0.0557 -0.1393
    1W        W49503  23.776  16.137   8.272  0.0880 -0.0552  0.1116
    1W        W49504  14.552   8.694   0.117 -0.1477  0.0261 -0.1690
    1W        W49505  28.516   3.397   8.616 -0.1958  0.0804 -0.0579
    1W        W49506  27.441  23.038   6.371  0.1249 -0.3645 -0.1603
    1W        W49507   6.134   4.091   9.747  0.1375 -0.0541  0.1091
    1W        W49508  10.318  23.628   2.236 -0.2365 -0.0558  0.1974
    1W        W49509  11.604   0.346   0.383 -0.0164 -0.1828  0.0210
    1W        W49510   8.644   8.278   0.115 -0.2223  0.1553 -0.2674
    1W        W49511   9.812  26.949   6.336 -0.2168 -0.2869 -0.0958
    1W        W49512   2.245   3.253   8.609  0.1100 -0.0038 -0.1361
    1W        W49513   2.320  12.521   8.994  0.0539  0.3016 -0.1230
    1W        W49514  11.811  13.237   0.054 -0.0180 -0.2205 -0.1861
    1W        W49515  12.551  22.244   9.322  0.0126  0.3200 -0.0356
    1W        W49516  26.536   1.067   7.433  0.1047 -0.0577 -0.3773
    1W        W49517  17.391   3.088   4.401 -0.0207  0.4284  0.0408
    1W        W49518  16.262   7.735   1.873 -0.3028 -0.1646 -0.0963
    1W        W49519  16.599  22.401   7.203 -0.2452 -0.1222  0.2898
    1W        W49520  24.706  18.778   0.151  0.1435 -0.0803 -0.2182
    1W        W49521  15.544  26.346   7.239  0.1788  0.0344  0.0440
    1W        W49522  13.810  17.923   0.180  0.0949 -0.1574 -0.2769
    1W        W49523  18.896  26.154   7.241 -0.1509 -0.4331  0.0921
    1W        W49524  23.387   7.065   6.705 -0.3572  0.1676  0.1523
    1W        W49525   7.043  15.060   0.794  0.2307 -0.0484 -0.0254
    1W        W49526   2.621   0.098   1.802  0.4039  0.0986  0.0038
    1W        W49527  13.926  10.945   1.347  0.0013  0.2868 -0.0037
    1W        W49528   2.911  26.948   2.063 -0.0935 -0.1199 -0.2893
    1W        W49529  19.967  28.111   1.616 -0.0531 -0.1439 -0.2894
    1W        W49530   3.375  10.307   8.705  0.0388 -0.1550 -0.0418
    1W        W49531  23.666  28.472   7.432 -0.0261 -0.0604 -0.3710
    1W        W49532  20.716  28.507   6.194 -0.0577 -0.1083  0.2996
    1W        W49533  15.361   2.462   1.303  0.2284 -0.2096  0.3255
    1W        W49534  27.463  10.427   7.685  0.4729  0.2173  0.4085
    1W        W49535   0.041  14.579   9.326  0.3230  0.1790  0.0591
    1W        W49536  19.099   3.765   2.329  0.0252 -0.0639  0.1536
    1W        W49537   5.431   6.051   8.828  0.1803 -0.0149 -0.0121
    1W        W49538   6.411  26.610   0.072  0.3269 -0.1835 -0.0175
    1W        W49539   9.265  16.382   0.164  0.2738  0.0078 -0.2128
    1W        W49540   4.807   4.157   1.451 -0.2620  0.2560  0.0835
    1W        W49541  25.186  23.400   1.046 -0.0093  0.0569 -0.0026
    1W        W49542  27.959  15.894   7.448  0.1436  0.1940  0.2514
    1W        W49543   5.587  13.859   9.431 -0.0313 -0.0114  0.0549
    1W        W49544  26.741   2.440   1.828 -0.3145 -0.3062  0.0929
    1W        W49545  22.784  24.444   8.610  0.1844 -0.0952 -0.1688
    1W        W49546  24.601   1.684   9.584  0.3146  0.0550 -0.0108
    1W        W49547  20.859   3.276   9.605  0.0604  0.0277 -0.0873
    1W        W49548  14.614   3.274   8.461 -0.1799  0.1553  0.0254
    1W        W49549  10.110  23.911   8.715 -0.0569  0.0375  0.0211
    1W        W49550  25.008   6.110   0.196 -0.0103 -0.2779 -0.0893
    1W        W49551  11.253  24.556   0.083  0.4325  0.2612 -0.4213
    1W        W49552  22.195  21.187   7.918 -0.0470  0.2428 -0.0467
    1W        W49553  19.921   1.019   6.897 -0.1136 -0.2795  0.1583
    1W        W49554   9.989  16.058   7.849  0.0948  0.0645 -0.0871
    1W        W49555   7.633  15.680   0.233 -0.3230  0.1708 -0.1242
    1W        W49556   8.789   6.143   0.797  0.2860 -0.2086 -0.0590
    1W        W49557  14.303  16.967   9.114 -0.1148  0.0235  0.1982
    1W        W49558  26.529   7.912   6.852  0.1696 -0.1691 -0.1178
    1W        W49559   3.522  18.471   9.272 -0.1062  0.3891 -0.4321
    1W        W49560   3.004   2.536   9.280  0.3027  0.2201  0.5324
    1W        W49561  26.384  16.693   9.829 -0.0461  0.0163 -0.3880
    1W        W49562  23.082  16.713   2.194  0.0380 -0.0828  0.0649
    1W        W49563  13.194   7.269   3.827  0.0237 -0.0932  0.1272
    1W        W49564  21.214   8.130   0.599  0.3907  0.0649 -0.0792
    1W        W49565  24.024  28.348   1.795  0.0252  0.1610 -0.1037
    1W        W49566  20.689  28.470   3.281 -0.4930 -0.1124  0.0754
    1W        W49567  25.530  12.803   7.608  0.0354  0.2789 -0.0612
    1W        W49568  25.694  21.591   7.516  0.0916 -0.2309  0.2194
    1W        W49569   7.964  11.214   7.225 -0.0791 -0.1080 -0.0079
    1W        W49570   3.292  26.053   7.777  0.0889 -0.0021  0.0452
    1W        W49571   7.097   8.913   1.448  0.0367 -0.1902 -0.1395
    1W        W49572   5.195   5.771   7.541 -0.2479  0.0131 -0.1934
    1W        W49573  22.782  26.565   1.537  0.0453 -0.2436  0.1455
    1W        W49574  10.994  10.141   2.637 -0.2965 -0.1469 -0.3598
    1W        W49575  28.373  28.002   8.594 -0.0311  0.0204 -0.1070
    1W        W49576  25.388  24.540   2.546  0.2573 -0.0547 -0.1075
    1W        W49577  11.924  21.599   9.209  0.2735 -0.4525  0.2534
    1W        W49578  16.490  27.270   8.577 -0.2417  0.1902 -0.3000
    1W        W49579   5.936  28.462   0.502 -0.0242 -0.4311 -0.1097
    1W        W49580  22.823  25.502   7.884 -0.0945 -0.0233  0.0610
    1W        W49581  24.463  17.171   9.881 -0.0857 -0.1603 -0.2650
    1W        W49582   5.483  25.832   0.611  0.0422  0.0394  0.2812
    1W        W49583  17.540  17.245   0.402 -0.1650 -0.0472 -0.1659
    1W        W49584   5.793  25.974   7.113 -0.0257  0.0507 -0.1994
    1W        W49585   8.375  11.518   0.836  0.0013 -0.1050 -0.0939
    1W        W49586   1.588  25.376   1.300  0.3481 -0.2394  0.1376
    1W        W49587  16.952  21.637   0.005  0.3796  0.1916 -0.2880
    1W        W49588  17.618  22.232   7.149 -0.1781 -0.1821  0.2863
    1W        W49589   1.166   4.393   1.707 -0.0178 -0.0403  0.0778
    1W        W49590  23.887   5.271   2.504  0.0561  0.1579  0.0373
    1W        W49591  22.755   2.767   9.896  0.0702  0.2279 -0.3086
    1W        W49592   1.224  16.611   0.880  0.2507 -0.1505 -0.1424
    1W        W49593  10.883  20.788   1.189 -0.2210 -0.1726 -0.0136
    1W        W49594  22.701  23.863   0.505  0.1684  0.0270 -0.1365
    1W        W49595  22.543  17.503   1.502 -0.2665 -0.0683 -0.4614
    1W        W49596  12.249  21.216   9.283 -0.0419  0.1202  0.0524
    1W        W49597  12.068  17.532   2.043 -0.1462 -0.2552  0.2680
    1W        W49598  22.749  17.479   7.375  0.5528  0.1546  0.1339
    1W        W49599  10.782   0.028   0.902 -0.3123 -0.1172 -0.0533
    1W        W49600   7.304  17.741   9.234 -0.1840 -0.2611 -0.0397
    1W        W49601   1.609   3.839   7.107 -0.2925 -0.1837  0.2830
    1W        W49602  20.878  27.047   2.081 -0.1049  0.1222  0.1348
    1W        W49603  15.540   9.327   9.764  0.2225  0.0856 -0.2744
    1W        W49604   1.339  11.183   6.128  0.0119 -0.1119 -0.0792
    1W        W49605  27.200  22.945   0.809  0.0763  0.4121 -0.0650
    1W        W49606  27.647  26.637   2.800  0.0677  0.1820  0.1514
    1W        W49607  21.520   5.830   9.595 -0.0986 -0.1437  0.1014
    1W        W49608  13.829   6.045   9.624 -0.1849 -0.0462 -0.0082
    1W        W49609  15.247  11.515   7.719  0.1142  0.0697 -0.2913
    1W        W49610  19.033   5.717   9.081  0.0805  0.0635  0.3050
    1W        W49611   9.870  21.524   9.084  0.1850  0.0002 -0.0486
    1W        W49612  11.626   3.026   0.548 -0.1388 -0.4007  0.2854
    1W        W49613  25.325  27.172   8.120  0.1263 -0.3152  0.1005
    1W        W49614   0.165  11.015   0.886  0.0501 -0.4321 -0.1669
    1W        W49615  16.909  20.384   8.897  0.0306  0.4780 -0.0890
    1W        W49616  19.815  26.890   1.957  0.0046 -0.3472 -0.0355
    1W        W49617  13.445  26.702   1.484 -0.0660  0.2311  0.0646
    1W        W49618   7.402  18.175   8.845  0.2147 -0.0991  0.2552
    1W        W49619  18.557   7.150   0.516 -0.1198  0.4359  0.3136
    1W        W49620  20.496   8.257   9.794 -0.0255  0.1454  0.3457
    1W        W49621  15.478  20.673   7.517  0.1216 -0.0393  0.0677
    1W        W49622   0.574  25.052   1.538  0.0919 -0.2300 -0.0071
    1W        W49623   8.576  21.970   2.833  0.2916  0.1681 -0.1581
    1W        W49624   1.724  23.157   8.101 -0.1376  0.3153  0.2403
    1W        W49625  22.158   2.332   6.885 -0.0986  0.2389  0.1316
    1W        W49626  16.999   8.663   8.058  0.1528  0.3499  0.1450
    1W        W49627  13.443  23.431   3.726 -0.2692 -0.1474 -0.1814
    1W        W49628  23.081  13.791   6.955  0.2131 -0.0659 -0.0049
    1W        W49629   1.211   1.075   8.851  0.1503  0.0563 -0.0800
    1W        W49630   3.874  25.726   8.369  0.3222 -0.0412 -0.1983
    1W        W49631   0.859  21.033   1.182  0.1498 -0.0746 -0.4088
    1W        W49632  19.904   2.769   0.309 -0.3729 -0.1911  0.2654
    1W        W49633   3.305  19.808   5.830  0.0951 -0.0048  0.1692
    1W        W49634  22.484   3.967   6.536  0.0349 -0.0151 -0.1325
    1W        W49635  22.641  16.391   7.755 -0.0530 -0.1839 -0.0902
    1W        W49636   7.492  23.595   6.280  0.1248 -0.1496  0.0180
    1W        W49637  22.295   3.201   8.476  0.1298  0.1731 -0.0599
    1W        W49638  14.732  23.302   1.849  0.0327 -0.0415 -0.0015
    1W        W49639  18.145   4.565   8.547 -0.0763  0.0854  0.2860
    1W        W49640  23.471  26.059   2.228  0.2749 -0.1885 -0.1079
    1W        W49641  13.380  16.543   1.691 -0.0625  0.1341 -0.2441
    1W        W49642  23.955  15.066   1.563 -0.3553 -0.1334 -0.1809
    1W        W49643   0.424   7.446   1.084  0.1999  0.2127 -0.0850
    1W        W49644   3.373   2.139   8.793  0.1294 -0.0494  0.3272
    1W        W49645  25.436  27.338   2.975 -0.1422 -0.0755 -0.0673
    1W        W49646  16.660   9.912   1.907 -0.1154  0.1483 -0.0970
    1W        W49647   0.270   8.409   7.790  0.1674 -0.0397 -0.1238
    1W        W49648   8.224   9.058   8.332 -0.3367 -0.2404  0.0034
    1W        W49649  11.289  19.656   7.304 -0.1246 -0.1605 -0.1164
    1W        W49650   7.412  11.849   7.246  0.0133  0.0300  0.0715
    1W        W49651  13.553  13.238   2.797 -0.1729 -0.0426 -0.0037
    1W        W49652  21.024  11.255   9.512 -0.0650  0.1402  0.1140
    1W        W49653  25.101   3.807   1.093 -0.1009  0.0913  0.0710
    1W        W49654  15.403   6.131   1.748 -0.2300 -0.1794 -0.2387
    1W        W49655  27.873  14.560   6.616  0.0399 -0.0176 -0.2082
    1W        W49656  16.177   1.708   2.206  0.2834  0.1281  0.0927
    1W        W49657   0.775  21.616   1.157  0.3661 -0.0632 -0.1142
    1W        W49658  12.492  22.575   8.322 -0.0255  0.0098 -0.1522
    1W        W49659   5.329   4.433   8.007 -0.0720  0.0646  0.0499
    1W        W49660   9.460   0.990   0.222  0.2598 -0.2332 -0.3602
    1W        W49661   4.460  10.634   2.162  0.0401  0.0819  0.1286
    1W        W49662  23.222  14.156   0.419  0.0686 -0.1183 -0.1487
    1W        W49663  13.751   7.715   8.642 -0.2031 -0.1953 -0.0117
    1W        W49664  12.526  12.921   8.074  0.0898 -0.2136 -0.1029
    1W        W49665  27.006  18.646   9.021  0.0804  0.0058 -0.0934
    1W        W49666   8.088   0.353   8.416 -0.2704  0.0299  0.0751
    1W        W49667   8.797  20.918   7.198  0.0429  0.3952  0.1585
    1W        W49668  28.020   7.844   2.290  0.3665 -0.1748  0.3515
    1W        W49669   5.658   7.458   7.522 -0.2264  0.1982 -0.0720
    1W        W49670  21.149  26.562   2.178 -0.2208  0.2222 -0.0147
    1W        W49671  15.839  26.088   2.784  0.2563 -0.4909  0.4962
    1W        W49672   4.534  24.171   8.345 -0.2080 -0.1448 -0.1329
    1W        W49673  11.528   7.086   8.077 -0.0450  0.1838  0.2702
    1W        W49674   3.879  24.562   6.543 -0.0930  0.1286  0.3018
    1W        W49675  11.933  18.185   8.451 -0.1136  0.1675 -0.0624
    1W        W49676  16.399  12.235   1.289  0.0038 -0.0392  0.2594
    1W        W49677  24.683  24.937   7.751 -0.0239 -0.2590 -0.2922
    1W        W49678   5.416  16.702   1.976  0.0617  0.1125 -0.1551
    1W        W49679   4.407   6.733   1.836  0.0179  0.0156  0.2069
    1W        W49680  27.920   6.199   1.616 -0.0059 -0.3238  0.1164
    1W        W49681   6.272  25.152   8.521  0.1452 -0.0033  0.3304
    1W        W49682  14.257  19.092   2.079 -0.0758  0.2217  0.0938
    1W        W49683   5.731   9.769   0.223 -0.0527 -0.3112  0.0966
    1W        W49684   3.103  16.303   9.146  0.2103  0.2131  0.0098
    1W        W49685  27.052   4.026   6.946 -0.1140  0.0491 -0.0743
    1W        W49686  25.996   1.919   1.832  0.0569  0.2489  0.0464
    1W        W49687   2.210  27.375   6.854 -0.1458 -0.0561 -0.1482
    1W        W49688   3.011  16.051   9.649  0.1010  0.2521  0.0429
    1W        W49689   2.462  22.603   9.541  0.2845  0.3287  0.0112
    1W        W49690  19.811   5.086   9.376  0.2485 -0.1674  0.2408
    1W        W49691   3.796   5.297   2.515  0.1498  0.0500 -0.0299
    1W        W49692   2.999  13.155   7.191 -0.1056  0.0679 -0.3099
    1W        W49693  18.072  19.240   0.918  0.0434  0.3131  0.1142
    1W        W49694   9.359  19.749   9.799 -0.1960  0.1338 -0.2569
    1W        W49695  22.688  11.317   7.305  0.1858  0.1684 -0.1472
    1W        W49696  27.658  23.027   2.356  0.0051 -0.1524  0.0689
    1W        W49697  17.205  13.081   8.686 -0.0078 -0.2418  0.0182
    1W        W49698  16.514  15.451   0.179 -0.0702 -0.2375 -0.5452
    1W        W49699  26.811  10.680   6.019 -0.0636  0.1926  0.0720
    1W        W49700   4.305   6.471   0.480  0.0188 -0.1970  0.1468
    1W        W49701   2.112  22.663   9.893  0.1507 -0.0186  0.0278
    1W        W49702  25.129  14.948   8.723 -0.0453 -0.3151  0.3071
    1W        W49703  15.602   9.352   7.969 -0.0921 -0.0499  0.1888
    1W        W49704  16.380   3.606   9.308 -0.1116  0.0095 -0.1901
    1W        W49705   3.747   9.977   8.785  0.0184  0.0874  0.0009
    1W        W49706   1.154  11.448   8.347 -0.1424 -0.0089 -0.1528
    1W        W49707  23.472  16.297   6.645 -0.0018 -0.0506  0.0918
    1W        W49708  21.346  12.929   9.449  0.2283 -0.0259 -0.0026
    1W        W49709  15.191  13.507   8.549  0.0297  0.2116 -0.1451
    1W        W49710   0.899  22.840   0.592  0.1825  0.3576 -0.1396
    1W        W49711  21.033  16.777   7.018  0.0237 -0.1482 -0.1668
    1W        W49712  24.424  12.274   0.813 -0.1056  0.3828  0.0295
    1W        W49713  13.797  19.385   9.098 -0.1260  0.3381  0.0145
    1W        W49714  27.522   1.055   1.506  0.0513  0.0941 -0.2427
    1W        W49715  17.147  27.925   8.580 -0.1078 -0.0940 -0.1093
    1W        W49716   2.185  26.811   1.404  0.1335  0.1601 -0.2903
    1W        W49717  14.102   1.734   2.453 -0.0586  0.1931  0.2812
    1W        W49718  27.683  10.679   8.420 -0.1902  0.1934 -0.1440
    1W        W49719   2.427  20.441   0.552 -0.0318 -0.1072 -0.1797
    1W        W49720  14.584   0.673   9.101  0.1419  0.0898 -0.0960
    1W        W49721  26.630  15.661   6.753 -0.1606  0.0472 -0.1833
    1W        W49722   1.288  21.889   9.896  0.0158 -0.0051 -0.1264
    1W        W49723   8.823  12.699   8.608  0.1124  0.0467 -0.2352
    1W        W49724  27.349   4.807   5.989  0.0240  0.1958  0.2809
    1W        W49725  20.034  11.120   9.343  0.1121 -0.0976 -0.0331
    1W        W49726   2.571  19.233   8.172 -0.0677  0.0692 -0.0841
    1W        W49727  18.265   5.291   8.954  0.0973  0.0226  0.1142
    1W        W49728  21.763  13.719   9.540  0.3376  0.0664 -0.0834
    1W        W49729  19.284  20.247   1.533 -0.1566 -0.1558 -0.1287
    1W        W49730  16.833  10.934   0.355  0.1009  0.2523  0.0905
    1W        W49731  26.078  11.308   5.595 -0.0404  0.3238 -0.0228
    1W        W49732  15.942   8.848   7.947  0.0108 -0.0623 -0.2725
    1W        W49733  26.634   8.110   6.391  0.2473  0.0136  0.2159
    1W        W49734   0.097   7.153   2.280  0.1738  0.0382  0.0833
    1W        W49735   4.386  20.786   6.415  0.2581  0.1458  0.0504
    1W        W49736   6.809  27.532   2.187  0.1133  0.0083  0.1473
    1W        W49737  23.283   7.526   6.113  0.0077  0.3394 -0.0529
    1W        W49738  14.788  20.044   2.331  0.1552 -0.1488 -0.0399
    1W        W49739   0.257  20.227   1.368  0.1427  0.1148 -0.0317
    1W        W49740   5.376  12.746   0.555  0.0618  0.1052 -0.2464
    1W        W49741  28.075  23.947   8.328 -0.1298  0.3726  0.0305
    1W        W49742  11.685  19.030   8.904  0.1393 -0.2851 -0.0954
    1W        W49743   2.881  10.131   7.442 -0.1383 -0.1633  0.0671
    1W        W49744   4.180  16.501   6.554  0.1899  0.0896 -0.1651
    1W        W49745   7.580  13.212   9.649 -0.0551  0.0332 -0.0758
    1W        W49746   5.182   0.241   9.952 -0.3370 -0.1230  0.1624
    1W        W49747  25.330   0.067   8.196  0.0074  0.0273  0.1431
    1W        W49748  10.346  12.080   8.004 -0.2499 -0.0718  0.0139
    1W        W49749   5.616  21.386   0.234  0.0129  0.0175  0.0144
    1W        W49750  13.926  23.924   9.414  0.0689  0.0929 -0.0342
    1W        W49751  16.736  24.795   1.972 -0.0561 -0.1135  0.0816
    1W        W49752   7.976  18.928   1.449 -0.2101 -0.0901  0.0251
    1W        W49753  11.420   3.517   0.755 -0.0572  0.4609  0.0993
    1W        W49754   5.079   0.816   7.193 -0.1205 -0.0326 -0.3504
    1W        W49755   3.475  23.405   1.766 -0.0320 -0.0309  0.0481
    1W        W49756  20.984  27.020   5.994  0.2400 -0.1288 -0.0420
    1W        W49757  14.022  18.504   2.680 -0.0584  0.1203 -0.2379
    1W        W49758   0.920  19.699   7.414  0.2444 -0.0201  0.0044
    1W        W49759   9.288   5.055   8.988 -0.0634  0.0705 -0.2061
    1W        W49760  20.460   9.307   8.646  0.1424  0.0868 -0.1679
    1W        W49761  28.700  21.191   1.238 -0.1283  0.0315 -0.0575
    1W        W49762  12.540  12.967   9.244 -0.0765  0.0432  0.0067
    1W        W49763   5.389  11.702   2.955  0.1096  0.1962  0.1077
    1W        W49764  23.975   9.387   1.007  0.1736 -0.1683 -0.1731
    1W        W49765  23.826  26.158   9.791  0.0572 -0.1993 -0.1608
    1W        W49766  12.263   1.482   2.526  0.2897  0.2693 -0.0541
    1W        W49767   2.321   1.754   1.631  0.0437  0.0224  0.2018
    1W        W49768  10.002  17.046   0.393  0.1447  0.1931 -0.1146
    1W        W49769   6.605   1.114   2.611 -0.2862  0.0015  0.2829
    1W        W49770  13.322  19.794   2.624 -0.1693 -0.0187 -0.0632
    1W        W49771  18.095   6.695   1.892 -0.0863 -0.1211  0.3718
    1W        W49772  12.144  18.225   0.919  0.0128  0.0123  0.3392
    1W        W49773  23.058  27.019   6.778  0.1328 -0.2626  0.0688
    1W        W49774  21.004   4.118   0.763 -0.1886 -0.1351 -0.0983
    1W        W49775  24.037  19.200   6.827 -0.0277  0.0404  0.1358
    1W        W49776  25.882   8.481   1.091 -0.0658  0.3396  0.1903
    1W        W49777  15.673   5.148   3.534  0.1189 -0.2135 -0.0785
    1W        W49778   8.959  21.368   1.354  0.0780  0.0427  0.1540
    1W        W49779   3.497  16.439   1.506 -0.1498 -0.0940 -0.1943
    1W        W49780  11.600  23.896   9.410  0.0968  0.1574  0.0898
    1W        W49781  13.176  24.874   2.347 -0.1013 -0.4141  0.3927
    1W        W49782   1.435   0.688   9.076  0.2639  0.1963 -0.2267
    1W        W49783  10.764   8.383   2.065  0.1714 -0.2020 -0.3645
    1W        W49784  16.420  12.884   9.557 -0.0903  0.0353 -0.0120
    1W        W49785   5.683   8.617   0.874  0.1152  0.3258 -0.2430
    1W        W49786   5.932  16.339   9.760 -0.1962  0.0032 -0.1269
    1W        W49787  19.836   7.335   3.501  0.1330  0.0574 -0.1850
    1W        W49788  19.603   3.228   9.456 -0.0327  0.3870  0.1619
    1W        W49789  12.748  16.524   9.791 -0.1893 -0.0977 -0.1983
    1W        W49790  23.992   9.256   2.681 -0.0499  0.2594  0.0016
    1W        W49791  15.962  27.340   1.923  0.0767 -0.0771 -0.1003
    1W        W49792  20.346  24.770   1.983  0.2276  0.0074  0.0109
    1W        W49793  23.567  20.045   8.102  0.3454  0.1977  0.1264
    1W        W49794   6.108   0.269   7.813  0.1693  0.2811 -0.1264
    1W        W49795  15.427   6.205   9.253  0.0517 -0.2107  0.0586
    1W        W49796  25.503  24.636   8.794 -0.0073  0.1053  0.0064
    1W        W49797  16.682  26.687   9.337  0.0381 -0.1371  0.1595
    1W        W49798   0.494   7.885   9.167  0.2145 -0.1375  0.4531
    1W        W49799  16.943   1.945   2.898  0.1282 -0.1424  0.1192
    1W        W49800   0.889  13.878   0.798 -0.1417 -0.2389 -0.0645
    1W        W49801   8.869  15.531   1.791  0.1756 -0.3964 -0.0016
    1W        W49802  26.711  22.345   1.652  0.0749  0.0697 -0.1145
    1W        W49803  25.116  22.115   2.939 -0.0678  0.1819  0.3376
    1W        W49804  13.215   7.343   0.164 -0.2445  0.0599 -0.2279
    1W        W49805  17.695  15.835   8.269  0.0693  0.0360  0.1816
    1W        W49806   0.262   7.503   9.484  0.2360  0.1411 -0.0779
    1W        W49807   5.833  10.960   2.604  0.1061 -0.3171 -0.1746
    1W        W49808  27.349   8.750   7.707 -0.4164  0.0492 -0.1518
    1W        W49809   2.071   5.316   7.383  0.0938 -0.1860 -0.1811
    1W        W49810  23.616  10.344   8.642 -0.2536 -0.2971 -0.1836
    1W        W49811  14.845  11.546   9.014  0.0881  0.2479  0.2213
    1W        W49812  12.066   7.764   1.675 -0.1114  0.0215  0.0291
    1W        W49813  18.508   4.231   2.808  0.0549  0.0245  0.1622
    1W        W49814   0.215   2.558   1.265 -0.0566  0.3796  0.3426
    1W        W49815   7.473  19.050   8.888 -0.2565 -0.1049 -0.0567
    1W        W49816  27.428  17.482   0.485 -0.2761 -0.1545 -0.0340
    1W        W49817  17.824  18.973   1.242  0.2249  0.1138  0.0076
    1W        W49818  28.052   4.671   7.097  0.0056  0.3268 -0.0480
    1W        W49819   1.454   6.387   2.567 -0.2781  0.0720 -0.0704
    1W        W49820  19.023   1.406   2.712 -0.0231  0.2349  0.1240
    1W        W49821  10.739  18.239   1.460 -0.3583 -0.1944  0.5608
    1W        W49822  10.767   3.054   1.139 -0.0063 -0.2603 -0.0173
    1W        W49823  24.769  28.173   9.162  0.1035 -0.1772  0.1542
    1W        W49824  14.160  24.600   7.371  0.0434  0.1054 -0.1453
    1W        W49825   1.155   6.276   9.415 -0.1748 -0.0638  0.1918
    1W        W49826   4.001  27.780   8.931  0.1646 -0.0307  0.3608
    1W        W49827   4.524  25.462   2.718  0.0801  0.0511  0.0579
    1W        W49828  18.563   6.329   2.615 -0.0462 -0.0717 -0.0165
    1W        W49829  25.310  10.785   0.317  0.0257  0.0206  0.2779
    1W        W49830  14.424  18.939   9.434 -0.2507 -0.0335  0.1805
    1W        W49831  16.871   1.610   9.766 -0.2232  0.1614 -0.0119
    1W        W49832  22.251  27.527   1.069 -0.0376  0.3338  0.1002
    1W        W49833  24.897   8.295   7.575 -0.0667  0.1121  0.0922
    1W        W49834  19.916   7.545   9.886  0.0735  0.0271  0.0706
    1W        W49835   5.090  20.907   6.450 -0.0508  0.1508  0.3131
    1W        W49836   1.658   7.321   0.658  0.0130 -0.1306 -0.2641
    1W        W49837   5.845  10.262   8.852  0.2239 -0.1752  0.0014
    1W        W49838  25.698  13.278   1.987  0.1435 -0.3033  0.4314
    1W        W49839  21.839  28.013   6.818 -0.1647 -0.1678 -0.2586
    1W        W49840  23.275   9.539   1.150 -0.0844 -0.1098  0.0702
    1W        W49841  23.870  24.677   9.282  0.2510 -0.3105 -0.1340
    1W        W49842  20.246  20.078   9.310 -0.5579 -0.1011 -0.2812
    1W        W49843  10.697   1.562   7.747  0.1014  0.2495  0.1041
    1W        W49844  15.203   5.436   3.643  0.3416  0.0036  0.0849
    1W        W49845  10.918  20.303   0.969  0.0379  0.0745  0.0470
    1W        W49846  18.436   7.670   8.099  0.1930 -0.0494  0.1136
    1W        W49847  20.241   4.117   9.300  0.0067 -0.4157 -0.0633
    1W        W49848  12.540  11.496   1.014  0.1359  0.1150  0.1448
    1W        W49849   6.727  16.645   1.715 -0.1497  0.0821  0.1089
    1W        W49850   9.611  18.156   1.383 -0.1685  0.1692 -0.2263
    1W        W49851  23.907   1.400   7.573  0.1029  0.3341  0.3064
    1W        W49852   3.940  15.103   3.224  0.0133  0.1970  0.2398
    1W        W49853  12.611  10.336   0.396  0.2476 -0.2091 -0.0920
    1W        W49854  18.354   8.640   0.885 -0.0182  0.1369 -0.0500
    1W        W49855  23.251   9.547   2.057 -0.1433 -0.1571 -0.2711
    1W        W49856   2.291   5.184   1.177  0.0652 -0.2054  0.1406
    1W        W49857  23.562   2.599   9.443  0.2161 -0.0484  0.0815
    1W        W49858   2.605   6.405   6.802 -0.2389  0.2402 -0.1353
    1W        W49859   0.040  22.764   2.277 -0.0293 -0.1775  0.1006
    1W        W49860  20.477  10.645   2.271  0.0681 -0.1291 -0.2567
    1W        W49861  12.509  15.022   1.824 -0.0318 -0.1335 -0.0379
    1W        W49862  18.615  21.140   2.424  0.2796 -0.0106 -0.3147
    1W        W49863  18.452   4.051   1.658 -0.0657  0.0242 -0.1159
    1W        W49864  12.863  11.080   7.888  0.0295 -0.2474  0.0769
    1W        W49865  10.744  12.175   7.090  0.1365  0.2815 -0.2655
    1W        W49866   0.302   2.699   2.629  0.0274  0.2328  0.3101
    1W        W49867  10.872  18.809   7.810 -0.1844  0.2299  0.1698
    1W        W49868   8.007  13.342   9.436  0.1874  0.4038 -0.2175
    1W        W49869   1.153  11.191   9.748 -0.0887  0.3594 -0.2190
    1W        W49870   8.677  12.811   9.935 -0.0717 -0.2609  0.0833
    1W        W49871  23.613  21.817   0.741 -0.0077  0.0892  0.1040
    1W        W49872   2.652  25.693   9.374  0.2120  0.0025 -0.1247
    1W        W49873  13.139   8.400   1.819  0.0761  0.3209 -0.0348
    1W        W49874  18.280  18.881   8.757 -0.2584  0.1317 -0.2494
    1W        W49875  21.801  24.626   8.868  0.1916  0.0078 -0.0109
    1W        W49876   2.315  18.851   1.459 -0.3501 -0.2821  0.0333
    1W        W49877  12.138  26.113   2.589  0.0794  0.0335 -0.0187
    1W        W49878   8.396  22.044   7.416  0.0617  0.0544  0.2664
    1W        W49879   7.846   9.843   6.797  0.1129  0.1919 -0.3254
    1W        W49880  20.758   1.895   6.830  0.1793 -0.2247  0.0034
    1W        W49881  10.713  23.399   1.476  0.0333  0.2195  0.1242
    1W        W49882  28.715  25.854   8.731  0.0752 -0.1398  0.2163
    1W        W49883   1.658  22.143   6.272 -0.0418 -0.1684  0.2430
    1W        W49884   8.950   4.774   6.832 -0.4163  0.1271  0.4078
    1W        W49885   7.009  16.950   6.913 -0.2419 -0.0932 -0.0065
    1W        W49886  15.896  27.791   9.005  0.3656 -0.0209  0.1911
    1W        W49887  23.228   2.033   7.765 -0.5333  0.1565  0.1691
    1W        W49888  17.551  22.756   8.349 -0.1241 -0.0181 -0.0421
    1W        W49889   4.258  19.743   0.027 -0.0265  0.0914  0.0953
    1W        W49890  19.733  12.285   8.299  0.0170 -0.1191  0.4136
    1W        W49891  18.856  22.832   1.839 -0.1784 -0.0242  0.1886
    1W        W49892  26.529   0.744   6.129  0.0467  0.0967 -0.0441
    1W        W49893   5.234  21.308   9.878 -0.1017  0.2166  0.2574
    1W        W49894  11.110  28.289   0.294  0.1898 -0.2527  0.1577
    1W        W49895   7.660  18.167   9.312  0.2781 -0.1545 -0.1352
    1W        W49896   2.531  27.729   8.821 -0.1233  0.0409  0.1368
    1W        W49897  12.425   5.326   7.874 -0.1243  0.0109  0.1461
    1W        W49898  11.981  24.053   8.883 -0.0930  0.0055  0.2277
    1W        W49899  17.227   3.349   4.013  0.1018  0.2909  0.3320
    1W        W49900  26.065  26.292   7.802  0.2140 -0.1670  0.1212
    1W        W49901  19.537   6.752   1.783  0.2478 -0.0892  0.1528
    1W        W49902  19.291  25.317   8.518  0.3858 -0.1091  0.2326
    1W        W49903   4.114  28.535   7.338  0.3519 -0.1404 -0.0055
    1W        W49904   3.564  15.525   7.359  0.1347 -0.0637  0.1310
    1W        W49905  26.131   7.809   1.654  0.0803  0.2962 -0.2089
    1W        W49906  25.758  23.971   7.940  0.1216  0.0385 -0.0712
    1W        W49907   6.237  19.092   1.025 -0.1829  0.0950 -0.0653
    1W        W49908  24.996   4.178   1.447  0.0516  0.1234 -0.0064
    1W        W49909  12.484  26.491   2.563 -0.2470 -0.0749 -0.3403
    1W        W49910  18.902   9.941   8.636 -0.1758 -0.1375 -0.0463
    1W        W49911   5.041  21.034   0.827 -0.1772  0.1967 -0.1543
    1W        W49912  26.100  10.152   5.887  0.1759 -0.0289  0.2235
    1W        W49913  27.478  18.965   2.919  0.0419  0.2452  0.0591
    1W        W49914   9.237  22.483   9.044 -0.2832 -0.1120  0.0471
    1W        W49915   1.418  13.235   2.299 -0.0119 -0.2531  0.1471
    1W        W49916   1.957   0.879   2.018  0.1286 -0.0323 -0.2273
    1W        W49917  13.695  28.494   0.965 -0.0488  0.2434 -0.1211
    1W        W49918  22.181  20.450   9.379 -0.0129 -0.3392  0.0295
    1W        W49919  14.152  26.385   0.322 -0.4220  0.0889 -0.1587
    1W        W49920   1.215  28.627   1.680 -0.0234 -0.1080  0.0944
    1W        W49921   8.997  21.941   8.190 -0.1379 -0.1774  0.0102
    1W        W49922  16.905   0.873   8.594 -0.0292 -0.1457  0.2018
    1W        W49923   1.585   7.596   7.356  0.0033 -0.3205 -0.1326
    1W        W49924  20.655   9.042   7.706  0.0231 -0.0703  0.2520
    1W        W49925  24.905  27.112   7.294 -0.3317 -0.2434  0.0846
    1W        W49926  16.377  24.660   1.092 -0.1150  0.3344 -0.0733
    1W        W49927  18.568  23.349   8.419 -0.4977  0.2267 -0.3587
    1W        W49928   3.449   8.420   0.484  0.1626  0.2247 -0.1069
    1W        W49929  22.733   6.553   1.671 -0.1156  0.0265  0.2327
    1W        W49930  21.413   3.040   6.788 -0.2080 -0.3431  0.0420
    1W        W49931  20.863  24.577   0.617 -0.0105 -0.0887  0.3241
    1W        W49932   6.593  13.391   8.939  0.1388  0.3357  0.1384
    1W        W49933   9.135   5.565   2.200 -0.2463  0.0372  0.2052
    1W        W49934  15.284  27.142   2.781 -0.1214  0.1269 -0.0707
    1W        W49935  27.193  14.584   1.265 -0.1467 -0.1766  0.1318
    1W        W49936  12.417   6.438   8.978  0.0823 -0.1419  0.2627
    1W        W49937   8.288  16.884   2.013 -0.1858  0.2587 -0.2700
    1W        W49938  19.027   1.910   2.586 -0.1803 -0.6082  0.2187
    1W        W49939  10.046  27.076   7.888  0.1981  0.0697 -0.0445
    1W        W49940   2.546  17.352   8.747  0.2984 -0.0414  0.0147
    1W        W49941  18.855   8.963   7.688  0.0498  0.1672 -0.0620
    1W        W49942   4.225  20.618   1.092 -0.0175  0.1735  0.2966
    1W        W49943   6.879   1.462   8.355  0.2470 -0.0391 -0.3636
    1W        W49944  24.849   4.641   7.511  0.0204  0.0249 -0.0938
    1W        W49945  22.678   2.543   0.667 -0.0110  0.3061  0.2039
    1W        W49946  21.172   8.721   8.942 -0.1668 -0.4672 -0.0334
    1W        W49947   4.310   6.067   1.817 -0.2093  0.1270 -0.0684
    1W        W49948  16.843  18.306   7.528  0.1069 -0.0333  0.0042
    1W        W49949  26.731  25.593   2.339 -0.0021 -0.3121 -0.1191
    1W        W49950  27.976   2.183   8.765 -0.1143 -0.1624  0.1441
    1W        W49951   6.353   5.211   2.595 -0.1055 -0.0440  0.6052
    1W        W49952  28.510   9.373   9.088 -0.2082  0.2165 -0.4419
    1W        W49953  22.321   1.501   1.158  0.1654  0.0530 -0.0492
    1W        W49954  10.231  23.204   0.095  0.1040 -0.0504 -0.0764
    1W        W49955  11.986   2.194   2.094 -0.0868 -0.0707 -0.3306
    1W        W49956  24.045  19.827   0.111  0.1180 -0.1584  0.0202
    1W        W49957   5.795   0.835   2.113  0.2863 -0.1681 -0.1546
    1W        W49958   7.432  11.728   8.014  0.0013  0.1233  0.2464
    1W        W49959  10.080  16.176   1.494  0.0930  0.0885  0.3669
    1W        W49960  23.523  18.398   8.856 -0.1089 -0.0829 -0.0097
    1W        W49961  11.260   3.758   3.089  0.0320  0.1266 -0.0079
    1W        W49962   3.724  28.305   0.038 -0.2206 -0.2216 -0.2225
    1W        W49963   3.673  25.831   2.560 -0.1036  0.3093 -0.2041
    1W        W49964  20.708  10.363   1.501 -0.1861  0.0936  0.2495
    1W        W49965  27.694  18.843   9.740  0.0075 -0.0669  0.2242
    1W        W49966   6.327   4.321   8.550 -0.2586 -0.0193 -0.0213
    1W        W49967  18.926  16.551   1.875 -0.2003 -0.2147 -0.2407
    1W        W49968   9.174   4.439   8.536 -0.1846  0.1074  0.1828
    1W        W49969  19.975   2.645   7.362  0.2579  0.1906 -0.0202
    1W        W49970  22.908  16.701   0.117 -0.0283 -0.0066  0.1302
    1W        W49971  11.809  25.110   1.372  0.1172 -0.0581 -0.1933
    1W        W49972  11.780  22.183   9.901 -0.0708  0.0417 -0.0296
    1W        W49973  24.779   9.857   0.542  0.3114  0.0768  0.0478
    1W        W49974   1.531  15.602   6.812 -0.1580 -0.1878 -0.3846
    1W        W49975  17.445  16.219   2.818  0.0809 -0.3584 -0.0834
    1W        W49976  16.090  26.911   9.539 -0.1097 -0.2417 -0.1346
    1W        W49977   5.214  26.625   2.014  0.2090 -0.0402  0.1706
    1W        W49978   9.309  14.780   7.457  0.0950  0.0984 -0.2989
    1W        W49979  16.136   3.849   1.255  0.1750 -0.0618 -0.0439
    1W        W49980  23.217  21.506   0.561  0.1842  0.1554  0.0637
    1W        W49981  26.422   7.027   9.726 -0.0526  0.0090  0.1731
    1W        W49982  21.464  18.696   9.815  0.2311  0.1273 -0.1183
    1W        W49983   8.918   7.183   0.998  0.1051  0.1693 -0.0033
    1W        W49984  22.483   9.475   7.226 -0.0362  0.0041  0.2538
    1W        W49985  26.248  12.025   1.908 -0.2406  0.1476  0.0815
    1W        W49986  10.639   3.943   3.188 -0.3071  0.0606 -0.0147
    1W        W49987  20.770  15.985   7.084 -0.2689  0.0298 -0.3889
    1W        W49988  20.752  21.308   2.198  0.1936  0.3076 -0.0267
    1W        W49989  25.158   6.917   6.134  0.0036 -0.0165 -0.2444
    1W        W49990  18.840   6.805   7.551  0.0561 -0.0150 -0.1700
    1W        W49991   2.493   0.287   7.551  0.1766 -0.2130 -0.3280
    1W        W49992  14.314   8.797   9.675  0.0976 -0.4447  0.2090
    1W        W49993   2.621   2.097   2.185  0.1355 -0.0049  0.1741
    1W        W49994  16.382   4.176   8.808  0.0286 -0.2193  0.1898
    1W        W49995   9.964   7.875   2.585  0.0455  0.0104  0.1715
    1W        W49996  18.086  23.359   0.965  0.1098 -0.2916  0.0974
    1W        W49997  11.308   1.800   2.766  0.0705  0.0701 -0.0560
    1W        W49998   2.492   5.500   6.067  0.2555 -0.0082 -0.0918
    1W        W49999  15.930   8.343   2.700  0.1269  0.1338 -0.0231
    1W        W50000  15.417  24.734   2.279  0.2211 -0.1968 -0.2978
    1W        W50001  22.313  10.681   7.806 -0.1316 -0.1443 -0.0680
    1W        W50002  18.284  21.402   3.117 -0.0002 -0.2599  0.2587
    1W        W50003   9.325  12.692   1.632  0.2871  0.0261 -0.1446
    1W        W50004   2.181  23.619   0.756 -0.1546 -0.1456 -0.3181
    1W        W50005  23.745  26.380   0.615  0.2584 -0.0997  0.2664
    1W        W50006   2.460   4.049   2.726  0.2189 -0.1037  0.1095
    1W        W50007   0.336  19.345   1.894  0.1273 -0.0692 -0.1162
    1W        W50008  21.560  10.379   9.550 -0.1536  0.0460 -0.0644
    1W        W50009   5.764  10.292   8.040  0.0385 -0.2600  0.1389
    1W        W50010   2.038   8.886   3.051  0.1025  0.3981 -0.2562
    1W        W50011  22.873   1.292   6.107  0.0368 -0.1859 -0.1414
    1W        W50012   2.092  21.159   1.796 -0.0733 -0.0594 -0.0301
    1W        W50013  14.729   6.484   0.490 -0.4999 -0.0328 -0.0925
    1W        W50014  20.404  22.576   8.039 -0.0328 -0.0893  0.0258
    1W        W50015  14.080  26.339   8.698  0.0580  0.1058  0.2998
    1W        W50016   4.096  20.554   9.682  0.1968 -0.2802  0.0056
    1W        W50017  24.541  26.581   2.386 -0.0800 -0.0134 -0.0881
    1W        W50018  12.022   5.740   2.443  0.0320 -0.0793 -0.2588
    1W        W50019  14.425   3.043   0.220  0.2576 -0.1138  0.0738
    1W        W50020  25.272   3.390   3.059 -0.1212 -0.0883  0.1550
    1W        W50021  17.971  25.245   3.131 -0.3139  0.0425 -0.2894
    1W        W50022  11.624  22.828   2.744 -0.1355  0.0393 -0.0511
    1W        W50023  21.359  16.674   1.373  0.0449  0.2008  0.1212
    1W        W50024   8.988  25.938   9.044 -0.0369 -0.0864  0.0407
    1W        W50025  23.160  10.100   2.034 -0.1580 -0.0472  0.2227
    1W        W50026  16.668  26.972   1.470 -0.0080  0.0272 -0.1954
    1W        W50027   3.453   2.281   7.889  0.1235 -0.0057  0.4412
    1W        W50028  13.529   8.219   0.627  0.1824  0.1061  0.1774
    1W        W50029  17.242  17.922   8.241 -0.3972 -0.1729  0.0850
    1W        W50030  22.398  17.977   1.699  0.0995  0.2760 -0.1408
    1W        W50031  24.165  24.295   7.497 -0.1585 -0.0742 -0.1840
    1W        W50032  27.571  15.794   1.172 -0.0885 -0.0537 -0.0186
    1W        W50033   3.388   6.634   0.843  0.0114 -0.0977 -0.1118
    1W        W50034  21.099  22.239   9.343  0.0581  0.0140 -0.1069
    1W        W50035  19.516   5.434   0.490 -0.0040  0.0831 -0.1202
    1W        W50036   9.196  17.711   1.238  0.0816 -0.1786 -0.3429
    1W        W50037  21.404  24.306   7.874 -0.0249  0.4233 -0.2938
    1W        W50038   5.096   0.157   0.968  0.2776  0.3606  0.0228
    1W        W50039  28.355   4.893   2.966 -0.0924  0.3212  0.3126
    1W        W50040  25.170   1.762   9.677  0.1664 -0.1186 -0.0764
    1W        W50041   1.952  24.406   6.889  0.1193  0.1121 -0.3134
    1W        W50042  12.980   8.408   0.975 -0.1938 -0.0727  0.2861
    1W        W50043   3.862  10.882   2.919  0.1428 -0.2256  0.3322
    1W        W50044   5.502  22.455   6.959  0.1464  0.2698  0.0061
    1W        W50045  21.841  21.447   1.689  0.0956 -0.1240 -0.0697
    1W        W50046  20.485   9.849   9.532  0.1205  0.2365 -0.2048
    1W        W50047  11.390   2.570   8.067  0.3964  0.2996 -0.4063
    1W        W50048  11.793  16.144   1.793 -0.0432 -0.0179  0.1997
    1W        W50049  15.300  20.116   0.423  0.0234  0.1527 -0.2558
    1W        W50050  15.430   1.463   7.883 -0.1037 -0.1695 -0.1164
    1W        W50051  23.976   6.280   1.439 -0.0241  0.0148 -0.0206
    1W        W50052  13.767  12.456   8.186  0.1420  0.0414  0.1269
    1W        W50053   1.594  24.486   2.517  0.1183 -0.1870 -0.0000
    1W        W50054   6.800  11.858   9.892 -0.0727  0.1831 -0.1313
    1W        W50055  16.015   4.711   1.085 -0.0595 -0.2824  0.2462
    1W        W50056   4.176  22.323   6.629  0.0195  0.2189  0.0845
    1W        W50057  21.022   2.186   2.716  0.1856  0.2790 -0.2131
    1W        W50058  18.286  26.628   2.255 -0.0103  0.3513  0.1247
    1W        W50059  17.217  24.861   2.612 -0.0979 -0.0030  0.1674
    1W        W50060   8.363  22.424   8.909  0.1862 -0.0789  0.1426
    1W        W50061  12.580  16.399   8.918 -0.0535 -0.0793  0.2633
    1W        W50062  27.493   0.556   2.474  0.1597 -0.0645 -0.1529
    1W        W50063  14.416  16.528   2.553  0.1400  0.1252  0.0196
    1W        W50064   7.285   5.853   1.996  0.2909  0.2042 -0.0944
    1W        W50065  15.806   0.811   3.814  0.1774  0.0190  0.2758
    1W        W50066  18.203  18.301   0.108 -0.0002  0.3455 -0.2798
    1W        W50067  13.660  17.212   0.812  0.0386 -0.2233 -0.1183
    1W        W50068  10.009  15.706   9.234  0.0832  0.0319  0.1269
    1W        W50069   5.081  21.800   9.699  0.0836  0.1128 -0.0471
    1W        W50070  24.670   9.870   3.285  0.0406 -0.1222  0.0711
    1W        W50071  23.236   5.822   1.005 -0.4302  0.0357 -0.0077
    1W        W50072  14.082  22.014   9.053 -0.0263 -0.0116  0.4799
    1W        W50073  14.716   1.087   1.147 -0.1801 -0.2125 -0.3525
    1W        W50074   9.109   9.286   8.361 -0.1176  0.1745  0.2903
    1W        W50075  26.141  16.935   7.819 -0.1703  0.0677 -0.0909
    1W        W50076  16.083   6.674   7.692  0.3089 -0.3503  0.2812
    1W        W50077   7.026   9.197   0.425 -0.0123  0.0163 -0.1195
    1W        W50078   2.214  15.400   1.745 -0.0089 -0.4424  0.0698
    1W        W50079  23.915   7.361   6.938 -0.1890  0.1874  0.3974
    1W        W50080   7.946   4.297   2.752  0.0620  0.1840  0.2493
    1W        W50081   0.180  25.223   2.668  0.0076  0.0215 -0.1631
    1W        W50082  22.379   8.352   1.789 -0.0943 -0.2589  0.1284
    1W        W50083  17.618  28.574   6.736  0.2841  0.1430 -0.4148
    1W        W50084   9.338  23.019   0.289  0.0955  0.0692 -0.1628
    1W        W50085  14.849   8.356   2.638 -0.0463 -0.1377  0.0500
    1W        W50086  17.167   2.995   0.444  0.1086 -0.1393 -0.0892
    1W        W50087   1.744  22.613   2.060  0.0477 -0.0743  0.1136
    1W        W50088  28.593  16.660   8.913  0.1766 -0.0086 -0.0800
    1W        W50089  18.695   9.075   2.337  0.0909 -0.0913 -0.1917
    1W        W50090   4.467  10.299   7.309 -0.1247  0.1592 -0.2917
    1W        W50091   9.258  23.567   1.669  0.2925  0.1024 -0.1425
    1W        W50092   5.898  10.880   0.338  0.0546 -0.0071  0.0384
    1W        W50093  21.759  26.649   6.573 -0.2310  0.0957 -0.6698
    1W        W50094  20.839   2.879   2.237  0.0645 -0.0296  0.1442
    1W        W50095   4.199  28.008   1.658 -0.0612  0.0531  0.0362
    1W        W50096  19.962  23.035   7.152  0.0118  0.2364 -0.0246
    1W        W50097   1.768  16.111   1.904  0.1303  0.3706 -0.2795
    1W        W50098  27.677  10.222   8.158 -0.3728  0.0298  0.0932
    1W        W50099  24.637   9.074   8.411  0.0207 -0.2262 -0.1768
    1W        W50100   5.040  28.364   1.063 -0.0770  0.4017  0.2510
    1W        W50101   5.101  22.809   6.983  0.2530 -0.3206  0.3281
    1W        W50102   5.054  18.777   8.732 -0.1654 -0.1538  0.0774
    1W        W50103  25.391  22.038   0.035  0.0783  0.2052 -0.1296
    1W        W50104  14.442  26.085   7.055 -0.0339  0.0663  0.0314
    1W        W50105   7.440   9.280   1.321 -0.0535  0.0696 -0.1636
    1W        W50106  23.941  22.912   2.315  0.1875  0.0006 -0.0308
    1W        W50107  26.451   2.240   3.011 -0.0447 -0.3329  0.0503
    1W        W50108   3.127  26.021   0.084  0.1178 -0.0263  0.1707
    1W        W50109   0.337   5.831   2.094 -0.0889 -0.4214 -0.1994
    1W        W50110  15.278   6.714   2.901  0.1391  0.1224  0.0926
    1W        W50111  20.644  24.017   9.664 -0.0323  0.2200  0.2673
    1W        W50112  25.155  20.182   7.991 -0.0290  0.1763 -0.1300
    1W        W50113  28.471  25.694   2.178 -0.0543  0.1046 -0.1061
    1W        W50114   4.918   5.668   7.907  0.0104 -0.0171 -0.1342
    1W        W50115  24.012  16.943   9.862  0.1444 -0.0783  0.1013
    1W        W50116  17.572  28.280   9.073 -0.1739 -0.0951  0.3298
    1W        W50117  13.441  19.237   2.577  0.1565  0.1674 -0.1984
    1W        W50118  13.437  17.373   8.761 -0.0453  0.2026 -0.1050
    1W        W50119   0.955   6.885   2.706 -0.0256  0.4366  0.0798
    1W        W50120  18.264  18.450   9.148  0.1186  0.2492 -0.0503
    1W        W50121  16.718  11.390   1.168  0.2194  0.1493 -0.1101
    1W        W50122  16.851  18.343   9.670  0.1011  0.0821 -0.2134
    1W        W50123   2.678  18.948   0.653 -0.2557 -0.1990 -0.2897
    1W        W50124  12.835  13.852   2.134 -0.1001 -0.0112  0.1217
    1W        W50125  19.488  19.415   9.441  0.2856  0.1085  0.0945
    1W        W50126  17.215   4.382   2.904  0.2065  0.2414 -0.1885
    1W        W50127  27.874   6.791   9.850 -0.0506 -0.0310  0.0712
    1W        W50128  28.321  18.687   6.331 -0.0212 -0.2915 -0.1276
    1W        W50129   6.746  22.268   1.138 -0.2067 -0.1802  0.0215
    1W        W50130   0.586   6.647   1.698 -0.0002 -0.0485  0.1324
    1W        W50131   7.040  27.628   8.424 -0.1855  0.0120 -0.1216
    1W        W50132  25.352  27.113   0.821  0.1082  0.3633 -0.1712
    1W        W50133  18.057   0.550   2.330  0.1951 -0.3384  0.1607
    1W        W50134  13.256   4.105   1.953  0.1773 -0.3432 -0.1199
    1W        W50135   5.312  20.260   7.147  0.1129 -0.1781 -0.1642
    1W        W50136  27.633  26.431   7.055 -0.3587 -0.1182  0.4200
    1W        W50137  23.381  22.588   1.461  0.0242 -0.0732 -0.1971
    1W        W50138  26.435   2.869   7.503  0.1967 -0.0892  0.0758
    1W        W50139  10.190  19.236   2.123 -0.0637  0.1102  0.0593
    1W        W50140  20.522   9.580   9.075  0.2918 -0.0161 -0.0662
    1W        W50141   0.392  22.027   7.146 -0.1237  0.1974 -0.0765
    1W        W50142  18.728  18.266   1.225 -0.0466 -0.1981  0.4578
    1W        W50143   1.949  26.289   1.712 -0.0048  0.2038 -0.0032
    1W        W50144  17.011   3.336   1.275 -0.1180 -0.2581  0.1921
    1W        W50145   7.109   6.317   1.606  0.2507  0.1703 -0.1640
    1W        W50146  12.228   3.538   4.351  0.3889 -0.4074 -0.1693
    1W        W50147   3.991   5.843   6.735  0.0569 -0.3027 -0.2012
    1W        W50148  28.060   4.874   0.046 -0.0905 -0.2282  0.0520
    1W        W50149   4.326  10.185   2.588  0.0314  0.0771  0.0790
    1W        W50150   3.020   3.559   9.677  0.1489  0.1095  0.1494
    1W        W50151  16.637  17.421   8.732  0.1602 -0.2240  0.0049
    1W        W50152   1.800  18.052   1.665 -0.1222 -0.1273 -0.0372
    1W        W50153  15.009  27.218   6.776 -0.0674 -0.0863 -0.1518
    1W        W50154   0.070  23.399   2.590  0.1095  0.4182 -0.0094
    1W        W50155   1.068  11.614   8.831  0.1027 -0.2312  0.0903
    1W        W50156  21.626   7.617   0.777  0.1327 -0.2880 -0.2662
    1W        W50157  10.616   1.772   1.086  0.1009  0.1821  0.5197
    1W        W50158  26.129  16.487   1.999 -0.2628  0.0520 -0.0795
    1W        W50159   2.972  21.951   1.202  0.1606 -0.0528  0.3137
    1W        W50160   2.478  14.146   7.958  0.0367 -0.1826  0.2967
    1W        W50161   2.084   4.163   0.771  0.1166  0.2239  0.0435
    1W        W50162  10.355   9.541   2.399  0.2752 -0.0269  0.2175
    1W        W50163  22.365   0.350   8.625  0.1453  0.1165 -0.3406
    1W        W50164   0.197  25.093   0.531  0.0701 -0.0451  0.0408
    1W        W50165   1.719  12.267   8.923  0.1316 -0.0010 -0.1060
    1W        W50166  19.475   6.157   0.723  0.3477 -0.5427  0.4784
    1W        W50167  27.070   1.292   1.215 -0.1264  0.1920 -0.1376
    1W        W50168   5.633   4.011   7.273  0.1428 -0.0613 -0.1092
    1W        W50169  27.509   5.883   5.835  0.1787  0.2942 -0.0026
    1W        W50170   4.367   1.929   7.338  0.2591  0.0001 -0.0336
    1W        W50171   8.062  18.509   1.809 -0.0993  0.0821 -0.0800
    1W        W50172   6.784   7.309   2.838  0.1115 -0.1046  0.0894
    1W        W50173  11.803   5.798   9.328  0.2253  0.1932 -0.0906
    1W        W50174  15.135  24.968   0.290 -0.1168 -0.2026  0.2739
    1W        W50175  24.952   5.908   8.153  0.0286  0.1263 -0.0754
    1W        W50176   6.677   1.117   3.447 -0.1293 -0.1412  0.0798
    1W        W50177   8.382   1.342   1.977 -0.0905  0.0902 -0.1826
    1W        W50178   2.398  23.554   6.738  0.1473  0.1789  0.2285
    1W        W50179  24.183  26.974   0.005  0.1290 -0.3238  0.0847
    1W        W50180  11.722   2.433   1.248 -0.1624 -0.5730  0.4088
    1W        W50181  27.816   5.554   7.624  0.0736  0.2748 -0.1571
    1W        W50182  27.966  10.435   8.779 -0.2598 -0.0298 -0.2556
    1W        W50183   4.435   5.373   7.916  0.2976  0.3216 -0.1414
    1W        W50184   8.418  15.190   7.568 -0.0541 -0.0007 -0.3617
    1W        W50185  17.785   9.274   8.022  0.1714  0.2402  0.1848
    1W        W50186  19.142   7.114   2.333 -0.1089 -0.1974 -0.3376
    1W        W50187   8.122   7.314   7.766 -0.4851  0.1238 -0.0886
    1W        W50188   4.590  23.903   9.591  0.1642 -0.0210  0.0827
    1W        W50189   4.351  19.455   8.811 -0.1450  0.0344 -0.2534
    1W        W50190  12.754  25.256   1.016  0.2168 -0.1561  0.2293
    1W        W50191   5.971  16.828   1.247 -0.1525 -0.3124  0.3072
    1W        W50192  12.541  16.759   9.244 -0.0264 -0.0674 -0.0305
    1W        W50193  14.736  21.947   9.372 -0.2241  0.0923 -0.0354
    1W        W50194   6.130  23.030   8.272 -0.0759  0.0690  0.2166
    1W        W50195  10.366   6.361   1.832 -0.1364  0.3606  0.1545
    1W        W50196  24.482  25.354   3.833  0.2768  0.2281  0.3228
    1W        W50197  15.708   2.312   1.741  0.0905 -0.2557 -0.0767
    1W        W50198  17.951  17.353   9.319  0.0065  0.2329 -0.1489
    1W        W50199  21.590  23.514   3.834  0.1820  0.1114  0.2307
    1W        W50200  25.617  24.126   8.841  0.1311  0.0260 -0.0346
    1W        W50201   5.934   7.605   9.910  0.1926  0.2292  0.1959
    1W        W50202  22.350   7.168   7.866 -0.1403 -0.1618  0.0131
    1W        W50203  26.738  18.342   2.068 -0.0779  0.0998  0.3439
    1W        W50204   9.094   5.289   3.079 -0.0196  0.1159  0.2539
    1W        W50205  20.706   2.018   9.621 -0.2186  0.1884 -0.2561
    1W        W50206  22.192  28.507   6.847 -0.0949  0.2277 -0.0084
    1W        W50207  15.875  20.167   2.003  0.0218 -0.2177 -0.3625
    1W        W50208  27.577  23.420   0.690 -0.4050  0.2493 -0.2201
    1W        W50209   4.496  12.255   0.778 -0.2841 -0.2556 -0.2561
    1W        W50210  26.400   3.439   6.646  0.1202  0.2118 -0.2171
    1W        W50211  14.084   4.052   1.986 -0.2168 -0.1102 -0.0506
    1W        W50212   9.696   6.883   6.998 -0.0525  0.2978  0.1288
    1W        W50213  25.272   6.538   9.296 -0.0616  0.0809 -0.1182
    1W        W50214  25.538  28.224   1.483 -0.0088 -0.2229  0.0776
    1W        W50215  22.120  18.274   9.578  0.0198 -0.2256 -0.0142
    1W        W50216   0.993  12.531   7.561 -0.3010  0.1034 -0.2755
    1W        W50217  20.057   5.076   2.891  0.1138 -0.1957 -0.0703
    1W        W50218  27.296  11.544   1.531 -0.2538 -0.0751 -0.2302
    1W        W50219  22.663  27.396   0.761  0.0735 -0.3349 -0.0183
    1W        W50220  10.853  17.643   9.003  0.1945 -0.0441  0.1229
    1W        W50221   7.944   3.456   1.670 -0.0147  0.2516  0.1236
    1W        W50222  19.955  10.830   1.059  0.2314 -0.0397  0.1797
    1W        W50223   5.459   5.429   0.943 -0.0015 -0.4429  0.0072
    1W        W50224   3.308   7.405   3.278  0.0554 -0.0929 -0.0026
    1W        W50225   4.288  13.635   1.799 -0.2583  0.1213 -0.1594
    1W        W50226  15.998  24.266   3.743  0.0312  0.2999 -0.1291
    1W        W50227  23.137   9.846   8.145  0.1143 -0.2286 -0.0264
    1W        W50228  25.344   9.263   0.936 -0.3024  0.0016  0.0950
    1W        W50229   4.944  16.025   8.149  0.3499 -0.0654  0.0688
    1W        W50230  19.949  18.280   0.096  0.2658  0.0057 -0.1567
    1W        W50231  14.319   5.988   3.581 -0.0745 -0.0818  0.1277
    1W        W50232  23.047   6.254   0.866  0.0059 -0.1257 -0.0735
    1W        W50233  14.638   9.188   8.226 -0.3459  0.0895  0.6515
    1W        W50234  18.989  16.223   7.600 -0.0104 -0.1380  0.0435
    1W        W50235  27.961  22.789   6.115 -0.0266 -0.0894  0.1446
    1W        W50236  13.879  23.343   6.774 -0.1789  0.0387  0.0191
    1W        W50237  10.139  18.096   1.464 -0.0358  0.0947  0.0454
    1W        W50238  11.653  10.313   0.562 -0.0045 -0.0218 -0.0534
    1W        W50239   9.095  20.792   6.766  0.2929  0.3694  0.1189
    1W        W50240  23.302  16.330   7.888 -0.0974  0.1567 -0.1049
    1W        W50241  28.595   8.053   1.345  0.1019  0.0405  0.3838
    1W        W50242  10.832  26.853   7.309  0.1438  0.2026 -0.1398
    1W        W50243  16.411   4.078   1.589  0.0178  0.1359 -0.0819
    1W        W50244   0.211   4.828   2.254  0.0382  0.0974  0.1538
    1W        W50245   9.480  15.992   9.821 -0.1173  0.1851  0.1415
    1W        W50246   8.922  25.321   0.846  0.2442 -0.1674 -0.1781
    1W        W50247  27.757   1.837   1.856  0.2558 -0.2824 -0.0699
    1W        W50248   3.834   3.370   0.688  0.0345 -0.2694 -0.0458
    1W        W50249   2.915   2.379   7.815 -0.1610  0.0723 -0.0638
    1W        W50250  23.165  13.311   2.270  0.3175 -0.1708  0.3083
    1W        W50251  14.785  18.270   7.778 -0.2480 -0.0342  0.3462
    1W        W50252  27.842  21.699   8.798  0.2312 -0.0283  0.1818
    1W        W50253   4.137  15.008   2.528  0.1167 -0.0136 -0.0643
    1W        W50254  10.555  28.298   2.065 -0.2913 -0.2022 -0.2882
    1W        W50255  19.377  10.075   8.145 -0.2476 -0.1128  0.4257
    1W        W50256  23.196  22.014   8.664  0.0589 -0.0316 -0.1918
    1W        W50257  18.611   8.594   2.295 -0.0714  0.0753  0.0558
    1W        W50258  21.800  28.262   7.233 -0.4012  0.1172  0.3403
    1W        W50259  11.708   3.738   1.689 -0.0390  0.1378  0.0321
    1W        W50260  12.008  23.541   8.954  0.1093 -0.2189 -0.0538
    1W        W50261   8.050  13.353   8.386 -0.3450 -0.1134  0.1233
    1W        W50262  17.323   8.605   2.804  0.0418 -0.1341  0.1255
    1W        W50263  19.643  27.544   8.540 -0.4189  0.0606 -0.1548
    1W        W50264   2.075   2.298   2.378  0.1246 -0.2015  0.0634
    1W        W50265  28.546  28.230   2.876 -0.1620  0.0256  0.4175
    1W        W50266   1.494  19.212   8.595  0.2006  0.1931 -0.2938
    1W        W50267  11.185   9.151   2.365 -0.1152  0.1264  0.2183
    1W        W50268  27.581  18.240   1.865  0.1148  0.1094  0.1470
    1W        W50269  23.970   7.906   2.262 -0.2551  0.1404  0.0664
    1W        W50270  22.847  13.369   0.746  0.0060  0.2341  0.0961
    1W        W50271  12.101  10.769   2.284 -0.1055  0.3218  0.1825
    1W        W50272   8.017   7.127   9.839  0.1468  0.0367  0.2411
    1W        W50273  26.423  23.264   1.985 -0.1024 -0.0475  0.2696
    1W        W50274  23.321  12.000   3.053  0.1768 -0.0462 -0.1463
    1W        W50275  21.099  23.067   9.035 -0.1674 -0.1595 -0.0660
    1W        W50276  20.950   5.506   1.874 -0.1286 -0.1409  0.2058
    1W        W50277  17.853   0.953   2.615 -0.1099 -0.0583  0.1492
    1W        W50278   0.780  23.180   7.621  0.2327  0.3692  0.1455
    1W        W50279  17.937  20.014   0.009  0.0239  0.2028 -0.0800
    1W        W50280   5.718  27.350   3.036 -0.3096 -0.2840  0.0843
    1W        W50281   7.325  15.984   8.659  0.0419 -0.3103 -0.0378
    1W        W50282  26.885   0.175   1.311  0.1776 -0.1355  0.0466
    1W        W50283  26.543  15.685   2.133 -0.0311  0.1734  0.3363
    1W        W50284  18.500  15.481   1.551  0.1433  0.0487  0.2917
    1W        W50285  20.396  12.397   7.630 -0.2144 -0.1013  0.2181
    1W        W50286  14.251   3.060   2.191 -0.2317 -0.0408 -0.1576
    1W        W50287  20.364  25.408   9.436 -0.1166  0.1009 -0.1224
    1W        W50288  20.848   6.025   6.857 -0.0168  0.2695 -0.1606
    1W        W50289  24.028   8.525   1.213  0.2767 -0.1147  0.1794
    1W        W50290  13.298  20.638   0.637 -0.0841  0.0166  0.0306
    1W        W50291  16.276  15.649   0.695  0.2529 -0.0585  0.1988
    1W        W50292   1.210   7.301   3.395 -0.2295 -0.1212  0.1371
    1W        W50293  27.805  28.677   8.362  0.3208 -0.0715 -0.0359
    1W        W50294  25.603  24.465   1.590  0.1760 -0.1827  0.0645
    1W        W50295   2.352  12.892   7.153  0.0858  0.1787 -0.0449
    1W        W50296  21.904   3.239   1.806 -0.2338 -0.0035  0.1617
    1W        W50297  13.631  17.558   3.010 -0.0804  0.3115  0.1826
    1W        W50298  26.340  23.380   7.464  0.0555 -0.3180  0.0498
    1W        W50299  11.730  12.128   7.301  0.0385  0.0351 -0.1038
    1W        W50300  13.992   2.542   2.637 -0.2724  0.0748  0.2672
    1W        W50301  20.958  23.351   2.618  0.0109 -0.0514  0.2614
    1W        W50302  26.266  18.419   7.793  0.4491 -0.0763 -0.3436
    1W        W50303  22.396  13.033   0.616 -0.0244  0.2669  0.1272
    1W        W50304  22.349  26.969   8.781 -0.0356 -0.2701 -0.1090
    1W        W50305  11.304  14.511   0.447 -0.2342  0.0228 -0.2165
    1W        W50306  17.133   5.377   8.765 -0.0960 -0.1366 -0.2415
    1W        W50307  26.884  28.398   2.550 -0.2547 -0.2132  0.2760
    1W        W50308  23.395   2.055   5.993 -0.1093 -0.1607  0.2208
    1W        W50309  19.890  16.252   0.930 -0.0893  0.1343  0.1355
    1W        W50310  19.949  19.435   9.223  0.1553 -0.1613  0.0934
    1W        W50311   9.925  19.459   8.560 -0.1224  0.1440 -0.1991
    1W        W50312   2.488  23.495   7.211 -0.1627  0.0342 -0.1344
    1W        W50313   3.682  17.178   0.911 -0.1054 -0.1537  0.0846
    1W        W50314  14.404  20.430   0.671  0.0922  0.1306 -0.1922
    1W        W50315  21.098  12.434   1.547 -0.1626  0.1394  0.0013
    1W        W50316  22.993  13.137   7.648  0.1071  0.3251 -0.2771
    1W        W50317   1.710  12.161   8.410 -0.2415 -0.0917  0.0053
    1W        W50318  22.573  23.368   7.864 -0.3110 -0.0892  0.0185
    1W        W50319   3.119  24.763   9.202 -0.1804 -0.2946 -0.1106
    1W        W50320  10.124  19.467   9.406  0.1583 -0.0360  0.0940
    1W        W50321  26.224  13.065   2.318  0.3837  0.2505  0.2872
    1W        W50322  24.036   1.225   1.532  0.1132 -0.1030 -0.0619
    1W        W50323  16.800  21.781   9.513 -0.2078 -0.3244 -0.1157
    1W        W50324  16.393  11.444   6.918 -0.3069 -0.0066 -0.1157
    1W        W50325   3.986   7.670   3.590 -0.2591 -0.2634  0.0065
    1W        W50326   5.540  23.838   9.286 -0.2945 -0.0835 -0.1616
    1W        W50327  19.017   4.228   8.137  0.2904 -0.0716  0.2901
    1W        W50328  10.248   4.600   0.280 -0.0654 -0.2580 -0.0189
    1W        W50329  12.648   0.079   2.944  0.0747  0.0604  0.0108
    1W        W50330  10.320   2.167   0.999 -0.0419  0.1212  0.0525
    1W        W50331  21.194  26.006   1.461  0.0385 -0.2146  0.0965
    1W        W50332   6.563  15.548   0.576 -0.1177  0.0158  0.2086
    1W        W50333   3.729  11.548   6.674 -0.1040 -0.0396  0.0562
    1W        W50334  27.311   8.336   1.085 -0.0649  0.0305 -0.1036
    1W        W50335   1.002  20.302   9.596 -0.2661  0.0881  0.1979
    1W        W50336  23.795   8.771   0.410 -0.1752 -0.2064 -0.2103
    1W        W50337  25.256   8.041   7.161  0.1301 -0.0069  0.1439
    1W        W50338  24.054  22.396   7.507 -0.0262  0.2871 -0.3051
    1W        W50339  15.828  20.956   0.265  0.1311  0.4679 -0.1459
    1W        W50340  26.219   1.401   1.749  0.2616  0.1039 -0.0052
    1W        W50341  13.124   2.495   0.405 -0.3604 -0.0629  0.1926
    1W        W50342   0.532  14.181   0.565 -0.1451 -0.0525  0.2046
    1W        W50343  13.863  28.042   2.626 -0.0289  0.1992  0.0040
    1W        W50344  21.249  19.800   2.896  0.1036 -0.3576  0.1436
    1W        W50345  12.496  24.273   0.685 -0.0875  0.0263 -0.2700
    1W        W50346  17.677   6.916   2.615  0.3985 -0.0100  0.0922
    1W        W50347   8.183  27.834   2.090 -0.2614  0.1219 -0.2694
    1W        W50348  26.654  23.199   7.090 -0.0857 -0.1224 -0.3778
    1W        W50349  12.899  22.563   7.990  0.0462  0.1199  0.1146
    1W        W50350  12.339   1.220   3.033  0.3237 -0.2867  0.0064
    1W        W50351   6.667   6.964   3.603  0.0172  0.0902 -0.0202
    1W        W50352   3.639   5.739   8.145  0.1582  0.1553  0.1016
    1W        W50353  21.610  18.253   3.522  0.2809 -0.0386 -0.0134
    1W        W50354   1.791  20.991   0.217 -0.0913  0.0609 -0.2593
    1W        W50355  23.204   3.970   9.216  0.1808  0.3578 -0.0247
    1W        W50356  18.481   8.322   9.073 -0.1893  0.0480 -0.0780
    1W        W50357   9.619  27.612   9.297 -0.0502  0.0110 -0.0284
    1W        W50358  26.539  12.157   9.943 -0.2083 -0.2363  0.1144
    1W        W50359  21.174   0.742   2.372  0.1130  0.0435  0.0299
    1W        W50360  17.721  19.269   1.663 -0.0168  0.3028 -0.0128
    1W        W50361  14.909  19.555   1.577  0.1045  0.1369 -0.2996
    1W        W50362  25.012   7.755   2.440  0.0443  0.1115  0.2090
    1W        W50363   2.624  25.188   2.660  0.1940  0.2352 -0.0460
    1W        W50364  25.052  16.751   9.230 -0.2798  0.1050  0.2030
    1W        W50365   3.461  15.162   0.107  0.0651 -0.0841 -0.0273
    1W        W50366   9.902  24.612   0.982 -0.1992 -0.0860 -0.0010
    1W        W50367  13.909  19.132   8.612 -0.1636  0.1159  0.0227
    1W        W50368   2.077   7.397   7.730 -0.2193  0.0807 -0.1044
    1W        W50369  26.023   8.608   1.564  0.0713  0.2056  0.2596
    1W        W50370   8.630  21.067   8.462  0.0245  0.2612  0.2289
    1W        W50371   6.017   4.166   8.966 -0.3164  0.1144 -0.2255
    1W        W50372  26.369  11.296   1.780 -0.2034 -0.2144  0.3165
    1W        W50373  13.387  10.692   2.073 -0.3484 -0.2109  0.0508
    1W        W50374   0.356  18.145   6.683  0.0255 -0.0606 -0.0708
    1W        W50375  11.001  23.172   7.526 -0.2005 -0.4887 -0.0616
    1W        W50376   0.838   9.336   7.162  0.1045 -0.1325  0.1177
    1W        W50377   0.008  17.288   7.931  0.0867  0.1675 -0.1858
    1W        W50378   1.035  28.050   1.246  0.0334  0.0812  0.0242
    1W        W50379  22.290  27.280   7.229 -0.0775  0.1121 -0.2684
    1W        W50380  12.108   1.363   8.391  0.1086 -0.0396 -0.3087
    1W        W50381  19.482  12.289   1.771 -0.0547  0.2067  0.0839
    1W        W50382  18.283  10.306   1.097 -0.2851 -0.0082 -0.2016
    1W        W50383  20.916  26.081   9.595  0.1881  0.0220  0.1827
    1W        W50384  27.327  13.843   6.572  0.3068 -0.2206 -0.1798
    1W        W50385  11.047  25.119   7.866  0.0756 -0.1130 -0.1327
    1W        W50386  13.951  13.605   1.356  0.1398 -0.0749 -0.0648
    1W        W50387  22.814   8.621   9.584  0.0174  0.3268  0.1047
    1W        W50388  13.691  27.972   8.526  0.2973  0.1166 -0.1286
    1W        W50389  17.802  22.952   1.906 -0.2820  0.0933 -0.0301
    1W        W50390  17.550  28.293   8.548  0.1288  0.1199  0.1685
    1W        W50391   9.987   0.518   1.408  0.4250  0.2793  0.1903
    1W        W50392  19.260  10.136   1.101 -0.0159 -0.2772  0.0154
    1W        W50393  22.168  17.696   2.071  0.0142  0.0365  0.1479
    1W        W50394  12.304  14.424   7.857 -0.2906  0.4561  0.1936
    1W        W50395  23.252   3.451   1.107 -0.1480 -0.3902 -0.0781
    1W        W50396   5.911   2.042   7.669 -0.0234 -0.2041  0.2774
    1W        W50397   3.970   0.302   0.510 -0.0884 -0.2626 -0.1812
    1W        W50398  15.403   5.996   0.851  0.1955  0.4190  0.0598
    1W        W50399  10.235  14.601   2.539  0.1858  0.3719 -0.0730
    1W        W50400   5.683   2.662   8.652 -0.2571 -0.2327  0.2838
    1W        W50401  20.473  22.433   0.761 -0.0418 -0.1477  0.0283
    1W        W50402  28.129  10.121   7.814 -0.0575  0.3146  0.1041
    1W        W50403  26.104  23.285   9.394  0.2562  0.2590 -0.0797
    1W        W50404  23.775  10.945   2.033  0.1596 -0.0425  0.0740
    1W        W50405   2.750   7.776   6.699 -0.1647 -0.3993  0.0589
    1W        W50406  16.006  19.217   2.693  0.0155  0.1192 -0.1737
    1W        W50407  19.593   2.959   9.873  0.1221  0.0846 -0.3443
    1W        W50408  22.430   5.605   7.928 -0.0572 -0.0441  0.1273
    1W        W50409  17.259   1.970   9.751  0.0264  0.2267 -0.2311
    1W        W50410  12.906   0.711   9.920 -0.1339 -0.0205 -0.1511
    1W        W50411   4.896  27.505   0.283  0.0726 -0.0450 -0.0924
    1W        W50412   3.801  11.121   6.273  0.0906 -0.0187  0.0688
    1W        W50413  19.246  26.390   0.953 -0.0604 -0.1249 -0.0873
    1W        W50414  17.147  26.043   1.609  0.1799 -0.0263 -0.0089
    1W        W50415   1.729  19.506   0.323  0.3605 -0.0511 -0.1388
    1W        W50416   5.606   0.328   2.070 -0.1129  0.4558  0.0669
    1W        W50417  24.793   0.936   1.833 -0.2755 -0.1844 -0.1562
    1W        W50418  12.997   5.832   2.269 -0.2963 -0.0804 -0.3015
    1W        W50419   4.729  12.698   1.186 -0.1729  0.1074 -0.1401
    1W        W50420  26.164   1.484   2.496  0.0527  0.0011 -0.1263
    1W        W50421  28.524   6.695   6.464 -0.2023 -0.0588  0.3772
    1W        W50422  25.839   6.655   6.798 -0.2936  0.0176  0.1443
    1W        W50423   3.853  12.487   9.166  0.1021  0.0582  0.1019
    1W        W50424  26.899  11.594   7.969  0.0224  0.2614 -0.0089
    1W        W50425   5.841   8.911   1.392  0.0199  0.0262  0.0818
    1W        W50426  23.265  18.975   0.098 -0.1262  0.3801  0.1103
    1W        W50427   9.701  15.846   1.391 -0.0125 -0.0261  0.0323
    1W        W50428  27.637  17.187   7.287 -0.2762  0.1064 -0.0439
    1W        W50429  18.488  22.155   1.468  0.0354 -0.3174  0.3968
    1W        W50430   3.363   5.760   8.559  0.1002  0.0160 -0.1073
    1W        W50431   7.813  23.492   7.049 -0.2446  0.1561 -0.3802
    1W        W50432  25.564  10.863   1.142 -0.0165 -0.0564  0.1671
    1W        W50433  23.627   0.370   8.680 -0.1426  0.0513  0.0366
    1W        W50434  17.603   1.804   3.850  0.0586 -0.0797  0.1127
    1W        W50435  21.330  28.174   9.155  0.1778  0.1037  0.0604
    1W        W50436  11.748   8.646   1.072 -0.0245  0.0635  0.1847
    1W        W50437  16.143   1.664   4.300 -0.1396  0.2608  0.0291
    1W        W50438  20.109   7.405   1.048 -0.0683 -0.0455  0.0223
    1W        W50439   0.517  19.475   9.701  0.1079  0.0281  0.1275
    1W        W50440   3.418   9.231   7.684  0.0266  0.0857  0.0141
    1W        W50441   4.947  10.445   7.995  0.0929 -0.1144 -0.0769
    1W        W50442  20.083   7.240   1.916 -0.0969 -0.0313 -0.3075
    1W        W50443   8.559  16.975   7.978  0.0122  0.0107 -0.3652
    1W        W50444   5.636   7.344   2.619  0.1471  0.0213 -0.1756
    1W        W50445  21.373  27.907   2.828  0.3819  0.2922  0.0424
    1W        W50446  10.013   2.635   1.092  0.1491  0.1071  0.1022
    1W        W50447  14.899  22.948   0.607 -0.1210 -0.0370 -0.0583
    1W        W50448  22.284  26.835   9.770 -0.2780 -0.3284  0.0038
    1W        W50449  13.531   3.179   8.404  0.2812 -0.0119  0.0263
    1W        W50450   8.828  15.571   0.156 -0.0974  0.1449  0.1325
    1W        W50451  23.661  20.256   1.938 -0.0495  0.3260 -0.1212
    1W        W50452   1.730   7.735   7.959  0.0476 -0.0173  0.1042
    1W        W50453  22.374   0.101   2.714 -0.1790 -0.0226  0.0392
    1W        W50454   3.339  14.458   7.939  0.0792 -0.0238  0.1555
    1W        W50455  11.000   0.198   7.925 -0.1685  0.1302  0.0792
    1W        W50456   1.763  20.515   8.247  0.1367  0.2043  0.0252
    1W        W50457  14.471  16.061   1.100  0.1843  0.0691  0.2067
    1W        W50458  21.911   7.026   7.182  0.0627  0.3774 -0.0560
    1W        W50459  28.489  22.155   1.956 -0.0181  0.2193  0.1007
    1W        W50460  21.094   5.998   0.955  0.1687 -0.0218 -0.0872
    1W        W50461  19.072  21.892   2.855  0.0556  0.0979  0.2997
    1W        W50462   2.498  13.232   0.863  0.2083  0.1035  0.0188
    1W        W50463   4.191  19.557   5.837  0.0296  0.3582 -0.2166
    1W        W50464  11.341  16.422   8.397  0.0108  0.1976  0.2493
    1W        W50465  24.409  21.804   7.839  0.1518  0.2674 -0.0700
    1W        W50466   8.137  19.404   8.983  0.0190 -0.2732  0.0588
    1W        W50467  21.183   7.691   3.178  0.4165  0.3431 -0.2787
    1W        W50468   6.694  11.771   3.341  0.2108  0.0441  0.0532
    1W        W50469  26.451   6.641   8.311  0.1147  0.1029 -0.0832
    1W        W50470   4.524  22.638   6.907  0.3143 -0.1407 -0.0165
    1W        W50471   4.975  15.048   8.440  0.6619 -0.1863 -0.1597
    1W        W50472   1.452   0.435   8.300  0.1866  0.2610 -0.0062
    1W        W50473  19.989  25.280   9.091 -0.3806  0.3192 -0.3190
    1W        W50474  23.132  18.820   1.539  0.0181 -0.0585 -0.0328
    1W        W50475  14.578  22.815   2.822  0.3546 -0.0788 -0.0706
    1W        W50476  14.031   8.100   0.434  0.2379  0.1246  0.1834
    1W        W50477  10.947  14.573   1.606 -0.0970  0.2278 -0.2051
    1W        W50478   6.726  28.712   9.451  0.0917 -0.1771  0.1089
    1W        W50479  22.359  27.233   3.025 -0.2820  0.0499 -0.0926
    1W        W50480  17.857  17.630   0.309  0.0773  0.1420 -0.1398
    1W        W50481  25.274  11.693   9.429  0.1391 -0.0868 -0.1611
    1W        W50482  13.588  14.800   1.838  0.1970 -0.0904  0.0095
    1W        W50483  25.444  20.589   2.033  0.1107  0.1803 -0.0874
    1W        W50484  17.645  17.590   8.503 -0.0361  0.0423 -0.0640
    1W        W50485  21.394   4.894   9.442  0.3594  0.1559 -0.0874
    1W        W50486  10.095   2.691   7.153 -0.1587 -0.0045  0.2583
    1W        W50487  14.652  27.580   8.428  0.0629  0.1824  0.3348
    1W        W50488  27.981   6.667   8.843 -0.2213 -0.0493  0.0452
    1W        W50489  26.177  23.496   1.612  0.1782 -0.2632  0.1759
    1W        W50490  20.437  13.262   1.846 -0.0907  0.1133 -0.0809
    1W        W50491  21.481  22.173   8.054  0.0500 -0.2716  0.0570
    1W        W50492  20.511   8.409   0.323 -0.0069  0.1805  0.0872
    1W        W50493   4.173  11.479   1.696  0.0716 -0.0875 -0.0839
    1W        W50494   1.634  22.608   9.671 -0.1510  0.3416  0.1122
    1W        W50495   6.224  16.371   8.001  0.0610  0.0579 -0.1755
    1W        W50496   3.357  13.354   0.646 -0.0424 -0.1387 -0.0989
    1W        W50497  16.684   2.945   7.538 -0.1198  0.0515 -0.4268
    1W        W50498  18.294   3.028   8.513 -0.3401 -0.2644 -0.0471
    1W        W50499  15.504  13.362   0.551 -0.0074 -0.0281  0.1976
    1W        W50500  16.416   5.031   1.145 -0.1352  0.2156 -0.1816
    1W        W50501  24.045  21.608   9.834 -0.2231 -0.1673  0.0363
    1W        W50502   3.571  10.139   7.724  0.0854  0.1848 -0.1880
    1W        W50503  16.131  26.865   8.659 -0.2012 -0.0883  0.1529
    1W        W50504  17.234   1.868   9.286 -0.0491  0.2204 -0.0787
    1W        W50505   8.718  11.217   9.711 -0.1722  0.0717 -0.1147
    1W        W50506  15.506  22.451   8.609  0.1527 -0.1192 -0.0585
    1W        W50507  23.932   1.712   7.215 -0.0215 -0.3459  0.0306
    1W        W50508  12.503  17.101   2.128  0.0714  0.1506 -0.0488
    1W        W50509  25.186  19.268   7.055 -0.0980 -0.0337  0.0158
    1W        W50510  13.911   0.676   9.643 -0.0419  0.1333  0.1797
    1W        W50511  16.337  16.489   9.638  0.2512 -0.0981  0.1057
    1W        W50512  23.557   9.883   9.033  0.4054 -0.0620 -0.0252
    1W        W50513   2.850   0.301   7.085 -0.0281 -0.0772  0.1454
    1W        W50514  25.343   7.961   1.165 -0.1176  0.0640  0.3012
    1W        W50515   2.655  16.162   9.352  0.2831 -0.3812  0.3520
    1W        W50516  25.267  26.222   7.183  0.1888 -0.3749 -0.2523
    1W        W50517  21.017  17.986   8.887 -0.0023  0.1204 -0.0825
    1W        W50518  24.298  19.601   8.017  0.1931 -0.0094 -0.1574
    1W        W50519  10.405  12.317   1.933 -0.2418 -0.3611 -0.0897
    1W        W50520  26.528  13.388   6.616  0.4282  0.2411  0.2307
    1W        W50521  10.878  26.359   8.786 -0.1373 -0.2003 -0.4170
    1W        W50522  15.454   3.974   7.625  0.3503 -0.0243 -0.1836
    1W        W50523  24.612  12.190   2.855  0.1914  0.2590  0.0796
    1W        W50524  15.807  13.059   8.922 -0.1555 -0.3757 -0.1958
    1W        W50525  13.013   3.418   3.527 -0.2755  0.0209  0.1333
    1W        W50526  22.403   7.000   1.894 -0.0002  0.0833 -0.1241
    1W        W50527  19.512  13.792   8.063  0.0200  0.0603  0.2536
    1W        W50528   4.669  24.709   9.640 -0.0227 -0.0603  0.1644
    1W        W50529  25.187   4.615   1.374 -0.0460 -0.0347  0.2869
    1W        W50530   5.324  13.618   5.972  0.1568 -0.4035 -0.0556
    1W        W50531  15.181  27.965   7.873  0.0227  0.1435 -0.2099
    1W        W50532  16.387  18.464   6.828 -0.0803  0.0182 -0.0474
    1W        W50533   7.756  27.033   0.585  0.0550  0.2132  0.0413
    1W        W50534  26.362  23.459   8.747  0.0401 -0.0988  0.2504
    1W        W50535   8.155   3.849   2.911 -0.0116 -0.1130 -0.1207
    1W        W50536  21.126  20.890   2.159  0.0139 -0.0849  0.0449
    1W        W50537  17.967  18.837   1.712  0.3460 -0.2697  0.0719
    1W        W50538  11.084   6.330   2.674  0.1988  0.0532  0.3895
    1W        W50539   9.867  27.475   2.041 -0.1079 -0.1647  0.1740
    1W        W50540   4.728   0.682   0.017  0.1105 -0.1356 -0.2584
    1W        W50541   2.529   3.512   9.760 -0.0580  0.0501  0.0180
    1W        W50542  15.532  15.871   2.237 -0.3649  0.1466  0.0050
    1W        W50543   2.277  21.707   8.089 -0.3852  0.0014 -0.0616
    1W        W50544  13.648   9.818   1.898 -0.1151 -0.2707 -0.0686
    1W        W50545   0.739  14.750   1.978  0.1145  0.1183 -0.1226
    1W        W50546  12.084  11.074   9.635  0.0116  0.2597  0.3637
    1W        W50547  18.602   1.701   6.874 -0.0605  0.3237  0.0791
    1W        W50548   3.600   7.738   1.686  0.0912  0.3639  0.2000
    1W        W50549  25.901   2.638   0.944 -0.0193 -0.0042 -0.2711
    1W        W50550  16.764  23.429   0.818 -0.1188 -0.1879  0.3173
    1W        W50551  11.729  23.832   1.695 -0.0702  0.1163  0.2724
    1W        W50552  26.999   8.323   2.218  0.0183 -0.2506  0.1972
    1W        W50553  12.326  22.844   8.672 -0.0788  0.0444  0.1194
    1W        W50554  16.557   1.514   0.918 -0.0367 -0.0791  0.0269
    1W        W50555  27.257  28.002   0.491  0.2001  0.1191 -0.0235
    1W        W50556  22.090   7.577   8.742  0.1477  0.5079  0.2016
    1W        W50557  13.580  23.474   8.142 -0.0742  0.0142  0.0340
    1W        W50558   6.858  10.851   2.000 -0.0134  0.0769 -0.0588
    1W        W50559   4.535  11.966   2.296 -0.2436  0.1823 -0.2760
    1W        W50560  23.370  22.583   8.587 -0.1087 -0.1833  0.1304
    1W        W50561  13.539   7.982   9.182 -0.2407 -0.2429 -0.2861
    1W        W50562  14.601  22.493   8.256 -0.2659  0.0308  0.0164
    1W        W50563   2.967   8.221   0.572  0.0670 -0.1383 -0.1556
    1W        W50564  16.350  19.078   1.638 -0.1904  0.0964 -0.0326
    1W        W50565   7.723  24.700   7.558 -0.0778  0.0485  0.0845
    1W        W50566  24.837  28.484   8.662  0.0244 -0.1458  0.0232
    1W        W50567   4.809   8.030   9.528  0.1741 -0.1204  0.1319
    1W        W50568  15.891  21.050   8.057  0.2429  0.0604 -0.1080
    1W        W50569  24.895  13.262   0.726  0.0917 -0.2875 -0.4944
    1W        W50570  16.368  13.552   0.264 -0.3149 -0.0317  0.2540
    1W        W50571  23.613   1.700   7.861  0.2155  0.0419  0.0823
    1W        W50572  10.847   1.920   1.908  0.0467 -0.2343 -0.0811
    1W        W50573  12.744  14.714   2.158 -0.1824 -0.0627  0.0713
    1W        W50574   4.733  14.689   0.180 -0.0252 -0.1712 -0.1093
    1W        W50575  22.479   5.664   9.605  0.3667  0.0307  0.0985
    1W        W50576  24.641   5.442   7.701  0.0931 -0.3101  0.0833
    1W        W50577   9.800   4.313   0.307 -0.0676  0.3664 -0.4392
    1W        W50578  27.725  19.105   9.229  0.1271  0.1103 -0.0308
    1W        W50579   0.479   7.639   3.002  0.0582 -0.2129  0.1940
    1W        W50580  23.529   1.366   2.356 -0.0171 -0.2706 -0.2056
    1W        W50581   4.384   0.298   2.651 -0.0049 -0.2721 -0.1819
    1W        W50582   4.971   7.447   6.441  0.0319  0.3518 -0.0027
    1W        W50583   8.254  16.262   9.327 -0.0915 -0.0154 -0.1137
    1W        W50584  15.135   3.126   3.319 -0.2421 -0.1381  0.0378
    1W        W50585  11.036  22.362   7.254 -0.0512 -0.0792  0.0225
    1W        W50586  22.296   4.904   8.505  0.0815 -0.1693  0.3588
    1W        W50587  15.729  11.311   7.829 -0.1709  0.1066  0.1141
    1W        W50588  14.302   0.409   2.261 -0.0928  0.2987 -0.3371
    1W        W50589  22.914   4.477   3.348  0.1411 -0.1064 -0.0839
    1W        W50590  20.652   1.397   6.900 -0.1023  0.1625 -0.1481
    1W        W50591   3.658   6.719   7.190  0.5126 -0.2251  0.3213
    1W        W50592   3.959  26.622   6.282 -0.3950 -0.2331  0.2409
    1W        W50593  27.597   6.526   1.875 -0.2056 -0.0479 -0.1716
    1W        W50594  22.357  19.027   2.129 -0.0974  0.0485  0.1907
    1W        W50595  23.663  28.027   7.680  0.2412  0.0688  0.1022
    1W        W50596  20.640  25.985   0.045 -0.2905 -0.1154  0.0507
    1W        W50597   3.446  25.461   0.061  0.2243  0.3145 -0.0161
    1W        W50598   2.143  18.231   6.594  0.1530 -0.1356  0.0924
    1W        W50599  28.251   5.775   9.727 -0.2826  0.3456  0.0598
    1W        W50600  10.953  11.269   8.728  0.1939  0.0562 -0.1370
    1W        W50601  15.901  13.699   2.682  0.1101  0.0884  0.2849
    1W        W50602  16.315  19.825   8.446  0.0374  0.3052  0.1521
    1W        W50603  24.846  11.973   1.494 -0.0980  0.0127  0.0764
    1W        W50604  14.970  18.661   0.217  0.2637 -0.1518  0.0032
    1W        W50605  18.567  15.222   9.687  0.0605  0.1306  0.1695
    1W        W50606   5.800   2.396   1.335  0.3518  0.0265 -0.0427
    1W        W50607  16.266  10.928   8.463 -0.0691 -0.2377  0.1081
    1W        W50608   7.349  21.419   2.238 -0.0109 -0.1229 -0.0151
    1W        W50609  13.782  13.436   0.371 -0.0617 -0.0054 -0.2919
    1W        W50610   3.643   9.713   9.856 -0.3164 -0.2399  0.0819
    1W        W50611  26.740   8.623   2.635 -0.1427 -0.0403 -0.2505
    1W        W50612  19.939  25.611   1.267 -0.3454 -0.1258  0.0828
    1W        W50613  22.659   7.631   1.321  0.2657 -0.1056  0.2796
    1W        W50614   5.441  25.914   6.699 -0.0529  0.0170  0.2675
    1W        W50615   9.632  21.741   9.454 -0.0789  0.1860  0.0639
    1W        W50616  17.691  13.910   0.918 -0.1517  0.1679 -0.0237
    1W        W50617  14.721   2.354   8.042 -0.1313 -0.2276  0.2313
    1W        W50618  17.219  17.328   8.731  0.1522  0.0029  0.3347
    1W        W50619  23.810  25.668   2.544  0.3104  0.1048  0.1599
    1W        W50620  11.196   1.236   0.046  0.0897  0.1906 -0.0101
    1W        W50621  24.976  22.091   1.773 -0.0098  0.2263 -0.2098
    1W        W50622  25.726  22.234   6.900 -0.2567 -0.1095  0.0785
    1W        W50623   5.084  12.993   2.954 -0.0213 -0.1301  0.1525
    1W        W50624  16.017  27.390   8.743  0.2046 -0.0226  0.1234
    1W        W50625  22.171  19.741   9.094 -0.2102 -0.0218 -0.0046
    1W        W50626  21.675  14.126   1.039  0.0100  0.2398 -0.1174
    1W        W50627   2.679  16.066   0.874 -0.2921 -0.4043  0.0779
    1W        W50628  20.519   7.727   9.324 -0.1799 -0.1219  0.0763
    1W        W50629  19.093  21.247   9.330  0.0036  0.1246 -0.1006
    1W        W50630   8.713  21.680   1.673 -0.0093  0.2379  0.2090
    1W        W50631  14.322  26.897   2.861  0.0497 -0.0096 -0.0171
    1W        W50632   3.750   7.117   7.482  0.1428  0.3707  0.0658
    1W        W50633  19.078  21.219   1.504  0.1557 -0.0091 -0.4101
    1W        W50634  18.158  26.861   1.668  0.1080  0.0310  0.1747
    1W        W50635  21.341   1.640   1.959  0.2314  0.3218  0.0976
    1W        W50636  27.618  24.690   0.520 -0.2045 -0.0006 -0.0690
    1W        W50637  26.559  28.659   6.840  0.0184  0.3406 -0.1494
    1W        W50638  16.992  11.692   0.905  0.1088 -0.0254 -0.1517
    1W        W50639  15.871  27.820   3.916 -0.1958 -0.1521 -0.0638
    1W        W50640  21.600   4.879   1.051 -0.2330  0.0226 -0.0398
    1W        W50641   7.630   6.046   9.024 -0.0302  0.0487  0.1349
    1W        W50642  16.151   2.456   6.735 -0.0460 -0.0535  0.0231
    1W        W50643   7.825   6.700   9.937  0.0632 -0.0993  0.1424
    1W        W50644   4.689  26.877   1.907 -0.0115  0.0981 -0.0725
    1W        W50645   6.930   1.616   6.774 -0.1191 -0.2830  0.0697
    1W        W50646  10.622  26.780   9.518  0.1152 -0.4002 -0.0115
    1W        W50647  24.211  20.653   7.889 -0.1403  0.3974  0.0312
    1W        W50648  18.662  13.001   8.399  0.2338  0.2623 -0.3779
    1W        W50649   6.660  22.594   1.688  0.2416 -0.2231  0.0783
    1W        W50650  21.795   5.325   0.941 -0.0338 -0.0582 -0.0498
    1W        W50651   0.229  21.646   1.298 -0.0405  0.0731 -0.2054
    1W        W50652  25.491  17.058   2.288 -0.1640 -0.1384 -0.1522
    1W        W50653  19.139   7.549   7.785 -0.0214 -0.0823 -0.2157
    1W        W50654  27.302  14.688   7.629 -0.1885  0.2031  0.0131
    1W        W50655   8.934  16.128   9.914 -0.2200  0.1756  0.1575
    1W        W50656   5.153   9.315   8.617 -0.0295  0.1032 -0.1761
    1W        W50657  18.503  18.816   2.510 -0.2436 -0.0815 -0.1107
    1W        W50658   9.293  26.819   8.995 -0.1735 -0.1369  0.1564
    1W        W50659  12.035   0.194   1.922  0.1047  0.0108 -0.2284
    1W        W50660  23.823   0.486   2.445 -0.1584  0.0809 -0.0523
    1W        W50661   9.228  19.445   0.274  0.2649 -0.1504  0.1352
    1W        W50662  22.974   6.669   2.124  0.0083  0.2421  0.2198
    1W        W50663   9.885  15.292   7.440  0.3839 -0.1563 -0.0496
    1W        W50664  15.403   7.605   2.025  0.1731 -0.0301  0.0999
    1W        W50665  13.395  13.159   7.143  0.0654  0.1729 -0.0390
    1W        W50666   5.860  22.582   7.321  0.0044  0.1695 -0.1222
    1W        W50667  19.862   4.781   3.685  0.1099 -0.1016  0.3339
    1W        W50668   1.963   6.370   6.136  0.2902 -0.0863 -0.4111
    1W        W50669   9.886  27.831   2.474  0.1898 -0.2601  0.3175
    1W        W50670  16.385  26.725   7.376  0.4019  0.1385  0.1290
    1W        W50671   7.014   5.642   0.398  0.2373 -0.1849 -0.0582
    1W        W50672  25.318   3.943   5.901 -0.2421  0.1176 -0.1949
    1W        W50673   1.347  22.692   2.734  0.1363  0.0348  0.0159
    1W        W50674  13.366  11.869   8.170  0.1594 -0.0366 -0.1965
    1W        W50675  11.267  25.852   2.708 -0.1181  0.1499  0.2315
    1W        W50676  17.913  11.178   7.444 -0.2304  0.0838  0.0297
    1W        W50677   7.667  19.413   9.134  0.0661 -0.6289  0.0512
    1W        W50678   1.196  25.856   0.339  0.0766  0.2065 -0.1428
    1W        W50679   5.249   6.676   9.237 -0.0200  0.3302 -0.1697
    1W        W50680  17.118   4.405   9.081 -0.0743  0.1104  0.0883
    1W        W50681  12.064  11.278   1.110 -0.3040 -0.2093 -0.2402
    1W        W50682  27.359  15.295   2.490 -0.1773  0.1115 -0.0382
    1W        W50683   3.451   7.243   2.832  0.1094 -0.0635 -0.0668
    1W        W50684   4.113  21.672   0.149  0.1707 -0.2811  0.0196
    1W        W50685  13.392  14.587   9.713 -0.3283  0.0618  0.2194
    1W        W50686  26.377  19.356   7.795  0.2784  0.0883  0.0918
    1W        W50687  11.398  10.065   9.568 -0.0718 -0.0746 -0.0937
    1W        W50688  13.205   7.121   9.049 -0.0328  0.3888  0.3447
    1W        W50689   8.746   7.776   3.621 -0.1787  0.1162  0.1387
    1W        W50690   0.421  10.507   9.081 -0.1600  0.0504  0.0368
    1W        W50691   6.589  16.124   6.966 -0.0765  0.1870  0.0177
    1W        W50692   5.274  13.411   0.860 -0.1185  0.2020 -0.1565
    1W        W50693  13.894   8.578   8.402 -0.0701 -0.0670  0.2518
    1W        W50694  24.616  11.044   7.089 -0.1849 -0.3446 -0.2675
    1W        W50695  20.114   9.154   1.580  0.0375  0.0533 -0.2092
    1W        W50696   4.514  23.576   0.047 -0.1601  0.1363 -0.0251
    1W        W50697   7.312   3.970   1.523 -0.0508 -0.2551 -0.0651
    1W        W50698  22.168  23.474   1.544  0.0224  0.1006 -0.2674
    1W        W50699  28.131  28.642   9.336 -0.1848 -0.3143  0.0197
    1W        W50700   0.427   7.986   7.464  0.1688 -0.1341  0.2531
    1W        W50701  22.329  23.424   0.743  0.2864  0.1705  0.0840
    1W        W50702  11.035   9.424   0.266 -0.2069  0.1559 -0.0115
    1W        W50703  27.946  24.638   1.316  0.4175 -0.0662  0.1521
    1W        W50704   3.896  12.900   1.578  0.1983 -0.1394 -0.1331
    1W        W50705  16.343  15.216   1.834  0.1759 -0.1945 -0.1555
    1W        W50706  22.313  28.595   7.901  0.2500 -0.3131 -0.2326
    1W        W50707  11.202   3.698   1.784 -0.1406 -0.3805 -0.3067
    1W        W50708  12.218   0.843   9.031 -0.5091 -0.1888 -0.2314
    1W        W50709  17.139  16.714   0.586  0.1958  0.2234  0.1009
    1W        W50710   5.205  14.740   8.143  0.2145  0.0585  0.2771
    1W        W50711  24.549  27.037   7.024  0.1129  0.1677  0.3102
    1W        W50712   3.739  24.555   1.003 -0.1400  0.1433 -0.3751
    1W        W50713  27.894  22.855   2.711 -0.4156 -0.0729 -0.1166
    1W        W50714  27.864  16.385   6.378 -0.2248  0.1025 -0.0783
    1W        W50715  25.165   0.689   9.193 -0.2977  0.0243  0.0849
    1W        W50716   1.498   1.854   0.085  0.1284  0.0195  0.1692
    1W        W50717  28.630  25.139   8.564 -0.3168 -0.0948 -0.1811
    1W        W50718   1.955  15.585   9.960  0.4724  0.1369 -0.2190
    1W        W50719  21.194  23.024   2.245  0.3405 -0.1619  0.0802
    1W        W50720  15.987   3.190   9.444  0.0349  0.1128  0.0673
    1W        W50721  23.935  10.539   1.770 -0.1435  0.4796  0.0486
    1W        W50722  22.080   6.288   8.198 -0.0833 -0.3174  0.0093
    1W        W50723   5.104  13.189   1.910 -0.3240 -0.0844 -0.3315
    1W        W50724  24.224  17.124   9.379 -0.2695 -0.0942  0.1124
    1W        W50725  26.132  21.493   6.255  0.0302 -0.1150 -0.2597
    1W        W50726  17.990  15.895   8.690  0.1585 -0.0710 -0.1019
    1W        W50727  28.324  24.650   0.501  0.1236  0.0789 -0.0817
    1W        W50728  11.716   7.402   8.586  0.0948  0.1932  0.6240
    1W        W50729   5.180  23.333   7.113  0.1807  0.2378 -0.0202
    1W        W50730  14.530  28.411   8.890 -0.0580 -0.0196 -0.1268
    1W        W50731   6.501   1.708   2.731 -0.0433  0.2885  0.2321
    1W        W50732  20.281   6.457   2.709  0.1689  0.0524 -0.1105
    1W        W50733  18.137   5.683   0.739 -0.0088 -0.0325  0.3625
    1W        W50734   4.079  15.323   9.430 -0.3629  0.0206 -0.0853
    1W        W50735   4.649   8.125   9.060  0.0692  0.2904 -0.0722
    1W        W50736  27.368  25.076   3.471  0.0926 -0.1381 -0.0755
    1W        W50737  12.103   5.516   2.990  0.4994  0.3152  0.2551
    1W        W50738  11.083  23.069   6.947 -0.0271  0.3723 -0.0302
    1W        W50739  22.600  25.267   9.581  0.0409 -0.1190 -0.0960
    1W        W50740   1.262   1.380   8.289  0.1076 -0.0598  0.2955
    1W        W50741  26.822  18.915   0.415  0.0269 -0.3771 -0.2035
    1W        W50742   2.240  15.959   2.589  0.1657  0.1577  0.0562
    1W        W50743  22.676  17.110   0.452 -0.2821  0.0221 -0.0318
    1W        W50744  15.416  28.107   8.290 -0.1287 -0.0702  0.3140
    1W        W50745  22.750   2.411   6.807 -0.3057  0.0190  0.1995
    1W        W50746  15.193  14.657   7.615  0.1539 -0.2609 -0.2081
    1W        W50747  15.367  25.895   9.240  0.2641  0.0902  0.0282
    1W        W50748  21.951  14.572   7.844 -0.1234  0.3833  0.1669
    1W        W50749  11.079   7.951   2.106  0.3739 -0.2392 -0.0027
    1W        W50750  26.709  25.497   9.666  0.1064  0.1085 -0.1236
    1W        W50751  26.136  24.999   7.107  0.2739  0.0636  0.1225
    1W        W50752   7.868  20.818   8.551  0.2817  0.0828 -0.0264
    1W        W50753  13.783  24.894   3.601 -0.1200 -0.1772  0.1871
    1W        W50754   7.979  18.947   0.908  0.0459 -0.1443  0.1681
    1W        W50755  14.863  17.985   2.284 -0.0908 -0.1601  0.1371
    1W        W50756  12.927   1.627   0.369  0.0494 -0.1137 -0.2788
    1W        W50757  20.250  14.730   8.998  0.2075  0.1367 -0.3794
    1W        W50758  13.759   9.470   0.463 -0.1411 -0.1884  0.0253
    1W        W50759  16.112   2.010   1.829 -0.0989 -0.0387  0.1749
    1W        W50760  20.076  28.190   6.568  0.2207 -0.0505  0.2627
    1W        W50761  15.578  10.746   2.574  0.0232  0.0028 -0.0004
    1W        W50762  19.526   1.002   7.193 -0.0554 -0.1040  0.1598
    1W        W50763   6.696   8.173   0.097  0.1594 -0.1614 -0.1425
    1W        W50764  28.478  24.532   3.274  0.1846 -0.0443 -0.1157
    1W        W50765   3.105  27.130   1.261 -0.2311  0.2794 -0.2966
    1W        W50766  27.734  27.984   0.610 -0.1453  0.1563  0.2114
    1W        W50767  14.709  27.249   3.042 -0.0797 -0.3336  0.1062
    1W        W50768  24.574  14.040   7.364 -0.0534 -0.1852  0.0003
    1W        W50769   8.206  25.050   7.500  0.1309 -0.2438 -0.1618
    1W        W50770  23.523  23.144   9.430  0.2723  0.4657 -0.0343
    1W        W50771   8.355  11.172   9.336 -0.0130 -0.0543  0.1009
    1W        W50772  28.171  17.179   6.390 -0.0395 -0.0424 -0.2460
    1W        W50773  14.090  20.360   3.379 -0.2999 -0.0820  0.0590
    1W        W50774   3.428   4.961   2.678  0.1630 -0.2695 -0.1160
    1W        W50775  27.168   2.966   9.655  0.0439  0.0119 -0.1337
    1W        W50776   0.113  20.372   7.059 -0.2474  0.4604  0.0860
    1W        W50777  22.919  25.848   2.526  0.2570  0.0747 -0.0909
    1W        W50778  18.990   9.577   9.474 -0.2110 -0.0776 -0.1242
    1W        W50779  15.716   0.484   1.539  0.0998  0.2017  0.1233
    1W        W50780   3.994  14.419   6.667 -0.1017 -0.4173  0.1620
    1W        W50781  23.865  16.642   8.908 -0.1711  0.2219  0.0155
    1W        W50782  16.943   3.615   8.052 -0.4050  0.1349 -0.1724
    1W        W50783  25.973   7.411   7.304 -0.3209  0.0782  0.2280
    1W        W50784   9.204   1.062   2.769 -0.1808  0.2079 -0.0568
    1W        W50785  20.042  26.931   3.947  0.0080 -0.3672  0.2297
    1W        W50786   0.865  18.112   9.317  0.0929 -0.1383  0.3131
    1W        W50787  23.079   5.642   7.324  0.0799 -0.2065 -0.0640
    1W        W50788  26.689   1.171   3.346  0.0225  0.1249 -0.2059
    1W        W50789  14.602   5.375   2.998 -0.0067  0.0266 -0.1307
    1W        W50790   6.473   0.478   7.004  0.3377  0.1425  0.1557
    1W        W50791   8.600  27.508   2.656 -0.2540  0.0614  0.1415
    1W        W50792   3.405  14.631   2.454  0.0355  0.0960 -0.0005
    1W        W50793  15.944  26.878   7.092 -0.3740 -0.2682 -0.1989
    1W        W50794  27.033  10.702   7.636 -0.0610 -0.1313 -0.2344
    1W        W50795  11.557  14.045   7.900 -0.0414 -0.2676  0.2744
    1W        W50796   4.939  10.830   3.468  0.1249  0.5066 -0.0405
    1W        W50797  23.591   3.245   7.660 -0.4903 -0.3122 -0.0036
    1W        W50798  17.062  22.871   8.167 -0.1773  0.1607  0.1322
    1W        W50799  17.476  28.113   0.474  0.1216  0.4484 -0.1736
    1W        W50800  15.233   1.763   8.752 -0.1969 -0.0794  0.1795
    1W        W50801   4.933   5.213   2.462 -0.0168  0.0001 -0.2265
    1W        W50802  27.656  17.909   7.824 -0.0262  0.4602  0.0564
    1W        W50803   0.335  23.608   8.295 -0.0621  0.1327  0.1690
    1W        W50804   3.938  17.136   8.823  0.1313  0.1569  0.0747
    1W        W50805   6.441  17.015   9.573  0.0160 -0.2328 -0.0092
    1W        W50806  22.042  15.757   1.586 -0.1365 -0.0664  0.1892
    1W        W50807   1.671  24.416   7.721 -0.1042  0.0155 -0.0988
    1W        W50808  14.338   9.295   9.832  0.2839  0.2623 -0.1013
    1W        W50809   3.085   0.225   1.446  0.5008 -0.0143 -0.0504
    1W        W50810  28.160   4.314   7.983  0.1574  0.2731 -0.2408
    1W        W50811  25.783  14.668   0.166 -0.0762  0.0499 -0.0421
    1W        W50812   0.287  20.019   0.599  0.0217 -0.0768 -0.2489
    1W        W50813  20.369  20.436   8.877  0.1545 -0.1637  0.1661
    1W        W50814   3.052  12.005   8.579 -0.0042  0.3018  0.1576
    1W        W50815  16.648  17.626   2.313  0.0838  0.1874 -0.0628
    1W        W50816  25.051  27.858   2.447  0.2306 -0.1365 -0.0539
    1W        W50817   6.367  21.107   6.994  0.2681 -0.0022 -0.2753
    1W        W50818  24.028   6.082   9.853 -0.4708 -0.0570  0.1070
    1W        W50819  20.558  19.615   8.593  0.1408 -0.2510  0.0501
    1W        W50820  22.390   5.036   0.512  0.1661  0.4071  0.1537
    1W        W50821  17.721  11.424   9.441  0.1166  0.1273  0.1357
    1W        W50822   4.706   2.390   9.163 -0.0308  0.1478  0.2679
    1W        W50823   6.936   4.442   2.718  0.0396 -0.0586  0.1270
    1W        W50824   3.639   8.626   0.960  0.0486  0.1676  0.2579
    1W        W50825   4.209  12.309   0.156  0.2351 -0.1585 -0.1020
    1W        W50826  14.160  14.735   8.729 -0.0651  0.1134  0.1303
    1W        W50827  13.288   3.476   8.723 -0.2373  0.6651  0.0428
    1W        W50828  21.569  18.760   0.730  0.0650 -0.2665 -0.0157
    1W        W50829  24.434   0.548   2.826 -0.0808  0.0799  0.3250
    1W        W50830  10.398   2.206   8.198  0.0050 -0.1424 -0.1944
    1W        W50831  18.896  21.826   0.720  0.0616  0.4269  0.2313
    1W        W50832  22.077  15.999   2.573  0.0699  0.0642 -0.5690
    1W        W50833  13.787  21.228   9.795 -0.0149  0.0795  0.1057
    1W        W50834   1.141   1.027   9.375 -0.1903  0.0383  0.2898
    1W        W50835  23.353  12.864   0.502 -0.1125 -0.0487  0.1496
    1W        W50836   6.563   9.091   2.649  0.0211 -0.4822 -0.1347
    1W        W50837   7.359  14.144   1.361  0.1038 -0.0625 -0.1035
    1W        W50838  26.484   6.122   7.089 -0.2409 -0.1519  0.1399
    1W        W50839  20.849  10.514   8.918 -0.1090 -0.0239 -0.1830
    1W        W50840  19.438  19.157   7.911 -0.1660  0.2946  0.2132
    1W        W50841  27.734  24.655   7.857 -0.0628 -0.0451  0.0460
    1W        W50842  14.313  21.365   1.956  0.1607  0.0393 -0.0973
    1W        W50843   3.609   8.663   2.627  0.2993 -0.3634 -0.2020
    1W        W50844  13.311  26.515   9.035 -0.2010  0.1526  0.1606
    1W        W50845  15.334  24.524   7.879 -0.0973 -0.2030  0.3170
    1W        W50846  24.226   4.160   1.038  0.2259  0.1335  0.0086
    1W        W50847  12.004   1.384   9.743  0.0775  0.2475 -0.2208
    1W        W50848   3.802  22.705   8.912 -0.3482 -0.2667  0.1824
    1W        W50849  11.689  28.483   7.449  0.0767 -0.0695 -0.0448
    1W        W50850  12.927   8.299   7.732 -0.1812 -0.0507  0.1430
    1W        W50851  25.792  20.996   7.705 -0.1568 -0.4840 -0.0589
    1W        W50852  24.755   0.043   2.064  0.0597  0.1222  0.0320
    1W        W50853  27.184  24.733   7.790  0.0185 -0.2154  0.0744
    1W        W50854  21.700   9.717   3.722 -0.0527 -0.0872  0.0005
    1W        W50855  20.121   5.625   9.360 -0.0420 -0.1363  0.0591
    1W        W50856   7.340  28.441   0.727 -0.0145 -0.1340  0.2134
    1W        W50857   1.533   1.883   6.191  0.0247 -0.0534  0.2178
    1W        W50858   3.597   5.603   1.558 -0.2658  0.3023 -0.4037
    1W        W50859   5.683  17.241   7.253 -0.0392  0.2296 -0.1749
    1W        W50860  12.338   0.526   1.668  0.4425  0.0599 -0.1832
    1W        W50861   4.841  15.517   0.505  0.3388  0.0560 -0.1536
    1W        W50862  27.945  23.408   7.535 -0.0788  0.1131 -0.2323
    1W        W50863  16.321  15.159   0.505  0.0985  0.0972 -0.0766
    1W        W50864   9.821  13.257   9.866 -0.0349  0.0060 -0.0741
    1W        W50865   5.657  18.095   9.225 -0.0588  0.1275 -0.1131
    1W        W50866  24.678  16.312   2.390 -0.2606 -0.0329  0.3433
    1W        W50867  19.039  18.999   7.744  0.0128 -0.0362  0.0625
    1W        W50868   9.761  18.812   0.874 -0.0233 -0.0127  0.0793
    1W        W50869   1.562  13.360   0.880 -0.0034  0.1446  0.0142
    1W        W50870  11.848  13.687   2.170  0.1660  0.0689  0.3950
    1W        W50871   0.756   0.502   1.057  0.2143 -0.0942 -0.2239
    1W        W50872   4.017   3.340   9.721  0.0619 -0.0101  0.1773
    1W        W50873   1.848  15.917   6.473  0.1889  0.1919 -0.0141
    1W        W50874   8.857  10.616   3.543  0.0971  0.0387 -0.2422
    1W        W50875  26.557  14.187   7.104  0.2365  0.2204 -0.1728
    1W        W50876  22.806  24.776   9.563 -0.2614 -0.0121  0.0239
    1W        W50877  20.100   8.993   7.883  0.0064  0.2231 -0.0032
    1W        W50878  11.417   3.770   8.854  0.0503 -0.0609  0.2847
    1W        W50879  20.410  26.444   9.067 -0.1213 -0.1740  0.0264
    1W        W50880  26.049  27.746   1.229  0.1138 -0.3491 -0.3997
    1W        W50881   1.213   0.883   8.352 -0.0814 -0.3498  0.0141
    1W        W50882  18.962  17.440   9.248  0.0874  0.1614 -0.0462
    1W        W50883  13.708  17.093   8.307  0.1805 -0.1512 -0.1142
    1W        W50884  20.700  24.997   0.359  0.1884 -0.0677 -0.0732
    1W        W50885  27.768  26.827   9.034 -0.0421 -0.3627 -0.1845
    1W        W50886   9.145  24.904   8.957 -0.0400 -0.2796  0.1616
    1W        W50887   3.009  28.281   8.705  0.1631  0.0450 -0.0528
    1W        W50888  16.925  19.499   9.351 -0.0052 -0.1873  0.3066
    1W        W50889  28.274   4.299   3.057 -0.0140  0.0836 -0.1553
    1W        W50890  25.829  23.287   1.203 -0.2484  0.2729 -0.4203
    1W        W50891  12.840  27.743   8.534 -0.2870 -0.1996  0.0548
    1W        W50892  22.680  19.753   9.015  0.1426  0.0779  0.0992
    1W        W50893  18.990  19.247   0.619  0.0896 -0.1662  0.0140
    1W        W50894  17.390   6.464   2.691 -0.1021  0.2262 -0.0822
    1W        W50895  16.611  10.099   2.700 -0.0868  0.2751 -0.0445
    1W        W50896  15.308  20.493   9.202 -0.1305  0.2645  0.0572
    1W        W50897  20.240   4.514   2.804  0.1836  0.1905  0.0637
    1W        W50898  27.473  16.175   1.512  0.0142 -0.2321 -0.1062
    1W        W50899  16.828  12.221   0.067  0.0257 -0.0443  0.2493
    1W        W50900  15.112  16.643   0.644 -0.1356  0.0604 -0.1722
    1W        W50901  12.534   5.625   3.361  0.0902 -0.0930 -0.0969
    1W        W50902  21.713  18.532   0.276 -0.0572 -0.0390 -0.0408
    1W        W50903  21.872  22.704   7.834  0.0251 -0.2207 -0.2496
    1W        W50904   5.047  17.796   8.855 -0.1816  0.1746  0.2875
    1W        W50905  25.601   6.420   0.010  0.1852  0.0496 -0.0028
    1W        W50906  18.038  12.815   9.154  0.0951 -0.0171  0.0022
    1W        W50907   8.418   3.450   0.796  0.2567  0.0917  0.2865
    1W        W50908   7.885  23.551   8.580 -0.2492 -0.0691 -0.0140
    1W        W50909  12.747   1.318   2.708 -0.0551 -0.0097 -0.0142
    1W        W50910  10.442   3.842   8.922 -0.6527 -0.2803 -0.1797
    1W        W50911  10.646   7.237   1.588  0.0468  0.0542  0.3903
    1W        W50912  16.095  18.010   8.344 -0.0484  0.1855  0.1832
    1W        W50913   0.710  24.230   9.823 -0.0691 -0.2399 -0.1719
    1W        W50914  24.924  17.392   8.573 -0.1767 -0.4305 -0.1217
    1W        W50915   8.608  27.378   9.356 -0.2503  0.1663 -0.2016
    1W        W50916   7.928   4.011   7.303  0.3220 -0.2552  0.2910
    1W        W50917   6.272   4.801   2.290  0.1630  0.1500 -0.2525
    1W        W50918  18.641   5.759   2.750 -0.0480  0.1462  0.2644
    1W        W50919   9.414  14.245   1.970  0.0873 -0.1242 -0.1970
    1W        W50920  13.243  23.072   1.280 -0.0688  0.1250 -0.2770
    1W        W50921  18.971   2.079   8.875  0.2332  0.2868  0.2283
    1W        W50922  14.854   7.678   9.214  0.2292 -0.0199  0.0395
    1W        W50923  17.265   8.703   1.342  0.0450  0.1384  0.0135
    1W        W50924   6.502  19.968   9.615 -0.3191  0.0855  0.1840
    1W        W50925  26.594   1.141   9.734 -0.1264 -0.2534  0.1855
    1W        W50926   2.221  28.383   0.123 -0.0638 -0.0006  0.0796
    1W        W50927  24.430  24.706   2.319  0.0553  0.2222 -0.1132
    1W        W50928  14.087  23.406   7.958 -0.0397  0.0494  0.0251
    1W        W50929  18.086  22.322   2.667  0.0424 -0.1784  0.1983
    1W        W50930  13.932   6.409   9.181  0.1351  0.2532 -0.0379
    1W        W50931  24.957   8.278   0.147  0.4691 -0.0831 -0.1494
    1W        W50932  10.853  22.530   8.949 -0.2359  0.2007 -0.1131
    1W        W50933   6.625  10.692   1.603 -0.1735  0.3059  0.0627
    1W        W50934   6.890   6.295   3.120 -0.0474  0.1411 -0.0772
    1W        W50935   3.809  26.699   1.968 -0.0052  0.1642 -0.1145
    1W        W50936  24.625   0.560   2.245  0.2650  0.1913 -0.4382
    1W        W50937  18.501   8.445   8.393  0.2530  0.1298  0.0130
    1W        W50938   2.931  21.049   5.953 -0.1953  0.0060 -0.0614
    1W        W50939  14.542  10.008   9.438  0.0678 -0.0537 -0.0685
    1W        W50940  10.259   0.990   7.916  0.0330 -0.1796  0.1295
    1W        W50941  12.739  20.937   8.188 -0.1311  0.0780 -0.3257
    1W        W50942   6.068   7.356   2.311 -0.1541  0.1699  0.0597
    1W        W50943  17.076  15.110   1.021  0.2767  0.0135 -0.1861
    1W        W50944  13.409   3.591   7.508  0.3173 -0.3102 -0.2484
    1W        W50945  20.264   2.439   1.685  0.1137 -0.0610  0.0143
    1W        W50946   5.961  23.914   7.843  0.2185  0.0929 -0.1798
    1W        W50947  22.408  28.132   7.064  0.0260  0.0334 -0.1828
    1W        W50948   8.713   1.837   2.826  0.2249  0.1715 -0.1673
    1W        W50949  23.809   3.759   6.747  0.0405 -0.0994  0.0802
    1W        W50950   3.552  11.554   0.420 -0.0546  0.2003 -0.1506
    1W        W50951  21.367  10.684   8.329  0.0486  0.0492 -0.0109
    1W        W50952  26.985  15.327   6.457  0.0088 -0.0603  0.2453
    1W        W50953   7.723  20.503   2.245  0.1777 -0.2252  0.2157
    1W        W50954  10.270  21.166   9.450 -0.2536 -0.1360  0.1120
    1W        W50955  11.315  18.891   2.251  0.0652  0.0749 -0.0100
    1W        W50956  16.039   3.655   3.299  0.1905  0.0671  0.1728
    1W        W50957   5.462  10.565   9.127  0.1908 -0.2900 -0.2334
    1W        W50958   8.761   1.309   1.384  0.3347 -0.3922  0.3563
    1W        W50959  24.452  14.028   3.107 -0.0961  0.0569  0.3345
    1W        W50960  13.189  23.640   7.370  0.0979  0.2870  0.1892
    1W        W50961   3.218  18.820   7.483 -0.2052 -0.4128  0.1941
    1W        W50962  14.095  27.625   2.454 -0.0629 -0.5324 -0.3034
    1W        W50963  11.878   6.262   7.851 -0.0530  0.2263 -0.2692
    1W        W50964   7.282  25.401   8.129  0.0423  0.0199  0.1367
    1W        W50965   7.240   7.485   0.722  0.0143 -0.2034 -0.1819
    1W        W50966  27.462   8.399   8.162  0.0785  0.1048 -0.2271
    1W        W50967  20.163   5.800   3.484 -0.0043  0.1201  0.2884
    1W        W50968   7.473  22.069   7.174 -0.0098 -0.1550 -0.1609
    1W        W50969  26.631  14.161   9.199  0.1541 -0.0991  0.1709
    1W        W50970  28.022  11.736   1.881 -0.1763  0.1314  0.0222
    1W        W50971  19.153  27.416   3.087 -0.0790 -0.0079  0.2521
    1W        W50972  15.616  28.031   1.746 -0.1394  0.2388  0.1119
    1W        W50973  22.415  26.416   0.997 -0.3150 -0.3077 -0.0769
    1W        W50974  18.751  21.022   0.774  0.4328 -0.1343 -0.1085
    1W        W50975  22.018  23.324   8.697 -0.0865  0.2179  0.0654
    1W        W50976  24.056  14.696   0.638 -0.0363  0.3086 -0.2098
    1W        W50977  19.770  13.291   8.239 -0.2029  0.1122  0.0162
    1W        W50978   9.079  23.681   7.190 -0.2344  0.1729 -0.0865
    1W        W50979   6.103  27.568   8.358 -0.2035  0.5301 -0.1664
    1W        W50980  18.032   2.294   1.370  0.3817  0.3002 -0.0779
    1W        W50981  13.948  23.851   8.121 -0.1584 -0.1739 -0.0130
    1W        W50982   8.960  26.463   0.197  0.0279  0.0556 -0.0205
    1W        W50983  28.340  17.198   5.631 -0.0750  0.0028 -0.0307
    1W        W50984  17.343   2.075   0.224  0.1060 -0.2930 -0.0632
    1W        W50985   9.841  28.184   7.138  0.1685 -0.0881 -0.0325
    1W        W50986  23.276  25.539   1.582  0.0225 -0.1553  0.3381
    1W        W50987  19.032   4.704   1.325 -0.0623 -0.1063  0.1024
    1W        W50988  16.692   6.084   2.211 -0.0492  0.1201 -0.1203
    1W        W50989  27.177  16.470   7.610  0.3297  0.3433 -0.0803
    1W        W50990   9.058  13.911   7.304  0.0634  0.1768  0.3236
    1W        W50991   0.189  24.279   1.728  0.2651  0.0376  0.2876
    1W        W50992   0.218  15.830   6.688 -0.1884  0.4395  0.1392
    1W        W50993   4.423   5.222   0.453  0.1102 -0.0610 -0.1158
    1W        W50994  10.319  12.840   9.320  0.1921  0.3942 -0.0363
    1W        W50995  13.119  23.230   9.237  0.0306 -0.2573 -0.0955
    1W        W50996   3.658   4.437   7.867  0.0206  0.2168 -0.0282
    1W        W50997  20.879   9.204   9.038 -0.0809 -0.0629 -0.0233
    1W        W50998   2.296  19.679   6.232 -0.4730  0.1899  0.1195
    1W        W50999  18.029   0.058   1.106  0.1972  0.1272  0.1627
    1W        W51000  24.530  16.922   6.650 -0.1341  0.1238 -0.0922
    1W        W51001  22.927  22.341   8.987 -0.2911  0.0057 -0.1731
    1W        W51002   3.837  11.959   0.389 -0.2020 -0.2392  0.1607
    1W        W51003  23.832  22.255   0.336  0.2881  0.1778  0.1007
    1W        W51004   5.788  14.897   6.759 -0.2441 -0.0425  0.0614
    1W        W51005  25.444  15.589   1.537 -0.0022  0.1226  0.2037
    1W        W51006  10.788   2.127   8.579 -0.1161 -0.1695  0.0650
    1W        W51007  19.945  26.053   8.671 -0.3098 -0.2194  0.1565
    1W        W51008   7.912   3.823   7.787 -0.1332 -0.0603 -0.1768
    1W        W51009   4.462   4.267   0.949  0.2364  0.1121  0.0150
    1W        W51010  13.661  27.454   0.484 -0.0042  0.0560  0.1690
    1W        W51011  14.633   7.663   8.744 -0.0089 -0.2036 -0.2052
    1W        W51012  24.389   6.065   1.605  0.1405 -0.0406 -0.0290
    1W        W51013  26.306  17.878   8.049 -0.1742  0.1555 -0.2048
    1W        W51014   4.766  27.754   8.012  0.2868  0.2252  0.0302
    1W        W51015  15.188  27.196   1.391 -0.0718  0.3017 -0.1528
    1W        W51016   5.128  28.493   2.411 -0.0520 -0.1973  0.0706
    1W        W51017  22.960   5.788   2.862  0.0575  0.0898  0.0255
    1W        W51018  16.137  26.193   1.829 -0.0021  0.1216 -0.1602
    1W        W51019   8.586   4.480   9.146 -0.1534  0.0950  0.3026
    1W        W51020  10.888  20.616   6.642 -0.1018  0.0861 -0.0531
    1W        W51021  10.754  23.301   8.847 -0.1722  0.2388 -0.1976
    1W        W51022  13.731   5.606   0.607  0.2331 -0.0778 -0.0927
    1W        W51023   0.675   6.798   6.877  0.2382 -0.0087  0.1408
    1W        W51024  11.208  27.230   2.319  0.2653 -0.3234 -0.0591
    1W        W51025   9.064  13.143   0.082 -0.1565 -0.2286 -0.0614
    1W        W51026   3.080  14.396   1.354  0.3615  0.0025  0.0246
    1W        W51027   1.748  11.242   9.395  0.0544 -0.0803  0.3388
    1W        W51028  28.363  27.885   1.732  0.0950 -0.1491  0.0400
    1W        W51029  23.432   1.951   7.045  0.0071  0.2939  0.0466
    1W        W51030  15.579  19.615   9.235  0.0515 -0.1339  0.0647
    1W        W51031  24.223  26.111   8.872 -0.0289  0.1256 -0.2171
    1W        W51032   1.478  27.953   9.179 -0.2883  0.2679  0.2333
    1W        W51033  27.250  24.380   2.232 -0.1342 -0.0296  0.0424
    1W        W51034  15.381  22.481   1.446 -0.0718  0.0682  0.1018
    1W        W51035  13.438  27.377   1.773 -0.4554  0.0920  0.0516
    1W        W51036   9.430  14.308   1.332  0.0293  0.1252  0.0318
    1W        W51037   6.083  20.168   9.128 -0.1720 -0.1094 -0.1824
    1W        W51038   8.297  17.144   9.009 -0.2585 -0.2497  0.1520
    1W        W51039  17.952  21.579   7.793 -0.0741 -0.0928  0.1857
    1W        W51040  12.361  17.882   8.471  0.0917 -0.1726 -0.3854
    1W        W51041   9.189  25.367   7.998 -0.1412  0.1713 -0.0912
    1W        W51042   2.818  16.125   6.132  0.0741  0.0640  0.2271
    1W        W51043  12.759   8.683   2.032 -0.2816  0.0873  0.1101
    1W        W51044  23.451  10.850   8.086 -0.0869  0.1807 -0.0702
    1W        W51045   5.260  18.492   1.484 -0.0252  0.1151  0.2640
    1W        W51046   7.330  21.401   8.371 -0.1989 -0.2144  0.1343
    1W        W51047   7.318  14.218   1.848  0.2162 -0.2326 -0.0432
    1W        W51048   8.733  23.967   9.006 -0.0820 -0.0374  0.1144
    1W        W51049  20.372   7.106   2.304  0.2533 -0.0443 -0.1205
    1W        W51050   1.791  16.815   8.517  0.1101 -0.3158 -0.0531
    1W        W51051   3.534  20.573   9.837  0.1359 -0.1582  0.1915
    1W        W51052  11.863  21.937   1.789  0.0396  0.0118  0.1485
    1W        W51053  15.756  11.831   7.692  0.1382 -0.0349  0.1319
    1W        W51054  27.090   1.961   8.308  0.0532 -0.0981  0.0786
    1W        W51055   9.132  25.647   6.246  0.0546 -0.0126 -0.0177
    1W        W51056  16.423   6.306   0.939  0.1109 -0.2059  0.0583
    1W        W51057   2.199  17.582   2.278 -0.0642 -0.4068  0.2125
    1W        W51058   4.703  22.168   8.826  0.0732 -0.0497  0.0707
    1W        W51059  16.310   9.777   2.281 -0.0888 -0.0164 -0.0896
    1W        W51060   9.528  19.397   8.121 -0.1782  0.0283  0.1130
    1W        W51061   8.565   9.930   2.852  0.0529 -0.1622 -0.0193
    1W        W51062   0.298  18.112   0.112  0.1983 -0.1470  0.1413
    1W        W51063  22.315  19.345   0.182  0.0723 -0.1944  0.2645
    1W        W51064  12.706  26.038   1.896 -0.0361 -0.0271 -0.1111
    1W        W51065   9.387   3.109   8.683 -0.1812  0.2686  0.1639
    1W        W51066  25.156   6.791   1.196 -0.1933 -0.2348 -0.0158
    1W        W51067  10.408  11.157   8.518  0.0489  0.1893  0.2535
    1W        W51068  18.493  21.562   2.118 -0.0099 -0.0014  0.2136
    1W        W51069   1.814  13.410   9.557  0.0658 -0.0319 -0.1827
    1W        W51070  24.546  24.893   0.724 -0.3520  0.1593  0.2900
    1W        W51071   7.853  24.372   1.290 -0.1032  0.0510  0.3567
    1W        W51072   6.905   5.773   3.121 -0.1702  0.1110 -0.1226
    1W        W51073  21.918  24.599   9.608  0.0298 -0.2080  0.2458
    1W        W51074  24.646   3.324   0.627 -0.0582 -0.2396 -0.2356
    1W        W51075  20.192   3.617   3.111 -0.1396 -0.3064 -0.2122
    1W        W51076  18.173   5.583   3.722  0.2070 -0.1173  0.0495
    1W        W51077  26.062  13.171   6.685 -0.0891 -0.2921 -0.2918
    1W        W51078  23.959  16.475   0.222 -0.1041 -0.2445  0.1230
    1W        W51079   1.321   2.666   8.258  0.3099 -0.1070 -0.3192
    1W        W51080  14.830   2.297   9.464 -0.2149  0.2093 -0.0293
    1W        W51081  18.045  24.980   7.059 -0.1021  0.0459  0.1150
    1W        W51082  11.471   6.714   3.361 -0.2763  0.0011  0.0113
    1W        W51083   3.661   1.226   2.035 -0.1731  0.1325 -0.1740
    1W        W51084   0.604   9.192   9.262 -0.2038  0.1646  0.0296
    1W        W51085   4.029   8.456   1.768 -0.1615  0.0673  0.2020
    1W        W51086  16.838  16.963   8.735 -0.1347 -0.0579  0.1381
    1W        W51087   5.553   0.896   7.633 -0.1598  0.1635 -0.1698
    1W        W51088  18.903  25.300   1.745  0.2807 -0.0548 -0.0126
    1W        W51089  25.462  15.205   1.186 -0.0466 -0.0126 -0.1085
    1W        W51090   5.827   9.563   1.986 -0.0359 -0.1407 -0.1311
    1W        W51091   5.187  26.981   0.902  0.1617  0.0940 -0.2501
    1W        W51092   7.076  10.293   0.096  0.0659 -0.0975  0.1795
    1W        W51093  25.225  12.320   0.967 -0.0470 -0.1097 -0.1760
    1W        W51094   1.491  15.755   9.026 -0.0691  0.2168  0.0315
    1W        W51095   4.546  25.531   9.021 -0.0979 -0.2107  0.0855
    1W        W51096   4.698  20.179   8.962 -0.0349 -0.1308  0.0377
    1W        W51097   3.961   9.756   2.811  0.0354  0.1106 -0.3529
    1W        W51098   8.216   0.496   2.590  0.1822  0.1335 -0.1625
    1W        W51099  23.722  21.377   7.783  0.0398 -0.0684 -0.0219
    1W        W51100  25.773   3.736   1.147  0.6311  0.0336  0.1586
    1W        W51101  22.788   1.649   8.566  0.0543  0.1084 -0.1724
    1W        W51102  18.423  10.500   1.528  0.0303 -0.0826  0.1680
    1W        W51103  21.405  18.799   1.596  0.3420  0.1629  0.1963
    1W        W51104  15.522  12.800   2.838  0.0664 -0.0112  0.0031
    1W        W51105   8.781  21.331   7.554  0.1163  0.1246 -0.0071
    1W        W51106  22.981   5.558   9.766 -0.2334  0.1684  0.2663
    1W        W51107  22.817  10.484   1.026 -0.0402  0.1663 -0.1161
    1W        W51108  20.863  25.727   9.197  0.1656 -0.1673 -0.1217
    1W        W51109  13.800  27.307   7.425 -0.0613  0.0180  0.2996
    1W        W51110  28.146  25.490   9.541  0.0415 -0.0827  0.0090
    1W        W51111  26.114  18.977   0.126 -0.1809 -0.2208 -0.0757
    1W        W51112  28.360   3.793   9.345 -0.0580 -0.1906 -0.3956
    1W        W51113  14.099   8.646   3.046  0.2325  0.0203  0.1435
    1W        W51114   8.848  21.432   7.078 -0.4352 -0.1515 -0.0382
    1W        W51115  24.736  19.412   7.813 -0.0350  0.1305 -0.0695
    1W        W51116   5.909  11.136   6.661 -0.4554  0.2563  0.2507
    1W        W51117  27.204  22.271   3.220  0.0625  0.2595  0.0138
    1W        W51118  20.948  19.452   0.029 -0.1608 -0.0953 -0.0898
    1W        W51119  27.004   1.530   9.692  0.0511 -0.0013  0.0206
    1W        W51120  22.548  28.264   1.749  0.2244 -0.0191  0.1649
    1W        W51121   5.393   3.645   3.777 -0.2355  0.0907  0.2938
    1W        W51122  16.337  15.390   8.724 -0.2547 -0.3661  0.2704
    1W        W51123  23.780  17.093   1.446 -0.0104 -0.0480 -0.1377
    1W        W51124   4.799  11.995   0.077  0.1487 -0.0772 -0.0208
    1W        W51125  27.023   3.911   0.129 -0.0193  0.2096 -0.1708
    1W        W51126  13.196  26.106   2.174  0.0269  0.3289  0.1795
    1W        W51127  21.347   8.570   9.485  0.1044  0.1976  0.2012
    1W        W51128  22.961  18.233   0.051 -0.2144  0.0701 -0.1472
    1W        W51129  12.866   4.780   7.241 -0.1116 -0.0142  0.2756
    1W        W51130  13.121   0.725   9.330 -0.2148  0.0082  0.0358
    1W        W51131  28.708  10.971   8.417 -0.0853 -0.2913 -0.1271
    1W        W51132   4.728   7.162   1.547 -0.3703 -0.1601  0.0629
    1W        W51133  13.960  22.452   1.284  0.1333  0.1074 -0.0255
    1W        W51134   5.988   9.893   7.293  0.2789  0.2609  0.2301
    1W        W51135  16.833  26.042   1.120  0.1937 -0.0824 -0.2064
    1W        W51136   3.201  23.585   7.309 -0.0867  0.1404  0.0320
    1W        W51137  22.849   3.133   3.286  0.2856 -0.0931 -0.2498
    1W        W51138  11.563   1.676   3.631  0.0376  0.0082 -0.0101
    1W        W51139  27.510  13.195   7.204 -0.2985  0.1073  0.0823
    1W        W51140  15.369  13.847   0.365 -0.0363  0.0927  0.2592
    1W        W51141  25.730  13.574   6.843  0.1713  0.2069 -0.0577
    1W        W51142  11.639  25.424   2.593 -0.1379  0.2428  0.0987
    1W        W51143  22.858  15.348   7.349 -0.2204 -0.1085 -0.0413
    1W        W51144   6.549   8.607   9.202  0.0847  0.0814 -0.0934
    1W        W51145  20.439  28.140   9.769  0.0103 -0.0666 -0.0962
    1W        W51146  25.675  28.504   1.063 -0.0236  0.0543  0.0284
    1W        W51147  13.785  11.556   8.151  0.1802 -0.1458 -0.0021
    1W        W51148  14.841   6.160   8.879  0.0769  0.0937 -0.1032
    1W        W51149   1.271  25.769   1.307 -0.0336 -0.0964 -0.0557
    1W        W51150  28.702  24.755   2.701 -0.3788  0.2847  0.3544
    1W        W51151  13.704  15.714   1.951  0.1727  0.1891 -0.0357
    1W        W51152  23.882  25.985   0.909  0.3379  0.2378 -0.0557
    1W        W51153  16.313   0.683   8.557 -0.3765  0.1848 -0.2719
    1W        W51154  26.256   6.843   1.998 -0.1693  0.2020  0.2956
    1W        W51155  24.144  25.555   1.519 -0.1043 -0.1100 -0.3664
    1W        W51156  10.960   1.504   9.347  0.0672 -0.2123 -0.0036
    1W        W51157  22.636  15.417   1.243  0.1681 -0.0161 -0.1099
    1W        W51158  23.461  18.024   2.308 -0.2993 -0.2881 -0.1841
    1W        W51159  19.339  28.459   7.857 -0.0777  0.1108 -0.0209
    1W        W51160   4.532  21.120   2.288  0.2359  0.0578 -0.2737
    1W        W51161   0.001  13.772   6.893  0.0442  0.2030 -0.0962
    1W        W51162  21.988  19.559   6.898  0.3206 -0.0791 -0.0936
    1W        W51163  26.973  28.457   0.423 -0.2217 -0.3073 -0.1059
    1W        W51164  10.623   6.609   2.760 -0.0690 -0.0770  0.1906
    1W        W51165  20.346  22.114   2.128 -0.4636 -0.0483 -0.1516
    1W        W51166   0.022  23.151   3.063  0.1725  0.0318 -0.1532
    1W        W51167   3.738  17.534   2.380 -0.0740 -0.0528 -0.2507
    1W        W51168  19.579  23.901   2.158 -0.0652  0.0806  0.0698
    1W        W51169   7.360  23.524   1.119 -0.1007 -0.5130 -0.1312
    1W        W51170  24.692   4.011   0.793  0.1316  0.0401  0.1848
    1W        W51171  26.391  20.051   0.400 -0.1831 -0.1535  0.0154
    1W        W51172   4.811  27.157   2.377  0.1553  0.1668 -0.0275
    1W        W51173   2.292  24.277   6.532 -0.0797 -0.3223  0.0672
    1W        W51174  10.500  13.608   8.897  0.1948 -0.0106  0.1042
    1W        W51175  27.222  13.139   9.638  0.3156  0.2651  0.1985
    1W        W51176   0.185   8.084   0.393  0.0366  0.0984  0.2188
    1W        W51177  10.565  17.933   7.172  0.3341  0.1187  0.2280
    1W        W51178  15.629  13.540   8.827  0.4540  0.0265 -0.1429
    1W        W51179  19.442  19.670   0.108  0.1635  0.0088  0.2515
    1W        W51180  26.712   6.587   1.958 -0.1845 -0.0094 -0.0579
    1W        W51181   3.406   8.602   9.151  0.1714  0.1713 -0.1177
    1W        W51182   5.986   0.081   1.691  0.2300 -0.2979 -0.2081
    1W        W51183   2.294   7.868   1.196 -0.2798  0.0342  0.1390
    1W        W51184   0.727   9.362   6.215 -0.3388 -0.1019  0.0688
    1W        W51185  28.343  28.432   9.873  0.2537 -0.0445 -0.0278
    1W        W51186   5.987  13.245   3.753 -0.3004 -0.0738 -0.0158
    1W        W51187   6.027  15.860   8.636 -0.2500 -0.3968  0.0509
    1W        W51188   5.302  26.542   1.219 -0.0906  0.2094 -0.1142
    1W        W51189  22.905   8.791   9.082 -0.1527 -0.0459  0.1997
    1W        W51190  10.580   5.471   1.578 -0.0504 -0.0200  0.1164
    1W        W51191   6.639   2.065   3.058  0.2705  0.2186 -0.4458
    1W        W51192  24.650   7.257   0.801  0.0455  0.2094  0.0958
    1W        W51193   6.531  24.668   9.370  0.2704 -0.2784 -0.0073
    1W        W51194   8.509  24.167   8.509  0.2122  0.0894 -0.2972
    1W        W51195  16.991   6.576   1.923  0.2755 -0.1242  0.0962
    1W        W51196  12.107  19.929   9.616 -0.0741 -0.1473 -0.1605
    1W        W51197  18.640   8.056   9.549  0.3206  0.0340 -0.3217
    1W        W51198  26.813   6.229   0.507  0.0613  0.1431  0.2694
    1W        W51199  23.274  15.444   2.886 -0.1124 -0.0986  0.3652
    1W        W51200   4.919  25.156   5.684 -0.0439 -0.0751  0.1457
    1W        W51201   5.307  25.077   2.248  0.1373 -0.0331 -0.0521
    1W        W51202   7.323   7.499   3.163  0.4431 -0.0277  0.0651
    1W        W51203   5.193   8.314   9.864 -0.4737 -0.3215 -0.2002
    1W        W51204  25.273  12.528   1.489  0.3540 -0.0529 -0.4517
    1W        W51205   0.208  24.355   8.955  0.1829  0.1159  0.1458
    1W        W51206   7.187   9.232   0.909 -0.0272 -0.2305 -0.1352
    1W        W51207  20.056  20.808   8.801 -0.2881 -0.2000  0.0657
    1W        W51208   9.199   1.211   8.679  0.0717  0.1685  0.0355
    1W        W51209   0.329   6.187   2.468 -0.0198 -0.0780  0.1585
    1W        W51210  23.753   5.481   2.922 -0.1155 -0.3309 -0.0135
    1W        W51211  24.147  20.397   9.285  0.1876  0.1228 -0.2184
    1W        W51212  11.597  19.195   2.539  0.0277  0.1635  0.0777
    1W        W51213  24.461   9.688   2.509  0.1346 -0.1031  0.1150
    1W        W51214  27.202  18.108   7.540  0.1958  0.0402 -0.1309
    1W        W51215   6.535  23.904   0.782 -0.0554 -0.2498  0.1923
    1W        W51216  10.658   8.996   0.146  0.1204  0.0215 -0.0180
    1W        W51217   2.670   5.959   3.277 -0.2922  0.0318  0.0260
    1W        W51218  28.181  22.214   6.838  0.2422 -0.1327 -0.3138
    1W        W51219  27.631  24.304   3.632  0.0606 -0.0046  0.1309
    1W        W51220   5.428  15.905   9.566 -0.3186 -0.1212  0.0151
    1W        W51221  15.580   3.367   2.483 -0.1246 -0.0039 -0.0826
    1W        W51222  15.074  21.808   1.403  0.2186 -0.2467 -0.1506
    1W        W51223   0.540  26.984   1.196 -0.0543  0.0058  0.0476
    1W        W51224  25.216   5.052   6.998 -0.2865  0.2421  0.1887
    1W        W51225   5.571  11.904   8.841 -0.0205 -0.2259 -0.2038
    1W        W51226  26.302  28.696   3.272 -0.2091 -0.0843 -0.0095
    1W        W51227  24.307  26.332   1.124  0.3149 -0.1860 -0.0620
    1W        W51228  11.000  16.085   1.374  0.1345  0.0681 -0.2335
    1W        W51229  11.225   2.025   2.239  0.0202  0.1773  0.0389
    1W        W51230  18.353  25.848   8.004  0.2780  0.0710 -0.1856
    1W        W51231   3.419  17.027   8.942  0.0885  0.2921 -0.0676
    1W        W51232   8.039  22.958   7.957 -0.2180 -0.2778  0.1457
    1W        W51233  22.264  27.728   3.313 -0.1730  0.0125  0.1068
    1W        W51234  22.756  14.269   2.644  0.0109 -0.1927 -0.1046
    1W        W51235  27.756   2.621   3.179  0.2511  0.1360 -0.0727
    1W        W51236   1.473  22.400   1.680  0.1200  0.2933 -0.4129
    1W        W51237   6.806  12.748   2.551  0.1768  0.2290  0.2001
    1W        W51238  20.344   5.948   2.980 -0.0841  0.1535 -0.0460
    1W        W51239   5.223  27.707   8.291  0.0965 -0.0778 -0.0713
    1W        W51240   6.724  12.773   0.926  0.0988  0.0689  0.0958
    1W        W51241  14.992   1.371   9.130  0.1859  0.0564  0.0277
    1W        W51242  12.907  21.029   2.531  0.1291  0.3715 -0.1144
    1W        W51243  22.747  20.620   7.479 -0.1954 -0.1622 -0.1488
    1W        W51244   5.452   6.021   3.685 -0.3576  0.1572 -0.2553
    1W        W51245   5.497  12.481   8.928  0.0816 -0.0662  0.1819
    1W        W51246   8.802  16.289   7.125  0.0203  0.1800  0.2459
    1W        W51247  18.423  11.858   2.406  0.2370 -0.0488 -0.0891
    1W        W51248  15.146  25.374   0.604  0.0340 -0.0235  0.0624
    1W        W51249   3.980   0.145   9.363  0.0775 -0.0942 -0.1591
    1W        W51250   0.128  20.756   8.469  0.0820 -0.0007  0.0377
    1W        W51251  27.709  25.519   2.035  0.2873  0.0774  0.1328
    1W        W51252  11.823  27.118   3.716  0.2628  0.0584  0.1815
    1W        W51253  13.982  10.091   1.121 -0.1994 -0.2941  0.0251
    1W        W51254   0.516  17.081   6.940  0.3076 -0.1758 -0.0607
    1W        W51255  14.414   0.980   0.747 -0.0882  0.2354 -0.0851
    1W        W51256   3.462  20.695   7.258 -0.0546  0.0525  0.1018
    1W        W51257  21.635  11.883   1.483  0.2000  0.0445 -0.1347
    1W        W51258  18.546  22.386   9.768 -0.0506 -0.2382 -0.1778
    1W        W51259  13.809   5.355   8.577 -0.0756  0.4194  0.1491
    1W        W51260  26.291  27.588   7.855 -0.1487  0.0981 -0.0292
    1W        W51261  14.461   3.126   1.727 -0.0239  0.0774  0.2657
    1W        W51262   7.421   1.368   8.192  0.1213  0.3084  0.0122
    1W        W51263  18.217  11.350   1.294  0.1956 -0.2913 -0.0240
    1W        W51264  14.006  13.049   0.609  0.1760 -0.1065 -0.0193
    1W        W51265  25.992   9.782   9.659 -0.1489  0.1659 -0.1568
    1W        W51266   8.921  23.821   8.465 -0.1190  0.0457 -0.1645
    1W        W51267  18.440   7.174   8.199 -0.0612  0.2743  0.0903
    1W        W51268  19.611   0.850   0.123 -0.1803  0.5057 -0.1035
    1W        W51269  16.397   7.066   2.489 -0.1009  0.0827 -0.0316
    1W        W51270  10.096  16.040   8.347 -0.2285 -0.0529 -0.1626
    1W        W51271   8.649  10.289   1.482 -0.0798  0.2799  0.1301
    1W        W51272   8.200  22.767   9.732 -0.2591  0.2289  0.0810
    1W        W51273   2.766  17.379   0.696 -0.0311 -0.0980 -0.2686
    1W        W51274  19.021  20.891   2.678  0.1770  0.0662  0.1023
    1W        W51275  14.434  19.909   9.193  0.1179  0.2720 -0.0578
    1W        W51276  20.722  26.834   2.464 -0.0161 -0.0596  0.0594
    1W        W51277  25.138  14.767   6.366  0.1859  0.0328  0.1297
    1W        W51278  24.019  27.680   7.488 -0.1975 -0.0258  0.0788
    1W        W51279  17.863  20.905   8.492 -0.1727  0.1596  0.0537
    1W        W51280   5.475   6.809   1.783  0.2076 -0.0934 -0.0947
    1W        W51281   2.691  28.186   7.932  0.1380 -0.0876 -0.0510
    1W        W51282   5.096   1.128   1.090  0.1934 -0.2724  0.0876
    1W        W51283  20.103   4.094   7.280 -0.0887  0.0491  0.1165
    1W        W51284   8.362  14.242   9.165  0.2001 -0.0385 -0.1404
    1W        W51285   4.159  19.966   9.454 -0.2030 -0.0145  0.0958
    1W        W51286  25.916  25.521   1.249  0.2973 -0.2093  0.0682
    1W        W51287  26.513   2.304   9.771  0.1031 -0.0967  0.0413
    1W        W51288   9.560  22.432   9.598  0.1065  0.2044 -0.1483
    1W        W51289  10.141   4.803   7.527  0.0960  0.3029 -0.1704
    1W        W51290  23.011  24.074   8.397  0.0075  0.0761  0.1140
    1W        W51291  12.536   4.338   9.438  0.1704  0.0500 -0.2312
    1W        W51292  26.610  26.728   0.513 -0.1609 -0.0064 -0.0013
    1W        W51293   8.407   7.244   2.251 -0.1503  0.1237 -0.0090
    1W        W51294  10.311  12.381   3.338  0.2900  0.0664 -0.2442
    1W        W51295   9.954  11.200   1.828 -0.1008 -0.0133  0.2638
    1W        W51296   8.094  20.412   6.785  0.4406  0.0591 -0.0689
    1W        W51297  12.036  15.490   8.330  0.0111  0.2706  0.2440
    1W        W51298  22.869   4.296   2.357 -0.0702 -0.1455 -0.2472
    1W        W51299   3.674  11.845   7.523 -0.3238  0.0945 -0.1878
    1W        W51300  28.318   1.291   8.711 -0.1148  0.0774 -0.2350
    1W        W51301  20.170   2.572   0.786 -0.2437  0.1348 -0.1700
    1W        W51302  13.891  16.302   2.442 -0.0866  0.0565  0.1426
    1W        W51303   3.474   3.310   1.173  0.0106 -0.2397 -0.1410
    1W        W51304  20.865   6.999   1.018 -0.0845 -0.1625  0.1831
    1W        W51305   7.611   6.534   7.534 -0.0585  0.0432  0.3443
    1W        W51306  28.566  23.822   6.548 -0.0605 -0.2941  0.0970
    1W        W51307   1.960   2.599   9.452 -0.0621  0.3397  0.0817
    1W        W51308   2.160  17.939   7.785 -0.3114 -0.0767  0.1074
    1W        W51309   9.910  17.789   7.444 -0.2100  0.0187  0.0273
    1W        W51310   8.899  21.084   1.889  0.1121 -0.3786  0.1227
    1W        W51311  12.100  15.406   0.036  0.2864 -0.1298  0.1785
    1W        W51312  23.369  28.669   2.539  0.1159  0.0083  0.1211
    1W        W51313   5.541   9.228   1.095  0.0489  0.1923  0.0890
    1W        W51314   6.189   9.508   0.624 -0.4682  0.0054  0.0072
    1W        W51315  21.853  15.533   7.211 -0.1826 -0.0045  0.1528
    1W        W51316  16.297  25.023   9.814  0.0037  0.2297 -0.1682
    1W        W51317  11.252   7.810   0.750 -0.0532  0.0259 -0.0230
    1W        W51318  25.336  18.642   7.807  0.1048 -0.3564 -0.0218
    1W        W51319  15.222   8.399   8.639  0.0072  0.2445  0.1632
    1W        W51320   2.628  25.990   2.097  0.0502 -0.3899  0.1467
    1W        W51321  10.445  15.822   7.567 -0.0522  0.0229 -0.0485
    1W        W51322   8.153  15.069   7.187 -0.3043 -0.3471  0.0665
    1W        W51323  22.819   5.310   0.466  0.0947 -0.0221  0.1732
    1W        W51324  25.911  27.086   8.781 -0.1512 -0.1005 -0.0207
    1W        W51325  22.318  13.440   7.377 -0.3017 -0.1903  0.1220
    1W        W51326   1.378   1.146   1.003  0.0917  0.2195 -0.3091
    1W        W51327  19.020  15.885   1.159  0.2073 -0.1100 -0.0970
    1W        W51328  11.514  25.915   1.247 -0.2668 -0.1728 -0.3736
    1W        W51329  21.064   9.470   0.534 -0.1213 -0.0804 -0.2772
    1W        W51330  17.459  21.591   0.825 -0.1248 -0.1086  0.0547
    1W        W51331   2.851  22.432   8.159  0.0713  0.2587 -0.1582
    1W        W51332  23.297   0.815   8.713  0.0706 -0.1311  0.3248
    1W        W51333  24.146  20.150   3.216  0.2812 -0.0908  0.0649
    1W        W51334  24.810  10.690   8.367  0.0552 -0.0149  0.2421
    1W        W51335   1.763  18.195   6.961  0.0801 -0.2389  0.1416
    1W        W51336  13.562   7.395   8.337 -0.0970 -0.0089 -0.1015
    1W        W51337  27.008  17.610   9.595  0.0420  0.1584  0.1736
    1W        W51338  16.083  16.978   0.600 -0.0463  0.1093 -0.0578
    1W        W51339  19.786  25.348   8.204 -0.2797 -0.0450 -0.0829
    1W        W51340  16.532   8.864   8.005  0.1958  0.2740  0.0171
    1W        W51341   3.680  12.368   7.347 -0.5421 -0.0875 -0.1613
    1W        W51342  15.066  18.050   1.621 -0.2488  0.0188 -0.0542
    1W        W51343  22.482   9.808   0.436  0.0741  0.0976 -0.0338
    1W        W51344  28.636   3.382   7.361  0.1569 -0.0742 -0.3930
    1W        W51345   1.811  28.209   8.775  0.2162 -0.1176  0.0490
    1W        W51346   7.143  11.324   7.769  0.0502 -0.0831 -0.2025
    1W        W51347  21.638  26.563   1.838  0.1328 -0.0580 -0.1765
    1W        W51348  13.595  23.945   8.448 -0.1885 -0.1876  0.2663
    1W        W51349   5.794   9.023   9.567 -0.3108 -0.0966  0.1207
    1W        W51350   8.802  20.812   0.158 -0.2035 -0.0568  0.1471
    1W        W51351  17.667  10.885   0.539  0.2090  0.0980  0.2148
    1W        W51352   6.990   7.835   2.919 -0.0756 -0.1087 -0.1290
    1W        W51353   5.314  20.706   7.442 -0.1945 -0.2270 -0.0066
    1W        W51354  15.103  26.377   0.564  0.1014  0.0860 -0.2612
    1W        W51355   2.688  11.057   7.852 -0.2341 -0.1530  0.1271
    1W        W51356   1.522  18.987   7.862 -0.0585 -0.1334 -0.1574
    1W        W51357  27.181  20.380   1.249 -0.0016  0.1053 -0.0198
    1W        W51358  15.508  23.074   0.698  0.2148 -0.2655 -0.1314
    1W        W51359  15.643   2.905   0.876  0.1170  0.5031 -0.3184
    1W        W51360  11.223  28.718   1.261  0.1315  0.0531  0.0331
    1W        W51361  27.063  22.506   2.478 -0.1244  0.1049  0.1948
    1W        W51362  27.176   7.849   7.793  0.0984 -0.2429  0.0374
    1W        W51363  18.619  24.800   7.368  0.3246  0.0298 -0.1093
    1W        W51364   5.745  20.697   1.193 -0.3231 -0.5112 -0.0320
    1W        W51365  20.042   1.738   2.282 -0.0519  0.4165 -0.0521
    1W        W51366   1.023   7.625   8.998  0.0287  0.1552 -0.0311
    1W        W51367   0.826   2.469   2.339  0.0030  0.0145  0.2814
    1W        W51368  14.199   8.544   7.610 -0.0890  0.0061 -0.2228
    1W        W51369   2.102   9.236   8.160  0.2379 -0.2984  0.0999
    1W        W51370  15.298  20.061   7.119 -0.1458 -0.1650  0.0340
    1W        W51371   2.281  14.785   0.928  0.2794 -0.0099 -0.4751
    1W        W51372   3.178  16.564   8.678  0.0251  0.3254 -0.1590
    1W        W51373  18.328  23.006   1.939  0.0208 -0.1266  0.0439
    1W        W51374  23.063  19.991   6.887 -0.2256  0.1927 -0.2592
    1W        W51375  19.827   7.153   0.680  0.2909 -0.0679 -0.0039
    1W        W51376  23.099   8.883   7.668  0.3250 -0.0290  0.3232
    1W        W51377  10.699  10.589   9.576 -0.0365 -0.3255  0.1010
    1W        W51378   4.478   6.637   7.332 -0.2031  0.1447 -0.0871
    1W        W51379  22.829  28.709   2.459 -0.0581 -0.0042  0.0168
    1W        W51380   0.007   4.182   0.675 -0.1826 -0.1300 -0.0836
    1W        W51381  11.899   1.885   2.739  0.3907 -0.1488 -0.0100
    1W        W51382   8.461  19.511   7.742 -0.0836 -0.2606 -0.0459
    1W        W51383  21.928  28.676   9.535  0.0693 -0.1147  0.1195
    1W        W51384  25.225   3.393   5.811 -0.2828  0.0407 -0.1354
    1W        W51385  19.601  10.937   9.451 -0.2163  0.1509 -0.3855
    1W        W51386   3.404  21.902   9.459  0.0915  0.2883 -0.1301
    1W        W51387  27.404  12.551   1.528 -0.2918 -0.0843 -0.0448
    1W        W51388  22.970  22.486   1.739  0.0506  0.1164 -0.1946
    1W        W51389  10.241   4.531   2.486 -0.1065  0.2702  0.2079
    1W        W51390   8.588  26.522   8.641  0.1394 -0.1558  0.2098
    1W        W51391   0.291   3.151   9.896  0.2274  0.1666  0.0389
    1W        W51392   1.698  10.415   8.237  0.3755 -0.2326 -0.0483
    1W        W51393   4.483  16.582   1.803 -0.1182  0.1835  0.0727
    1W        W51394  25.597  28.379   7.783  0.4749  0.1916  0.2475
    1W        W51395  16.248  26.794   3.373 -0.0621 -0.1500 -0.1821
    1W        W51396   3.974  13.889   9.017 -0.1612  0.2413  0.1147
    1W        W51397  25.299  15.598   6.721  0.0372 -0.2689 -0.1401
    1W        W51398   4.839  16.238   8.812 -0.1383  0.3317  0.0099
    1W        W51399   6.055  22.298   7.002 -0.0486 -0.3495  0.1440
    1W        W51400  17.532   7.283   2.278 -0.0284  0.1269 -0.0707
    1W        W51401   2.478   0.778   9.379 -0.1829  0.0662 -0.1971
    1W        W51402   4.720  24.688   8.516  0.0386  0.0567 -0.0509
    1W        W51403  20.682  11.543   0.013  0.0753  0.3815 -0.1109
    1W        W51404  15.769   2.568   7.692 -0.3216  0.0826 -0.1336
    1W        W51405   8.014  11.061   8.069 -0.0730  0.0115  0.2246
    1W        W51406   9.751   0.079   1.390  0.0783  0.1986 -0.2509
    1W        W51407  24.216  25.591   1.040 -0.2768  0.1077 -0.2459
    1W        W51408  23.381   4.265   8.817 -0.0339 -0.0666  0.0035
    1W        W51409  22.382  21.474   9.122  0.1604  0.0830 -0.0388
    1W        W51410   0.993  24.858   7.886 -0.1657  0.1330 -0.1374
    1W        W51411  17.662   5.518   2.396  0.0309  0.3588 -0.0214
    1W        W51412  23.109  28.350   2.193 -0.1083 -0.1326 -0.0542
    1W        W51413   8.698   3.079   2.570  0.0539  0.3430 -0.2178
    1W        W51414  19.985  10.224   6.911  0.0221  0.1525 -0.1149
    1W        W51415   5.045  24.690   2.935 -0.0547 -0.4230  0.2146
    1W        W51416   4.159   6.234   1.107 -0.0154  0.0567 -0.1990
    1W        W51417   1.947   2.296   7.828  0.3353 -0.3456 -0.1182
    1W        W51418  16.529  24.243   2.765  0.0346  0.1505  0.0926
    1W        W51419  20.822   7.218   2.424 -0.0548  0.0105  0.0630
    1W        W51420   5.057   9.789   8.484  0.0951 -0.2600  0.1545
    1W        W51421  20.611   3.802   8.440 -0.1738 -0.1486  0.4532
    1W        W51422  25.897  21.082   8.543 -0.1636 -0.0898  0.0745
    1W        W51423  28.515  17.240   0.257 -0.1580  0.1148  0.2125
    1W        W51424  11.232  11.737   0.631  0.0942 -0.2704  0.4010
    1W        W51425   9.849   9.927   8.253  0.1563  0.3533 -0.1529
    1W        W51426  14.405  18.686   7.343 -0.0241 -0.2659 -0.0399
    1W        W51427  26.107  21.943   9.470  0.0872 -0.5342  0.5030
    1W        W51428   1.282   3.188   9.616  0.0876 -0.0029 -0.2241
    1W        W51429  27.156  20.820   0.284 -0.2099 -0.1427  0.1214
    1W        W51430  18.157   7.623   9.607  0.0993 -0.0067 -0.2344
    1W        W51431   6.817   9.349   7.521  0.0392  0.0217 -0.1948
    1W        W51432   4.355  28.648   3.533 -0.3612  0.1650 -0.0668
    1W        W51433  23.325  16.824   7.981 -0.2789  0.1168 -0.2276
    1W        W51434  10.889  17.087   7.824  0.1972 -0.4183  0.2086
    1W        W51435  20.425  21.523   9.113 -0.1486  0.1337  0.3679
    1W        W51436  21.602  26.507   7.596  0.1266 -0.2599 -0.0034
    1W        W51437   3.544  11.875   0.826  0.0534  0.2453 -0.3064
    1W        W51438   2.368  14.132   8.504  0.0667  0.1565 -0.0717
    1W        W51439  21.579   2.507   6.857 -0.3257 -0.2144  0.0120
    1W        W51440  24.812   7.790   1.961  0.0780  0.1715  0.3177
    1W        W51441  26.353   9.908   6.299 -0.1709  0.1293  0.0497
    1W        W51442  10.635   7.624   8.159 -0.2041  0.0702  0.3012
    1W        W51443  14.600  23.896   2.007  0.1437 -0.0951 -0.0699
    1W        W51444   2.460   7.425   8.765 -0.0737 -0.1213 -0.2133
    1W        W51445  26.928  28.236   8.974 -0.2127  0.0157  0.1335
    1W        W51446  19.268  26.006   8.987 -0.3324 -0.5528  0.0762
    1W        W51447  13.546   1.426   9.693  0.0019  0.3433 -0.0515
    1W        W51448   3.284  27.486   0.439 -0.0552 -0.1457 -0.0205
    1W        W51449  13.855  14.512   0.009 -0.0227  0.4118  0.0370
    1W        W51450   7.504   8.447   8.274  0.3068 -0.0825 -0.1240
    1W        W51451   9.627  11.424   1.141  0.0969 -0.0715  0.1705
    1W        W51452   6.105  16.275   9.121  0.1379  0.0604 -0.0200
    1W        W51453  15.037  14.020   1.749 -0.1759 -0.1886 -0.0605
    1W        W51454  26.965   1.981   0.352  0.0728 -0.1302  0.2204
    1W        W51455  12.697  13.887   9.690  0.2061  0.0023 -0.0491
    1W        W51456   0.537  11.197   1.798  0.1355  0.2157 -0.2506
    1W        W51457  25.005  25.647   1.096 -0.1275  0.3867  0.4097
    1W        W51458   6.049   4.481   9.375  0.2193  0.1170  0.0014
    1W        W51459  22.056   2.486   0.314  0.3351 -0.3351 -0.2074
    1W        W51460  16.221   5.819   2.245 -0.3027 -0.0808 -0.1803
    1W        W51461   8.278   9.020   2.921  0.0621 -0.2882  0.2091
    1W        W51462  22.451  23.361   2.802 -0.0200 -0.0690 -0.2244
    1W        W51463  10.971  17.974   1.831 -0.0890  0.1460  0.3419
    1W        W51464  27.684   8.446   1.561  0.2356 -0.0938 -0.2837
    1W        W51465  17.975  12.153   2.379  0.2267  0.0411 -0.0035
    1W        W51466  17.732  24.172   3.125  0.0507 -0.2759 -0.0846
    1W        W51467   6.038  23.682   9.131 -0.1286  0.0288  0.0558
    1W        W51468  25.995   6.286   6.227 -0.0650 -0.0875  0.2080
    1W        W51469   3.117  25.488   2.437 -0.2522  0.0383  0.3402
    1W        W51470  10.998  28.486   3.587  0.1375  0.0402  0.0474
    1W        W51471  21.851  22.440   8.289  0.1398  0.1623  0.3603
    1W        W51472  18.266   2.932   7.568 -0.2869 -0.2452 -0.4483
    1W        W51473   6.182  10.259   2.997  0.1193  0.1781 -0.1744
    1W        W51474  19.190  17.144   8.401  0.0853  0.1856 -0.1863
    1W        W51475  21.474  19.562   7.138  0.2457  0.0448  0.0620
    1W        W51476  17.692  21.401   1.270  0.1112  0.3804  0.1716
    1W        W51477  21.862  19.483   1.497 -0.1271 -0.2672  0.1386
    1W        W51478  17.611  26.847   8.064  0.0157 -0.0446  0.1874
    1W        W51479  24.204  13.760   6.350 -0.2480 -0.1985 -0.2578
    1W        W51480   2.840  13.983   1.462 -0.3288  0.2750  0.0158
    1W        W51481  16.658  23.809   1.180  0.3140  0.1024  0.0530
    1W        W51482  13.516  15.291   7.149  0.0118 -0.0189  0.1503
    1W        W51483  27.668   9.965   7.563 -0.0687 -0.3280 -0.3137
    1W        W51484  22.559  13.749   7.083  0.2581  0.0252  0.3093
    1W        W51485  20.730  22.660   3.678  0.3115 -0.0205 -0.3081
    1W        W51486   1.330  28.682   6.258  0.0789  0.2488  0.0843
    1W        W51487   2.891  21.168   7.984  0.3622 -0.2918  0.0834
    1W        W51488  25.629  20.723   8.656 -0.1557  0.1663  0.0852
    1W        W51489   9.963   5.903   3.542 -0.5303  0.1245 -0.0175
    1W        W51490   0.033  15.481   7.693 -0.0623 -0.1376  0.0614
    1W        W51491   4.204  17.096   9.455  0.0256  0.1101 -0.2600
    1W        W51492  19.947   3.317   2.772  0.2051  0.0285 -0.1483
    1W        W51493   6.250  16.680   7.481 -0.1071 -0.1487  0.3335
    1W        W51494  17.111  18.401   2.158 -0.0365  0.1784  0.0148
    1W        W51495  26.527  25.829   2.772  0.1733 -0.1416 -0.1382
    1W        W51496  21.173  24.347   6.553 -0.3906 -0.2057 -0.1267
    1W        W51497   1.361  23.374   9.932 -0.2421  0.2529  0.1175
    1W        W51498  19.607   4.965   1.875 -0.1100 -0.1639  0.4788
    1W        W51499  13.437   8.068   2.059 -0.0445 -0.2194 -0.0300
    1W        W51500   2.317   3.827   8.588  0.0271 -0.0055 -0.1075
    1W        W51501  15.979  27.848   9.488  0.0517 -0.1404 -0.3804
    1W        W51502   7.051  20.087   1.346 -0.2548 -0.1252  0.1428
    1W        W51503  19.217   7.405   2.840  0.1136  0.2786 -0.1556
    1W        W51504  15.693  27.229   0.767  0.0897  0.1312  0.1386
    1W        W51505   5.426   3.940   8.258 -0.0763  0.0318 -0.1833
    1W        W51506  13.220  27.176   1.272 -0.4066  0.0480  0.0501
    1W        W51507  21.214  22.029   2.442  0.2172 -0.2128  0.0766
    1W        W51508   2.863  16.472   7.776  0.0639 -0.3932  0.2268
    1W        W51509   0.714   9.411   9.771  0.0528  0.2809 -0.1718
    1W        W51510  16.121   3.501   8.452  0.0540  0.0792 -0.2507
    1W        W51511  28.155   1.159   9.723 -0.0149  0.1169  0.0246
    1W        W51512  26.143  19.877   7.053 -0.0201 -0.1895 -0.1751
    1W        W51513  23.361  26.664   1.566  0.0914  0.0136  0.1459
    1W        W51514   5.668   5.898   0.639  0.0161 -0.2631 -0.1040
    1W        W51515  13.265  27.404   9.707 -0.1635 -0.1072 -0.0365
    1W        W51516  23.223  14.165   2.280  0.5374 -0.2397  0.0263
    1W        W51517   4.854  23.374   8.124  0.1618 -0.0706 -0.0621
    1W        W51518   9.942  17.362   0.005 -0.1266  0.1661 -0.0168
    1W        W51519   9.718  22.106   8.875 -0.0655 -0.0276  0.0628
    1W        W51520   6.050  27.183   2.079  0.1183  0.1906 -0.0515
    1W        W51521  17.159  21.886   7.928  0.0123 -0.2072  0.1351
    1W        W51522  25.849  13.933   1.866 -0.0312  0.0503 -0.0062
    1W        W51523   4.222   0.602   0.118 -0.1841 -0.2460 -0.1206
    1W        W51524   3.692  18.136   6.708 -0.0370  0.2388  0.0915
    1W        W51525   8.524  10.677   1.764  0.0089  0.0763 -0.2189
    1W        W51526   3.194   7.106   0.894  0.2366  0.0835  0.2136
    1W        W51527  18.496  15.410   0.197  0.2336  0.0662 -0.1054
    1W        W51528  28.544  15.006   0.779 -0.2505  0.0374 -0.1987
    1W        W51529   8.183  17.569   9.261  0.1225  0.0336  0.0157
    1W        W51530   0.577  27.869   7.407  0.1707  0.1324 -0.1620
    1W        W51531  12.304  27.328   0.416  0.1748  0.0325  0.2702
    1W        W51532   2.811  11.066   9.059  0.1288 -0.1364 -0.0318
    1W        W51533   8.472  10.748   2.259 -0.1410  0.0768 -0.0458
    1W        W51534  17.568  27.387   2.060 -0.0891  0.3673  0.0607
    1W        W51535   2.809   9.972   0.608  0.0742  0.2303 -0.3549
    1W        W51536   5.301  15.683   6.054 -0.0846 -0.0325 -0.1425
    1W        W51537  26.286  14.031   6.655  0.0407 -0.1294 -0.0093
    1W        W51538  16.438  27.747   2.772 -0.1553  0.0406 -0.1966
    1W        W51539   8.088  23.184   2.053 -0.2522  0.1243  0.2672
    1W        W51540  10.166   3.146   2.032 -0.1336 -0.0078  0.0542
    1W        W51541   1.339  15.560   2.800  0.1398  0.0060  0.0889
    1W        W51542  27.495  13.333   9.225 -0.3021  0.2686 -0.0699
    1W        W51543  11.207   7.021   2.127 -0.0698  0.0906 -0.2389
    1W        W51544  20.184  15.145   0.083  0.0838  0.1124  0.0337
    1W        W51545   4.570   5.720   7.588  0.3397 -0.1602 -0.2090
    1W        W51546  27.005  20.637   7.223  0.0140  0.1290  0.1944
    1W        W51547  13.397  23.708   1.400  0.2318 -0.3146 -0.0531
    1W        W51548  21.499   6.453   8.761 -0.1101 -0.1302  0.1778
    1W        W51549  26.022  17.116   6.596 -0.1178  0.1049 -0.0069
    1W        W51550  15.884  19.520   8.788 -0.3012 -0.1497 -0.1307
    1W        W51551  11.685  24.401   7.020  0.1156  0.2291 -0.2045
    1W        W51552  21.572   8.337   2.677 -0.2011 -0.1879  0.3637
    1W        W51553   7.815   7.013   7.373  0.1739 -0.1427  0.0998
    1W        W51554   0.091  19.763   1.062  0.1487 -0.1419 -0.0399
    1W        W51555   8.899   6.008   8.458 -0.0907 -0.2872  0.3390
    1W        W51556  23.288  15.908   2.633 -0.2291 -0.0114 -0.1499
    1W        W51557  15.586   0.965   1.583  0.2806  0.1642  0.2005
    1W        W51558  22.251  25.592   1.265 -0.3283  0.1674 -0.2694
    1W        W51559   6.108  23.636   7.247 -0.0242  0.3173  0.1792
    1W        W51560   4.998   1.161   9.960  0.0941 -0.0493  0.1297
    1W        W51561  13.067  13.884   1.667  0.1272 -0.2288 -0.2154
    1W        W51562   1.933  12.272   7.956  0.1592  0.0808  0.0639
    1W        W51563  17.777   6.620   9.501  0.3347  0.2750 -0.0038
    1W        W51564  13.373   2.549   3.106 -0.0406 -0.1845  0.3393
    1W        W51565  10.933   7.422   0.662  0.0128 -0.0712  0.0900
    1W        W51566  20.901  22.610   3.026  0.0177 -0.1671 -0.1525
    1W        W51567  16.465  12.902   3.035 -0.0767  0.4502  0.0727
    1W        W51568  10.973  10.527   8.910 -0.2019  0.2862 -0.2542
    1W        W51569  12.305  22.006   8.947 -0.2248  0.0550 -0.1992
    1W        W51570  17.445  24.706   2.193  0.1124 -0.0861 -0.0089
    1W        W51571  28.249   4.453   8.998 -0.0485 -0.1941 -0.0539
    1W        W51572  12.899  21.952   2.731 -0.0038  0.0461  0.1701
    1W        W51573   1.917  10.146   1.484  0.1643  0.2501  0.1459
    1W        W51574   8.294   8.661   0.354 -0.2640 -0.0605 -0.1373
    1W        W51575  20.522  28.558   8.774 -0.1938  0.2747 -0.0797
    1W        W51576   4.153  10.876   8.341  0.1953  0.0691  0.1229
    1W        W51577  28.410   7.259   8.299 -0.1790  0.1315 -0.2954
    1W        W51578  18.143   8.096   9.402  0.1434  0.0985  0.2801
    1W        W51579   7.281   7.023   0.560 -0.0153  0.2384  0.1131
    1W        W51580   0.566  16.421   9.502  0.1488 -0.0461 -0.0662
    1W        W51581  15.203  17.632   2.471 -0.1509  0.2816 -0.1950
    1W        W51582  12.235  19.748   2.967  0.2448  0.1446  0.4349
    1W        W51583  17.342   3.515   0.708  0.1116 -0.2578 -0.2217
    1W        W51584   4.418  23.193   8.282  0.2887  0.0015  0.1137
    1W        W51585  20.728  22.226   8.820 -0.0086  0.0343  0.0044
    1W        W51586  22.112   5.296   8.212  0.1737  0.2880 -0.1305
    1W        W51587   5.340  23.300   9.434  0.4151 -0.3345  0.2740
    1W        W51588   8.457  13.093   0.777 -0.0575 -0.1192  0.1347
    1W        W51589  21.802  23.548   6.378 -0.1682 -0.0379 -0.0331
    1W        W51590  12.758  23.251   0.770  0.2044  0.0442  0.1053
    1W        W51591  10.379   5.553   0.329  0.0324 -0.0137 -0.0175
    1W        W51592   0.017   5.391   1.163 -0.0237  0.1482 -0.2078
    1W        W51593  13.606  15.189   8.242 -0.0125 -0.0773  0.0184
    1W        W51594   7.747   3.204   9.869  0.0190 -0.0702 -0.0921
    1W        W51595   6.354  16.864   7.948 -0.0686  0.0007 -0.3054
    1W        W51596   6.366   5.393   7.018  0.2138 -0.1196  0.0659
    1W        W51597   0.039  27.814   8.388  0.0314 -0.0051 -0.0366
    1W        W51598   3.238  28.247   1.786 -0.3895 -0.0532  0.2128
    1W        W51599   0.199  14.296   6.727 -0.2536 -0.0828 -0.1671
    1W        W51600  11.371  19.260   8.145 -0.1300  0.0197 -0.1154
    1W        W51601  18.256  15.127   0.575 -0.1822  0.1140 -0.2422
    1W        W51602  12.220   6.558   1.115  0.1459 -0.1015  0.1019
    1W        W51603  16.685  27.479   0.464  0.2412  0.0473  0.0625
    1W        W51604   5.675  14.741   2.089 -0.1530  0.0120  0.1396
    1W        W51605  20.115   9.597   0.292  0.0655  0.1759  0.0986
    1W        W51606   6.785   3.003   8.611 -0.0753  0.0028 -0.2058
    1W        W51607  24.931  26.180   6.422 -0.1724  0.0605  0.2808
    1W        W51608   4.080  23.707   9.753  0.0476  0.2378  0.0166
    1W        W51609  23.794   2.477   0.807 -0.1146  0.0796 -0.0659
    1W        W51610   4.032   3.760   2.037 -0.1892 -0.0850 -0.1508
    1W        W51611   7.553   2.463   8.485 -0.2653 -0.3314 -0.4498
    1W        W51612   8.856  15.733   0.660 -0.0468  0.3168 -0.1217
    1W        W51613  25.048   3.795   3.408 -0.0506  0.0893 -0.0810
    1W        W51614  14.574  23.911   2.506 -0.1808  0.0365 -0.1043
    1W        W51615  11.190  12.069   1.019 -0.0958  0.0078  0.1008
    1W        W51616  28.632   6.205   8.800 -0.2055  0.0575 -0.0432
    1W        W51617  27.466  16.658   7.954  0.0107 -0.2281  0.2493
    1W        W51618   9.753  25.509   7.032 -0.0589 -0.1439  0.1170
    1W        W51619  21.471   6.249   9.217  0.2803  0.0888  0.1923
    1W        W51620  21.694   8.912   9.735  0.2369  0.1830  0.1177
    1W        W51621  19.666   3.228   0.362  0.1004  0.0610 -0.3674
    1W        W51622   0.127   7.163   8.532  0.0742  0.1571  0.1302
    1W        W51623  25.199  21.689   8.406  0.0716  0.0536 -0.3208
    1W        W51624  20.883   3.517   2.995 -0.1085  0.0915  0.1772
    1W        W51625   4.843   8.918   8.874  0.0145 -0.1908 -0.1801
    1W        W51626  23.497  17.366   8.977  0.0920 -0.0070 -0.0151
    1W        W51627  26.861  28.075   1.882  0.0320  0.3743  0.1090
    1W        W51628  17.571  11.877   2.101 -0.2853  0.0802  0.0753
    1W        W51629   2.762   0.461   7.995 -0.2457 -0.2172  0.0526
    1W        W51630  27.187   3.867   0.809  0.0237 -0.1876  0.2232
    1W        W51631  15.673   0.510   8.106 -0.2889  0.1286  0.0799
    1W        W51632  11.866  22.097   1.259  0.5503  0.0051 -0.1023
    1W        W51633   0.951  12.599   8.085 -0.0073  0.1381 -0.4205
    1W        W51634  17.158  24.347   1.896 -0.0631 -0.2357 -0.1255
    1W        W51635  13.026  17.344   7.824 -0.1575 -0.1048  0.2068
    1W        W51636   4.079   5.633   1.852 -0.0677 -0.1412  0.0780
    1W        W51637  18.396  28.204   9.309  0.1076  0.3460 -0.0962
    1W        W51638   4.653  10.540   8.843 -0.2378 -0.0041 -0.0879
    1W        W51639  28.247   7.946   7.158  0.1804 -0.1995 -0.1648
    1W        W51640  19.024   6.179   0.512  0.0557 -0.3519 -0.2762
    1W        W51641  21.259  19.518   0.424 -0.2253 -0.0599 -0.0406
    1W        W51642   2.265   7.800   7.932 -0.1736  0.1971  0.0398
    1W        W51643  26.784   4.570   1.688 -0.1656 -0.2730  0.4883
    1W        W51644  19.021  27.032   9.614  0.3393 -0.2985 -0.1389
    1W        W51645  18.819   0.966   2.739  0.0200  0.0283  0.2738
    1W        W51646  28.085  21.473   9.193 -0.0043 -0.3988 -0.1768
    1W        W51647   6.914   7.370   3.346  0.1578 -0.1092  0.0739
    1W        W51648   9.759   0.563   0.349  0.1075 -0.1074 -0.0249
    1W        W51649   9.973  17.709   9.619  0.4295  0.1692  0.1396
    1W        W51650  16.686  28.175   8.878 -0.1695  0.2075  0.0814
    1W        W51651   5.511   5.321   7.413  0.0065 -0.2507 -0.2043
    1W        W51652   2.047  21.243   1.334 -0.1100 -0.2506  0.0221
    1W        W51653  16.925  21.484   1.766 -0.2050  0.0967 -0.1975
    1W        W51654   6.408  13.569   1.876 -0.1032 -0.0368 -0.0677
    1W        W51655  11.925   0.387   1.406 -0.0323  0.3385  0.2613
    1W        W51656   9.710  14.208   8.221  0.3309 -0.0176  0.0600
    1W        W51657   4.000  19.855   7.953 -0.1764  0.1108 -0.0543
    1W        W51658  13.545  23.490   0.097  0.2078  0.0356 -0.1166
    1W        W51659   2.871   3.701   7.676 -0.0070 -0.1624 -0.1901
    1W        W51660  28.079  22.158   8.548 -0.3691 -0.1701 -0.0235
    1W        W51661  15.764  24.878   6.645  0.0263 -0.0579 -0.3804
    1W        W51662  25.324  22.213   1.435  0.2026  0.2036 -0.1391
    1W        W51663  11.672   2.504   0.663  0.2221 -0.0522  0.0309
    1W        W51664  23.006  16.743   6.746 -0.1373  0.0548 -0.3746
    1W        W51665  18.750   7.849   6.844 -0.0833  0.1286 -0.1516
    1W        W51666  18.895   1.253   3.626 -0.0072  0.1408 -0.5390
    1W        W51667  14.881   5.323   8.206 -0.3249  0.2729  0.2328
    1W        W51668   9.660  16.585   8.655 -0.0139  0.0426 -0.1447
    1W        W51669  20.475   9.950   1.628  0.0882  0.1796 -0.1828
    1W        W51670   1.722  25.762   1.605  0.0919  0.0552 -0.1732
    1W        W51671   0.322   8.846   7.573  0.0583  0.1144  0.0482
    1W        W51672  20.223  15.964   1.267 -0.0529  0.1714  0.4370
    1W        W51673  18.627  19.305   2.668  0.0686  0.1769 -0.2214
    1W        W51674   3.327  16.738   9.822  0.1865 -0.2932 -0.0534
    1W        W51675  17.032   6.338   9.753  0.0592 -0.0555 -0.0157
    1W        W51676  15.273  23.687   9.249  0.0386 -0.1054 -0.2109
    1W        W51677   1.000  27.144   7.877 -0.1176 -0.1439 -0.2564
    1W        W51678  27.715  25.093   1.191 -0.0113  0.1621  0.0726
    1W        W51679   1.008   1.032   1.351 -0.1629 -0.0717 -0.2372
    1W        W51680  13.220   9.738   1.157 -0.0308  0.1346 -0.1115
    1W        W51681  18.735  27.191   0.907 -0.0801 -0.0191  0.1001
    1W        W51682  11.060  18.346   2.161 -0.1375 -0.2646  0.0980
    1W        W51683  13.721   8.618   0.406  0.2140 -0.1253 -0.1005
    1W        W51684   2.741  21.004   1.127 -0.0954  0.0757 -0.1107
    1W        W51685  17.284  28.314   2.703 -0.2963 -0.0325 -0.2284
    1W        W51686  20.666   9.749   7.337  0.0197 -0.1846 -0.2523
    1W        W51687  15.549  16.479   9.007  0.2664  0.0644  0.2400
    1W        W51688   5.007  16.839   1.598 -0.0872  0.0494 -0.1644
    1W        W51689  13.074   3.095   0.692  0.0873  0.1349 -0.3015
    1W        W51690  22.052  10.272   1.698 -0.0246 -0.1176  0.0241
    1W        W51691   4.803  12.925   6.314 -0.0396  0.0604 -0.2159
    1W        W51692  21.983   8.453   0.510  0.0297  0.1745 -0.1654
    1W        W51693   8.825   9.877   8.970  0.0054  0.1951  0.0054
    1W        W51694  14.037  27.047   3.783 -0.0220 -0.1759 -0.0432
    1W        W51695  18.586   2.429   3.069  0.3331  0.1409 -0.2008
    1W        W51696   6.884  24.099   6.716  0.3433 -0.0828  0.0664
    1W        W51697  16.080  25.493   9.552 -0.4031 -0.2692 -0.5023
    1W        W51698  28.675   9.714   9.872  0.1809  0.0634 -0.0023
    1W        W51699  21.107   2.728   7.670 -0.4720 -0.0415  0.0002
    1W        W51700   3.264   8.340   8.750 -0.0737 -0.0427 -0.3159
    1W        W51701   5.802   0.480   2.558  0.3077 -0.0391 -0.1453
    1W        W51702  28.071   2.861   8.736  0.0074 -0.2764 -0.2010
    1W        W51703  18.660   4.533   1.788  0.0017  0.0194 -0.1042
    1W        W51704  18.706  10.063   1.431 -0.2768 -0.2824  0.1273
    1W        W51705   1.745  24.951   8.604 -0.2597  0.2702 -0.0436
    1W        W51706   7.171  26.683   0.665  0.4389 -0.2589 -0.3819
    1W        W51707  23.892  15.491   9.908 -0.0527  0.0723 -0.1416
    1W        W51708   5.255   1.239   0.446  0.0960  0.2614 -0.1051
    1W        W51709   3.248  28.076   9.904 -0.1186 -0.1734  0.0455
    1W        W51710  21.144  26.425   8.320 -0.2230 -0.0156 -0.1835
    1W        W51711  11.358  12.216   0.583  0.0686 -0.2012 -0.3760
    1W        W51712  11.212   3.494   9.797 -0.1541  0.1610  0.1861
    1W        W51713  24.297  26.603   9.011  0.0963 -0.1560 -0.3161
    1W        W51714   9.023  10.319   8.708 -0.2962  0.0246 -0.1935
    1W        W51715   4.896   5.348   0.585 -0.1151 -0.0593  0.2339
    1W        W51716  26.558  11.936   8.078  0.0940 -0.2675  0.0013
    1W        W51717  18.663   3.386   0.857 -0.0546 -0.0438  0.0937
    1W        W51718   5.219  14.830   6.779  0.4543  0.1392 -0.1815
    1W        W51719   2.740   2.184   0.051 -0.3333  0.1836 -0.3733
    1W        W51720   3.162  16.636   1.879 -0.1959  0.0245  0.0437
    1W        W51721  13.068  17.562   9.008  0.0520  0.0173 -0.1391
    1W        W51722  17.216  17.016   9.734 -0.0315 -0.0698 -0.0795
    1W        W51723  26.406  19.511   8.364  0.0336  0.0529  0.1416
    1W        W51724  22.409  15.137   9.227  0.0953  0.3110 -0.0427
    1W        W51725   4.420  20.198   1.421  0.1834 -0.2162 -0.2287
    1W        W51726  15.164   7.201   2.966  0.1447 -0.1621  0.0809
    1W        W51727  25.828   1.109   2.653  0.2054 -0.0709  0.0787
    1W        W51728  20.669  25.605   0.844  0.0846  0.2110 -0.0009
    1W        W51729   2.016  28.491   7.779  0.0971 -0.1498  0.0219
    1W        W51730  16.679   7.870   9.455  0.1747 -0.1301  0.1681
    1W        W51731  22.464  13.181   7.725  0.1172  0.0368  0.0550
    1W        W51732  27.753  11.338   1.641  0.0319  0.0900  0.1124
    1W        W51733  21.227   0.010   0.282  0.1924  0.1244 -0.3076
    1W        W51734  27.426  13.925   0.606 -0.3071  0.0454 -0.1147
    1W        W51735  23.042  17.637   2.250 -0.1842 -0.0280 -0.0306
    1W        W51736   6.796   6.793   3.105 -0.0197  0.1239  0.4597
    1W        W51737  10.197  24.994   8.090 -0.0018 -0.2053  0.0869
    1W        W51738  15.420  11.956   3.030  0.0458 -0.0463  0.2257
    1W        W51739   2.277  12.326   6.784  0.1310 -0.1925  0.0730
    1W        W51740  25.988  27.190   7.850 -0.0381  0.1259 -0.0150
    1W        W51741  27.868  15.089   6.168 -0.0000 -0.0900  0.0680
    1W        W51742  11.280  23.368   7.871  0.1156 -0.0032  0.1176
    1W        W51743   5.100   6.027   2.921  0.0560 -0.0211 -0.0398
    1W        W51744   0.970  16.372   6.856 -0.0871  0.1380  0.0624
    1W        W51745  27.255  11.836   9.546 -0.2305 -0.0376  0.2938
    1W        W51746  16.568  22.890   7.728 -0.2712  0.1160 -0.1411
    1W        W51747  12.841  21.418   8.644  0.0763 -0.0367 -0.0155
    1W        W51748   8.599   2.281   2.381  0.2431 -0.1682  0.2766
    1W        W51749   8.816  11.732   9.765 -0.2170  0.0232 -0.1758
    1W        W51750  10.156  13.919   1.271 -0.0481  0.1692  0.1500
    1W        W51751   9.544  19.028   1.399  0.1370  0.2054 -0.1558
    1W        W51752   5.509  20.286   1.449  0.0691 -0.1014 -0.1560
    1W        W51753   3.337   2.407   2.763  0.0511  0.3925 -0.0007
    1W        W51754  22.829  21.789   9.029  0.1475 -0.0355  0.1971
    1W        W51755  20.054  19.770   8.409  0.1810  0.0604 -0.0550
    1W        W51756   0.685   0.783   8.325 -0.0179  0.0112  0.0587
    1W        W51757   2.535  15.668   7.026 -0.0664  0.1273  0.1662
    1W        W51758   8.514   0.097   0.534 -0.0698  0.0177 -0.1403
    1W        W51759   7.990   2.464   8.132 -0.0011  0.0329  0.0053
    1W        W51760  16.804  10.515   1.075  0.0734 -0.3167  0.0969
    1W        W51761  11.279  25.797   1.763  0.1718  0.2938  0.2211
    1W        W51762  16.167  19.602   0.349 -0.1242  0.1513  0.1557
    1W        W51763  24.721   6.639   9.431 -0.0493 -0.2595 -0.0237
    1W        W51764  27.015  12.052   8.260  0.0344 -0.0662 -0.1187
    1W        W51765  17.695  15.793   0.200 -0.1169  0.1534  0.1051
    1W        W51766  26.797   7.307   2.631 -0.3131 -0.0872  0.0628
    1W        W51767  19.745  14.187   0.537  0.0999  0.0183 -0.1751
    1W        W51768  25.446  17.448   8.122 -0.0270  0.0791  0.1719
    1W        W51769   7.972  28.107   1.621 -0.2520 -0.0638 -0.3966
    1W        W51770  24.167  14.080   7.949  0.0453 -0.0941  0.2653
    1W        W51771   6.000  27.407   1.029  0.2080  0.3246  0.1006
    1W        W51772  27.981   2.242   1.562  0.1081 -0.2761 -0.4133
    1W        W51773  20.172   7.923   2.076  0.1207 -0.0560  0.2589
    1W        W51774   1.502  11.578   5.792 -0.1275  0.3266  0.1750
    1W        W51775  16.109   1.539   0.412  0.2719  0.0705  0.0814
    1W        W51776  27.962  14.002   0.949  0.0096  0.0489  0.0713
    1W        W51777   1.537   3.973   0.943  0.0123 -0.1550 -0.0584
    1W        W51778  20.646  27.195   6.850  0.0891 -0.3291 -0.0586
    1W        W51779   1.329  27.889   8.496  0.0170 -0.1764 -0.0979
    1W        W51780  16.706  26.964   0.353 -0.1131  0.3457 -0.1215
    1W        W51781  25.612   3.366   9.799  0.2708  0.1206  0.1567
    1W        W51782  27.851  25.191   2.781  0.0684 -0.0114 -0.2381
    1W        W51783  23.229   0.543   1.319 -0.1937 -0.0821 -0.0920
    1W        W51784  14.761  23.361   7.436  0.0271  0.0860 -0.2003
    1W        W51785  13.448  16.787   8.646  0.0908  0.0821 -0.0563
    1W        W51786  10.900  21.267   7.079 -0.6191 -0.0516  0.0137
    1W        W51787  10.732  13.914   2.155  0.0856  0.2054  0.2440
    1W        W51788   8.100  10.561   3.006 -0.1484  0.3453  0.2772
    1W        W51789   1.113  25.339   7.112 -0.0366  0.2396  0.3119
    1W        W51790  13.648  19.127   7.992  0.1650  0.1383 -0.1699
    1W        W51791  23.388   3.190   8.556  0.0236 -0.1037 -0.1285
    1W        W51792  26.241  17.948   6.873 -0.3183  0.3448  0.1824
    1W        W51793  15.020  20.452   2.422 -0.3335  0.0660  0.1041
    1W        W51794  25.303   4.398   9.853 -0.1733 -0.0009  0.3816
    1W        W51795  26.025  17.618   1.308 -0.0132  0.1743 -0.0185
    1W        W51796  26.688  18.130   6.589  0.0526  0.4031  0.1668
    1W        W51797  16.477  24.460   9.611  0.1375  0.0378 -0.1612
    1W        W51798  10.151   5.992   9.047  0.1329 -0.0530 -0.0499
    1W        W51799   0.791  23.831   6.344  0.3779  0.0461  0.1526
    1W        W51800  19.736  24.915   3.009  0.1913 -0.2508 -0.2044
    1W        W51801   0.472  19.880   6.961 -0.0100  0.0186  0.2786
    1W        W51802   5.734  15.633   8.163  0.0373 -0.1462  0.0194
    1W        W51803  26.516  15.777   0.629 -0.0255  0.2537 -0.2144
    1W        W51804  17.650  20.448   2.190 -0.2099  0.2661 -0.0277
    1W        W51805  21.795  12.804   9.669 -0.1315  0.1732 -0.1264
    1W        W51806   1.427  26.082   9.868 -0.1320  0.0604 -0.2132
    1W        W51807   5.230  16.841   0.716 -0.4064 -0.2744 -0.0675
    1W        W51808   7.690  21.606   7.987 -0.3526 -0.2152 -0.2423
    1W        W51809   3.650  20.155   1.823 -0.0846 -0.3576  0.2481
    1W        W51810  22.250  16.353   7.263  0.0187 -0.0912 -0.3554
    1W        W51811  27.732  27.516   3.925 -0.1049  0.0251 -0.1890
    1W        W51812  15.822  11.454   2.242 -0.0043  0.0744  0.2712
    1W        W51813  18.167  17.188   1.138  0.2588 -0.0730 -0.0441
    1W        W51814   8.156   1.786   0.587 -0.0692  0.0847 -0.2190
    1W        W51815   0.820  11.599   0.581  0.0304  0.1482 -0.1879
    1W        W51816  13.071  23.434   9.915  0.0144 -0.1342 -0.0791
    1W        W51817  14.997   5.190   8.645  0.0333  0.2669  0.2958
    1W        W51818  21.147  16.429   8.031 -0.0504 -0.0323 -0.1733
    1W        W51819  14.326  21.966   1.342  0.3662  0.1506 -0.3218
    1W        W51820   4.350  27.187   8.284  0.0839 -0.0073  0.0814
    1W        W51821  12.564  22.665   3.704  0.2330 -0.0530 -0.0167
    1W        W51822   5.680  17.059   6.701 -0.1069 -0.0826 -0.0226
    1W        W51823  26.756  26.135   8.516  0.0577 -0.3478 -0.0294
    1W        W51824   7.050   0.630   8.240  0.1098 -0.0224  0.1829
    1W        W51825  13.511   2.815   0.678 -0.2764  0.0171 -0.3430
    1W        W51826   9.484  16.894   9.719  0.1129  0.0337 -0.0198
    1W        W51827  20.464   2.284   6.037  0.1934 -0.1377 -0.2656
    1W        W51828   7.690  17.363   8.168  0.1225  0.3773  0.1043
    1W        W51829   8.441  16.975   1.554 -0.0682 -0.1215 -0.1867
    1W        W51830   3.367  26.476   1.825  0.0369  0.2131  0.0745
    1W        W51831   1.699  27.460   0.890 -0.0080 -0.1093 -0.1507
    1W        W51832  20.248  27.739   3.596 -0.0124  0.0921  0.4355
    1W        W51833   0.656   9.670   0.756  0.0199  0.1490  0.2896
    1W        W51834   8.535   6.829   7.792 -0.0107 -0.3566 -0.3356
    1W        W51835  17.620  11.969   6.991  0.4035  0.1644 -0.0175
    1W        W51836  14.865   3.747   7.019 -0.1314 -0.0120 -0.1538
    1W        W51837  25.968  21.064   1.964  0.2960 -0.1336 -0.0998
    1W        W51838  28.476   1.371   6.704  0.1375  0.0757 -0.0938
    1W        W51839   8.698  27.121   7.365 -0.1120 -0.0237 -0.1133
    1W        W51840  12.126  17.079   7.799 -0.1528 -0.0653 -0.0165
    1W        W51841  16.247  27.053   2.868 -0.2101  0.1627  0.0156
    1W        W51842   6.004  23.881   6.461 -0.1638 -0.1201 -0.2715
    1W        W51843   3.942   8.814   9.949  0.0805 -0.0146 -0.2317
    1W        W51844   7.801  13.805   7.732  0.0091 -0.0562 -0.1824
    1W        W51845   6.060  19.650   9.070 -0.0399  0.2160 -0.1249
    1W        W51846  18.374  22.858   8.869 -0.2367  0.1926  0.1612
    1W        W51847   9.274  15.459   0.559  0.0482  0.1990 -0.1953
    1W        W51848   1.193   7.894   2.109 -0.2552 -0.0062  0.1020
    1W        W51849  26.214  13.816   7.992  0.3950  0.0037 -0.1558
    1W        W51850   2.391  11.121   2.201  0.0858 -0.1068  0.2099
    1W        W51851   4.506   1.051   3.039 -0.0640 -0.0276  0.0787
    1W        W51852  16.617  10.746   9.442  0.1016  0.3123  0.0894
    1W        W51853  10.970  20.476   7.968 -0.5410  0.1154  0.0327
    1W        W51854  21.588  20.498   8.717 -0.0206  0.1353 -0.2035
    1W        W51855  22.782  15.965   1.135  0.0586 -0.0239 -0.3702
    1W        W51856  11.261   0.595   9.421  0.0648  0.0949  0.4041
    1W        W51857   2.206  24.049   0.007 -0.0833 -0.1269 -0.0712
    1W        W51858  14.889   9.594   8.591 -0.3808  0.2778  0.1923
    1W        W51859  16.449  17.830   1.923  0.0808 -0.3319  0.0593
    1W        W51860  17.500  15.594   9.201 -0.2008 -0.1295  0.1368
    1W        W51861  23.415  14.744   6.846  0.1828 -0.1214 -0.0454
    1W        W51862   5.424  16.618   7.023 -0.1005 -0.1513 -0.0901
    1W        W51863  27.813  23.975   0.861  0.0881  0.4076  0.1802
    1W        W51864  10.614  15.825   1.230 -0.1912 -0.2409 -0.2318
    1W        W51865  12.629   0.618   7.594 -0.2323 -0.1191 -0.1424
    1W        W51866  11.029  16.547   2.873  0.3087 -0.2444  0.1507
    1W        W51867  27.711  21.668   2.188  0.2799  0.1264  0.0156
    1W        W51868   3.178  19.445   8.107 -0.0303 -0.1196  0.2689
    1W        W51869   8.331   6.036   1.919 -0.1571 -0.0045 -0.2381
    1W        W51870  17.737  16.670   9.746  0.0396 -0.0681  0.2002
    1W        W51871  15.162  28.615   3.760  0.0779  0.1417 -0.0085
    1W        W51872  23.872  13.466   7.521 -0.1884 -0.0299 -0.1950
    1W        W51873  12.196  17.231   1.747  0.1884  0.0749  0.0564
    1W        W51874  16.096  16.912   8.269  0.0589  0.0074 -0.2898
    1W        W51875   9.956   1.941   7.360 -0.0794  0.1375  0.1883
    1W        W51876   2.115  19.453   6.725  0.0265 -0.1670  0.0585
    1W        W51877   0.269   0.615   0.951 -0.0391  0.1554 -0.3246
    1W        W51878   1.728  26.676   1.235  0.2629  0.0828  0.1493
    1W        W51879  13.971   5.627   1.065 -0.2930  0.0087  0.0992
    1W        W51880  19.490   7.794   9.876 -0.1728  0.2401 -0.0466
    1W        W51881  23.612  15.228   1.242  0.1202  0.2357  0.1711
    1W        W51882   7.281  27.291   2.923 -0.0297 -0.1552 -0.2370
    1W        W51883  27.092   8.364   7.799  0.1696  0.3375 -0.0346
    1W        W51884   4.541  26.570   9.956 -0.2266  0.2643  0.0365
    1W        W51885  26.937   9.020   9.749 -0.1465 -0.0137 -0.1677
    1W        W51886   6.446  22.099   9.624  0.3544  0.0106  0.1035
    1W        W51887  27.809  28.719   3.210 -0.1602  0.0841  0.0050
    1W        W51888  23.769  25.158   7.302 -0.0530 -0.1367 -0.1686
    1W        W51889  13.880  21.689   9.857 -0.1934  0.1790  0.0369
    1W        W51890  25.359   6.720   1.687 -0.1462 -0.3065  0.3018
    1W        W51891  25.538   6.934   9.060 -0.0772  0.4103 -0.0248
    1W        W51892  17.291  27.729   0.213  0.1290  0.1843 -0.0839
    1W        W51893  11.145   1.376   7.837  0.2295 -0.1202  0.0042
    1W        W51894  10.708  28.187   9.923 -0.0658 -0.0556 -0.2270
    1W        W51895  24.912  18.925   2.053 -0.0345  0.0338  0.1378
    1W        W51896  25.547  25.960   1.011  0.0145 -0.1164 -0.2374
    1W        W51897  16.234   1.365   2.556 -0.1021 -0.1454 -0.0051
    1W        W51898  26.345   5.831   2.176  0.4634 -0.1467 -0.0500
    1W        W51899  21.657  12.157   0.919 -0.2026 -0.0285 -0.3790
    1W        W51900  27.898   5.173   8.387  0.0107  0.0337  0.1033
    1W        W51901  11.741  10.664   1.478  0.0087  0.1937 -0.0485
    1W        W51902   6.931   2.683   6.764  0.0322 -0.0652  0.1512
    1W        W51903  21.335  14.784   1.025 -0.0276 -0.1129  0.0769
    1W        W51904   5.676   2.978   3.390 -0.1383  0.0867 -0.2089
    1W        W51905  24.436   8.320   0.273  0.1380 -0.0848 -0.2441
    1W        W51906   7.716   1.860   3.477 -0.0562 -0.4423  0.1322
    1W        W51907  14.109   4.717   9.422  0.2283 -0.3277  0.0717
    1W        W51908  13.288   0.790   3.103 -0.0413 -0.2096  0.2161
    1W        W51909  27.298  22.517   7.537  0.0613 -0.1803  0.2156
    1W        W51910  23.358  26.294   7.726 -0.0397  0.2332 -0.0897
    1W        W51911  27.478  28.379   3.768  0.0413 -0.2349  0.1258
    1W        W51912  19.420   5.914   8.396 -0.3291  0.0794  0.0073
    1W        W51913   1.661  23.385   8.863 -0.1440  0.1597 -0.0297
    1W        W51914   6.520  22.313   9.162  0.1328 -0.1667  0.0826
    1W        W51915   1.874   7.131   8.102  0.2159  0.0699  0.3003
    1W        W51916  23.466  11.357   8.361 -0.0430  0.2239 -0.0403
    1W        W51917  26.533  13.724   2.903  0.0422 -0.2163  0.1059
    1W        W51918  28.595  25.374   1.088 -0.1394 -0.1624  0.0760
    1W        W51919  24.575   4.398   1.332  0.1935 -0.2091  0.1663
    1W        W51920   4.896  11.245   3.717  0.2457 -0.0667  0.2584
    1W        W51921  17.953   2.866   2.009 -0.2132 -0.0579 -0.1678
    1W        W51922  27.689   4.619   1.850 -0.0566 -0.0197  0.2504
    1W        W51923   8.206   3.259   2.102 -0.1795 -0.1077 -0.1547
    1W        W51924   0.474  10.800   9.509  0.2733  0.3263  0.2349
    1W        W51925  11.118  14.221   9.403  0.0446 -0.2940  0.2056
    1W        W51926   8.541   3.227   8.255  0.1015 -0.0363  0.0504
    1W        W51927  27.359  27.823   7.942  0.1667  0.2022 -0.1236
    1W        W51928   7.405   4.181   2.752 -0.1434  0.0069  0.0234
    1W        W51929  21.527  27.013   2.815 -0.0914  0.0338 -0.3943
    1W        W51930  25.146   3.716   9.372  0.3240 -0.0200  0.1129
    1W        W51931   4.488  17.661   7.375  0.1027  0.2125 -0.0321
    1W        W51932  28.485  11.292   6.537  0.4268  0.2144 -0.0241
    1W        W51933   6.874   6.568   1.298 -0.2824  0.1443 -0.1046
    1W        W51934  17.774   7.898   2.399  0.0651 -0.0188 -0.3110
    1W        W51935  13.212  22.850   0.135 -0.1513 -0.0662 -0.0616
    1W        W51936   2.705  28.596   3.374 -0.2360 -0.0278  0.0738
    1W        W51937  20.450  21.089   9.417  0.2376  0.1156  0.1111
    1W        W51938  23.666  15.725   1.150  0.3146  0.0727 -0.1682
    1W        W51939  10.156   6.892   9.259  0.1989  0.2496 -0.2270
    1W        W51940   8.838  28.093   1.482 -0.1775  0.1553  0.0710
    1W        W51941   6.358  21.069   7.959 -0.0186 -0.0783  0.1170
    1W        W51942  18.220   5.219   7.494 -0.1855 -0.2030 -0.4880
    1W        W51943   9.976  20.782   8.005 -0.1348 -0.1971 -0.0631
    1W        W51944  24.292  17.134   1.326  0.0332 -0.1925  0.3078
    1W        W51945  17.783  24.335   0.211 -0.3097 -0.0305 -0.0157
    1W        W51946  15.229  21.385   8.554  0.0963  0.2595  0.2503
    1W        W51947   1.337  13.134   9.404 -0.4257  0.2643 -0.0207
    1W        W51948  12.989  28.272   3.778 -0.1185  0.2660  0.0517
    1W        W51949  19.030  19.962   8.032 -0.1045  0.0595  0.0645
    1W        W51950  26.665  24.586   7.556  0.2698  0.0059  0.2858
    1W        W51951   4.184   6.825   9.077 -0.2101 -0.2333  0.0935
    1W        W51952  12.820   7.291   9.334 -0.1721  0.0228 -0.0954
    1W        W51953  27.795   9.266   1.804 -0.0865  0.0463 -0.1858
    1W        W51954   6.989   5.544   1.215  0.0640 -0.0226  0.1934
    1W        W51955  19.727   4.015   9.074  0.0597 -0.2266 -0.1885
    1W        W51956  26.532   0.555   0.482  0.0469  0.0326  0.0869
    1W        W51957   0.633  18.582   1.996 -0.0888 -0.1238  0.2768
    1W        W51958  25.166  16.275   1.776  0.2568  0.2861 -0.0520
    1W        W51959  19.851   3.303   7.837  0.0741  0.0241  0.0061
    1W        W51960   7.970  28.480   9.812 -0.2125 -0.3362  0.1144
    1W        W51961   8.967  23.746   0.762 -0.2565  0.1603  0.3904
    1W        W51962  12.936  11.932   2.316  0.0866  0.3753  0.1995
    1W        W51963  21.554  10.162   1.986  0.1084  0.1513 -0.2036
    1W        W51964  22.989  11.741   0.765 -0.2495  0.2045  0.2247
    1W        W51965   0.363  26.442   8.019  0.1997  0.1685  0.2255
    1W        W51966   9.523  26.678   2.486 -0.0053  0.0830 -0.0316
    1W        W51967  23.296   3.633   6.845 -0.0978  0.1105 -0.1559
    1W        W51968  22.074  24.406   2.731  0.1131  0.2905  0.1114
    1W        W51969   6.681  26.996   8.649  0.0368  0.1880  0.1584
    1W        W51970  28.141  18.654   8.091  0.2351 -0.1019 -0.2141
    1W        W51971   7.601  17.231   6.285 -0.2488 -0.0955 -0.2716
    1W        W51972  27.743  13.938   7.308  0.3028 -0.2016  0.2767
    1W        W51973  10.431  13.492   8.396 -0.2942 -0.0046 -0.2903
    1W        W51974  13.430   2.933   2.651 -0.0362  0.0671 -0.2655
    1W        W51975  17.845  10.645   2.916  0.0767 -0.0999  0.2738
    1W        W51976  28.348  10.887   6.862 -0.0738 -0.1657 -0.1556
    1W        W51977  14.124   3.631   9.370 -0.1066 -0.4266 -0.3701
    1W        W51978   2.484  19.592   7.039  0.1311  0.5134 -0.1775
    1W        W51979  21.981   1.376   7.453  0.0868 -0.0213 -0.1379
    1W        W51980   1.960   3.868   3.493  0.3461  0.0212  0.1600
    1W        W51981   0.827   8.339   9.625  0.2150 -0.1190 -0.0746
    1W        W51982  19.508  23.049   8.312 -0.2518 -0.1505  0.2935
    1W        W51983  23.516  20.981   9.572  0.2857  0.3129 -0.0040
    1W        W51984  16.608   8.884   2.427 -0.1614  0.3417  0.0660
    1W        W51985  26.662  10.313   7.704 -0.3261 -0.1865 -0.0165
    1W        W51986  18.415  26.816   0.924 -0.2606 -0.0391  0.1486
    1W        W51987  14.378  21.258   2.890 -0.0498 -0.3521 -0.0127
    1W        W51988  20.238  15.909   8.261 -0.3155 -0.0792  0.1680
    1W        W51989   7.644  14.214   7.986  0.2424  0.0794 -0.0153
    1W        W51990  17.881   0.369   0.696  0.0025 -0.1428 -0.0124
    1W        W51991   1.087  19.189   1.540 -0.0262 -0.1385 -0.1616
    1W        W51992   7.638  16.085   9.943 -0.1021 -0.1325 -0.1239
    1W        W51993  20.142  11.761   2.234 -0.2036  0.2653 -0.0434
    1W        W51994  21.605   8.797   1.909  0.2791  0.1538 -0.1710
    1W        W51995  18.056   2.136   1.912 -0.0139 -0.0836  0.0663
    1W        W51996  27.925  23.117   6.498  0.1847 -0.2382  0.3123
    1W        W51997   4.611   7.590   9.097  0.2727  0.1253 -0.0594
    1W        W51998   7.176   6.266   7.696 -0.0675  0.0064 -0.2079
    1W        W51999   9.960  23.186   1.714  0.1370  0.1354  0.0957
    1W        W52000  18.212  26.257   7.701 -0.0678 -0.0308 -0.1942
    1W        W52001  20.856  15.129   1.097  0.3927  0.0314 -0.2341
    1W        W52002  11.370  23.251   0.233  0.0831 -0.0943  0.1479
    1W        W52003   2.967  22.912   9.504  0.0858 -0.0558 -0.0582
    1W        W52004   6.303  13.549   0.095 -0.0566 -0.2043  0.0866
    1W        W52005  22.780  14.589   2.272 -0.2757 -0.1152 -0.1933
    1W        W52006   5.123   2.903   7.094  0.3753 -0.0219  0.2421
    1W        W52007  25.078  21.842   1.117  0.1702 -0.0766  0.0704
    1W        W52008  23.141  21.363   1.574 -0.2254 -0.0526 -0.1435
    1W        W52009  11.486  21.604   8.015 -0.1713  0.1306  0.0746
    1W        W52010   0.612   9.170   0.580 -0.0718 -0.1769  0.1535
    1W        W52011  14.104   8.488   0.107  0.2491 -0.0928 -0.3161
    1W        W52012  22.928  11.579   9.095 -0.3874  0.3875 -0.0130
    1W        W52013  27.745   1.133   7.302  0.6550 -0.0904  0.0002
    1W        W52014   4.473  15.499   9.035 -0.1484 -0.1094  0.2395
    1W        W52015  13.915   7.234   8.660  0.1209 -0.0930 -0.1954
    1W        W52016  28.605  17.801   9.956 -0.2824 -0.2063  0.1188
    1W        W52017  25.539  25.154   8.037 -0.0233 -0.0455  0.2160
    1W        W52018   9.252  10.549   9.757  0.1464 -0.4876 -0.2269
    1W        W52019  13.121  22.486   0.561  0.1866  0.0485 -0.0858
    1W        W52020   1.367  12.147   0.457  0.0281  0.0930  0.0575
    1W        W52021  20.071  24.944   6.772 -0.1160  0.4117  0.0362
    1W        W52022   8.613  11.529   7.518  0.1020  0.0438  0.0148
    1W        W52023  27.385  15.104   9.013  0.1227  0.1079 -0.2471
    1W        W52024  25.988   5.998   8.589 -0.1205  0.0667 -0.2511
    1W        W52025  27.925  24.446   0.827 -0.0801 -0.0413  0.3721
    1W        W52026   9.120   4.036   3.813 -0.0627  0.2312 -0.2618
    1W        W52027  27.452  17.880   9.621  0.2403 -0.3435  0.3027
    1W        W52028  18.991  22.202   9.103 -0.1137  0.1217  0.1429
    1W        W52029  27.476   1.965   2.304 -0.1850 -0.2365  0.1813
    1W        W52030  13.237  26.317   1.157  0.2607  0.0076 -0.1596
    1W        W52031  18.670   3.512   2.138  0.0485 -0.3532  0.0300
    1W        W52032  19.992  15.631   0.251  0.0382 -0.0119 -0.2349
    1W        W52033   7.142  17.858   7.389 -0.0493 -0.1459  0.2812
    1W        W52034   1.761   7.434   2.725  0.2598  0.0958 -0.0206
    1W        W52035  13.290  15.714   8.344  0.1343 -0.0146  0.2338
    1W        W52036   9.671  20.502   7.032 -0.1112  0.1055 -0.2563
    1W        W52037  26.226   6.641   5.889 -0.3429  0.0110 -0.0039
    1W        W52038   0.213  10.075   5.938 -0.1091  0.1761  0.1950
    1W        W52039  23.394   7.604   7.596 -0.1344  0.0569  0.2671
    1W        W52040  20.936  24.949   9.825  0.1108  0.3675  0.0520
    1W        W52041  12.903   9.201   9.318  0.0405 -0.2030 -0.4039
    1W        W52042   6.413   0.123   0.507 -0.1985 -0.1886  0.1449
    1W        W52043  17.911   6.987   1.013  0.4494  0.1878 -0.2082
    1W        W52044  17.345   2.842   7.399  0.0467 -0.2646 -0.0831
    1W        W52045   6.374  27.365   7.955  0.1318 -0.2293 -0.2788
    1W        W52046  22.616   0.376   8.200 -0.0764  0.2649 -0.0340
    1W        W52047  17.712   9.498   9.517 -0.0056 -0.0164 -0.0425
    1W        W52048   4.301  10.631   9.839 -0.1687 -0.1447 -0.0483
    1W        W52049   5.536  24.538   0.100 -0.0925  0.0689  0.2330
    1W        W52050  20.608   6.094   1.241  0.3899  0.0433 -0.1493
    1W        W52051  23.633  27.963   1.632 -0.1527  0.0590  0.0297
    1W        W52052   1.898   1.776   8.728  0.1931  0.0656 -0.2045
    1W        W52053   6.460  27.206   0.766  0.0600 -0.0072 -0.2585
    1W        W52054  27.350  11.419   9.220  0.3371  0.2646  0.0596
    1W        W52055   9.672  22.361   6.244 -0.1625  0.0148  0.0546
    1W        W52056  17.378   9.645   7.971  0.1927 -0.2555 -0.0496
    1W        W52057   5.990  16.819   9.778 -0.2488 -0.0655 -0.1434
    1W        W52058   8.995  16.724   0.463 -0.2766 -0.1973 -0.0295
    1W        W52059  13.619  13.908   0.254 -0.2021  0.2648 -0.1285
    1W        W52060  15.011   7.521   8.076  0.0418 -0.1919 -0.2561
    1W        W52061   6.558  17.604   8.793  0.0064  0.0838 -0.1690
    1W        W52062  20.738   6.728   0.501  0.0814  0.0641  0.0615
    1W        W52063   2.080  23.754   1.269  0.1322  0.2793  0.1918
    1W        W52064  13.851  24.313   7.658 -0.0043 -0.1925 -0.1889
    1W        W52065   6.354   6.873   7.416  0.0333 -0.2878  0.0321
    1W        W52066   5.346  12.979   8.777  0.2851  0.1259 -0.0355
    1W        W52067  25.996  28.178   0.804 -0.1794  0.1109 -0.2811
    1W        W52068  17.238   6.972   8.200 -0.0335 -0.2191 -0.1261
    1W        W52069  26.324  24.298   1.848  0.1951 -0.1205 -0.1149
    1W        W52070  14.030  24.659   2.292 -0.0634 -0.0427  0.0204
    1W        W52071   7.885  24.768   9.191 -0.1018 -0.1577  0.0848
    1W        W52072  18.056  16.666   9.205  0.3242 -0.2826  0.0796
    1W        W52073   0.733  24.466   8.233 -0.1803 -0.0143 -0.1561
    1W        W52074  25.276   0.243   0.882 -0.0873 -0.1778 -0.1925
    1W        W52075  23.458   6.376   7.196 -0.1931  0.0301 -0.2230
    1W        W52076  10.269  15.651   2.424 -0.0858  0.2859 -0.2067
    1W        W52077  20.962   4.339   8.916  0.1019  0.0372 -0.0905
    1W        W52078  24.355  19.435   7.467  0.2666  0.0111  0.1737
    1W        W52079  26.071  22.045   7.326  0.0742 -0.0552 -0.1594
    1W        W52080   2.015  10.779   9.389 -0.2007  0.3621 -0.1052
    1W        W52081   8.276  28.071   8.585 -0.0022  0.1807  0.1253
    1W        W52082  27.365   6.393   8.375  0.0411  0.0671  0.1405
    1W        W52083  20.875  10.561   1.060 -0.1353  0.0779 -0.4122
    1W        W52084  14.502  22.486   4.230  0.0260 -0.0454  0.2319
    1W        W52085  22.649   3.226   2.502  0.0252  0.0245  0.2156
    1W        W52086  22.187   5.810   8.326  0.2213 -0.0630  0.0420
    1W        W52087   1.861   8.929   1.280 -0.0794  0.1724 -0.4488
    1W        W52088   1.167   8.242   8.913  0.1394 -0.1356 -0.2096
    1W        W52089   9.156  24.447   0.614  0.0309 -0.0519  0.2011
    1W        W52090  10.744  21.510   7.523 -0.0327  0.0027  0.0654
    1W        W52091   1.138  14.175   5.758  0.0362  0.3177 -0.0146
    1W        W52092   4.584  26.935   7.814 -0.0416 -0.0057  0.1113
    1W        W52093  10.673   8.597   1.560 -0.0613 -0.0837 -0.0127
    1W        W52094  24.539  21.824   6.375  0.1219 -0.1465  0.0831
    1W        W52095  25.890   0.226   0.963 -0.3879  0.0852 -0.1939
    1W        W52096   5.996  19.290   0.112  0.0870  0.0601 -0.0536
    1W        W52097  24.227  25.614   9.736  0.0527 -0.2135 -0.0520
    1W        W52098  14.910  20.448   1.888  0.1980 -0.2342  0.6040
    1W        W52099  18.697  12.492   8.176 -0.0650 -0.3514 -0.1114
    1W        W52100  26.578  26.649   8.132  0.0097 -0.0208 -0.0619
    1W        W52101  22.239  26.117   8.549  0.2850 -0.3672  0.0614
    1W        W52102  10.766  21.442   8.642  0.1422  0.0686  0.0569
    1W        W52103  14.306  16.626   7.378  0.1186  0.0492 -0.1387
    1W        W52104  19.296   3.455   1.675 -0.3791 -0.0739  0.2438
    1W        W52105   1.187   1.890   3.409 -0.0007  0.2416  0.1078
    1W        W52106  15.321  23.955   7.815  0.2006  0.2533 -0.3206
    1W        W52107   9.526   5.476   0.511  0.0284 -0.3058 -0.1526
    1W        W52108  12.507  24.635   9.422  0.1493 -0.0026  0.1815
    1W        W52109   4.971   8.274   2.115 -0.2756 -0.0063  0.1471
    1W        W52110   0.491   9.094   8.661  0.1433 -0.2006 -0.0986
    1W        W52111  20.203  23.819   2.787  0.0229  0.4696 -0.0331
    1W        W52112  23.882  19.006   7.957  0.2512 -0.0879 -0.0604
    1W        W52113  15.493   8.302   1.426 -0.0895  0.1499 -0.2172
    1W        W52114  21.901  18.034   1.027 -0.0497  0.1441 -0.0393
    1W        W52115   3.170   5.406   7.206  0.0618  0.1047  0.0522
    1W        W52116   1.528  27.603   8.822  0.0409 -0.1121  0.1486
    1W        W52117  10.381  10.040   1.024 -0.1919  0.1412  0.0699
    1W        W52118   6.436  15.096   2.000 -0.0164  0.1440 -0.0171
    1W        W52119   5.660  16.234   2.010 -0.2053  0.1170  0.1668
    1W        W52120  25.196  28.293   8.171 -0.0473 -0.0563  0.1379
    1W        W52121   9.550  19.248   9.928 -0.1872 -0.1329  0.1687
    1W        W52122   2.629  16.955   6.926  0.0985  0.0114  0.0146
    1W        W52123  27.341  25.002   0.268  0.0831  0.2326  0.0303
    1W        W52124   0.588  13.354   8.761  0.1303  0.1304 -0.0627
    1W        W52125   1.349  22.181   5.750 -0.1067  0.0674 -0.0535
    1W        W52126  19.312  20.170   9.006 -0.0847  0.0088  0.1914
    1W        W52127  19.391  18.672   2.848  0.1702  0.0314 -0.0526
    1W        W52128   7.085  24.560   6.810  0.1095 -0.0225 -0.0649
    1W        W52129  10.791  18.704   9.669  0.3717  0.0417 -0.0577
    1W        W52130   7.315  27.339   2.274  0.0614  0.2212 -0.0466
    1W        W52131   7.054  27.922   9.627  0.0849  0.0733  0.2010
    1W        W52132  17.610  13.909   9.795 -0.0665 -0.2360  0.1590
    1W        W52133   7.535   3.215   0.423  0.0402 -0.1978 -0.2732
    1W        W52134  21.526   5.010   2.272  0.1451 -0.0637 -0.1414
    1W        W52135   1.315  25.677   8.088 -0.1778 -0.1753  0.0646
    1W        W52136  17.909  16.268   2.634  0.0320 -0.1995 -0.1499
    1W        W52137  14.950  25.667   7.758  0.0973  0.1203  0.0401
    1W        W52138  13.259  14.643   2.218 -0.0548  0.1351 -0.3160
    1W        W52139  13.435  12.512   0.217  0.2898  0.0265  0.1836
    1W        W52140  20.687  17.506   8.786 -0.0212 -0.2214 -0.1793
    1W        W52141  21.886   8.870   3.417 -0.0844 -0.1095 -0.0700
    1W        W52142   2.411   4.853   2.580 -0.1748  0.1928 -0.1526
    1W        W52143  23.984  13.686   8.229 -0.1270  0.3246 -0.0043
    1W        W52144  10.864  23.792   6.725 -0.0725 -0.4255 -0.0954
    1W        W52145  22.593  26.124   2.855  0.0454  0.1089  0.2778
    1W        W52146   1.550  19.403   6.847  0.2151  0.2740 -0.1076
    1W        W52147  28.315  28.669   3.246 -0.0068  0.0914  0.0557
    1W        W52148  21.282   0.139   7.338  0.2240 -0.1976  0.1787
    1W        W52149   9.399   0.105   8.861 -0.0803 -0.3017  0.0696
    1W        W52150  26.251   3.622   1.153  0.3888 -0.0113  0.1205
    1W        W52151   3.521   6.153   1.485  0.2424 -0.1250  0.2226
    1W        W52152   6.330  15.514   7.925  0.2938 -0.0610  0.3323
    1W        W52153   8.891  18.157   7.096 -0.1535  0.1765 -0.3372
    1W        W52154   9.931   8.562   3.280 -0.0412 -0.1545 -0.3368
    1W        W52155  16.549  21.947   2.040 -0.0093 -0.2197  0.1165
    1W        W52156   1.531   6.128   6.688 -0.3006 -0.2566 -0.0247
    1W        W52157   6.334   1.994   2.207 -0.1055  0.0028  0.2295
    1W        W52158   4.322  15.316   6.889  0.3925 -0.0226  0.0645
    1W        W52159  17.118  22.051   7.073  0.0642  0.1180 -0.0762
    1W        W52160   1.455   6.864   8.912  0.1927  0.1875  0.0008
    1W        W52161  27.910   0.979   7.762  0.0132 -0.1582  0.0364
    1W        W52162  21.060   3.142   7.324 -0.2374 -0.0943 -0.1894
    1W        W52163  18.160  17.204   0.217 -0.0030 -0.0369 -0.2080
    1W        W52164   6.007  27.998   1.438  0.1239  0.0706  0.1603
    1W        W52165  22.016  14.287   1.815 -0.1789 -0.1997 -0.2634
    1W        W52166   2.117  10.492   3.104 -0.3760  0.1809 -0.1461
    1W        W52167  24.954  14.572   8.957  0.2136 -0.0711  0.3710
    1W        W52168   1.878   1.857   0.646 -0.1633 -0.4504 -0.3243
    1W        W52169  25.632   0.935   1.446  0.1875  0.0731  0.1195
    1W        W52170   9.668   7.852   1.161 -0.0342 -0.2394  0.0507
    1W        W52171  13.680  27.178   9.536 -0.0451 -0.1632  0.0834
    1W        W52172  22.268  19.673   1.202  0.0159  0.0500  0.1481
    1W        W52173  14.583  16.962   7.853 -0.2028  0.0102 -0.1923
    1W        W52174  15.207  17.755   0.709  0.0461 -0.0616  0.4694
    1W        W52175  15.026   4.039   2.335  0.0587 -0.2084  0.1491
    1W        W52176   8.589   0.470   8.367 -0.0941 -0.0473  0.0934
    1W        W52177   0.531  21.979   8.002 -0.1284 -0.1157 -0.1449
    1W        W52178  21.361  14.960   1.747  0.0265  0.0661 -0.3115
    1W        W52179  23.677   2.421   1.829 -0.2197 -0.1322 -0.0339
    1W        W52180  22.298   0.252   9.876  0.0470  0.0996 -0.1309
    1W        W52181   7.961  23.629   1.188  0.2845  0.0269 -0.3351
    1W        W52182   2.413  14.877   1.847 -0.4092 -0.0235  0.1232
    1W        W52183   8.052  24.236   9.434 -0.0678  0.0914  0.1672
    1W        W52184  26.264  27.586   0.254 -0.0204  0.1683 -0.0271
    1W        W52185  23.645   6.531   7.679  0.1018 -0.0782 -0.3663
    1W        W52186  21.379  11.717   7.608  0.0159  0.2691  0.0523
    1W        W52187   4.143  13.117   7.678  0.1179 -0.2387  0.0868
    1W        W52188  13.334  12.133   2.568  0.2194 -0.0260 -0.0789
    1W        W52189  22.687  26.283   8.102 -0.1622 -0.0350 -0.2186
    1W        W52190   0.039  27.561   9.027 -0.2041  0.0497 -0.1073
    1W        W52191   3.090  19.963   1.560  0.2305 -0.0712 -0.1799
    1W        W52192  17.433  16.313   7.428 -0.0531  0.2296  0.1450
    1W        W52193   2.729  28.331   2.848 -0.1199 -0.2516 -0.1907
    1W        W52194  20.324   3.294   9.674  0.0068 -0.1565 -0.1873
    1W        W52195  16.944   9.378   8.020  0.5741 -0.3431  0.0239
    1W        W52196   8.596  14.096   0.642  0.0287 -0.1035  0.0054
    1W        W52197  13.344  24.472   6.771 -0.2638  0.0964 -0.2279
    1W        W52198  10.343  19.377   7.519  0.0173  0.2929  0.0807
    1W        W52199   4.635   2.490   2.208 -0.1025  0.2448  0.2686
    1W        W52200  13.625   8.205   0.085 -0.2770 -0.0513 -0.2595
    1W        W52201  10.155  14.382   7.379  0.2381  0.3382  0.2717
    1W        W52202   7.590   2.771   7.614 -0.0772  0.1570  0.0564
    1W        W52203  10.781   3.923   0.557 -0.1732 -0.2278 -0.4008
    1W        W52204  22.189  23.608   2.071 -0.1349 -0.1005 -0.1689
    1W        W52205  10.154  25.997   1.957  0.2776  0.0335  0.2181
    1W        W52206  23.019   1.184   7.407  0.2574  0.0610  0.0960
    1W        W52207  22.588  22.753   7.080  0.1060 -0.0218  0.1699
    1W        W52208  11.718  26.560   6.662 -0.1241 -0.1003 -0.3192
    1W        W52209   8.893   1.934   8.175 -0.4221  0.1093  0.2015
    1W        W52210   9.500   0.716   3.021  0.1811  0.0935  0.0598
    1W        W52211  16.217  12.716   7.687  0.0315 -0.1031 -0.1017
    1W        W52212   3.779  18.889   7.880  0.1206  0.2234  0.1486
    1W        W52213  24.046  11.055   2.483  0.0649  0.1786  0.2106
    1W        W52214  23.782   6.835   6.876 -0.2311  0.0844 -0.0449
    1W        W52215  13.828  28.655   7.998  0.4320  0.4486  0.1573
    1W        W52216  15.719  24.553   0.402 -0.0049 -0.0244 -0.0416
    1W        W52217   3.087  11.072   8.606 -0.0472  0.1750  0.2112
    1W        W52218  26.378  24.788   1.853  0.1496 -0.2766  0.1518
    1W        W52219   1.856  10.256   9.581  0.1680 -0.4055 -0.2772
    1W        W52220  24.336   2.996   6.790  0.0026 -0.2178 -0.0753
    1W        W52221  13.112   0.334   7.560 -0.1738 -0.0037 -0.1007
    1W        W52222  14.585   4.201   0.860  0.0885  0.0550  0.1228
    1W        W52223  20.532   6.878   7.785  0.0199 -0.3371  0.0122
    1W        W52224  25.753  26.254   0.582 -0.1731  0.0342  0.1370
    1W        W52225  18.411  26.600   9.102 -0.0920  0.0494  0.0121
    1W        W52226  27.386  16.126   5.537 -0.1660 -0.1960  0.3580
    1W        W52227   9.833   5.118   8.281  0.1586  0.1466 -0.2505
    1W        W52228  19.883   1.732   9.559  0.1681  0.0047  0.1206
    1W        W52229   2.897   2.572   8.786 -0.3948  0.0255 -0.0268
    1W        W52230   6.678  22.107   0.579  0.2528 -0.0397  0.0673
    1W        W52231  16.873  18.828   2.359  0.1346 -0.1521 -0.0597
    1W        W52232  23.027  20.250   6.479 -0.1866  0.2576 -0.0039
    1W        W52233  17.824  14.382   2.137 -0.1696  0.2024  0.0429
    1W        W52234  23.440   6.226   9.505 -0.0946 -0.0400 -0.0913
    1W        W52235   5.737   8.401   2.869  0.0072  0.0927 -0.2289
    1W        W52236   1.687   2.564   1.887 -0.0961  0.0280  0.2266
    1W        W52237  12.065   0.930   0.913 -0.1149  0.0361 -0.1775
    1W        W52238  21.742  24.652   7.909 -0.0187  0.2165 -0.2186
    1W        W52239   7.180   0.526   0.817  0.0484 -0.2905 -0.0126
    1W        W52240  23.644   2.341   7.261 -0.0081  0.1951  0.1342
    1W        W52241   3.052   2.887   8.444 -0.1053  0.4498 -0.0753
    1W        W52242  16.908   4.855   8.602 -0.0602 -0.1172 -0.1505
    1W        W52243  28.083  25.343   7.714 -0.0041  0.0732  0.0742
    1W        W52244   9.017  19.135   1.686  0.2275 -0.2334  0.4395
    1W        W52245   2.662  14.166   1.045 -0.0140 -0.2863 -0.0257
    1W        W52246  21.680  20.613   7.473  0.1555 -0.2111  0.3582
    1W        W52247  21.278  19.159   0.739  0.1879 -0.4563 -0.0895
    1W        W52248  24.828  11.924   7.302 -0.4257 -0.2435 -0.0589
    1W        W52249   7.243  27.328   8.876  0.1877  0.2023 -0.5330
    1W        W52250  27.458  10.533   8.892 -0.1045 -0.1268  0.2513
    1W        W52251  14.787   0.827   7.837  0.1931  0.1576  0.0108
    1W        W52252  17.201   3.668   9.804  0.0893 -0.1926  0.0577
    1W        W52253  17.385   3.698   8.569  0.0479  0.0154 -0.0586
    1W        W52254   7.578   7.190   1.258 -0.2395 -0.0922  0.1433
    1W        W52255  18.203  25.235   8.457 -0.1305 -0.0441 -0.0913
    1W        W52256  15.807  11.111   0.068 -0.3125  0.1156  0.1511
    1W        W52257   5.176  20.678   1.162  0.2933 -0.1968  0.1703
    1W        W52258   5.330   5.027   0.458  0.0997  0.2986  0.1495
    1W        W52259   6.931  12.731   9.650  0.2169 -0.0123 -0.0990
    1W        W52260  28.648   0.175   7.703  0.0359  0.2232  0.0573
    1W        W52261  18.168  17.710   1.105 -0.3345 -0.1813  0.4788
    1W        W52262  13.710  17.019   2.268 -0.1974  0.1500  0.4520
    1W        W52263  13.509  19.774   7.250 -0.1847  0.1728 -0.1355
    1W        W52264  18.187   2.007   3.050  0.2468 -0.0761  0.2563
    1W        W52265  18.063  22.021   0.353  0.2754  0.1028  0.0311
    1W        W52266  10.554  25.093   1.435  0.0884 -0.1988 -0.1282
    1W        W52267   2.253  23.589   0.209 -0.0871 -0.0358 -0.1031
    1W        W52268  28.702  22.601   0.843 -0.0377  0.1684 -0.1946
    1W        W52269  12.410  19.625   8.560  0.1703  0.0754 -0.1131
    1W        W52270  18.118   3.262   8.117  0.0360  0.0128 -0.0957
    1W        W52271  21.144  10.448   7.439 -0.1641 -0.2195 -0.0067
    1W        W52272   0.683  10.460   9.909  0.1442 -0.0117 -0.3584
    1W        W52273  15.980   5.286   0.992  0.0284 -0.1349  0.3219
    1W        W52274  24.813   6.823   0.500 -0.1055 -0.1860  0.1496
    1W        W52275   4.229  12.551   3.056 -0.1279 -0.2795 -0.0099
    1W        W52276   4.829  19.257   9.195  0.2611  0.0742  0.1285
    1W        W52277   6.956   9.490   8.135  0.1836  0.0979  0.2006
    1W        W52278  21.432   2.469   1.914 -0.1881  0.3329  0.3212
    1W        W52279   5.382   1.014   3.547  0.2927  0.4160 -0.3013
    1W        W52280  25.287  17.056   7.568  0.2436 -0.0834 -0.4811
    1W        W52281  25.553  28.010   8.633 -0.2093 -0.0415 -0.1787
    1W        W52282  26.938   3.111   8.935 -0.0676 -0.4763 -0.0629
    1W        W52283   2.314  16.884   8.306 -0.0748  0.0328  0.0583
    1W        W52284   8.647  11.056   2.634 -0.1212  0.0660  0.1824
    1W        W52285   0.289  18.094   1.003  0.0754  0.1782  0.3409
    1W        W52286  19.876  25.146   7.673 -0.0944 -0.1194  0.0133
    1W        W52287   7.098  11.616   2.164  0.2244 -0.2857  0.0771
    1W        W52288   3.126   5.060   3.303 -0.2574  0.2031 -0.1376
    1W        W52289  11.798   3.544   9.044 -0.0852  0.1631 -0.1795
    1W        W52290   4.188  12.345   7.236 -0.0132 -0.3323 -0.0993
    1W        W52291   0.162  13.250   8.944  0.2007  0.0240 -0.0280
    1W        W52292  11.247  28.118   1.140  0.0192  0.1819 -0.1663
    1W        W52293  26.293  11.790   0.848 -0.1967 -0.0484 -0.2120
    1W        W52294  14.770  28.189   8.207 -0.3172  0.3431  0.0573
    1W        W52295   0.982  20.316   6.621 -0.3909 -0.6992  0.2077
    1W        W52296  10.809  17.899   2.284 -0.0196 -0.0803  0.2396
    1W        W52297  25.752  18.834   9.792 -0.4261 -0.0196  0.3933
    1W        W52298  16.703  26.473   0.858  0.1467  0.3310 -0.1210
    1W        W52299  28.089  24.120   6.173  0.0323  0.0630  0.0129
    1W        W52300   9.719  22.896   9.911 -0.1964  0.0829  0.1613
    1W        W52301   0.239  11.982   1.411 -0.1816  0.3270  0.1705
    1W        W52302  25.613  14.053   8.590  0.0976 -0.0433 -0.0298
    1W        W52303  14.299  15.218   9.614  0.1224 -0.0915  0.0017
    1W        W52304   5.751  16.540   6.668  0.3600  0.1031  0.3247
    1W        W52305  17.387  11.722   7.751 -0.1885 -0.2341 -0.0604
    1W        W52306  10.218  13.370   7.955  0.0541 -0.0203 -0.0695
    1W        W52307  25.629  25.117   1.111 -0.2150  0.0741  0.2799
    1W        W52308  24.503  11.677   1.721  0.0479  0.0525  0.0570
    1W        W52309  15.971   0.267   0.135 -0.0146 -0.0612 -0.0799
    1W        W52310   0.330   1.052   0.753 -0.0871 -0.0046 -0.1354
    1W        W52311  27.273  19.193   1.282 -0.2923 -0.0300  0.1157
    1W        W52312  22.412  10.959   8.274 -0.2894 -0.0954 -0.1173
    1W        W52313  23.743   1.701   8.465  0.2367 -0.0465  0.2324
    1W        W52314   1.041   2.185   0.941 -0.1646  0.0171 -0.1535
    1W        W52315  19.630   1.520   7.193 -0.1899 -0.2241  0.1168
    1W        W52316  24.679  24.167   1.193 -0.2119 -0.3434  0.0544
    1W        W52317  11.319  10.830   0.646  0.0802  0.0544  0.1150
    1W        W52318  23.147  15.608   1.253 -0.0649 -0.2520 -0.1582
    1W        W52319  10.280   1.911   2.991  0.0902 -0.1879  0.2700
    1W        W52320   0.368  26.770   1.674  0.0258  0.0360 -0.0757
    1W        W52321  10.110  21.435   0.999 -0.0771 -0.0755 -0.4028
    1W        W52322   7.066  25.723   1.793 -0.0481 -0.3773 -0.2009
    1W        W52323   0.709  14.594   2.909  0.1231 -0.1246  0.1641
    1W        W52324  11.806  15.404   9.208 -0.3817  0.1584  0.3217
    1W        W52325  25.774  24.661   1.126  0.1577 -0.1979  0.0272
    1W        W52326   2.268   4.597   2.078  0.3139 -0.3926 -0.0965
    1W        W52327   3.038  15.075   7.035  0.0204 -0.0337  0.3416
    1W        W52328  11.781  12.898   2.520  0.0388  0.2764  0.0775
    1W        W52329   2.856  14.229   8.672  0.0213  0.0193 -0.0955
    1W        W52330   4.747  13.094   2.617 -0.1080 -0.2284 -0.0775
    1W        W52331  24.915  19.878   7.616 -0.2969  0.0605 -0.1308
    1W        W52332  20.028  26.100   8.132  0.0282 -0.1224 -0.3808
    1W        W52333  18.905  28.071   9.274  0.2605 -0.1519  0.1371
    1W        W52334  26.194  27.276   6.992 -0.1185 -0.1745 -0.2754
    1W        W52335  18.268  21.151   7.861 -0.0499  0.2848  0.0246
    1W        W52336  23.475  15.485   9.540 -0.2997 -0.0568  0.2373
    1W        W52337  18.837  25.835   9.178 -0.0183 -0.1797 -0.3135
    1W        W52338  24.827  12.302   8.761 -0.0303  0.0856  0.0800
    1W        W52339  25.372   1.211   3.585  0.1658 -0.0964 -0.2432
    1W        W52340  10.928  17.746   1.135  0.0695 -0.0684 -0.1160
    1W        W52341  20.635  23.810   3.157  0.0898 -0.1172  0.3233
    1W        W52342   5.928   8.287   0.584 -0.1565 -0.0128  0.0713
    1W        W52343  18.411   6.505   7.454 -0.0687  0.0151 -0.2167
    1W        W52344   8.353   8.720   7.869  0.1466 -0.1126  0.0469
    1W        W52345  20.235  13.905   8.670  0.2596 -0.0134  0.2253
    1W        W52346  19.273   2.015   1.827  0.1445 -0.0722 -0.0010
    1W        W52347  13.471  20.250   2.441 -0.0602 -0.1341  0.0275
    1W        W52348  25.906  19.759   6.648  0.1880  0.0979 -0.0202
    1W        W52349  27.005  24.045   7.063 -0.2232 -0.0841  0.0175
    1W        W52350   4.574  25.214   6.550 -0.1281 -0.3793  0.1317
    1W        W52351   4.811  24.803   9.153 -0.0098 -0.0537 -0.0788
    1W        W52352   8.968   0.890   1.014  0.0867  0.0977 -0.1488
    1W        W52353   0.110  13.776   9.202 -0.0321 -0.1463  0.2599
    1W        W52354   4.937  20.269   1.419 -0.0155  0.0287  0.2002
    1W        W52355  22.092  20.751   0.191  0.1931  0.4333  0.0344
    1W        W52356  22.100   7.315   9.260  0.2296 -0.3519 -0.1064
    1W        W52357  13.979  23.067   9.390  0.0781 -0.0442  0.3599
    1W        W52358  23.170  27.437   9.622  0.2227  0.3259 -0.1291
    1W        W52359   2.765   8.650   8.537 -0.0015 -0.0970  0.1145
    1W        W52360  24.389  17.681   9.264 -0.1057 -0.0151  0.2617
    1W        W52361   8.360   0.342   1.021 -0.0773  0.2837  0.1216
    1W        W52362   4.915  13.589   9.577  0.3422 -0.1455 -0.0854
    1W        W52363  19.614   9.024   1.398 -0.2106  0.1941 -0.0834
    1W        W52364  15.582  11.593   1.785 -0.0571 -0.0662  0.0655
    1W        W52365  10.641   5.675   9.893 -0.0139  0.0436  0.2477
    1W        W52366  17.717  24.292   0.991  0.0433 -0.0318 -0.0184
    1W        W52367  11.442  25.395   7.836  0.0950 -0.0191  0.3425
    1W        W52368  17.120  16.043   2.024  0.2438  0.2852 -0.0460
    1W        W52369  19.974  25.780   9.122  0.0696  0.3204  0.1517
    1W        W52370  11.611  14.491   1.734 -0.2338  0.0690 -0.2334
    1W        W52371  11.383  16.639   1.015 -0.1406 -0.0269 -0.2685
    1W        W52372  24.216  25.216   0.526 -0.3301  0.1617 -0.0751
    1W        W52373  19.501   1.806   2.405  0.1707 -0.1992 -0.3018
    1W        W52374  26.199  20.529   1.273 -0.0685  0.0516 -0.1557
    1W        W52375  16.713  16.692   2.599 -0.0416 -0.3619 -0.1932
    1W        W52376   6.959  18.197   8.186  0.3154  0.1485  0.2994
    1W        W52377   6.073   7.733   0.552 -0.0392  0.0424 -0.0763
    1W        W52378  22.152  18.844   7.464 -0.1793 -0.1422 -0.3296
    1W        W52379  18.327  25.837   7.512 -0.0832 -0.1248  0.0218
    1W        W52380  20.411  27.132   2.661  0.0041  0.3331  0.2373
    1W        W52381  12.002  13.670   2.657  0.3210 -0.3574  0.2185
    1W        W52382   0.826  27.198   8.377  0.1246  0.0573  0.1596
    1W        W52383  27.700  27.122   1.688 -0.1080 -0.0859 -0.1769
    1W        W52384  26.195   9.400   6.591  0.2677  0.1153  0.0462
    1W        W52385  23.616  21.545   0.203  0.1922  0.0458 -0.1083
    1W        W52386  14.690  11.604   7.709  0.2483 -0.1907 -0.0680
    1W        W52387  27.529  15.152   8.012 -0.0956  0.0121  0.1115
    1W        W52388  25.990  27.848   9.937  0.1028 -0.0474  0.1314
    1W        W52389  14.772  19.127   1.933 -0.1921 -0.3700  0.2240
    1W        W52390  12.758  26.324   0.865 -0.0377 -0.1325 -0.0886
    1W        W52391  16.219  14.293   2.062  0.3780 -0.0949 -0.0088
    1W        W52392   4.248  22.900   2.067 -0.0388  0.3085 -0.0781
    1W        W52393  25.188  27.840   3.351  0.0499  0.2908  0.0344
    1W        W52394  26.034  12.302   8.668 -0.0838 -0.3177  0.1633
    1W        W52395   8.755   0.607   0.645 -0.1292  0.1855  0.1688
    1W        W52396  28.399   2.225   2.483  0.2528  0.0271  0.3402
    1W        W52397   3.788   8.321   8.039 -0.2094  0.3566  0.4267
    1W        W52398  17.645   0.255   8.997  0.1711 -0.3305  0.2796
    1W        W52399  12.384  25.246   8.158 -0.1559 -0.1020 -0.1396
    1W        W52400  21.489   8.551   0.574  0.0841  0.0525 -0.1247
    1W        W52401  13.906  26.164   2.187  0.1512  0.2757 -0.0136
    1W        W52402   0.083  11.086   9.681  0.0595  0.0121 -0.1510
    1W        W52403   5.977   9.809   2.986  0.0364  0.3007  0.0550
    1W        W52404  24.911  25.514   0.337 -0.1433 -0.1060  0.2022
    1W        W52405  22.190   9.319   0.355 -0.0890 -0.0118 -0.0243
    1W        W52406  11.255  23.518   2.350  0.0294  0.2954 -0.3539
    1W        W52407  18.605  21.668   7.791 -0.1640  0.2701 -0.1597
    1W        W52408   1.870  11.960   9.725  0.0536 -0.1738  0.1172
    1W        W52409  24.233  23.453   7.471  0.0606 -0.0249 -0.0857
    1W        W52410  16.972  22.276   2.127 -0.2083  0.0913  0.0496
    1W        W52411  18.018  17.502   2.355 -0.0186 -0.2424  0.0524
    1W        W52412  10.255  20.739   7.558 -0.1650  0.3307  0.0152
    1W        W52413   7.781  26.124   9.018 -0.2361 -0.0472  0.0690
    1W        W52414   6.486  20.474   1.237 -0.2748 -0.0698 -0.1362
    1W        W52415   9.512  10.916   2.443 -0.0293 -0.0350 -0.0029
    1W        W52416   5.111  26.416   8.825 -0.4025  0.0515 -0.1785
    1W        W52417  23.530   7.454   1.301  0.0343  0.2757  0.0195
    1W        W52418  10.442   5.933   9.501 -0.1802 -0.0874  0.2343
    1W        W52419  26.773   3.442   1.095  0.1295 -0.0909 -0.0591
    1W        W52420   5.378  23.734   6.692 -0.1495  0.0080 -0.1062
    1W        W52421  17.020  18.281   3.688 -0.0992  0.1012  0.1369
    1W        W52422   2.070   6.331   8.241 -0.1689 -0.0504 -0.2940
    1W        W52423  14.496  17.307   1.924  0.1254  0.0009  0.0444
    1W        W52424   8.313  20.486   7.961 -0.3125 -0.0539  0.0261
    1W        W52425  20.617   2.923   9.407 -0.3555  0.0575 -0.2034
    1W        W52426  23.817  25.746   8.984 -0.1789  0.2157 -0.0747
    1W        W52427   7.534  24.004   9.566  0.0062  0.1023 -0.2133
    1W        W52428  12.898  10.153   0.912 -0.3057 -0.0812 -0.0854
    1W        W52429   5.355  15.959   7.891 -0.2701  0.0354  0.1451
    1W        W52430   4.151  28.425   9.715 -0.4633  0.0266 -0.1957
    1W        W52431  13.058  28.694   8.331  0.0605  0.1105  0.0509
    1W        W52432   7.918  25.718   0.763 -0.0892 -0.0708 -0.0398
    1W        W52433  19.743  25.735   1.857 -0.0816  0.0975 -0.1275
    1W        W52434   7.848  28.244   0.869 -0.2730  0.3253  0.3679
    1W        W52435  27.052  26.937   0.650  0.3371 -0.1229 -0.1636
    1W        W52436   4.618  25.749   7.386  0.0298  0.1617 -0.0333
    1W        W52437   9.383  27.600   8.203 -0.0459  0.0975  0.2431
    1W        W52438   2.363  26.953   8.674  0.1695 -0.3038 -0.2311
    1W        W52439  18.731  11.836   7.599 -0.2396 -0.0277  0.1912
    1W        W52440  16.893   6.975   9.870 -0.0324 -0.1566 -0.1574
    1W        W52441   4.949   4.630   6.799  0.0741 -0.1398  0.3361
    1W        W52442   6.972  16.024   1.093 -0.0902  0.4328 -0.0796
    1W        W52443  19.314   7.979   2.077  0.1524 -0.0930 -0.0868
    1W        W52444  22.584  10.538   9.101 -0.5007 -0.3158 -0.3671
    1W        W52445  21.166  16.167   0.970 -0.2060 -0.3355  0.1493
    1W        W52446  14.268  25.528   2.681  0.0664 -0.2514 -0.2803
    1W        W52447  25.229   1.280   1.999  0.1294  0.4653  0.2306
    1W        W52448  22.514  14.555   1.628 -0.2987  0.2256  0.0998
    1W        W52449  17.208   6.632   4.151  0.1575 -0.3361 -0.0197
    1W        W52450   2.919  13.033   1.245  0.2381 -0.0111 -0.2084
    1W        W52451  25.938  20.811   9.545  0.1441 -0.0190 -0.1154
    1W        W52452  14.068   9.033   0.183 -0.3349  0.0853 -0.0879
    1W        W52453  14.461  12.272   1.998  0.0469  0.0037  0.1988
    1W        W52454  18.768  24.958   3.642 -0.0760  0.0629  0.0071
    1W        W52455   0.065   5.693   2.523  0.4400 -0.3446 -0.1887
    1W        W52456   7.348  28.679   1.549 -0.0288  0.0907  0.0215
    1W        W52457   5.790  28.599   3.311  0.2656 -0.2048  0.3431
    1W        W52458  10.617  12.626   7.942 -0.1127 -0.1105  0.4253
    1W        W52459  26.124  12.032   1.222  0.1968  0.4004  0.0445
    1W        W52460   9.728   8.255   8.078 -0.1331  0.1045  0.1567
    1W        W52461   7.694   6.759   2.882  0.1171 -0.0256 -0.0625
    1W        W52462   7.581   7.392   2.206  0.3337 -0.2748 -0.2574
    1W        W52463  15.457  12.887   7.965 -0.0398 -0.0094 -0.0965
    1W        W52464  14.482  22.848   0.962  0.0538 -0.2197 -0.0023
    1W        W52465  14.095  10.549   9.041 -0.0844 -0.2798  0.2706
    1W        W52466   0.951  10.782   6.597 -0.0087 -0.5000 -0.2706
    1W        W52467  13.236   1.667   0.876  0.0571 -0.0971 -0.3865
    1W        W52468   5.123  24.804   0.928 -0.1558 -0.2329 -0.3840
    1W        W52469  12.028  19.845   8.276 -0.1004  0.0758  0.2789
    1W        W52470   1.244   4.260   0.289 -0.0227  0.1850  0.0401
    1W        W52471  12.426  23.030   8.137 -0.1330  0.0266 -0.0923
    1W        W52472  14.407  26.564   8.418  0.1508  0.0247 -0.5657
    1W        W52473  20.932  10.126   7.051 -0.1030 -0.0717  0.0033
    1W        W52474  23.157  12.410   2.163  0.0435 -0.2869  0.0935
    1W        W52475  10.967   4.811   9.936  0.0477 -0.1223 -0.0666
    1W        W52476   8.964  12.108   0.877 -0.0745  0.1786  0.2278
    1W        W52477  19.012  15.787   0.656 -0.0574 -0.2130 -0.1369
    1W        W52478   6.574   5.164   8.051 -0.2819  0.4022 -0.0174
    1W        W52479   3.716   0.356   1.462 -0.0399 -0.0816  0.0408
    1W        W52480  28.267   4.448   0.298 -0.0971  0.1422 -0.2795
    1W        W52481  25.534  14.213   0.067 -0.1605  0.0769  0.0153
    1W        W52482   6.820   1.696   2.048  0.0752  0.1620  0.1308
    1W        W52483   7.381   9.587   3.447 -0.2226 -0.1505  0.2589
    1W        W52484  15.547   7.533   3.169 -0.0717 -0.2031 -0.0509
    1W        W52485  23.896   3.437   8.635  0.1259  0.0133 -0.1930
    1W        W52486  21.803   0.058   1.341  0.0462  0.2120 -0.0035
    1W        W52487   8.493   5.024   7.708 -0.3241  0.0776  0.1754
    1W        W52488  25.307   1.047   0.709  0.0343 -0.0274 -0.2848
    1W        W52489   1.502  19.159   6.329  0.0333  0.2340  0.0644
    1W        W52490  15.580  14.110   2.578 -0.2612 -0.0422 -0.1840
    1W        W52491  13.723  16.361   8.722 -0.3306 -0.0149  0.2327
    1W        W52492   4.345  19.560   6.730  0.2053  0.1445  0.0900
    1W        W52493   6.752  17.936   9.138  0.2393 -0.1682  0.1802
    1W        W52494  18.319  14.736   7.226  0.0082  0.1808 -0.2836
    1W        W52495  13.444  11.673   2.741 -0.1499  0.1701  0.1439
    1W        W52496  19.115  27.451   9.329  0.1100  0.2280  0.2983
    1W        W52497  20.716  27.614   7.197  0.0632  0.2799 -0.0247
    1W        W52498  19.859   2.288   9.567  0.1979 -0.1336  0.0821
    1W        W52499  27.869  14.362   9.902 -0.0990 -0.2318 -0.2741
    1W        W52500  15.172  19.478   2.263 -0.0777 -0.0832 -0.1145
    1W        W52501   0.303   2.631   8.067  0.0301 -0.0346  0.1147
    1W        W52502  21.016  12.728   8.053 -0.1488 -0.1446 -0.0860
    1W        W52503  28.598  15.071   9.052 -0.1180  0.0307 -0.0206
    1W        W52504   0.825  15.747   6.671 -0.2441 -0.1721 -0.0089
    1W        W52505  26.147   6.041   9.443 -0.0746 -0.0034 -0.1869
    1W        W52506  15.189  10.703   0.762  0.2925  0.5089  0.2715
    1W        W52507   0.092  20.093   7.708 -0.2327  0.2648 -0.2989
    1W        W52508  24.406   4.053   6.122  0.2721 -0.0777 -0.0068
    1W        W52509  19.637  20.120   1.154 -0.2012 -0.0108 -0.2061
    1W        W52510  26.171  25.524   3.028 -0.0431  0.1657  0.2810
    1W        W52511  18.525  19.508   0.607  0.3647 -0.1966  0.0653
    1W        W52512  18.724  20.016   1.340 -0.0440  0.0132  0.0252
    1W        W52513   2.449  23.229   7.606  0.3865  0.0156  0.0475
    1W        W52514  28.029  14.286   1.405  0.2400  0.1145 -0.0403
    1W        W52515  22.527   2.721   8.305  0.0274 -0.2117 -0.2600
    1W        W52516   1.641  15.290   9.379  0.1420  0.3561  0.0270
    1W        W52517  12.651  16.496   2.083  0.0693  0.0054  0.0255
    1W        W52518   4.989   4.552   1.722  0.0249  0.0901  0.1109
    1W        W52519   5.211  10.604   2.452  0.0722  0.2762  0.1522
    1W        W52520  16.559  24.246   1.388 -0.1439  0.1721 -0.0135
    1W        W52521  24.277  26.275   0.625 -0.1253 -0.0974 -0.0621
    1W        W52522   0.198  13.082   8.129 -0.1489  0.0599  0.1249
    1W        W52523   4.598   2.036   0.056 -0.0469 -0.1846  0.3318
    1W        W52524   2.522  22.678   5.374 -0.0263  0.1229 -0.1884
    1W        W52525  10.121  12.812   8.822  0.1494  0.0403  0.0466
    1W        W52526  24.431  24.480   8.679 -0.0317 -0.1700 -0.0787
    1W        W52527  23.288   9.741   0.472 -0.3698  0.1124  0.1987
    1W        W52528  16.303  11.298   0.162  0.3635  0.1440  0.2545
    1W        W52529   9.329  10.932   0.973  0.0744 -0.0415 -0.0564
    1W        W52530   4.013   8.389   7.463  0.0913 -0.2428  0.2308
    1W        W52531  10.144  11.190   9.480  0.0161  0.1286 -0.0338
    1W        W52532   6.003  25.336   8.915  0.1267 -0.0408  0.1032
    1W        W52533  12.528  22.853   9.446 -0.2718  0.1942  0.0216
    1W        W52534  12.449   4.902   2.242  0.2091 -0.1992 -0.1573
    1W        W52535   1.876  15.225   0.425 -0.1953 -0.2622 -0.0893
    1W        W52536  20.611   7.516   0.918 -0.2712  0.0583  0.3047
    1W        W52537   6.529  14.305   8.839 -0.2969 -0.0669 -0.2165
    1W        W52538  21.686  17.019   0.177 -0.2338 -0.0587 -0.2115
    1W        W52539  11.268  21.262   1.879  0.2478  0.3966  0.0323
    1W        W52540  28.077  16.301   6.821 -0.0112 -0.3199 -0.0796
    1W        W52541  13.988   8.819   7.947 -0.1000 -0.0586 -0.0730
    1W        W52542  16.055  14.988   1.014  0.1952  0.2290 -0.0296
    1W        W52543   9.773  10.084   9.076  0.1789  0.3922  0.0192
    1W        W52544   5.314  19.294   6.648  0.0875 -0.2831 -0.1434
    1W        W52545  21.278   2.432   8.478  0.1142  0.0094  0.0982
    1W        W52546   2.841  19.506   1.733 -0.0031 -0.1742 -0.0124
    1W        W52547   0.555  18.264   6.102  0.3461 -0.2116  0.1423
    1W        W52548  17.431  24.261   7.720 -0.2290 -0.1369  0.0665
    1W        W52549  16.635  13.614   1.500 -0.0798  0.0430 -0.3366
    1W        W52550  26.866   6.291   1.508  0.2115 -0.1603  0.0099
    1W        W52551  15.817  13.543   1.741  0.1362  0.0092 -0.1258
    1W        W52552  10.050  14.955   8.418  0.3065  0.0748 -0.1949
    1W        W52553  20.864  12.627   0.775 -0.1030 -0.1488  0.1673
    1W        W52554   8.591  21.350   0.230 -0.2386  0.3624  0.0801
    1W        W52555  24.232  23.541   9.336  0.0334 -0.1109  0.1057
    1W        W52556   0.354  14.801   8.198  0.1291  0.0460  0.1996
    1W        W52557   5.469   8.974   7.627  0.1559 -0.1900 -0.1159
    1W        W52558  14.553   7.356   1.514 -0.1326  0.1030 -0.1813
    1W        W52559  16.011   7.418   2.641 -0.1578 -0.0799 -0.1328
    1W        W52560   2.764  25.670   0.707 -0.0995  0.0264 -0.0652
    1W        W52561  17.444   6.189   4.054  0.0736 -0.1667 -0.0814
    1W        W52562  16.065  14.618   8.126 -0.0544 -0.0698 -0.1721
    1W        W52563  20.288   1.472   7.830 -0.1842 -0.2061 -0.2546
    1W        W52564  11.471   4.301   1.149  0.0296  0.1285  0.0698
    1W        W52565  16.198  11.199   9.615  0.0447 -0.0926 -0.1673
    1W        W52566  16.426   6.240   3.275 -0.2403 -0.0466 -0.1137
    1W        W52567  24.767  14.017   7.781 -0.1502 -0.2366 -0.1614
    1W        W52568   3.490  11.952   8.323 -0.0869  0.3339 -0.2373
    1W        W52569  13.161  20.631   2.279  0.2632 -0.0146 -0.0482
    1W        W52570   7.180   9.076   2.207 -0.3278  0.0001 -0.1864
    1W        W52571  26.291   1.820   2.789  0.0038  0.0934 -0.2268
    1W        W52572   5.143  18.226   0.993 -0.0293 -0.0430 -0.1833
    1W        W52573   9.120  11.221   2.643 -0.0649 -0.2553 -0.0088
    1W        W52574  19.744  21.639   9.854  0.1159 -0.2594  0.0882
    1W        W52575  28.028   2.081   8.241 -0.1148 -0.0710  0.0731
    1W        W52576  18.345   6.785   0.151  0.2312 -0.0576 -0.2366
    1W        W52577  26.850   7.054   1.703  0.1572 -0.1415  0.3072
    1W        W52578  17.855  28.157   1.942  0.1470 -0.1274  0.0391
    1W        W52579  24.175   7.225   6.148 -0.1548 -0.2138 -0.1913
    1W        W52580  14.720   8.080   2.288 -0.1416  0.2166  0.2229
    1W        W52581  19.671   0.674   7.789  0.0106  0.0641 -0.0571
    1W        W52582  17.146  26.804   1.575  0.2213 -0.4505  0.2531
    1W        W52583  13.290  23.645   9.011  0.2154 -0.2611  0.0987
    1W        W52584  20.567  28.371   9.264 -0.1150 -0.0454 -0.0473
    1W        W52585   8.034  22.437   9.332  0.0082  0.1836  0.4263
    1W        W52586  25.273   9.770   6.878  0.1791 -0.2246 -0.0722
    1W        W52587   1.826  15.289   6.523 -0.0136  0.0044  0.3084
    1W        W52588  17.536   2.583   4.351  0.2332  0.1191  0.0328
    1W        W52589  13.208  20.385   7.776 -0.0401 -0.0380  0.0711
    1W        W52590  17.387  18.592   0.478 -0.0880 -0.3453  0.2504
    1W        W52591  15.608  13.797   0.812 -0.1590  0.2288 -0.1217
    1W        W52592  20.394  13.207   3.247 -0.0794  0.1679 -0.4280
    1W        W52593  26.753  14.416   6.714  0.0914  0.0693 -0.1663
    1W        W52594  19.707   5.639   1.438  0.0738  0.0344  0.3334
    1W        W52595  18.967  18.318   7.991 -0.1453 -0.2305  0.4266
    1W        W52596   0.036   9.710   1.037  0.2373 -0.2337  0.2073
    1W        W52597  17.780  22.193   7.920  0.0569 -0.1549  0.1097
    1W        W52598   6.574   0.241   2.153 -0.0445 -0.1115  0.1976
    1W        W52599   8.579  26.832   9.469  0.0809 -0.0954 -0.2122
    1W        W52600  16.700  23.396   1.403  0.0547 -0.0330 -0.0122
    1W        W52601   6.950  23.779   1.010 -0.3114  0.1556 -0.0491
    1W        W52602  20.717  17.377   1.156  0.1672 -0.0513  0.4520
    1W        W52603  13.318  26.016   7.708  0.4032  0.0239  0.2576
    1W        W52604  28.235  21.695   1.854  0.0307 -0.2400  0.0225
    1W        W52605  23.796  13.652   6.120  0.0064  0.1318 -0.2941
    1W        W52606  17.107  10.610   2.024 -0.1335 -0.1972  0.0870
    1W        W52607   8.238  25.504   8.874  0.1459 -0.2370 -0.0738
    1W        W52608   6.576  14.247   1.095 -0.0600 -0.3766 -0.1647
    1W        W52609   7.429   8.993   0.571  0.0805  0.0448  0.0898
    1W        W52610  20.161  20.997   8.288  0.0245 -0.0337  0.2912
    1W        W52611   2.214  27.409   8.566  0.3125 -0.1574  0.0368
    1W        W52612  23.736  10.306   9.852 -0.1887 -0.4276 -0.1624
    1W        W52613  12.416  12.420   1.830 -0.0148 -0.0508 -0.2040
    1W        W52614  23.741  11.239   8.761 -0.3272  0.0073  0.0915
    1W        W52615  25.611  14.382   1.939 -0.1560 -0.0145  0.0975
    1W        W52616  13.562  14.537   1.351  0.0159  0.0514 -0.1697
    1W        W52617  12.571  21.020   8.818  0.0946  0.2481 -0.0436
    1W        W52618  23.528  18.112   2.849 -0.1457  0.0613  0.0776
    1W        W52619   7.533  16.254   8.137 -0.1591 -0.3801 -0.3392
    1W        W52620  15.516  14.771   0.318  0.0238 -0.1671 -0.1761
    1W        W52621   6.992  17.447   7.602  0.3045 -0.1477  0.2247
    1W        W52622  26.260   2.412   8.669 -0.0491 -0.2856  0.0012
    1W        W52623  28.431   0.023   6.751  0.0836  0.2939  0.0595
    1W        W52624  10.639   4.101   3.669  0.0199  0.1232 -0.0280
    1W        W52625   2.075  18.798   2.279 -0.0633 -0.3408 -0.0466
    1W        W52626   9.393   4.478   7.987 -0.0402 -0.2596  0.1543
    1W        W52627   8.496  19.023   0.190 -0.0730  0.1151 -0.0710
    1W        W52628  10.600  24.571   0.926  0.3815  0.0946  0.1805
    1W        W52629  26.531  13.296   1.546 -0.1061  0.2305  0.2184
    1W        W52630  18.546  21.218   1.282 -0.1576 -0.0371 -0.0895
    1W        W52631  14.495  15.623   7.681 -0.0878 -0.2324 -0.0921
    1W        W52632  10.183  10.769   0.740  0.0009  0.0844  0.3364
    1W        W52633  21.151  17.291   7.298 -0.0928  0.3082  0.0117
    1W        W52634   5.865  21.273   1.333 -0.0244 -0.3147 -0.2449
    1W        W52635   2.475   1.631   7.328 -0.1048 -0.0000 -0.2384
    1W        W52636  12.162  11.672   9.636 -0.0474  0.2596 -0.0818
    1W        W52637   8.018  13.382   1.115 -0.1703 -0.0316 -0.0276
    1W        W52638  28.402   5.007   7.289 -0.2383 -0.0920 -0.0250
    1W        W52639   0.820  12.154   8.904  0.1591  0.2674  0.0021
    1W        W52640  20.434  25.560   2.921 -0.1729 -0.0815  0.1086
    1W        W52641   5.180  24.675   7.100 -0.3135 -0.2758  0.0335
    1W        W52642  12.012  22.652   8.295 -0.0887  0.0077  0.3327
    1W        W52643  20.280  19.912   8.863 -0.0186  0.0728 -0.1221
    1W        W52644  13.497   2.388   8.979  0.2011 -0.0542  0.0001
    1W        W52645  26.879   9.089   0.538 -0.1410 -0.1430 -0.3057
    1W        W52646  26.151  23.265   6.957  0.0739  0.0848  0.2919
    1W        W52647   9.207  22.202   7.467  0.1788 -0.0611 -0.2622
    1W        W52648   7.172  15.574   0.986 -0.3135 -0.1808  0.3727
    1W        W52649  26.456  26.533   2.086 -0.2054 -0.2700 -0.0842
    1W        W52650  25.955  15.578   5.691 -0.2894  0.2991  0.0814
    1W        W52651  16.885  27.132   9.199 -0.1981 -0.0303  0.0665
    1W        W52652  21.168   1.594   6.834  0.2209  0.1667 -0.1684
    1W        W52653   0.012   3.826   1.068 -0.2944 -0.3725  0.0911
    1W        W52654   1.434   9.059   1.029 -0.0683 -0.1471 -0.0819
    1W        W52655   9.370   5.761   8.597 -0.3202  0.3254 -0.0218
    1W        W52656  10.510   3.476   7.942  0.0602 -0.0670 -0.2205
    1W        W52657  20.194   3.238   0.228 -0.0353 -0.0411 -0.0448
    1W        W52658   1.427  11.663   6.307  0.0024 -0.3314 -0.0042
    1W        W52659   5.715  24.557   0.670  0.1543 -0.1689  0.0047
    1W        W52660   4.104  19.378   0.734  0.2020 -0.2774 -0.4211
    1W        W52661  17.481  16.093   1.717  0.2078 -0.1168  0.2373
    1W        W52662  22.350  28.307   1.259  0.0302  0.0106 -0.1867
    1W        W52663  25.958  27.843   1.763  0.0786 -0.0424  0.2103
    1W        W52664  20.763  17.708   2.668  0.0430  0.2787 -0.0550
    1W        W52665  13.208   2.606   1.401  0.0332 -0.1389  0.0228
    1W        W52666  17.481  15.131   9.158  0.0831  0.0955  0.1620
    1W        W52667  19.290   2.746   2.120 -0.0014  0.0571  0.1074
    1W        W52668  20.060  13.785   9.767  0.2655  0.0991  0.1396
    1W        W52669   5.650  21.154   0.730  0.0204 -0.0836 -0.1266
    1W        W52670  12.933   5.947   3.372 -0.0150 -0.0154 -0.1413
    1W        W52671  26.896  27.888   2.850  0.0253 -0.4532 -0.1422
    1W        W52672   2.114   0.500   9.574  0.1722  0.0723 -0.2898
    1W        W52673   0.505   3.586   1.397 -0.4943 -0.0337  0.0350
    1W        W52674  28.637   9.787   1.514 -0.0864  0.0572 -0.0715
    1W        W52675   2.091  24.683   6.180  0.0582 -0.1399  0.1512
    1W        W52676  16.806  18.072   1.048 -0.1170 -0.3854  0.1352
    1W        W52677  23.072  18.573   7.074 -0.0196 -0.1941 -0.1039
    1W        W52678  24.603   8.916   3.087 -0.2751  0.2814 -0.1584
    1W        W52679  12.415  19.608   9.303  0.4916 -0.2406 -0.5005
    1W        W52680  20.619  21.153   1.278  0.0108 -0.3036 -0.2003
    1W        W52681   4.046  24.581   0.561 -0.0083  0.1467 -0.0011
    1W        W52682  27.131  17.156   0.098 -0.0001  0.1844 -0.1013
    1W        W52683   2.841   6.410   9.495 -0.0742 -0.3125 -0.0599
    1W        W52684   9.085   3.236   9.317  0.1735  0.2911  0.0254
    1W        W52685   7.759  26.315   1.409  0.2561 -0.0909  0.0375
    1W        W52686  10.883  21.001   1.653  0.0433  0.4062  0.2352
    1W        W52687   4.771   4.339   2.117 -0.0567  0.2667 -0.1143
    1W        W52688  13.144   1.177   8.590 -0.1795 -0.1788  0.3509
    1W        W52689  22.078   5.178   7.710 -0.0426  0.0328  0.1722
    1W        W52690  26.913  27.847   9.549  0.2112  0.3046 -0.0001
    1W        W52691  14.164  13.583   1.972  0.0861  0.1408 -0.0568
    1W        W52692  20.318  18.988   1.159 -0.1061 -0.1304 -0.2613
    1W        W52693   7.169  21.876   1.818 -0.0416 -0.1283  0.4659
    1W        W52694  22.179   7.112   0.530 -0.1622  0.0573 -0.1035
    1W        W52695   0.609   7.455   1.580 -0.0962  0.1790 -0.1639
    1W        W52696  16.213   8.647   0.167 -0.2504  0.0251  0.2986
    1W        W52697   4.337  20.395   6.812  0.1142  0.2411 -0.1403
    1W        W52698   9.056   4.225   9.051 -0.0204  0.0614  0.1573
    1W        W52699  25.850   8.977   2.491 -0.3057  0.0173 -0.1012
    1W        W52700   0.526  26.973   7.947  0.0792  0.1721 -0.2970
    1W        W52701  15.386   3.913   4.178 -0.0123 -0.1528  0.0502
    1W        W52702   6.395   9.612   2.555 -0.0194 -0.0449  0.0037
    1W        W52703  11.403   6.840   2.802 -0.2115 -0.0825  0.1355
    1W        W52704  25.926  16.590   0.102  0.2468  0.1305 -0.1030
    1W        W52705  12.695   2.433   1.013  0.2056 -0.2712 -0.2323
    1W        W52706   0.596  27.838   1.597 -0.0344 -0.0611  0.3225
    1W        W52707  26.413  22.337   9.824 -0.1245  0.0173 -0.0897
    1W        W52708   8.199  27.207   2.807 -0.2715  0.0557  0.0146
    1W        W52709  25.321  17.071   7.069  0.0625  0.0718 -0.2701
    1W        W52710  27.816  16.609   8.335 -0.0374 -0.0836  0.1122
    1W        W52711  15.265  14.927   0.754  0.2012 -0.0975  0.1688
    1W        W52712   4.634   9.229   1.196 -0.0533  0.1902  0.1805
    1W        W52713  27.247   6.090   9.916 -0.1977 -0.1650  0.2095
    1W        W52714  20.805  17.994   9.445  0.0110 -0.1205 -0.0116
    1W        W52715  24.150  17.629   1.727 -0.1072  0.2087  0.1232
    1W        W52716  20.886   3.634   1.957  0.1057 -0.0766  0.0840
    1W        W52717  14.466   2.894   8.752 -0.0179 -0.0025 -0.0581
    1W        W52718   8.678  11.662   1.767  0.1591  0.1110 -0.0637
    1W        W52719  11.353  19.384   8.699  0.4047  0.1280  0.0743
    1W        W52720  17.798   2.358   9.024  0.0159 -0.2399 -0.1706
    1W        W52721   0.737  13.287   0.935 -0.1940 -0.1430  0.3125
    1W        W52722  13.812  25.835   0.117 -0.0335  0.1140 -0.0285
    1W        W52723  14.316  10.733   9.892  0.0626  0.1276  0.3489
    1W        W52724   0.210  25.512   6.803 -0.1506  0.0634  0.2525
    1W        W52725   4.348  21.063   7.262 -0.2228  0.2309  0.8203
    1W        W52726   6.262  15.306   7.446  0.1278 -0.0135 -0.0789
    1W        W52727  12.189  10.401   2.793  0.3191  0.0491  0.1376
    1W        W52728  23.140  16.830   7.189 -0.1931  0.3177 -0.0707
    1W        W52729  17.667  12.565   1.560  0.1962  0.2061  0.0684
    1W        W52730  25.876  25.865   2.216 -0.1593  0.0772 -0.0089
    1W        W52731  23.243  23.079   8.537 -0.1552  0.1811 -0.0559
    1W        W52732   5.197  21.903   0.977 -0.0674 -0.3856  0.3313
    1W        W52733  21.597   1.991   1.681 -0.6091 -0.1387 -0.0695
    1W        W52734  28.399   6.289   0.654 -0.2113 -0.1276  0.2253
    1W        W52735  15.904  14.463   1.636  0.0292 -0.0896 -0.1110
    1W        W52736  20.228   1.411   9.372 -0.0889 -0.0851  0.0136
    1W        W52737  10.426   1.086   3.015 -0.1292  0.2088 -0.1865
    1W        W52738  16.410  12.958   9.032  0.1055  0.1297 -0.0604
    1W        W52739   1.339  27.868   6.632  0.1089  0.0239 -0.2186
    1W        W52740  11.852  23.416   7.567 -0.0702 -0.1113  0.0714
    1W        W52741  17.441  26.938   8.904  0.0951  0.1320 -0.1657
    1W        W52742  23.983  17.095   8.941 -0.2395 -0.0166  0.1117
    1W        W52743  20.237  21.798   0.025 -0.3332 -0.1449  0.0652
    1W        W52744  12.634  10.919   9.542  0.3524  0.0865 -0.1145
    1W        W52745  25.878  10.156   0.109  0.0481 -0.3161  0.0211
    1W        W52746  23.589   2.876   0.977 -0.2071 -0.3098 -0.0253
    1W        W52747  11.273  28.537   0.811 -0.0590  0.0434 -0.1507
    1W        W52748  26.052  13.371   0.721  0.0237 -0.3098 -0.1961
    1W        W52749  28.703  21.343   7.743 -0.2076 -0.2161  0.1865
    1W        W52750  16.439   4.673   8.627  0.1479  0.0574  0.0641
    1W        W52751   8.204  17.170   0.163 -0.0407  0.1020  0.3270
    1W        W52752   3.704  17.099   0.069  0.0481 -0.0261 -0.0445
    1W        W52753  28.181  16.882   0.268  0.0442 -0.0908  0.0529
    1W        W52754  18.849   3.781   1.731  0.1935  0.0859  0.2056
    1W        W52755   9.210  22.656   1.410  0.1241 -0.3289 -0.2709
    1W        W52756  23.566  11.355   2.302 -0.0523  0.0811 -0.3207
    1W        W52757  15.389  14.280   7.321 -0.0088  0.1667  0.1662
    1W        W52758  11.180  24.892   1.978 -0.0308  0.1525 -0.0254
    1W        W52759  23.559   0.980   1.646 -0.0700 -0.1839  0.0310
    1W        W52760  13.798  28.520   4.245 -0.0181  0.0768 -0.1161
    1W        W52761  13.880  27.134   7.948  0.1196 -0.1459 -0.0414
    1W        W52762  10.775  27.007   1.249 -0.2137  0.1933 -0.0771
    1W        W52763   2.704  16.729   2.180 -0.3545 -0.1179 -0.1306
    1W        W52764  25.642  20.559   6.308 -0.0019 -0.1594 -0.3054
    1W        W52765  28.477  19.970   1.929  0.2004 -0.1374 -0.0281
    1W        W52766  14.378   5.044   9.860  0.1644  0.3647  0.4129
    1W        W52767  15.614  16.967   8.133 -0.0387 -0.1034 -0.3081
    1W        W52768  18.250   6.435   9.785  0.1846 -0.1128  0.2997
    1W        W52769   4.493   2.805   9.402  0.0947  0.0983 -0.0173
    1W        W52770   2.587  21.079   1.595  0.1789  0.1189 -0.0881
    1W        W52771   0.324   4.513   6.953 -0.0429  0.1665  0.1605
    1W        W52772   9.352   7.454   9.122  0.1700  0.2127  0.0689
    1W        W52773   3.505  11.104   1.238 -0.0840  0.1221 -0.1355
    1W        W52774  24.266   9.684   8.349 -0.0248  0.0481 -0.2823
    1W        W52775  24.871  12.756   0.221  0.1244 -0.0512  0.0762
    1W        W52776   1.403  19.271   0.593 -0.0428 -0.1456  0.4169
    1W        W52777  25.118   8.101   1.654  0.1222 -0.1944  0.2337
    1W        W52778  28.629  21.504   8.966 -0.3671 -0.1520 -0.0884
    1W        W52779  13.673   7.516   1.228 -0.2220  0.2586  0.0522
    1W        W52780  16.565  24.727   8.119 -0.0629 -0.1846 -0.0126
    1W        W52781   3.821   8.264   1.286  0.0285 -0.0934  0.1696
    1W        W52782  17.249  14.743   9.335 -0.1067 -0.0951 -0.1712
    1W        W52783  26.831   8.998   1.538 -0.1528 -0.0420 -0.1570
    1W        W52784  22.606  16.377   9.754  0.0994 -0.0453 -0.0192
    1W        W52785  22.495  23.797   7.383  0.0251 -0.3490 -0.1672
    1W        W52786   7.153  28.452   9.578 -0.1870 -0.1133  0.0098
    1W        W52787   1.596  23.713   8.208  0.0490  0.0825 -0.0753
    1W        W52788  21.567  22.649   9.134 -0.2922  0.2626 -0.0489
    1W        W52789  21.668  19.628   8.918  0.2479  0.1310  0.1565
    1W        W52790  26.506   4.857   6.997  0.0414 -0.1436 -0.0462
    1W        W52791  16.803  24.947   8.885 -0.2637  0.0287 -0.0185
    1W        W52792  21.995  20.405   6.565 -0.2223 -0.2174 -0.0951
    1W        W52793  18.981  24.457   3.122 -0.0405 -0.4319 -0.0149
    1W        W52794  19.442  14.963   7.532 -0.1803  0.0407 -0.2255
    1W        W52795   1.822   6.614   7.857  0.1049  0.0370  0.0346
    1W        W52796  14.901  14.327   1.349 -0.4115  0.0332 -0.1510
    1W        W52797  16.717  25.036   7.176  0.2056  0.2387 -0.0308
    1W        W52798   3.270  22.748   2.650 -0.3132 -0.1033 -0.0757
    1W        W52799  26.826  21.506   9.908  0.0026  0.0923  0.1356
    1W        W52800  25.471  10.221   6.981  0.1073  0.0081 -0.1180
    1W        W52801   2.891   9.584   0.294  0.0106  0.0080 -0.0921
    1W        W52802  28.206   4.162   0.748 -0.0716  0.0174  0.2502
    1W        W52803   2.543   3.655   2.010  0.0492 -0.1591  0.1019
    1W        W52804  21.750   9.909   7.395 -0.0385  0.1701 -0.2474
    1W        W52805  18.221  10.802   8.244  0.0735 -0.2023 -0.2313
    1W        W52806  23.123  16.284   1.336  0.1848 -0.0371 -0.2856
    1W        W52807  26.725   4.514   8.763 -0.2266  0.0458  0.0130
    1W        W52808   6.012  20.421   1.506 -0.0592 -0.0254  0.2873
    1W        W52809   8.910  21.666   5.589 -0.0468  0.2495 -0.1181
    1W        W52810  14.893  22.690   0.128 -0.1590  0.1696  0.0753
    1W        W52811  10.733  11.388   0.745  0.1774  0.0471 -0.1343
    1W        W52812   0.795  21.082   2.237 -0.1403 -0.0709 -0.1034
    1W        W52813  23.941  10.011   3.464 -0.1408  0.0932 -0.0330
    1W        W52814  24.601   0.750   0.411 -0.2308  0.1659  0.2089
    1W        W52815  25.757   6.055   1.490 -0.1813 -0.1397 -0.1822
    1W        W52816  17.804  26.101   0.376  0.1572  0.0167  0.0510
    1W        W52817  25.642  28.131   9.740  0.0478 -0.0543  0.2876
    1W        W52818  11.688   6.986   2.224  0.2225 -0.1652  0.0426
    1W        W52819  27.781  15.569   0.792 -0.1139 -0.1902  0.2556
    1W        W52820  22.269   0.608   6.466 -0.1275 -0.4204  0.0402
    1W        W52821  11.137   5.931   0.737  0.6395 -0.1584  0.3315
    1W        W52822   5.336   5.401   1.952 -0.0733 -0.0435 -0.0056
    1W        W52823   3.875   3.184   8.376 -0.4166 -0.4490  0.4079
    1W        W52824   7.134  19.857   8.188 -0.0704  0.1969  0.3457
    1W        W52825   7.143  18.784   7.874  0.0364  0.0151 -0.2576
    1W        W52826   8.132  11.889   2.595 -0.0315  0.2761  0.1094
    1W        W52827  10.856  12.146   0.370 -0.0244  0.3710  0.1842
    1W        W52828  18.973   9.006   0.584  0.2491  0.1057  0.0897
    1W        W52829   1.442  18.276   1.986  0.0456 -0.2090 -0.1600
    1W        W52830   1.687   3.385   0.829 -0.1579  0.0791  0.1482
    1W        W52831   2.925  11.583   7.779 -0.3443  0.0801  0.0096
    1W        W52832   4.543   8.955   7.476 -0.1609  0.0356  0.1210
    1W        W52833  27.591   0.558   1.623 -0.1546  0.1323 -0.0803
    1W        W52834   1.021  25.398   0.331 -0.1380  0.2442  0.0523
    1W        W52835  25.874   0.706   8.549  0.0341  0.2337  0.0302
    1W        W52836  10.368   3.306   9.377  0.1136  0.1643  0.2415
    1W        W52837  23.439   0.777   9.513 -0.0962 -0.2032 -0.1606
    1W        W52838  18.896  20.794   7.143  0.1337  0.0399  0.5517
    1W        W52839  20.949  28.060   8.060  0.0956  0.2853 -0.1796
    1W        W52840  14.071  22.639   0.715  0.3841 -0.1277  0.2745
    1W        W52841   4.872   2.928   2.052  0.3086  0.2260  0.1711
    1W        W52842   2.836  19.244   9.792  0.1306 -0.0493 -0.2375
    1W        W52843  26.238  26.399   0.369 -0.0040  0.0079 -0.0872
    1W        W52844   2.061  20.466   0.947  0.3150  0.0582 -0.0066
    1W        W52845  27.254  12.009   7.780 -0.2021  0.0232  0.1775
    1W        W52846  23.998  24.742   8.795  0.0324  0.1423 -0.1159
    1W        W52847   5.465  10.424   1.859  0.1321  0.1086 -0.4062
    1W        W52848  15.734   7.830   2.709  0.1568 -0.1506 -0.0925
    1W        W52849  25.940   8.408   3.175  0.1882  0.0569 -0.4012
    1W        W52850  24.100  28.148   8.437  0.1111  0.2659  0.1087
    1W        W52851   3.598   5.449   7.554 -0.2004 -0.3738  0.0187
    1W        W52852  22.318  13.875   8.461  0.3425  0.2069  0.0410
    1W        W52853   1.445  10.470   7.429 -0.0704  0.3031 -0.1014
    1W        W52854  19.144  12.254   7.674 -0.0657  0.1117 -0.0615
    1W        W52855  21.618  21.751   2.089  0.1379  0.1396 -0.0321
    1W        W52856  15.857   7.698   2.156  0.0915  0.1972  0.0480
    1W        W52857  10.959  25.954   1.291  0.1151 -0.2178  0.2360
    1W        W52858  19.363  12.317   9.076 -0.0133  0.1848  0.2486
    1W        W52859   5.833  21.304   6.939  0.2614  0.2226 -0.1551
    1W        W52860  13.911  15.114   9.953  0.2987 -0.0439  0.0930
    1W        W52861   2.446  22.335   7.878  0.2050 -0.2383 -0.0697
    1W        W52862  22.400  16.830   0.852  0.0063  0.2817  0.0984
    1W        W52863   5.759  24.002   7.421  0.1471  0.0766 -0.0923
    1W        W52864   6.925   3.296   9.083 -0.0668  0.1460  0.1234
    1W        W52865   6.428  19.990   6.036 -0.2742 -0.1061 -0.1590
    1W        W52866  19.810   7.995   7.490  0.0509  0.0559 -0.0422
    1W        W52867   5.839  20.805   0.285  0.1000 -0.2890  0.1287
    1W        W52868  17.089  13.516   2.489  0.3401  0.1202  0.0712
    1W        W52869   4.448  20.373   9.408  0.4024  0.1931  0.1437
    1W        W52870   1.397  27.082   0.966  0.0538 -0.0961 -0.1804
    1W        W52871   5.691  17.640   9.363  0.0087 -0.0567 -0.0040
    1W        W52872   8.684  22.631   9.941 -0.1346  0.0470  0.0329
    1W        W52873  13.612  26.482   0.145  0.2592  0.0608  0.0308
    1W        W52874  17.155   6.057   7.505  0.0032  0.2278  0.4309
    1W        W52875  27.768  19.595   9.358  0.2453  0.0153 -0.0883
    1W        W52876  18.707   8.984   1.007  0.0831  0.4139  0.0582
    1W        W52877   2.179  17.578   1.716 -0.2700  0.0826 -0.1040
    1W        W52878  23.197  16.411   9.782  0.0708  0.0522 -0.2016
    1W        W52879   7.218  27.386   0.306 -0.2898  0.0782 -0.1453
    1W        W52880   4.925  22.671   9.893 -0.0151 -0.3573  0.0860
    1W        W52881   0.042  16.497   7.557 -0.0517 -0.1081  0.0697
    1W        W52882   2.878  26.454   2.189 -0.1144  0.3091 -0.1138
    1W        W52883  22.118   1.421   9.164  0.4383 -0.0726 -0.1086
    1W        W52884  19.970  23.133   0.225 -0.1744  0.1205 -0.4766
    1W        W52885  20.971  21.888   0.555  0.0872  0.0259  0.1946
    1W        W52886  27.577  24.558   7.339 -0.1287  0.3899  0.1377
    1W        W52887  27.981  13.133   0.746  0.0292 -0.0416  0.3536
    1W        W52888  11.550   5.185   1.819 -0.0164  0.2058 -0.3347
    1W        W52889  11.380   9.940   0.110 -0.1749 -0.2925 -0.1886
    1W        W52890  10.589  23.797   7.994  0.3051 -0.5182  0.1211
    1W        W52891  12.793   1.846   2.569  0.3133 -0.0438 -0.0096
    1W        W52892  16.415  27.940   3.189  0.0761  0.1366 -0.0254
    1W        W52893  20.969  21.116   2.688  0.0409  0.3717 -0.2174
    1W        W52894   1.188  20.819   8.035 -0.1859 -0.0152 -0.1129
    1W        W52895   5.714   3.387   7.922  0.2899 -0.1471  0.0416
    1W        W52896  27.942   1.768   6.797 -0.1833 -0.2749  0.3151
    1W        W52897  12.763  14.494   8.577 -0.2348 -0.0379  0.0221
    1W        W52898   0.901   7.082   7.874 -0.2783 -0.0338 -0.2262
    1W        W52899   9.500  27.556   0.284  0.1782 -0.1754  0.1952
    1W        W52900   1.922  22.667   8.115  0.2541  0.0286 -0.1962
    1W        W52901  19.861   9.171   1.026 -0.1445 -0.2795  0.1575
    1W        W52902  27.240  25.260   1.002 -0.0665  0.3244 -0.0082
    1W        W52903  19.736  18.660   8.770 -0.0582 -0.0229 -0.0561
    1W        W52904   6.386  24.236   9.844  0.0404 -0.0597  0.0078
    1W        W52905   4.769   2.601   9.860  0.3468  0.0723 -0.1031
    1W        W52906   3.876   5.732   8.768  0.1933 -0.1017  0.0274
    1W        W52907  16.843  11.242   8.340  0.0383 -0.1708  0.0504
    1W        W52908  22.785  12.161   8.207 -0.0350 -0.2039  0.0053
    1W        W52909  22.608   7.946   8.619  0.1739 -0.1318 -0.1347
    1W        W52910   1.899   9.204   0.858  0.3065 -0.0001 -0.2395
    1W        W52911   6.493  27.811   7.261  0.1365  0.1801 -0.0884
    1W        W52912   7.383   5.446   1.692 -0.1130  0.1336 -0.0057
    1W        W52913   3.141  20.291   8.863 -0.0253 -0.1328  0.0737
    1W        W52914   5.580  17.965   9.782  0.2062 -0.1625 -0.4616
    1W        W52915  16.318  13.808   9.446  0.0290 -0.1004  0.0929
    1W        W52916   9.492   8.539   2.418 -0.1922  0.2165 -0.2601
    1W        W52917  17.091   8.870   2.268  0.1053  0.3087  0.0672
    1W        W52918  12.327   4.199   3.107 -0.3311  0.3578  0.1336
    1W        W52919  12.167  15.338   8.841 -0.1190 -0.0289 -0.2441
    1W        W52920   4.070   6.073   9.762 -0.2886  0.1399 -0.1681
    1W        W52921   1.566   7.991   1.307  0.2994  0.1475 -0.0634
    1W        W52922   4.113  17.533   7.740  0.0335  0.2912  0.3206
    1W        W52923  10.999  20.391   8.958 -0.1374 -0.1190  0.0174
    1W        W52924  25.790  21.754   9.893 -0.4321  0.2101  0.0311
    1W        W52925   0.517   3.620   7.039 -0.0573 -0.1640 -0.1629
    1W        W52926   9.955  24.710   7.628  0.3247  0.0074  0.1631
    1W        W52927   0.503  13.908   6.830  0.0174  0.0101 -0.0868
    1W        W52928  15.033   3.948   3.818 -0.2502 -0.1572 -0.0050
    1W        W52929  11.200   8.439   8.008  0.1470 -0.3549 -0.0252
    1W        W52930  15.378   0.222   2.713 -0.0229 -0.1728 -0.0013
    1W        W52931  17.458  23.768   2.205  0.4470 -0.3988 -0.0618
    1W        W52932  14.337   8.407   2.289 -0.1592  0.2891  0.1495
    1W        W52933  21.344   6.805   7.459 -0.0114 -0.2258 -0.3648
    1W        W52934  24.885  13.268   8.982 -0.2457 -0.1703 -0.2823
    1W        W52935  25.385   0.211   9.561  0.2799  0.0858 -0.2795
    1W        W52936  26.620  15.228   0.229  0.1805  0.0953  0.0383
    1W        W52937  25.182  12.746   8.662 -0.1467 -0.0025  0.1168
    1W        W52938  14.276  13.269   1.569  0.1505 -0.1580  0.0657
    1W        W52939   5.173  27.125   2.069 -0.0624  0.0166  0.2720
    1W        W52940  23.802   7.591   2.873 -0.0459  0.2706  0.0579
    1W        W52941  23.668   3.331   8.196  0.3130 -0.3985 -0.2402
    1W        W52942  21.922  27.034   1.758 -0.2710  0.0495  0.0939
    1W        W52943  18.181   5.630   0.266 -0.1230 -0.4384 -0.1525
    1W        W52944   6.561   1.550   0.671 -0.2231  0.1794  0.0019
    1W        W52945  26.938   2.242   9.328  0.1842 -0.1585 -0.1412
    1W        W52946   7.066  19.398   1.942  0.1849  0.1279 -0.1574
    1W        W52947  20.870   8.522   1.570  0.3801  0.2860 -0.1583
    1W        W52948  16.905  16.780   9.357 -0.0386 -0.0723 -0.2000
    1W        W52949  16.200   4.787   4.369  0.1036 -0.0357  0.1228
    1W        W52950  19.976  14.621   8.166 -0.0193 -0.0859 -0.1395
    1W        W52951  17.840   4.734   0.238 -0.1805  0.2385  0.0794
    1W        W52952  22.591  26.898   1.140  0.0404  0.0430 -0.2188
    1W        W52953  27.282  15.181   6.025  0.1726  0.0487 -0.2117
    1W        W52954   7.412  25.817   0.709  0.1645  0.1980 -0.3002
    1W        W52955  11.955   3.871   3.176  0.1506 -0.0053  0.0391
    1W        W52956  26.207  21.638   2.230 -0.2455 -0.1704  0.0856
    1W        W52957  21.302  15.223   1.355  0.1292  0.2421  0.0343
    1W        W52958   9.119  12.774   0.727  0.0468 -0.0407  0.3111
    1W        W52959  14.440   9.672   8.207  0.3020  0.1316 -0.0935
    1W        W52960   7.390   4.009   0.439  0.0772 -0.2388  0.0745
    1W        W52961  20.287  25.549   8.068  0.1284  0.1443 -0.0097
    1W        W52962  22.105  27.246   9.932  0.0789 -0.1929  0.0071
    1W        W52963  22.678  28.386   7.490  0.1590  0.2808 -0.0802
    1W        W52964   7.616  11.285   3.358 -0.3766  0.1615  0.1487
    1W        W52965  17.484  27.388   7.882 -0.1226  0.0130  0.1476
    1W        W52966  12.979  14.148   8.175  0.1043  0.2562  0.0541
    1W        W52967  17.140  28.371   7.538 -0.1008 -0.2135  0.0189
    1W        W52968   3.313  22.630   8.181 -0.0532  0.0170  0.0957
    1W        W52969  14.903  22.755   1.490  0.1812  0.1073 -0.1822
    1W        W52970  15.357  12.055   8.539 -0.2802  0.0752 -0.3142
    1W        W52971   3.811  19.647   2.080 -0.1339 -0.1722  0.2870
    1W        W52972  27.477   7.407   2.493 -0.1597 -0.1574  0.0612
    1W        W52973  25.901  15.306   6.158 -0.2245 -0.1381  0.0521
    1W        W52974  17.478   0.612   1.741  0.0189  0.3632  0.1782
    1W        W52975  20.365   0.553   7.673  0.0810  0.2568  0.0794
    1W        W52976   9.859   5.509   2.465  0.2143 -0.0311  0.3073
    1W        W52977  27.320   3.182   8.151 -0.0581 -0.1261  0.0368
    1W        W52978  10.774   1.256   3.329  0.0654  0.0137  0.1087
    1W        W52979  17.923  23.173   8.347 -0.0720  0.2495  0.2378
    1W        W52980  10.381  19.206   0.356 -0.0749 -0.1077  0.0195
    1W        W52981  21.956  16.833   8.472  0.3401  0.1104  0.0778
    1W        W52982  20.515  10.319   8.103  0.1090  0.1192  0.3303
    1W        W52983  12.428  11.284   2.439  0.2372  0.5792  0.1509
    1W        W52984  11.034  23.918   7.742  0.4559  0.2141  0.0065
    1W        W52985  19.216   4.697   0.420 -0.1003  0.0150 -0.0085
    1W        W52986   7.041  27.903   1.454 -0.1707 -0.3820  0.1510
    1W        W52987  17.581   3.919   2.727 -0.2406  0.2808 -0.2940
    1W        W52988   3.150  23.630   1.146  0.1916  0.0498 -0.2384
    1W        W52989   6.718   3.140   8.029 -0.0658 -0.1248  0.0524
    1W        W52990  19.089   3.815   9.600 -0.1760  0.2035  0.1158
    1W        W52991  12.518  16.875   1.615 -0.0693  0.2568 -0.0891
    1W        W52992   8.232   2.774   7.827  0.1268 -0.1292  0.0886
    1W        W52993  19.320   0.791   2.821 -0.1697 -0.2693  0.0555
    1W        W52994  15.864  18.889   8.566  0.2783  0.1227 -0.0551
    1W        W52995  26.643  11.738   1.721 -0.2110  0.0970  0.1605
    1W        W52996  20.895  12.093   0.096 -0.0668 -0.2100 -0.2350
    1W        W52997  27.493  14.630   8.861 -0.2224 -0.0644  0.0181
    1W        W52998   4.113   5.633   0.223 -0.0184 -0.3187 -0.0717
    1W        W52999  15.912  18.396   0.686 -0.2021  0.0096 -0.0701
    1W        W53000  18.407   8.821   9.895 -0.1194 -0.3354  0.3314
    1W        W53001  25.641   8.499   6.864 -0.0270 -0.0662  0.1423
    1W        W53002  17.992   5.036   8.635 -0.0250 -0.0327  0.0208
    1W        W53003  16.154  24.960   7.957  0.2012  0.0429 -0.0258
    1W        W53004  18.670  28.328   7.174 -0.2364 -0.0507 -0.0618
    1W        W53005   4.857  19.546   6.613  0.3580 -0.0534 -0.1274
    1W        W53006   2.240  25.946   0.280 -0.0361 -0.3108 -0.1587
    1W        W53007   1.796   2.780   7.999  0.0339 -0.0001 -0.1135
    1W        W53008  15.169   6.464   0.740 -0.0958 -0.0426  0.1564
    1W        W53009   2.888  22.450   1.290 -0.4723 -0.2355 -0.0927
    1W        W53010  10.295  21.743   7.373 -0.0079  0.3280 -0.0837
    1W        W53011  18.057   3.911   0.196  0.0686  0.2028  0.1951
    1W        W53012  15.060  23.536   7.849 -0.2017  0.0729  0.0001
    1W        W53013  11.539   3.456   0.265  0.0398  0.0787  0.2522
    1W        W53014  14.604  25.610   8.977 -0.1968  0.2138 -0.0407
    1W        W53015   9.248  18.900   0.962  0.1634  0.0596 -0.2671
    1W        W53016  16.865  12.921   0.636  0.0603 -0.3865  0.0882
    1W        W53017  25.950  11.609   1.748  0.1113 -0.0649 -0.0701
    1W        W53018  17.661   4.061   7.929  0.0736  0.0285 -0.1120
    1W        W53019   1.620  26.775   7.704  0.0112  0.0283 -0.3425
    1W        W53020   9.623  21.644   0.808  0.3400  0.3203 -0.1178
    1W        W53021  20.366  21.814   7.790 -0.0090 -0.1656 -0.3293
    1W        W53022  19.881   1.680   7.639 -0.0402 -0.1988  0.2056
    1W        W53023  17.840  11.913   7.981 -0.1402  0.1343 -0.0451
    1W        W53024  23.467   7.310   1.775 -0.0472  0.0659  0.2186
    1W        W53025   0.530   5.200   6.368 -0.1174  0.2347 -0.2488
    1W        W53026  19.418  22.518   3.496 -0.0609  0.1470  0.1362
    1W        W53027  26.074  23.745   3.268 -0.0812  0.1534 -0.2227
    1W        W53028   9.804  11.775   2.832 -0.0911  0.0926  0.0983
    1W        W53029  13.807   8.235   8.808 -0.0861  0.3320  0.1723
    1W        W53030   3.828   9.667   7.498 -0.1394  0.1088  0.0500
    1W        W53031   9.422   2.642   7.740 -0.0316  0.4347 -0.0541
    1W        W53032  19.819   1.574   9.091  0.0148 -0.0002 -0.3081
    1W        W53033  18.255  25.237   9.259 -0.0454 -0.1737 -0.1827
    1W        W53034   6.557   8.123   9.580  0.1242  0.2857  0.1910
    1W        W53035  20.790   5.289   0.054 -0.2868  0.0608  0.0133
    1W        W53036  18.663   2.727   6.963  0.0326 -0.0174 -0.3093
    1W        W53037  14.294  13.895   0.961 -0.1444  0.0726  0.0524
    1W        W53038  26.343  26.676   9.293  0.3026  0.0409  0.0869
    1W        W53039  16.970  17.105   0.208  0.1951 -0.2776 -0.0947
    1W        W53040  17.393   3.962   9.486  0.0781  0.1583 -0.2083
    1W        W53041   5.017  24.863   6.614  0.1079  0.0205 -0.1438
    1W        W53042  21.354   5.839   3.964 -0.0927 -0.2975 -0.1816
    1W        W53043  17.541   3.800   4.062 -0.1768 -0.1233  0.1077
    1W        W53044  20.498   4.484   9.539 -0.1352 -0.3685 -0.0615
    1W        W53045  20.659  23.578   7.083 -0.2039 -0.3017 -0.0341
    1W        W53046  24.529  16.791   9.155 -0.1127  0.0688 -0.0375
    1W        W53047  15.006  27.660   2.370  0.0269 -0.0304  0.2834
    1W        W53048   7.915   7.818   9.849  0.0090  0.0515 -0.2372
    1W        W53049  22.611   9.466   0.074  0.1487  0.1782 -0.0843
    1W        W53050   9.568   1.811   1.375  0.0779  0.2746  0.0109
    1W        W53051   8.822  13.131   2.331 -0.0690 -0.0444 -0.2505
    1W        W53052  12.051   3.362   8.106 -0.0924  0.2351  0.0879
    1W        W53053   5.375  22.003   6.568 -0.0499  0.1530 -0.0018
    1W        W53054   5.600  24.028   8.206 -0.2668  0.0066 -0.1274
    1W        W53055  27.345  16.374   8.386  0.3942  0.0320 -0.0196
    1W        W53056   2.382  20.925   6.725  0.1042  0.2323  0.5452
    1W        W53057  10.455  21.613   9.238 -0.2136  0.0545 -0.2786
    1W        W53058   7.480   6.549   0.383  0.0125 -0.0224 -0.0244
    1W        W53059   9.846  27.785   9.750 -0.1674  0.2140  0.1286
    1W        W53060  27.522  27.355   8.806 -0.0697  0.2732 -0.1378
    1W        W53061  20.644  25.054   7.129  0.0101 -0.1061 -0.0574
    1W        W53062  20.781  16.137   7.626  0.1249  0.0909 -0.3719
    1W        W53063  19.379  21.288   0.687  0.3481 -0.2230 -0.0055
    1W        W53064  19.272  17.597   7.429 -0.0407  0.2094 -0.3123
    1W        W53065  27.575  11.184   8.310  0.1307 -0.1383 -0.1820
    1W        W53066  28.348  12.587   2.053 -0.0452  0.3857  0.0687
    1W        W53067  24.273  25.229   1.872 -0.1774  0.0409  0.0225
    1W        W53068   7.622  28.022   1.270  0.2314  0.1802  0.0330
    1W        W53069   2.887  13.014   0.625 -0.0089  0.4178  0.3339
    1W        W53070  28.068  27.901   1.332 -0.0795  0.0457 -0.1090
    1W        W53071  18.790   8.666   6.776  0.1141 -0.0520 -0.0816
    1W        W53072   2.034   1.838   2.212  0.0606  0.1614  0.0574
    1W        W53073   8.235  15.907   6.563 -0.0287 -0.1767  0.1156
    1W        W53074  24.933  11.055   0.370  0.1866  0.0447  0.2329
    1W        W53075  15.306  28.467   2.429 -0.1408 -0.1915 -0.1806
    1W        W53076  14.366  19.315   1.692  0.0698 -0.1545  0.0094
    1W        W53077  27.072  10.183   1.707 -0.1798 -0.2419  0.1771
    1W        W53078  16.887  21.187   0.043  0.0796  0.1400 -0.0982
    1W        W53079  19.666  13.083   2.343  0.0147 -0.3401  0.0586
    1W        W53080   4.092  12.507   6.543  0.0884  0.0626  0.1188
    1W        W53081  26.294  21.822   9.943  0.1010  0.0691 -0.3117
    1W        W53082   6.215   4.166   2.377  0.1615 -0.2111 -0.0107
    1W        W53083  27.011  28.148   8.314  0.1251  0.2347  0.0757
    1W        W53084   9.613   7.912   8.902  0.0892 -0.0980 -0.2087
    1W        W53085   5.873  15.765   7.647  0.0036 -0.3045 -0.3684
    1W        W53086  12.928  19.062   7.296  0.0713 -0.3411  0.0223
    1W        W53087   7.788  17.852   8.976 -0.0124  0.1095 -0.0316
    1W        W53088  11.532   6.376   2.945  0.0113 -0.1979 -0.1965
    1W        W53089   1.812  11.523   0.852 -0.0027 -0.3444  0.1119
    1W        W53090  20.186  16.484   2.465  0.0269 -0.1622  0.0279
    1W        W53091   7.700  28.609   7.023 -0.2959  0.0984  0.2711
    1W        W53092  12.057  27.475   9.923  0.0509 -0.2217  0.1774
    1W        W53093  11.439   2.911   7.396 -0.1991 -0.1358  0.2266
    1W        W53094  17.963   5.077   2.780  0.1362  0.2093 -0.0662
    1W        W53095  23.080  14.223   7.776 -0.1297 -0.0916 -0.2556
    1W        W53096  24.790  22.284   1.223  0.0790  0.2203  0.0490
    1W        W53097   8.232   4.401   0.863 -0.0167  0.2773 -0.2545
    1W        W53098  14.906  26.501   9.954 -0.0376  0.3610  0.2734
    1W        W53099   5.701  23.251   9.037 -0.2604 -0.5028 -0.1378
    1W        W53100  12.028   1.464   7.173  0.4845  0.0811 -0.1138
    1W        W53101  21.673   0.496   1.616 -0.1600 -0.0808 -0.1845
    1W        W53102  14.739   0.389   8.520  0.1949 -0.2121  0.3623
    1W        W53103   9.392  18.547   2.595  0.0350  0.2004 -0.1512
    1W        W53104   0.869   1.907   2.890 -0.0495 -0.3650  0.1320
    1W        W53105   6.670   0.389   8.575  0.1726  0.1792  0.5032
    1W        W53106  19.124   5.698   0.608 -0.1535  0.1474  0.0294
    1W        W53107  11.186  26.784   0.995  0.0358 -0.0235  0.0791
    1W        W53108   6.246   3.268   7.859  0.0901 -0.3137  0.3367
    1W        W53109  28.643  27.493   1.555 -0.2616 -0.2266  0.1247
    1W        W53110  10.357  17.016   6.967 -0.0009  0.1563 -0.0961
    1W        W53111  23.707  17.599   1.499  0.3007  0.1714  0.2485
    1W        W53112   8.726   4.499   0.764 -0.0411 -0.0482  0.3016
    1W        W53113  12.807   8.686   2.975 -0.0578  0.0876  0.0382
    1W        W53114  27.093   3.562   7.210 -0.1446  0.1819 -0.0114
    1W        W53115   1.553  11.712   8.373 -0.0735 -0.1161 -0.3052
    1W        W53116  12.322   3.202   4.823 -0.1023 -0.3712 -0.3228
    1W        W53117   7.500   2.613   3.593 -0.1182 -0.3309  0.1405
    1W        W53118   8.301  20.975   7.370 -0.1811  0.4052 -0.1434
    1W        W53119  19.539   4.891   8.458 -0.2462  0.2609  0.0559
    1W        W53120  18.082  16.163   0.233  0.3117  0.0141  0.0087
    1W        W53121  12.004   9.359   2.855  0.2829 -0.2963 -0.0790
    1W        W53122   8.291  24.387   1.877 -0.2390  0.1295  0.1103
    1W        W53123  13.115  16.891   2.066  0.3144 -0.2432  0.0701
    1W        W53124   1.744  17.953   6.469  0.0289  0.2988 -0.3398
    1W        W53125  23.794   0.521   3.286 -0.0759 -0.3815  0.0293
    1W        W53126  25.669  16.725   6.890  0.2505  0.0010  0.0578
    1W        W53127   9.995  10.472   1.169  0.1509 -0.0987 -0.2383
    1W        W53128   8.900   9.034   1.881  0.0486 -0.2643  0.1505
    1W        W53129  17.253  16.373   1.353 -0.0796  0.3617 -0.2585
    1W        W53130   7.530   0.201   2.100  0.2657  0.1044 -0.0853
    1W        W53131  16.554  13.815   7.203  0.0169  0.0143  0.0346
    1W        W53132  20.967   5.267   2.729  0.4315  0.1379  0.3227
    1W        W53133   8.928   2.227   8.546 -0.3072 -0.0389 -0.0253
    1W        W53134  25.454  26.853   0.053 -0.2168 -0.1644  0.0818
    1W        W53135   7.395  24.600   1.103  0.2489  0.1330  0.1113
    1W        W53136   4.404  26.020   9.218  0.0230  0.2092  0.0040
    1W        W53137  28.655   5.478   7.133  0.0076  0.1431 -0.1277
    1W        W53138  24.982  19.859   0.148 -0.2585 -0.1189  0.0419
    1W        W53139  24.141  10.283   1.409 -0.3651  0.6464  0.0075
    1W        W53140  10.888   4.818   9.463  0.1297  0.0420 -0.1230
    1W        W53141  18.244  16.543   7.854 -0.0990 -0.2328  0.1890
    1W        W53142  27.484   3.113   1.680  0.2176  0.1698 -0.2373
    1W        W53143  12.801  24.520   7.907  0.0769 -0.1037 -0.0809
    1W        W53144  13.945   5.184   0.246 -0.1594 -0.0305  0.4287
    1W        W53145  11.556  23.603   0.559  0.2683 -0.1947  0.1573
    1W        W53146  27.008  14.123   1.100 -0.0628  0.2817 -0.0703
    1W        W53147  11.438   2.639   9.276 -0.0074 -0.2984  0.1396
    1W        W53148  23.154   7.290   2.714 -0.1343  0.0900 -0.0956
    1W        W53149  15.037  12.063   0.891  0.0134 -0.1758 -0.4042
    1W        W53150  26.258  22.544   7.619  0.5439 -0.1904  0.0496
    1W        W53151  26.261  18.883   9.591  0.0602  0.1551 -0.1419
    1W        W53152  18.795  23.787   9.114  0.2824 -0.0587 -0.1489
    1W        W53153  21.875  10.759   0.794  0.1027  0.1127 -0.3541
    1W        W53154  23.733   7.171   9.423 -0.3432 -0.2639 -0.1003
    1W        W53155  28.577  12.047   6.344 -0.2293  0.2588  0.2136
    1W        W53156  26.093   5.062   6.783 -0.2929 -0.2148  0.3097
    1W        W53157  17.053   5.220   7.213 -0.0205  0.1618 -0.1906
    1W        W53158  13.694   5.189   9.191 -0.2938 -0.0301 -0.1687
    1W        W53159   3.366  21.276   1.200  0.0355  0.1613  0.0226
    1W        W53160  19.093  12.153   1.159  0.2262 -0.0152 -0.2112
    1W        W53161   9.282  26.137   6.327  0.1100 -0.2317  0.0990
    1W        W53162   8.510   5.943   8.169 -0.0092  0.2466 -0.0418
    1W        W53163   4.811  24.760   7.427 -0.0062 -0.3100 -0.1701
    1W        W53164   2.430  28.654   1.334 -0.2770  0.2467 -0.1589
    1W        W53165  21.476  23.469   2.302  0.0813  0.1810 -0.1658
    1W        W53166  11.291  10.094   9.058 -0.2740 -0.0323 -0.2473
    1W        W53167   2.398   8.425   6.639 -0.1817 -0.0933  0.2002
    1W        W53168  26.246  28.068   0.316 -0.3691  0.1624  0.2687
    1W        W53169  13.995  27.653   7.826  0.3748 -0.1896  0.1162
    1W        W53170   3.269   3.942   8.769  0.0013  0.2075 -0.1895
    1W        W53171  14.173   9.908   0.393 -0.2520 -0.0673  0.1093
    1W        W53172  12.668  13.191   2.244  0.3937  0.2273  0.1708
    1W        W53173  19.713  24.391   3.040 -0.1575 -0.2949  0.0499
    1W        W53174  14.477   4.027   0.325  0.1753 -0.2673  0.1065
    1W        W53175   8.591  28.294   0.615  0.3925 -0.2287  0.0288
    1W        W53176   5.864  12.716   9.162  0.0999 -0.1994 -0.1206
    1W        W53177  13.794  12.556   0.587  0.1254 -0.4043 -0.1167
    1W        W53178   2.503  17.622   7.901 -0.0235 -0.0172 -0.0950
    1W        W53179  24.546   1.379   0.819 -0.3299 -0.1115  0.2285
    1W        W53180  18.191  22.855   0.590  0.1225 -0.0647 -0.0663
    1W        W53181  20.796  22.775   0.476 -0.0639 -0.1371  0.1392
    1W        W53182   0.352  24.136   2.187  0.1070 -0.1496 -0.1876
    1W        W53183   3.880  20.622   0.266 -0.1287  0.1180  0.3666
    1W        W53184  26.724   4.124   7.265  0.0705 -0.0025 -0.0661
    1W        W53185  15.427   4.554   2.651 -0.0380  0.1900 -0.0274
    1W        W53186  27.249  10.420   8.496  0.2714  0.2181  0.2145
    1W        W53187   2.527   9.238   0.285 -0.2029  0.1246 -0.1288
    1W        W53188   5.010  19.896   7.308  0.2184 -0.0030 -0.2911
    1W        W53189   4.877  25.116   7.807 -0.2290  0.2031 -0.1836
    1W        W53190  22.999  24.563   0.878 -0.3817  0.1844 -0.0901
    1W        W53191  28.251   0.340   0.278 -0.0743  0.1191 -0.0161
    1W        W53192  25.580  21.738   7.039  0.1337 -0.1995 -0.1767
    1W        W53193  12.636  23.599   8.140  0.2341  0.1902 -0.2213
    1W        W53194   1.207   6.023   8.371 -0.0511 -0.3145  0.0368
    1W        W53195   3.517  28.030   7.405 -0.0086  0.1048 -0.0787
    1W        W53196  27.920  16.129   1.341 -0.2045 -0.1229  0.1233
    1W        W53197   1.938   4.525   9.156 -0.1124 -0.1988  0.0401
    1W        W53198  26.494  19.377   9.714  0.1512  0.1002  0.4065
    1W        W53199  12.473  27.684   1.463  0.2073 -0.1008 -0.0148
    1W        W53200  22.328  11.969   8.930 -0.1140 -0.1915 -0.1408
    1W        W53201  19.186   4.360   1.652 -0.1302 -0.0863 -0.0348
    1W        W53202   0.976  24.702   0.064 -0.0401  0.2363  0.1423
    1W        W53203  21.043  11.068   0.818  0.1619 -0.1175  0.2190
    1W        W53204  16.003  10.978   7.475 -0.1329 -0.2838 -0.0112
    1W        W53205   0.277   0.488   6.437  0.1292  0.0800  0.3073
    1W        W53206  24.333  26.577   8.028 -0.0284  0.2187 -0.1419
    1W        W53207  19.966  27.618   1.587 -0.1553 -0.2473 -0.0753
    1W        W53208  14.992  25.351   3.422 -0.2424 -0.0172  0.0517
    1W        W53209  24.313   1.139   1.980 -0.1848 -0.0311  0.2469
    1W        W53210  28.047  25.720   9.946  0.2706  0.2874  0.3038
    1W        W53211  19.539   1.777   6.293 -0.0788 -0.3533  0.0360
    1W        W53212  27.930  18.557   9.384 -0.1236 -0.2330  0.2811
    1W        W53213  18.276  20.001   7.627  0.2485  0.1991 -0.1685
    1W        W53214   2.746   4.634   6.383 -0.0718 -0.1849 -0.0246
    1W        W53215   9.451   3.563   2.374  0.3058 -0.2972  0.1071
    1W        W53216   0.745   7.996   8.774  0.0718  0.1221 -0.1261
    1W        W53217   4.896  14.301   2.671  0.0430  0.2605 -0.1431
    1W        W53218  11.592  19.776   0.983 -0.1777 -0.0327  0.0505
    1W        W53219   4.343  13.976   7.800 -0.0640  0.2535 -0.2057
    1W        W53220  22.382  19.510   8.148 -0.2257 -0.0998 -0.3252
    1W        W53221   4.207  20.299   8.988  0.1936 -0.3113  0.0214
    1W        W53222  18.064  19.454   1.349 -0.1681  0.1845 -0.1847
    1W        W53223   2.255  15.947   1.653 -0.1879 -0.0118  0.0252
    1W        W53224  28.015  27.125   0.409  0.0010  0.0337 -0.2638
    1W        W53225  15.166   4.274   0.926 -0.0562 -0.2220  0.1503
    1W        W53226   4.720  22.617   0.937  0.0347 -0.1494 -0.1325
    1W        W53227  16.134  13.532   1.260  0.0065 -0.0814 -0.3139
    1W        W53228  16.160  21.973   2.950  0.5105 -0.2451 -0.0284
    1W        W53229   4.270  16.781   6.942 -0.0624  0.2738  0.1314
    1W        W53230  10.849  23.799   9.844  0.0384 -0.1186  0.2904
    1W        W53231  24.231  27.688   8.507  0.0587  0.0158  0.0975
    1W        W53232  10.196   9.025   0.445 -0.0782  0.3697  0.1216
    1W        W53233  12.947  25.240   8.097 -0.1243 -0.1165 -0.1367
    1W        W53234  24.274  22.527   1.545  0.0583 -0.0180 -0.2194
    1W        W53235  16.357  18.426   9.853 -0.0528 -0.2391 -0.0204
    1W        W53236   8.011  18.949   7.722  0.2942 -0.1825 -0.1638
    1W        W53237  10.357  20.817   1.447  0.3503 -0.0163  0.1319
    1W        W53238   9.792  18.586   1.478 -0.0223 -0.0555 -0.1923
    1W        W53239  22.832  18.999   7.400  0.0304  0.1564  0.0368
    1W        W53240  18.378  10.440   2.285  0.0159 -0.2179 -0.0697
    1W        W53241  18.932  21.946   8.651  0.0834  0.2660  0.0546
    1W        W53242   6.759  20.357   0.460 -0.1655  0.1843  0.1262
    1W        W53243  11.978   6.861   9.851 -0.0298  0.0394 -0.0047
    1W        W53244   2.851  26.706   2.637 -0.1772 -0.0276  0.0207
    1W        W53245  23.999  11.376   7.460 -0.3243  0.0579 -0.1502
    1W        W53246  25.480   7.886   8.629  0.1358 -0.3779  0.2594
    1W        W53247   1.098  13.962   6.629 -0.2197  0.3316 -0.0229
    1W        W53248  25.316   6.361   2.329 -0.0465  0.1090 -0.1594
    1W        W53249  12.089  11.562   0.653  0.0107 -0.0753 -0.2057
    1W        W53250  24.757   2.164   9.782 -0.0828  0.0497 -0.2527
    1W        W53251  23.834   0.975   6.400 -0.0196  0.1360  0.2735
    1W        W53252  26.465  27.140   7.998  0.2332 -0.1530  0.1197
    1W        W53253  11.130  18.385   7.786 -0.1218 -0.0187  0.0684
    1W        W53254   2.262   7.937   2.006  0.0794  0.1667  0.2519
    1W        W53255  16.496  13.136   1.323  0.0258 -0.1543  0.0601
    1W        W53256   7.837   6.134   2.838 -0.2587  0.0457 -0.0483
    1W        W53257   2.107  14.933   7.976 -0.0669 -0.2290 -0.0584
    1W        W53258  11.364  11.355   2.205  0.3438  0.3828  0.0872
    1W        W53259  21.555  12.699   7.494 -0.3288 -0.1695 -0.4962
    1W        W53260  23.040  25.855   2.026  0.0152 -0.1120 -0.3156
    1W        W53261  20.856  18.249   0.919 -0.0978 -0.1970  0.0881
    1W        W53262  18.382  12.861   8.796 -0.0272 -0.4420 -0.1786
    1W        W53263   2.315  20.554   8.372  0.2830 -0.1050 -0.0118
    1W        W53264  24.529   0.524   1.705 -0.1262 -0.0880  0.0158
    1W        W53265   5.370  15.071   9.178  0.1419  0.0182 -0.1515
    1W        W53266  15.864  25.014   1.027  0.2605  0.0505  0.1793
    1W        W53267  10.975  24.377   1.902  0.0645  0.0687 -0.0310
    1W        W53268  27.343   7.987   9.067 -0.0146 -0.2961  0.1636
    1W        W53269  23.185   2.532   0.922  0.1207  0.2294 -0.2701
    1W        W53270  21.098   5.865   2.664  0.0842  0.0125 -0.4138
    1W        W53271  12.500  28.470   1.230 -0.2553  0.2155  0.2496
    1W        W53272  21.469   7.790   3.582 -0.2896 -0.3295  0.1398
    1W        W53273   2.220  17.194   3.030  0.0719 -0.0317 -0.0368
    1W        W53274  23.517  16.325   2.879 -0.2490  0.2153 -0.2050
    1W        W53275   2.979  23.959   8.600  0.0292  0.0370  0.0293
    1W        W53276  26.489   3.722   7.127 -0.1659 -0.0693 -0.2275
    1W        W53277  16.494   7.189   8.446 -0.2035 -0.1170  0.0177
    1W        W53278  10.663  19.392   0.760  0.2123  0.1313 -0.1553
    1W        W53279  18.084  16.209   8.281 -0.0975  0.2220 -0.0542
    1W        W53280   5.140  15.410   1.729  0.1428 -0.0490  0.1789
    1W        W53281  28.086  13.794   0.512  0.1148 -0.3787 -0.3428
    1W        W53282  23.906   5.823   1.696 -0.1489  0.6446  0.1615
    1W        W53283  13.753   5.564   9.534  0.2467  0.2221  0.1229
    1W        W53284   6.940   1.963   8.453 -0.0843 -0.1819 -0.0136
    1W        W53285   5.899   9.857   8.529  0.0479  0.0101 -0.0440
    1W        W53286   6.095  27.902   2.779  0.0545 -0.2673 -0.2828
    1W        W53287  16.597  16.765   0.417  0.1833 -0.1984  0.1287
    1W        W53288   6.204   9.343   7.863 -0.0218 -0.0584 -0.1476
    1W        W53289  11.410  17.554   1.269 -0.0881 -0.0731 -0.1336
    1W        W53290  21.141  19.450   8.812  0.3578 -0.3465  0.3709
    1W        W53291  26.580   9.842   1.933 -0.0368 -0.1967 -0.2182
    1W        W53292  13.721  17.315   2.616 -0.2145 -0.2805  0.3066
    1W        W53293   5.065   5.042   1.995  0.1226  0.1533  0.1764
    1W        W53294   7.563   8.239   9.793  0.0422 -0.2787  0.0388
    1W        W53295  19.946  23.886   7.752 -0.0112  0.0213 -0.2628
    1W        W53296  21.603   5.330   8.534  0.0575 -0.1815 -0.2642
    1W        W53297  16.843   7.128   1.580  0.0470  0.1356 -0.3365
    1W        W53298  19.082  28.090   1.503  0.0985  0.0041 -0.3513
    1W        W53299  23.940  12.459   8.350  0.1929 -0.4494  0.0284
    1W        W53300  12.092  11.456   7.704  0.0150 -0.3937  0.1450
    1W        W53301  28.707  13.300   7.758 -0.2107  0.0327 -0.1507
    1W        W53302  15.478   1.191   3.643 -0.0903  0.1122  0.2681
    1W        W53303  16.859  25.259   8.442 -0.4284  0.4631  0.3802
    1W        W53304  15.596   3.677   1.781  0.1593 -0.1851  0.1039
    1W        W53305   2.636  21.116   6.328  0.0147  0.0772  0.1116
    1W        W53306  16.872  21.986   8.371 -0.2388 -0.3117  0.1153
    1W        W53307  10.095   6.345   7.716  0.2364 -0.2204  0.2522
    1W        W53308  19.251  17.792   9.375 -0.0414 -0.1049  0.0761
    1W        W53309  13.812  11.927   7.413 -0.0546 -0.1795  0.5445
    1W        W53310  25.239  17.901   9.202  0.2563 -0.0565  0.0582
    1W        W53311  16.812  19.205   7.826 -0.0332 -0.1566 -0.1521
    1W        W53312  23.888  12.249   1.478  0.2112  0.1445  0.1052
    1W        W53313  25.585   3.137   7.126 -0.0223 -0.1108 -0.2657
    1W        W53314   7.307   9.764   9.029  0.1590 -0.0461  0.0400
    1W        W53315  28.501  24.513   1.017 -0.0878 -0.1291  0.0338
    1W        W53316  26.932   8.305   1.414 -0.2801 -0.0581  0.1911
    1W        W53317  27.448   7.723   6.707  0.1724 -0.1866 -0.1830
    1W        W53318  17.568  16.982   7.540  0.1777  0.2476  0.0089
    1W        W53319   4.885  24.306   2.001  0.0484  0.1019  0.3161
    1W        W53320  21.253  19.084   7.145  0.1938  0.1227 -0.1994
    1W        W53321   0.575  19.670   8.733  0.2191  0.0820  0.1635
    1W        W53322  14.497  19.938   7.250 -0.1383  0.0442  0.1160
    1W        W53323  25.115   1.743   1.838 -0.1714 -0.1676 -0.0241
    1W        W53324  25.294  18.555   2.533 -0.1130 -0.1616 -0.2762
    1W        W53325  11.685   6.824   9.262 -0.0301  0.1409 -0.2306
    1W        W53326   7.067   2.576   8.593 -0.0717 -0.2845  0.0103
    1W        W53327  28.563  19.575   6.883  0.0359  0.2280 -0.0601
    1W        W53328   5.590   0.156   3.636 -0.1759  0.0177 -0.0889
    1W        W53329   3.613  28.556   9.518  0.0306 -0.0903  0.2345
    1W        W53330  14.476  26.159   1.259  0.1527 -0.1347  0.3473
    1W        W53331  16.121   4.064   2.993 -0.1869 -0.2170  0.0071
    1W        W53332  24.965  15.056   1.369 -0.1042  0.0267  0.1788
    1W        W53333  25.645  11.262   6.995 -0.0919 -0.0877 -0.0812
    1W        W53334  12.159   2.430   0.781 -0.0350  0.0893 -0.1051
    1W        W53335  16.403  25.124   9.334  0.0348  0.0771 -0.1434
    1W        W53336  19.144  26.169   3.226  0.0375 -0.2399 -0.0782
    1W        W53337  11.753  17.894   9.127  0.1856 -0.1160 -0.1508
    1W        W53338  10.114   7.659   2.099  0.0077  0.0715 -0.2947
    1W        W53339   7.021  24.626   8.554  0.4124 -0.3169 -0.0704
    1W        W53340   3.387   2.219   9.345 -0.1792  0.3197  0.0025
    1W        W53341  19.569   3.266   1.220 -0.2331  0.1152 -0.1865
    1W        W53342   2.585  19.770   0.269 -0.1879 -0.1813  0.4006
    1W        W53343  16.284  21.070   1.917 -0.0808  0.1318  0.1594
    1W        W53344  19.116   3.196   8.752  0.0629 -0.3278  0.4908
    1W        W53345  28.236  28.366   2.242  0.0635  0.0016 -0.0922
    1W        W53346  28.642   8.766   7.995  0.0900 -0.1322  0.0310
    1W        W53347  19.977  13.109   0.690  0.0094  0.1692  0.2478
    1W        W53348  12.344   2.977   7.671 -0.0025  0.0617  0.0435
    1W        W53349  16.950   8.081   0.695 -0.2502  0.0354  0.0670
    1W        W53350   8.129  10.938   1.885  0.0031 -0.0268 -0.1733
    1W        W53351   2.175  21.611   2.124 -0.0259  0.2127  0.0282
    1W        W53352  13.680  21.006   7.542  0.1120  0.1348 -0.0586
    1W        W53353   1.092  27.113   0.366  0.2474  0.1675 -0.0860
    1W        W53354   7.624  25.715   7.934 -0.1451  0.0652  0.0108
    1W        W53355  21.504  10.933   0.580 -0.1444 -0.1030 -0.0480
    1W        W53356   5.481   6.493   8.495  0.2624 -0.1845 -0.0596
    1W        W53357  25.216  24.594   0.196 -0.1258 -0.2047 -0.0040
    1W        W53358  25.607   5.775   9.346  0.1785 -0.0639 -0.3558
    1W        W53359   0.049  12.882   2.291 -0.0736 -0.0715 -0.2914
    1W        W53360   2.472   2.669   9.751 -0.2647  0.2471 -0.0552
    1W        W53361   2.374   5.936   8.203  0.0457  0.2488  0.0786
    1W        W53362  24.448  25.221   9.526  0.1223  0.1525 -0.1175
    1W        W53363  25.924  20.635   1.701  0.0056 -0.1488 -0.0971
    1W        W53364  26.313  14.434   5.238 -0.0884 -0.1874  0.1148
    1W        W53365  14.628   5.458   9.820  0.0470  0.1956 -0.2143
    1W        W53366  22.474   4.745   9.660  0.0962  0.0357 -0.1364
    1W        W53367   7.783  23.849   0.727  0.4347 -0.0200  0.3165
    1W        W53368  10.151   0.880   1.103 -0.6061 -0.1561 -0.1587
    1W        W53369  26.433  15.120   6.304 -0.1460 -0.0106 -0.1342
    1W        W53370  26.959  25.796   0.654  0.4005  0.0956  0.0357
    1W        W53371   9.151  22.671   7.311  0.0037  0.0950 -0.0791
    1W        W53372  18.884  24.583   6.622 -0.1241  0.3740  0.1430
    1W        W53373   1.029   7.986   9.349  0.1223 -0.0874  0.2359
    1W        W53374  18.955  21.346   0.475  0.1156  0.0515  0.2190
    1W        W53375  24.109  17.843   6.585  0.1792  0.0327  0.1343
    1W        W53376  28.309  23.752   9.285 -0.2740 -0.0633  0.1520
    1W        W53377  11.663  14.517   2.239  0.0953 -0.0689 -0.0139
    1W        W53378   9.412  26.768   7.636 -0.1940  0.0502 -0.0814
    1W        W53379  23.956  17.997   1.958 -0.0893  0.1486 -0.1357
    1W        W53380  17.000  14.409   2.766  0.2248 -0.2995 -0.0471
    1W        W53381   6.337   5.871   7.103 -0.3015  0.0484 -0.1262
    1W        W53382  27.758   3.145   9.010 -0.3050 -0.3326 -0.1151
    1W        W53383  15.310   6.976   0.995  0.2664 -0.0601 -0.0812
    1W        W53384  25.385  23.866   1.849 -0.0166 -0.0372 -0.0795
    1W        W53385   0.963  17.992   8.851 -0.2914 -0.0589 -0.2869
    1W        W53386   0.666   3.118   5.930  0.0069  0.0741  0.1398
    1W        W53387   8.270  20.418   9.440  0.2186 -0.0801  0.0834
    1W        W53388   1.433  21.366   9.933  0.0301 -0.0368  0.1515
    1W        W53389   9.719   6.206   0.711  0.2404 -0.0656 -0.3292
    1W        W53390  26.907  26.303   9.866 -0.0004  0.1064 -0.2407
    1W        W53391   6.322  28.490   9.696 -0.2260 -0.4295  0.0837
    1W        W53392  19.974  13.910   2.012 -0.1989 -0.2023 -0.1585
    1W        W53393  14.666  21.586   1.237 -0.2313  0.2161 -0.1211
    1W        W53394  26.592   3.279   6.270  0.3261  0.0814  0.1727
    1W        W53395  18.055  27.101   0.074 -0.0318  0.0688 -0.0773
    1W        W53396  20.648  21.948   3.236  0.1701 -0.1348  0.1683
    1W        W53397  13.261  17.206   0.328  0.2119  0.1725  0.1641
    1W        W53398  28.034  14.375   8.998 -0.2230  0.2286  0.1717
    1W        W53399  25.318  22.872   1.912 -0.0705  0.3368  0.1137
    1W        W53400   3.984   9.030   1.776  0.0787  0.2539  0.2545
    1W        W53401  13.411  18.689   2.470 -0.2371 -0.0420 -0.0343
    1W        W53402   1.715  11.805   9.185  0.2388 -0.0052  0.1349
    1W        W53403  26.928  13.598   6.372  0.0422 -0.1208  0.1972
    1W        W53404  17.166  23.532   1.202 -0.1030 -0.0563 -0.0701
    1W        W53405  26.531   9.932   1.389 -0.1181  0.1482 -0.0368
    1W        W53406   5.795   4.490   7.175  0.1655 -0.1742 -0.0378
    1W        W53407   6.342  27.125   0.171  0.0737  0.2027  0.0523
    1W        W53408  23.417  25.380   9.134  0.2070  0.1381 -0.3060
    1W        W53409   8.256  28.597   8.175 -0.2168  0.0250  0.0929
    1W        W53410   9.096  18.565   9.847 -0.1825  0.1765 -0.2187
    1W        W53411  15.113  21.719   0.923  0.1537  0.1390 -0.0170
    1W        W53412  22.464  21.194   0.501  0.2683  0.0638 -0.0233
    1W        W53413   4.488  16.708   2.343 -0.0425 -0.0546  0.0979
    1W        W53414  11.375   4.034   4.364 -0.3707  0.0446 -0.4185
    1W        W53415  16.580   2.408   7.606  0.1756 -0.2870  0.0482
    1W        W53416   7.297  20.917   2.078  0.0980 -0.0814  0.2204
    1W        W53417   2.491  17.134   9.254  0.1616 -0.3054  0.2046
    1W        W53418  19.366   1.855   6.830  0.1708  0.1865 -0.1192
    1W        W53419  23.757   0.763   9.092 -0.2516  0.3377  0.1884
    1W        W53420   6.636  11.823   7.612 -0.3135 -0.1319 -0.2260
    1W        W53421  22.967  14.891   7.113 -0.4488 -0.0526 -0.2054
    1W        W53422  13.810  15.259   1.692 -0.0621 -0.1712 -0.0926
    1W        W53423  16.880  18.162   1.686  0.0006  0.0735  0.0731
    1W        W53424  21.708  24.624   0.432  0.0505  0.1300 -0.0277
    1W        W53425   5.019  11.773   2.360 -0.0730 -0.0456 -0.1548
    1W        W53426   1.384  18.297   8.718  0.0091  0.0718  0.5078
    1W        W53427  15.295  18.855   8.663  0.0296  0.1790  0.2919
    1W        W53428  10.014   4.348   9.589  0.0587 -0.2482  0.0865
    1W        W53429  18.077  24.881   8.058  0.1878  0.1496  0.0668
    1W        W53430  28.023   9.151   0.130 -0.0610  0.0823 -0.0724
    1W        W53431  15.089   4.069   2.796 -0.0353 -0.2273 -0.1021
    1W        W53432  23.878  27.550   1.338  0.1759  0.1091  0.2412
    1W        W53433  22.802   2.576   8.956  0.1875 -0.0794  0.2630
    1W        W53434  22.331  17.131   8.218  0.2698 -0.1650  0.0291
    1W        W53435  27.751   4.529   0.497 -0.0469 -0.0878 -0.0411
    1W        W53436   5.704  20.336   8.661 -0.2995  0.1164 -0.0735
    1W        W53437  17.519  19.668   9.846  0.0297  0.1140 -0.2538
    1W        W53438  22.108  12.976   9.081  0.0601 -0.1500 -0.0581
    1W        W53439  14.337  10.224   2.405 -0.1030  0.1430 -0.0375
    1W        W53440  28.642   1.180   7.225  0.1118  0.1873  0.1768
    1W        W53441  21.218  11.842   0.941  0.1044  0.5197 -0.0652
    1W        W53442  23.296   7.078   8.196 -0.2974 -0.1470 -0.0687
    1W        W53443  11.381  20.651   1.157 -0.1618 -0.0267 -0.2469
    1W        W53444   3.707  18.650   1.583 -0.1460 -0.0515 -0.2493
    1W        W53445  16.541  17.096   2.234 -0.1199 -0.0420  0.1622
    1W        W53446   3.528  13.497   9.008  0.1030  0.3342  0.0057
    1W        W53447   4.191   0.763   6.854 -0.3415  0.0630  0.1020
    1W        W53448  19.177  15.712   2.281  0.0103  0.0794  0.0950
    1W        W53449  23.565  11.792   1.932  0.1671  0.2937  0.1015
    1W        W53450   9.480  20.895   8.355 -0.1097  0.0500 -0.0313
    1W        W53451  10.536  12.963   1.137 -0.1744 -0.0542 -0.1660
    1W        W53452   9.077   3.768   2.830 -0.1593 -0.0134  0.1722
    1W        W53453  25.184  28.261   9.568 -0.2076 -0.0024 -0.3498
    1W        W53454  11.643  18.289   7.750  0.0452  0.0842 -0.1298
    1W        W53455  17.435   2.206   0.711  0.1608 -0.2010 -0.0951
    1W        W53456  26.378   1.408   7.722 -0.0067 -0.0440 -0.0710
    1W        W53457   9.700  26.174   9.368  0.2963  0.2621 -0.2401
    1W        W53458  19.428  24.239   8.665  0.0441  0.1056  0.1632
    1W        W53459   7.663  12.067   8.277 -0.0541 -0.0808 -0.2147
    1W        W53460  17.674  26.854   7.467 -0.3465 -0.0100  0.2529
    1W        W53461   1.341  11.112   1.090  0.2641  0.1920  0.2135
    1W        W53462  26.635   1.784   7.330  0.0698  0.2377 -0.0245
    1W        W53463  27.695  14.059   6.741 -0.3409 -0.0592 -0.1883
    1W        W53464  21.303  13.812   1.255  0.5228  0.0557 -0.0556
    1W        W53465  18.874  25.677   2.126  0.0794 -0.2795 -0.0171
    1W        W53466   3.149   5.899   2.791 -0.2069  0.7206 -0.0554
    1W        W53467   9.839  20.359   8.357  0.3200 -0.0393 -0.1212
    1W        W53468   5.252  24.731   1.854  0.3173  0.2226  0.0792
    1W        W53469   2.034   7.927   7.507  0.2282 -0.0032  0.0112
    1W        W53470   9.713   5.751   7.715  0.2310 -0.3105  0.3670
    1W        W53471  14.929  16.685   2.417 -0.2191 -0.0853  0.2476
    1W        W53472  23.638   6.072   8.543 -0.2046 -0.2521  0.0524
    1W        W53473  20.011  26.541   8.719  0.0855 -0.0039 -0.1194
    1W        W53474   7.374  23.052   0.946 -0.0761 -0.2741 -0.0157
    1W        W53475  16.456   1.180   3.039 -0.0058  0.0444 -0.2106
    1W        W53476   5.296  22.970   0.200  0.1487 -0.1135 -0.0321
    1W        W53477   0.355  18.309   8.703 -0.1553 -0.3065 -0.2286
    1W        W53478   8.622   2.103   3.775 -0.2217  0.2246 -0.1491
    1W        W53479  12.033   8.607   9.325  0.1961  0.2824  0.0884
    1W        W53480  15.538  14.714   9.144 -0.1241  0.1696  0.0888
    1W        W53481   7.287  10.157   8.657  0.3972  0.2845 -0.2659
    1W        W53482   1.068   8.161   3.090  0.0228  0.3188 -0.1111
    1W        W53483   7.935  11.563   8.089  0.1620 -0.2011  0.0497
    1W        W53484  17.018  26.458   1.875  0.0673  0.1873  0.0764
    1W        W53485  16.726   2.473   6.688 -0.0705 -0.1544 -0.1895
    1W        W53486   5.170  12.730   7.316  0.1063  0.0346  0.0171
    1W        W53487   1.066   8.864   0.549  0.1645 -0.1716  0.0447
    1W        W53488   2.455  26.540   3.314 -0.2282 -0.1292  0.1037
    1W        W53489   2.407  22.570   1.376 -0.0715 -0.2149  0.2037
    1W        W53490  19.950  23.318   7.543 -0.0230  0.3837  0.2962
    1W        W53491  21.904  26.084   7.645 -0.0169 -0.2857  0.0135
    1W        W53492   2.907   8.709   7.610  0.1373 -0.0726  0.0775
    1W        W53493  13.786  16.771   0.899 -0.2737  0.2045  0.1088
    1W        W53494   0.989   3.241   3.028  0.2370 -0.1189 -0.0055
    1W        W53495  27.138  28.077   2.299 -0.0068 -0.0352  0.1760
    1W        W53496   0.818  13.238   7.353 -0.0749  0.4573  0.0236
    1W        W53497  17.693  15.801   9.611 -0.0252 -0.3895  0.1627
    1W        W53498  18.756  27.867   0.221  0.0495 -0.3737  0.0626
    1W        W53499   3.964   2.679   6.999  0.0155  0.0332 -0.2671
    1W        W53500  22.992  11.411   1.118  0.0727 -0.0488 -0.5700
    1W        W53501  14.058  14.978   2.007 -0.2051  0.0610  0.1941
    1W        W53502  19.543  21.263   9.578 -0.1353  0.1864  0.1374
    1W        W53503  18.155   9.622   0.309 -0.1224  0.1252 -0.0709
    1W        W53504  23.413  20.512   8.236  0.2039 -0.1757 -0.0351
    1W        W53505   5.375   4.949   9.160 -0.1249 -0.1953  0.0142
    1W        W53506  26.093  26.363   9.768  0.0286 -0.0588 -0.1537
    1W        W53507   2.405  11.127   1.165 -0.2980 -0.0879  0.1469
    1W        W53508   7.179  13.507   2.916  0.0313 -0.1608  0.3288
    1W        W53509  23.175  22.277   2.398 -0.0079  0.2167  0.1453
    1W        W53510  11.686  13.621   8.222 -0.0503 -0.1268 -0.0593
    1W        W53511  22.976   7.101   8.606  0.2897  0.0793  0.0407
    1W        W53512   2.290   6.556   6.445  0.0743 -0.0202  0.0870
    1W        W53513   2.423  15.737   1.138 -0.1513  0.3453  0.0381
    1W        W53514   7.017  25.322   1.494  0.0126  0.0998  0.1914
    1W        W53515  19.232  25.613   2.998 -0.1973  0.0537  0.1581
    1W        W53516   6.178   2.265   9.655 -0.0444  0.1698  0.3989
    1W        W53517  19.889  12.748   2.645 -0.0086 -0.2536  0.3246
    1W        W53518  22.206  10.886   2.991  0.0736  0.2837  0.0298
    1W        W53519  15.129  13.599   1.470  0.1480  0.0978  0.0111
    1W        W53520  21.265  15.765   2.885 -0.0640  0.2441  0.2286
    1W        W53521   0.045  27.086   7.771 -0.0265  0.0313  0.0957
    1W        W53522   3.192  19.784   8.872 -0.0494 -0.1745 -0.0193
    1W        W53523  24.070   1.803   1.634 -0.1946 -0.0865  0.1117
    1W        W53524   3.802  27.789   8.084  0.3187 -0.2283  0.2543
    1W        W53525  21.841  17.495   9.755  0.1286  0.5372  0.0975
    1W        W53526  13.483   1.477   0.290  0.0955  0.1044 -0.2822
    1W        W53527  26.687   5.830   1.784 -0.2296  0.1832 -0.0136
    1W        W53528  26.519   1.399   2.888 -0.1440  0.0188 -0.2202
    1W        W53529  16.002   2.284   8.184 -0.0388 -0.0559 -0.1259
    1W        W53530  25.425   4.441   6.032 -0.0132  0.4544  0.2244
    1W        W53531  28.461   3.976   0.252 -0.2317  0.1488  0.0294
    1W        W53532  13.490  12.299   7.807 -0.0314  0.1329 -0.0332
    1W        W53533  20.358  21.998   0.591 -0.2090 -0.0144 -0.0750
    1W        W53534  26.911  27.928   0.921  0.1163 -0.0012 -0.0539
    1W        W53535  18.114  24.361   1.708  0.0272 -0.0520 -0.0630
    1W        W53536  13.222  15.917   7.890  0.0538  0.0777 -0.3178
    1W        W53537  21.497  15.728   9.830 -0.0828  0.1026  0.0994
    1W        W53538  25.043   6.109   2.732  0.2025 -0.1070 -0.0071
    1W        W53539   9.242  14.807   0.551 -0.1622  0.1147  0.1487
    1W        W53540  14.504  27.481   2.192  0.4800 -0.1521  0.1082
    1W        W53541  11.347  20.897   9.747 -0.1404  0.0937 -0.1300
    1W        W53542   2.179  25.377   2.786 -0.0227 -0.0154 -0.0638
    1W        W53543   3.079  22.696   6.772  0.0074  0.1546 -0.1521
    1W        W53544  24.536  27.713   3.306  0.1064  0.0511  0.0212
    1W        W53545   3.648  17.065   9.475 -0.0297 -0.1431  0.1761
    1W        W53546  19.595   2.972   7.528 -0.2432  0.2615  0.1731
    1W        W53547   2.820  12.229   5.926  0.1336 -0.0343  0.0279
    1W        W53548  17.107  12.570   2.367 -0.2364  0.2894  0.0080
    1W        W53549   8.409   4.846   9.473 -0.2122 -0.2301 -0.1737
    1W        W53550   0.355  28.462   3.045  0.0731  0.0406 -0.0565
    1W        W53551  24.932  13.159   1.749 -0.2410 -0.1600 -0.1801
    1W        W53552   7.663  17.668   9.592  0.0617  0.0906 -0.0885
    1W        W53553   0.018  23.727   3.251 -0.2742 -0.0237 -0.1122
    1W        W53554  27.138   6.593   0.242  0.4800 -0.0426  0.0595
    1W        W53555   7.721   0.022   7.986 -0.1499  0.0944  0.0170
    1W        W53556   0.629  16.159   1.124  0.2061  0.0962 -0.3493
    1W        W53557   0.029  23.968   8.643  0.0112 -0.2559  0.1174
    1W        W53558  22.977  26.806   1.926 -0.0596 -0.2412 -0.1233
    1W        W53559   5.707  21.725   0.952 -0.1653 -0.1138 -0.0861
    1W        W53560  20.128   0.233   1.078 -0.4045 -0.2581  0.0326
    1W        W53561   8.464  27.123   8.569  0.3749  0.0343  0.0010
    1W        W53562   9.063   9.497   9.283  0.2704 -0.3832  0.0460
    1W        W53563  11.631   3.771   3.527  0.0449 -0.1953  0.2222
    1W        W53564   0.144   2.121   2.671 -0.0741  0.0424 -0.2607
    1W        W53565   0.031   3.515   9.555 -0.2743 -0.1631 -0.1224
    1W        W53566  16.447   3.170   0.421  0.2515  0.0802 -0.2922
    1W        W53567  28.122  15.166   5.722 -0.1305  0.1616 -0.1309
    1W        W53568   1.017  16.325   6.381 -0.0033 -0.0205 -0.1751
    1W        W53569  24.040  22.689   0.182 -0.1733 -0.0398  0.0889
    1W        W53570   5.749   6.691   9.467  0.3248  0.1177  0.2805
    1W        W53571  25.304  22.369   9.059 -0.0014 -0.0225  0.1723
    1W        W53572  23.735  14.756   1.986 -0.1775 -0.1920 -0.1788
    1W        W53573  11.013  26.657   0.504 -0.0198 -0.0917  0.1715
    1W        W53574  27.248  19.757   0.041 -0.1563  0.0914  0.3313
    1W        W53575  23.736   9.652   6.941 -0.0589  0.3256 -0.1670
    1W        W53576  27.549  11.685   0.753  0.1173 -0.0521 -0.1274
    1W        W53577  17.403   2.564   2.597  0.1344 -0.2575  0.0928
    1W        W53578   4.848  20.980   2.641  0.4643  0.0460 -0.0119
    1W        W53579  19.965  28.385   7.623  0.1428  0.0709  0.0347
    1W        W53580  28.304  19.436   7.658  0.0511 -0.0154  0.1724
    1W        W53581  23.518   8.468   0.820 -0.2233 -0.0181  0.1751
    1W        W53582   0.768  16.093   1.808 -0.0987  0.0906  0.0989
    1W        W53583  17.478  26.033   2.035 -0.1716 -0.3017 -0.0145
    1W        W53584   1.976   3.619   2.181 -0.4786  0.0899 -0.1354
    1W        W53585  10.749  27.482   1.012  0.1495  0.0922  0.1172
    1W        W53586   3.836  18.752   1.119 -0.0953 -0.0493  0.2035
    1W        W53587   9.787   1.654   2.723 -0.1619 -0.0599 -0.1030
    1W        W53588  19.690  13.998   9.504  0.1888  0.1180  0.0992
    1W        W53589   3.579  26.518   8.497  0.1046  0.2106  0.0691
    1W        W53590  12.503   9.220   9.776 -0.3145 -0.1047 -0.1540
    1W        W53591   3.107   9.156   8.642 -0.2056 -0.4799 -0.0074
    1W        W53592   5.025   4.086   9.639 -0.0363 -0.1919  0.0749
    1W        W53593   1.830   6.155   2.306 -0.1202 -0.0895  0.2148
    1W        W53594  22.409  19.166   1.188 -0.1808 -0.2452 -0.2591
    1W        W53595  14.206   0.028   7.618  0.0198  0.0282 -0.1313
    1W        W53596  17.145  25.762   6.967 -0.3160 -0.2163  0.1010
    1W        W53597   7.493  24.758   0.090  0.1046  0.0267 -0.3435
    1W        W53598  17.777  14.056   7.703  0.1369  0.0811  0.2686
    1W        W53599   3.835  20.525   1.466 -0.3316  0.0925 -0.0909
    1W        W53600  16.807  12.656   9.325  0.0138  0.1507 -0.0771
    1W        W53601  17.962  26.799   9.014  0.0528  0.1587  0.2013
    1W        W53602   0.175   3.085   9.347 -0.2624  0.0705 -0.1230
    1W        W53603   3.445  15.832   9.244 -0.0822 -0.0527  0.2752
    1W        W53604   3.656   5.707   1.012 -0.1848 -0.1788 -0.0495
    1W        W53605   0.945  12.793   2.083  0.0720  0.2887  0.4141
    1W        W53606   7.547   7.580   0.292  0.2889 -0.0845  0.1783
    1W        W53607   0.299  16.652   0.365 -0.0175 -0.0004 -0.2313
    1W        W53608  21.830  13.722   8.870  0.1423 -0.1762 -0.3145
    1W        W53609  23.623  21.324   1.384 -0.0256  0.2163 -0.1494
    1W        W53610  21.968  18.888   8.508  0.0371 -0.1534  0.2309
    1W        W53611  22.138   6.382   2.876 -0.0509 -0.0077  0.0980
    1W        W53612   7.715  27.543   9.074  0.2578 -0.1490  0.0977
    1W        W53613  26.038   4.518   0.498 -0.0858  0.1345 -0.0662
    1W        W53614   0.827  11.170   0.818 -0.2920 -0.0642 -0.0472
    1W        W53615   0.789  23.063   0.041 -0.0566 -0.1592 -0.1110
    1W        W53616  21.602  14.836   0.475 -0.0385 -0.4261 -0.0922
    1W        W53617  23.667   0.685   8.278  0.1569 -0.1122  0.1228
    1W        W53618   6.843   5.648   1.680  0.1516  0.1813 -0.1456
    1W        W53619  19.939   5.969   8.346  0.1220 -0.0168 -0.3179
    1W        W53620  12.030  22.089   9.415 -0.3078 -0.0311 -0.1927
    1W        W53621   3.969  12.636   9.682 -0.3469 -0.1962  0.1163
    1W        W53622  21.418   5.592   1.769  0.0278  0.2684  0.0733
    1W        W53623  23.696  13.575   0.190 -0.0059 -0.0271  0.0496
    1W        W53624  12.054   5.681   9.752  0.0230 -0.1204 -0.2368
    1W        W53625  26.425  10.490   7.236 -0.1705 -0.2360  0.0583
    1W        W53626  15.610   9.194   3.221  0.4136  0.0728 -0.2803
    1W        W53627   4.177  23.378   6.787 -0.0162  0.1554 -0.1931
    1W        W53628  22.787  25.720   0.494  0.1451 -0.0384 -0.3091
    1W        W53629  11.079  23.491   0.673  0.0121 -0.2817 -0.2355
    1W        W53630  22.747  14.067   8.144  0.1506 -0.0878 -0.3078
    1W        W53631  24.543  27.948   2.847  0.0487  0.2158 -0.1508
    1W        W53632   0.486   3.255   1.767  0.1008  0.2824  0.3692
    1W        W53633   4.323   9.900   6.805  0.0628 -0.1371  0.2069
    1W        W53634   1.229  23.354   7.937  0.1868 -0.0696  0.0995
    1W        W53635  27.846  12.335   1.283 -0.0704  0.2400 -0.4480
    1W        W53636   8.262  23.134   1.155 -0.1507 -0.0529 -0.0241
    1W        W53637  11.973  26.533   1.388  0.0506 -0.0885  0.0481
    1W        W53638  24.099   0.603   8.060  0.1981  0.1935 -0.2830
    1W        W53639  16.276  24.326   8.203 -0.0599  0.1208  0.0922
    1W        W53640   2.542   3.565   0.332  0.2338 -0.1676  0.1238
    1W        W53641  23.885  19.612   0.561 -0.1267 -0.0785 -0.0444
    1W        W53642  11.977  22.680   1.518 -0.0137  0.0303  0.2290
    1W        W53643  25.871   0.410   9.826 -0.1098  0.0804 -0.1799
    1W        W53644   2.667   7.098   2.518  0.2137 -0.1256  0.0785
    1W        W53645  13.181  12.623   1.734 -0.3012 -0.1896  0.0171
    1W        W53646  16.501  14.272   9.008 -0.0579 -0.0789 -0.1679
    1W        W53647  27.537  18.717   1.559 -0.0497  0.1650  0.0809
    1W        W53648   2.855   5.134   8.871  0.0593  0.0118  0.0741
    1W        W53649   1.186   7.172   9.750 -0.1547 -0.2403 -0.2477
    1W        W53650  18.783  10.156   2.422  0.0608  0.0665  0.4775
    1W        W53651  18.188   7.322   7.759  0.3135 -0.2442  0.1508
    1W        W53652  12.497   8.296   2.352 -0.0856 -0.0958 -0.3014
    1W        W53653   2.893   3.995   1.106 -0.1108 -0.0394 -0.2554
    1W        W53654  25.158  15.526   0.223  0.2644  0.1760 -0.2658
    1W        W53655   0.995  20.752   8.998 -0.1561  0.1964 -0.0457
    1W        W53656   9.721   7.072   7.778 -0.1144  0.3123 -0.1204
    1W        W53657   7.696  11.346   1.949 -0.0710  0.5022  0.1765
    1W        W53658  10.979   6.915   2.602 -0.0884 -0.1600 -0.1359
    1W        W53659  17.983  25.560   0.369 -0.0065  0.3143 -0.3177
    1W        W53660  16.284  23.688   9.200  0.0711  0.0513 -0.1257
    1W        W53661  16.822  18.273   7.056  0.1092  0.1237  0.0678
    1W        W53662  11.797   7.109   2.690 -0.1894  0.0988  0.2116
    1W        W53663   3.572   3.633   9.017 -0.1829  0.1062 -0.0678
    1W        W53664  25.320   1.280   6.816  0.0073 -0.0804  0.0302
    1W        W53665   4.479   7.600   1.544  0.2251  0.0945 -0.2069
    1W        W53666  27.005  12.411   1.838 -0.1247 -0.0571 -0.0568
    1W        W53667  14.365  26.032   9.233  0.2060  0.2083  0.1974
    1W        W53668  11.963  24.921   9.327 -0.1313  0.1935  0.0532
    1W        W53669   5.411  21.000   1.434 -0.0261  0.1670 -0.2124
    1W        W53670   3.645  25.548   6.240 -0.2316 -0.2251 -0.0442
    1W        W53671   7.634  11.723   8.723  0.0741 -0.1391 -0.3327
    1W        W53672  25.526   9.644   8.116 -0.2474  0.1609  0.2978
    1W        W53673  26.922  24.266   8.952  0.2791  0.1450 -0.0806
    1W        W53674  22.469  21.639   8.655 -0.1713 -0.2621  0.2651
    1W        W53675  18.137   0.374   3.265 -0.0353  0.2212  0.0028
    1W        W53676  16.518   4.680   4.007  0.0808  0.3035  0.0207
    1W        W53677  22.787  11.397   9.531 -0.1611 -0.4222  0.0504
    1W        W53678   0.075  14.974   8.567  0.1090  0.1347  0.3297
    1W        W53679  25.618  24.823   9.873  0.1290 -0.1492 -0.1668
    1W        W53680   8.109  21.705   0.356 -0.0366 -0.0227  0.1127
    1W        W53681   5.388  24.839   1.375 -0.1536  0.0599  0.3928
    1W        W53682  15.716  15.923   8.215 -0.1956  0.1068 -0.0876
    1W        W53683  26.651  14.066   8.024 -0.3224 -0.0821  0.0772
    1W        W53684   5.109  10.194   8.881 -0.0278 -0.3407 -0.0504
    1W        W53685  28.423  19.268   0.020 -0.3312  0.0022  0.2535
    1W        W53686   9.078   9.736   8.554 -0.1643 -0.1862  0.1324
    1W        W53687  19.686  27.322   2.717  0.0946  0.0563 -0.0736
    1W        W53688  12.600  16.974   7.734 -0.1058  0.4084  0.1585
    1W        W53689   4.210  25.145   6.907  0.2253 -0.2927 -0.1972
    1W        W53690   4.307  21.453   8.665 -0.0729 -0.0172 -0.0978
    1W        W53691  20.260  22.932   6.725 -0.1405 -0.1223 -0.3098
    1W        W53692  17.764  10.598   8.274  0.1225  0.0011  0.1461
    1W        W53693  18.123  20.740   8.946  0.0844  0.2345  0.0294
    1W        W53694  15.334  14.027   1.331 -0.0391 -0.2652 -0.1026
    1W        W53695  23.318   0.068   9.704  0.0784 -0.4792  0.1586
    1W        W53696  10.531  25.742   7.376  0.0470  0.1460  0.2040
    1W        W53697   5.261  19.624   9.168 -0.1880  0.0393  0.1572
    1W        W53698  13.293  16.400   7.887 -0.1393 -0.1994 -0.0301
    1W        W53699  23.282  10.012   2.580  0.0272  0.1632  0.0690
    1W        W53700  26.293  18.995   8.352  0.0604  0.0317  0.2705
    1W        W53701   6.208  20.092   6.710  0.2086  0.1511 -0.0726
    1W        W53702  20.581  21.739   1.956  0.0529 -0.2857 -0.1813
    1W        W53703  15.632   8.857   8.371 -0.1203 -0.2008 -0.0196
    1W        W53704  27.863  11.091   0.828 -0.3123  0.1693  0.0213
    1W        W53705  21.823   6.951   6.231 -0.0275 -0.1727  0.5403
    1W        W53706   0.038   7.565   7.636 -0.0528 -0.1799  0.0056
    1W        W53707  22.014  18.034   7.751 -0.0175  0.0747  0.0060
    1W        W53708   2.069  11.965   0.727 -0.1284 -0.1661 -0.1486
    1W        W53709  11.181  21.635   1.379 -0.0035 -0.0545  0.0564
    1W        W53710  18.368  15.815   2.184 -0.2962 -0.0001 -0.1767
    1W        W53711  12.866  19.216   1.983 -0.1553 -0.1325 -0.1592
    1W        W53712   4.381  16.531   7.892 -0.0095  0.0000 -0.1752
    1W        W53713  13.484  12.097   3.051  0.1179 -0.0354  0.1292
    1W        W53714   6.482   3.842   6.722 -0.0184  0.1529  0.1462
    1W        W53715   8.999   3.819   7.621  0.0436 -0.0795 -0.1366
    1W        W53716   8.962  14.774   8.417  0.0365 -0.0348  0.0694
    1W        W53717  19.441   8.181   7.954  0.3609 -0.0569 -0.0845
    1W        W53718   2.802  19.705   6.122  0.2593 -0.1407 -0.0066
    1W        W53719  23.516   0.513   1.794  0.1390  0.1404  0.2480
    1W        W53720  19.882  21.906   0.827 -0.0110 -0.0847 -0.1364
    1W        W53721  13.743  23.019   7.986  0.0903 -0.0387 -0.1149
    1W        W53722   2.705  12.698   6.684  0.1261 -0.4619  0.0002
    1W        W53723   5.087   9.338   1.350  0.0107 -0.1928  0.1453
    1W        W53724  24.737  21.253   9.061  0.0421 -0.2537  0.1465
    1W        W53725   3.165  22.184   6.520  0.3354 -0.0570  0.2231
    1W        W53726   7.086   4.132   2.343  0.0382 -0.1480  0.2721
    1W        W53727   1.393  16.861   9.166 -0.2869 -0.2599 -0.2963
    1W        W53728  14.184  16.771   0.536  0.0270 -0.0567  0.4910
    1W        W53729  26.932  14.223   8.788 -0.2544  0.1404  0.1635
    1W        W53730  21.949   5.596   0.443  0.1005 -0.1948  0.1206
    1W        W53731  28.470  16.038   7.706 -0.0242  0.1225  0.1807
    1W        W53732  10.795  15.085   7.755  0.1111 -0.3935 -0.0717
    1W        W53733   7.690  15.049   8.337 -0.1544  0.1860 -0.1605
    1W        W53734   9.234  22.676   9.902  0.1382  0.0867  0.0003
    1W        W53735  24.998  25.346   6.944  0.1546  0.0117 -0.1353
    1W        W53736  23.027  24.483   2.593  0.0673  0.1504  0.2103
    1W        W53737  26.476   6.897   6.288  0.0010 -0.2594  0.3714
    1W        W53738   9.117  27.819   9.203 -0.1743  0.0409  0.1582
    1W        W53739  13.855  17.111   7.186  0.3791 -0.1644 -0.1159
    1W        W53740   3.969  13.285   2.524  0.3537 -0.0064 -0.1188
    1W        W53741  12.085   5.883   3.386  0.1016  0.1430 -0.1153
    1W        W53742  23.114  25.153   8.106 -0.0522  0.1202  0.2351
    1W        W53743  27.489  12.015   1.744  0.2019 -0.3725  0.1211
    1W        W53744   8.620  16.307   0.861 -0.0688 -0.0543  0.0704
    1W        W53745  14.264  27.836   6.852 -0.0053 -0.2883  0.0462
    1W        W53746   1.401   8.353   9.419 -0.0762  0.1231 -0.1169
    1W        W53747  28.362  21.112   8.696 -0.0018 -0.3899  0.0018
    1W        W53748  20.650  21.993   2.572  0.1398 -0.4821  0.2954
    1W        W53749  15.500  28.439   1.423  0.0469 -0.2991 -0.1481
    1W        W53750  26.340  26.278   2.935  0.2432  0.0685  0.1383
    1W        W53751   4.344   1.076   1.602 -0.0508  0.1646 -0.0862
    1W        W53752   5.405  28.542   1.952 -0.1809 -0.1486 -0.2903
    1W        W53753   2.634  24.524   8.459 -0.2040  0.0188 -0.0414
    1W        W53754   8.518  15.867   2.321 -0.0875 -0.0240 -0.0122
    1W        W53755  25.246  26.546   7.672 -0.1972  0.2477 -0.2272
    1W        W53756  27.924   3.994   0.282 -0.1019 -0.3935  0.0118
    1W        W53757  13.835   0.583   8.727  0.0244  0.0615  0.1812
    1W        W53758  28.045  18.156   1.717  0.1744 -0.0500 -0.0461
    1W        W53759  21.257  25.509   7.647 -0.0259  0.2252  0.1213
    1W        W53760  28.604  20.674   0.925 -0.1856  0.1627  0.0735
    1W        W53761   1.990  22.102   7.148 -0.3279 -0.2736  0.0673
    1W        W53762  26.840   4.993   1.443 -0.0919  0.1975 -0.0977
    1W        W53763   4.474  11.880   7.218 -0.0566 -0.1235  0.1477
    1W        W53764  26.552   9.326   2.144 -0.1271  0.3635 -0.2873
    1W        W53765  24.428  19.929   7.464  0.2126 -0.0047 -0.1798
    1W        W53766  10.331  18.689   8.671 -0.1202  0.1505  0.0477
    1W        W53767   4.044  24.675   7.036  0.0555  0.1608 -0.0760
    1W        W53768   8.757  21.732   2.463  0.1433 -0.0431  0.3731
    1W        W53769  20.081  21.817   9.491  0.3078 -0.2908  0.2250
    1W        W53770  17.760   3.680   8.862  0.1904 -0.1981 -0.2682
    1W        W53771   6.793   1.492   9.294 -0.2371  0.3322 -0.3829
    1W        W53772  14.869  22.443   7.785  0.2304  0.2097 -0.0383
    1W        W53773  14.996  19.112   8.960 -0.0035  0.2425  0.0548
    1W        W53774  27.611  16.595   6.735  0.1548 -0.1222 -0.2812
    1W        W53775   9.278  26.173   0.540  0.0290  0.0864 -0.2957
    1W        W53776  27.667   3.459   2.652 -0.0350 -0.1314  0.2073
    1W        W53777   7.933  21.313   7.675  0.0416  0.2462  0.2626
    1W        W53778   9.596  19.999   2.351 -0.0167  0.0471  0.0092
    1W        W53779   5.356  14.457   7.026 -0.5269  0.0626 -0.0054
    1W        W53780  18.736   3.027   7.444 -0.2209 -0.0109 -0.0053
    1W        W53781  16.084   5.941   0.038 -0.0870  0.1336 -0.1221
    1W        W53782  16.506  21.541   2.845 -0.0206  0.1147  0.1736
    1W        W53783  21.775  23.178   9.125 -0.1320  0.0382  0.2362
    1W        W53784   2.753  18.764   7.944 -0.0860  0.0118 -0.0915
    1W        W53785   7.366   1.759   6.655 -0.0069  0.2220  0.0048
    1W        W53786  16.398   5.816   7.547 -0.0680  0.2273  0.0431
    1W        W53787  22.349  17.755   0.412  0.0890  0.0385  0.0871
    1W        W53788   1.686  16.716   9.638  0.0857 -0.1511  0.1019
    1W        W53789  17.503   2.294   1.263 -0.0593  0.0415  0.1071
    1W        W53790  24.826   8.229   2.258  0.1306 -0.1505  0.3892
    1W        W53791  23.710  25.800   6.094  0.0105 -0.1732  0.0205
    1W        W53792   7.955   3.076   1.353  0.3059 -0.0321 -0.2553
    1W        W53793   0.957   9.604   0.288  0.0815  0.0071  0.4014
    1W        W53794  13.681  17.637   9.274  0.0843  0.0059  0.2432
    1W        W53795  11.750  27.033   2.405 -0.0893  0.4369 -0.0007
    1W        W53796  19.252  11.775   7.637  0.2260 -0.1999  0.2725
    1W        W53797  12.533  20.070   1.487  0.1297 -0.2142 -0.0599
    1W        W53798  12.094  22.495   3.001  0.4946 -0.1627 -0.3317
    1W        W53799   7.257  11.176   2.062  0.1141  0.2184 -0.0258
    1W        W53800  24.451  20.629   1.674 -0.1768 -0.0384 -0.0813
    1W        W53801  11.196  13.043   2.219 -0.0153  0.2880  0.0045
    1W        W53802   6.275   0.792   2.330 -0.0335  0.1214  0.0735
    1W        W53803  20.728   7.213   0.559  0.2250 -0.0855  0.2766
    1W        W53804  22.441   5.530   0.271 -0.0024 -0.1895 -0.1494
    1W        W53805  13.887  14.904   1.396 -0.0093 -0.1360 -0.0885
    1W        W53806  27.508  21.172   0.332  0.3387  0.1817  0.2734
    1W        W53807   0.557   1.519   2.167  0.2796 -0.1562  0.2333
    1W        W53808   4.818  25.745   9.412 -0.1554 -0.0211  0.0750
    1W        W53809   2.258   5.572   7.899  0.1023 -0.1630 -0.0314
    1W        W53810  28.321  17.481   6.076  0.0371 -0.3478 -0.1088
    1W        W53811  11.546   1.082   9.647  0.0707 -0.4018  0.2139
    1W        W53812  18.334  15.317   1.096  0.0574 -0.1795 -0.3386
    1W        W53813   1.011   1.404   1.998 -0.0089 -0.0430 -0.0637
    1W        W53814  11.958  13.475   8.756 -0.2882  0.0463  0.0515
    1W        W53815  25.551  26.780   0.523  0.1197 -0.0118 -0.4032
    1W        W53816   2.330  20.462   6.518  0.1193 -0.2327  0.0288
    1W        W53817  24.330   3.580   5.829  0.1140  0.0109 -0.0176
    1W        W53818  16.390   7.215   9.851  0.0691  0.1629 -0.3666
    1W        W53819   2.436   0.441   6.676  0.2584  0.1025 -0.1366
    1W        W53820  15.753   0.927   8.386 -0.0072  0.2556 -0.0788
    1W        W53821   6.381  10.886   0.361  0.4111  0.0503 -0.1233
    1W        W53822   0.130   8.943   0.792  0.2474 -0.0779 -0.2392
    1W        W53823  19.422   9.151   7.126  0.0273  0.0713  0.2912
    1W        W53824  26.856   2.667   9.904  0.0179 -0.0606  0.1071
    1W        W53825  26.199  26.024   1.901 -0.3771 -0.1278  0.0067
    1W        W53826   7.359  14.659   0.910  0.0116 -0.3895 -0.1143
    1W        W53827   7.893  24.075   2.017 -0.1261 -0.0721  0.1753
    1W        W53828  11.884   7.874   8.514 -0.3053  0.0979  0.0118
    1W        W53829  21.898   0.267   6.564  0.1920 -0.2361  0.1070
    1W        W53830  11.520   9.307   0.249  0.1795 -0.2614 -0.2431
    1W        W53831   6.522  13.972   9.748  0.2549  0.0431 -0.1722
    1W        W53832  28.435  19.037   6.666 -0.0112 -0.2450 -0.0773
    1W        W53833  19.004  27.986   0.670 -0.0087 -0.2248  0.2415
    1W        W53834  28.185  12.059   8.871 -0.0703  0.1523 -0.2562
    1W        W53835  19.185  23.452   2.199 -0.1079  0.2935  0.0994
    1W        W53836  25.883  10.593   1.646  0.1784 -0.0550  0.0310
    1W        W53837  27.831   5.284   9.814 -0.1402 -0.2531 -0.0133
    1W        W53838   8.605  22.964   8.700 -0.2335  0.1053  0.3703
    1W        W53839  11.680   1.300   4.049  0.1942  0.2723  0.1648
    1W        W53840  19.277  28.192   1.008  0.1381  0.0062  0.1318
    1W        W53841  22.927  15.447   9.902 -0.1929  0.2060  0.0563
    1W        W53842   0.098   9.013   9.244 -0.0712  0.0994 -0.1149
    1W        W53843   9.345  28.136   8.274 -0.2400  0.0976 -0.2093
    1W        W53844  23.980  12.994   9.797 -0.2809 -0.3106 -0.1200
    1W        W53845  18.669   2.047   7.566  0.3928  0.0624 -0.1093
    1W        W53846  14.144  16.788   8.085  0.0866 -0.0667  0.2658
    1W        W53847   2.346   9.645   1.546  0.0125  0.0496 -0.1323
    1W        W53848  16.418  22.577   3.752  0.2293 -0.0458 -0.7952
    1W        W53849  26.335  23.769   2.028 -0.0046  0.4034 -0.0597
    1W        W53850  12.587  13.390   2.684  0.0083 -0.2019 -0.0702
    1W        W53851   3.662   8.298   0.063 -0.0757  0.0161 -0.3098
    1W        W53852  14.548  20.735   8.213  0.1020 -0.0026  0.2731
    1W        W53853  15.617  13.948   9.843  0.1388 -0.4880 -0.0037
    1W        W53854  14.525  25.765   3.997 -0.2351  0.0309 -0.1888
    1W        W53855   0.834  11.518   9.301 -0.2391 -0.1860 -0.0515
    1W        W53856   4.255  28.031   9.314  0.0539 -0.2643  0.0765
    1W        W53857  16.787  24.629   2.866  0.1706 -0.2247 -0.0495
    1W        W53858  22.978   4.726   1.565 -0.0720 -0.0089 -0.0043
    1W        W53859  15.736   3.358   2.951  0.0048 -0.1066  0.0236
    1W        W53860  27.718   7.183   0.153  0.0747  0.2517  0.1654
    1W        W53861  24.744   5.224   6.334 -0.2734 -0.0289 -0.0809
    1W        W53862   9.077   6.315   9.434 -0.0121  0.2203  0.1502
    1W        W53863  26.050  22.882   1.484 -0.2530  0.0808 -0.0038
    1W        W53864  26.206  15.274   8.491 -0.1066 -0.0153  0.1083
    1W        W53865  27.814  20.456   6.881 -0.0483  0.0133 -0.1554
    1W        W53866  28.435  16.473   8.034  0.0145 -0.0315 -0.0189
    1W        W53867  10.996  14.174   0.164 -0.2034  0.0225 -0.2666
    1W        W53868  27.272  13.709   0.983  0.0756  0.4005 -0.0657
    1W        W53869  14.728   8.466   9.383 -0.0213 -0.1231 -0.1221
    1W        W53870  25.062   1.071   6.125  0.1200  0.2192 -0.0271
    1W        W53871  22.892   9.910   1.172 -0.2970 -0.1009  0.0940
    1W        W53872  15.639   2.090   7.591  0.1859  0.0017 -0.0463
    1W        W53873  24.811   2.385   5.946 -0.3356  0.0641  0.0444
    1W        W53874  10.257  23.063   6.355 -0.0757  0.0448  0.0211
    1W        W53875  24.592  20.721   0.315  0.2387  0.1904 -0.3441
    1W        W53876  11.339  11.567   8.511 -0.1353  0.1299 -0.1807
    1W        W53877   6.951  18.365   5.795 -0.3537  0.2100  0.2066
    1W        W53878   6.673   7.130   8.031  0.2113  0.0361 -0.1108
    1W        W53879   9.496   9.081   1.094 -0.1317  0.0436  0.2852
    1W        W53880   2.002  21.235   6.540 -0.0703 -0.2027 -0.1158
    1W        W53881   9.287   1.225   9.760  0.0498  0.2789 -0.1262
    1W        W53882   7.228   9.176   7.824  0.1322  0.0714 -0.1129
    1W        W53883  23.518   3.472   9.052  0.0114  0.1187  0.1147
    1W        W53884  11.968  16.089   2.236  0.0037  0.0120 -0.4052
    1W        W53885  25.885   8.211   2.316 -0.2113  0.2143 -0.4463
    1W        W53886  21.537   1.379   7.652  0.0908  0.1829 -0.0283
    1W        W53887   4.057  24.295   8.492  0.2866 -0.1242  0.0764
    1W        W53888   5.773  14.275   2.211  0.0299  0.2931  0.0909
    1W        W53889   2.263  10.113   0.725 -0.1059 -0.2388  0.2405
    1W        W53890  20.576  13.778   9.680  0.4146 -0.0072 -0.0955
    1W        W53891  27.919  25.927   3.312 -0.2745 -0.2824  0.1449
    1W        W53892   8.350  20.622   8.499 -0.2132 -0.1367  0.1783
    1W        W53893  13.623  21.349   1.379 -0.1898  0.3832  0.0095
    1W        W53894   3.107  16.292   6.509  0.0660  0.1566  0.0365
    1W        W53895  19.161  14.132   7.888  0.0582 -0.4978 -0.1099
    1W        W53896  12.287  26.202   0.922  0.0433 -0.1688 -0.0045
    1W        W53897   6.465  25.207   7.175 -0.0543 -0.1099  0.1404
    1W        W53898   7.695   8.377   6.716  0.1505 -0.0069 -0.0536
    1W        W53899  13.390  23.615   9.499  0.1336 -0.1188  0.1579
    1W        W53900   2.849  20.641   6.691 -0.1839  0.0347  0.0793
    1W        W53901  10.174  15.277   8.884  0.1926  0.3990 -0.0331
    1W        W53902  11.906   4.389   0.503 -0.0454  0.0791  0.0530
    1W        W53903   9.640   8.204   0.327 -0.0792  0.1933  0.0276
    1W        W53904   1.107   6.984   6.870 -0.0632  0.1279  0.0413
    1W        W53905   3.812  26.257   0.581  0.0309 -0.0955  0.3411
    1W        W53906   8.255   6.039   0.007 -0.2409  0.2338  0.1124
    1W        W53907  13.458  13.612   2.511 -0.0456  0.2033  0.1256
    1W        W53908   2.746  13.373   8.535  0.0128  0.0157 -0.2836
    1W        W53909   8.875  26.132   1.296  0.1923 -0.1310  0.0907
    1W        W53910   5.074  10.353   1.574 -0.1629 -0.0786 -0.1552
    1W        W53911  25.629   8.462   7.353 -0.1309  0.0557  0.0173
    1W        W53912  19.264  17.722   2.809 -0.2531 -0.0328 -0.2342
    1W        W53913  15.872  18.199   7.754 -0.0735  0.0033 -0.1424
    1W        W53914   4.957  28.042   7.550  0.0185  0.3293 -0.3904
    1W        W53915  12.618   8.761   2.509 -0.0318 -0.1760  0.1425
    1W        W53916  13.186  16.640   0.123 -0.0795  0.0272 -0.0786
    1W        W53917  28.221   0.177   9.766  0.0856  0.0531  0.0433
    1W        W53918   6.406  11.545   2.840 -0.1369  0.0413 -0.1505
    1W        W53919  22.962   6.668   7.460  0.0347  0.0540  0.0971
    1W        W53920  25.344   8.164   0.685  0.1077  0.0460 -0.0949
    1W        W53921  27.927  18.360   5.819 -0.0850  0.0623  0.1272
    1W        W53922  28.325   5.589   7.498 -0.0080 -0.0845  0.3143
    1W        W53923  13.230  12.944   3.039  0.2800 -0.0507 -0.2899
    1W        W53924  28.002  12.935   7.010 -0.2222  0.1517 -0.0482
    1W        W53925  14.696  19.207   2.390 -0.0786  0.1174 -0.3379
    1W        W53926  25.285  15.211   7.079  0.0132 -0.1803 -0.0477
    1W        W53927  17.581  25.033   3.001 -0.0966 -0.1018  0.0175
    1W        W53928  12.793  13.186   8.868 -0.2397 -0.4361 -0.1653
    1W        W53929  19.060   6.600   3.683 -0.1426  0.1256  0.4134
    1W        W53930  25.382  21.780   7.893 -0.2503 -0.0454  0.3494
    1W        W53931  22.396   2.502   2.149 -0.0230 -0.3770  0.0566
    1W        W53932  11.041  13.230   1.081  0.3542 -0.1878  0.4040
    1W        W53933  12.814   1.973   8.745  0.2256 -0.0689 -0.2006
    1W        W53934  14.805  14.647   7.925  0.2828 -0.0137  0.2240
    1W        W53935   9.446  14.390   0.345  0.1046 -0.2467 -0.0744
    1W        W53936   8.260  22.863   9.117 -0.0107 -0.0054  0.0093
    1W        W53937   1.172   0.593   7.902 -0.1310  0.1009  0.0284
    1W        W53938   0.955   4.400   5.939  0.2381 -0.1515 -0.2196
    1W        W53939  22.583  15.432   2.189  0.0079  0.0409 -0.0455
    1W        W53940  18.603  27.664   0.643 -0.1839  0.2943  0.1219
    1W        W53941  26.072   3.361   7.931  0.2363  0.3570  0.0197
    1W        W53942   0.700   6.253   2.078 -0.1660 -0.1784 -0.2802
    1W        W53943   6.026  17.754   9.746  0.2036 -0.2630  0.2126
    1W        W53944  26.960  13.432   9.317 -0.0742  0.0899  0.1950
    1W        W53945  27.488  14.174   6.232  0.0281 -0.0476 -0.0909
    1W        W53946  19.312  13.545   7.653  0.1019 -0.0258 -0.1512
    1W        W53947  21.347   2.026   2.268 -0.0601 -0.0870  0.1401
    1W        W53948  16.515  17.607   0.989  0.1704 -0.0174 -0.1665
    1W        W53949   8.017  12.756   1.960  0.0842 -0.0294 -0.1588
    1W        W53950   1.438  20.481   7.797  0.1159  0.0795 -0.3029
    1W        W53951  20.127   9.486   9.391  0.0862 -0.0615  0.1711
    1W        W53952  18.315  21.139   8.401 -0.2101  0.2143  0.1241
    1W        W53953  12.721   1.478   8.622  0.0204  0.1101 -0.1738
    1W        W53954  11.625   2.740   8.680  0.0544  0.1130 -0.0126
    1W        W53955  20.719  10.210   2.012  0.0348  0.0155  0.0984
    1W        W53956   4.293   6.286   7.673  0.1550 -0.1544  0.0727
    1W        W53957  14.221  10.374   9.525 -0.0711 -0.1840 -0.0066
    1W        W53958  20.296  27.866   9.354  0.1649 -0.2226  0.4708
    1W        W53959  11.082  22.142   2.679 -0.0632 -0.0081  0.1776
    1W        W53960   7.502  11.973   0.598  0.1796 -0.3282 -0.2484
    1W        W53961   4.973   3.232   8.530 -0.1397  0.1396  0.0414
    1W        W53962   2.368   8.717   1.713  0.1466 -0.1014  0.2181
    1W        W53963  28.677   9.743   8.757  0.2027  0.1210 -0.1620
    1W        W53964  13.304  11.436   2.270  0.0075 -0.0662 -0.0301
    1W        W53965  23.498  21.250   2.423 -0.0368  0.0913 -0.3614
    1W        W53966   3.267  26.976   0.800 -0.0065  0.0318  0.0213
    1W        W53967  21.261   2.553   2.358  0.2580 -0.1013  0.2932
    1W        W53968   9.922  24.533   2.157 -0.2592  0.2245  0.1241
    1W        W53969  23.598  23.897   1.666  0.0052  0.3592 -0.1229
    1W        W53970   9.400  18.153   7.015 -0.1453  0.2577  0.1873
    1W        W53971   1.698  27.573   3.394  0.4156 -0.1091 -0.2270
    1W        W53972   7.093  12.746   1.369 -0.0354 -0.1163 -0.1532
    1W        W53973  12.908  10.571   9.112 -0.0863 -0.1676 -0.0593
    1W        W53974  14.836  20.867   0.533  0.2235  0.0065 -0.1977
    1W        W53975  10.909  25.371   1.052  0.2262  0.3127 -0.3639
    1W        W53976   9.015  11.730   2.651  0.4162 -0.3301  0.0808
    1W        W53977   9.917  19.008   0.273 -0.0500 -0.0664  0.0017
    1W        W53978  26.638   1.817   0.001 -0.0987 -0.1308  0.1917
    1W        W53979  25.663  10.538   7.867  0.0402 -0.0081 -0.0630
    1W        W53980   9.917  25.713   0.713  0.0386  0.0258 -0.0791
    1W        W53981  11.687  21.105   1.029  0.3703  0.1996 -0.1554
    1W        W53982   1.957  13.298   2.704 -0.0120  0.0108  0.3597
    1W        W53983   3.332  21.287   6.324 -0.0744  0.1115  0.1020
    1W        W53984  11.188  13.086   9.526  0.1965 -0.1073 -0.1194
    1W        W53985   1.570  17.245   7.541 -0.0616  0.0831 -0.2724
    1W        W53986  27.384   4.151   2.026 -0.2399 -0.1906 -0.0233
    1W        W53987   2.190   0.231   6.334  0.1174  0.0400  0.2730
    1W        W53988  18.433  17.786   2.195 -0.0584 -0.0124 -0.0874
    1W        W53989   8.236  10.345   2.570 -0.0395  0.3523  0.0815
    1W        W53990  20.877   0.655   2.811 -0.0859  0.1123  0.0324
    1W        W53991  10.451  25.751   7.886 -0.2091  0.1166 -0.1938
    1W        W53992   3.485  23.004   1.469  0.3097 -0.1323  0.0257
    1W        W53993  15.141  24.160   1.285  0.1869 -0.2738  0.0392
    1W        W53994   6.609   2.400   8.613  0.0460  0.0881  0.0999
    1W        W53995   9.967  13.316   2.281  0.0807 -0.0631 -0.2666
    1W        W53996   5.691  19.652   9.829 -0.1604 -0.0859 -0.1434
    1W        W53997   0.078  15.286   2.301 -0.2420 -0.0689 -0.0924
    1W        W53998  15.032  23.195   9.739  0.2613 -0.0917  0.2293
    1W        W53999  10.642   7.114   7.051 -0.1002 -0.4722  0.1185
    1W        W54000  21.809  11.758   7.341  0.0574  0.0447 -0.1852
    1W        W54001   6.193   6.462   7.809  0.0936  0.1367 -0.1872
    1W        W54002  27.107   9.022   7.312  0.0372  0.2665  0.1725
    1W        W54003  18.584   1.599   7.842 -0.1719  0.2171 -0.0909
    1W        W54004   0.535   8.226   0.798 -0.2019 -0.2519 -0.1814
    1W        W54005   0.335  11.341   2.286 -0.0345 -0.2097 -0.0302
    1W        W54006  15.412   3.813   2.539  0.2525  0.0050  0.0354
    1W        W54007  16.408  20.199   2.296  0.1292  0.2576 -0.0594
    1W        W54008  20.387  11.833   8.598  0.0017 -0.1038  0.2459
    1W        W54009  12.372  25.292   7.495  0.1156  0.0579 -0.2175
    1W        W54010   4.276  10.164   9.671 -0.1026 -0.2015  0.0386
    1W        W54011  17.967   7.633   3.111  0.1702  0.0419 -0.0858
    1W        W54012  22.800  11.257   0.506 -0.2310  0.4076 -0.1561
    1W        W54013  28.401  18.204   2.134  0.0379 -0.2812 -0.1633
    1W        W54014  22.732  19.934   2.893 -0.1009 -0.0029  0.2686
    1W        W54015   8.221  21.478   9.780 -0.0886 -0.0064 -0.2398
    1W        W54016  12.152  22.266   2.128 -0.0291 -0.0087  0.0170
    1W        W54017  22.550   4.915   7.591 -0.1201 -0.0636 -0.0700
    1W        W54018   0.510   3.040   1.305  0.1383 -0.1282 -0.1490
    1W        W54019  19.375  12.388   2.282 -0.2071  0.0833  0.3410
    1W        W54020   4.814  21.904   7.485 -0.0986 -0.3847  0.1975
    1W        W54021  11.000   7.755   9.186 -0.0777  0.1641 -0.0781
    1W        W54022   8.361  13.851   0.223  0.0963 -0.0509  0.0170
    1W        W54023  18.041  26.254   8.565  0.0713  0.1335  0.0097
    1W        W54024  14.007  11.499   8.653 -0.0326  0.0930  0.1340
    1W        W54025  27.764  18.439   6.903  0.0933  0.0646  0.1694
    1W        W54026   1.098   3.952   0.677 -0.1234  0.2227 -0.2160
    1W        W54027  10.848  25.528   2.575  0.0372 -0.1005 -0.1540
    1W        W54028   9.254   6.982   3.180 -0.1019  0.1360  0.0513
    1W        W54029  14.247  17.042   1.031  0.1704  0.0080 -0.1306
    1W        W54030  20.496   4.271   1.418  0.1781  0.1415  0.3236
    1W        W54031  11.298  18.598   0.035 -0.1352  0.2425 -0.2810
    1W        W54032  22.270   7.761   1.018 -0.0864  0.2694  0.0514
    1W        W54033   5.698   7.199   1.173  0.3990  0.0748  0.0218
    1W        W54034  11.386  13.207   8.122  0.1227 -0.3257  0.2686
    1W        W54035  23.660  13.270   2.262  0.2008 -0.0901  0.0360
    1W        W54036   2.257  13.771   9.752  0.1424  0.1528  0.0648
    1W        W54037  22.563  10.031   9.960 -0.1565  0.0154  0.3648
    1W        W54038   7.360   8.616   3.240  0.1835  0.2276 -0.0979
    1W        W54039  11.382  16.996   0.615  0.2426 -0.1237 -0.1549
    1W        W54040   0.092  11.091   7.883  0.0101  0.2320  0.1328
    1W        W54041   6.255   6.364   7.307 -0.2386  0.0729 -0.0004
    1W        W54042   7.212  21.947   6.588  0.1954 -0.1467  0.0716
    1W        W54043  24.028   0.897   7.626 -0.0661 -0.2643 -0.1860
    1W        W54044  11.954   7.875   3.176  0.4311  0.2809 -0.3010
    1W        W54045  10.136  13.259   9.029 -0.0963  0.0828 -0.1794
    1W        W54046  21.991  24.270   0.112  0.0910 -0.0638  0.1304
    1W        W54047  17.650  27.732   1.704 -0.1299  0.0158  0.1494
    1W        W54048  27.974  24.374   7.546 -0.0631  0.3891 -0.2227
    1W        W54049  18.703  18.097   0.104  0.1104 -0.1908 -0.3028
    1W        W54050   3.961   6.354   7.278  0.1728  0.2143  0.3519
    1W        W54051  10.109   4.055   8.656  0.4531  0.1682  0.0407
    1W        W54052  28.677  22.223   6.785 -0.3820 -0.2603  0.1331
    1W        W54053   0.447  10.934   0.123 -0.0256  0.2561 -0.0687
    1W        W54054  19.232   7.391   9.739 -0.0021 -0.2105  0.1205
    1W        W54055   8.576  14.188   7.605  0.5248  0.3259 -0.0173
    1W        W54056   1.415  22.039   8.396 -0.1292 -0.1306  0.0613
    1W        W54057   8.758  16.345   8.192  0.2222 -0.2189 -0.0468
    1W        W54058   4.096   9.888   0.150 -0.3371  0.0372  0.1893
    1W        W54059  13.304  22.535   8.373  0.2534  0.1245  0.1465
    1W        W54060  17.258  21.708   9.265  0.1535 -0.0912 -0.1174
    1W        W54061  19.231   3.945   7.821 -0.1802 -0.1740  0.2011
    1W        W54062  22.950  28.657   7.911 -0.3123 -0.2116 -0.4257
    1W        W54063  22.323  12.527   8.206  0.1713  0.1938  0.1762
    1W        W54064  13.826  18.183   8.386 -0.3386  0.0533 -0.1508
    1W        W54065  15.723   6.611   2.059  0.0703 -0.0881 -0.0657
    1W        W54066   4.913  27.673   0.826 -0.1831  0.0379  0.1003
    1W        W54067  17.521  17.060   3.112 -0.1194 -0.2820  0.1748
    1W        W54068  14.641  25.724   3.432 -0.3671 -0.0047 -0.2144
    1W        W54069  16.059  18.276   1.165 -0.5587 -0.2265 -0.4009
    1W        W54070  18.683   2.827   2.713 -0.1724  0.1770 -0.1394
    1W        W54071  23.096  14.489   1.018 -0.1169  0.1179 -0.0965
    1W        W54072  25.696   1.757   0.347 -0.2382  0.0379  0.4697
    1W        W54073  24.296  27.584   9.948 -0.0293  0.0160  0.0652
    1W        W54074   8.857  24.211   6.461 -0.0738 -0.3597 -0.2500
    1W        W54075  13.540  17.559   7.859 -0.1880  0.2952  0.4625
    1W        W54076  25.238  21.444   2.930  0.0083 -0.0670 -0.1256
    1W        W54077  19.523  20.349   9.678  0.0432 -0.0296  0.3297
    1W        W54078   5.468   6.953   0.789  0.2162  0.2959 -0.0095
    1W        W54079  15.130  25.446   9.352  0.0192 -0.1515 -0.0134
    1W        W54080   7.486  17.318   1.784 -0.0163  0.0115  0.1521
    1W        W54081   6.032  19.527   5.402 -0.1346  0.0915 -0.2737
    1W        W54082  27.124   6.428   2.333 -0.0520 -0.1542  0.1759
    1W        W54083   7.720   4.444   0.900 -0.0779 -0.2650  0.1085
    1W        W54084  26.654   4.707   0.601 -0.0288  0.1260 -0.0362
    1W        W54085  25.675  22.220   9.657 -0.1777  0.0053 -0.0353
    1W        W54086   1.745  19.063   5.799 -0.1479  0.0844  0.3836
    1W        W54087  21.633   6.543   8.275  0.2366 -0.0656  0.0614
    1W        W54088  25.109   4.121   0.525 -0.2511 -0.1162  0.2092
    1W        W54089  19.017   5.283   1.689  0.2469  0.0219  0.0019
    1W        W54090  12.650   3.586   4.537 -0.1073 -0.2331  0.2673
    1W        W54091   1.827   2.266   0.263 -0.0025 -0.0830 -0.1793
    1W        W54092  21.778   6.777   1.317 -0.3013  0.2843 -0.0344
    1W        W54093   7.557   5.619   8.673  0.2023  0.0481  0.2795
    1W        W54094   9.015  25.864   0.852  0.0002 -0.2204  0.0132
    1W        W54095  19.299   8.279   8.949  0.0702 -0.1835 -0.2278
    1W        W54096  10.528   3.587   8.432  0.1629 -0.3143 -0.0788
    1W        W54097   6.180   1.218   0.583 -0.2952  0.1582 -0.2274
    1W        W54098   7.006  13.058   0.457  0.1431 -0.0262 -0.1517
    1W        W54099  15.137   3.977   8.140  0.0854  0.0698 -0.2132
    1W        W54100   9.197  15.230   8.198 -0.4096 -0.1651  0.0212
    1W        W54101  16.321  17.421   8.318 -0.1865 -0.1631  0.2795
    1W        W54102  16.992   0.386   8.484 -0.1859  0.2963  0.1634
    1W        W54103  24.605  27.674   1.860 -0.3693 -0.1387 -0.2025
    1W        W54104  13.968   1.372   8.229  0.0086 -0.0550 -0.2106
    1W        W54105   0.868  28.396   9.116 -0.3455 -0.0213  0.0681
    1W        W54106  24.848  14.844   5.603 -0.0567 -0.1094 -0.0798
    1W        W54107  23.525  19.309   9.670 -0.0555 -0.2180  0.3403
    1W        W54108   3.275  12.719   0.476  0.1508 -0.0343  0.0073
    1W        W54109  13.486  22.224   1.322 -0.0419 -0.2810  0.1718
    1W        W54110   5.611  20.721   6.143 -0.0416 -0.0669  0.1081
    1W        W54111  14.931   0.034   2.765 -0.4388 -0.0339  0.1675
    1W        W54112   9.825  12.147   3.165  0.0744 -0.4940 -0.1700
    1W        W54113  13.434   5.300   1.340  0.0459 -0.3847  0.0018
    1W        W54114   9.036   5.814   3.163 -0.4533  0.0542 -0.0654
    1W        W54115  13.657   8.170   8.324  0.0677  0.0088 -0.2916
    1W        W54116   2.407  10.253   1.193 -0.3004  0.2421 -0.0911
    1W        W54117  17.199  25.715   2.362 -0.0255 -0.0032  0.1672
    1W        W54118   8.768  28.690   8.199  0.0482  0.1875 -0.4101
    1W        W54119  21.268   5.071   3.406 -0.0847  0.1778 -0.0314
    1W        W54120  18.136  18.008   0.591  0.2400  0.1704  0.0321
    1W        W54121   1.480   6.701   7.430 -0.2949 -0.2862  0.1341
    1W        W54122  19.592  10.465   1.321 -0.2650 -0.0005 -0.3255
    1W        W54123  13.706   2.979   8.929  0.0324 -0.1859 -0.0583
    1W        W54124  22.141  13.195   8.630 -0.0385  0.2339  0.1751
    1W        W54125  20.573  16.585   9.955 -0.2593 -0.0959  0.0222
    1W        W54126   9.079  11.377   1.796 -0.1332  0.1976  0.0389
    1W        W54127   1.710  16.677   5.906  0.1387 -0.1346 -0.3476
    1W        W54128  25.329  13.517   7.235  0.1265 -0.0256 -0.0307
    1W        W54129  24.115   2.240   7.320 -0.1942  0.2287  0.4262
    1W        W54130   2.158   7.783   2.458  0.0565  0.2018  0.0335
    1W        W54131   3.908  21.551   2.507 -0.0112 -0.0234 -0.1826
    1W        W54132  18.258  21.783   3.482 -0.0490  0.1654  0.4697
    1W        W54133  12.399   3.679   3.184  0.1755 -0.0596 -0.0261
    1W        W54134  24.609  19.720   0.522 -0.2900  0.0937  0.0637
    1W        W54135  27.245  24.286   8.550 -0.1895 -0.0609  0.1611
    1W        W54136   5.094  26.639   9.389 -0.0170 -0.0237  0.1272
    1W        W54137   2.098   3.483   9.541  0.0246  0.1224 -0.0764
    1W        W54138  21.814  23.377   9.600 -0.3108 -0.0340  0.2720
    1W        W54139   1.547  26.114   6.336 -0.0647 -0.0020  0.1600
    1W        W54140  12.008  25.026   7.848  0.2174  0.1001 -0.1009
    1W        W54141  25.654  12.906   2.283  0.1964 -0.1725 -0.0798
    1W        W54142   9.503  15.377   9.172 -0.1079 -0.0755 -0.0273
    1W        W54143  23.438   4.593   1.536 -0.0006  0.0660  0.4314
    1W        W54144  17.375  12.003   1.148 -0.3106 -0.0052  0.0427
    1W        W54145  20.573  12.473   1.574 -0.3762 -0.0861  0.1229
    1W        W54146   3.479  26.692   1.380  0.3731 -0.1613 -0.0871
    1W        W54147   0.976  24.912   8.452 -0.0497 -0.0729  0.0625
    1W        W54148  15.527  18.022   9.783  0.2685 -0.3360  0.2392
    1W        W54149   5.137  19.001   5.805  0.0990  0.1780 -0.1581
    1W        W54150  15.227   0.611   1.840 -0.1157 -0.2080 -0.1037
    1W        W54151  15.942   4.003   8.662 -0.1041 -0.4960 -0.3179
    1W        W54152   5.568  15.321   6.367 -0.0457  0.2582  0.2446
    1W        W54153   0.123  26.523   1.126  0.0942 -0.3044  0.1359
    1W        W54154  24.607   1.705   0.267 -0.0731  0.0842  0.2244
    1W        W54155  22.549  17.743   2.451 -0.0155 -0.2801  0.2226
    1W        W54156   9.867   2.177   8.367 -0.1670  0.1227 -0.0659
    1W        W54157  27.980  12.774   1.587 -0.1389 -0.2173 -0.0310
    1W        W54158  15.326  13.752   9.501  0.0729 -0.0066  0.3300
    1W        W54159  14.351  20.978   9.780  0.0316 -0.0541  0.5190
    1W        W54160  14.495   5.993   2.597 -0.0982 -0.2168  0.2684
    1W        W54161  27.272  22.044   0.798 -0.2917 -0.3004 -0.0945
    1W        W54162   9.243  14.382   8.232  0.0397 -0.0692  0.2197
    1W        W54163   7.311   2.546   1.743  0.0694 -0.0254 -0.0285
    1W        W54164   6.856   3.789   9.292  0.3646  0.0295  0.0277
    1W        W54165  18.845  24.531   8.376  0.2270  0.3110 -0.2349
    1W        W54166   9.752  10.303   1.620  0.1281  0.0247  0.3008
    1W        W54167  10.867  12.948   0.557  0.1107 -0.1375  0.0802
    1W        W54168  16.943   9.360   8.521 -0.0161 -0.0220  0.1303
    1W        W54169  18.204  15.764   9.898 -0.0706  0.0484  0.1107
    1W        W54170  16.216  15.947   8.038  0.0033 -0.0911 -0.2452
    1W        W54171   5.082   5.303   9.251 -0.1986 -0.0267 -0.0709
    1W        W54172  22.963   9.324   1.709  0.2484  0.0403  0.2941
    1W        W54173   0.346  26.656   6.567  0.0100 -0.1316 -0.1302
    1W        W54174  20.312   7.026   0.791 -0.2239 -0.1300 -0.1413
    1W        W54175   5.193   8.824   8.534 -0.2372 -0.2390 -0.0680
    1W        W54176  27.780  15.016   0.835 -0.2665 -0.2049  0.2992
    1W        W54177  15.652  25.997   3.309 -0.3133 -0.1643 -0.0069
    1W        W54178  19.141   8.616   8.010 -0.1674  0.0482 -0.2694
    1W        W54179   7.837  20.544   8.081 -0.0688 -0.0553 -0.1372
    1W        W54180   4.711   4.304   2.697 -0.1052 -0.0841 -0.1324
    1W        W54181   5.352  10.336   7.742 -0.1755 -0.0999  0.1279
    1W        W54182  21.628  23.566   1.737  0.1938 -0.2987  0.1107
    1W        W54183   9.137  14.683   9.595  0.1384  0.0001  0.4154
    1W        W54184  11.366   9.008   7.965 -0.2486 -0.0448 -0.1777
    1W        W54185   4.847   7.638   7.948 -0.0119 -0.2180 -0.1901
    1W        W54186  18.486  24.286   7.607  0.0493 -0.1012  0.1265
    1W        W54187  23.705  15.406   6.554 -0.0382 -0.4272  0.2792
    1W        W54188  23.096   7.027   1.776  0.0877  0.2099 -0.1568
    1W        W54189  27.760   7.039   2.817 -0.0786  0.1605  0.0697
    1W        W54190  23.535  11.042   9.869 -0.3419 -0.0888  0.0183
    1W        W54191  25.505  27.105   7.497 -0.0842  0.1045  0.0912
    1W        W54192   7.486  27.661   1.561  0.3884 -0.2181 -0.2638
    1W        W54193  10.985  16.715   7.454 -0.0624 -0.1016  0.0810
    1W        W54194   1.576   2.649   6.425 -0.0247 -0.0216  0.1335
    1W        W54195   0.915  11.770   9.728  0.3852 -0.0004 -0.3411
    1W        W54196   8.765  12.053   1.465  0.0730  0.1723  0.0952
    1W        W54197   1.752  13.488   5.958 -0.0524 -0.2263 -0.3080
    1W        W54198  23.426  15.205   9.960 -0.1061  0.1132 -0.0272
    1W        W54199  13.854   8.516   0.917  0.1320 -0.0654 -0.1368
    1W        W54200  20.374  24.118   7.890 -0.2990 -0.0308  0.0360
    1W        W54201   2.263  21.710   5.528 -0.1365  0.1681  0.4472
    1W        W54202  14.579  27.645   0.427  0.1806 -0.1308  0.0039
    1W        W54203  23.702   3.278   1.253 -0.2275  0.1364  0.5355
    1W        W54204  28.062  16.395   0.191  0.1198 -0.2086  0.1768
    1W        W54205  23.557  13.391   1.194  0.1942 -0.0822 -0.1711
    1W        W54206  15.856   2.685   9.912  0.0960 -0.0418  0.1854
    1W        W54207  21.382  11.406   0.648 -0.2384 -0.0699 -0.0456
    1W        W54208  18.317  27.479   6.719 -0.0154  0.0694  0.0404
    1W        W54209  17.532  22.536   3.449  0.0661  0.0370 -0.0917
    1W        W54210   8.913  18.707   7.865 -0.0346 -0.1684  0.0897
    1W        W54211  23.196  18.544   0.346 -0.1293 -0.2997  0.3212
    1W        W54212   1.206  26.500   1.117  0.2040 -0.0007  0.2628
    1W        W54213  27.546   2.109   8.498 -0.1678 -0.1585  0.0992
    1W        W54214  24.139  15.409   6.097  0.0489 -0.0790  0.1614
    1W        W54215   1.552  10.183   0.479  0.1320  0.0905  0.0614
    1W        W54216  22.419   3.774   8.581 -0.3057  0.2107 -0.1454
    1W        W54217  24.067   3.897   0.077  0.0408  0.0439  0.0551
    1W        W54218   2.777  14.340   6.683  0.0414 -0.2786  0.0389
    1W        W54219   1.230  25.069   1.561  0.0803  0.1905 -0.0289
    1W        W54220  20.978  28.601   1.308  0.1834  0.0634 -0.1390
    1W        W54221   3.384  27.331   7.062 -0.3308  0.2494  0.0961
    1W        W54222  24.635  18.038   1.319 -0.1885 -0.0162  0.1373
    1W        W54223  15.884   3.681   9.418  0.2046  0.0979  0.0145
    1W        W54224  21.515   7.909   9.432 -0.1416 -0.0763  0.0896
    1W        W54225   6.149  14.222   0.788 -0.0685  0.3998 -0.2954
    1W        W54226  11.995  12.601   9.265 -0.0786  0.1633 -0.1316
    1W        W54227   2.793   4.021   7.116  0.0708 -0.0905 -0.1116
    1W        W54228   9.792  13.445   9.384 -0.1314 -0.1836  0.2546
    1W        W54229  24.366   7.468   7.068 -0.1301  0.1694  0.0910
    1W        W54230  14.384   8.799   8.451 -0.2327 -0.1505 -0.0795
    1W        W54231   5.178  11.393   7.815 -0.1613  0.0296  0.0749
    1W        W54232  12.822  19.663   7.867  0.3300 -0.0050 -0.0673
    1W        W54233  27.035   7.580   0.357  0.0707 -0.0449 -0.0407
    1W        W54234   9.611  23.732   9.457  0.1142  0.3093  0.1212
    1W        W54235   1.275   1.927   7.350 -0.3318  0.2700  0.1395
    1W        W54236   7.886   1.323   9.820 -0.0356 -0.0159 -0.0882
    1W        W54237  13.536  25.600   0.466 -0.1899 -0.0103 -0.1505
    1W        W54238  25.650  21.948   1.805  0.3685 -0.0850  0.0673
    1W        W54239   0.167   7.881   2.346 -0.1745 -0.1913 -0.0313
    1W        W54240   2.106   1.801   7.678 -0.1241  0.2307 -0.0488
    1W        W54241  10.835  26.514   3.030 -0.1033 -0.2125  0.2664
    1W        W54242  19.666  20.570   1.565 -0.0360 -0.2233  0.1596
    1W        W54243  10.203   3.907   8.129 -0.0943 -0.1311 -0.1753
    1W        W54244   8.303   3.071   9.732 -0.0666  0.2474 -0.1496
    1W        W54245   0.663   4.897   9.285 -0.1245  0.0011  0.1909
    1W        W54246  23.309  23.257   9.010 -0.1247 -0.1428  0.1904
    1W        W54247  20.254  22.285   0.210  0.0341 -0.1866  0.0412
    1W        W54248   2.224   7.839   8.728 -0.2212  0.2675  0.1214
    1W        W54249  12.544   5.284   2.988  0.1633  0.1447 -0.0416
    1W        W54250  18.165   8.544   8.736  0.0496 -0.0424  0.0080
    1W        W54251   5.480  19.856   7.395 -0.2715  0.1016 -0.0748
    1W        W54252   8.959  17.146   7.528  0.4721 -0.1836  0.2536
    1W        W54253   0.690  15.635   1.012  0.1858  0.2098  0.0252
    1W        W54254  20.190   9.741   8.145 -0.0116  0.0776  0.3488
    1W        W54255   1.682   7.111   7.537  0.3564 -0.1527  0.2569
    1W        W54256  20.503  22.621   9.920 -0.1556  0.0862  0.0110
    1W        W54257   3.083  21.047   7.572  0.2706  0.1016  0.0728
    1W        W54258  21.586  24.595   1.694  0.0801  0.0530 -0.1088
    1W        W54259  11.712  21.137   1.569 -0.0748 -0.0600 -0.1774
    1W        W54260   7.681   7.646   8.939 -0.0035 -0.2557  0.0587
    1W        W54261  11.690  26.059   1.781 -0.0827  0.0322  0.0139
    1W        W54262   3.436  19.895   7.909  0.0551 -0.1369 -0.1998
    1W        W54263  23.119  27.136   9.175  0.0473 -0.1938  0.3532
    1W        W54264  18.399  12.301   8.720  0.0707 -0.2302 -0.0205
    1W        W54265  19.849  16.425   7.176  0.2175 -0.1122  0.2303
    1W        W54266  28.408  15.724   7.302  0.0101  0.2482 -0.3049
    1W        W54267  13.216   6.866   2.241 -0.1684  0.0090 -0.4074
    1W        W54268  10.667  12.977   9.686 -0.3233 -0.0551 -0.1931
    1W        W54269   7.374  22.816   8.737  0.4308  0.3032 -0.2453
    1W        W54270  22.115  12.606   0.652  0.2481  0.1820  0.1548
    1W        W54271  22.120  13.052   1.307  0.0089 -0.0394  0.0342
    1W        W54272   7.290  13.605   9.636  0.0558 -0.0401  0.2798
    1W        W54273   3.213   2.846   7.146 -0.0439 -0.0264  0.1782
    1W        W54274   4.948   5.717   6.611 -0.2646  0.3243 -0.2401
    1W        W54275   7.386   4.222   1.995 -0.0746 -0.1090 -0.1176
    1W        W54276   7.068   7.145   2.135 -0.1583 -0.1225  0.4671
    1W        W54277   2.885  24.970   6.939 -0.0891  0.0586  0.2165
    1W        W54278  25.064   2.578   7.560 -0.3079  0.0637  0.1495
    1W        W54279  27.013   3.139   1.444  0.2089 -0.2297  0.0462
    1W        W54280  23.327  10.558   9.740  0.1158  0.0214  0.1803
    1W        W54281  16.971   0.950   2.767 -0.2947  0.2166  0.2713
    1W        W54282  10.724   3.101   8.477 -0.0904 -0.0040 -0.2834
    1W        W54283  27.223  25.310   1.897  0.2775  0.0046 -0.1077
    1W        W54284   3.596   8.224   1.737 -0.2100  0.2054  0.2131
    1W        W54285  15.916  16.808   7.786 -0.1514  0.1958  0.0580
    1W        W54286   0.962   4.002   2.501  0.0425 -0.0432 -0.1513
    1W        W54287  21.731   5.893   7.474  0.2899  0.0763 -0.0541
    1W        W54288  22.804   9.862   1.696  0.0261 -0.0537  0.2451
    1W        W54289  15.534   4.297   8.518  0.2300  0.1669 -0.2845
    1W        W54290  26.414  24.684   0.280 -0.1394  0.1558 -0.0939
    1W        W54291  16.882   4.234   2.299 -0.1913 -0.1514 -0.0344
    1W        W54292  25.289  24.618   1.980  0.0662  0.0695  0.0870
    1W        W54293   6.434  15.758   1.960 -0.0596 -0.1259 -0.0472
    1W        W54294   0.529  28.106   1.109  0.1911 -0.2476  0.2127
    1W        W54295  16.615  28.030   8.398  0.0516 -0.0614 -0.0343
    1W        W54296  24.643  20.914   8.747  0.0957  0.1860  0.0898
    1W        W54297  15.518  22.830   9.763  0.0471 -0.1708 -0.0005
    1W        W54298   5.980   5.819   7.988  0.3933 -0.1964  0.2345
    1W        W54299  26.095  11.794   9.715 -0.1338 -0.0590  0.0358
    1W        W54300   4.231   9.535   1.052  0.0447  0.0504  0.0469
    1W        W54301   5.815   0.609   9.615  0.2316 -0.5105  0.0131
    1W        W54302   1.256   6.491   8.653 -0.0981  0.1555 -0.0395
    1W        W54303  26.880  22.199   7.164 -0.3563 -0.1224 -0.2715
    1W        W54304   2.253  11.007   9.791  0.1818 -0.1258 -0.0698
    1W        W54305   0.459   9.640   0.171 -0.0875  0.1964  0.0570
    1W        W54306  11.343  19.635   0.073  0.1061  0.1034 -0.1511
    1W        W54307  25.738  10.295   2.018 -0.1716 -0.0831 -0.1797
    1W        W54308   2.186  17.385   8.258 -0.1223  0.0863  0.1294
    1W        W54309  22.981   1.461   6.764 -0.1876 -0.1327  0.0536
    1W        W54310   5.723  11.120   9.455 -0.2240  0.1917  0.5484
    1W        W54311  19.646  21.487   8.216  0.0135  0.1402  0.2109
    1W        W54312  22.741   7.030   2.752 -0.1570 -0.2333  0.0150
    1W        W54313  27.659  14.522   9.314  0.1453  0.2001 -0.0731
    1W        W54314   9.417  25.556   0.704  0.3163 -0.0433  0.3410
    1W        W54315  22.490  24.963   0.023  0.0365 -0.3226 -0.1742
    1W        W54316  12.624  10.702   0.861  0.0253  0.2570  0.2126
    1W        W54317  14.917  20.839   9.317  0.1414  0.1516  0.0463
    1W        W54318  25.783  14.824   8.689 -0.1389 -0.3737  0.2388
    1W        W54319  28.022  26.044   6.595  0.0560  0.2558  0.3053
    1W        W54320  20.507   8.633   7.914 -0.3223 -0.1114 -0.0490
    1W        W54321  26.568  12.176   1.541 -0.0885  0.0074  0.0742
    1W        W54322  10.171  22.477   8.926 -0.0483  0.0385  0.1896
    1W        W54323  17.091  20.716   0.019 -0.1740 -0.1919  0.2083
    1W        W54324   7.541  17.734   1.584  0.0205  0.2486  0.3279
    1W        W54325   2.319   7.266   0.530  0.2823 -0.1144 -0.4363
    1W        W54326  17.375  13.557   7.695  0.1664  0.0010  0.0922
    1W        W54327  21.559   3.507   1.380 -0.1780  0.0310  0.0948
    1W        W54328  14.943   9.951   9.722 -0.1736  0.0509  0.4783
    1W        W54329   9.564  20.326   1.980 -0.0149 -0.0689 -0.0573
    1W        W54330  20.267   1.697   6.743 -0.0048 -0.0127 -0.0172
    1W        W54331  27.585  12.736   9.541 -0.1359 -0.1586  0.1322
    1W        W54332  11.736   5.719   4.380 -0.0856  0.0781  0.0101
    1W        W54333  23.385  20.917   1.634  0.0938  0.1354  0.3685
    1W        W54334  14.944  26.816   1.679  0.0702 -0.1340 -0.2135
    1W        W54335   4.363  17.310   9.019  0.2043  0.1878  0.0026
    1W        W54336  21.969  14.237   6.503  0.2469  0.1677  0.1011
    1W        W54337  18.642   9.219   9.058  0.1931  0.0981 -0.1110
    1W        W54338   8.693  27.010   2.346  0.3663  0.3125 -0.0157
    1W        W54339  27.614  16.272   0.275  0.0754 -0.1087  0.2019
    1W        W54340  27.525  21.539   9.499  0.1686  0.0150  0.2449
    1W        W54341   5.806  25.406   0.533 -0.1789 -0.2607 -0.0294
    1W        W54342  28.058   7.514   7.996 -0.0388  0.0968 -0.0541
    1W        W54343   9.711   5.768   8.955  0.2877 -0.2472  0.0684
    1W        W54344   6.121   7.869   6.334 -0.1311 -0.1237 -0.3927
    1W        W54345  23.346  27.321   0.437  0.2406 -0.4675 -0.1247
    1W        W54346   2.844  14.626   9.348 -0.3903 -0.2299 -0.0348
    1W        W54347  12.508  27.370   8.794 -0.3598 -0.0528 -0.1477
    1W        W54348   8.429  23.538   6.147 -0.1807 -0.3317  0.0175
    1W        W54349  26.320  22.293   2.161  0.3069 -0.0952 -0.2928
    1W        W54350  23.509   2.904   1.497  0.0291 -0.0388 -0.1769
    1W        W54351  17.664  26.399   7.796  0.2489 -0.0947 -0.2580
    1W        W54352  21.121  24.416   2.623 -0.0981 -0.1469  0.1409
    1W        W54353  15.279   4.865   2.306  0.1454 -0.0087  0.0473
    1W        W54354   2.257  15.197   2.309 -0.1049  0.0949 -0.1977
    1W        W54355  12.968   0.338   4.187 -0.3394  0.0784  0.2323
    1W        W54356  24.515  22.597   9.276  0.0979 -0.1331 -0.1500
    1W        W54357  19.081  11.821   9.074 -0.2474 -0.1689 -0.0568
    1W        W54358  24.951  24.521   7.687  0.2003  0.0225  0.0266
    1W        W54359  28.040   1.777   9.620  0.2166 -0.1742 -0.0119
    1W        W54360  27.540  15.648   6.414  0.1351  0.3222  0.1662
    1W        W54361   5.426   1.724   2.004 -0.0424  0.0473  0.1206
    1W        W54362   7.212   5.216   2.150 -0.0459  0.1090 -0.2255
    1W        W54363  15.935   8.745   9.709  0.0686  0.1573 -0.0223
    1W        W54364  24.031   7.252   1.671 -0.0086  0.0471 -0.0010
    1W        W54365   2.041  14.417   8.080  0.0214 -0.1963 -0.1011
    1W        W54366  15.164  27.627   2.838 -0.3272 -0.1091  0.0102
    1W        W54367   0.404   7.173   7.129  0.0147  0.2015 -0.0280
    1W        W54368  19.918  19.202   1.448  0.2118  0.1949 -0.0814
    1W        W54369  25.184  19.421   0.339 -0.0988 -0.0094  0.0606
    1W        W54370   2.358  26.895   7.139 -0.0141  0.0451 -0.2040
    1W        W54371   4.097  15.163   7.756 -0.2082  0.0323  0.2283
    1W        W54372  19.457  21.242   1.831 -0.0608  0.1069 -0.1060
    1W        W54373  24.137  20.201   2.149 -0.1674 -0.2466  0.0943
    1W        W54374   5.334  16.454   7.872  0.0393 -0.0750  0.4902
    1W        W54375  28.211  14.790   6.348  0.1217 -0.2430  0.3580
    1W        W54376  17.887  22.705   2.868  0.0186  0.1442  0.1685
    1W        W54377  27.429   8.683   5.704  0.1534  0.2912 -0.0325
    1W        W54378  15.427  10.260   0.919 -0.1223  0.1731  0.1604
    1W        W54379  19.670   4.463   8.744  0.0435  0.3102 -0.0677
    1W        W54380   8.834  10.782   8.491  0.2625 -0.0235  0.0115
    1W        W54381  24.943  21.817   7.116 -0.2302  0.0994  0.1937
    1W        W54382  24.665   2.320   7.253  0.2539  0.0065 -0.1064
    1W        W54383  12.128   9.441   9.509  0.2148 -0.0973 -0.2289
    1W        W54384   4.465   4.229   9.838 -0.2688  0.1407 -0.1284
    1W        W54385  15.613  26.371   0.593 -0.0546  0.0197  0.1132
    1W        W54386  24.716  15.861   0.257 -0.1299  0.1826  0.0866
    1W        W54387  16.697   7.802   0.391  0.1627  0.0943  0.0362
    1W        W54388  22.219   7.377   7.435  0.0858 -0.2403  0.2188
    1W        W54389  15.509   8.050   8.856 -0.1530 -0.0304 -0.1086
    1W        W54390   0.079  17.335   9.790  0.1497  0.0994  0.2294
    1W        W54391  25.415   8.652   8.227  0.1606 -0.4958  0.1240
    1W        W54392  23.854  19.843   1.552  0.0175 -0.2719  0.1381
    1W        W54393  12.241  10.537   9.662 -0.0808  0.1536 -0.3862
    1W        W54394   8.894  19.819   0.150 -0.0874 -0.1278  0.0229
    1W        W54395   3.694  14.783   8.729 -0.0369  0.1223 -0.1223
    1W        W54396   1.191  13.151   1.134 -0.0245  0.2272  0.0797
    1W        W54397   0.128  12.363   6.013 -0.1192 -0.1800 -0.0945
    1W        W54398   2.441   8.043   9.115 -0.1483 -0.4686  0.1139
    1W        W54399   8.340   6.687   8.885 -0.1655 -0.1956  0.0059
    1W        W54400  11.094  18.340   0.997 -0.0229 -0.0796 -0.0692
    1W        W54401   2.020  24.469   1.820  0.2463  0.1250 -0.0843
    1W        W54402   0.702  27.511   2.074  0.0821 -0.0438  0.2820
    1W        W54403  13.407  28.037   6.893 -0.1490 -0.0653 -0.4535
    1W        W54404  19.376   4.115   8.511 -0.2534 -0.1505  0.0839
    1W        W54405   6.846  10.527   0.867  0.1099  0.0989 -0.2647
    1W        W54406  22.099  23.755   0.316 -0.0087  0.1370 -0.4471
    1W        W54407  12.654  10.480   3.068 -0.0595 -0.2155 -0.0638
    1W        W54408   0.730   4.805   5.709  0.3097 -0.1213 -0.1605
    1W        W54409  10.889  23.355   0.179 -0.1644  0.0830  0.1602
    1W        W54410  13.249  18.836   8.378 -0.1982  0.2563 -0.0505
    1W        W54411  16.187  19.531   1.455 -0.2536 -0.1069 -0.0521
    1W        W54412   8.817   6.918   2.029 -0.4318  0.1288 -0.3853
    1W        W54413  23.502  14.775   1.557 -0.1508 -0.2098  0.0507
    1W        W54414  16.413   4.910   8.087  0.1961  0.1150 -0.1269
    1W        W54415  11.213   2.963   8.553  0.2983 -0.2852  0.1901
    1W        W54416   6.792   9.104   9.902 -0.1227  0.2218  0.0530
    1W        W54417  27.440  26.476   7.990 -0.1397  0.2334 -0.0941
    1W        W54418  24.305  19.283   0.594 -0.0947 -0.1304 -0.1698
    1W        W54419   0.940  13.416   2.190 -0.3913  0.0009  0.0304
    1W        W54420   9.227   8.318   8.311  0.0429 -0.0468  0.2359
    1W        W54421   2.044   0.146   9.857 -0.1759  0.2273 -0.0874
    1W        W54422  15.446   9.905   0.465  0.0821  0.0303 -0.0863
    1W        W54423   1.227   5.800   9.290 -0.2292 -0.0219 -0.2223
    1W        W54424  10.227  27.812   0.115  0.1786  0.0927 -0.4361
    1W        W54425   5.441   7.605   9.818  0.1837 -0.0266 -0.1273
    1W        W54426  27.051   5.567   7.249  0.0758 -0.0001 -0.1596
    1W        W54427  23.202   7.352   5.661 -0.1751  0.1483  0.0282
    1W        W54428   2.453  21.849   5.962  0.0084  0.1933 -0.0607
    1W        W54429   9.480   9.700   9.353 -0.0772 -0.3034 -0.2841
    1W        W54430   7.818   1.671   7.974  0.1706 -0.0386  0.1168
    1W        W54431  12.550  16.731   0.984  0.4021  0.0640 -0.0277
    1W        W54432  15.187  10.963   2.769  0.5014 -0.1717  0.1555
    1W        W54433  14.541  22.566   0.528  0.3617  0.1999 -0.1604
    1W        W54434  25.203   8.877   7.484 -0.0074  0.1516 -0.1333
    1W        W54435  15.892  10.150   1.233  0.0850 -0.1765 -0.0254
    1W        W54436  27.850  22.874   7.487  0.1716  0.1946 -0.3210
    1W        W54437  23.669   2.389   0.325  0.1538  0.2267 -0.2492
    1W        W54438   0.335   7.837   7.908  0.1374  0.0825 -0.1437
    1W        W54439  20.323  26.272   2.314 -0.2629  0.1574 -0.1465
    1W        W54440   8.002   7.455   1.222  0.1141 -0.1732 -0.2086
    1W        W54441  11.544  23.822   7.704 -0.0740  0.0145 -0.2614
    1W        W54442  28.366  27.111   2.371 -0.0278  0.1992  0.0792
    1W        W54443  26.728  26.229   0.434 -0.0683 -0.0804  0.2157
    1W        W54444  18.009  18.347   9.583  0.3299  0.0541  0.0597
    1W        W54445   0.737  27.889   0.200 -0.1387 -0.0558 -0.1325
    1W        W54446  14.114  27.846   8.341 -0.1709 -0.0451  0.4178
    1W        W54447   0.566  23.077   0.867 -0.2353 -0.2839  0.0123
    1W        W54448  13.606   9.723   8.943  0.1143 -0.1848  0.4397
    1W        W54449   0.931  10.829   1.151 -0.0927 -0.0816 -0.0097
    1W        W54450   3.403   7.151   1.842 -0.3285 -0.0556 -0.0850
    1W        W54451  14.447  16.615   9.851  0.0649 -0.1050 -0.3184
    1W        W54452  19.449   0.975   9.595 -0.2126 -0.0310 -0.3337
    1W        W54453  21.951  11.382   9.266  0.0237 -0.2508  0.0642
    1W        W54454  27.823  22.949   1.927  0.0761 -0.1121  0.0501
    1W        W54455   8.386  22.724   6.529 -0.0442 -0.1167 -0.1728
    1W        W54456  15.383  23.217   8.059  0.0907  0.0347  0.1006
    1W        W54457  24.892   0.209   8.502 -0.0822  0.2480 -0.2697
    1W        W54458  28.405  28.410   7.821 -0.1814 -0.1538 -0.1936
    1W        W54459  24.776  18.268   9.917  0.1563 -0.3696 -0.0298
    1W        W54460  11.036   9.284   7.592  0.0559 -0.0428  0.0698
    1W        W54461   3.510  17.652   6.290 -0.0819 -0.3434 -0.2548
    1W        W54462   2.712  22.962   1.472 -0.0724 -0.2101 -0.1996
    1W        W54463   2.994   3.237   0.139  0.1392 -0.0808  0.2858
    1W        W54464  19.999  12.773   8.330  0.0093  0.3242 -0.0115
    1W        W54465  23.641   5.464   2.026  0.2193 -0.1125  0.1650
    1W        W54466   7.273  24.123   0.802 -0.1659 -0.3853  0.1869
    1W        W54467   3.663  22.844   9.385 -0.0841 -0.2756 -0.0666
    1W        W54468   7.397  20.100   2.624  0.0209  0.0604  0.3460
    1W        W54469   8.448  11.790   2.229 -0.0667  0.2847 -0.1147
    1W        W54470  12.877   0.774   2.830  0.1279 -0.0702  0.0721
    1W        W54471   5.616  27.213   1.784 -0.0139 -0.0584 -0.4281
    1W        W54472  16.003  17.162   9.046  0.1210 -0.1534  0.0920
    1W        W54473  22.142  24.120   7.304 -0.1098  0.2369 -0.0543
    1W        W54474  21.002  28.684   0.795 -0.0329 -0.3344 -0.1609
    1W        W54475   5.684  16.999   0.848  0.4978 -0.2793  0.0063
    1W        W54476  26.192  18.578   6.125  0.0038  0.2145  0.1270
    1W        W54477  11.879  10.180   9.822  0.0981 -0.1450  0.2937
    1W        W54478  20.925  22.662   2.034 -0.3289  0.1196 -0.0608
    1W        W54479  24.034  28.093   2.395 -0.0133 -0.0401 -0.0930
    1W        W54480   4.149   5.689   8.392  0.3051  0.1677  0.0423
    1W        W54481   6.376   2.331   6.685  0.0546 -0.0857  0.2364
    1W        W54482  20.749   7.913   7.002 -0.0667 -0.1964  0.1236
    1W        W54483  25.386  11.266   0.107 -0.1151 -0.0658  0.0170
    1W        W54484   6.835  21.421   6.274 -0.1732  0.0917 -0.0815
    1W        W54485  11.358  25.636   8.907 -0.3311 -0.3523 -0.3247
    1W        W54486   7.597  13.257   8.554 -0.0900 -0.2127  0.1162
    1W        W54487  20.808  12.107   8.980 -0.2809 -0.3191 -0.0044
    1W        W54488  21.239  12.788   6.558 -0.2715  0.0185 -0.1950
    1W        W54489  15.481  26.538   9.112 -0.1368  0.2893 -0.0064
    1W        W54490  10.687  25.289   8.141 -0.0713 -0.1662  0.0368
    1W        W54491   6.308  20.693   0.293  0.2045  0.2373 -0.0265
    1W        W54492   7.256  10.386   8.125 -0.1173  0.1089 -0.1684
    1W        W54493  16.810  18.323   0.250 -0.0488 -0.0361  0.2006
    1W        W54494   0.905   7.324   1.148  0.1028 -0.1280 -0.0650
    1W        W54495   5.427  22.843   8.345 -0.2170 -0.1251  0.3728
    1W        W54496   3.289  25.812   7.000 -0.3999 -0.2106 -0.0877
    1W        W54497  24.606   5.554   9.346 -0.1032  0.1499  0.1245
    1W        W54498   7.273  19.509   8.608  0.1926  0.0289  0.0385
    1W        W54499   2.791  21.561   5.714 -0.1652 -0.1218 -0.1225
    1W        W54500  25.767   6.554   2.076  0.1012 -0.2354  0.1112
    1W        W54501  23.615   5.837   9.785  0.1700 -0.0202 -0.1567
    1W        W54502  11.654   6.657   1.334 -0.2981 -0.2475  0.1374
    1W        W54503   4.725  28.233   7.991 -0.0266  0.0049  0.1428
    1W        W54504  28.408   4.854   6.805  0.1817 -0.2121 -0.0743
    1W        W54505   6.556  11.299   7.641 -0.0790  0.0276 -0.0127
    1W        W54506   1.133   9.935   0.785  0.2298  0.2108  0.0439
    1W        W54507  25.089  22.654   1.534 -0.1175  0.3160 -0.2303
    1W        W54508   7.828  11.120   9.433  0.1493  0.0205  0.1331
    1W        W54509  15.872   4.948   3.957  0.1112  0.0953 -0.1169
    1W        W54510  21.180  25.578   1.715  0.0740 -0.4170 -0.0840
    1W        W54511   5.002  28.586   1.524  0.1890 -0.0286  0.1103
    1W        W54512  15.616  24.242   7.548 -0.1999  0.0611  0.1836
    1W        W54513  24.592  15.391   6.307 -0.0275 -0.0291 -0.2606
    1W        W54514   5.750   5.023   2.045  0.1290 -0.2081 -0.2307
    1W        W54515   9.160   2.686   8.526 -0.0082 -0.2847 -0.0106
    1W        W54516   1.099  10.906   7.497  0.2522 -0.1971  0.1609
    1W        W54517   0.795  19.967   0.406  0.1572  0.1527  0.5258
    1W        W54518  14.556  16.103   9.951 -0.2498  0.0268  0.0379
    1W        W54519   7.524  10.253   0.838  0.0544 -0.0324 -0.1321
    1W        W54520   8.860   2.573   9.874 -0.1788  0.0180 -0.2202
    1W        W54521  19.818  19.447   9.814  0.1561 -0.1270 -0.2419
    1W        W54522   0.471  27.461   7.662  0.0146  0.0810 -0.1204
    1W        W54523  17.524  27.690   9.457  0.0625  0.1849  0.1482
    1W        W54524  12.677  15.514   2.596 -0.1794 -0.1957  0.1114
    1W        W54525  20.069   3.918   2.703 -0.2581 -0.2903  0.0426
    1W        W54526   7.660  27.030   9.685  0.1869 -0.0844  0.2346
    1W        W54527  18.865  16.107   2.359  0.2633 -0.0335  0.2685
    1W        W54528  18.564  19.198   8.436 -0.1780 -0.1977 -0.0038
    1W        W54529   5.772   6.373   7.517  0.1928 -0.1580 -0.0042
    1W        W54530   0.272  21.758   9.746 -0.0331 -0.3406 -0.2391
    1W        W54531   8.721  27.166   3.592 -0.3134  0.1062  0.1132
    1W        W54532  24.519   6.653   8.704  0.3573  0.2524  0.1256
    1W        W54533  16.716  17.218   2.680  0.1731  0.0958  0.0135
    1W        W54534   9.436  19.069   0.488 -0.0830 -0.1376 -0.1461
    1W        W54535  14.936  15.960   9.643  0.0547 -0.2563  0.0566
    1W        W54536  21.942  27.131   6.424  0.0186  0.0716 -0.1677
    1W        W54537   9.887  22.802   0.886  0.0315  0.1363  0.0857
    1W        W54538  28.413  12.921   7.543 -0.0054 -0.0125  0.3704
    1W        W54539  16.713   7.321   9.422  0.2839  0.1312  0.3542
    1W        W54540  24.190   1.247   8.931 -0.0374  0.0176 -0.0801
    1W        W54541   5.743  26.320   8.395 -0.0159  0.3932 -0.0729
    1W        W54542  17.420   1.808   8.499 -0.1307  0.0470  0.1691
    1W        W54543  23.193  22.820   9.718 -0.0554 -0.2708 -0.0495
    1W        W54544   4.379   3.721   9.667 -0.0516 -0.1823 -0.1780
    1W        W54545  27.353   2.514   9.545 -0.3182 -0.3346  0.0679
    1W        W54546  12.012   7.633   7.074  0.3553 -0.1505 -0.1399
    1W        W54547   2.800   7.901   1.230  0.1776  0.0170  0.1156
    1W        W54548  16.952   0.578   1.806 -0.2926 -0.2625 -0.0264
    1W        W54549  12.210   0.623   2.212 -0.3295  0.1206  0.0404
    1W        W54550  20.575  17.263   9.289  0.0200 -0.1921 -0.0078
    1W        W54551  25.212  18.062   0.178  0.2774 -0.0617  0.0250
    1W        W54552   1.904   8.749   7.922  0.1329  0.0009 -0.1324
    1W        W54553  11.628  18.355   9.373  0.5115  0.0309 -0.1247
    1W        W54554  23.380  21.826   9.325  0.1480  0.0522  0.0461
    1W        W54555  24.778   8.851   9.357  0.0588  0.0643 -0.0264
    1W        W54556  21.247  27.421   9.712  0.0669  0.1969  0.2523
    1W        W54557   2.571   6.001   0.961 -0.2622 -0.0178 -0.2451
    1W        W54558  16.338   5.094   3.734  0.0338 -0.1551 -0.3276
    1W        W54559  13.310  22.094   8.708  0.0041 -0.1703 -0.1134
    1W        W54560  21.948  15.157   0.100 -0.0600  0.1438  0.0308
    1W        W54561   5.336  21.523   9.388  0.0721  0.1048 -0.3922
    1W        W54562   0.176  22.937   1.177 -0.3333 -0.1444 -0.1655
    1W        W54563   7.645   6.148   1.918  0.0886  0.0426 -0.0089
    1W        W54564   8.798  18.761   8.646  0.1026 -0.2726  0.2762
    1W        W54565  17.944  15.062   8.858 -0.0940 -0.1224 -0.1851
    1W        W54566   6.991   0.755   0.395 -0.1569  0.5785 -0.0339
    1W        W54567   3.773   3.484   1.574  0.0263  0.0269 -0.2164
    1W        W54568   4.366  19.534   7.840 -0.2365  0.3056 -0.0343
    1W        W54569  19.269   9.058   2.437  0.0900  0.2046 -0.2683
    1W        W54570  24.353  14.743   7.000 -0.3458  0.0939 -0.0577
    1W        W54571   9.497  24.363   7.807  0.1071 -0.0470 -0.2720
    1W        W54572  23.686   4.808   0.616 -0.0083  0.0316 -0.1158
    1W        W54573  11.070   8.221   8.881 -0.0236  0.0420  0.1468
    1W        W54574  25.111  24.053   7.517 -0.1196 -0.0540  0.0197
    1W        W54575  14.954  27.777   1.837  0.1867 -0.0187 -0.2059
    1W        W54576  24.855  13.626   8.580 -0.1190  0.0212 -0.0213
    1W        W54577   5.507  28.657   0.838  0.1766  0.0039 -0.0987
    1W        W54578   7.273   8.275   3.662  0.2656 -0.2706  0.1557
    1W        W54579   4.413   8.033   8.628  0.0555 -0.3718 -0.0531
    1W        W54580  21.355  22.297   2.041 -0.1983 -0.2417  0.0451
    1W        W54581  18.079  13.706   6.730  0.0876  0.0027  0.1723
    1W        W54582  23.474   5.811   3.184 -0.0305 -0.1580 -0.1966
    1W        W54583  11.440   3.870   8.311  0.0327  0.1447 -0.1394
    1W        W54584  12.035  24.939   8.511 -0.1213  0.0958  0.0205
    1W        W54585   8.006  19.068   9.357  0.1665  0.4103  0.2938
    1W        W54586   4.151   4.199   0.307  0.0836 -0.3741  0.2679
    1W        W54587  25.374   8.912   6.918 -0.1281  0.3805 -0.1889
    1W        W54588  20.266   6.453   9.401  0.3193  0.0910  0.2734
    1W        W54589  17.984  23.509   0.485  0.1713 -0.0945 -0.1448
    1W        W54590   0.059  18.596   6.816 -0.0825  0.0118 -0.1420
    1W        W54591   0.055  17.912   2.213 -0.0229  0.3212 -0.1211
    1W        W54592   9.167   5.989   0.423 -0.0613 -0.4669  0.1175
    1W        W54593  25.351   9.629   0.599  0.2733 -0.0499  0.3910
    1W        W54594  10.034  19.211   0.748  0.2615 -0.0044 -0.2015
    1W        W54595  28.318  20.572   8.567 -0.0387  0.0844  0.2939
    1W        W54596   9.872  23.739   2.030  0.0528 -0.1941  0.0998
    1W        W54597  19.768   1.578   0.720 -0.1038 -0.0419 -0.0958
    1W        W54598   7.724   5.788   9.438 -0.0952 -0.0227  0.0239
    1W        W54599   5.054   5.956   9.113  0.0566  0.1753 -0.0103
    1W        W54600  11.311  22.788   8.871  0.0544  0.0241  0.2674
    1W        W54601  14.901   1.409   7.938 -0.1422  0.1786 -0.2276
    1W        W54602  25.252   6.551   0.446  0.2008  0.2015 -0.0952
    1W        W54603  20.550  12.814   1.190 -0.2835  0.0850  0.1363
    1W        W54604   0.736  10.149   0.378 -0.1328 -0.1173 -0.0410
    1W        W54605  11.274  24.077   9.770  0.1628  0.3114 -0.0267
    1W        W54606  28.365   8.361   7.883 -0.1280 -0.0664  0.1482
    1W        W54607   3.864   0.928   7.850 -0.1957 -0.2779  0.2665
    1W        W54608   6.478  26.056   0.953  0.1873  0.1199  0.1902
    1W        W54609  28.411  13.774   7.922 -0.0514  0.1396  0.0865
    1W        W54610   1.047   3.622   9.215 -0.2228  0.4026  0.2175
    1W        W54611  26.476  24.671   8.887 -0.1524 -0.0024 -0.1524
    1W        W54612  17.556  23.428   9.553 -0.0902  0.1066 -0.0865
    1W        W54613   0.160   7.696   1.785  0.3952 -0.0907 -0.0830
    1W        W54614   0.712  20.358   0.110  0.1612 -0.0675 -0.1443
    1W        W54615   6.659   4.976   2.056 -0.3043  0.1639  0.0665
    1W        W54616  14.256  19.606   7.983  0.2925  0.0347  0.0332
    1W        W54617  22.466  15.392   1.683 -0.0326  0.1788  0.1497
    1W        W54618  20.386   9.392   7.217  0.0845 -0.2964 -0.1354
    1W        W54619  13.741   2.740   2.035  0.2970 -0.1063  0.0040
    1W        W54620  15.078   5.564   3.146 -0.0552 -0.1531 -0.3006
    1W        W54621  26.011  12.892   8.330 -0.1154  0.0234  0.1469
    1W        W54622  22.589  14.617   7.037  0.1791 -0.1454  0.0263
    1W        W54623  21.802   0.074   1.882  0.1361 -0.1187  0.0714
    1W        W54624   8.017   2.155   9.834 -0.0566 -0.0025 -0.0283
    1W        W54625  21.186  12.382   8.781 -0.0604  0.1566 -0.0827
    1W        W54626  14.874  14.760   9.742  0.1577  0.0813 -0.1650
    1W        W54627  28.014  17.654   9.546 -0.0689 -0.0160  0.1827
    1W        W54628  16.501   7.238   3.927  0.0769 -0.2640  0.2599
    1W        W54629   8.986   7.342   0.352 -0.3480 -0.4787  0.3334
    1W        W54630   5.252  22.397   0.897  0.2522 -0.0649  0.0628
    1W        W54631  20.339  26.822   6.988 -0.2746 -0.0254  0.0888
    1W        W54632  26.424  27.893   2.949 -0.1202  0.0450  0.2468
    1W        W54633  12.324  14.481   9.480  0.0048  0.0413  0.0094
    1W        W54634  28.402   2.600   0.246  0.2183 -0.0148  0.1343
    1W        W54635  17.986  11.394   7.932 -0.0295 -0.0187  0.2201
    1W        W54636   4.447   7.760   1.019 -0.1897  0.3615 -0.0617
    1W        W54637  10.873  22.000   1.838 -0.0372 -0.1901  0.1336
    1W        W54638  28.361   1.109   7.830  0.1203  0.1793  0.0026
    1W        W54639   7.692   7.851   9.389  0.1055  0.0467  0.1756
    1W        W54640  10.235  23.894   2.681 -0.1171 -0.0553  0.0773
    1W        W54641  23.911   1.024   8.627  0.4945 -0.1425  0.1772
    1W        W54642  28.269   9.940   0.085  0.1970  0.0262 -0.0312
    1W        W54643  22.337  28.640   2.111 -0.1115 -0.0312  0.1665
    1W        W54644  21.316  17.621   0.288  0.0600 -0.1427 -0.0726
    1W        W54645  13.323   2.109   3.281 -0.0760  0.1595  0.0225
    1W        W54646   0.891  27.039   0.770  0.1191 -0.0352 -0.1597
    1W        W54647   6.019  22.641   9.203 -0.0170  0.0074 -0.3277
    1W        W54648  23.330   3.593   7.343  0.0746  0.0008  0.0175
    1W        W54649  22.701  12.745   7.818  0.2018 -0.0268 -0.1235
    1W        W54650  18.202  22.769   6.403 -0.0931 -0.2148 -0.2140
    1W        W54651   5.028  18.607   7.262  0.0515 -0.0485  0.0075
    1W        W54652  19.433  19.649   1.512 -0.1787  0.0625  0.0716
    1W        W54653  22.375  19.381   8.684  0.0630 -0.2000  0.0291
    1W        W54654   1.801  16.640   9.059  0.1698 -0.0373  0.1646
    1W        W54655  26.018   3.809   2.655 -0.2539  0.1073 -0.2520
    1W        W54656   0.598  14.700   0.601  0.4819 -0.1867 -0.1327
    1W        W54657  20.995  10.610   2.427 -0.0838  0.0822 -0.2035
    1W        W54658  12.406  13.555   9.038  0.2580 -0.2124 -0.2697
    1W        W54659   7.642   0.320   3.916 -0.1382 -0.1602 -0.0703
    1W        W54660  28.107  20.085   8.519 -0.2125  0.1269  0.2415
    1W        W54661   8.321  21.906   8.982 -0.1533  0.0271 -0.0839
    1W        W54662   3.486   2.473   6.965 -0.4191 -0.3102 -0.0990
    1W        W54663  14.405  15.189   8.584 -0.0014  0.0082 -0.1791
    1W        W54664   7.144  22.561   7.414  0.3603  0.0246 -0.1281
    1W        W54665   9.978  19.690   7.523  0.2216 -0.0988 -0.2007
    1W        W54666   0.442   0.367   8.046  0.1499  0.3022 -0.1396
    1W        W54667   4.641  10.058   8.172  0.1104 -0.2226 -0.2617
    1W        W54668   5.735  15.471   0.783  0.1142 -0.3573 -0.1455
    1W        W54669   5.782  22.839   0.259  0.3232 -0.1026 -0.1984
    1W        W54670   4.076  14.630   7.979 -0.0805  0.0099 -0.0020
    1W        W54671   8.830  14.415   9.304 -0.0147  0.0759  0.1261
    1W        W54672  21.961  18.445   0.739  0.1496  0.0818  0.3650
    1W        W54673  18.503  21.466   0.664 -0.1023 -0.0891 -0.1265
    1W        W54674  23.933  22.773   6.406 -0.6459  0.1992  0.0809
    1W        W54675  16.859   3.316   0.725 -0.0526  0.2300 -0.0478
    1W        W54676  26.759   4.415   6.803 -0.1323  0.0837  0.0744
    1W        W54677  28.315   1.385   3.259  0.2823 -0.0090 -0.0715
    1W        W54678  11.968   0.686   2.729 -0.0667  0.0593 -0.0205
    1W        W54679   4.505  23.091   1.109 -0.1371 -0.1878  0.3601
    1W        W54680  15.173   7.244   1.803  0.0318 -0.0497 -0.0228
    1W        W54681   2.883   6.356   2.725  0.2264  0.1850  0.1551
    1W        W54682  18.557  25.988   6.782 -0.1300  0.1214 -0.0259
    1W        W54683   5.378  23.050   6.234  0.2139  0.1164  0.1726
    1W        W54684   7.685  28.530   0.369 -0.0367 -0.3468  0.0578
    1W        W54685  23.039   1.902   9.380 -0.3092  0.0746 -0.1956
    1W        W54686   3.308  27.284   3.007  0.1352  0.1573  0.0228
    1W        W54687  16.209   6.685   2.131  0.0091 -0.2017  0.0191
    1W        W54688  23.703  20.397   7.788 -0.1450 -0.2669 -0.1131
    1W        W54689  21.334  26.889   8.814  0.1333 -0.0103  0.0176
    1W        W54690  19.561  27.628   8.015 -0.1224  0.3121 -0.3303
    1W        W54691  19.821  19.995   9.823 -0.0374  0.1214  0.3473
    1W        W54692  14.183  28.134   9.555 -0.2094 -0.0927  0.0831
    1W        W54693   1.095   5.170   0.528  0.0406 -0.2833  0.1202
    1W        W54694  24.497  16.750   7.417  0.2531  0.0927 -0.2613
    1W        W54695  25.300  18.557   2.011 -0.0419 -0.0333 -0.2714
    1W        W54696  21.715  13.448   1.185  0.1134  0.0841 -0.1529
    1W        W54697   5.199  14.485   2.992 -0.3580  0.2911 -0.0022
    1W        W54698  27.970   0.996   2.387 -0.2611  0.0365  0.1153
    1W        W54699   3.787  16.119   8.870  0.0537  0.0143  0.1830
    1W        W54700  22.659   2.176   8.446 -0.0210  0.2854 -0.2003
    1W        W54701  21.092  20.068   2.470  0.1317 -0.0931 -0.0375
    1W        W54702  27.273   4.044   7.978  0.2902  0.4277 -0.0461
    1W        W54703  17.026  23.440   9.686 -0.2075 -0.0690 -0.0763
    1W        W54704   4.354   5.718   1.071 -0.3216 -0.0785 -0.3394
    1W        W54705  21.683  26.165   8.574 -0.0475  0.1802 -0.1730
    1W        W54706   6.355   5.719   2.497  0.2153  0.0393 -0.1017
    1W        W54707   1.401  23.650   1.507  0.0741 -0.1327 -0.0289
    1W        W54708   3.590  16.398   0.138  0.0465 -0.0445 -0.0446
    1W        W54709  17.934  12.471   9.505  0.3332  0.2693 -0.0479
    1W        W54710   7.247  11.539   1.699  0.0388 -0.2452 -0.1695
    1W        W54711  23.878  13.536   1.874  0.0524 -0.1354  0.1116
    1W        W54712   9.246  23.563   7.656 -0.2338 -0.0143  0.3491
    1W        W54713   0.520  20.231   6.571  0.1334 -0.1677  0.2523
    1W        W54714  17.411  21.268   2.049  0.0695 -0.3248 -0.0128
    1W        W54715   1.943  27.699   2.939  0.1856 -0.2934  0.1520
    1W        W54716   0.821   0.685   8.998  0.2418 -0.3043  0.0229
    1W        W54717  28.367  17.210   2.185 -0.2200 -0.4750  0.0061
    1W        W54718  11.906  16.445   1.369 -0.2230 -0.1217 -0.4580
    1W        W54719  13.289  28.000   3.474  0.0274  0.1568 -0.0352
    1W        W54720   3.091   1.244   8.760 -0.0793 -0.2117  0.1952
    1W        W54721   8.595   4.533   1.305 -0.1618  0.2211 -0.0863
    1W        W54722  17.664   0.305   6.950  0.4309 -0.0059  0.0854
    1W        W54723   7.585  27.754   7.411  0.0802  0.0691  0.0308
    1W        W54724   8.021  27.728   2.582 -0.1280  0.0162 -0.2529
    1W        W54725  10.727   4.327   9.457  0.0202  0.2134  0.0423
    1W        W54726   5.783  11.954   0.270  0.3083  0.0922  0.0894
    1W        W54727  22.999  26.627   7.676  0.0011  0.4893  0.3500
    1W        W54728  28.609   7.563   1.254 -0.0707 -0.0233  0.0390
    1W        W54729  11.320  26.287   6.411 -0.2370  0.1384  0.1636
    1W        W54730  12.002  22.795   7.492 -0.0186  0.0847  0.0642
    1W        W54731   1.458  24.961   1.106  0.1892  0.0438  0.0287
    1W        W54732  28.352   1.813   6.485  0.0981 -0.1473 -0.2761
    1W        W54733   8.309  15.209   9.527 -0.2635  0.0153 -0.2440
    1W        W54734  12.402   6.985   1.330  0.0252  0.1688  0.1833
    1W        W54735   7.469  18.756   5.936  0.1199 -0.1221 -0.1049
    1W        W54736   5.319  18.195   7.350 -0.0120 -0.0209 -0.0856
    1W        W54737  13.444  10.459   2.498 -0.1498 -0.1643  0.0351
    1W        W54738  19.734  14.614   8.643 -0.0473  0.1169  0.1479
    1W        W54739  27.681  25.429   8.710  0.2239  0.1673  0.0488
    1W        W54740  12.629  14.537   1.700  0.2373 -0.1900  0.2708
    1W        W54741   1.723   2.221   7.315  0.0046 -0.0328 -0.3320
    1W        W54742   1.738  24.986   2.270 -0.1413  0.1132  0.2077
    1W        W54743  12.644  25.567   2.797 -0.1816  0.0457  0.1110
    1W        W54744   4.955  20.445   8.010  0.1219  0.0026 -0.1434
    1W        W54745  15.856   2.315   9.386 -0.1074  0.2826 -0.2002
    1W        W54746  15.413  17.921   2.911 -0.0248  0.1462 -0.2883
    1W        W54747  11.640  28.703   1.631  0.2224  0.2196 -0.1523
    1W        W54748   3.416  28.535   7.324 -0.1538 -0.1556 -0.1666
    1W        W54749  22.700   6.833   0.776  0.2188  0.0056 -0.1089
    1W        W54750   7.638  20.562   6.611  0.2949  0.1036  0.3295
    1W        W54751   8.198  26.996   7.294  0.0504 -0.0734 -0.0467
    1W        W54752  21.297   4.854   7.197 -0.0796 -0.1823  0.2662
    1W        W54753  15.293  12.371   0.332  0.0156 -0.3552 -0.1418
    1W        W54754  26.640  18.903   1.072 -0.1343  0.0523  0.0649
    1W        W54755  24.191  14.277   7.173  0.3381 -0.1138  0.0219
    1W        W54756  26.845   2.595   3.293 -0.1054  0.2587 -0.1808
    1W        W54757   6.800  14.660   8.333 -0.0591 -0.0630 -0.3191
    1W        W54758  14.292  20.871   0.580 -0.0410 -0.4184  0.1540
    1W        W54759  26.102  14.311   9.812 -0.3108  0.1394 -0.1930
    1W        W54760   3.584  17.963   2.143 -0.3896  0.1006 -0.2436
    1W        W54761  14.932  12.128   8.164  0.1015 -0.1089  0.0126
    1W        W54762   1.953  15.456   1.291 -0.0366 -0.3061 -0.0440
    1W        W54763   7.597  26.925   8.055  0.1471  0.0441 -0.0696
    1W        W54764   7.425   1.561   9.218  0.2450  0.2025 -0.0749
    1W        W54765  28.162  23.295   0.735 -0.1592 -0.0569 -0.4496
    1W        W54766   0.944  19.456   6.948 -0.1933  0.0551 -0.0851
    1W        W54767  20.778  12.593   8.491  0.1080  0.1080  0.2124
    1W        W54768  15.866  24.475   1.345  0.6317  0.1521  0.0297
    1W        W54769   0.528   3.359   9.527 -0.0624  0.1679 -0.0510
    1W        W54770  16.695  20.180   3.105 -0.0256 -0.0223 -0.0418
    1W        W54771  22.800  18.878   1.141  0.1331 -0.1341  0.3218
    1W        W54772  16.877   2.072   8.013  0.0093 -0.0328 -0.0445
    1W        W54773  25.898  19.872   1.983  0.0129  0.3630 -0.0923
    1W        W54774  19.523  24.396   0.006  0.1320  0.1437  0.1983
    1W        W54775   6.483  22.749   6.381  0.3662  0.1462  0.1142
    1W        W54776  10.038  12.309   8.608 -0.0604 -0.0899 -0.2413
    1W        W54777   4.124  14.850   8.481 -0.0912 -0.5339  0.2929
    1W        W54778  14.802  17.453   0.906 -0.0961  0.1318  0.1845
    1W        W54779   9.953  21.763   2.408  0.0697  0.1884  0.0813
    1W        W54780   8.465  20.808   1.872  0.0536  0.2291  0.1025
    1W        W54781   4.799  27.215   6.750  0.2102 -0.0437  0.0921
    1W        W54782   8.977  25.112   6.270 -0.4353 -0.0227  0.0339
    1W        W54783   3.191  23.949   6.926  0.0442 -0.0837  0.3098
    1W        W54784  12.012  19.659   8.969  0.0891  0.1380  0.2105
    1W        W54785   8.712   3.185   2.097  0.0298 -0.1271 -0.0331
    1W        W54786  10.929   5.879   9.131 -0.1656  0.1924 -0.0322
    1W        W54787  18.813   7.838   1.432  0.3236  0.1728 -0.2660
    1W        W54788  26.055  24.310   8.055 -0.1764 -0.1510 -0.2410
    1W        W54789  19.339  14.998   1.285 -0.0212  0.3614  0.2430
    1W        W54790  27.478  14.985   8.491 -0.0554  0.1421  0.0131
    1W        W54791   4.079   5.225   2.138 -0.0185 -0.0047 -0.1777
    1W        W54792  15.547   5.582   3.314 -0.2594  0.0767  0.2298
    1W        W54793  26.775   0.495   0.940 -0.0110  0.0259  0.0357
    1W        W54794  13.815  12.328   2.653 -0.0652 -0.2568  0.0135
    1W        W54795  10.224  27.417   6.896  0.0874 -0.0457 -0.1650
    1W        W54796  11.378   6.506   7.911  0.1385 -0.3502 -0.2177
    1W        W54797  21.369   7.302   2.592 -0.0862 -0.0630  0.2572
    1W        W54798   1.531   3.582   7.728 -0.0746  0.1423 -0.2307
    1W        W54799  16.383   5.686   8.734  0.0389  0.3086 -0.3636
    1W        W54800  17.223   2.859   1.427 -0.1030  0.0345 -0.1957
    1W        W54801  27.290  10.826   5.724  0.0678  0.2619 -0.2769
    1W        W54802  26.036  23.246   3.400  0.1512  0.1280 -0.1066
    1W        W54803  14.887  28.085   4.029 -0.3992  0.0411  0.3169
    1W        W54804  22.500  18.659   0.766 -0.1096 -0.1882 -0.1154
    1W        W54805  14.147  27.330   8.817  0.0763 -0.3229  0.0534
    1W        W54806  14.883  27.972   8.649 -0.2517 -0.3262 -0.0416
    1W        W54807  23.730   4.595   3.645 -0.2704  0.1857  0.1870
    1W        W54808  26.857   8.656   9.319 -0.0362 -0.0716  0.1283
    1W        W54809   6.919   0.872   9.816  0.0577 -0.2015  0.1451
    1W        W54810   1.066   6.762   1.765 -0.4308 -0.3263 -0.0502
    1W        W54811  26.075   6.540   8.725 -0.0598  0.0575  0.0352
    1W        W54812   1.337  25.388   3.091  0.3074 -0.2294  0.0879
    1W        W54813  16.680  19.453   1.712 -0.0466  0.1204  0.0712
    1W        W54814  17.935  26.974   1.236  0.2188  0.2132  0.1340
    1W        W54815  10.376  19.953   7.525  0.2154 -0.0929  0.0107
    1W        W54816  22.529  26.114   1.828  0.2751  0.0725 -0.0173
    1W        W54817  15.764  21.696   8.283  0.1368  0.4205  0.1275
    1W        W54818  28.469   6.874   8.668 -0.2161 -0.1889  0.2145
    1W        W54819  11.347   6.411   0.002  0.1813  0.0528  0.0250
    1W        W54820  25.607   8.582   9.321  0.2692  0.0444 -0.0841
    1W        W54821  10.899  18.739   2.526  0.1364 -0.0153  0.0431
    1W        W54822  22.841  13.186   9.641 -0.0078 -0.2534  0.4061
    1W        W54823  11.073   1.733   3.449 -0.0051  0.4161 -0.0794
    1W        W54824  25.786  12.448   1.120 -0.1330 -0.0968  0.1501
    1W        W54825  21.973   3.586   0.394  0.0563  0.1104  0.2687
    1W        W54826  12.530   8.041   9.622 -0.0863 -0.1419 -0.2452
    1W        W54827   4.461  24.656   1.626  0.0244 -0.0738  0.3499
    1W        W54828  25.149  24.151   2.232  0.3075  0.4329  0.0954
    1W        W54829  18.374  19.313   9.782  0.0065  0.1692  0.1393
    1W        W54830  23.053  23.569   8.637 -0.0483 -0.0983  0.0629
    1W        W54831   1.614  21.977   1.501  0.0531  0.0741 -0.1576
    1W        W54832  15.093  13.944   9.944  0.2129  0.4408 -0.2396
    1W        W54833  15.780  18.669   9.037 -0.2681  0.0994 -0.3700
    1W        W54834  22.737  17.291   9.144 -0.1492 -0.1098 -0.0088
    1W        W54835   4.937  18.963   6.789 -0.3370  0.2286 -0.1327
    1W        W54836   0.213  12.301   1.822 -0.0908  0.3029  0.0385
    1W        W54837  12.093  21.481   1.566 -0.4079  0.1562  0.3266
    1W        W54838  22.543   7.622   2.284  0.1114  0.2833 -0.2540
    1W        W54839  15.983   7.834   9.304 -0.3099 -0.4141 -0.1110
    1W        W54840  16.123   7.065   8.968  0.2979 -0.0295  0.1923
    1W        W54841   1.381  11.049   3.101  0.0169  0.0720  0.0603
    1W        W54842  20.447  27.653   9.804  0.3225  0.3650 -0.1020
    1W        W54843   2.409  10.059   7.055  0.0092  0.1562 -0.0009
    1W        W54844   2.933  27.791   0.239  0.0603  0.0444 -0.1357
    1W        W54845   2.553   6.162   9.818 -0.3269 -0.0922  0.3122
    1W        W54846  21.384  22.749   8.086  0.0920 -0.0380  0.2459
    1W        W54847  15.093  12.824   9.296  0.2543 -0.1710 -0.0284
    1W        W54848   0.489   1.260   8.305 -0.0649 -0.3105  0.2654
    1W        W54849   2.527  21.289   8.274 -0.2485  0.1223  0.0189
    1W        W54850  16.291  24.039   2.242  0.0904 -0.1857 -0.1981
    1W        W54851  19.608  23.384   6.862 -0.4317  0.1862 -0.2785
    1W        W54852  22.028   3.060   0.392  0.0823  0.0760 -0.0245
    1W        W54853   1.410  14.638   0.939 -0.1266  0.0452 -0.2323
    1W        W54854  21.534  10.596   2.614 -0.0640  0.0016 -0.0257
    1W        W54855  19.808  18.781   1.185  0.3283  0.2883 -0.2746
    1W        W54856   9.827  13.629   8.264 -0.1557  0.0241 -0.1773
    1W        W54857  16.915  15.776   0.048 -0.3561  0.0237  0.1191
    1W        W54858  14.506  28.175   2.698  0.1370 -0.0758  0.0304
    1W        W54859   9.187  18.498   7.429  0.1111  0.0757 -0.1467
    1W        W54860  10.938   7.429   2.257  0.0433  0.3700 -0.0368
    1W        W54861   5.229  14.806   1.004  0.0976 -0.1581 -0.1131
    1W        W54862   5.555  23.431   2.325 -0.0449 -0.0483  0.1661
    1W        W54863  20.187  22.674   9.209  0.1579  0.0297  0.2605
    1W        W54864  12.749  21.221   7.822  0.0092 -0.0242  0.1475
    1W        W54865  13.587   3.333   0.029  0.2356 -0.0724  0.3341
    1W        W54866  19.518  28.506   8.335  0.0403  0.0561 -0.0777
    1W        W54867   1.964  26.134   0.620 -0.0196  0.0517  0.1616
    1W        W54868  27.981  11.977   6.995 -0.2738 -0.1290 -0.4579
    1W        W54869  10.525  22.153   9.121 -0.0680  0.3359  0.0811
    1W        W54870  17.841   6.056   9.513  0.3045 -0.0796  0.1679
    1W        W54871  25.003  10.285   6.581 -0.0803  0.2472  0.0185
    1W        W54872  24.053  22.260   9.888 -0.3119  0.2381 -0.1809
    1W        W54873   1.584  16.254   7.811  0.0802  0.2309  0.0329
    1W        W54874  16.162   8.706   9.063 -0.1658 -0.1797 -0.1379
    1W        W54875   0.945   7.739   1.381 -0.0416  0.0769  0.0998
    1W        W54876  12.308   4.749   9.844 -0.1122  0.1719 -0.1712
    1W        W54877  24.100  22.904   7.424 -0.0078  0.3889  0.1638
    1W        W54878   3.773   2.693   7.837  0.4161  0.1471 -0.0326
    1W        W54879   2.651  16.231   2.458  0.0259  0.0204 -0.1646
    1W        W54880   2.695  20.610   6.126 -0.0069  0.0455  0.2688
    1W        W54881  23.434  10.642   1.789 -0.0097 -0.0517 -0.1885
    1W        W54882   8.223  15.008   8.032 -0.1659  0.0854 -0.2367
    1W        W54883   2.420  13.228   8.162 -0.0631  0.0158 -0.1339
    1W        W54884  27.243   5.002   9.489  0.0914  0.1050 -0.3614
    1W        W54885  26.505  21.287   1.121 -0.3378  0.1875 -0.0434
    1W        W54886   1.101  24.446   7.146 -0.0490  0.0058 -0.0476
    1W        W54887  28.616  27.871   0.580 -0.0462 -0.0453  0.0957
    1W        W54888  22.644  23.951   8.738  0.1099 -0.0956 -0.0620
    1W        W54889   8.030  25.895   8.159  0.3335 -0.1648 -0.2088
    1W        W54890  12.358  26.689   8.965  0.0971 -0.2109 -0.0649
    1W        W54891  22.760   3.609   9.351  0.3060 -0.0553 -0.0206
    1W        W54892  14.983  26.001   0.265  0.2204  0.2912  0.0266
    1W        W54893  28.241  25.771   7.992 -0.0142  0.2540 -0.0326
    1W        W54894  12.520  15.347   7.435 -0.0680 -0.0543 -0.2527
    1W        W54895   9.163  18.996   2.761 -0.1557  0.0605 -0.3839
    1W        W54896   4.262  26.730   2.658 -0.1845  0.0327 -0.0549
    1W        W54897  24.845   5.778   9.775 -0.4819 -0.2519  0.0255
    1W        W54898   8.306  14.048   1.090  0.0945  0.1445  0.0590
    1W        W54899   5.426   1.223   2.060 -0.1508  0.1070  0.0041
    1W        W54900  23.173   5.371   0.935  0.0438 -0.1499 -0.1896
    1W        W54901  11.534  24.068   2.680 -0.2122  0.1679  0.2215
    1W        W54902   3.537  19.160   1.602  0.0959 -0.0035  0.2267
    1W        W54903  14.231   5.285   9.428  0.1665 -0.0092 -0.0332
    1W        W54904   5.684   4.107   6.347  0.0845 -0.1897 -0.0852
    1W        W54905  13.271   6.319   3.563  0.3050 -0.1867 -0.1939
    1W        W54906  16.526   6.487   8.090 -0.0836  0.0418 -0.0178
    1W        W54907  27.075  18.524   0.008 -0.1209  0.2364  0.3201
    1W        W54908  27.172  13.222   8.844 -0.1031  0.1303 -0.1402
    1W        W54909   3.753   0.540   0.015  0.1784  0.1782 -0.0963
    1W        W54910   3.439  21.504   1.656  0.1047 -0.0706  0.0142
    1W        W54911  28.215   7.482   7.426  0.2988  0.2371 -0.0424
    1W        W54912  19.840   2.338   0.068  0.1984 -0.2279  0.1124
    1W        W54913  27.954  11.407   7.466 -0.1972  0.1540  0.3315
    1W        W54914  10.510   8.781   8.354 -0.0797  0.0810  0.0669
    1W        W54915   4.471  10.450   8.396 -0.2486 -0.4355 -0.1204
    1W        W54916   9.178  16.736   1.909  0.0148 -0.0557  0.0394
    1W        W54917  15.066  27.411   7.819  0.0181  0.1073  0.1687
    1W        W54918  27.034   5.582   9.944  0.1850  0.2188  0.0457
    1W        W54919  17.047   2.467   4.226  0.0847  0.1524  0.1292
    1W        W54920  15.962  13.539   7.820 -0.0858 -0.0069 -0.1219
    1W        W54921   1.940  11.786   8.637  0.4167  0.2565 -0.0401
    1W        W54922   0.810   2.990   9.317  0.1275 -0.3136 -0.1340
    1W        W54923  18.534   6.371   2.069  0.0894  0.1217  0.0239
    1W        W54924  11.572  27.550   2.481 -0.0654  0.3111  0.0232
    1W        W54925  11.586   1.148   8.668 -0.1834  0.1557 -0.0967
    1W        W54926   3.580  14.612   1.350 -0.1574  0.1113  0.5856
    1W        W54927  16.928  16.468   8.593  0.0671 -0.0615 -0.1497
    1W        W54928   7.664   7.620   8.034 -0.2862  0.1284 -0.0976
    1W        W54929   5.642  10.028   2.147  0.1735 -0.0701  0.3708
    1W        W54930   2.396  18.239   9.957  0.0686  0.1580 -0.0305
    1W        W54931  10.163  18.695   0.562 -0.1027 -0.3436  0.0081
    1W        W54932  22.860   9.675   0.711  0.1168 -0.0060  0.2561
    1W        W54933   8.320  18.082   7.374  0.1666  0.3988  0.0243
    1W        W54934  19.074  27.569   0.950 -0.1561  0.1717 -0.2442
    1W        W54935  25.018  19.921   3.076 -0.0323  0.2477  0.0461
    1W        W54936  13.173   1.285   3.037  0.0040  0.0599  0.0767
    1W        W54937  15.468  25.543   7.963  0.3209  0.1383  0.0980
    1W        W54938   0.811  12.447   8.517  0.1429 -0.1695  0.1399
    1W        W54939  24.064  27.068   7.631  0.0335  0.4400 -0.0144
    1W        W54940   6.314   7.076   8.466  0.0989 -0.3679  0.0044
    1W        W54941  13.187  10.064   2.766  0.0343 -0.0947 -0.0572
    1W        W54942   4.194   6.722   1.312  0.0178 -0.0721 -0.2646
    1W        W54943  22.953   3.295   9.790  0.2628 -0.1579 -0.2034
    1W        W54944  23.011  13.751   6.477  0.1022  0.2522 -0.0685
    1W        W54945  14.514   8.224   0.471  0.1471 -0.0925  0.1207
    1W        W54946  24.637  24.842   1.889  0.1313  0.1462 -0.0284
    1W        W54947   9.521  27.778   0.682 -0.0234 -0.1751  0.2249
    1W        W54948  25.568  25.618   7.129 -0.1235 -0.2559  0.0494
    1W        W54949   9.522  17.434   8.127 -0.0227  0.1151  0.0270
    1W        W54950  14.959  17.242   2.394  0.0351 -0.0591 -0.1800
    1W        W54951   7.324   5.308   3.783 -0.1301 -0.0736  0.0478
    1W        W54952  21.279   9.973   9.448 -0.2356 -0.2247  0.0575
    1W        W54953   9.352  19.350   7.621  0.0609  0.0003 -0.2519
    1W        W54954   6.361  12.249   8.187 -0.3930 -0.0025 -0.1320
    1W        W54955   7.327  19.098   7.540  0.0709  0.1313  0.0063
    1W        W54956  26.391  19.822   2.819 -0.1200 -0.2800 -0.0356
    1W        W54957  12.257  24.624   2.645  0.2347 -0.0923  0.1853
    1W        W54958  17.941  24.144   7.604 -0.0865 -0.0492  0.3049
    1W        W54959  13.703   5.920   8.300 -0.0052  0.1095  0.4224
    1W        W54960   9.253  12.313   2.415 -0.0167 -0.0592  0.0137
    1W        W54961  12.119   8.945   8.436  0.1501  0.0971 -0.0848
    1W        W54962  11.133   4.437   8.313 -0.3931  0.0906  0.2156
    1W        W54963  14.245  23.527   9.211  0.1722  0.0506  0.0989
    1W        W54964   1.527   0.690   9.608  0.0578  0.1000  0.1338
    1W        W54965  25.802   5.544   6.813 -0.1607 -0.0487  0.0956
    1W        W54966   3.099  10.251   9.212 -0.2315  0.0200 -0.0807
    1W        W54967  20.497  26.441   0.342 -0.3107  0.0347 -0.3568
    1W        W54968  24.072  13.254   1.492  0.1458 -0.2074 -0.3250
    1W        W54969  11.024   5.017   1.215  0.2173 -0.3896 -0.1401
    1W        W54970   4.165  22.878   9.223  0.0870 -0.2034 -0.2885
    1W        W54971  12.064  13.943   8.933 -0.0741 -0.5219  0.0893
    1W        W54972  11.247   3.352   1.222 -0.0452 -0.0917  0.0847
    1W        W54973  17.744  25.666   3.064  0.2326 -0.2173  0.0982
    1W        W54974  22.477  22.814   7.969 -0.0178  0.0617  0.0410
    1W        W54975  24.633  23.926   8.998  0.4673 -0.1561  0.1100
    1W        W54976   8.986  19.976   2.459  0.0063 -0.1117 -0.1339
    1W        W54977  10.871  18.162   8.181 -0.2505  0.1594 -0.4121
    1W        W54978  22.210  13.547   1.362 -0.1991 -0.2053  0.1969
    1W        W54979  16.115  17.120   1.577  0.1578 -0.0846  0.2403
    1W        W54980  18.577  21.996   8.336 -0.1049  0.1437  0.0613
    1W        W54981  16.446   8.402   1.542 -0.0497 -0.1490 -0.0179
    1W        W54982  24.412  12.947   0.069 -0.1674 -0.0819  0.4334
    1W        W54983  24.292  28.159   0.220  0.2568 -0.2371 -0.1260
    1W        W54984  14.350  19.299   8.418  0.0142 -0.1054 -0.0616
    1W        W54985   0.878   2.510   8.627 -0.0864 -0.0044 -0.2919
    1W        W54986  20.434  21.712   0.961  0.0843  0.1232  0.1426
    1W        W54987  21.984   9.106   6.601  0.3276 -0.2246 -0.1001
    1W        W54988  26.537  18.617   6.510 -0.0511 -0.0371  0.0546
    1W        W54989   7.709   2.606   1.491 -0.1676  0.2355 -0.0628
    1W        W54990  17.492  25.639   7.271  0.0614  0.0251 -0.1784
    1W        W54991   4.642  22.980   9.549 -0.3722 -0.2122  0.1973
    1W        W54992   3.937   5.100   0.275 -0.4582 -0.2892 -0.1559
    1W        W54993  25.405  13.322   9.033 -0.1045  0.1740 -0.1567
    1W        W54994  18.230  18.238   1.098  0.0270  0.2396 -0.0120
    1W        W54995  22.787   4.686   2.030  0.1739 -0.0787 -0.0741
    1W        W54996   0.485   3.732   2.580 -0.0805 -0.2707 -0.0669
    1W        W54997  28.318   7.513   3.497  0.1290  0.0552 -0.1432
    1W        W54998  27.520  20.548   7.574 -0.0671 -0.2773  0.1282
    1W        W54999  27.249  14.422   6.622  0.1615  0.0250 -0.2052
    1W        W55000  10.269   9.246   9.932 -0.0795 -0.2900  0.5095
    1W        W55001   6.658   5.821   0.857  0.3654 -0.0931 -0.1573
    1W        W55002  20.942   9.186   8.515  0.0324 -0.0471 -0.0804
    1W        W55003   1.459  20.417   0.978 -0.2848  0.0758  0.2290
    1W        W55004  17.873   8.821   0.134 -0.1562 -0.1347  0.2844
    1W        W55005  21.356   3.577   9.448 -0.0723  0.0137 -0.0613
    1W        W55006   1.245  16.841   0.311  0.3487 -0.0447  0.0239
    1W        W55007  16.747  14.186   7.581 -0.2118 -0.0228 -0.1535
    1W        W55008  16.151   0.862   1.484 -0.0475  0.1629  0.0896
    1W        W55009  18.007   7.429   1.317  0.0354 -0.1165 -0.1925
    1W        W55010  28.096  18.704   0.754  0.0071  0.1339  0.0848
    1W        W55011   0.310   2.077   7.093 -0.0047 -0.0707 -0.3556
    1W        W55012  13.615  22.587   0.418  0.2568  0.1176 -0.2593
    1W        W55013   9.634  15.201   0.418 -0.2231 -0.3546 -0.1235
    1W        W55014   1.577  27.459   6.940  0.2285  0.1061  0.4986
    1W        W55015  28.136  16.522   0.709  0.1766 -0.2330  0.1620
    1W        W55016  27.286   7.942   0.693 -0.1639 -0.2801 -0.1275
    1W        W55017  24.331  27.585   7.839 -0.3944  0.0780 -0.0390
    1W        W55018  17.504  20.467   2.659 -0.4252  0.4732  0.2742
    1W        W55019   5.058  18.493   8.175  0.0979 -0.0345 -0.1873
    1W        W55020   5.008   7.863   2.444  0.1723  0.0415  0.0931
    1W        W55021   0.798   7.536   9.424  0.1396 -0.2409 -0.2394
    1W        W55022  11.090  25.495   6.834  0.0712 -0.0200 -0.3371
    1W        W55023   4.961  10.573   2.043  0.3025  0.1981  0.3311
    1W        W55024   9.893   4.999   8.877 -0.1179 -0.2345  0.2501
    1W        W55025   7.989   3.421   0.513 -0.1306 -0.0940 -0.1077
    1W        W55026   0.275  16.433   8.487  0.1371 -0.2117 -0.1706
    1W        W55027   6.743   7.327   1.648 -0.0115  0.1170 -0.2325
    1W        W55028  19.458  24.873   7.616 -0.3235 -0.1296 -0.0637
    1W        W55029   1.621  11.525   1.785 -0.0597  0.3794 -0.4745
    1W        W55030  17.784   6.692   1.416 -0.1462 -0.0268 -0.0627
    1W        W55031  18.026  17.717   8.164  0.3482  0.0076 -0.0506
    1W        W55032  13.612   1.323   0.851 -0.5905  0.0078 -0.0080
    1W        W55033  14.848  15.142   1.547  0.0924 -0.0512 -0.1695
    1W        W55034  20.663  11.940   7.984  0.2687  0.1208  0.0859
    1W        W55035   3.324   0.725   0.122 -0.1628 -0.2740  0.3477
    1W        W55036  15.998   1.625   3.015 -0.1173  0.0376  0.3337
    1W        W55037  26.022  22.199   0.100 -0.2518  0.0019 -0.0772
    1W        W55038  16.175   8.213   2.040  0.0362  0.1588  0.0207
    1W        W55039  14.234  23.622   2.698  0.0928 -0.1754 -0.1663
    1W        W55040   9.574   1.739   0.841 -0.0324 -0.1662 -0.2474
    1W        W55041   0.927  23.050   2.108  0.0490  0.2183 -0.1190
    1W        W55042  25.645   6.866   7.205 -0.3327 -0.1265 -0.2909
    1W        W55043   2.792  28.273   2.079 -0.1347  0.1029 -0.0757
    1W        W55044  20.904   8.838   8.133  0.0481  0.1732  0.0498
    1W        W55045  28.109  28.475   7.447 -0.2028  0.3672  0.1781
    1W        W55046  22.667  23.053   2.432 -0.1715  0.0631 -0.3640
    1W        W55047  18.471   2.468   1.106 -0.0362  0.0413 -0.1483
    1W        W55048  13.470  22.510   2.441  0.0674  0.2065 -0.1351
    1W        W55049  23.396  10.910   8.650  0.2539  0.0348 -0.2029
    1W        W55050   2.505  26.505   9.479 -0.0168 -0.1701 -0.1504
    1W        W55051   9.936  14.150   7.760  0.2304 -0.3408 -0.1924
    1W        W55052  27.976  20.320   7.702 -0.0067  0.1721 -0.1373
    1W        W55053  11.420  22.103   9.487  0.0477 -0.0798 -0.0991
    1W        W55054  11.928   1.251   3.588  0.1012 -0.2430 -0.0149
    1W        W55055   0.317  24.979   6.835  0.2055 -0.1099 -0.3756
    1W        W55056  20.480  14.487   9.921 -0.2944  0.1045 -0.0013
    1W        W55057  10.007  21.114   9.840  0.1154  0.3364 -0.1819
    1W        W55058  21.780  14.964   1.351 -0.1704  0.1620  0.0776
    1W        W55059   9.751  28.070   0.295  0.2191  0.0453  0.2001
    1W        W55060  25.685   8.070   9.125 -0.0645  0.0865 -0.2108
    1W        W55061  15.369  14.017   8.604 -0.0596 -0.2476  0.2719
    1W        W55062  24.439  28.186   0.753 -0.0604  0.1861  0.0768
    1W        W55063  22.181  25.043   6.932 -0.1377  0.2705  0.1643
    1W        W55064  13.507  13.015   0.383 -0.1117 -0.0159 -0.0004
    1W        W55065  25.438   6.291   1.877 -0.4833  0.0293  0.1403
    1W        W55066   2.079   0.875   1.001 -0.1210  0.5268 -0.0782
    1W        W55067  13.256  24.140   8.805 -0.4516 -0.0692  0.3485
    1W        W55068   4.295  22.209   0.768 -0.2341 -0.3976  0.0774
    1W        W55069   5.962  27.659   7.919 -0.1486  0.2036 -0.0969
    1W        W55070   4.453  23.267   8.956 -0.1733 -0.1480 -0.1865
    1W        W55071  26.819   5.063   1.968 -0.0075  0.0309 -0.0869
    1W        W55072  18.870  13.807   8.066 -0.1769 -0.2809  0.0963
    1W        W55073   7.113  18.508   8.574 -0.3378 -0.1911 -0.0042
    1W        W55074  25.853   2.233   0.571  0.1931  0.1754 -0.2050
    1W        W55075   5.166   2.618   0.393 -0.1114 -0.1485 -0.0751
    1W        W55076  16.315  12.716   7.157  0.0035  0.0129  0.2445
    1W        W55077   3.172  18.860   0.704 -0.0535 -0.0018  0.0167
    1W        W55078  22.281  13.095   7.044  0.1273  0.0307 -0.1612
    1W        W55079  19.109   6.984   1.825 -0.0077  0.0906  0.1383
    1W        W55080   4.638  28.247   0.761 -0.0930  0.3872 -0.0780
    1W        W55081   9.503  14.879   2.697  0.0475 -0.1340 -0.1152
    1W        W55082  17.712  25.585   9.881 -0.1935  0.2094 -0.1387
    1W        W55083  26.757  16.847   0.197 -0.0073  0.1757 -0.2798
    1W        W55084  12.660  28.202   8.653  0.1026  0.0269 -0.2768
    1W        W55085  20.081  17.485   2.451  0.0846 -0.0856  0.2479
    1W        W55086   0.051  24.180   0.812  0.2819  0.1436 -0.0824
    1W        W55087  15.772  17.716   8.056  0.1005  0.1735  0.3938
    1W        W55088  26.458   8.643   8.996 -0.0624  0.0474  0.2525
    1W        W55089  18.531  10.629   7.317  0.0281  0.0444 -0.1024
    1W        W55090  26.287  14.130   2.042 -0.0132 -0.1792 -0.2788
    1W        W55091  28.249  19.511   2.193 -0.1126  0.1593 -0.0721
    1W        W55092  24.985   2.854   5.844  0.0692  0.2532 -0.0833
    1W        W55093   0.686   2.958   8.470 -0.0037 -0.1874 -0.1555
    1W        W55094  23.179  25.050   2.473 -0.3389 -0.2173  0.1470
    1W        W55095  17.194  22.706   2.088 -0.4400  0.2318  0.2633
    1W        W55096  15.098  16.425   8.198  0.1906 -0.1389  0.1082
    1W        W55097  23.212   7.150   9.649 -0.0789 -0.1240 -0.1461
    1W        W55098  12.345  18.778   9.181 -0.1497 -0.0623 -0.1492
    1W        W55099   6.934  17.791   9.585 -0.2356 -0.1231  0.0193
    1W        W55100  12.355  13.034   0.793 -0.0276 -0.0557 -0.0505
    1W        W55101  11.408   8.005   9.397  0.0842  0.0277 -0.1154
    1W        W55102  19.587  24.020   0.280  0.2069  0.3095 -0.1024
    1W        W55103  11.574  21.312   2.849 -0.0600  0.0840 -0.2429
    1W        W55104   3.514  20.931   1.877 -0.0764 -0.0196 -0.0277
    1W        W55105  17.854  20.229   0.942  0.1276 -0.0631  0.2191
    1W        W55106   6.050   5.443   9.361 -0.2399  0.2036 -0.1938
    1W        W55107  24.914  22.818   9.709 -0.3724 -0.2771 -0.0926
    1W        W55108   2.764  27.947   1.696  0.1283  0.0963 -0.1303
    1W        W55109  22.938   4.940   8.271 -0.3967  0.0973  0.1516
    1W        W55110   6.445  25.053   1.481 -0.0244 -0.1790  0.2128
    1W        W55111  21.176  11.804   8.131  0.0307  0.3720 -0.0142
    1W        W55112  13.374  10.175   9.181 -0.4671  0.1931 -0.2106
    1W        W55113  16.780  15.178   8.681 -0.1034 -0.2494  0.2396
    1W        W55114   6.591   1.003   1.488  0.1717 -0.0809 -0.2209
    1W        W55115  17.109  17.186   1.831  0.0130  0.0929 -0.0825
    1W        W55116  26.067   2.560   7.579 -0.0539  0.2508  0.0785
    1W        W55117  16.990   8.515   1.775 -0.0793 -0.2141 -0.3388
    1W        W55118  23.271   6.740   0.705 -0.0345  0.1680  0.3923
    1W        W55119   9.673   3.897   3.143  0.1951  0.0530 -0.0307
    1W        W55120  24.094  23.082   9.383 -0.0572  0.2973 -0.0614
    1W        W55121  23.585   4.588   1.088 -0.3552 -0.2497  0.0261
    1W        W55122  28.551  27.849   1.137  0.1249  0.0917  0.0771
    1W        W55123  13.906  18.987   9.503 -0.3068 -0.1479  0.0733
    1W        W55124  27.321  14.344   5.238  0.2551  0.3189 -0.5401
    1W        W55125  12.405  14.867   8.160 -0.0827  0.1447 -0.2029
    1W        W55126   0.302  17.622   1.867  0.1099  0.0943  0.1739
    1W        W55127  19.089  10.673   9.603 -0.0425 -0.4075  0.1958
    1W        W55128  17.288   9.077   8.080 -0.0042  0.1401  0.1202
    1W        W55129  15.721  10.741   8.509 -0.2444  0.0689  0.1668
    1W        W55130  15.272   9.655   8.897 -0.0313 -0.1447 -0.0968
    1W        W55131  18.345  23.905   1.636  0.0809  0.3943 -0.0229
    1W        W55132   5.680  12.553   2.995  0.1126  0.0081  0.1458
    1W        W55133  23.772  12.125   6.584 -0.0123  0.1472  0.1874
    1W        W55134  18.958  18.944   8.214 -0.1621 -0.0991 -0.0724
    1W        W55135  26.303   7.168   8.034  0.1799  0.1016  0.1296
    1W        W55136  12.733  14.073   0.635  0.0876  0.0952 -0.1457
    1W        W55137  16.023  15.484   2.922  0.1238  0.0804  0.3346
    1W        W55138   2.970   8.819   6.517  0.4675  0.3727 -0.2371
    1W        W55139  11.131   6.317   7.532  0.1307  0.4594  0.0525
    1W        W55140   8.273  17.903   8.269  0.2380  0.3023  0.0242
    1W        W55141   5.436  21.696   6.175 -0.0980  0.1857 -0.0962
    1W        W55142  11.099   5.883   1.285  0.0374 -0.1052  0.0214
    1W        W55143  16.567  25.114   1.542  0.0758 -0.0783  0.1032
    1W        W55144   5.713  26.271   2.065 -0.3073 -0.0054  0.0517
    1W        W55145  16.812  25.914   2.557  0.2312  0.2433 -0.2093
    1W        W55146  19.790  23.550   0.534  0.5361  0.1816  0.3078
    1W        W55147  15.331   3.669   7.261 -0.2238  0.2021 -0.1020
    1W        W55148  26.923   5.397   8.680  0.0695 -0.1126  0.1319
    1W        W55149   6.718  13.487   7.316 -0.0133 -0.1020 -0.2226
    1W        W55150   3.372   9.080   1.738 -0.0393  0.2483  0.0957
    1W        W55151   0.231  20.877   0.043 -0.1058 -0.2468 -0.1218
    1W        W55152  16.635  18.027   2.710 -0.2445  0.0847 -0.3159
    1W        W55153   5.834  28.402   9.433  0.0740  0.2270 -0.2678
    1W        W55154  21.410  15.815   2.131  0.0785 -0.0577  0.0902
    1W        W55155   5.135  14.020   6.930  0.1812 -0.0836 -0.0606
    1W        W55156  10.053   3.680   2.072 -0.0970  0.0615  0.0304
    1W        W55157  27.936   0.257   7.987 -0.1691 -0.3667 -0.1202
    1W        W55158   4.192  22.397   1.590  0.4041 -0.0461 -0.3027
    1W        W55159   1.622  21.391   6.838 -0.0389  0.0255  0.0792
    1W        W55160   2.860   0.615   3.757 -0.0784  0.3434  0.0999
    1W        W55161  25.614  21.080   7.265  0.1938  0.0588  0.2835
    1W        W55162  23.455  14.801   0.450 -0.1428 -0.2504  0.3200
    1W        W55163  25.579  17.552   9.193  0.1639 -0.0125  0.0596
    1W        W55164  16.981   4.640   0.573  0.0067 -0.0080  0.1349
    1W        W55165  13.929  24.803   8.490 -0.0074  0.1670 -0.0821
    1W        W55166   0.440  16.252   6.864  0.0737 -0.1453  0.0448
    1W        W55167  18.509  26.062   1.982 -0.0908  0.0679  0.1672
    1W        W55168   6.776  19.375   2.363 -0.2012  0.0490  0.0790
    1W        W55169   3.731   5.318   8.480  0.1563 -0.3991 -0.3240
    1W        W55170  22.347   9.220   1.383 -0.0181  0.0194 -0.1049
    1W        W55171  20.486   6.042   1.768  0.1831  0.1021  0.0719
    1W        W55172  22.683  15.838   1.840  0.2635 -0.3051 -0.1007
    1W        W55173   0.042  11.683   7.829 -0.0662 -0.0799 -0.1599
    1W        W55174   7.709   5.209   9.781 -0.0662  0.0965 -0.1016
    1W        W55175  24.491  11.906   6.952  0.0014  0.0338 -0.0945
    1W        W55176  20.654  11.010   1.354  0.0714  0.1759  0.3615
    1W        W55177   0.940   0.639   2.105 -0.3418 -0.0902 -0.1372
    1W        W55178  11.075  10.854   2.177 -0.2531 -0.0116 -0.0426
    1W        W55179   4.753  13.445   8.416 -0.2530  0.2927  0.0097
    1W        W55180  20.988   0.931   8.766 -0.0394 -0.2134  0.1371
    1W        W55181  26.236  20.281   1.713 -0.1423 -0.0735 -0.0571
    1W        W55182  15.764  25.459   0.741 -0.1746  0.2443  0.0574
    1W        W55183  10.113  26.047   7.158  0.2819  0.1263  0.0486
    1W        W55184  28.668  15.965   9.414 -0.0034  0.1723  0.1109
    1W        W55185   1.386   5.710   1.867  0.2082  0.0890 -0.0606
    1W        W55186  22.598  17.592   8.196  0.2093  0.6974 -0.3671
    1W        W55187  13.889  27.252   3.338 -0.0949 -0.0398 -0.1225
    1W        W55188  25.058  23.281   9.352 -0.2450  0.0266 -0.3627
    1W        W55189  11.490   5.178   1.271  0.0894 -0.0337 -0.0857
    1W        W55190   9.950  28.670   7.077  0.0812  0.2878  0.0532
    1W        W55191   3.561   7.955   0.543  0.2411 -0.1492  0.2436
    1W        W55192  25.853  25.511   3.475 -0.0485  0.0462 -0.2367
    1W        W55193  22.044  21.909   1.879 -0.5070  0.3084 -0.0352
    1W        W55194  11.202  23.883   3.407  0.0467 -0.1548  0.2032
    1W        W55195  15.253  18.036   9.269 -0.1605 -0.1724 -0.1854
    1W        W55196  19.654   8.023   1.313 -0.0244  0.0103 -0.0341
    1W        W55197  11.713  12.010   0.312 -0.2414  0.0356  0.1077
    1W        W55198   7.568  22.705   1.337 -0.0273  0.0632 -0.0021
    1W        W55199  21.334   6.064   1.659 -0.0957  0.1067 -0.1016
    1W        W55200  19.351   8.356   0.483 -0.0299  0.2891 -0.4892
    1W        W55201  17.767  13.396   8.477 -0.2384  0.3324 -0.1205
    1W        W55202  19.575  19.180   8.880 -0.0295 -0.4186  0.2122
    1W        W55203  11.709  24.200   2.220 -0.0939  0.0537 -0.0626
    1W        W55204  12.756  22.997   1.644 -0.0179 -0.0890  0.1115
    1W        W55205   7.252  20.802   7.929  0.2479 -0.0212 -0.1419
    1W        W55206   5.993  15.492   1.993  0.0273  0.1531  0.1993
    1W        W55207  19.017   2.263   3.266  0.0058  0.0666  0.0240
    1W        W55208   5.526   1.011   2.512 -0.0639  0.1909  0.0914
    1W        W55209  21.049  24.121   3.058  0.0163  0.0446  0.0100
    1W        W55210  24.014  14.096   6.075 -0.1523  0.1636  0.2567
    1W        W55211  18.439   2.006   7.999 -0.0908 -0.3857  0.2774
    1W        W55212   2.473  12.872   8.505 -0.0437 -0.3790 -0.2082
    1W        W55213   3.173  22.832   1.067  0.0291  0.0034 -0.1190
    1W        W55214  18.696   7.888   7.618 -0.1104  0.0870  0.4205
    1W        W55215  11.678  17.213   7.627  0.3447 -0.0278  0.1233
    1W        W55216   2.495   7.707   0.306  0.1078  0.1293  0.1899
    1W        W55217  19.989  14.654   1.330 -0.5398 -0.0378  0.2129
    1W        W55218  22.721  10.876   2.506 -0.0296 -0.1834 -0.1856
    1W        W55219  15.664   1.251   4.112 -0.2140  0.1813 -0.0754
    1W        W55220  19.492  23.159   7.316 -0.1255  0.1642 -0.0357
    1W        W55221  14.032   2.341   1.734  0.2200  0.1148  0.2736
    1W        W55222  17.927   0.555   9.516 -0.2050 -0.4386  0.1105
    1W        W55223  19.401  19.157   2.509 -0.0640 -0.2142  0.1884
    1W        W55224   1.996  14.078   6.431  0.2817  0.1109 -0.0682
    1W        W55225   2.459  11.858   2.305  0.3015  0.4419  0.1712
    1W        W55226  19.448  20.350   1.980 -0.2118 -0.3267  0.3100
    1W        W55227  13.057   2.908   8.288 -0.2497  0.1463  0.1205
    1W        W55228  23.358  26.603   0.329  0.0164  0.0647  0.1620
    1W        W55229   4.080  20.498   8.509 -0.0354  0.3358 -0.2732
    1W        W55230  23.386  12.116   8.372 -0.0275 -0.2532  0.2330
    1W        W55231  18.399  16.955   0.606  0.1443  0.1254  0.1254
    1W        W55232  28.624  15.174   7.199  0.2029  0.1558 -0.2361
    1W        W55233  13.683   9.251   0.023  0.2454  0.0400 -0.1401
    1W        W55234  16.649  26.315   8.115 -0.2126  0.1010  0.1986
    1W        W55235   6.707  21.917   0.061 -0.0066 -0.4734 -0.0096
    1W        W55236  16.977   3.849   0.406  0.1401  0.1473 -0.3311
    1W        W55237  16.661  20.592   9.558 -0.1480  0.2992 -0.0654
    1W        W55238  19.910  26.752   3.438  0.2317 -0.0184 -0.0082
    1W        W55239  24.881  18.220   6.642 -0.0478  0.0607  0.2201
    1W        W55240   8.026  21.475   9.268  0.0858 -0.1899  0.0737
    1W        W55241   8.970   2.575   7.106 -0.1555 -0.1634  0.2723
    1W        W55242  13.125  18.280   2.457 -0.1220  0.2923  0.3514
    1W        W55243   4.437  14.097   2.524 -0.0604  0.0848  0.0020
    1W        W55244  16.524  11.535   0.735 -0.0353 -0.0535  0.3416
    1W        W55245  15.019  21.937   2.568  0.0647 -0.0811 -0.0017
    1W        W55246  19.672  15.015   0.860 -0.0691 -0.1858  0.1213
    1W        W55247  19.204   2.919   9.558 -0.0715  0.0469  0.5696
    1W        W55248  16.132   0.744   3.207 -0.1290  0.1118 -0.0618
    1W        W55249   2.559   5.445   1.884 -0.0134  0.1668  0.0054
    1W        W55250   0.585   6.998   1.364  0.3108  0.1513 -0.0613
    1W        W55251  14.702  14.544   0.280 -0.3183  0.1670 -0.4636
    1W        W55252  26.483  28.453   6.301  0.0308 -0.6156 -0.3518
    1W        W55253   2.386  17.594   1.044  0.0426 -0.1413 -0.1722
    1W        W55254  18.438  26.781   3.256  0.1438  0.3569 -0.1377
    1W        W55255  11.276  22.977   9.336 -0.0307 -0.0958 -0.1726
    1W        W55256  18.543  25.089   0.941 -0.0869 -0.0746 -0.3701
    1W        W55257  24.005  24.379   2.472  0.0847 -0.5026 -0.0738
    1W        W55258  20.179  22.248   8.732  0.0629  0.0124 -0.0531
    1W        W55259   8.918  26.860   8.439  0.2830 -0.5171  0.1183
    1W        W55260  27.386  13.846   2.017  0.3961  0.3029  0.1442
    1W        W55261  12.528   3.596   8.545 -0.1669  0.0138  0.4589
    1W        W55262  18.388  24.947   8.818  0.1317 -0.0231  0.0413
    1W        W55263   3.398  10.758   8.834 -0.1147 -0.2473 -0.1701
    1W        W55264   1.404  23.964   7.714  0.1407  0.0564 -0.1406
    1W        W55265  15.715  28.222   8.758 -0.1563  0.1560  0.1142
    1W        W55266   5.066   7.224   9.886 -0.1309  0.0855 -0.2206
    1W        W55267  21.118  27.182   0.248 -0.0128 -0.2746  0.0756
    1W        W55268  19.156   1.391   7.281 -0.1969 -0.3338  0.0848
    1W        W55269   3.715  24.271   6.921  0.0439 -0.1336 -0.1088
    1W        W55270  17.406  12.188   2.450  0.0417  0.1487 -0.1936
    1W        W55271  23.111  23.423   1.318 -0.1725 -0.1222 -0.0969
    1W        W55272  28.513  14.546   8.771 -0.1569 -0.0654 -0.0930
    1W        W55273  19.203  21.727   7.999  0.1134 -0.1192  0.1148
    1W        W55274  17.879  28.637   8.731 -0.0068 -0.0081  0.1416
    1W        W55275  15.361  21.184   1.948 -0.0544 -0.0779 -0.3105
    1W        W55276  20.273  15.480   2.902  0.0435 -0.0291  0.2364
    1W        W55277   2.592  26.281   1.266 -0.0005  0.1339 -0.2176
    1W        W55278  13.776  10.217   8.905 -0.1174 -0.0006 -0.0707
    1W        W55279   7.288   7.508   9.297 -0.0919  0.1845 -0.0084
    1W        W55280  17.135  28.282   0.093 -0.0664 -0.1627  0.0157
    1W        W55281  10.333   3.156   0.960 -0.2409 -0.2534 -0.0150
    1W        W55282  18.882  18.247   9.544  0.2674  0.0204 -0.0611
    1W        W55283  12.562  25.003   3.599  0.0084 -0.0250 -0.4206
    1W        W55284  19.746  20.528   2.385 -0.2347  0.1028 -0.1599
    1W        W55285  12.507   8.547   7.549 -0.0709 -0.5536 -0.0460
    1W        W55286  16.585   5.157   7.678 -0.1229 -0.0188  0.0593
    1W        W55287  24.798  11.056   8.023  0.1945 -0.2496  0.2682
    1W        W55288   2.176   1.710   1.043  0.2602  0.0298  0.1547
    1W        W55289  11.586  14.744   8.524 -0.0018 -0.0105 -0.2019
    1W        W55290  21.901   5.878   1.014 -0.1473  0.1479 -0.1655
    1W        W55291  17.006  11.250   0.731  0.2237 -0.0073 -0.1102
    1W        W55292  12.627  22.399   8.845  0.1054 -0.1247  0.1058
    1W        W55293   0.488   9.770   1.262  0.1127 -0.1702 -0.1170
    1W        W55294   7.092  16.992   7.414 -0.1537 -0.0088  0.0044
    1W        W55295  11.803   5.187   0.540  0.3421 -0.3585  0.1515
    1W        W55296   4.337  13.150   8.479 -0.0694 -0.1437 -0.0905
    1W        W55297  23.864  14.673   7.196 -0.4310  0.1111  0.0882
    1W        W55298   5.147  19.308   8.717  0.1749 -0.3136 -0.2021
    1W        W55299  27.103  10.294   7.991  0.0446 -0.1428 -0.1452
    1W        W55300   0.082  18.148   0.536  0.3262 -0.1024  0.0509
    1W        W55301   0.260   9.552   7.756  0.1037 -0.0309 -0.0035
    1W        W55302   2.717  11.434   1.976  0.1346  0.2492 -0.3178
    1W        W55303  17.069  17.818   7.792  0.0437  0.0672 -0.1806
    1W        W55304  12.486   8.033   7.684  0.1408  0.3354 -0.1290
    1W        W55305   6.586   2.442   7.200 -0.3917 -0.0001  0.0040
    1W        W55306  26.370   0.629   7.308  0.0534 -0.0832  0.0211
    1W        W55307   6.292   7.356   2.767  0.1603  0.2308  0.3858
    1W        W55308  12.129  11.727   0.206 -0.1310 -0.1544 -0.0964
    1W        W55309   2.453  13.984   8.946  0.1981  0.0796  0.1744
    1W        W55310  21.216   2.080   7.135 -0.1850 -0.1638 -0.0055
    1W        W55311  17.240  13.289   0.437  0.2086 -0.1015 -0.2173
    1W        W55312  21.822  20.008   1.368 -0.2019  0.0742  0.6756
    1W        W55313  27.039  13.845   5.363 -0.0422  0.2720  0.2889
    1W        W55314   0.808   9.597   8.057 -0.6058  0.2458 -0.0178
    1W        W55315   8.513   6.309   8.608 -0.2248  0.2019 -0.1181
    1W        W55316  11.814  15.856   0.094 -0.0909 -0.1459 -0.3357
    1W        W55317   4.082   5.999   3.055 -0.0928 -0.0551 -0.2233
    1W        W55318   3.450   1.232   7.886  0.0879 -0.1910  0.2287
    1W        W55319   6.968  27.915   0.212 -0.0355  0.2297  0.0129
    1W        W55320  10.874  13.074   7.280  0.3168 -0.0438  0.1172
    1W        W55321  17.315  22.033   9.676  0.2044  0.0764 -0.0375
    1W        W55322   8.346   6.930   1.807 -0.0768 -0.0514 -0.2772
    1W        W55323   2.570  12.037   8.799 -0.2457  0.1223 -0.2427
    1W        W55324   0.546   9.575   6.886 -0.0168  0.1997  0.0348
    1W        W55325  26.562   2.542   5.667 -0.1805 -0.2397  0.0278
    1W        W55326  13.476  20.040   8.284 -0.1877 -0.0771  0.1650
    1W        W55327   3.172  23.537   0.650  0.1481  0.2893 -0.2033
    1W        W55328   3.977  19.253   1.788 -0.0176 -0.1153  0.1728
    1W        W55329   5.572   9.639   7.125  0.2827  0.3467 -0.1230
    1W        W55330  15.861  14.302   7.583  0.1064 -0.2685 -0.1969
    1W        W55331  23.363   6.406   1.278  0.1244  0.0152  0.2231
    1W        W55332  23.875  20.452   2.912  0.1067  0.1115  0.0629
    1W        W55333  22.527  11.282   8.656  0.0287  0.1218  0.1264
    1W        W55334   1.718  12.820   9.389 -0.2884 -0.2512 -0.3217
    1W        W55335  10.525   1.081   2.442  0.1344 -0.0268 -0.3940
    1W        W55336  23.420  25.582   8.085  0.3039  0.0914 -0.1807
    1W        W55337  13.813   4.843   3.254  0.2082 -0.4624 -0.1638
    1W        W55338   8.501   5.952   9.056 -0.0687 -0.1650  0.0791
    1W        W55339  12.443  19.523   1.521  0.2178 -0.0316 -0.1905
    1W        W55340  24.331   2.070   2.589 -0.2209  0.1027 -0.2324
    1W        W55341   8.837  23.364   5.871  0.0376 -0.0544 -0.2995
    1W        W55342  11.214   9.827   7.715 -0.1315 -0.1811 -0.0875
    1W        W55343  15.719  26.483   8.200 -0.2924 -0.0533 -0.1387
    1W        W55344  20.866  26.550   0.728  0.1626 -0.2262 -0.2348
    1W        W55345   5.071  25.837   9.015 -0.2497  0.5262 -0.0120
    1W        W55346  23.793  19.180   6.335  0.0397 -0.1939 -0.3794
    1W        W55347   2.313  12.617   8.144  0.3111  0.0818 -0.1423
    1W        W55348   0.369  25.580   8.542  0.0248  0.0738  0.0293
    1W        W55349  28.364  27.803   9.093 -0.3316 -0.2621  0.1320
    1W        W55350  23.343   1.040   8.250  0.0924 -0.1261 -0.1296
    1W        W55351   3.894  21.042   1.552  0.0047 -0.3801  0.2079
    1W        W55352  25.278  20.302   3.283  0.0224 -0.0934  0.0349
    1W        W55353   7.651  26.392   8.108  0.0131 -0.4327  0.1000
    1W        W55354  19.011  17.271   9.720  0.0795  0.1443  0.0391
    1W        W55355   8.198  14.502   1.359  0.0255 -0.0388  0.0941
    1W        W55356  17.139  21.184   3.103  0.2434 -0.0271 -0.0111
    1W        W55357   9.247  24.248   9.781  0.0243 -0.0407 -0.2856
    1W        W55358   7.546   0.637   9.158 -0.1326  0.1085 -0.0248
    1W        W55359  12.248   0.930   1.398  0.0752 -0.0745 -0.0811
    1W        W55360  13.883   9.646   8.203  0.0430  0.0137 -0.1844
    1W        W55361  25.040  22.750   9.202  0.1602 -0.0872  0.1369
    1W        W55362  20.929   4.456   1.195  0.3048  0.1008  0.0600
    1W        W55363  11.281  18.687   9.459 -0.0020 -0.0768 -0.0348
    1W        W55364  25.654  13.347   6.389 -0.1634  0.0558 -0.0509
    1W        W55365   5.698  15.509   2.549  0.3956  0.0639 -0.0897
    1W        W55366  24.744  18.893   1.576  0.2753 -0.0790  0.0964
    1W        W55367   0.105  19.013   7.156  0.0636  0.3126 -0.0179
    1W        W55368   3.265  21.233   7.172 -0.0951 -0.0634 -0.0645
    1W        W55369  24.863  21.782   2.154 -0.2632  0.0272  0.3695
    1W        W55370  17.195   2.501   3.358 -0.0382  0.0197 -0.0266
    1W        W55371  18.868   5.654   2.004  0.1664 -0.0942  0.1249
    1W        W55372   2.452  26.810   2.373 -0.4611  0.1829  0.2375
    1W        W55373   2.548  20.851   9.035  0.0820  0.0697 -0.0020
    1W        W55374  27.767  25.202   9.284 -0.6675  0.0712 -0.1454
    1W        W55375  24.596   6.664   7.169 -0.0250 -0.0778  0.0774
    1W        W55376  14.822   2.898   2.957 -0.1033  0.3295 -0.0950
    1W        W55377   2.830   8.465   2.612 -0.1576 -0.2276 -0.0876
    1W        W55378  27.135  14.783   6.294 -0.0413 -0.1031 -0.2454
    1W        W55379   6.603   1.366   9.751  0.2009  0.3310 -0.1126
    1W        W55380   4.957  21.242   0.388 -0.0340 -0.1402 -0.0711
    1W        W55381  10.949  17.509   1.594  0.1256  0.3274  0.1914
    1W        W55382   6.061   7.763   3.291  0.3315  0.0463 -0.1775
    1W        W55383  23.278   5.653   7.802 -0.0089 -0.3205  0.1685
    1W        W55384  13.928  11.995   8.471  0.2092  0.2190 -0.0208
    1W        W55385  21.868  15.174   9.137  0.0017 -0.1484  0.1574
    1W        W55386   6.533  23.407   8.391  0.3781  0.0029 -0.0892
    1W        W55387   5.864   9.477   2.485 -0.1003  0.2161  0.0528
    1W        W55388  19.286  19.997   2.429  0.3384  0.2059  0.2509
    1W        W55389  19.164  20.872   0.281 -0.0865 -0.0441  0.1762
    1W        W55390  21.363   8.946   2.764 -0.1942 -0.1348  0.0599
    1W        W55391  20.018  20.342   2.786  0.2101 -0.2104 -0.2238
    1W        W55392  13.218   4.571   1.688  0.1091 -0.1003  0.1040
    1W        W55393  25.439   0.514   0.110  0.1699 -0.1613 -0.0754
    1W        W55394  14.271  23.703   0.721 -0.0271 -0.1020  0.0153
    1W        W55395   1.959   8.512   8.441 -0.3959 -0.0803 -0.0202
    1W        W55396  27.901  10.032   6.511 -0.0025  0.1175  0.0224
    1W        W55397   9.440  18.141   8.409 -0.0781 -0.1263  0.3064
    1W        W55398  16.888  28.061   2.741  0.2246  0.1086 -0.2416
    1W        W55399  17.990   7.070   0.545 -0.0882 -0.0254  0.0742
    1W        W55400  16.821  24.889   3.330  0.2079  0.3989  0.1131
    1W        W55401  26.214  13.495   1.905 -0.1967 -0.0621 -0.1003
    1W        W55402  28.701  16.432   6.762  0.1063 -0.0775  0.1491
    1W        W55403  16.164  14.638   2.551 -0.0825  0.0071  0.1831
    1W        W55404  28.192  16.567   1.419  0.2254 -0.0916  0.0580
    1W        W55405  12.465   0.023   8.831 -0.1135 -0.0720  0.1264
    1W        W55406   5.205   7.651   7.600  0.2570  0.0891  0.0566
    1W        W55407   7.764  13.841   0.928  0.2860 -0.3999  0.1492
    1W        W55408  25.036  20.279   2.226 -0.0013 -0.0351  0.2123
    1W        W55409  24.576   8.123   9.802 -0.1103  0.0018  0.1226
    1W        W55410   6.097  20.485   7.849  0.1550 -0.4042  0.2173
    1W        W55411   7.325   3.789   8.391 -0.0021 -0.3548  0.1164
    1W        W55412   9.929  16.899   1.833  0.0288  0.0722 -0.1395
    1W        W55413  23.498  18.172   8.255  0.1030  0.2383 -0.1267
    1W        W55414  15.338  16.452   1.715  0.0381  0.2356  0.1665
    1W        W55415   2.275   1.310   2.497 -0.0635 -0.0292  0.1706
    1W        W55416  27.874  20.820   8.618  0.0628 -0.2127 -0.1311
    1W        W55417  23.429  16.814   2.641  0.1271  0.1342  0.1844
    1W        W55418  15.466  24.975   0.668  0.1417 -0.2230  0.2007
    1W        W55419  14.713   2.779   2.024  0.0978 -0.4066  0.0213
    1W        W55420  20.422  18.399   7.718 -0.0556 -0.0748 -0.0718
    1W        W55421   9.543  24.608   6.994  0.1179 -0.1198 -0.1069
    1W        W55422   7.071   0.210   2.383  0.0199 -0.2218 -0.1644
    1W        W55423  21.796   8.102   9.817  0.2400 -0.2553 -0.4783
    1W        W55424  16.540   2.266   8.357 -0.3815 -0.0517 -0.1635
    1W        W55425   1.642   7.337   9.320 -0.1024  0.1769 -0.0776
    1W        W55426   5.321   3.849   2.494 -0.0538 -0.0294 -0.2218
    1W        W55427   7.356  10.548   0.468 -0.1647  0.4509 -0.1746
    1W        W55428  13.684  12.288   1.014 -0.2754 -0.3832  0.0606
    1W        W55429  26.644   9.455   6.203 -0.2160 -0.2885  0.0574
    1W        W55430   5.000  14.481   9.737 -0.1216 -0.2238 -0.0365
    1W        W55431  25.189   1.271   8.873  0.1739 -0.0726  0.0484
    1W        W55432  26.938  16.091   7.400 -0.1574  0.1063  0.0448
    1W        W55433   4.009  22.187   7.531  0.1030 -0.0368 -0.1969
    1W        W55434  22.124  12.446   8.819 -0.1747  0.0406  0.0422
    1W        W55435   1.792  18.231   5.967 -0.0832  0.0117  0.0845
    1W        W55436  16.301   9.554   8.622 -0.0933 -0.1241  0.0019
    1W        W55437   4.505   2.138   8.280  0.2865  0.0834 -0.1982
    1W        W55438  14.159  18.255   9.913 -0.0434  0.0203  0.3366
    1W        W55439  21.728  13.291   9.281  0.0471 -0.4365  0.0205
    1W        W55440  17.234  11.312   9.428  0.1527 -0.2870  0.0817
    1W        W55441  24.762  10.816   9.370  0.3437  0.4124  0.0680
    1W        W55442  22.058  19.845   0.075  0.0286 -0.0371  0.1376
    1W        W55443  21.471   4.268   2.298  0.1113 -0.4697 -0.1335
    1W        W55444  11.199  25.137   7.366  0.0037  0.0833  0.1867
    1W        W55445   8.987   0.166   2.419 -0.0259  0.0144 -0.0573
    1W        W55446  13.508   9.944   0.320  0.1011 -0.3283  0.0059
    1W        W55447  14.353  27.380   0.005 -0.1383  0.2023  0.4844
    1W        W55448  20.882  12.354   7.769 -0.1360  0.0446  0.1226
    1W        W55449  15.290  12.465   2.030  0.0673 -0.1889  0.1429
    1W        W55450   5.182  24.347   1.533 -0.1063  0.0370 -0.3063
    1W        W55451   4.441  12.732   1.565  0.1838  0.0959 -0.2028
    1W        W55452  17.428  19.457   2.973  0.1480  0.1245  0.0151
    1W        W55453  10.034   3.272   9.773 -0.0053  0.2003 -0.2043
    1W        W55454  16.847   2.057   7.138  0.2270  0.1913  0.1920
    1W        W55455   2.528   5.084   0.391 -0.0309 -0.0331 -0.1143
    1W        W55456   9.308   7.156   9.898 -0.3661 -0.1807  0.3259
    1W        W55457  19.282  26.658   9.323 -0.0726  0.1827  0.3107
    1W        W55458  17.613   8.598   9.587 -0.2740 -0.4299  0.1888
    1W        W55459   6.180   7.367   7.608  0.0447  0.0994  0.2376
    1W        W55460   0.047  25.929   6.369 -0.1618  0.0412 -0.3412
    1W        W55461  24.662  25.904   7.529 -0.2939  0.2047 -0.2037
    1W        W55462   9.831   7.359   9.923 -0.1047  0.2111  0.1234
    1W        W55463  26.867  22.053   0.019 -0.0686  0.2831 -0.0603
    1W        W55464  22.381  27.831   9.231  0.1325  0.1669  0.2036
    1W        W55465  17.372   7.827   0.625 -0.3375  0.2290  0.1970
    1W        W55466   3.221   0.423   9.160  0.1021 -0.1369 -0.2153
    1W        W55467  24.120   6.981   7.586 -0.1294  0.2025  0.1937
    1W        W55468   8.436  23.666   1.284 -0.2053 -0.0191  0.0378
    1W        W55469   4.071  25.169   8.265  0.1966  0.0774  0.1016
    1W        W55470  12.393  14.666   1.300  0.1276  0.2333  0.0166
    1W        W55471   2.989  10.447   0.502  0.2377  0.0339 -0.1990
    1W        W55472  25.507   2.176   1.067  0.0126 -0.2587 -0.1687
    1W        W55473   9.011   5.980   9.922  0.2423  0.1456  0.1182
    1W        W55474   0.750   1.485   7.693  0.3123  0.5357  0.1393
    1W        W55475  11.062   4.562   7.603  0.0379 -0.1689 -0.0589
    1W        W55476  18.893   1.240   8.880  0.1091 -0.2203 -0.1216
    1W        W55477  23.574  21.530   9.662 -0.0285  0.6009 -0.1475
    1W        W55478  24.725  24.434   0.484 -0.2629 -0.1281 -0.1025
    1W        W55479   0.014   0.125   7.207  0.1301  0.2638  0.0139
    1W        W55480  12.088  26.474   2.905  0.1041  0.1391 -0.1351
    1W        W55481   1.204  26.841   2.335 -0.0573  0.1557  0.0547
    1W        W55482  11.225  22.178   2.202 -0.0962 -0.2018  0.0187
    1W        W55483  14.024  22.973   1.189 -0.0243 -0.0618  0.0557
    1W        W55484   4.261   2.753   8.389 -0.1300 -0.1960 -0.1467
    1W        W55485  25.170   8.505   7.106 -0.0467  0.2493 -0.1109
    1W        W55486   2.814  21.558   2.382  0.0229 -0.1980 -0.2038
    1W        W55487  19.444   3.000   1.739 -0.0003 -0.0976  0.2821
    1W        W55488   5.171  12.349   0.248  0.0572 -0.0297  0.0733
    1W        W55489  28.005  15.852   6.540 -0.0540 -0.0369 -0.2177
    1W        W55490  18.491  18.167   2.642 -0.4116 -0.1626  0.1591
    1W        W55491  21.307  20.134   9.868 -0.2849 -0.0923 -0.0106
    1W        W55492   4.276  17.052   7.753  0.3216 -0.0036  0.4751
    1W        W55493   4.763  22.807   8.287 -0.1092  0.0443  0.2840
    1W        W55494  24.080  27.308   8.191  0.0075 -0.1905 -0.0117
    1W        W55495  12.811  17.141   9.133 -0.1760  0.1928 -0.2857
    1W        W55496  23.491  23.711   2.165  0.0079 -0.1298  0.0752
    1W        W55497  13.601  27.374   8.714  0.0961 -0.0597 -0.2374
    1W        W55498  20.943  23.349   8.622  0.0653 -0.0890  0.1519
    1W        W55499  17.813   5.636   1.082  0.2078 -0.2464 -0.1361
    1W        W55500   0.484   0.294   2.774  0.0501 -0.3792  0.2294
    1W        W55501  10.332   1.499   2.646 -0.0942  0.1036  0.2266
    1W        W55502  15.210  14.385   0.206 -0.0829  0.1485 -0.0353
    1W        W55503  20.110   9.442   7.659  0.0966 -0.1501  0.2696
    1W        W55504  17.461   1.375   6.913  0.1005  0.1109  0.0865
    1W        W55505  14.210   2.186   7.932 -0.2058 -0.1485 -0.2074
    1W        W55506  10.218   8.680   9.209  0.0718  0.1148  0.1927
    1W        W55507  11.006  13.785   1.683 -0.2198  0.1579  0.1019
    1W        W55508  24.791  12.567   8.249  0.0397 -0.2432 -0.1548
    1W        W55509   2.428  23.214   9.338  0.1404 -0.1901  0.1758
    1W        W55510   6.634  15.098   8.658 -0.0806  0.1168 -0.0428
    1W        W55511  26.224   9.291   9.677  0.0937  0.1696  0.0103
    1W        W55512   1.790  12.439   1.979 -0.0312 -0.0131  0.0745
    1W        W55513  15.056   3.153   1.772 -0.1007  0.0353 -0.4068
    1W        W55514   4.319  14.516   1.175 -0.0448 -0.0721 -0.3235
    1W        W55515   6.756  12.844   9.131 -0.0073 -0.4511 -0.1631
    1W        W55516  21.204  10.401   1.467  0.0132 -0.1237 -0.1584
    1W        W55517  17.288  23.941   9.869 -0.2332 -0.2361  0.2426
    1W        W55518   6.679  28.230   1.531  0.0572 -0.0357 -0.0671
    1W        W55519  15.123  11.660   1.533  0.0298 -0.0548 -0.1727
    1W        W55520   9.074  10.870   2.147  0.2990 -0.0204 -0.1237
    1W        W55521  22.707  12.387   9.771 -0.3149 -0.1177  0.0325
    1W        W55522  23.308   4.468   0.686  0.0352  0.1217  0.2090
    1W        W55523  23.719   4.064   9.281  0.0754 -0.0102 -0.0850
    1W        W55524   7.557  15.465   2.390 -0.0836 -0.1263 -0.0324
    1W        W55525   3.062   5.121   0.247 -0.0502 -0.0136 -0.1136
    1W        W55526   3.664  22.377   0.706 -0.2845  0.0643 -0.0524
    1W        W55527  18.586  20.844   0.236  0.2195 -0.1923  0.1693
    1W        W55528   6.151   2.664   2.774 -0.0386 -0.0011  0.0358
    1W        W55529  12.152  22.360   8.653  0.2284 -0.0979  0.1641
    1W        W55530   1.281  12.702   9.620  0.2181  0.2312 -0.0846
    1W        W55531   4.880  16.982   6.202  0.1624  0.6385  0.2969
    1W        W55532  23.253   7.010   6.256  0.2987  0.2553 -0.2607
    1W        W55533   6.517  20.245   7.680 -0.3842  0.2626 -0.1742
    1W        W55534  27.781  15.459   8.381  0.0878 -0.0609 -0.0351
    1W        W55535  10.301   0.014   2.775 -0.0912 -0.3375  0.1744
    1W        W55536  26.655  19.494   2.558  0.2753  0.0385 -0.1590
    1W        W55537   4.458   0.188   8.096  0.1642  0.2310  0.1773
    1W        W55538  23.700   5.588   8.658 -0.1415 -0.0823  0.2314
    1W        W55539  22.083  22.785   0.006 -0.2191 -0.0417  0.4286
    1W        W55540  23.368   2.675   2.819 -0.0461 -0.1279  0.0480
    1W        W55541   5.049  22.616   0.512  0.2451  0.0802  0.0278
    1W        W55542  12.060  10.802   7.985 -0.1495 -0.0098 -0.0350
    1W        W55543  13.750  21.845   1.127  0.1847 -0.1391  0.1565
    1W        W55544  16.469  20.337   8.603 -0.1466  0.0012  0.1820
    1W        W55545   7.550  28.020   2.260  0.1083 -0.1024  0.1835
    1W        W55546   2.947   2.693   0.071 -0.1513 -0.0065  0.0009
    1W        W55547  26.496  27.962   9.846  0.2980 -0.0123  0.0469
    1W        W55548   1.285  28.014   6.126 -0.3740 -0.1999 -0.0542
    1W        W55549  13.560  20.867   3.184  0.1923  0.1492  0.1713
    1W        W55550   1.296   7.633   9.515 -0.0002  0.0438 -0.0122
    1W        W55551  11.873  13.752   7.293 -0.0194 -0.0830 -0.0555
    1W        W55552   6.181  24.473   9.016 -0.1205  0.0812  0.2160
    1W        W55553  15.981  12.015   2.790  0.0723 -0.0370  0.0060
    1W        W55554  22.693  22.054   1.106 -0.1560  0.0699  0.3892
    1W        W55555  10.684  21.729   1.368  0.2195 -0.0509 -0.0591
    1W        W55556   9.094  19.451   6.664 -0.2232  0.0240  0.2378
    1W        W55557  10.971  19.080   9.388  0.0894 -0.0732 -0.1813
    1W        W55558   2.394  24.231   7.054  0.4695  0.1612 -0.3428
    1W        W55559  20.130  19.630   1.605  0.1036 -0.1502 -0.0478
    1W        W55560   2.181  26.348   2.234 -0.1277 -0.0579 -0.0890
    1W        W55561  20.609  14.903   8.548  0.1762 -0.0172  0.2089
    1W        W55562   1.146  23.881   8.152  0.2405  0.0198 -0.1900
    1W        W55563   0.609  27.272   2.579  0.0719  0.2162  0.3398
    1W        W55564  20.756   3.224   1.730 -0.0261  0.0557  0.0189
    1W        W55565   4.994  21.066   7.367  0.0492 -0.0501 -0.5077
    1W        W55566   2.759  22.824   2.650  0.0680  0.0468 -0.2964
    1W        W55567  26.341   8.385   9.835  0.2926  0.1037  0.1512
    1W        W55568  15.107   6.279   3.165 -0.2096 -0.0412  0.2312
    1W        W55569   5.327   2.449   9.840 -0.0228  0.0942  0.2720
    1W        W55570  26.338  19.093   6.166  0.0720  0.0310 -0.0314
    1W        W55571  21.732  20.545   6.979  0.0320  0.1147 -0.2094
    1W        W55572  28.003   5.178   6.931  0.2033 -0.1801 -0.1296
    1W        W55573  20.592  20.568   8.311 -0.0193  0.0420  0.1144
    1W        W55574  13.142   2.506   7.991  0.1621 -0.0397 -0.3044
    1W        W55575   5.813   2.819   3.925 -0.2596 -0.0579  0.1736
    1W        W55576   1.804  25.145   9.826 -0.3326 -0.2468  0.0838
    1W        W55577  19.663   8.704   7.928 -0.1583 -0.1588  0.2011
    1W        W55578  11.296  12.828   0.799  0.2039  0.1075  0.1146
    1W        W55579   2.600   9.526   8.935  0.1548 -0.0985  0.0157
    1W        W55580  14.522  17.884   1.982 -0.0418  0.0063  0.4559
    1W        W55581  25.118   7.943   3.037  0.0308 -0.1515  0.1511
    1W        W55582   1.659   7.678   8.492 -0.0634  0.1368  0.1285
    1W        W55583  25.865   4.551   0.033  0.0155  0.1255  0.3926
    1W        W55584   7.617   9.187   7.488  0.3050  0.0122 -0.1927
    1W        W55585  27.817  13.620   6.491  0.3881 -0.1772  0.0103
    1W        W55586   4.620  24.169   1.613 -0.2441 -0.2075 -0.0623
    1W        W55587   5.903  25.342   9.572 -0.1009 -0.0482  0.0056
    1W        W55588   2.028  25.441   5.923  0.0468 -0.3095  0.1007
    1W        W55589   2.633  24.788   2.301 -0.1186 -0.0202 -0.0080
    1W        W55590  16.666   6.558   2.377 -0.0206 -0.3380 -0.2546
    1W        W55591  18.350  20.099   2.742 -0.1281 -0.1976 -0.0396
    1W        W55592   0.496  13.482   2.527  0.0907 -0.0895 -0.0534
    1W        W55593  27.689   4.024   0.742 -0.0098  0.1166 -0.1307
    1W        W55594  10.225  16.613   2.571 -0.3045 -0.2439  0.4152
    1W        W55595   7.367   5.273   0.283  0.1424 -0.1118  0.0719
    1W        W55596  22.864  12.006   1.252  0.0581  0.5113  0.0232
    1W        W55597   1.753  21.491   8.361  0.1562  0.0129 -0.4764
    1W        W55598   1.562   8.144   8.589 -0.5947 -0.1777 -0.0039
    1W        W55599  12.540  22.685   2.348 -0.0096  0.0030 -0.0352
    1W        W55600   4.882  28.549   3.893 -0.1251  0.2129 -0.1710
    1W        W55601   5.451  24.292   2.051  0.1907  0.1292  0.2468
    1W        W55602  11.637  15.800   2.506  0.2339  0.0122  0.1029
    1W        W55603   0.884  20.082   7.081 -0.1055  0.0835  0.1671
    1W        W55604  23.699   4.333   8.434 -0.3007 -0.1788 -0.3163
    1W        W55605  16.889  25.935   2.048 -0.1304  0.0607  0.1312
    1W        W55606  23.280  23.910   1.156 -0.2909  0.4192  0.1783
    1W        W55607  28.219  25.011   9.501  0.1053 -0.1077  0.3239
    1W        W55608  13.157  25.396   6.780 -0.0300 -0.0206  0.0471
    1W        W55609  10.788   2.258   4.024 -0.0160  0.3994  0.0273
    1W        W55610  22.917   8.460   0.070 -0.0019 -0.0585  0.0226
    1W        W55611  25.380  24.823   7.766 -0.0129  0.0130 -0.2387
    1W        W55612   5.112   5.830   8.300 -0.2317 -0.1702 -0.0334
    1W        W55613  14.778   8.136   0.881 -0.1152 -0.2889 -0.1657
    1W        W55614  17.605  17.057   1.742 -0.3420  0.0255 -0.3082
    1W        W55615  20.225   7.818   2.616 -0.2003  0.0146  0.0492
    1W        W55616  18.720   2.718   1.630  0.2396  0.3426 -0.0838
    1W        W55617  28.104  19.440   6.669  0.0301 -0.2172 -0.4338
    1W        W55618  13.752   7.958   3.512 -0.0959  0.0298  0.1863
    1W        W55619   1.260  25.240   2.109 -0.0534 -0.1419 -0.0459
    1W        W55620  23.714  25.030   3.347  0.0152  0.1226  0.0118
    1W        W55621   9.779   9.138   0.032 -0.0264 -0.1078 -0.2173
    1W        W55622  26.182   6.372   7.570  0.0972 -0.1571  0.0201
    1W        W55623   3.616  18.605   8.338  0.1527 -0.0811  0.1013
    1W        W55624   3.618   7.656   6.872  0.1434 -0.2663  0.1913
    1W        W55625   4.685   6.201   7.222 -0.1142  0.0736 -0.0493
    1W        W55626  20.580  13.942   7.563  0.2530  0.1637  0.3918
    1W        W55627  27.859   4.601   8.302  0.3588  0.1241  0.3674
    1W        W55628   7.666  19.205   6.679  0.2944  0.3213  0.2485
    1W        W55629  26.743  21.535   6.245  0.1161 -0.1009  0.1894
    1W        W55630  11.361  28.695   3.960 -0.1814  0.1253 -0.0476
    1W        W55631  17.447   1.661   1.927 -0.0642  0.2519 -0.0651
    1W        W55632  13.144  25.434   0.778  0.0140  0.1854  0.0438
    1W        W55633   1.007  18.514   6.177  0.1211  0.0769  0.0338
    1W        W55634  16.924   4.061   8.704 -0.1948  0.0432  0.0929
    1W        W55635  23.868  23.542   3.353  0.1478  0.0126 -0.3793
    1W        W55636   0.119   0.700   0.383 -0.1690 -0.0561  0.0119
    1W        W55637   7.796  20.738   7.088  0.2057  0.1445  0.1989
    1W        W55638  12.405  14.397   8.911  0.0523  0.0447 -0.1462
    1W        W55639  14.289  25.857   8.686  0.2081  0.0515  0.0036
    1W        W55640   4.472  23.721   8.105  0.0786  0.0096 -0.2601
    1W        W55641  12.508  10.596   7.807 -0.1350  0.3798 -0.1277
    1W        W55642  22.866  19.759   9.513 -0.1542 -0.0913 -0.4360
    1W        W55643   3.545   9.692   2.405  0.0808 -0.1286  0.0672
    1W        W55644  25.971  15.038   8.160 -0.1302 -0.0015  0.1315
    1W        W55645  23.082  26.549   1.154  0.0605  0.2140 -0.0291
    1W        W55646  12.397   1.407   1.686 -0.3788  0.2828  0.0069
    1W        W55647  11.560  10.261   1.953  0.0513 -0.0598  0.1345
    1W        W55648   9.031  24.757   9.477 -0.0374 -0.0432  0.0794
    1W        W55649   6.428  21.349   6.604 -0.0174  0.0927  0.1701
    1W        W55650  16.023  23.247   0.674 -0.2639  0.0025 -0.3920
    1W        W55651  11.389   8.986   1.895  0.1686  0.0312  0.1574
    1W        W55652  14.741   5.932   9.726 -0.1155 -0.1719  0.0338
    1W        W55653  18.213   1.509   2.189 -0.0160 -0.3272  0.1002
    1W        W55654  14.805   9.977   8.345  0.0637 -0.0855 -0.2995
    1W        W55655   0.164   7.204   9.114 -0.0307 -0.1808 -0.2478
    1W        W55656  10.785  18.062   7.604 -0.1879  0.3056 -0.0651
    1W        W55657   8.846   7.558   9.896 -0.0841 -0.2675  0.4338
    1W        W55658  22.685  25.654   1.459  0.1552 -0.0166  0.0335
    1W        W55659  17.202  22.595   7.319  0.0047 -0.1738 -0.1298
    1W        W55660  24.395   6.082   7.024 -0.3074 -0.3702  0.0047
    1W        W55661   6.817   8.369   7.306 -0.0474  0.0120  0.2123
    1W        W55662   2.614   5.988   0.361 -0.1751 -0.1528  0.3343
    1W        W55663  10.907  21.145   0.071 -0.2189  0.0817 -0.1151
    1W        W55664   1.410  27.863   2.172 -0.1391 -0.1448 -0.0354
    1W        W55665   9.013  11.842   2.127  0.0422 -0.1760 -0.0089
    1W        W55666   6.515  17.703   7.535 -0.1069 -0.2018  0.1034
    1W        W55667   9.513   4.342   9.244 -0.0787 -0.1495 -0.2409
    1W        W55668  23.122   0.624   0.477 -0.1305  0.2117  0.2124
    1W        W55669  25.294  11.610   7.088 -0.0411  0.0115  0.2590
    1W        W55670  12.192  14.676   2.046  0.2597  0.0220 -0.2262
    1W        W55671  22.177  26.216   8.061 -0.0333 -0.0596  0.0482
    1W        W55672  12.091  12.004   2.139  0.2051  0.2016 -0.0498
    1W        W55673   9.001  26.010   0.000  0.0028  0.2595  0.0150
    1W        W55674  16.216  28.207   8.667 -0.0088  0.1951  0.1724
    1W        W55675  19.444  12.098   3.187  0.0830 -0.0670  0.0935
    1W        W55676  16.964  16.652   1.062 -0.0537 -0.0134 -0.2306
    1W        W55677  24.197   7.169   9.667 -0.0487  0.1298 -0.3637
    1W        W55678  24.284  18.578   7.602 -0.0667 -0.2896 -0.0608
    1W        W55679  12.713  28.362   2.565  0.0592 -0.1512 -0.3177
    1W        W55680  26.466   4.004   2.462  0.2523  0.0089  0.1947
    1W        W55681  25.748  15.022   5.616  0.0675  0.1136  0.1935
    1W        W55682   9.383  21.640   6.833  0.5789  0.1181  0.1359
    1W        W55683  26.177   6.266   8.156 -0.2300  0.2418 -0.0348
    1W        W55684   8.389   3.228   1.619 -0.0364 -0.0002  0.0269
    1W        W55685   7.247   7.899   8.965 -0.1506 -0.1253 -0.1643
    1W        W55686  22.605   4.005   9.145  0.3404  0.1714 -0.0215
    1W        W55687   0.004  13.698   8.692  0.0665 -0.0982  0.0156
    1W        W55688  23.429  23.755   9.927 -0.2242  0.0510 -0.0641
    1W        W55689  21.812  26.116   9.692  0.2507 -0.2445 -0.0667
    1W        W55690  22.864  26.139   7.593 -0.0567 -0.2776 -0.0401
    1W        W55691   7.238  16.605   2.892 -0.0887 -0.0613  0.0418
    1W        W55692   6.261   9.182   1.507  0.0387 -0.2158  0.0741
    1W        W55693  19.568  17.403   9.506  0.0579 -0.0588  0.0736
    1W        W55694  12.206  19.307   9.927 -0.2282 -0.1208  0.0511
    1W        W55695  18.854  22.207   1.040 -0.1418 -0.1330 -0.3212
    1W        W55696   1.994   8.032   8.316 -0.0931 -0.0251  0.0597
    1W        W55697   6.837  11.994   9.377 -0.2036  0.2275 -0.3157
    1W        W55698  23.390  17.857   7.850  0.0125 -0.3013 -0.2046
    1W        W55699  10.955   8.441   1.183 -0.0297  0.1256 -0.2226
    1W        W55700   3.895  13.413   8.147  0.1539  0.1017 -0.1367
    1W        W55701   2.987  25.785   7.387 -0.3344 -0.3744  0.1414
    1W        W55702  25.680  18.250   9.909 -0.1704 -0.0640  0.1342
    1W        W55703  14.213   5.573   2.701  0.0883  0.1607  0.2202
    1W        W55704  11.823  18.532   9.803 -0.1372  0.2548  0.0535
    1W        W55705  14.650  15.335   8.183  0.0066 -0.2318  0.0863
    1W        W55706  27.720  18.860   1.098 -0.1581  0.3172  0.0600
    1W        W55707   1.916  21.711   1.147 -0.2844  0.0659  0.0710
    1W        W55708   3.717  24.472   9.496 -0.0002  0.2078 -0.1559
    1W        W55709  11.436  26.149   0.519  0.1449  0.4179 -0.1612
    1W        W55710  26.758   0.088   1.791  0.0857 -0.1880 -0.1115
    1W        W55711   3.506  20.839   0.497  0.0241 -0.3928 -0.1060
    1W        W55712  16.596  19.955   8.962 -0.0180 -0.2854  0.0154
    1W        W55713  15.657   4.657   8.874  0.1048  0.1793  0.1699
    1W        W55714  27.944  20.806   7.249  0.1070  0.0055 -0.0809
    1W        W55715  12.931  28.597   9.816 -0.2903  0.0750 -0.0378
    1W        W55716   8.509  27.627   9.776 -0.2864 -0.4029 -0.0420
    1W        W55717   9.311  24.742   0.050  0.1842 -0.1655 -0.0979
    1W        W55718   1.252  17.859   1.624  0.2035 -0.0680 -0.1929
    1W        W55719   9.414   9.340   0.363 -0.0000 -0.1216  0.0431
    1W        W55720   3.397  26.805   9.925  0.0761 -0.1506  0.1795
    1W        W55721  10.638  25.587   1.415 -0.1770 -0.0380  0.2143
    1W        W55722   8.064   2.812   2.378 -0.0901  0.0456  0.2475
    1W        W55723   1.743   8.980   8.468  0.0296  0.1334  0.3019
    1W        W55724   3.261   4.764   8.642 -0.0150  0.0186  0.0392
    1W        W55725   9.056   9.266   1.352 -0.2760  0.0936  0.2000
    1W        W55726  22.678   2.057   7.655  0.0556  0.2820 -0.1302
    1W        W55727  25.800  12.373   7.522  0.2532 -0.1580  0.1248
    1W        W55728  22.368  11.193   0.857  0.1052 -0.1053  0.3733
    1W        W55729   6.220  27.275   8.819 -0.1304 -0.2531  0.1819
    1W        W55730  22.175   6.826   7.519 -0.2343  0.0988 -0.3346
    1W        W55731  10.981  24.829   9.349  0.0296 -0.1316 -0.2359
    1W        W55732  24.595   5.602   1.293  0.2306  0.2489 -0.1175
    1W        W55733   8.130  18.011   1.720 -0.1254 -0.0854  0.1566
    1W        W55734  12.444  18.967   1.680  0.3377 -0.1954  0.0979
    1W        W55735   7.989  12.790   8.310 -0.1276 -0.0662 -0.2612
    1W        W55736  14.994   3.525   0.510 -0.0491 -0.0877 -0.0940
    1W        W55737  28.704   3.517   2.313 -0.4512  0.0852  0.1696
    1W        W55738   5.514  26.037   8.802 -0.1836 -0.2729 -0.0024
    1W        W55739  13.065  12.972   9.254 -0.0565  0.0686 -0.0095
    1W        W55740   4.008  14.399   2.682 -0.0013 -0.1290 -0.4465
    1W        W55741  20.757  22.811   1.006 -0.1364  0.0212 -0.1519
    1W        W55742  27.402  27.331   2.132  0.1763  0.0559  0.2064
    1W        W55743  11.996   6.707   3.007  0.1616  0.1399 -0.0768
    1W        W55744   4.249  21.514   2.137 -0.2804  0.2715  0.1157
    1W        W55745  25.507  25.983   0.259 -0.1809 -0.1771 -0.0690
    1W        W55746  11.919  10.625   0.142  0.3558  0.0620 -0.3238
    1W        W55747  19.213  10.152   1.585 -0.1083  0.1382  0.1559
    1W        W55748  19.396  10.683   2.738 -0.2736 -0.0471  0.1205
    1W        W55749   1.574  20.546   0.106  0.0590  0.0806  0.0326
    1W        W55750  16.754   7.493   8.724  0.0935  0.1017  0.1515
    1W        W55751   6.172  13.733   0.559 -0.2258  0.1213  0.2115
    1W        W55752  22.540   7.316   0.889 -0.0174 -0.1575 -0.0195
    1W        W55753   7.193   1.091   3.421  0.0874 -0.0448 -0.0177
    1W        W55754  14.439   9.583   8.767 -0.2008  0.4944  0.4138
    1W        W55755  17.656  16.333   2.215 -0.2860 -0.0382  0.3672
    1W        W55756   1.032  21.372   9.006 -0.0056  0.4370  0.1056
    1W        W55757   8.536   2.716   1.534 -0.0707 -0.0002  0.2587
    1W        W55758  13.738  19.795   0.382 -0.3712  0.0135  0.0864
    1W        W55759   4.618  28.194   9.697 -0.0452  0.1071  0.0505
    1W        W55760  24.002   2.811   9.390  0.0740 -0.1653 -0.0457
    1W        W55761  16.711  15.642   8.468 -0.1056 -0.0840 -0.1240
    1W        W55762   9.586   3.103   0.100  0.0846 -0.3422  0.0000
    1W        W55763  23.212   2.446   1.492  0.0934  0.0273  0.0544
    1W        W55764  12.709  14.700   9.178  0.0025 -0.0026 -0.0369
    1W        W55765   6.565   3.837   9.717 -0.2805  0.1606 -0.2310
    1W        W55766  14.698   4.236   3.546 -0.1708 -0.0169 -0.1255
    1W        W55767   6.997  10.770   0.296  0.0996  0.0580 -0.2492
    1W        W55768  27.132  23.187   6.751  0.1797  0.4230  0.0140
    1W        W55769   5.674  18.065   1.673 -0.1995 -0.0961 -0.0999
    1W        W55770   9.076  14.356   7.646  0.1846 -0.0991 -0.0637
    1W        W55771  17.305   9.267   7.636  0.0238  0.2460 -0.0832
    1W        W55772  16.304  13.920   7.642 -0.3207 -0.0876 -0.0578
    1W        W55773   7.753  27.053   2.196  0.1739  0.0116  0.0783
    1W        W55774  13.067   0.313   9.596 -0.0293  0.1608  0.1611
    1W        W55775   0.420   9.429   2.122 -0.0675  0.5294  0.1992
    1W        W55776  13.710  24.185   2.954  0.2414  0.3639 -0.2600
    1W        W55777   7.895  20.706   0.410  0.0300 -0.2644 -0.2673
    1W        W55778  10.096  15.769   9.731 -0.2202 -0.0641 -0.2434
    1W        W55779   0.862  22.579   6.851  0.0735 -0.0095  0.2287
    1W        W55780  23.097  20.091   0.933 -0.1198  0.1733 -0.0697
    1W        W55781   4.278   2.389   7.266 -0.0267  0.0339 -0.3204
    1W        W55782  17.726  23.077   0.585  0.0326  0.0979  0.0845
    1W        W55783  18.161   1.992   8.816  0.2494  0.2231  0.4509
    1W        W55784  12.984  21.048   0.056 -0.0383 -0.1434  0.0376
    1W        W55785  11.979  24.665   2.154  0.0395 -0.1043 -0.2043
    1W        W55786   0.846  27.725   8.415 -0.3973  0.1761  0.2539
    1W        W55787  14.173   4.231   7.414  0.1837  0.0292  0.0929
    1W        W55788  17.591  21.615   8.765 -0.1148 -0.1971  0.0121
    1W        W55789  21.347  15.413   7.340 -0.2184 -0.0668 -0.0066
    1W        W55790  11.641   0.148   8.570 -0.0184 -0.0074  0.0023
    1W        W55791   6.958   4.098   0.707 -0.0821 -0.2535  0.0620
    1W        W55792  15.918  13.876   8.522 -0.0471 -0.0151  0.2780
    1W        W55793  25.495   2.402   9.274  0.0778  0.0166  0.1965
    1W        W55794  24.877   4.615   8.034 -0.3636 -0.1905 -0.1825
    1W        W55795  13.703   6.265   3.287  0.3007  0.0056 -0.2194
    1W        W55796  13.080  10.649   1.060 -0.0686  0.0681 -0.3614
    1W        W55797   0.550  13.820   8.931 -0.2994  0.3341 -0.0526
    1W        W55798  12.451   9.442   3.134 -0.0748 -0.3301  0.1677
    1W        W55799  27.423  22.255   9.340  0.1898 -0.4993  0.1088
    1W        W55800  19.161   1.715   0.122 -0.2922  0.2060  0.7742
    1W        W55801   4.538   1.320   2.611  0.2305 -0.2259  0.1078
    1W        W55802  21.217  24.226   7.422 -0.0724 -0.0117 -0.1141
    1W        W55803  16.024  26.424   3.093 -0.0095 -0.0176  0.1999
    1W        W55804  27.564  28.523   0.608  0.0055 -0.2345 -0.0358
    1W        W55805   5.161   4.972   9.622 -0.0482 -0.3363 -0.0583
    1W        W55806  14.156  25.754   3.586 -0.2680 -0.0509 -0.1023
    1W        W55807  14.887   8.982   1.340  0.1813 -0.0020  0.2212
    1W        W55808  24.101  15.953   5.643 -0.2471  0.0699  0.0799
    1W        W55809  11.998  14.444   8.684 -0.0779 -0.1970  0.1681
    1W        W55810  11.067  12.104   1.474  0.0069  0.1287 -0.1588
    1W        W55811  24.630  12.961   8.635  0.0940 -0.1871 -0.3047
    1W        W55812  18.808   3.146   0.433  0.0718 -0.0790 -0.0139
    1W        W55813  19.594   7.731   7.912  0.3273  0.0473  0.1753
    1W        W55814  21.330   7.544   1.305  0.1959 -0.2345  0.1194
    1W        W55815   9.496  24.242   2.153 -0.2579 -0.1672  0.1421
    1W        W55816   7.927   7.147   8.840 -0.1248  0.0532  0.2307
    1W        W55817   6.512  10.557   2.825 -0.2471  0.2471  0.2510
    1W        W55818  13.230  14.583   8.315  0.0598 -0.1957 -0.1784
    1W        W55819  12.154   1.227   3.999 -0.2599 -0.0373 -0.3676
    1W        W55820  15.562   7.114   1.434 -0.0144 -0.0378  0.0031
    1W        W55821   2.895  14.651   0.827  0.0580  0.1257 -0.0047
    1W        W55822  16.234   6.966   0.788 -0.0923  0.2760 -0.0769
    1W        W55823  27.985  22.707   1.350 -0.0544 -0.2649  0.0396
    1W        W55824   5.912   8.746   7.556  0.0003 -0.0006 -0.0861
    1W        W55825  19.969  28.655   8.084  0.2523 -0.2608  0.5239
    1W        W55826  17.063  14.113   1.496 -0.1204 -0.1396  0.2690
    1W        W55827  18.981  26.358   1.447 -0.0115 -0.6002  0.0958
    1W        W55828  27.219  14.082   5.770  0.0091 -0.2460 -0.1994
    1W        W55829  12.588  10.908   8.919 -0.1741  0.1129 -0.0066
    1W        W55830  24.008   5.249   9.838  0.1576 -0.0414 -0.2429
    1W        W55831  12.691  25.938   9.798 -0.0851 -0.1302  0.0314
    1W        W55832  16.453  16.173   8.523  0.1877  0.1725  0.1999
    1W        W55833  10.298   7.160   8.263  0.3401  0.1644  0.1141
    1W        W55834  18.156  19.073   2.836 -0.0249 -0.2942 -0.0229
    1W        W55835  25.691  23.113   2.541 -0.1476 -0.4078 -0.0310
    1W        W55836  10.277   5.212   2.702 -0.1768 -0.1030 -0.3881
    1W        W55837   3.408  23.859   8.245  0.0163  0.1136  0.0448
    1W        W55838  26.780   9.154   9.223 -0.0522  0.2486  0.3503
    1W        W55839   1.048   6.553   2.286  0.0444  0.2582 -0.0205
    1W        W55840   7.089   3.418   7.874 -0.2219 -0.0595  0.0394
    1W        W55841   4.688  13.087   3.224 -0.1591  0.3013  0.2192
    1W        W55842  20.524   3.565   9.241 -0.2965  0.0657  0.0291
    1W        W55843   4.559   2.800   7.940  0.0636 -0.2533  0.0479
    1W        W55844   5.803   9.369   6.705  0.4031 -0.0244 -0.1250
    1W        W55845   6.759   8.073   9.051  0.1058 -0.1220 -0.2196
    1W        W55846  19.493  26.375   2.259 -0.4648 -0.2913 -0.0932
    1W        W55847  23.681   5.935   1.110 -0.1817 -0.1534 -0.1852
    1W        W55848  26.499  25.870   1.496 -0.1282  0.1775  0.0399
    1W        W55849   0.398  15.738   8.043  0.0357 -0.1509  0.0168
    1W        W55850   0.785  15.497   7.101  0.2520  0.1471  0.2323
    1W        W55851  11.286   7.666   0.279  0.2336 -0.2492  0.0584
    1W        W55852  25.857  27.330   2.649  0.0280 -0.1140 -0.1843
    1W        W55853  16.832   7.122   3.200  0.0509  0.1036 -0.2751
    1W        W55854   6.093  22.249   8.882 -0.1424 -0.1719 -0.2429
    1W        W55855   4.838  28.263   9.176 -0.4217  0.1499 -0.1769
    1W        W55856  15.382  25.642   0.126  0.0954  0.0533  0.3432
    1W        W55857  10.373   4.930   3.450  0.0625  0.4332  0.1548
    1W        W55858  24.109   6.507   0.279  0.0804 -0.0467  0.2156
    1W        W55859  19.594  12.158   1.305  0.1182  0.1464  0.2394
    1W        W55860   2.300  10.820   7.698  0.3726 -0.4817 -0.0869
    1W        W55861  24.605  25.732   1.437  0.0038 -0.2651 -0.1429
    1W        W55862  19.905  17.591   0.861  0.1120  0.2638  0.4022
    1W        W55863  24.960  28.166   7.072  0.0244 -0.1606  0.1367
    1W        W55864  24.197   4.697   7.372  0.1575 -0.0201 -0.2041
    1W        W55865  12.496   9.145   2.066 -0.0523 -0.3361  0.2485
    1W        W55866  24.452   9.274   9.362  0.0494  0.0450  0.2802
    1W        W55867  24.914   3.803   8.542 -0.1352 -0.2363 -0.0146
    1W        W55868   7.059  23.324   0.081  0.0333  0.2600 -0.1085
    1W        W55869  22.719   0.954   0.215  0.2917  0.0706 -0.0051
    1W        W55870  20.392  12.229   0.116  0.0709 -0.1305  0.0257
    1W        W55871  14.002   3.557   9.887 -0.1126  0.3011 -0.4852
    1W        W55872   8.385  23.257   7.783  0.1931  0.4014 -0.1176
    1W        W55873   7.661  10.626   7.953 -0.0109  0.1211  0.1084
    1W        W55874  27.644  26.541   8.461 -0.3918 -0.6332  0.0260
    1W        W55875   0.087   0.225   0.175 -0.1207  0.0547  0.0738
    1W        W55876   3.992  13.264   8.885  0.1655 -0.2456 -0.1811
    1W        W55877  18.529   7.372   1.439  0.2672 -0.0413 -0.3779
    1W        W55878  27.763   9.999   0.044 -0.3246  0.0653 -0.1946
    1W        W55879   4.185  18.843   1.538  0.0159 -0.3975  0.1154
    1W        W55880  16.435  15.215   9.551 -0.2548 -0.2195 -0.0829
    1W        W55881   6.890  27.024   1.000  0.0585  0.1077 -0.0019
    1W        W55882  25.770  18.535   7.652 -0.2128 -0.0365 -0.0393
    1W        W55883  21.211   1.471   1.048  0.1046 -0.1368 -0.1928
    1W        W55884  27.131  23.047   9.010  0.0418  0.0260 -0.0425
    1W        W55885  26.795  25.129   2.138 -0.2686 -0.0283  0.0066
    1W        W55886  13.655  18.301   0.704 -0.0179 -0.0953  0.1626
    1W        W55887   6.782   9.330   2.276  0.0488  0.1093 -0.2675
    1W        W55888  17.050  19.766   9.774  0.1537 -0.0238 -0.2538
    1W        W55889  20.625   2.825   3.670  0.0101  0.1571  0.3534
    1W        W55890  21.412  25.063   3.060  0.2917 -0.0987  0.2445
    1W        W55891  16.413   2.283   7.094 -0.2250  0.2652 -0.0728
    1W        W55892   0.867  22.808   9.025 -0.2058  0.2220  0.1527
    1W        W55893   9.890  25.789   9.833 -0.1005 -0.1227  0.1682
    1W        W55894  22.950  10.669   2.053 -0.1336  0.0721  0.0673
    1W        W55895  11.967   5.655   0.644  0.0833 -0.1109  0.1638
    1W        W55896  26.004  12.724   7.093 -0.1066  0.2192  0.0972
    1W        W55897  26.532  16.643   1.700 -0.0749 -0.1831 -0.1573
    1W        W55898  25.770  24.745   8.242  0.0564  0.0642  0.0341
    1W        W55899  17.015  25.158   9.361  0.4679  0.2132  0.4685
    1W        W55900   2.859  14.753   8.674 -0.0070 -0.2463 -0.3014
    1W        W55901  21.626   6.225   2.671 -0.0686 -0.1838  0.0820
    1W        W55902  10.254  15.897   1.981 -0.1027 -0.0367  0.1759
    1W        W55903  15.802  10.009   2.132  0.0524 -0.1194  0.1609
    1W        W55904  16.623   3.639   6.841 -0.1749  0.0863  0.1606
    1W        W55905  12.795   9.631   0.825  0.0008  0.1608  0.1400
    1W        W55906  20.909  20.992   7.572  0.4954 -0.0193 -0.0940
    1W        W55907  25.432  24.050   6.385  0.3593  0.3673 -0.1446
    1W        W55908  26.259  14.542   6.631 -0.2649  0.2714 -0.0357
    1W        W55909  12.120  24.353   9.223  0.2830  0.0939 -0.2216
    1W        W55910   3.982   4.631   1.829  0.4619 -0.1837 -0.1760
    1W        W55911  10.157   9.817   9.315 -0.2207  0.1038  0.1061
    1W        W55912  15.844  23.787   3.882  0.1353 -0.0318 -0.3901
    1W        W55913  21.736  20.567   9.666 -0.1381  0.2281 -0.0117
    1W        W55914  28.355   5.255   8.492  0.1531 -0.3467 -0.2129
    1W        W55915  14.621  16.997   0.705 -0.2923  0.0122  0.0928
    1W        W55916   5.217  17.444   9.582 -0.1702 -0.0006 -0.1254
    1W        W55917  21.068  20.546   1.355 -0.2042  0.0699  0.0723
    1W        W55918  15.319  24.173   2.023 -0.1714  0.1656  0.0038
    1W        W55919  17.855  22.510   7.518  0.1923  0.1702  0.2205
    1W        W55920   2.776   2.497   1.334 -0.1574 -0.0943  0.2238
    1W        W55921  14.466  10.862   1.304  0.2097 -0.1087 -0.0671
    1W        W55922   9.113  14.548   8.899  0.0324  0.2922 -0.0256
    1W        W55923  21.883  22.560   7.242 -0.0586 -0.3148  0.1903
    1W        W55924  15.321  22.562   1.934  0.0453  0.1033  0.0590
    1W        W55925  13.399  21.560   2.951 -0.0767  0.1085 -0.2567
    1W        W55926   0.382  28.461   1.470  0.1631  0.2006 -0.4071
    1W        W55927   3.763  10.161   2.458  0.0120 -0.0276  0.0257
    1W        W55928  28.581  13.368   9.324 -0.0578  0.1334 -0.1643
    1W        W55929   2.829   9.840   9.504  0.0532  0.2544 -0.0883
    1W        W55930  27.527  26.329   1.132  0.0349 -0.2694  0.0483
    1W        W55931   7.901  25.124   6.885  0.3155 -0.2117  0.2094
    1W        W55932  25.006  14.457   5.921  0.0863  0.0404  0.1916
    1W        W55933  21.571  11.159   1.086  0.0210 -0.1769 -0.0386
    1W        W55934  12.406  14.361   8.313 -0.2047 -0.1670 -0.0814
    1W        W55935   1.051  17.524   2.535  0.1634 -0.2523 -0.4529
    1W        W55936  28.357   3.978   8.885 -0.3796 -0.0898 -0.1236
    1W        W55937   3.936  26.315   1.157  0.0287 -0.0579 -0.0624
    1W        W55938  23.845  21.088   1.850 -0.0558 -0.0466  0.2023
    1W        W55939  14.646  23.532   8.878 -0.1456 -0.1503  0.0871
    1W        W55940   8.064  27.600   7.974  0.0218  0.1642  0.3307
    1W        W55941  22.557   0.330   9.324  0.1923 -0.0600  0.1578
    1W        W55942   0.823  23.704   9.868  0.0894 -0.0996 -0.1928
    1W        W55943  21.555  22.914   7.537  0.1804  0.1037 -0.2726
    1W        W55944   8.892  22.992   1.162  0.2200  0.0952  0.3051
    1W        W55945   6.963  21.664   5.839 -0.0058 -0.1412  0.1273
    1W        W55946  16.109   0.643   7.890 -0.0156  0.0449 -0.0029
    1W        W55947  15.820   7.745   0.171 -0.0619 -0.3092  0.1756
    1W        W55948  11.773  21.459   1.972 -0.0346 -0.0953 -0.0189
    1W        W55949  24.941   8.427   8.158 -0.0667  0.0243 -0.0695
    1W        W55950  28.586  18.816   0.748 -0.1431 -0.4161  0.2399
    1W        W55951   1.992  11.289   8.937  0.1250 -0.0422  0.0916
    1W        W55952   7.816   8.967   1.540  0.2908 -0.0180 -0.0851
    1W        W55953  16.112  21.025   2.402  0.1590 -0.1032  0.2203
    1W        W55954  16.247  22.376   1.216  0.1135  0.1946  0.0218
    1W        W55955  26.419  15.132   9.718  0.2275 -0.0877  0.0726
    1W        W55956  13.908  13.187   1.124 -0.0403  0.0318 -0.1046
    1W        W55957  22.487   1.499   6.706  0.1559  0.1330  0.0802
    1W        W55958   4.901  21.108   8.766 -0.1837  0.0386 -0.0428
    1W        W55959  16.219  12.522   2.770  0.1143  0.1547  0.3520
    1W        W55960  21.010  15.737   7.506  0.1233 -0.2597 -0.0319
    1W        W55961  22.758  19.052   6.832  0.0464 -0.1344  0.3244
    1W        W55962  25.822  27.578   8.736  0.1439  0.0016 -0.3763
    1W        W55963  15.043  23.791   1.813  0.1224  0.0286 -0.0258
    1W        W55964   4.634  14.643   6.039 -0.1892 -0.0144 -0.1517
    1W        W55965  27.484  27.138   2.656 -0.0536  0.0582 -0.0800
    1W        W55966  18.193  24.200   1.182  0.0635  0.0847 -0.1031
    1W        W55967  18.367   6.558   8.969  0.0641  0.4002  0.3172
    1W        W55968  25.844  13.630   9.190  0.1446  0.1720 -0.2128
    1W        W55969  23.679  21.213   8.647 -0.0238  0.0896 -0.1702
    1W        W55970   1.184   2.041   6.828  0.0199  0.1213  0.2327
    1W        W55971   2.160  19.425   9.369 -0.1841 -0.3637  0.0149
    1W        W55972  19.136   8.725   7.124  0.2437  0.0174 -0.0246
    1W        W55973  17.646  16.147   1.237 -0.1662  0.0931 -0.0205
    1W        W55974   5.334  25.792   1.523 -0.0687  0.2012 -0.0738
    1W        W55975   7.364  16.184   9.086  0.0127 -0.1853  0.1723
    1W        W55976   3.806  13.744   8.569 -0.0583 -0.1029  0.1675
    1W        W55977  23.777  19.220   0.780 -0.0899 -0.1039  0.2181
    1W        W55978  22.937  13.738   2.555 -0.1252  0.1922 -0.4406
    1W        W55979  23.075  19.999   9.869  0.1869  0.1419  0.0475
    1W        W55980  11.483  17.695   9.622  0.0820 -0.2204  0.0081
    1W        W55981   1.195  18.616   8.104  0.3427  0.1372 -0.0511
    1W        W55982  16.848   1.445   8.722  0.5777 -0.1457  0.1368
    1W        W55983   0.840  26.340   0.407  0.0136 -0.0173 -0.0591
    1W        W55984  21.600  19.788   0.131  0.0260  0.0503  0.0449
    1W        W55985  15.524  19.533   2.702 -0.2472 -0.1447  0.4005
    1W        W55986  20.193   1.843   8.571  0.1721  0.0470 -0.1717
    1W        W55987   8.344  21.366   6.843 -0.1244  0.4090 -0.1139
    1W        W55988  24.984   0.297   7.748 -0.0588  0.1574 -0.1133
    1W        W55989   0.500  10.491   6.736 -0.1978 -0.1657 -0.0008
    1W        W55990  24.796   1.301   2.471 -0.0484 -0.0072  0.2011
    1W        W55991  17.805  28.167   0.935  0.1065 -0.3224  0.1167
    1W        W55992   1.229  17.430   7.834  0.0520  0.3297 -0.0464
    1W        W55993  20.189  22.174   1.125  0.0028  0.1234  0.1063
    1W        W55994   8.293   2.263   3.034  0.0212  0.0258  0.1713
    1W        W55995  27.931  26.968   1.100  0.4328  0.0654 -0.0787
    1W        W55996   7.821  28.350   8.380  0.1320 -0.0767  0.0278
    1W        W55997  14.545   3.495   7.876 -0.1149 -0.1370 -0.0496
    1W        W55998   1.026  22.301   1.974  0.2962 -0.2442 -0.0089
    1W        W55999  12.141  12.651   8.273  0.0463 -0.0479  0.4012
    1W        W56000   6.006   8.694   8.949 -0.0359 -0.1993  0.1199
    1W        W56001  27.505  25.654   0.687  0.2314  0.0366 -0.1175
    1W        W56002  10.108  21.576   9.611  0.2516 -0.0072  0.3312
    1W        W56003   8.543  23.203   6.589  0.0606  0.2962  0.0231
    1W        W56004  13.773  12.596   9.807 -0.2204  0.1371 -0.0375
    1W        W56005  17.957   6.537   2.792  0.1102 -0.1371  0.1119
    1W        W56006   5.318  21.208   6.989  0.2334 -0.1084  0.0644
    1W        W56007  13.720  23.975   8.958  0.2619 -0.0478 -0.0671
    1W        W56008   5.848  11.352   3.751  0.0461  0.2186 -0.2233
    1W        W56009   5.175  11.417   1.949 -0.1652  0.4452  0.0379
    1W        W56010  17.654  19.728   9.271  0.0320  0.1199  0.0867
    1W        W56011  16.489  11.774   1.590  0.1369  0.0075  0.0389
    1W        W56012   2.006   0.587   0.157 -0.4403 -0.0242  0.0758
    1W        W56013   7.465  22.385   8.519 -0.0911 -0.3551 -0.0049
    1W        W56014  19.861   4.682   0.212  0.0107 -0.1898 -0.0127
    1W        W56015  24.728  10.360   0.730  0.1084  0.0955  0.2768
    1W        W56016  12.510  10.828   8.259  0.0518  0.3892 -0.0753
    1W        W56017   2.383  17.622   0.546  0.1969 -0.2696 -0.0856
    1W        W56018  13.714   2.525   1.305  0.0237 -0.0176  0.3507
    1W        W56019  23.842  18.088   8.622  0.2651 -0.1479 -0.2588
    1W        W56020   1.538  16.246   6.200  0.1312 -0.2710  0.2026
    1W        W56021  26.137   1.923   5.900 -0.0882 -0.0027 -0.1052
    1W        W56022  20.234  11.390   9.711 -0.1592  0.2049 -0.0503
    1W        W56023   0.837  26.512   2.562 -0.1367  0.2892 -0.1652
    1W        W56024   1.449   4.052   1.438 -0.1670 -0.0553 -0.1417
    1W        W56025  25.638   9.891   1.643  0.0618  0.0312  0.2780
    1W        W56026  26.703   8.777   2.163  0.0076 -0.3414 -0.3188
    1W        W56027  15.783   8.950   9.241 -0.1656  0.1747 -0.2040
    1W        W56028   0.611  14.318   9.194 -0.0953 -0.0927  0.0652
    1W        W56029   0.971  26.292   8.638  0.1659 -0.1135  0.1784
    1W        W56030   4.122  27.183   1.000  0.0992  0.3752 -0.1525
    1W        W56031  18.385   1.261   0.290 -0.2718  0.0053 -0.0499
    1W        W56032  17.234  16.525   9.727  0.1512 -0.2277  0.3340
    1W        W56033  28.685  13.519   8.217  0.0188  0.3279 -0.3252
    1W        W56034   9.212   0.612   0.427 -0.0142  0.1216  0.1471
    1W        W56035  21.871  24.163   8.955 -0.1292  0.1042  0.3216
    1W        W56036  26.785   5.754   0.870 -0.1721  0.0492 -0.0068
    1W        W56037  28.273   8.787   9.375  0.0921  0.0986  0.3846
    1W        W56038   7.538  28.598   3.744  0.3112 -0.0357 -0.0498
    1W        W56039  22.124  27.028   1.285 -0.0223  0.3034 -0.0706
    1W        W56040  15.281   6.763   7.922 -0.1255 -0.0199 -0.1374
    1W        W56041   9.767  17.263   1.536 -0.2554  0.4723 -0.1209
    1W        W56042  15.355   2.545   7.394 -0.1645 -0.0041  0.0032
    1W        W56043   9.882  14.278   1.009  0.0316  0.1278  0.0119
    1W        W56044   8.362   8.590   0.955 -0.1985 -0.1519 -0.0522
    1W        W56045  10.884   8.861   8.026 -0.0483 -0.0983 -0.2146
    1W        W56046   2.262  13.025   7.726 -0.0970  0.0810 -0.1999
    1W        W56047  21.560   2.219   7.926 -0.1762 -0.0447  0.0651
    1W        W56048   8.531   3.347   0.330 -0.1301  0.3005 -0.1456
    1W        W56049  14.684  17.907   0.559 -0.2713  0.2003  0.3305
    1W        W56050  18.841  20.298   2.822  0.0998  0.2557 -0.1633
    1W        W56051  25.887  14.596   2.672  0.0486 -0.1163  0.1212
    1W        W56052  28.381  27.986   9.547  0.1239 -0.0512  0.1071
    1W        W56053   3.747  15.928   0.845  0.0830 -0.1166 -0.0317
    1W        W56054  19.346  25.294   1.503 -0.1104  0.1305 -0.0738
    1W        W56055  24.409   9.173   7.586 -0.2025  0.0203  0.0422
    1W        W56056  28.549   8.632   7.490 -0.0029 -0.0229 -0.0321
    1W        W56057  21.634  24.005   9.688 -0.4897 -0.1146 -0.1770
    1W        W56058   9.595   8.244   1.446 -0.0179  0.2133  0.1780
    1W        W56059  11.293  17.810   9.113  0.2274  0.2323 -0.2513
    1W        W56060   9.709  16.494   0.461  0.0843 -0.1464 -0.4346
    1W        W56061  25.803  26.706   9.080  0.1972 -0.1367  0.0835
    1W        W56062   2.362   4.277   7.282  0.2933  0.0211  0.0216
    1W        W56063  28.230   0.926   7.355  0.1069  0.0312 -0.0251
    1W        W56064   8.509   0.107   1.453  0.4078  0.1612 -0.1084
    1W        W56065  15.053  15.010   0.212  0.1186 -0.4811 -0.2625
    1W        W56066  22.939  26.875   8.100 -0.0482  0.0661  0.2007
    1W        W56067   1.771   1.022   0.011 -0.1445 -0.1791  0.4427
    1W        W56068  18.919  19.790   9.910  0.0223 -0.0906 -0.1465
    1W        W56069   7.332   7.164   7.445  0.1916  0.0333 -0.0398
    1W        W56070  27.186  16.048   0.220 -0.0507  0.0815 -0.0622
    1W        W56071   0.760  27.191   9.907  0.0525  0.0747  0.0808
    1W        W56072  23.701   3.775   0.402 -0.3235  0.0992 -0.2415
    1W        W56073   8.642  28.476   2.414  0.3982 -0.4494  0.4850
    1W        W56074  27.619  21.727   7.501  0.0939 -0.1807 -0.1707
    1W        W56075  12.445   3.955   4.111 -0.1664  0.4503  0.1558
    1W        W56076   6.751   8.958   8.853 -0.0880  0.1429  0.1493
    1W        W56077   7.126  26.937   7.870 -0.0992  0.3926 -0.2702
    1W        W56078  15.723   2.567   4.143  0.2629 -0.1665 -0.0839
    1W        W56079   9.109   2.397   1.953  0.0507 -0.1289  0.3649
    1W        W56080   1.029   4.090   1.188 -0.1207  0.0294  0.0005
    1W        W56081  26.604  12.909   6.765 -0.3695 -0.0127  0.1456
    1W        W56082   9.968  18.516   2.735 -0.3276  0.5021  0.0598
    1W        W56083   9.320   7.040   1.236 -0.2299  0.0430 -0.0248
    1W        W56084   2.894  14.325   9.745  0.3035 -0.0576  0.2581
    1W        W56085  10.043  22.855   8.490 -0.1362 -0.3716  0.2784
    1W        W56086   3.937  28.397   9.233  0.0344 -0.3924  0.1214
    1W        W56087  15.357  27.430   9.165 -0.1674  0.1301 -0.1222
    1W        W56088  28.083  25.053   6.575 -0.3779 -0.1392 -0.5044
    1W        W56089  10.917   8.552   8.489  0.3511  0.2322  0.2879
    1W        W56090  20.911   7.803   9.673 -0.0794 -0.0779 -0.2333
    1W        W56091  25.407  19.016   2.351  0.2006  0.4376  0.0561
    1W        W56092  23.300  21.854   1.570  0.1573 -0.0405  0.2292
    1W        W56093  20.172  23.497   7.057  0.3701 -0.0701 -0.0728
    1W        W56094  20.963  13.119   9.857  0.1289 -0.2455  0.1027
    1W        W56095  19.972   6.772   2.273 -0.4125  0.1500  0.1818
    1W        W56096  27.332  15.445   9.438  0.0116 -0.2812 -0.1220
    1W        W56097   0.628  19.642   0.780  0.2682 -0.0642  0.3633
    1W        W56098  19.217  10.212   9.827 -0.2171  0.0102  0.1075
    1W        W56099  22.716  18.519   2.256  0.0009  0.0521 -0.0800
    1W        W56100   1.677  20.947   9.731 -0.2922 -0.1926  0.1314
    1W        W56101  12.559   1.976   0.631 -0.2299 -0.2456 -0.0534
    1W        W56102  21.619  23.018   2.437 -0.1319  0.1904  0.0591
    1W        W56103   0.854  11.167   6.317 -0.0302  0.0574 -0.0606
    1W        W56104  12.397  25.209   2.508 -0.2545 -0.1728  0.0529
    1W        W56105  25.512  14.446   8.867  0.1177 -0.0469  0.1378
    1W        W56106  19.200  14.109   9.596  0.1217 -0.1290 -0.1222
    1W        W56107  26.125  13.621   6.419 -0.2022  0.0225  0.0279
    1W        W56108  24.390   1.679   9.083 -0.0355  0.2474  0.0899
    1W        W56109  11.253  11.884   8.181 -0.0330  0.0078  0.3577
    1W        W56110   3.869   6.860   2.848  0.0917 -0.1040 -0.1768
    1W        W56111  24.492   2.145   0.368 -0.1461  0.0403  0.0353
    1W        W56112  17.195  26.155   8.489  0.1650 -0.1607  0.3173
    1W        W56113  17.003  13.209   7.615 -0.2253 -0.0890  0.0874
    1W        W56114   7.125  11.666   0.314  0.3069 -0.0411 -0.0000
    1W        W56115   8.001   0.859   7.780 -0.1367  0.4702  0.1415
    1W        W56116  23.694  12.473   0.502 -0.4211  0.0013  0.0386
    1W        W56117  19.459   6.238   2.973 -0.0048 -0.3743  0.1941
    1W        W56118   9.821  11.078   7.136  0.3826 -0.4425  0.2710
    1W        W56119   8.466  14.808   0.257 -0.1065  0.1196  0.0534
    1W        W56120  18.615   4.935   1.504  0.1032 -0.3472  0.1306
    1W        W56121   5.226   9.555   0.885 -0.1924 -0.0388  0.0920
    1W        W56122  13.777  19.430   9.710 -0.0463  0.0180  0.1357
    1W        W56123  28.472   5.205   9.824  0.3267  0.1222  0.0621
    1W        W56124   3.358   0.920   9.176  0.2669  0.2811 -0.2278
    1W        W56125  10.256  12.817   0.063  0.0296  0.0189  0.0665
    1W        W56126   2.475  14.489   8.883 -0.0846 -0.0409  0.3974
    1W        W56127   9.082   4.277   3.373  0.0797 -0.0843  0.1585
    1W        W56128  12.512  19.477   0.422  0.1661 -0.2202  0.1389
    1W        W56129   5.159   1.441   7.232  0.1094  0.1339 -0.2785
    1W        W56130  10.835  19.962   7.889  0.1227 -0.0630  0.2337
    1W        W56131  20.293  12.697   9.424 -0.1061  0.1478  0.1317
    1W        W56132  11.527   6.009   2.540  0.0074 -0.0118 -0.1435
    1W        W56133  13.622   7.477   9.053 -0.0315 -0.3539  0.3262
    1W        W56134   5.882   6.640   3.120  0.0399  0.1036 -0.0394
    1W        W56135   2.536   2.819   8.489  0.1667 -0.2591 -0.1643
    1W        W56136  18.431  12.913   0.194 -0.0974 -0.0497  0.1548
    1W        W56137  24.773  14.169   0.700  0.0512  0.0576  0.1216
    1W        W56138   4.921   8.412   0.344  0.1945 -0.0908  0.0720
    1W        W56139  27.994   0.714   9.600  0.0690 -0.1830 -0.0220
    1W        W56140  21.084  14.540   2.372  0.0815 -0.0913  0.1132
    1W        W56141  18.191  25.983   1.544  0.0485 -0.0229  0.0414
    1W        W56142  16.656   6.690   7.666  0.0236  0.1045  0.4471
    1W        W56143  18.054  19.748   0.832  0.1524 -0.0535 -0.0546
    1W        W56144  24.672  13.148   7.722  0.2898  0.1720  0.0120
    1W        W56145  27.782   0.286   9.399 -0.0691  0.0564 -0.2264
    1W        W56146   1.955  11.097   1.867 -0.1964  0.0129  0.1897
    1W        W56147   0.478   3.937   8.446 -0.4994  0.1298  0.2729
    1W        W56148  28.314   9.774   0.763  0.1578  0.0220 -0.0138
    1W        W56149  13.917  25.128   2.212  0.0364  0.0461 -0.1887
    1W        W56150   7.066  21.236   0.602  0.1374  0.0305  0.0758
    1W        W56151  18.897   3.686   8.694 -0.0952 -0.0501 -0.0618
    1W        W56152   7.874  21.676   8.855 -0.1628  0.0891  0.3308
    1W        W56153   5.356  13.592   2.069  0.0344  0.0948 -0.0142
    1W        W56154  11.723  22.873   0.864  0.1290 -0.2638  0.0026
    1W        W56155  16.290  22.969   7.259 -0.1695  0.0375  0.1757
    1W        W56156  15.961  13.193   0.431  0.2976 -0.0115 -0.1975
    1W        W56157  28.394  20.071   1.375  0.1159 -0.1508 -0.1971
    1W        W56158  10.720  20.120   6.683 -0.0494 -0.1544 -0.1036
    1W        W56159  23.257  25.926   6.005  0.0194  0.1241  0.2317
    1W        W56160   9.391  22.170   0.556  0.2591 -0.0849  0.2681
    1W        W56161   7.047  13.216   9.368  0.1598  0.0424 -0.4157
    1W        W56162  10.967  20.458   2.328  0.0910  0.0040  0.0030
    1W        W56163  15.982  19.254   3.296 -0.1153  0.4371 -0.0746
    1W        W56164  28.427  19.276   2.621 -0.0067  0.2051  0.1405
    1W        W56165  16.067  21.329   0.675 -0.1115 -0.0961 -0.0500
    1W        W56166  11.515  15.160   7.673 -0.2511 -0.0622 -0.2867
    1W        W56167  25.917   2.295   7.129 -0.0210 -0.2768  0.0642
    1W        W56168  12.958  26.717   1.135 -0.3288 -0.1258 -0.1301
    1W        W56169   4.191   7.817   9.033 -0.2430 -0.0672  0.2498
    1W        W56170  16.645  16.292   1.157 -0.1261  0.1281 -0.1443
    1W        W56171  10.760  24.025   7.210  0.0324 -0.2039  0.0133
    1W        W56172  17.951  18.493   0.465 -0.0888 -0.2139 -0.3239
    1W        W56173  10.154   4.159   3.742 -0.1932 -0.0086 -0.0791
    1W        W56174  20.122  14.993   8.518 -0.0531  0.1019  0.0154
    1W        W56175   8.169   8.281   7.545 -0.0465 -0.2553  0.0612
    1W        W56176  10.829   3.474   0.878  0.0153 -0.1035  0.0892
    1W        W56177   4.954   0.866   2.781 -0.1658  0.1592  0.0369
    1W        W56178  21.610   0.366   2.363 -0.0446 -0.0759 -0.0286
    1W        W56179  21.714  27.071   2.314 -0.0604 -0.0925  0.1028
    1W        W56180  21.191   1.932   8.683  0.1910  0.3302 -0.0079
    1W        W56181   9.817  28.366   9.858  0.0346  0.0018  0.0022
    1W        W56182  27.882   4.763   8.784  0.2781 -0.1443  0.2940
    1W        W56183  24.759   6.590   1.636 -0.2746  0.1593 -0.1813
    1W        W56184  10.135  12.251   0.165 -0.1290  0.0453 -0.0373
    1W        W56185  10.672  18.240   9.470  0.0762  0.2045 -0.0774
    1W        W56186  14.000  19.849   9.455 -0.1894  0.1483  0.0171
    1W        W56187   1.388  27.807   7.861 -0.0272  0.0082 -0.1723
    1W        W56188  17.375   0.618   8.727 -0.2800 -0.1378 -0.2652
    1W        W56189  13.412  16.463   9.077  0.2745 -0.2499 -0.0065
    1W        W56190  19.897  15.690   1.543 -0.2164 -0.0228 -0.1047
    1W        W56191   2.814  11.145   2.904 -0.1261 -0.4141  0.0872
    1W        W56192  16.533  28.629   3.526  0.0425  0.1111 -0.2209
    1W        W56193  13.164  18.396   7.912 -0.0977  0.1640  0.0565
    1W        W56194  26.730  27.752   1.557 -0.1296  0.1161 -0.0647
    1W        W56195   0.252  19.734   1.546 -0.0630 -0.2166 -0.2933
    1W        W56196  17.885  24.455   9.347  0.2754  0.1186 -0.0892
    1W        W56197  18.413  27.101   1.344 -0.4680 -0.0437 -0.1594
    1W        W56198  13.021   6.601   1.776 -0.1644  0.2988  0.0676
    1W        W56199  19.086  27.453   1.449 -0.2263 -0.3611 -0.1939
    1W        W56200  10.365  17.625   0.093  0.2084  0.2572 -0.0288
    1W        W56201  16.576   2.777   8.927  0.0822  0.0814  0.0993
    1W        W56202  23.236  15.014   9.507  0.1385 -0.1582 -0.0753
    1W        W56203   2.425   8.773   2.215  0.0800 -0.2830  0.1333
    1W        W56204   1.225  13.099   0.262 -0.0030 -0.0256 -0.1270
    1W        W56205  14.255   6.337   3.074  0.0296 -0.1399 -0.0136
    1W        W56206  16.895  11.858   1.927  0.0462  0.0199  0.0407
    1W        W56207  12.254   6.722   8.085 -0.2743  0.1285 -0.1672
    1W        W56208  24.611  19.333   1.932  0.0247  0.0246  0.3952
    1W        W56209  12.578  28.669   8.291 -0.0858  0.1371 -0.0595
    1W        W56210  23.802  19.227   0.193 -0.1589  0.3878 -0.0641
    1W        W56211   8.897  13.318   9.326  0.0934 -0.0487 -0.1127
    1W        W56212   2.953  10.547   8.855  0.0786  0.0035 -0.0175
    1W        W56213  25.486  11.519   2.638 -0.1880  0.1343 -0.0207
    1W        W56214  11.096   5.669   8.150 -0.0871  0.0139 -0.1070
    1W        W56215  10.256  26.971   3.224 -0.2115  0.0047 -0.1536
    1W        W56216   3.272  20.484   1.842  0.0267  0.1839  0.0818
    1W        W56217   8.417  16.777   9.279  0.0441 -0.0168  0.1998
    1W        W56218  18.099   0.775   3.037 -0.0345 -0.0290  0.2017
    1W        W56219  15.836  23.953   0.188  0.0193 -0.2713 -0.0552
    1W        W56220  23.550  23.815   9.081  0.2822  0.2751 -0.1932
    1W        W56221  18.759   6.557   9.312 -0.1374 -0.1513 -0.0122
    1W        W56222  11.281  24.669   8.630  0.0082 -0.0195  0.1354
    1W        W56223  13.339  27.730   9.338 -0.0139 -0.0252 -0.0080
    1W        W56224  22.254  15.441   0.366 -0.0449 -0.3315  0.0361
    1W        W56225   0.382   4.459   7.440 -0.1284  0.0232 -0.0701
    1W        W56226   7.196  12.395   0.569  0.0120 -0.1562 -0.0830
    1W        W56227   0.770  20.605   2.108  0.2306  0.0788  0.0534
    1W        W56228  23.946  12.348   0.902  0.0745  0.2471 -0.3244
    1W        W56229  18.878  13.029   8.865 -0.1484  0.0711  0.1719
    1W        W56230  28.569  10.230   1.302 -0.0639  0.2021  0.3780
    1W        W56231  22.640   4.005   8.200 -0.1904  0.1028 -0.0168
    1W        W56232   3.845  19.253   0.268 -0.1030 -0.1805  0.1050
    1W        W56233  20.433   2.369   2.936 -0.2634 -0.4991  0.1874
    1W        W56234  15.209  25.416   1.678 -0.2258  0.1407  0.0674
    1W        W56235  17.896  21.466   8.432 -0.2850  0.3287  0.1765
    1W        W56236  13.170  20.269   1.005  0.0830  0.1884 -0.0106
    1W        W56237  14.896  13.441   9.848  0.0152 -0.2608  0.0286
    1W        W56238   9.487  21.874   7.752 -0.2420 -0.2172 -0.0046
    1W        W56239   6.876   0.734   7.240  0.2225 -0.0291 -0.1903
    1W        W56240  19.806   2.313   7.020  0.0602  0.2970 -0.1150
    1W        W56241  18.507  14.641   9.176  0.0234 -0.0819 -0.2866
    1W        W56242   0.916  24.761   9.416  0.3134 -0.0346  0.0175
    1W        W56243  21.666   6.316   2.014  0.1916 -0.1537  0.1414
    1W        W56244  20.958  21.623   1.580 -0.1877  0.1492  0.1526
    1W        W56245  28.540   0.497   3.378  0.0493 -0.3892 -0.0798
    1W        W56246  16.031   8.656   2.237 -0.1053  0.0558 -0.2098
    1W        W56247  25.528  12.961   1.136 -0.1018 -0.0775 -0.0927
    1W        W56248   7.138   3.679   8.866 -0.0038 -0.2205 -0.1121
    1W        W56249  22.250  26.646   0.540 -0.4122 -0.3860 -0.0658
    1W        W56250  28.522  12.091   7.449 -0.0526 -0.5395  0.0045
    1W        W56251   3.974  16.196   9.846  0.3222  0.0681 -0.2853
    1W        W56252  24.415  25.205   8.199  0.0455 -0.1017  0.0347
    1W        W56253   4.787  15.107   6.871 -0.0719  0.2385 -0.1690
    1W        W56254   4.673   9.702   1.226  0.3709  0.0206  0.0625
    1W        W56255   3.517   4.129   9.875  0.1389  0.0827 -0.0396
    1W        W56256  24.217  12.304   6.655 -0.0385 -0.0805 -0.1086
    1W        W56257  22.949  14.674   6.659 -0.1495 -0.1718  0.0044
    1W        W56258  26.680  20.337   9.511 -0.1617  0.1279  0.0281
    1W        W56259   1.404  16.921   7.101  0.0277 -0.3155 -0.1817
    1W        W56260  12.712   1.122   3.301 -0.1528 -0.1354 -0.1239
    1W        W56261   0.859  25.438   8.228 -0.0939 -0.0203  0.4862
    1W        W56262   3.030  12.931   1.839  0.0004  0.0093  0.1393
    1W        W56263   4.104  19.736   6.334 -0.2317  0.1348  0.1076
    1W        W56264  10.677  24.669   0.397  0.0012  0.1197  0.0634
    1W        W56265   7.064  17.268   0.749  0.3212  0.0702  0.1203
    1W        W56266  20.805  24.579   9.475 -0.0547 -0.0101  0.0869
    1W        W56267   0.793  19.113   1.958 -0.0142  0.2400  0.0681
    1W        W56268   7.067  17.189   9.166  0.2401 -0.0473  0.1784
    1W        W56269  16.944   7.643   1.513 -0.1394  0.0486  0.2076
    1W        W56270   0.003   6.064   0.221  0.2022  0.0752  0.0468
    1W        W56271  17.203   1.691   7.255 -0.2211  0.2068  0.0182
    1W        W56272  16.834   2.842   3.222  0.0212  0.3087 -0.3207
    1W        W56273  25.422  15.475   5.828 -0.1021  0.1330  0.0845
    1W        W56274  24.853   2.976   1.573  0.1721  0.1374  0.1812
    1W        W56275  13.209   5.595   1.689 -0.1148  0.0506 -0.0628
    1W        W56276   5.322   2.538   8.302  0.1684  0.1679 -0.0440
    1W        W56277  15.473  13.210   2.492  0.1021  0.2018  0.0637
    1W        W56278   7.226   9.600   2.943 -0.0228  0.0835  0.2793
    1W        W56279  14.092  14.025   0.529  0.2035  0.1655 -0.0660
    1W        W56280   1.065   3.342   3.568  0.2145  0.2118  0.1013
    1W        W56281  26.764  22.208   2.867  0.0968 -0.0772 -0.0675
    1W        W56282   5.366   1.784   9.040 -0.0685  0.1728 -0.0592
    1W        W56283  26.428  13.578   2.362 -0.1956  0.0250 -0.0394
    1W        W56284   7.565   2.812   2.449 -0.2097  0.0197 -0.1167
    1W        W56285   9.133   7.005   2.386 -0.2433  0.0833  0.1699
    1W        W56286   1.344  20.705   6.667  0.0106  0.0653 -0.1503
    1W        W56287  22.586   6.361   0.620  0.1297 -0.2349 -0.0907
    1W        W56288  22.829  25.113   9.101  0.3299  0.3618  0.2692
    1W        W56289   3.640   3.354   3.355  0.1851 -0.2743  0.0649
    1W        W56290  11.409  22.997   1.213 -0.0203  0.1919 -0.2307
    1W        W56291  23.260   5.387   3.055 -0.2200 -0.1375 -0.0431
    1W        W56292   1.460  12.673   0.237 -0.2100  0.2180 -0.1012
    1W        W56293  14.893   0.172   0.849 -0.1353  0.0935  0.4308
    1W        W56294  10.734   4.509   0.357 -0.0455 -0.2530  0.0184
    1W        W56295  10.464  18.038   1.911  0.0801 -0.1412 -0.0587
    1W        W56296   8.238   0.886   8.364  0.1448 -0.2800 -0.0474
    1W        W56297  14.202  19.901   0.550  0.3114  0.0076  0.1689
    1W        W56298   5.993  24.855   1.239  0.0196 -0.1098 -0.2209
    1W        W56299  14.964   2.578   2.460  0.1346 -0.3587  0.0757
    1W        W56300   6.951   8.710   3.493 -0.2052 -0.0864 -0.3155
    1W        W56301  20.618   6.038   2.472 -0.1563 -0.1717  0.0043
    1W        W56302  10.830  15.140   8.849 -0.0374 -0.0506  0.1084
    1W        W56303   4.851  15.530   1.320  0.1849  0.0278 -0.1957
    1W        W56304  21.380  28.659   9.501  0.0095 -0.3603 -0.1923
    1W        W56305  13.961  15.286   0.445  0.1444  0.4041 -0.3535
    1W        W56306  11.969  28.692   8.937  0.0593  0.1973  0.1792
    1W        W56307   3.879  11.937   9.067  0.1348  0.0268 -0.1321
    1W        W56308   6.003  22.436   8.444 -0.0850 -0.0191 -0.1404
    1W        W56309  12.188   0.234   2.929 -0.0539 -0.0590  0.3365
    1W        W56310  15.239  25.190   9.801  0.3184 -0.0581 -0.1498
    1W        W56311  14.983  23.435   8.493  0.0247  0.0210  0.1589
    1W        W56312   0.220   1.146   2.361 -0.0083  0.0844  0.1094
    1W        W56313  19.172   0.336   3.048  0.2342  0.1625 -0.1828
    1W        W56314  27.508   3.139   7.438 -0.1899 -0.2060  0.3496
    1W        W56315  25.206  25.117   0.060  0.0944  0.1383  0.1636
    1W        W56316   5.258  28.235   4.191 -0.0078  0.0941 -0.1177
    1W        W56317  10.529  24.861   1.870  0.2225 -0.1657  0.1462
    1W        W56318  25.222  16.008   0.317 -0.0547 -0.0547 -0.3727
    1W        W56319  28.452   2.666   6.821  0.0886  0.0074  0.2734
    1W        W56320  24.050  10.159   2.170 -0.0819  0.0877 -0.1040
    1W        W56321   6.505   4.232   0.930 -0.0341 -0.3179 -0.0911
    1W        W56322  27.553  13.773   8.280  0.4170  0.1681  0.1608
    1W        W56323  10.890   1.222   2.739  0.2862 -0.2669  0.1808
    1W        W56324  13.151  27.219   2.884  0.2376  0.2001  0.2680
    1W        W56325   0.255  24.113   6.663  0.0584 -0.1568  0.1504
    1W        W56326  15.777  15.492   7.614  0.0027  0.1481  0.2031
    1W        W56327  20.540  12.713   9.937 -0.1511  0.1319  0.0124
    1W        W56328   5.302   0.784   0.784  0.1517 -0.0933  0.0888
    1W        W56329   2.985   3.511   8.201  0.3077  0.1134 -0.1045
    1W        W56330  26.005   7.628   9.806 -0.0333 -0.1037  0.0730
    1W        W56331   7.047   4.176   6.646  0.0666 -0.0906 -0.1469
    1W        W56332  12.818   1.069   9.611  0.1797 -0.1841  0.0733
    1W        W56333   9.944  17.536   9.141  0.0878  0.1219  0.0873
    1W        W56334  27.295   8.893   2.148 -0.0049 -0.0710 -0.0147
    1W        W56335   9.552   9.510   1.417  0.1435 -0.1356 -0.0336
    1W        W56336   8.462   9.286   0.294 -0.1530 -0.0014  0.1693
    1W        W56337  21.869   5.017   9.376  0.1395  0.0010 -0.1227
    1W        W56338   6.618  10.254   8.659 -0.3014 -0.0814 -0.1265
    1W        W56339  26.132   0.939   8.956 -0.5086 -0.0382 -0.0684
    1W        W56340  22.693   8.898   7.294  0.0635  0.1535 -0.0416
    1W        W56341   5.150   0.421   8.579  0.1992  0.0032 -0.1512
    1W        W56342  26.173  10.661   7.666 -0.3342  0.2279  0.0614
    1W        W56343  27.581   9.991   9.540 -0.0972  0.1172 -0.2746
    1W        W56344   0.639   5.709   7.595  0.1287 -0.1050 -0.1384
    1W        W56345  19.988   7.364   9.110  0.3518 -0.2116  0.0296
    1W        W56346   5.327  19.159   9.152  0.4841 -0.0283  0.1524
    1W        W56347   8.470  13.026   8.337 -0.1669  0.0251 -0.1727
    1W        W56348   7.173  16.871   1.616 -0.2830 -0.0962 -0.2447
    1W        W56349   5.882   6.806   9.944 -0.1782 -0.1262  0.0577
    1W        W56350   1.034   4.941   7.650  0.1636 -0.0118 -0.0951
    1W        W56351  24.439  26.797   7.497  0.1818  0.1175 -0.0474
    1W        W56352  25.108   8.840   0.707 -0.0321 -0.4053  0.0672
    1W        W56353  22.963   8.882   1.990 -0.2338  0.0345 -0.0448
    1W        W56354   6.324  10.263   7.155  0.1175 -0.0119  0.3296
    1W        W56355  24.297  22.982   0.537  0.1677  0.0774  0.3536
    1W        W56356  23.812   2.173   9.225 -0.2565 -0.0232  0.0609
    1W        W56357  20.521   6.409   8.969 -0.2936  0.5483  0.0170
    1W        W56358   6.749  25.820   0.580 -0.0885  0.0575 -0.0604
    1W        W56359   6.305  17.446   7.088 -0.0791  0.1379 -0.2360
    1W        W56360   6.860  25.177   8.506 -0.1664 -0.2712 -0.1003
    1W        W56361   0.488   2.081   1.083 -0.4371  0.3691  0.2333
    1W        W56362  13.228  14.926   7.875  0.1534 -0.0419 -0.0791
    1W        W56363   5.293  25.789   9.572 -0.1951 -0.2626  0.5282
    1W        W56364   3.064  20.900   9.418  0.1605 -0.1328 -0.0612
    1W        W56365  11.048  20.308   1.459 -0.0567  0.1173  0.1967
    1W        W56366  22.174   1.591   9.609 -0.1274 -0.1761  0.0832
    1W        W56367  14.275  16.860   1.630 -0.0272 -0.1384  0.2478
    1W        W56368  20.207   5.943   8.767 -0.0641  0.0018 -0.0973
    1W        W56369  15.400   1.989   2.057 -0.0653 -0.0631 -0.1957
    1W        W56370  20.179  24.464   1.637  0.2741  0.2760  0.0995
    1W        W56371  21.961   9.904   8.393 -0.2238  0.1110  0.0651
    1W        W56372   1.570  20.431   1.542  0.1419 -0.2410 -0.0205
    1W        W56373  25.920  23.180   9.852  0.3004 -0.2807  0.1566
    1W        W56374  27.488  28.654   9.805  0.0135 -0.1061 -0.0082
    1W        W56375   3.853  26.326   1.668 -0.0560 -0.1880 -0.0212
    1W        W56376  28.117   8.419   7.442  0.0156 -0.0952  0.1927
    1W        W56377   7.497   8.405   8.783  0.3256  0.0423  0.2231
    1W        W56378  11.316   3.584   9.324 -0.0333  0.1233  0.0113
    1W        W56379  22.258  13.953   7.394 -0.0132 -0.3802 -0.3282
    1W        W56380   5.895  18.982   0.484 -0.0011 -0.1811  0.1116
    1W        W56381  24.639   4.042   0.288  0.2735 -0.1906 -0.2036
    1W        W56382  25.547  20.817   6.826 -0.1031  0.2644  0.1074
    1W        W56383  14.253  13.522   0.540  0.0321 -0.3542 -0.1235
    1W        W56384  16.225   6.037   0.569  0.1072  0.0265 -0.0010
    1W        W56385  28.379  23.080   9.420  0.1951  0.1805  0.0665
    1W        W56386  17.954  13.057   2.411  0.2036  0.1006 -0.1178
    1W        W56387  24.578  14.213   1.434 -0.1677 -0.1432 -0.3774
    1W        W56388  17.220   1.619   7.956 -0.3840 -0.2845  0.0098
    1W        W56389  27.118   9.491   0.716 -0.1778  0.3447 -0.0583
    1W        W56390  20.170  16.561   1.951  0.0012 -0.2610  0.3097
    1W        W56391   3.776  20.540   5.836 -0.0753  0.1269  0.0280
    1W        W56392  22.399  25.395   9.145 -0.1368  0.1968 -0.0249
    1W        W56393  22.952  20.141   9.000  0.4154 -0.4372 -0.0208
    1W        W56394   7.076  12.358   7.382  0.1929  0.0310 -0.2900
    1W        W56395  22.377  21.822   2.812  0.0170 -0.2938 -0.0019
    1W        W56396   5.193  21.452   6.613 -0.3938  0.0113  0.1192
    1W        W56397   3.287   8.546   1.284  0.0713  0.2041 -0.1799
    1W        W56398  25.888  27.486   7.427 -0.3212  0.2081  0.2132
    1W        W56399   3.442   0.337   9.677 -0.3230  0.3767 -0.2219
    1W        W56400  19.146  18.142   1.952 -0.0349 -0.0484  0.0485
    1W        W56401   2.957   8.619   7.114 -0.2312 -0.2614  0.1468
    1W        W56402  28.666  12.955   8.558 -0.1569 -0.0676 -0.0503
    1W        W56403   0.407  13.292   1.301  0.2594  0.2218  0.1581
    1W        W56404  25.027  25.955   1.600  0.1055  0.1478 -0.0800
    1W        W56405  23.862  26.504   7.677 -0.3095  0.2485  0.0064
    1W        W56406  19.257  22.231   7.053 -0.1677  0.0116  0.1184
    1W        W56407  24.467  18.296   0.776 -0.1687  0.0972 -0.2393
    1W        W56408  12.312  17.198   0.879 -0.0406  0.0625  0.0266
    1W        W56409  24.769  15.781   7.486 -0.1336 -0.0666  0.1382
    1W        W56410  27.083  24.594   7.218  0.0102  0.2658 -0.0611
    1W        W56411   6.278   2.477   7.653  0.4142  0.0329 -0.0865
    1W        W56412  15.297  21.008   0.377  0.0697 -0.1212 -0.0419
    1W        W56413  23.229  25.798   7.595  0.1781  0.2025 -0.0404
    1W        W56414  12.558   9.502   9.279  0.0405 -0.0843 -0.0459
    1W        W56415   6.899   5.677   3.581 -0.0810 -0.0268  0.0492
    1W        W56416   1.187  18.911   0.263  0.2375  0.0624 -0.0431
    1W        W56417   1.872  27.611   7.716  0.1024 -0.0255 -0.3701
    1W        W56418  16.253  28.156   9.207  0.1431 -0.1194  0.1232
    1W        W56419  19.432  21.785   1.047 -0.0732  0.0139  0.1144
    1W        W56420  23.208  17.706   7.422  0.1211  0.0617  0.1226
    1W        W56421   3.123  14.175   2.482 -0.0044  0.1108  0.0781
    1W        W56422   0.964   4.425   3.381  0.0674  0.2547  0.1044
    1W        W56423   5.139   3.173   1.189 -0.0622  0.2122  0.0397
    1W        W56424  15.795   9.699   8.895 -0.0846 -0.0177  0.0246
    1W        W56425  27.677   3.306   6.243  0.0796 -0.0393  0.1440
    1W        W56426  13.886   5.292   3.074 -0.3154 -0.0446 -0.1432
    1W        W56427  24.208   7.044   6.659  0.2353 -0.0129 -0.1209
    1W        W56428   7.476   8.499   1.456 -0.1153 -0.1300  0.0628
    1W        W56429  18.317  15.541   7.812 -0.0804 -0.3010  0.1048
    1W        W56430   4.035   7.933   0.355 -0.3663 -0.0616  0.2014
    1W        W56431  28.316   2.892   9.198 -0.0945  0.1533  0.0477
    1W        W56432  24.967  27.703   7.274  0.4677 -0.0186 -0.0971
    1W        W56433   5.991   5.189   9.838  0.0545 -0.2197 -0.0895
    1W        W56434  24.033  26.018   9.298 -0.3302  0.0960 -0.1095
    1W        W56435  23.764   0.708   7.182  0.3055  0.1212  0.0184
    1W        W56436  24.636  17.501   1.498  0.2932 -0.3735  0.4267
    1W        W56437  25.546  11.018   1.626  0.2509 -0.4668  0.1939
    1W        W56438  26.817  19.356   1.220 -0.1979 -0.0032 -0.0640
    1W        W56439   0.506  25.078   9.643  0.0127 -0.1751  0.2462
    1W        W56440  12.273  20.898   0.617 -0.1223  0.1883  0.0846
    1W        W56441  14.276  23.746   9.737 -0.2945 -0.2728 -0.0108
    1W        W56442  16.585  26.124   1.539 -0.2994  0.1285  0.0704
    1W        W56443  12.690  16.654   8.449 -0.2176  0.2409 -0.0079
    1W        W56444  15.500  26.854   0.353 -0.0552 -0.3148  0.0625
    1W        W56445  10.119  28.571   9.361 -0.1570 -0.2626 -0.2269
    1W        W56446  21.838  13.773   8.323 -0.1008  0.2298 -0.2335
    1W        W56447   1.004   4.064   9.391 -0.0879 -0.0394  0.3449
    1W        W56448  17.111  13.695   1.973  0.3025 -0.0314  0.2865
    1W        W56449   8.339   8.590   1.419  0.1164 -0.1033 -0.0035
    1W        W56450  13.744  23.273   2.508 -0.3099 -0.3780  0.0390
    1W        W56451   8.176   5.453   7.411 -0.0155 -0.2119 -0.0348
    1W        W56452   5.611   4.454   9.054  0.0936 -0.0349  0.0502
    1W        W56453   4.616  27.170   7.189  0.0642  0.1920 -0.0341
    1W        W56454  21.232  25.943   0.026  0.3258 -0.0332  0.1630
    1W        W56455   1.255   9.809   8.157 -0.0610  0.4187  0.2395
    1W        W56456  15.448  10.930   0.320 -0.0472  0.1070  0.2634
    1W        W56457   1.127  17.502   8.833  0.1196  0.3032  0.3035
    1W        W56458  12.494   7.486   8.056 -0.2552  0.3070  0.2867
    1W        W56459  22.735  26.107   9.206  0.0660 -0.3194  0.0105
    1W        W56460   0.548  24.392   9.395  0.1273 -0.3913  0.2049
    1W        W56461   1.393  24.958   0.119 -0.1033  0.2179  0.0462
    1W        W56462  28.219  25.364   8.532  0.1760  0.2850  0.1794
    1W        W56463  20.393   2.717   8.812  0.1163 -0.2584  0.1281
    1W        W56464  23.129  19.955   2.564 -0.0241  0.0689  0.1359
    1W        W56465   5.084  27.960   8.886  0.1755 -0.2697  0.0320
    1W        W56466  17.850  18.720   9.047  0.0720  0.1462 -0.1308
    1W        W56467   5.862  18.013   2.145 -0.2421 -0.0772 -0.1055
    1W        W56468  21.616  18.887   7.622  0.1072 -0.3272 -0.2623
    1W        W56469  24.414  15.831   0.676  0.2857 -0.0214 -0.0151
    1W        W56470  28.687  14.794   3.161  0.0157  0.2867 -0.2376
    1W        W56471  10.481  21.878   7.899  0.2369 -0.0096 -0.0272
    1W        W56472  21.169   4.561   0.298  0.3234 -0.0527 -0.2035
    1W        W56473  13.158  28.236   8.601 -0.0870  0.3434  0.0128
    1W        W56474  15.806  20.019   7.951  0.0247  0.0219 -0.0015
    1W        W56475   6.098   6.868   9.083  0.1850  0.1729 -0.0751
    1W        W56476   4.784  17.245   6.621 -0.1787  0.3141 -0.0076
    1W        W56477  19.563  16.635   9.267 -0.0408  0.1325 -0.1316
    1W        W56478  13.770   9.079   0.779 -0.0733  0.2910 -0.0035
    1W        W56479  16.745   3.218   2.248 -0.1480 -0.1277  0.1120
    1W        W56480  10.786  28.069   9.460  0.0585 -0.3702 -0.1117
    1W        W56481   7.901   3.962   0.790 -0.1691 -0.3111 -0.0777
    1W        W56482  18.859   6.723   2.178  0.0258  0.0191 -0.1197
    1W        W56483  25.453  18.021   2.383  0.0618  0.0409  0.1429
    1W        W56484  24.224  13.505   5.928  0.0024 -0.1100  0.0639
    1W        W56485  19.176   3.263   6.441 -0.1007 -0.0090  0.1466
    1W        W56486  16.897   2.709   1.843 -0.2965 -0.0314 -0.1627
    1W        W56487   1.641   8.325   0.022 -0.0357 -0.2080 -0.0231
    1W        W56488   8.752   3.965   0.946 -0.1226 -0.2391 -0.0388
    1W        W56489   3.773   6.986   8.746  0.0358  0.0747  0.2638
    1W        W56490  22.274  16.200   1.644  0.2033  0.0900  0.0563
    1W        W56491  21.387  27.010   3.390  0.0432  0.0394 -0.0941
    1W        W56492  12.320  20.313   2.006 -0.2206 -0.2213  0.0046
    1W        W56493  22.360  10.093   6.672 -0.0335 -0.0541 -0.2295
    1W        W56494  17.231  18.060   0.121  0.0610 -0.2500 -0.2555
    1W        W56495  18.706   5.347   7.620 -0.0608  0.0970 -0.2450
    1W        W56496  15.116   1.025   3.208 -0.0630 -0.1055 -0.2875
    1W        W56497  21.314  21.646   8.299 -0.2958 -0.1540  0.1793
    1W        W56498   2.843  19.524   2.245 -0.1195  0.1078 -0.1980
    1W        W56499  13.645  18.212   2.436 -0.1394 -0.0026  0.1032
    1W        W56500  25.916  10.417   6.837  0.0586 -0.3534  0.1749
    1W        W56501   4.631  12.426   2.114  0.0796  0.2108 -0.1502
    1W        W56502  23.615  13.417   0.679  0.1503  0.3808 -0.0291
    1W        W56503  13.949  22.136   2.347  0.1166  0.1888 -0.1601
    1W        W56504  11.030  28.124   7.766 -0.2105  0.1051  0.5434
    1W        W56505  20.507  22.962   7.126  0.2258 -0.3113 -0.2985
    1W        W56506  28.079  19.020   2.338 -0.1298  0.2645 -0.0105
    1W        W56507  10.570   4.570   9.851  0.1922  0.2770 -0.1059
    1W        W56508  27.522   1.262   2.964 -0.2235  0.2099 -0.0304
    1W        W56509   0.552   2.617   9.067 -0.4226 -0.0324 -0.2735
    1W        W56510  10.644  17.322   9.520  0.0796 -0.1572 -0.0252
    1W        W56511  25.379   6.362   6.289  0.0051  0.0313  0.3546
    1W        W56512  22.033   6.885   8.214  0.0555 -0.2335 -0.2252
    1W        W56513  13.475   9.988   9.772  0.4260  0.2372  0.1407
    1W        W56514   6.928  22.861   6.301  0.3529 -0.1876  0.0610
    1W        W56515  19.922  27.017   7.267  0.2005 -0.3869  0.1195
    1W        W56516  16.677  28.329   7.067  0.1306 -0.1706  0.2294
    1W        W56517  16.103  11.847   7.352 -0.1374 -0.2558  0.0922
    1W        W56518  26.563  25.090   9.101  0.1405 -0.2955  0.1040
    1W        W56519  18.090  18.791   9.756  0.0750  0.0255  0.0296
    1W        W56520  24.099   2.594   0.375 -0.0363  0.1658  0.0310
    1W        W56521   9.010  20.232   9.668  0.1965  0.2438  0.0844
    1W        W56522   8.457   6.562   7.372 -0.2568  0.0973 -0.1163
    1W        W56523  10.964   1.792   9.730 -0.0310  0.1147 -0.1359
    1W        W56524   5.136  28.606   0.524  0.1510 -0.2201 -0.7527
    1W        W56525  11.444  27.082   0.720 -0.0538 -0.2207 -0.0939
    1W        W56526  27.157  13.738   7.931 -0.1292 -0.0559 -0.1320
    1W        W56527   6.172   2.138   7.265 -0.1478 -0.0302 -0.0827
    1W        W56528  21.390  20.985   7.270  0.0598  0.0745 -0.1569
    1W        W56529  24.244   8.605   1.637 -0.0314  0.0863  0.2017
    1W        W56530   7.745  12.459   9.853  0.2567 -0.1405  0.1764
    1W        W56531   8.061   4.212   6.602  0.1145 -0.0913 -0.1161
    1W        W56532  15.833  17.367   8.450 -0.5728  0.0083 -0.0481
    1W        W56533  19.590   2.490   2.429 -0.3824  0.2645 -0.0172
    1W        W56534  16.803   8.517   3.671  0.1394 -0.0416 -0.2811
    1W        W56535  20.796  23.078   3.344  0.1864  0.0841  0.1581
    1W        W56536  24.999  11.495   6.028  0.1984 -0.0568 -0.0012
    1W        W56537  12.977  15.731   2.251  0.1312  0.1063 -0.1935
    1W        W56538  15.074   8.521   7.780 -0.3361  0.0281  0.1685
    1W        W56539   9.055  15.838   7.454  0.1296 -0.0339 -0.1159
    1W        W56540   2.928  18.461   6.348 -0.1717  0.0303 -0.2651
    1W        W56541  19.701  17.988   9.558 -0.2932  0.0225 -0.2183
    1W        W56542  16.424  21.660   9.903  0.3729  0.0701 -0.0632
    1W        W56543  23.554  10.649   0.230 -0.0262  0.3760  0.3699
    1W        W56544  14.600  15.935   1.825 -0.0026  0.0235  0.3296
    1W        W56545   3.735  27.376   6.678 -0.2583  0.1904  0.2939
    1W        W56546  26.395   4.612   0.183 -0.4581 -0.1217 -0.0644
    1W        W56547  27.626  10.596   0.276 -0.4112 -0.0772  0.1280
    1W        W56548  10.758   8.465   7.694  0.3492 -0.0870  0.0650
    1W        W56549  19.323  25.876   2.180  0.0475  0.0492 -0.2764
    1W        W56550  16.197  16.110   2.175  0.0998  0.0657  0.3634
    1W        W56551  19.380  11.936   0.788 -0.1031 -0.2565  0.0818
    1W        W56552  13.311  27.351   7.368  0.0632 -0.0900  0.1420
    1W        W56553  16.657  14.386   2.443  0.4154  0.1196 -0.0890
    1W        W56554  12.915  23.342   2.570  0.0194  0.0915 -0.0092
    1W        W56555  23.258  21.464   8.870  0.1853  0.0306 -0.2420
    1W        W56556  12.384  17.313   8.222  0.0745 -0.1123  0.2726
    1W        W56557   6.567  19.257   8.064  0.4125  0.2603  0.3016
    1W        W56558  17.715   1.342   0.990 -0.2552 -0.2401  0.0101
    1W        W56559  11.814  22.032   8.946  0.0581 -0.0068  0.0081
    1W        W56560  18.806  25.345   2.886 -0.1958 -0.1045  0.3389
    1W        W56561   0.468  14.044   7.324 -0.1321 -0.2037  0.3604
    1W        W56562  27.294   6.272   9.197  0.2007  0.1170  0.2336
    1W        W56563  13.580   1.671   1.320  0.3251 -0.1891  0.1098
    1W        W56564  15.589   5.385   3.945  0.1596  0.1900  0.0883
    1W        W56565  27.543  24.633   1.632 -0.1144  0.0775 -0.0958
    1W        W56566  18.954  21.412   1.048 -0.1917 -0.0917  0.0070
    1W        W56567  28.166  17.371   9.146 -0.0460 -0.5178  0.1688
    1W        W56568  28.552   3.042   2.616 -0.2754  0.1138  0.0840
    1W        W56569  22.937  10.409   2.477 -0.2273 -0.0716  0.0130
    1W        W56570  23.147  20.058   8.432 -0.1207 -0.1091 -0.0462
    1W        W56571  23.420  26.071   7.059  0.0046  0.0102 -0.0396
    1W        W56572  26.971  14.786   1.655 -0.0967  0.0610  0.0953
    1W        W56573  19.027  10.929   0.618  0.0231 -0.0909 -0.1916
    1W        W56574  25.950   6.432   2.911 -0.3802 -0.1483  0.1901
    1W        W56575  10.314  22.092   2.193  0.3085  0.2348  0.1336
    1W        W56576  14.793  16.404   7.361  0.3174 -0.2309 -0.5177
    1W        W56577  11.864  10.345   2.397  0.1129  0.3011  0.1712
    1W        W56578   6.277  17.866   1.000 -0.0545  0.0046 -0.2125
    1W        W56579  28.506  21.727   0.056  0.1789  0.2322 -0.3193
    1W        W56580  15.018  27.272   1.976 -0.1388  0.2523 -0.2037
    1W        W56581   0.963  16.942   7.935  0.3516  0.0892 -0.0679
    1W        W56582  14.882  28.095   3.055  0.0299  0.3548  0.1015
    1W        W56583  28.123  17.727   1.506  0.1292 -0.0968  0.2016
    1W        W56584  12.060   6.014   6.916 -0.0930 -0.0986  0.1239
    1W        W56585  11.142  26.030   2.231  0.0193  0.1199 -0.2476
    1W        W56586   0.404  22.657   0.348  0.1010 -0.0005 -0.0978
    1W        W56587  16.929  25.620   1.576 -0.0325  0.1146  0.0464
    1W        W56588  14.282  14.525   0.637  0.2275  0.1535 -0.1034
    1W        W56589  16.729   2.775   0.633 -0.1799 -0.0867 -0.2091
    1W        W56590  28.641  20.663   8.966  0.1367 -0.2493 -0.2105
    1W        W56591   5.821  24.591   2.755 -0.0100  0.0669  0.0509
    1W        W56592   1.386  10.139   7.834 -0.0251 -0.0338 -0.1582
    1W        W56593  22.477  12.284   1.331 -0.1784  0.2285 -0.2545
    1W        W56594  16.843  27.294   0.027 -0.1723 -0.0090  0.3356
    1W        W56595  27.560  27.487   8.270  0.1421  0.2378  0.1938
    1W        W56596   9.779   9.411   2.693 -0.2272  0.0360 -0.0998
    1W        W56597  16.282   5.896   3.707 -0.0506 -0.2738  0.0731
    1W        W56598   4.085  23.663   6.361  0.1676  0.1850  0.1904
    1W        W56599  23.488   2.102   9.558  0.2658  0.0222  0.0920
    1W        W56600  19.742  19.551   1.874  0.0275 -0.2641  0.1981
    1W        W56601  24.397   0.550   0.851 -0.2301  0.0618  0.0522
    1W        W56602  13.936  17.171   1.824  0.1388  0.0887 -0.2267
    1W        W56603  11.674   7.959   6.762  0.3264 -0.0845  0.1359
    1W        W56604   3.044  27.534   2.501 -0.0437 -0.3149 -0.0036
    1W        W56605   0.776   9.447   2.502  0.3442  0.3413  0.3756
    1W        W56606  16.575  19.786   7.812  0.0004 -0.1651  0.1559
    1W        W56607  14.952  15.477   7.673  0.2305 -0.0815 -0.1874
    1W        W56608  10.699  13.421   1.342  0.1391 -0.1585 -0.0684
    1W        W56609   2.807  20.005   9.767  0.1050  0.0571 -0.3316
    1W        W56610  27.375   2.629   7.560 -0.0627 -0.1137  0.1272
    1W        W56611   8.964  27.543   7.267  0.1302 -0.1747  0.2336
    1W        W56612  17.819   2.340   6.655  0.1934  0.0881 -0.2616
    1W        W56613   6.672   1.002   8.352  0.0231 -0.1716  0.1485
    1W        W56614  27.063   3.073   7.116 -0.0599  0.4169 -0.2335
    1W        W56615  22.865  25.546   0.001  0.2428 -0.1294  0.0091
    1W        W56616  25.577  12.079   9.415 -0.1794 -0.2112  0.2109
    1W        W56617   9.321  24.767   6.147 -0.0194 -0.0064  0.1113
    1W        W56618  26.643   2.344   6.622  0.1437  0.2165  0.3546
    1W        W56619  11.555  16.833   8.680 -0.0391  0.0681 -0.2275
    1W        W56620  19.964   0.681   7.284 -0.0999  0.1189  0.0533
    1W        W56621  16.113  23.133   1.591  0.0775  0.1478  0.1547
    1W        W56622  22.506  23.285   1.224 -0.3546  0.2721 -0.0747
    1W        W56623  13.288   9.246   0.980 -0.1531 -0.1035  0.1432
    1W        W56624  12.242   1.144   2.118  0.1140  0.0873  0.0048
    1W        W56625  15.681  20.941   2.242  0.1167 -0.0792  0.0165
    1W        W56626   2.978  17.822   6.817  0.0313 -0.0560  0.0753
    1W        W56627   3.349  21.192   8.077  0.2144  0.2891 -0.0486
    1W        W56628  26.278   8.799   7.835 -0.0990 -0.2913  0.0804
    1W        W56629   3.978  23.394   8.086  0.0217  0.1819 -0.0078
    1W        W56630  22.857   8.464   1.071  0.0551 -0.1740  0.0179
    1W        W56631  12.677  10.245   1.804 -0.3069 -0.0043 -0.1218
    1W        W56632   0.392  23.425   3.468  0.0973 -0.0766  0.1304
    1W        W56633  28.389   5.900   7.875 -0.1892 -0.1668 -0.0951
    1W        W56634  14.466   7.173   8.885  0.1903 -0.1511  0.3179
    1W        W56635   2.090  15.387   6.045 -0.2492  0.1027 -0.1996
    1W        W56636  14.938  17.829   7.531 -0.1866 -0.0710 -0.2195
    1W        W56637   3.014   4.274   2.739 -0.0650  0.0371  0.2254
    1W        W56638  13.126  21.751   8.373 -0.2104 -0.2373  0.3181
    1W        W56639  10.216   7.887   8.151 -0.0709 -0.0400  0.2051
    1W        W56640  18.570   2.125   9.226 -0.1973  0.3129 -0.0908
    1W        W56641   7.270  24.497   1.646  0.1214  0.0816  0.3179
    1W        W56642   2.655   5.985   7.781  0.2793  0.0250 -0.0138
    1W        W56643   1.864  20.538   2.377  0.0593 -0.2707  0.2268
    1W        W56644  15.082  16.539   1.277  0.1752 -0.0220 -0.0019
    1W        W56645   2.286   5.299   9.635  0.2919 -0.2445 -0.1247
    1W        W56646  19.523  28.275   7.363 -0.0621  0.3845 -0.0861
    1W        W56647  25.669  24.123   1.094  0.1716 -0.1765 -0.1757
    1W        W56648   4.259  18.384   1.349 -0.1249 -0.0092 -0.1596
    1W        W56649  20.952  26.768   1.175  0.0244  0.0650 -0.2696
    1W        W56650  11.150   8.420   1.696  0.0893  0.2192  0.1279
    1W        W56651  26.348  20.705   8.132  0.0228 -0.0877  0.0619
    1W        W56652   9.665   2.903   7.411  0.1678 -0.0748  0.1304
    1W        W56653  17.085   5.290   3.015  0.1865  0.2896  0.0323
    1W        W56654  16.884   2.580   2.365  0.0048  0.1224  0.0636
    1W        W56655   8.746   6.159   3.386  0.0304  0.5916  0.0099
    1W        W56656   4.605   4.382   0.458  0.1786  0.0747 -0.3307
    1W        W56657  10.678  19.158   9.833 -0.0844 -0.1697 -0.3400
    1W        W56658  13.191  15.392   7.896 -0.3121  0.3537 -0.0624
    1W        W56659  11.900  27.007   8.412  0.1225  0.0505  0.4041
    1W        W56660  24.069  23.912   8.991  0.1647 -0.1241 -0.1585
    1W        W56661  26.453  17.375   6.690  0.0048 -0.1458  0.0685
    1W        W56662  17.200   7.238   1.912  0.0856 -0.0508  0.1610
    1W        W56663   2.647  11.439   2.513 -0.0662  0.1576  0.0996
    1W        W56664  11.899   2.813   3.929 -0.0361  0.1258  0.1158
    1W        W56665  13.027   8.389   2.316 -0.0769 -0.0094  0.0087
    1W        W56666  27.091  24.179   3.812 -0.2553 -0.2278  0.0141
    1W        W56667   7.680  26.553   2.197  0.3002  0.7228  0.0493
    1W        W56668  25.176   9.451   0.131 -0.1184 -0.1439 -0.0143
    1W        W56669   2.471  27.673   7.158  0.0087  0.0160 -0.2923
    1W        W56670  27.489  13.371   1.266 -0.2858  0.2603  0.0584
    1W        W56671  26.503   3.802   6.195 -0.2685  0.0942  0.2584
    1W        W56672  27.226   1.638   1.984  0.0504 -0.3627  0.1902
    1W        W56673  26.124  16.060   0.106 -0.1949  0.0111 -0.2654
    1W        W56674  16.295  13.072   2.313 -0.1925 -0.3396 -0.1214
    1W        W56675  21.351  25.654   0.827 -0.0742 -0.2367 -0.1657
    1W        W56676   1.272  21.643   9.390 -0.1050 -0.0309  0.1086
    1W        W56677  26.599   3.787   9.406  0.0585  0.1493  0.0044
    1W        W56678   8.188   6.360   7.997  0.0281 -0.0728 -0.2292
    1W        W56679   3.297  20.409   9.362  0.1319  0.1850  0.0480
    1W        W56680   4.153  21.808   5.822 -0.0216  0.4181 -0.0318
    1W        W56681   3.697  27.152   2.110  0.0367 -0.1950  0.0359
    1W        W56682   0.014   3.995   2.520  0.2471 -0.0963 -0.0607
    1W        W56683   7.304   4.391   3.736 -0.1278 -0.0524  0.0478
    1W        W56684  19.067  16.686   9.116  0.0570  0.0732  0.2467
    1W        W56685   2.143  13.244   9.940 -0.1846  0.1584 -0.0556
    1W        W56686   0.385  14.676   1.067 -0.1970 -0.2048  0.2316
    1W        W56687  22.783   6.407   9.923  0.2184 -0.0699 -0.0843
    1W        W56688  12.571   7.254   2.217 -0.2291 -0.0536  0.0544
    1W        W56689  17.125   2.598   0.924  0.0603  0.1094  0.1768
    1W        W56690  11.431   9.885   8.631  0.0202 -0.2422 -0.0012
    1W        W56691  15.116  16.442   8.712  0.1882  0.0414  0.0165
    1W        W56692   9.400  22.957   1.063  0.1749 -0.0303  0.3010
    1W        W56693   1.507  27.075   8.693 -0.1881  0.0391  0.0153
    1W        W56694   2.428  11.964   9.579 -0.3220 -0.1756  0.0397
    1W        W56695  23.471  22.249   9.042 -0.2544 -0.1195 -0.2451
    1W        W56696  20.115  13.361   9.398  0.3008  0.0136 -0.1725
    1W        W56697  18.575  23.139   1.498  0.0942 -0.0775  0.2849
    1W        W56698  17.564  17.721   7.900  0.0033 -0.2093  0.2112
    1W        W56699   8.911  28.125   9.652  0.4214  0.0967 -0.3194
    1W        W56700  27.612  10.977   9.149  0.1418 -0.1750 -0.1612
    1W        W56701   5.319  22.502   7.489 -0.2007 -0.0792  0.0429
    1W        W56702   5.497  26.838   8.599  0.2796 -0.1237 -0.1278
    1W        W56703  26.774   4.691   2.994 -0.1024  0.1912  0.2013
    1W        W56704   6.816  17.949   7.800 -0.1597  0.1460 -0.3376
    1W        W56705  19.300  11.897   2.646 -0.1264  0.4518  0.2029
    1W        W56706   6.225  28.454   1.401 -0.1086 -0.1224 -0.1021
    1W        W56707  19.697   4.480   8.243 -0.0620  0.0483  0.1787
    1W        W56708   6.036  13.737   9.668 -0.1361  0.0562  0.0228
    1W        W56709   1.892   2.156   1.361  0.0443  0.2314 -0.2603
    1W        W56710  10.100  23.954   6.078 -0.0575  0.2371  0.1589
    1W        W56711   3.875   6.140   7.935  0.0816  0.1670 -0.3301
    1W        W56712  19.689  24.161   2.588 -0.1090 -0.2130 -0.0298
    1W        W56713  23.387  15.452   7.465  0.1361 -0.2178  0.4972
    1W        W56714  27.651  18.444   7.897 -0.2094  0.1249 -0.1116
    1W        W56715  27.292  12.308   6.789  0.2124 -0.1278  0.0819
    1W        W56716  22.875   2.123   2.212 -0.1146 -0.1439 -0.0933
    1W        W56717   1.959  19.021   8.488  0.1758 -0.2151  0.0583
    1W        W56718  28.247   4.627   0.926  0.1999 -0.1865 -0.0870
    1W        W56719  25.036  26.889   2.163  0.1965 -0.0096  0.0203
    1W        W56720  17.473   0.299   9.445  0.0840 -0.1235  0.1323
    1W        W56721  25.702  11.862   8.604  0.1186 -0.0620 -0.2562
    1W        W56722  18.620  26.637   1.843  0.2920 -0.1627  0.1750
    1W        W56723  10.685   1.225   8.108 -0.2648 -0.0165  0.2161
    1W        W56724  26.528  27.659   6.742 -0.1088 -0.0857 -0.1881
    1W        W56725  27.037   5.851   1.377  0.1385  0.1955 -0.1224
    1W        W56726  27.389  18.016   0.600  0.1217 -0.1420 -0.1477
    1W        W56727  10.147  11.863   8.886 -0.0406  0.2032  0.1802
    1W        W56728  12.215  26.649   7.465 -0.1582  0.1352 -0.4908
    1W        W56729   1.180   6.143   7.059  0.0855  0.3039 -0.3396
    1W        W56730  21.237   5.097   8.108  0.0524  0.1935 -0.3092
    1W        W56731   7.394  25.038   7.801 -0.3320  0.0332  0.3068
    1W        W56732   5.959  23.113   7.159 -0.2136 -0.3100 -0.1576
    1W        W56733  13.765   0.305   0.169  0.4437  0.1567  0.1163
    1W        W56734  17.063   7.416   0.485 -0.2084  0.1596  0.0665
    1W        W56735   1.265  12.449   8.450 -0.0047 -0.1207  0.3006
    1W        W56736  11.949  20.840   9.475 -0.1966 -0.2451 -0.0138
    1W        W56737   2.571  24.744   2.795 -0.0902  0.1037 -0.4003
    1W        W56738  27.619  23.551   9.925 -0.0921 -0.3600 -0.3323
    1W        W56739   3.642   7.825   1.093 -0.1928  0.1291  0.0834
    1W        W56740  22.265   5.547   6.921 -0.1839  0.0177 -0.1002
    1W        W56741  23.569   7.604   6.615 -0.0816  0.2167 -0.0729
    1W        W56742  18.558  15.690   6.857  0.0213 -0.0194  0.0374
    1W        W56743   7.749  27.536   2.106  0.1603  0.2982 -0.1197
    1W        W56744  13.485  21.870   9.574 -0.1813  0.0024  0.2075
    1W        W56745  11.031  28.465   2.277 -0.0479 -0.0217 -0.0943
    1W        W56746   8.381  25.878   1.746  0.3060 -0.0250 -0.1049
    1W        W56747  13.839  20.038   2.747 -0.2342  0.0727  0.0253
    1W        W56748  23.492   3.176   0.066  0.1434 -0.0914 -0.1859
    1W        W56749   8.315   9.534   8.111  0.2896  0.1537 -0.2466
    1W        W56750  21.634  20.968   1.811  0.1679  0.0216  0.1741
    1W        W56751  20.296   7.333   9.535  0.0915  0.2571  0.1317
    1W        W56752   4.227   1.297   9.508 -0.3285  0.1790  0.1264
    1W        W56753   7.353  21.241   7.785  0.1449 -0.0771 -0.0863
    1W        W56754   4.375  26.513   9.404 -0.0982 -0.4210 -0.1647
    1W        W56755   0.126  19.499   2.817 -0.1302  0.0168  0.1708
    1W        W56756  25.208  11.270   1.330 -0.1080  0.1650  0.1723
    1W        W56757  11.187  17.856   2.661  0.2992 -0.1163  0.1638
    1W        W56758   2.954  11.593   0.070 -0.1146  0.1658  0.1105
    1W        W56759   6.805  22.081   8.740  0.1137 -0.1097  0.0059
    1W        W56760  23.696  17.257   1.913  0.0662  0.1017  0.0889
    1W        W56761  14.722   8.555   8.750 -0.0075 -0.3202 -0.0865
    1W        W56762   4.083  25.943   0.280  0.2525 -0.0327  0.1886
    1W        W56763  12.348  15.078   0.318 -0.6033 -0.0621  0.1960
    1W        W56764  19.110  22.185   8.257  0.2247 -0.1585  0.0158
    1W        W56765  28.019   1.261   2.847 -0.0781  0.1294 -0.3400
    1W        W56766   4.783  13.538   1.854  0.0088 -0.1890 -0.0952
    1W        W56767   6.045   9.882   1.053 -0.2070 -0.3295 -0.3379
    1W        W56768   0.616   2.871   3.101  0.3982  0.3009 -0.1898
    1W        W56769  24.301  17.862   0.698 -0.0881  0.0415  0.0622
    1W        W56770  24.233  13.194   2.133  0.1439  0.0772 -0.3179
    1W        W56771   8.007  20.291   1.495 -0.0908  0.0276  0.1499
    1W        W56772   3.054  26.540   9.729 -0.1728 -0.3408  0.0196
    1W        W56773  17.184   3.096   2.154 -0.2427  0.1493 -0.0250
    1W        W56774   2.618  21.326   5.236 -0.2956 -0.0327  0.2982
    1W        W56775  27.002  17.356   9.109 -0.4204  0.0543  0.1181
    1W        W56776  26.945   6.759   8.406  0.0417 -0.5885  0.2343
    1W        W56777  11.354   7.786   2.483 -0.1009 -0.1342  0.0633
    1W        W56778  22.199  12.195   0.916 -0.3830 -0.1871  0.3419
    1W        W56779  12.407  28.575   0.075 -0.1943 -0.0291  0.2206
    1W        W56780  16.668  21.603   8.066 -0.2110  0.1441  0.0565
    1W        W56781  28.315  26.896   7.755  0.2304 -0.1137 -0.1395
    1W        W56782  11.534   5.629   0.995  0.1424  0.1678  0.1335
    1W        W56783  10.144  22.524   6.237  0.0275 -0.1134  0.2735
    1W        W56784   5.865  12.060   2.910  0.0282  0.0967 -0.4089
    1W        W56785  26.587  26.179   9.070 -0.1407  0.0011  0.4604
    1W        W56786  27.293   8.171   2.587 -0.2107  0.0197  0.0438
    1W        W56787   4.461  19.288   1.406 -0.0755  0.0993  0.0392
    1W        W56788  24.205  21.139   8.903 -0.2703  0.1813  0.0195
    1W        W56789   7.575  25.439   6.078  0.0774 -0.0565 -0.0529
    1W        W56790   1.859  16.703   6.900  0.4757  0.2270  0.2902
    1W        W56791   8.576  22.907   7.432  0.1411  0.1533  0.0737
    1W        W56792   6.534   3.241   0.488  0.0783 -0.3324 -0.0551
    1W        W56793  24.773  28.366   2.572 -0.1894  0.1633 -0.1689
    1W        W56794  28.065  11.899   7.611  0.0515 -0.0123  0.0945
    1W        W56795  20.862  27.887   1.968  0.5391  0.2279  0.0757
    1W        W56796   2.248  24.989   0.525  0.0681  0.1186 -0.2016
    1W        W56797  21.127  15.801   0.260 -0.1015  0.1044  0.2428
    1W        W56798  12.123  15.489   2.292 -0.1397  0.0088  0.0555
    1W        W56799   6.811  28.521   2.355  0.0261  0.3359  0.1375
    1W        W56800  24.328  11.010   9.486 -0.3809 -0.1180 -0.4229
    1W        W56801   4.581  25.204   7.321 -0.2828  0.0013  0.2027
    1W        W56802  20.727  15.550   9.905  0.1276  0.4996 -0.2640
    1W        W56803  22.558   3.915   2.900 -0.0837 -0.1941  0.0303
    1W        W56804  19.988  16.464   1.393  0.0513  0.1407  0.0473
    1W        W56805  21.119  25.539   0.235  0.2318  0.0477 -0.0354
    1W        W56806  22.393  22.473   8.322 -0.3094 -0.1366  0.2090
    1W        W56807  20.317   0.986   9.083 -0.0781  0.1042 -0.0835
    1W        W56808  10.330   0.823   0.649  0.0324 -0.2025 -0.0087
    1W        W56809  23.890  15.010   0.251  0.3216  0.3285 -0.1446
    1W        W56810   4.475   9.540   0.226  0.2216  0.1107 -0.1381
    1W        W56811   4.236   6.445   0.003 -0.2290  0.2195 -0.0707
    1W        W56812   9.107   0.618   8.883  0.0687  0.0119 -0.1052
    1W        W56813   0.792   2.248   9.498 -0.0229  0.3286  0.1410
    1W        W56814  20.787  18.687   2.425  0.1293 -0.2362  0.1642
    1W        W56815  18.428   0.162   8.537  0.3091  0.2011  0.2094
    1W        W56816   2.323  13.383   9.271  0.1297 -0.4383  0.0501
    1W        W56817  19.844   2.179   0.584 -0.2207  0.2692 -0.1367
    1W        W56818  11.450  23.196   2.030 -0.0667  0.0233 -0.0297
    1W        W56819   9.373  13.861   2.323  0.1353 -0.0223 -0.0105
    1W        W56820  14.635   5.398   1.930 -0.0784  0.2273 -0.0104
    1W        W56821   7.124  19.768   7.231  0.2272  0.2577 -0.1307
    1W        W56822   2.457  20.132   6.125  0.1309  0.0318  0.1575
    1W        W56823  24.441  12.308   7.292 -0.4097  0.1742 -0.2250
    1W        W56824  22.646  12.074   0.800  0.1405  0.1487  0.2402
    1W        W56825  28.019  10.152   0.478 -0.0411 -0.2064 -0.1362
    1W        W56826  27.000  26.413   0.813  0.1520 -0.2039 -0.2164
    1W        W56827   9.195  16.411   2.384  0.0135 -0.0227  0.1100
    1W        W56828  15.840   1.230   8.825  0.3133 -0.0675  0.1501
    1W        W56829  20.240  23.234   2.168  0.2039  0.0298 -0.3023
    1W        W56830  14.306  11.158   7.860  0.0085 -0.0203  0.0483
    1W        W56831  10.879  20.643   9.846 -0.1310 -0.0323 -0.0326
    1W        W56832   1.192  16.241   7.454 -0.0495  0.0854 -0.1639
    1W        W56833  21.494   5.886   2.219  0.2950  0.3347  0.1147
    1W        W56834   7.471  15.198   7.265 -0.0057 -0.4019  0.1460
    1W        W56835   7.858   5.191   1.719  0.0698 -0.0484  0.3009
    1W        W56836  24.475  15.808   2.242  0.2856 -0.1108 -0.2100
    1W        W56837   4.085  25.841   8.779 -0.0781  0.1018  0.0183
    1W        W56838   7.473  15.209   1.092 -0.0422 -0.0873  0.2583
    1W        W56839   8.210   3.818   6.940 -0.2487 -0.2797 -0.2398
    1W        W56840  13.359  24.447   2.652  0.2696  0.1416  0.3497
    1W        W56841   0.947  22.687   1.714  0.0060 -0.3717 -0.2180
    1W        W56842  24.861  10.504   0.287 -0.0612 -0.0971 -0.1937
    1W        W56843   7.530   8.785   2.347 -0.2682  0.1971 -0.4000
    1W        W56844   5.594  25.621   1.140  0.1774 -0.2928  0.2028
    1W        W56845  23.555   7.811   1.993 -0.2845  0.1547 -0.1183
    1W        W56846   0.953  27.373   9.434  0.2958 -0.2754 -0.0743
    1W        W56847  23.462  27.666   0.899  0.4482  0.1122 -0.1677
    1W        W56848  17.910  14.721   0.656  0.2061 -0.2776  0.3292
    1W        W56849   3.197  23.292   5.629 -0.1143 -0.0747  0.3198
    1W        W56850  14.653  17.772   1.512 -0.2912 -0.0892  0.0764
    1W        W56851   4.196  16.257   7.506  0.0687 -0.1164  0.1159
    1W        W56852   9.137  23.275   0.686  0.2059 -0.0160  0.0149
    1W        W56853  13.368  19.687   0.689 -0.3867  0.1149 -0.0429
    1W        W56854  15.240  15.990   8.550  0.0588  0.1082 -0.0603
    1W        W56855  26.217  18.860   1.333 -0.2374 -0.0636 -0.0575
    1W        W56856  11.417   5.318   2.280 -0.2074 -0.2169 -0.0580
    1W        W56857  15.583   0.769   8.906 -0.2621  0.0668 -0.3285
    1W        W56858   5.942  27.928   0.880  0.1385 -0.3499  0.0044
    1W        W56859   1.114  15.740   8.646 -0.0500  0.0130  0.0827
    1W        W56860  18.876  13.325   9.354 -0.0997 -0.4206  0.5012
    1W        W56861   6.308  13.018   2.626 -0.1860  0.2728  0.0798
    1W        W56862  22.094   8.621   8.882 -0.0443  0.1477  0.3393
    1W        W56863   8.117   6.491   1.948  0.0321 -0.0601  0.0694
    1W        W56864   4.259  27.940   9.916 -0.3513  0.0564  0.0620
    1W        W56865   4.255  15.697   6.532 -0.2105  0.2906  0.2067
    1W        W56866   5.818  26.562   1.146  0.0615  0.2080 -0.1425
    1W        W56867  10.326  15.421   9.485  0.0613 -0.1681 -0.3490
    1W        W56868  22.574  11.472   8.235  0.1266 -0.1892  0.2017
    1W        W56869   4.982  21.293   8.258 -0.0619  0.3109  0.2818
    1W        W56870  23.389   4.746   7.373 -0.2697  0.0890 -0.3494
    1W        W56871   2.935  10.842   6.009 -0.0617 -0.1089  0.1467
    1W        W56872   9.638   0.427   3.367  0.1124  0.1308  0.2389
    1W        W56873   3.880  16.380   0.622  0.1245  0.0520  0.1908
    1W        W56874  26.475  16.192   9.705 -0.0473 -0.2055 -0.0026
    1W        W56875   9.537   0.700   9.816 -0.2892 -0.0315 -0.0006
    1W        W56876  24.609  17.450   2.019 -0.2685  0.0802 -0.2825
    1W        W56877  14.603  26.615   0.418  0.1301 -0.1111  0.3798
    1W        W56878   4.984  16.860   8.364  0.0379  0.3301  0.1529
    1W        W56879  16.885  26.108   0.606  0.1958  0.1604 -0.2477
    1W        W56880   3.926  24.078   0.909 -0.0213 -0.3357  0.4260
    1W        W56881  27.266   4.827   7.893 -0.2754  0.0037 -0.0860
    1W        W56882  24.321   0.011   1.623 -0.0971 -0.1813 -0.1641
    1W        W56883  24.327   6.958   0.469  0.2371 -0.3480 -0.0651
    1W        W56884   7.840   6.719   1.450  0.2329  0.1724 -0.0085
    1W        W56885  28.612  14.191   7.185  0.1412 -0.1119  0.0069
    1W        W56886  14.907   2.104   2.376  0.0553  0.0761 -0.2784
    1W        W56887  23.761   1.184   0.295 -0.1679 -0.0914  0.1510
    1W        W56888  20.502  21.127   3.113 -0.0910 -0.0281 -0.2094
    1W        W56889   1.158   3.947   3.656 -0.0948 -0.0806  0.0696
    1W        W56890  28.107   5.911   1.975  0.2394  0.1477 -0.1307
    1W        W56891  24.274   3.979   2.488 -0.1242  0.2944  0.5334
    1W        W56892  27.224  19.477   0.497 -0.1263  0.0787 -0.2141
    1W        W56893  11.940  21.091   8.153 -0.0669  0.0088 -0.4228
    1W        W56894  21.244  13.306   1.264 -0.0388  0.0913  0.1759
    1W        W56895  12.946  17.140   7.361  0.0498 -0.1455 -0.1343
    1W        W56896  28.163  11.706   6.563  0.0240  0.0791 -0.1698
    1W        W56897   7.610  24.578   8.538 -0.3637  0.0031  0.2156
    1W        W56898  21.431  16.728   9.787  0.2756  0.1756  0.1408
    1W        W56899  20.915  24.687   8.171  0.0401 -0.1439  0.0437
    1W        W56900   6.419  23.235   0.638 -0.1281 -0.2435  0.1108
    1W        W56901  15.518   7.535   1.004 -0.1582  0.0021 -0.2987
    1W        W56902  13.152   4.880   8.184  0.1894 -0.0388  0.2108
    1W        W56903  10.376   3.612   0.589 -0.3980  0.0904 -0.0791
    1W        W56904  19.257   5.266   9.336 -0.1302 -0.0214 -0.0633
    1W        W56905  26.724   5.487   1.338  0.0280 -0.1992 -0.0167
    1W        W56906  14.267  12.366   1.494  0.1880  0.0499 -0.0423
    1W        W56907  16.354  24.498   3.165  0.3002  0.2131 -0.0513
    1W        W56908   3.132  12.419   1.832 -0.2886  0.0499 -0.2528
    1W        W56909  20.743   9.093   1.494  0.1131  0.1075  0.0707
    1W        W56910   5.898   9.125   0.723 -0.1552  0.0926 -0.1088
    1W        W56911  15.830  12.514   7.926 -0.0647  0.1851 -0.0948
    1W        W56912  24.145   4.799   7.866 -0.2676  0.1444  0.1854
    1W        W56913  15.559  26.574   9.770  0.0084 -0.1105  0.2567
    1W        W56914  12.450   8.201   9.159  0.0122 -0.0735 -0.2348
    1W        W56915  26.599  24.132   7.311 -0.1129  0.3889 -0.0945
    1W        W56916   0.596  18.535   6.533 -0.1981  0.2676  0.1786
    1W        W56917  22.551   1.517   7.632 -0.0368 -0.0914 -0.0608
    1W        W56918  12.196  27.051   2.187  0.4168  0.1657 -0.1276
    1W        W56919   3.184  28.605   2.118  0.2251  0.4220 -0.0113
    1W        W56920  17.776   6.112   0.017 -0.0126 -0.0125 -0.2390
    1W        W56921  10.230  27.222   8.733 -0.3738  0.0391  0.2296
    1W        W56922   4.509  13.929   0.482 -0.0573 -0.1792 -0.2063
    1W        W56923  26.268   2.293   2.038  0.1688  0.1408  0.3127
    1W        W56924  22.759   6.922   9.774 -0.0130  0.0776 -0.0266
    1W        W56925   5.655   1.924   1.579  0.1820  0.2434  0.0878
    1W        W56926  13.284  17.300   9.492  0.1176 -0.1905 -0.1041
    1W        W56927   4.876  19.133   2.203  0.1192 -0.1512 -0.3086
    1W        W56928   8.696  17.951   1.538 -0.1684  0.0409 -0.1916
    1W        W56929  13.130  15.880   9.402 -0.0615 -0.0999  0.2027
    1W        W56930   6.298  28.070   1.902  0.0761 -0.0432  0.1800
    1W        W56931   0.684   9.829   2.222  0.3195  0.0747  0.1994
    1W        W56932   3.796   6.455   9.664 -0.3266  0.0265  0.2910
    1W        W56933  25.574  28.472   9.354 -0.1466  0.0961 -0.2733
    1W        W56934   6.259  25.914   0.498  0.0004  0.4991 -0.2496
    1W        W56935  17.563   3.925   0.427 -0.1222 -0.0039  0.3744
    1W        W56936  23.386  22.245   1.915  0.0436  0.2048  0.2264
    1W        W56937  24.671  17.603   9.954 -0.4394  0.1388  0.0903
    1W        W56938   6.789  22.237   2.476  0.0070 -0.2414  0.0954
    1W        W56939  23.708   9.189   7.780  0.0542 -0.2407  0.0051
    1W        W56940  25.620   2.806   8.484  0.0813  0.0941  0.0151
    1W        W56941  26.390  23.966   1.486 -0.1258  0.0759  0.4109
    1W        W56942   7.047  22.659   1.106 -0.0217 -0.1477  0.3284
    1W        W56943  28.679   5.493   0.253  0.2846 -0.3009  0.0097
    1W        W56944  28.048  22.120   1.424  0.0055 -0.0559 -0.0950
    1W        W56945   6.985  23.971   0.420 -0.0392  0.2045 -0.2501
    1W        W56946   7.044  12.441   9.270  0.0994  0.0740 -0.2100
    1W        W56947  13.029   0.959   1.875 -0.1065 -0.1729 -0.1749
    1W        W56948   4.170   0.746   7.529  0.1783  0.0882 -0.0853
    1W        W56949  26.936  28.110   0.072  0.0784  0.1475  0.4240
    1W        W56950   0.060   2.515   7.228 -0.0511 -0.0435  0.0430
    1W        W56951  12.507  21.749   3.311  0.1072 -0.0326  0.1950
    1W        W56952   1.013  16.417   7.932  0.0426  0.0681 -0.0280
    1W        W56953  23.151  19.751   3.095 -0.1745  0.1479 -0.2011
    1W        W56954   5.347  21.389   1.100 -0.0052  0.0794  0.0306
    1W        W56955  19.496  12.778   8.296 -0.1085 -0.0610 -0.1212
    1W        W56956  23.324   1.346   3.191  0.1861 -0.1600 -0.2494
    1W        W56957  13.476   1.202   1.755  0.0602 -0.0600 -0.0065
    1W        W56958  22.067  20.999   1.653 -0.0829  0.3940 -0.1792
    1W        W56959  11.957   8.023   9.675  0.0003 -0.1937  0.1016
    1W        W56960  20.217   6.276   2.222 -0.0260 -0.2011 -0.1273
    1W        W56961  14.425  24.827   0.724 -0.0143 -0.0997 -0.1609
    1W        W56962   2.132   4.397   2.550 -0.1265 -0.0639 -0.1692
    1W        W56963  13.381   6.927   1.722 -0.2616  0.0974 -0.5261
    1W        W56964  22.579  11.914   9.498 -0.0305  0.4408  0.2448
    1W        W56965  17.756   2.829   1.280  0.0278 -0.0594  0.1899
    1W        W56966   7.342  24.978   6.852 -0.0705 -0.2638 -0.0710
    1W        W56967  19.824  20.961   7.454  0.0221 -0.0256  0.0163
    1W        W56968  25.500   7.406   7.538  0.4257  0.0343 -0.2284
    1W        W56969   2.631  10.804   7.299 -0.2887 -0.1595 -0.2632
    1W        W56970   3.561   0.613   0.618  0.1278  0.1331 -0.1499
    1W        W56971  15.469  22.468   9.414 -0.0248 -0.1515  0.1880
    1W        W56972  13.553  24.536   0.652 -0.1079  0.3303  0.2589
    1W        W56973  11.484  12.339   9.921  0.0795  0.0956 -0.2169
    1W        W56974  27.825  14.196   0.472  0.0833  0.0856  0.1441
    1W        W56975   2.775  16.924   0.526  0.0347 -0.1276 -0.0370
    1W        W56976  14.732   4.354   8.894 -0.0908  0.1576  0.2705
    1W        W56977   6.088   3.694   8.832  0.5174 -0.0117  0.2920
    1W        W56978  14.258  23.344   1.746 -0.0273 -0.0253  0.2124
    1W        W56979  26.707   5.655   6.404 -0.1150 -0.2538 -0.4677
    1W        W56980  23.227  18.841   8.778  0.1048 -0.0666 -0.3537
    1W        W56981  25.377  20.598   1.527 -0.0139 -0.1738  0.2809
    1W        W56982   0.292   8.373   7.192  0.0146  0.1699 -0.3701
    1W        W56983  15.233  19.327   7.993  0.4587 -0.0643  0.1693
    1W        W56984  28.143  19.972   9.470 -0.0007  0.0242  0.0566
    1W        W56985  11.676  25.837   8.566 -0.1763 -0.1078 -0.3615
    1W        W56986   1.530   6.880   3.548 -0.0207 -0.2658 -0.2028
    1W        W56987  15.789   7.102   2.219  0.1737  0.2980 -0.0220
    1W        W56988   7.013   8.572   7.751  0.0177  0.1940  0.3178
    1W        W56989  24.418  14.333   9.729 -0.2564 -0.0454 -0.0781
    1W        W56990  16.724  10.411   1.762 -0.0035  0.0521  0.1504
    1W        W56991   2.836   1.204   9.233 -0.1324  0.0388  0.3340
    1W        W56992  20.604  24.576   0.037 -0.0615  0.0490 -0.3978
    1W        W56993  16.216  28.565   3.004 -0.0635 -0.0309  0.0663
    1W        W56994  28.657  10.580   2.178 -0.4323 -0.1672 -0.2599
    1W        W56995  10.119   1.999   3.485  0.1455  0.1020 -0.2036
    1W        W56996  23.498  12.239   7.401 -0.0697 -0.0198  0.0186
    1W        W56997   4.405  24.129   1.043  0.2914 -0.0710  0.0796
    1W        W56998   1.671   9.475   8.345  0.1484  0.1370 -0.0145
    1W        W56999   4.560   9.600   8.385  0.1144 -0.1917  0.1706
    1W        W57000  26.862   2.938   2.856 -0.1339  0.1840  0.1133
    1W        W57001  23.786   6.781   2.494 -0.2142  0.0597 -0.1601
    1W        W57002   7.037  17.007   1.155  0.0788 -0.0979 -0.2426
    1W        W57003   8.898   1.171   7.873 -0.1932  0.0830 -0.0034
    1W        W57004  25.446   8.618   0.889  0.0952 -0.0465 -0.0413
    1W        W57005  22.397  28.562   9.692 -0.3782 -0.2018  0.0125
    1W        W57006   4.484  22.825   6.461  0.0828  0.1111 -0.0123
    1W        W57007   0.158   4.728   6.502 -0.0497 -0.1708  0.1553
    1W        W57008  25.109   5.604   9.219  0.1048  0.0691  0.3916
    1W        W57009  16.573   2.285   2.729 -0.1281 -0.3185  0.0537
    1W        W57010   4.366  13.568   7.444 -0.3260 -0.3209 -0.2767
    1W        W57011   1.105  14.910   1.669  0.0273 -0.3116  0.4259
    1W        W57012   1.158  22.229   9.167 -0.1807  0.0650 -0.2802
    1W        W57013  19.501  20.791   8.250  0.3260  0.3403  0.1357
    1W        W57014   3.014  24.011   0.849 -0.1687  0.1508 -0.2174
    1W        W57015  25.445  22.202   2.505 -0.1026  0.0376 -0.2012
    1W        W57016   5.976   2.357   0.681  0.1350 -0.1435 -0.3086
    1W        W57017  22.051  11.340   8.302 -0.1199 -0.3863  0.0263
    1W        W57018  14.790  16.018   7.835  0.1323  0.1279  0.0879
    1W        W57019   1.077  24.869   7.369  0.1153  0.0410 -0.0726
    1W        W57020   5.624   3.586   9.102  0.0676  0.2191 -0.0846
    1W        W57021   9.104   4.321   1.101 -0.2508  0.0806  0.0991
    1W        W57022   5.297  10.820   9.582  0.1171  0.0309 -0.2688
    1W        W57023  16.580  21.495   0.973  0.0987  0.0543  0.1778
    1W        W57024   9.047  20.950   8.146  0.1309  0.0398 -0.0417
    1W        W57025   0.527   4.108   1.415  0.1349 -0.4398 -0.2481
    1W        W57026  22.575  22.551   1.358  0.2870  0.0440 -0.1942
    1W        W57027  27.305  19.527   6.802 -0.2574  0.0195  0.2990
    1W        W57028   9.248   3.453   1.930 -0.1469  0.0898 -0.0060
    1W        W57029  17.288  15.070   8.705  0.2502 -0.0297 -0.1138
    1W        W57030   0.849  23.586   8.436  0.2225  0.0722 -0.1681
    1W        W57031   9.622  20.897   6.713  0.0273 -0.1524  0.0175
    1W        W57032   9.820  19.866   1.654 -0.0625  0.0244 -0.0323
    1W        W57033  20.167  22.559   7.270 -0.0350 -0.3487  0.0641
    1W        W57034  22.993  19.856   7.493  0.3469  0.1427  0.2765
    1W        W57035   7.928  25.183   2.996  0.0352 -0.3903 -0.1844
    1W        W57036   1.886  25.171   0.854 -0.0555  0.0860  0.1477
    1W        W57037   3.551  24.585   8.953  0.1032 -0.0965  0.0615
    1W        W57038   4.021   1.501   9.061  0.3941  0.0901  0.2019
    1W        W57039  21.286  26.099   2.675  0.0381 -0.0243 -0.0105
    1W        W57040  27.307   2.432   3.477  0.1781 -0.0784 -0.0024
    1W        W57041  25.659  19.012   1.926 -0.1844  0.0059  0.0603
    1W        W57042  19.477  19.132   9.849  0.1960 -0.0556  0.0439
    1W        W57043   2.462  13.590   1.338  0.2227 -0.0445 -0.0436
    1W        W57044   0.961  22.867   6.141  0.1184 -0.1458  0.1555
    1W        W57045  17.652  25.934   8.567 -0.1180 -0.2417 -0.3888
    1W        W57046   6.757  28.262   9.820  0.1728  0.1943 -0.0252
    1W        W57047   1.289  19.798   0.334 -0.1263  0.2307  0.0581
    1W        W57048   3.271  22.997   9.096  0.3240  0.0200  0.3997
    1W        W57049  23.271  21.809   2.132  0.2908 -0.4503 -0.2284
    1W        W57050  13.439  14.216   9.281  0.0910  0.2300  0.3135
    1W        W57051  26.643  18.174   6.023 -0.3306 -0.1012 -0.1375
    1W        W57052   0.789   9.492   8.805  0.0694 -0.2426 -0.2910
    1W        W57053  12.465   0.729   8.182  0.0142  0.3101  0.2467
    1W        W57054  14.935   7.672   1.672 -0.1818 -0.0816  0.0076
    1W        W57055  25.376  24.330   7.840  0.1993 -0.2509  0.1958
    1W        W57056  21.078  22.706   9.452 -0.1069 -0.0602  0.3193
    1W        W57057  15.724  22.048   9.513 -0.1105  0.1530 -0.1630
    1W        W57058   9.196   6.243   3.003 -0.1095  0.3133 -0.0213
    1W        W57059  19.145   5.480   2.843  0.0914 -0.1480 -0.2982
    1W        W57060  22.813  11.607   7.669  0.2648 -0.0360  0.3683
    1W        W57061   6.127  25.150   0.209  0.0060  0.2614  0.1711
    1W        W57062  18.682  18.362   8.460 -0.0776 -0.0453 -0.2847
    1W        W57063  10.430  28.274   9.101 -0.1450 -0.3163  0.1647
    1W        W57064  10.542  27.313   9.135  0.0534 -0.0044  0.1199
    1W        W57065   3.515  15.292   6.883  0.1006 -0.0252  0.3311
    1W        W57066  28.343   2.443   9.505 -0.1870  0.1043  0.4651
    1W        W57067  26.705  18.993   2.670 -0.0024 -0.3734  0.1665
    1W        W57068   9.503   6.207   9.744  0.0041 -0.0381  0.0126
    1W        W57069  19.863   1.928   6.637  0.1494  0.5760 -0.0114
    1W        W57070  26.043  23.759   1.142  0.0007 -0.0878 -0.1018
    1W        W57071  10.731  26.018   2.603 -0.1566 -0.2261  0.1352
    1W        W57072   5.336  12.646   2.607 -0.1589 -0.1652 -0.2756
    1W        W57073   3.865  27.234   8.181 -0.2125 -0.0844 -0.1556
    1W        W57074   9.681  15.634   0.144 -0.0333 -0.2891  0.0556
    1W        W57075  13.302  16.311   8.489  0.0338  0.1039 -0.3364
    1W        W57076   4.242   9.669   9.631  0.0010  0.1181  0.1731
    1W        W57077  14.260   3.187   0.795 -0.0042 -0.1524  0.2391
    1W        W57078   8.947   3.065   7.157 -0.0657  0.1399  0.0985
    1W        W57079   3.931  11.909   8.582 -0.1382 -0.0847 -0.0370
    1W        W57080   0.429  21.312   6.902 -0.0122 -0.1151 -0.0251
    1W        W57081   9.088  24.008   0.355  0.1461  0.0461 -0.1665
    1W        W57082   8.944  10.425   8.043  0.3139  0.2897  0.4192
    1W        W57083   8.753  28.375   7.211 -0.0190  0.2247  0.3136
    1W        W57084   2.588  13.861   7.538  0.0400 -0.2928  0.2000
    1W        W57085   0.804  18.490   8.867  0.1546  0.1053  0.0951
    1W        W57086   4.034  24.755   8.695  0.1493 -0.1262 -0.1920
    1W        W57087  10.762  10.703   0.117 -0.1108  0.1095  0.2296
    1W        W57088  11.548  17.054   9.658 -0.0451  0.2045  0.0288
    1W        W57089  19.515   6.144   7.915 -0.1249 -0.2635 -0.3694
    1W        W57090  20.145  12.669   8.943 -0.2247 -0.0594 -0.1226
    1W        W57091  17.712   7.118   9.553  0.0651 -0.2456 -0.3269
    1W        W57092   5.763  10.819   7.757 -0.0509 -0.2509 -0.0508
    1W        W57093  14.420  19.487   0.662 -0.1066 -0.2868  0.0448
    1W        W57094  15.135  17.943   7.964 -0.0556  0.0892 -0.0366
    1W        W57095  16.862  11.912   0.480  0.0380 -0.3266  0.1323
    1W        W57096  23.296   6.560   1.727 -0.2564 -0.1715 -0.2514
    1W        W57097  23.726  20.140   9.360  0.2245  0.1372  0.1391
    1W        W57098  22.613   4.783   1.130 -0.3109 -0.0305  0.2283
    1W        W57099   1.778  16.331   8.607 -0.3204 -0.0095 -0.1843
    1W        W57100   1.862  11.055   0.977  0.1516 -0.0989 -0.1296
    1W        W57101  20.909   2.343   8.763 -0.1904 -0.1203 -0.0971
    1W        W57102   1.965  22.533   1.633 -0.1351  0.0770  0.1256
    1W        W57103   9.215  15.633   7.884  0.0048 -0.0812 -0.2157
    1W        W57104   9.703  15.318   8.304  0.0842  0.1316 -0.0243
    1W        W57105  21.210   0.442   0.881  0.2021 -0.1123  0.0865
    1W        W57106  15.682  26.901   7.904  0.0772  0.0900  0.0421
    1W        W57107   6.272   6.862   3.869  0.3135 -0.1953  0.1753
    1W        W57108   8.733  18.609   0.200  0.0492  0.2805 -0.0100
    1W        W57109  27.386  12.402   8.264 -0.1303 -0.0398 -0.1143
    1W        W57110  27.748  28.464   2.764 -0.0750 -0.0340  0.1581
    1W        W57111  13.889   2.042   3.439 -0.0447  0.1109  0.0758
    1W        W57112  16.991   5.283   9.412  0.1796 -0.0044 -0.0170
    1W        W57113  26.771   3.183   2.248 -0.0040  0.1037 -0.0512
    1W        W57114   7.214  21.719   8.014  0.0264  0.2165 -0.1325
    1W        W57115   0.840   8.490   1.381 -0.0470  0.0296  0.0096
    1W        W57116  16.517  27.177   7.916 -0.2450 -0.2908  0.2565
    1W        W57117   9.536   2.640   9.930 -0.0375  0.5866 -0.0170
    1W        W57118  20.981  11.258   3.162 -0.0099 -0.1751  0.1466
    1W        W57119  19.430   1.501   9.480 -0.1706  0.0059 -0.0334
    1W        W57120   5.545   8.671   8.151 -0.0444  0.1370  0.1112
    1W        W57121  23.110  21.019   8.624  0.1536 -0.1673  0.0756
    1W        W57122  22.134  15.430   7.592 -0.1591  0.0484 -0.0272
    1W        W57123   6.764  28.007   1.073 -0.1051 -0.1124 -0.0359
    1W        W57124   2.620  17.322   2.539 -0.2258  0.0885  0.0713
    1W        W57125  22.760   1.165   1.154 -0.3056  0.2803 -0.1398
    1W        W57126  21.603  26.690   9.269 -0.0592 -0.1523 -0.0388
    1W        W57127   3.013  26.437   9.201 -0.0386 -0.0673 -0.1090
    1W        W57128   7.934  16.944   6.883 -0.1361 -0.1895  0.2684
    1W        W57129  14.302  18.249   2.373  0.2119 -0.2108 -0.0241
    1W        W57130   4.110  12.290   2.302  0.0216  0.0706  0.2118
    1W        W57131   6.958   6.527   0.339 -0.2654 -0.2118  0.1962
    1W        W57132   2.101  14.204   0.294  0.0089 -0.2210 -0.0221
    1W        W57133   3.639   5.097   9.431  0.0406 -0.0735 -0.1324
    1W        W57134  19.737  23.856   8.942 -0.2667  0.0985  0.0637
    1W        W57135   6.707  16.652   6.607  0.0382 -0.1263  0.1440
    1W        W57136  28.388  23.069   8.322 -0.0071  0.0869 -0.1027
    1W        W57137  14.731  11.348   1.411 -0.0712  0.0258 -0.0494
    1W        W57138  25.473   3.853   3.844 -0.3817  0.0250  0.0187
    1W        W57139  24.064   8.340   7.778  0.2391 -0.2430 -0.1116
    1W        W57140   8.185  13.249   8.857  0.1486  0.0368 -0.0693
    1W        W57141   8.997   1.726   3.918  0.1036 -0.2424 -0.0846
    1W        W57142   2.235   0.588   7.869  0.0379  0.4275  0.0300
    1W        W57143   6.258   4.292   7.035  0.2372 -0.3224 -0.2022
    1W        W57144  20.032  26.500   6.785 -0.0191  0.2985 -0.1039
    1W        W57145  14.091   9.624   2.945 -0.0442 -0.0686  0.2391
    1W        W57146   8.374   8.118   0.486  0.0431  0.2851  0.0775
    1W        W57147   7.900  14.132   8.452  0.3557 -0.0876  0.3586
    1W        W57148  17.841   8.961   6.968 -0.0413  0.0215  0.1926
    1W        W57149  19.598   7.158   2.118  0.0776  0.1035  0.0190
    1W        W57150  22.324  18.184   7.386  0.0804  0.2378 -0.0129
    1W        W57151   1.637   6.482   1.933 -0.0134  0.0253  0.2692
    1W        W57152  26.103  22.999   2.797 -0.0335 -0.1526 -0.0467
    1W        W57153   6.363  13.201   7.618 -0.1181 -0.0425 -0.0276
    1W        W57154  17.277  28.663   2.240  0.2232  0.2526  0.1350
    1W        W57155  18.344  19.896   3.246 -0.2677  0.0305 -0.0862
    1W        W57156  19.044  28.102   9.741 -0.1075  0.2304 -0.3840
    1W        W57157  21.603  21.916   8.530 -0.0901 -0.1949  0.3068
    1W        W57158  21.112  20.379   7.465  0.2464  0.0837 -0.0729
    1W        W57159  26.227  18.392   6.794  0.4152 -0.1973 -0.1246
    1W        W57160  14.137   0.115   3.212 -0.1181 -0.1196 -0.3006
    1W        W57161   3.874   3.958   6.963  0.0884  0.1423  0.0251
    1W        W57162   0.220  14.248   8.804  0.1109 -0.1390  0.4138
    1W        W57163  22.324   1.760   8.834 -0.3385  0.1056  0.1901
    1W        W57164   1.988  17.947   0.385  0.1136  0.3109 -0.0961
    1W        W57165  26.126  11.318   7.326 -0.2032 -0.3839 -0.1484
    1W        W57166  11.878  24.043   6.727  0.2051 -0.4031  0.0316
    1W        W57167   0.169  10.770   5.902  0.0664  0.1682 -0.0127
    1W        W57168   1.303  21.697   6.553  0.0240 -0.0377 -0.1621
    1W        W57169   3.424  13.279   9.456  0.0330  0.3304  0.1105
    1W        W57170   2.598  15.339   7.820 -0.2014 -0.1355 -0.1028
    1W        W57171   4.500  17.998   7.786 -0.2703 -0.3573 -0.0362
    1W        W57172  24.133  13.619   0.383 -0.1504  0.0715  0.3662
    1W        W57173   4.454   9.446   7.819  0.0876  0.0720 -0.0017
    1W        W57174  20.804   8.759   1.147  0.1064  0.0707  0.0233
    1W        W57175  17.435   1.991   4.282  0.0022 -0.1080  0.0673
    1W        W57176  17.411  22.040   6.694 -0.0209  0.1757 -0.0590
    1W        W57177  26.993   8.053   8.221 -0.0323  0.0571 -0.1193
    1W        W57178  23.217  11.709   8.682 -0.0035 -0.0080  0.1139
    1W        W57179  10.899  25.825   8.567 -0.2136 -0.2439  0.2386
    1W        W57180  20.231   4.291   2.321  0.1138  0.0743  0.2659
    1W        W57181   6.282  12.123   6.687 -0.0316  0.0736 -0.2334
    1W        W57182  14.478  25.923   2.968  0.0836  0.3265 -0.2182
    1W        W57183  25.642  25.422   6.046  0.1183  0.1927  0.2179
    1W        W57184   3.389   6.047   2.303 -0.2607 -0.1452 -0.0825
    1W        W57185  27.073  11.743   1.988  0.0757  0.1300  0.1128
    1W        W57186  21.363   1.968   0.201 -0.0668 -0.1002 -0.0680
    1W        W57187  24.571  13.676   1.101  0.3072 -0.0926 -0.0313
    1W        W57188  28.655  28.635   9.497 -0.2550  0.1682 -0.0375
    1W        W57189   5.825  22.144   9.935 -0.0522 -0.2021  0.1267
    1W        W57190  18.036  17.743   1.843 -0.2319 -0.0003  0.2453
    1W        W57191  24.543  28.151   1.681  0.1278  0.0713 -0.0267
    1W        W57192   9.401  27.253   8.526 -0.0244  0.2421  0.2244
    1W        W57193  10.965  12.830   8.205  0.1026 -0.0686  0.0758
    1W        W57194  22.286   4.066   1.563  0.1776  0.1340  0.0630
    1W        W57195  21.907   6.258   3.713 -0.2660  0.2530 -0.2971
    1W        W57196  10.718  13.343   2.777 -0.4442 -0.1800 -0.0449
    1W        W57197  23.611  16.580   7.086 -0.0866 -0.4319 -0.1132
    1W        W57198  18.581  23.789   3.362 -0.0113 -0.4254 -0.1884
    1W        W57199  22.513  23.669   2.449  0.0315 -0.0025  0.1809
    1W        W57200   3.468  18.406   0.697 -0.0454 -0.1909 -0.0760
    1W        W57201  21.639   3.566   6.597 -0.0101  0.0204  0.0087
    1W        W57202   7.544   9.332   0.158 -0.3155 -0.2057  0.0423
    1W        W57203  19.358  22.871   8.782  0.0168  0.0480 -0.2524
    1W        W57204   2.618   8.558   9.462 -0.1921  0.0789 -0.0335
    1W        W57205  21.171   6.054   0.476 -0.0510 -0.1268 -0.0291
    1W        W57206   3.883  18.123   0.727 -0.0283 -0.1664  0.1465
    1W        W57207   2.646  12.491   1.951 -0.4333 -0.0536 -0.0351
    1W        W57208  15.540  19.090   2.436  0.0292  0.0481  0.1573
    1W        W57209   3.427  18.429   2.081  0.1170  0.2504 -0.1346
    1W        W57210  25.185  21.331   2.369 -0.1404 -0.0419 -0.3746
    1W        W57211  18.522   9.928   0.264 -0.3139  0.0673  0.2458
    1W        W57212  22.526  24.659   8.251 -0.1290  0.1395 -0.2275
    1W        W57213  20.246   0.214   7.221 -0.0198  0.1206  0.0451
    1W        W57214  12.217   6.182   9.907  0.2579  0.3136  0.0846
    1W        W57215  17.100   7.310   7.789  0.1852  0.0030 -0.1680
    1W        W57216   1.263  10.840   1.550 -0.1136  0.2435  0.1553
    1W        W57217  26.311   5.199   1.285 -0.1925 -0.1424 -0.1589
    1W        W57218   0.984  24.161   0.293 -0.0296  0.3086 -0.0696
    1W        W57219   2.723  21.220   7.165 -0.0647 -0.3211  0.1746
    1W        W57220   5.974  14.850   7.530 -0.0611  0.2644 -0.2033
    1W        W57221   1.199  27.587   0.113 -0.1486 -0.1239 -0.3768
    1W        W57222   9.845   2.468   9.147 -0.0173  0.0898 -0.1753
    1W        W57223  14.016   7.947   9.925 -0.1156 -0.1511  0.0523
    1W        W57224  16.944  22.483   1.620  0.1132 -0.0689 -0.4270
    1W        W57225   8.626   6.383   9.853  0.0685  0.0746 -0.1529
    1W        W57226  11.885   9.746   9.165  0.2763 -0.3139  0.1320
    1W        W57227  22.625   7.058   9.284 -0.0491  0.1192 -0.0732
    1W        W57228  17.295  22.428   1.241  0.0822 -0.2395  0.1465
    1W        W57229   5.213  24.595   0.519 -0.3519 -0.2144 -0.0273
    1W        W57230   6.436   1.905   8.746  0.0064  0.2323  0.2772
    1W        W57231  17.149  23.324   9.219 -0.1673  0.0401 -0.0543
    1W        W57232  10.240   8.566   8.731 -0.0102 -0.2815  0.0082
    1W        W57233   7.807   7.349   9.377  0.0725  0.1352 -0.2767
    1W        W57234  25.074  21.051   1.342  0.1620 -0.0811  0.2661
    1W        W57235   0.100   6.194   9.246 -0.0069 -0.1340  0.1145
    1W        W57236  25.122  18.594   1.402 -0.0628  0.3001 -0.1356
    1W        W57237  18.074   9.238   9.882 -0.0200  0.1600 -0.0305
    1W        W57238   3.219  21.046   9.855  0.1622  0.0162  0.1867
    1W        W57239  10.458   6.689   7.526 -0.1013 -0.0254 -0.0728
    1W        W57240  15.854  10.903   1.448  0.0580 -0.0780 -0.0609
    1W        W57241  26.729  11.635   8.516 -0.0327  0.3914 -0.0756
    1W        W57242  21.467  18.219   8.654 -0.1715 -0.3598 -0.3217
    1W        W57243  15.782  12.404   2.024  0.0009 -0.2658  0.1333
    1W        W57244  25.918   4.147   0.865 -0.2055  0.1844 -0.2093
    1W        W57245   0.237  25.963   8.212  0.0769 -0.3614 -0.1306
    1W        W57246  13.509  26.721   9.478 -0.0132 -0.1191  0.0641
    1W        W57247  13.820  22.747   8.443 -0.1587  0.1572  0.1215
    1W        W57248  26.632   4.243   9.334  0.1137 -0.1443 -0.0732
    1W        W57249  22.650  27.193   9.765 -0.1290 -0.0237  0.0669
    1W        W57250  21.379  23.938   6.769  0.0469 -0.2556 -0.1600
    1W        W57251  16.725  17.136   8.255  0.0873  0.3186 -0.1329
    1W        W57252   3.515  26.274   2.913 -0.3770  0.1324 -0.1778
    1W        W57253   0.293   0.174   2.310 -0.0889  0.0078  0.2580
    1W        W57254  10.901  13.253   1.828  0.1169  0.0195  0.2624
    1W        W57255  20.227  17.283   8.900  0.1809 -0.0057  0.1014
    1W        W57256  27.784  28.296   8.766 -0.1333  0.2580  0.0145
    1W        W57257   0.060  18.103   7.151 -0.0221 -0.0578  0.0102
    1W        W57258   9.368  21.358   9.107  0.1533  0.0144 -0.0637
    1W        W57259   7.178   8.127   1.126  0.0191  0.0762  0.0546
    1W        W57260   0.494   6.776   9.907  0.1283 -0.0229  0.3113
    1W        W57261  26.606   8.475   6.784  0.0494  0.2090 -0.1065
    1W        W57262  20.716   7.354   8.976 -0.1090  0.0819  0.1639
    1W        W57263  21.521  12.376   1.884 -0.1433 -0.0286 -0.1789
    1W        W57264   0.384  15.458   2.791  0.2611  0.0419  0.3971
    1W        W57265  23.240  20.458   8.753  0.0500  0.2397 -0.1315
    1W        W57266  13.752  28.064   9.332  0.2326  0.0836  0.1014
    1W        W57267  24.419  25.436   7.641 -0.0409 -0.0947  0.0916
    1W        W57268  11.208  14.787   8.960  0.2315 -0.3089 -0.0369
    1W        W57269   1.021  23.471   0.280  0.1925 -0.0496 -0.2456
    1W        W57270  23.064  18.359   8.512 -0.0267 -0.3525 -0.1167
    1W        W57271  10.320   3.300   3.302  0.2598  0.0298 -0.1051
    1W        W57272   7.635  24.618   8.044 -0.1980 -0.0740  0.1225
    1W        W57273  20.223  16.140   0.166  0.0883  0.0311  0.0634
    1W        W57274  15.165  22.274   8.148  0.2202 -0.1993 -0.1895
    1W        W57275   1.088  14.292   2.362  0.1007 -0.1666  0.1678
    1W        W57276  25.120   6.564   9.764 -0.0438 -0.1621  0.2856
    1W        W57277  17.723   5.920   0.484 -0.1467  0.0142  0.0967
    1W        W57278   1.766   6.061   7.920 -0.2193  0.0011 -0.0636
    1W        W57279  17.325  16.643   7.864  0.0525  0.0655  0.1226
    1W        W57280   4.597  21.855   9.909  0.1256 -0.0875 -0.1418
    1W        W57281  18.751  12.548   9.048  0.0525 -0.0738 -0.2209
    1W        W57282   9.706  25.259   0.404  0.3986 -0.1822 -0.0561
    1W        W57283   6.987  18.416   9.806 -0.1300  0.1174 -0.1335
    1W        W57284   6.124  23.871   0.494  0.1396 -0.2200 -0.0745
    1W        W57285  14.177  24.113   2.293 -0.2411  0.3645 -0.3550
    1W        W57286  10.059   0.779   3.163  0.0656  0.1226 -0.1884
    1W        W57287   0.727  20.899   1.722  0.1524  0.1215 -0.2562
    1W        W57288   6.534   0.820   8.919  0.1468  0.1738 -0.1719
    1W        W57289  11.950  24.997   2.737  0.4593 -0.1815 -0.3303
    1W        W57290  11.647   8.922   2.299 -0.0421  0.2105  0.2018
    1W        W57291  10.673  22.724   7.364 -0.0258 -0.0401  0.1620
    1W        W57292  21.941  13.242   1.766  0.0886  0.1992 -0.2221
    1W        W57293   3.556   6.699   6.635  0.4644 -0.0484  0.1435
    1W        W57294  11.277  21.117   1.359  0.4872  0.0338 -0.3212
    1W        W57295   0.458   8.265   2.461  0.1052 -0.0292 -0.2738
    1W        W57296   7.783  19.633   5.745 -0.0462  0.0340 -0.1256
    1W        W57297   1.606  11.631   6.772 -0.1521 -0.1176  0.1832
    1W        W57298  12.349   5.249   0.561 -0.0199  0.0156 -0.1339
    1W        W57299   3.095  26.290   6.110 -0.1482 -0.2842 -0.1382
    1W        W57300  21.434   1.047   8.446  0.0419 -0.0439  0.1266
    1W        W57301  20.801   0.301   0.488 -0.0690 -0.0141 -0.1594
    1W        W57302  18.084  21.297   2.377 -0.0614  0.0743  0.2713
    1W        W57303  24.414  24.817   9.167 -0.0699 -0.1970  0.1408
    1W        W57304  13.338  21.687   7.254 -0.1057 -0.2479 -0.0500
    1W        W57305  16.265  21.958   9.533 -0.2097  0.3460 -0.0247
    1W        W57306  27.357  24.298   0.807  0.3825  0.0957 -0.0160
    1W        W57307  23.905   9.850   9.550  0.1191 -0.0744 -0.1154
    1W        W57308  17.759   2.515   1.676  0.5274  0.1420  0.0972
    1W        W57309  13.811  21.158   2.094  0.1322  0.3090 -0.0387
    1W        W57310  18.710  18.601   9.180 -0.2511  0.0356  0.0158
    1W        W57311   6.984   8.378   1.501 -0.1085  0.1054 -0.0134
    1W        W57312   7.979  18.929   8.775  0.0195 -0.1455 -0.0876
    1W        W57313  25.390   5.834   1.713  0.1890  0.0677  0.3708
    1W        W57314   6.011   6.004   1.595 -0.3730 -0.2545 -0.3033
    1W        W57315  27.589   8.762   0.916 -0.4257  0.2209  0.1681
    1W        W57316  20.100  27.065   1.605  0.0195 -0.1504  0.6137
    1W        W57317   2.948  26.244   1.701 -0.0856  0.1205  0.1792
    1W        W57318  27.273   9.614   6.530 -0.0426 -0.0480  0.2051
    1W        W57319   9.216  27.358   9.090  0.0493 -0.0538  0.2629
    1W        W57320  12.404   9.348   8.323  0.0258  0.1223  0.1340
    1W        W57321   9.883  27.342   8.252  0.0931 -0.0875 -0.1627
    1W        W57322   7.161  20.523   7.359 -0.3129 -0.2615  0.1516
    1W        W57323  22.634  25.279   0.394  0.1178 -0.0643 -0.0994
    1W        W57324  17.923  13.806   2.649 -0.2323 -0.0509 -0.1738
    1W        W57325   5.005  26.548   0.142  0.0919 -0.0820  0.0514
    1W        W57326  26.317   5.558   6.703  0.0370  0.0507  0.0855
    1W        W57327   3.782   8.683   7.082 -0.3575  0.0381 -0.0791
    1W        W57328  12.172  10.576   0.579 -0.0585  0.0273  0.1156
    1W        W57329  28.497  16.850   2.496  0.1208  0.1729  0.0395
    1W        W57330  27.051   7.919   6.946 -0.2908  0.2345 -0.1246
    1W        W57331   0.112  10.829   7.001  0.1675  0.1866  0.1976
    1W        W57332  17.776  12.872   8.594  0.0394  0.3241 -0.1111
    1W        W57333  21.942   9.307   7.121  0.0948 -0.1156  0.3295
    1W        W57334   4.987  12.799   2.257 -0.0343  0.1068  0.3388
    1W        W57335  15.462   6.665   1.653 -0.0404 -0.0272  0.1022
    1W        W57336   5.475  19.253   6.103  0.0547  0.2227 -0.2905
    1W        W57337  28.576   8.979   6.721 -0.2000  0.2072 -0.1227
    1W        W57338   2.569  26.944   7.581 -0.1257  0.2498 -0.1229
    1W        W57339  17.966  14.105   8.323 -0.1105  0.0460 -0.0405
    1W        W57340   3.561  20.213   2.776  0.0970 -0.1820  0.3173
    1W        W57341  17.052  24.313   1.039  0.0157  0.1609 -0.1282
    1W        W57342  18.319  26.656   8.581 -0.2817 -0.1173  0.0890
    1W        W57343  26.987   8.627   1.795  0.2414  0.0433  0.0627
    1W        W57344  19.057  25.084   1.111  0.0347 -0.3914 -0.2845
    1W        W57345  28.274  28.290   9.029  0.2022  0.0916  0.1431
    1W        W57346  23.428  24.314   0.779  0.0259  0.0544  0.0149
    1W        W57347  25.019  24.101   8.733 -0.0656 -0.2089 -0.5437
    1W        W57348  18.517  12.292   2.090  0.2566  0.0012  0.0422
    1W        W57349   3.949  11.834   2.091 -0.1803  0.2003  0.1262
    1W        W57350  24.709   7.558   8.611 -0.2155 -0.1008 -0.1789
    1W        W57351   6.278  27.338   7.407 -0.1603  0.2552 -0.1409
    1W        W57352  15.624   6.652   0.466  0.0171 -0.1577  0.0392
    1W        W57353  21.498  17.879   1.235 -0.0009  0.0898  0.1532
    1W        W57354  22.384  19.181   9.163 -0.0512 -0.1337 -0.0284
    1W        W57355  18.740  11.834   2.016  0.1811 -0.2894  0.0927
    1W        W57356  24.344  23.237   8.379 -0.2223  0.1504 -0.0899
    1W        W57357  23.722  28.553   9.204 -0.1845  0.0550 -0.2653
    1W        W57358   8.708  10.320   2.364  0.0004  0.1157 -0.1149
    1W        W57359  14.631  25.856   2.505 -0.2978 -0.1914 -0.2758
    1W        W57360   3.832  20.183   9.913 -0.0771 -0.2030 -0.1704
    1W        W57361  27.463  15.460   1.628 -0.0525  0.1852 -0.1449
    1W        W57362  13.899  16.352   0.512  0.2496 -0.0674 -0.1752
    1W        W57363   1.932  10.522   0.625 -0.2289  0.0589  0.1859
    1W        W57364  25.267  13.600   5.673 -0.2419 -0.0975 -0.2377
    1W        W57365  25.224  23.025   6.662 -0.1571 -0.0988  0.0783
    1W        W57366  20.145  21.899   3.176 -0.1549  0.2060  0.1520
    1W        W57367   2.565   8.893   7.248  0.2655 -0.1016  0.0909
    1W        W57368   2.732  17.917   5.933 -0.1525  0.1478  0.0519
    1W        W57369   8.091   2.933   0.269 -0.0655  0.0982 -0.4276
    1W        W57370  19.940   0.132   2.611  0.1585 -0.2571  0.0932
    1W        W57371  17.775  20.142   9.519  0.1513  0.2082  0.1547
    1W        W57372  15.224   8.884   8.811 -0.1605  0.1435  0.0412
    1W        W57373  23.874  16.001   0.022  0.1533 -0.0236 -0.1027
    1W        W57374  25.854  20.694   2.543 -0.1944  0.0396 -0.0996
    1W        W57375   2.413   8.437   8.779 -0.0683 -0.0263 -0.0951
    1W        W57376   5.481  26.977   7.562  0.0075  0.0165  0.1124
    1W        W57377  26.281  15.534   7.705 -0.0343 -0.0042 -0.2165
    1W        W57378  18.646  25.936   0.735 -0.1478 -0.1702  0.1121
    1W        W57379  19.507  25.243   3.359  0.3399  0.0819 -0.0121
    1W        W57380   4.753  17.408   8.489  0.2887 -0.2968 -0.1266
    1W        W57381   8.998  17.337   2.230  0.1537  0.0197 -0.1310
    1W        W57382   4.248  23.478   2.113 -0.0897  0.2445  0.2157
    1W        W57383  20.601  27.231   3.142  0.0320 -0.5409 -0.0312
    1W        W57384   5.275   4.292   2.267  0.0357  0.1218 -0.0467
    1W        W57385  24.072   0.524   8.543  0.1656  0.0427 -0.1772
    1W        W57386  25.514  17.594   1.057 -0.0122 -0.0587 -0.1995
    1W        W57387  27.666  10.222   1.377  0.2759  0.1314  0.2982
    1W        W57388  26.059   0.557   1.431 -0.2461 -0.0885 -0.3405
    1W        W57389  13.898  19.059   1.134  0.1401  0.2903  0.2464
    1W        W57390   6.341   9.973   8.947  0.2604  0.1056  0.2020
    1W        W57391   7.557  15.572   1.913  0.0155 -0.1949  0.0259
    1W        W57392  19.717  14.342   2.021 -0.0972 -0.0406  0.0791
    1W        W57393  23.634  12.326   7.914  0.0149  0.0810 -0.0105
    1W        W57394  18.068  13.266   8.898  0.0606 -0.1609  0.2576
    1W        W57395   7.960   4.692   2.080  0.0517  0.0573 -0.0362
    1W        W57396   8.988  16.883   1.228  0.3251 -0.1410 -0.1563
    1W        W57397   3.207  12.429   8.370  0.0948  0.0926  0.1631
    1W        W57398   7.561  24.093   1.692  0.3857 -0.3043 -0.4060
    1W        W57399  12.369  13.582   7.205 -0.0736 -0.0039 -0.1999
    1W        W57400   4.313   5.967   3.664 -0.1437 -0.2853  0.0565
    1W        W57401  27.621  13.277   8.509  0.0064 -0.1707 -0.2564
    1W        W57402  10.033  15.142   2.380  0.2483 -0.2004 -0.0747
    1W        W57403  26.281  22.930   7.273  0.2884 -0.0346  0.0195
    1W        W57404  18.179   8.736   8.201  0.0882 -0.0521 -0.0308
    1W        W57405  15.043  17.108   8.057 -0.0294  0.3587 -0.0020
    1W        W57406  19.291  10.983   7.631  0.0034 -0.1966  0.0986
    1W        W57407  14.971   1.782   1.882  0.1527 -0.2266 -0.0697
    1W        W57408  27.765  17.078   6.693  0.1355  0.1630 -0.2733
    1W        W57409  16.646  23.350   7.558  0.0491  0.0272  0.0673
    1W        W57410   5.319  20.162   0.991 -0.0844  0.0899 -0.0992
    1W        W57411  20.027  10.173   0.392 -0.0556 -0.0242  0.3326
    1W        W57412  20.359  14.208   8.178 -0.2959  0.0907 -0.1449
    1W        W57413  21.970  27.215   8.530 -0.0776  0.0036 -0.1764
    1W        W57414   6.811   6.010   4.160  0.0835  0.3715  0.0280
    1W        W57415   4.223  15.874   1.015 -0.1982 -0.1338 -0.1122
    1W        W57416  25.879  26.194   7.048  0.0746  0.2442  0.0043
    1W        W57417  16.321  26.469   1.313 -0.1172 -0.0228 -0.0316
    1W        W57418   7.799  19.378   8.613  0.0674 -0.2265 -0.3675
    1W        W57419  13.932  12.530   2.162  0.0327 -0.0368 -0.1250
    1W        W57420  18.729  14.159   2.200  0.1226  0.1197 -0.0519
    1W        W57421   1.695   6.424   9.566  0.1994 -0.0806 -0.1173
    1W        W57422  24.461   0.497   7.652 -0.0622  0.0910 -0.2031
    1W        W57423  27.160   9.734   5.959  0.3468 -0.0569 -0.3427
    1W        W57424   2.583  15.645   2.451  0.0696 -0.0346 -0.1079
    1W        W57425  13.834  11.155   9.263 -0.1040 -0.0093 -0.1767
    1W        W57426   4.092  14.566   8.890  0.2127 -0.3239 -0.3959
    1W        W57427   5.266   5.573   8.779 -0.1119  0.1049  0.1198
    1W        W57428  23.736  14.387   0.206 -0.0362  0.2420 -0.1465
    1W        W57429   5.453  22.576   6.451  0.0256 -0.2855  0.1883
    1W        W57430  23.538  22.281   7.740  0.2585  0.2309  0.0891
    1W        W57431  18.500   4.311   8.804  0.0392 -0.2014  0.2371
    1W        W57432  10.741  26.258   9.464  0.0266  0.1082  0.1720
    1W        W57433  21.666  14.051   2.229  0.2649  0.1637  0.1127
    1W        W57434   2.615   0.248   0.654 -0.1054  0.2241  0.0970
    1W        W57435  17.359   2.701   8.893  0.0908  0.0642  0.2670
    1W        W57436  17.483  25.346   2.631 -0.1093 -0.1701 -0.0930
    1W        W57437  13.163  15.217   1.007  0.2412 -0.0838  0.1225
    1W        W57438   9.759  21.364   6.662 -0.3132 -0.1260 -0.2987
    1W        W57439   0.223  16.338   9.086  0.0355 -0.0434  0.1161
    1W        W57440  10.550  20.377   1.308 -0.1721  0.1723 -0.1268
    1W        W57441  23.737  16.140   8.782  0.2068  0.0827  0.0620
    1W        W57442  23.539  14.216   1.890  0.1486 -0.1028 -0.0236
    1W        W57443  23.785   1.303   8.160 -0.1462 -0.1754  0.0621
    1W        W57444  21.269  24.125   1.568  0.3983  0.1499 -0.0989
    1W        W57445  18.908   8.502   9.711 -0.1376 -0.0662 -0.1021
    1W        W57446  20.015   6.888   9.399  0.0759 -0.0460  0.0586
    1W        W57447   6.408  20.573   1.748 -0.2620  0.0695  0.1593
    1W        W57448   3.958   5.347   8.005  0.0654  0.0642  0.1495
    1W        W57449  10.674  19.184   2.389  0.0741 -0.0236  0.0691
    1W        W57450  25.866   5.807   1.940 -0.1353 -0.0551 -0.1531
    1W        W57451  20.022  13.409   2.139  0.3144  0.0541 -0.0062
    1W        W57452   5.997   9.701   1.548 -0.1978 -0.1755  0.0734
    1W        W57453   9.247  22.388   2.100  0.0846  0.0654  0.0526
    1W        W57454  14.640   0.312   3.037 -0.4812  0.5208 -0.1312
    1W        W57455  19.077  12.839   9.358 -0.1792  0.0848  0.2622
    1W        W57456  13.937  17.761   8.034 -0.1053 -0.1706  0.0632
    1W        W57457   1.153  25.356   7.621 -0.3345  0.1948  0.0280
    1W        W57458   0.937  27.582   2.964 -0.1964 -0.0993  0.1553
    1W        W57459  23.294  15.792   0.018 -0.0583  0.0496 -0.1856
    1W        W57460  14.351   8.451   8.088  0.0417  0.1873  0.0932
    1W        W57461  17.554   5.500   0.643 -0.0792 -0.2682  0.3166
    1W        W57462  14.343  24.963   7.665 -0.1305  0.5185  0.1503
    1W        W57463  24.004  14.467   6.782 -0.1761 -0.2917 -0.0392
    1W        W57464   1.229   4.868   7.223  0.0292 -0.0638 -0.0410
    1W        W57465   8.662  26.292   1.813  0.0821  0.1753  0.0763
    1W        W57466   9.976  21.554   0.113  0.0052  0.0256  0.2216
    1W        W57467  27.599  24.509   0.037 -0.0287  0.0895 -0.1128
    1W        W57468  11.203  25.522   2.226  0.2132  0.2662 -0.0095
    1W        W57469   3.561   3.348   6.417  0.0838 -0.0612  0.0255
    1W        W57470  26.198  23.045   7.829 -0.1353 -0.1050 -0.1944
    1W        W57471   5.219  15.413   0.833  0.2262 -0.3224  0.0552
    1W        W57472   2.078  12.598   8.570  0.0498  0.0063  0.0007
    1W        W57473  24.988  13.102   8.122 -0.1570  0.0173 -0.1254
    1W        W57474   1.154  24.991   3.438  0.2207 -0.0587 -0.2618
    1W        W57475  10.253  14.819   2.038 -0.1350 -0.1195 -0.0640
    1W        W57476   5.688  24.977   1.939 -0.0317 -0.2113 -0.1485
    1W        W57477  10.994   4.315   3.230  0.0954 -0.2206 -0.1320
    1W        W57478  19.647  12.758   0.489 -0.0810 -0.1968  0.0054
    1W        W57479  28.294   5.969   8.365 -0.2318 -0.0475  0.0609
    1W        W57480   6.965  10.357   2.394  0.2340  0.0643 -0.1214
    1W        W57481  15.654  18.107   2.393  0.2107  0.0457  0.2902
    1W        W57482  15.360   3.028   1.267  0.0774 -0.0387 -0.3082
    1W        W57483  17.515   5.906   1.983  0.2225 -0.0441 -0.0341
    1W        W57484  28.556  22.326   7.758 -0.0614  0.0117  0.2813
    1W        W57485  15.032  22.693   9.592 -0.0823  0.1605  0.2182
    1W        W57486  12.926   7.036   1.450 -0.0830 -0.0509 -0.0511
    1W        W57487  16.171   4.995   0.555  0.0170  0.1391 -0.0783
    1W        W57488   7.679  25.826   1.183  0.1580  0.0060 -0.1488
    1W        W57489  25.296  25.814   6.266 -0.2269  0.0194 -0.1097
    1W        W57490  16.757   1.579   1.822  0.0821 -0.0620 -0.4537
    1W        W57491   1.659   1.900   3.620 -0.2362  0.1099 -0.0639
    1W        W57492   8.800   4.352   1.979 -0.3499 -0.1957 -0.0498
    1W        W57493  23.435   5.414   9.627  0.2321  0.0955  0.1907
    1W        W57494  12.666  26.119   1.312 -0.0486 -0.0754 -0.2742
    1W        W57495   4.684   6.096   3.297  0.1394 -0.1314 -0.2461
    1W        W57496  14.742   4.739   3.487  0.1984  0.1029 -0.2114
    1W        W57497  22.575  11.555   9.955  0.2813 -0.2106 -0.1558
    1W        W57498   2.191  12.402   1.616 -0.1269  0.1244  0.1393
    1W        W57499  28.492  26.068   1.858  0.1141  0.0008 -0.1659
    1W        W57500  19.443   4.624   0.875  0.2017  0.2808 -0.1805
    1W        W57501  11.344   2.113   1.235  0.0866  0.1748 -0.0464
    1W        W57502   6.189  17.299   0.056  0.0331 -0.0976  0.2756
    1W        W57503  25.942  25.950   3.246 -0.0694  0.1615  0.1170
    1W        W57504   7.358  14.855   8.961 -0.0707  0.0909  0.2643
    1W        W57505  28.105  28.087   2.645  0.0376  0.1039 -0.0978
    1W        W57506   6.498   8.971   0.414  0.2784 -0.0252  0.1170
    1W        W57507   1.849  12.527   6.558 -0.2717 -0.0196 -0.4844
    1W        W57508   6.728  18.789   1.164 -0.0527  0.2950 -0.0273
    1W        W57509   0.469   0.672   2.373  0.1169 -0.1209 -0.0516
    1W        W57510   9.632  12.623   1.181 -0.2070 -0.0402 -0.0858
    1W        W57511  15.340  15.063   8.754  0.3183 -0.1412  0.0638
    1W        W57512  18.170   2.892   1.015 -0.5301  0.0384 -0.0515
    1W        W57513  16.743  22.875   2.210  0.0453  0.2815  0.3515
    1W        W57514  24.392  26.049   8.303 -0.0585  0.1489  0.2153
    1W        W57515   4.401   6.148   2.654 -0.2154  0.3592 -0.1388
    1W        W57516  27.594  10.458   5.931  0.1762 -0.1066 -0.5434
    1W        W57517  21.449   1.530   1.508 -0.2532  0.0401  0.0770
    1W        W57518  17.924  13.502   2.100  0.2244  0.0250 -0.2983
    1W        W57519  12.583  21.389   2.362  0.0648 -0.1992  0.3292
    1W        W57520   9.891  17.374   7.839 -0.1307  0.1290 -0.1245
    1W        W57521  21.372   5.479   3.129  0.2799 -0.1172 -0.1284
    1W        W57522   0.777  17.704   1.635 -0.2304  0.0052 -0.4579
    1W        W57523   3.603  17.663   7.743  0.2760  0.2312 -0.0467
    1W        W57524   2.814  26.693   8.384  0.0336  0.0410 -0.0836
    1W        W57525  27.711   9.921   8.653 -0.0386 -0.1203 -0.0996
    1W        W57526  22.417  10.410   2.667 -0.3180  0.1708 -0.2019
    1W        W57527   8.645  13.403   7.311 -0.1382 -0.0092 -0.3989
    1W        W57528  15.193  11.695   8.154  0.1905  0.0617 -0.0200
    1W        W57529   4.616   8.501   9.700 -0.2730 -0.0471 -0.4413
    1W        W57530   0.465  28.674   8.750  0.0801  0.1512  0.0178
    1W        W57531  10.866  19.809   9.842 -0.1964  0.0307 -0.0827
    1W        W57532  17.405  18.165   9.607 -0.0406 -0.1344  0.0698
    1W        W57533  13.058   9.917   0.488 -0.3887  0.1255 -0.3618
    1W        W57534  18.891  10.502   1.296 -0.6356  0.0068  0.1447
    1W        W57535   6.548  24.668   8.659  0.1042 -0.3073 -0.0724
    1W        W57536  16.782   1.476   2.654 -0.3203 -0.0051  0.0194
    1W        W57537  28.041  10.079   6.035  0.0356  0.5541 -0.3598
    1W        W57538  23.863   2.632   6.925 -0.0150  0.0900  0.2024
    1W        W57539   6.135  17.833   6.594  0.0359  0.2605 -0.2725
    1W        W57540  22.269  20.323   0.370  0.0900  0.2277 -0.0533
    1W        W57541  20.689  25.058   2.271 -0.1128  0.1541 -0.1372
    1W        W57542  14.833  19.607   1.076  0.0526  0.3442  0.0490
    1W        W57543  23.711  14.252   2.319  0.1374 -0.1225 -0.0247
    1W        W57544  16.679   8.740   9.025 -0.1462  0.0243  0.1512
    1W        W57545   9.874  16.355   1.065  0.0079 -0.0014 -0.1441
    1W        W57546  14.625  26.964   2.054 -0.2306 -0.1757 -0.1674
    1W        W57547   3.315  17.525   2.118  0.1510  0.0488 -0.2256
    1W        W57548  13.417  19.206   0.881  0.0189 -0.0296  0.1845
    1W        W57549  24.312  12.794   2.389 -0.0636  0.0347 -0.0181
    1W        W57550   9.167   6.715   9.068  0.0635  0.3035 -0.1705
    1W        W57551   2.942   8.503   9.103 -0.0828 -0.0194 -0.3017
    1W        W57552   7.383   8.808   9.028  0.1970  0.1204  0.2222
    1W        W57553   7.080  24.042   1.841  0.4927  0.2640  0.0475
    1W        W57554   6.463   3.419   9.468  0.4818  0.0587  0.0984
    1W        W57555  19.613   1.060   0.696  0.0113  0.0445 -0.1038
    1W        W57556  21.345   9.134   9.338  0.0311 -0.2187 -0.2382
    1W        W57557   9.404  28.717   2.206 -0.1332 -0.0833  0.0898
    1W        W57558  13.095   8.787   3.352 -0.3659  0.0055 -0.0594
    1W        W57559   9.483  21.409   9.868 -0.1960 -0.1902 -0.0093
    1W        W57560   9.881  20.269   7.537  0.3403  0.1244 -0.0501
    1W        W57561  23.037  24.013   0.030 -0.3615 -0.2607 -0.0829
    1W        W57562   4.782  11.397   9.379  0.1645 -0.3274 -0.3088
    1W        W57563  11.640  18.413   1.503  0.3101  0.1541  0.2185
    1W        W57564   9.752  24.397   6.303  0.2160  0.1024 -0.0192
    1W        W57565   1.945   9.808   0.537 -0.0040  0.1425  0.2732
    1W        W57566  18.898  14.340   9.954  0.2277 -0.2898 -0.2154
    1W        W57567  10.984  18.639   8.591 -0.0953  0.1316  0.0252
    1W        W57568   6.822   2.974   0.002  0.0498  0.0285  0.1473
    1W        W57569  26.683   5.353   6.949 -0.3151 -0.0715  0.0486
    1W        W57570  17.713   9.260   0.369  0.0039 -0.1039  0.4102
    1W        W57571   9.471  10.315   7.418  0.2764 -0.0017  0.0982
    1W        W57572  25.573  23.665   6.667  0.0449 -0.1051  0.3505
    1W        W57573  19.377  12.899   6.968  0.2686  0.0050 -0.2244
    1W        W57574  28.490  12.052   0.374  0.1523  0.0967 -0.2169
    1W        W57575   4.176  20.749   9.161 -0.0494  0.3301 -0.0433
    1W        W57576   0.624  23.468   0.615  0.4573 -0.1016 -0.0744
    1W        W57577  15.448  27.409   2.353  0.2851 -0.2134  0.2097
    1W        W57578   4.509   8.135   0.093  0.1750  0.2757 -0.3041
    1W        W57579  10.232   3.173   0.385  0.2212 -0.0362 -0.1353
    1W        W57580  23.275   5.830   0.492 -0.0937 -0.0827  0.2070
    1W        W57581   3.832  17.067   6.905  0.1911  0.1174  0.2360
    1W        W57582   3.177   4.162   0.587  0.0101 -0.3915  0.0530
    1W        W57583  25.362  13.875   1.460  0.1630 -0.1644 -0.1897
    1W        W57584   4.671   9.380   8.821 -0.3171  0.1949 -0.0734
    1W        W57585  13.034   5.982   0.848  0.3471  0.1096  0.0700
    1W        W57586  19.672   0.703   6.664 -0.2492  0.1665 -0.2882
    1W        W57587   5.015  25.691   1.088 -0.3995  0.2964  0.0776
    1W        W57588   9.741   2.841   9.494  0.1678 -0.2238 -0.1366
    1W        W57589   5.065  11.361   7.292  0.2554 -0.0440 -0.1281
    1W        W57590   3.849   5.159   1.715  0.0898  0.2833 -0.1069
    1W        W57591  10.125  16.900   7.596  0.0586  0.2455 -0.1857
    1W        W57592  22.641  16.835   8.975 -0.0126  0.1490 -0.2735
    1W        W57593   0.366   8.374   1.287 -0.2034 -0.0834  0.0481
    1W        W57594   7.125   9.115   2.759 -0.2686 -0.2405  0.0177
    1W        W57595  19.004  11.947   3.089 -0.2583 -0.1592 -0.2265
    1W        W57596  12.197  28.291   8.703 -0.1387  0.0840  0.1338
    1W        W57597   9.008   5.636   8.186 -0.0453  0.0649 -0.0174
    1W        W57598  10.392   8.702   7.885  0.1324  0.0350 -0.2210
    1W        W57599  21.094  16.254   2.119 -0.1275  0.2656 -0.0448
    1W        W57600  21.811   2.787   9.935 -0.0176  0.0320 -0.1945
    1W        W57601  10.228   2.785   0.664 -0.0864 -0.1178 -0.1588
    1W        W57602   2.255  15.240   8.397 -0.0403  0.0175  0.0349
    1W        W57603  25.784   6.357   7.224  0.0895  0.0927 -0.2371
    1W        W57604  14.005  11.867   9.828  0.0017  0.2993  0.3157
    1W        W57605  23.850  20.945   3.080  0.1079 -0.0668 -0.1502
    1W        W57606  26.207   3.366   7.455 -0.2012  0.2373  0.2316
    1W        W57607  15.461  11.894   9.496 -0.0192  0.0348 -0.1106
    1W        W57608  23.978   2.126   1.149  0.2121  0.0786  0.1266
    1W        W57609   4.738  18.172   9.172 -0.0634 -0.0520  0.0437
    1W        W57610   6.995   0.072   0.978 -0.2994  0.3520 -0.2419
    1W        W57611   2.103  27.005   7.869  0.1493  0.1673  0.0731
    1W        W57612  15.119  27.317   9.566 -0.2966 -0.2506 -0.5017
    1W        W57613  16.839  25.719   9.371 -0.2294  0.2941  0.2755
    1W        W57614   6.369   7.956   8.697 -0.4654 -0.3296  0.1299
    1W        W57615  22.695  28.431   2.961  0.0142 -0.0277  0.1210
    1W        W57616   0.691  11.959   5.873 -0.0559  0.1295  0.0469
    1W        W57617   7.359   3.853   9.274 -0.0434 -0.1217 -0.1168
    1W        W57618   9.960  16.842   9.901 -0.1802  0.1280 -0.2130
    1W        W57619  10.943  17.773   9.517  0.0448 -0.0142 -0.0401
    1W        W57620  15.883  19.947   2.421 -0.3157  0.1909  0.1320
    1W        W57621  26.577  23.557   7.914  0.1523  0.2463  0.0309
    1W        W57622   0.052  12.433   6.525  0.0219 -0.0996 -0.4018
    1W        W57623  16.408  27.323   7.120  0.0058 -0.0130  0.0896
    1W        W57624  27.065   7.290   8.282  0.0229 -0.1138 -0.0830
    1W        W57625  26.418  11.729   0.136  0.1647  0.0342  0.0055
    1W        W57626   9.566  22.338   1.674 -0.1441  0.0828 -0.3719
    1W        W57627  11.073   4.123   2.739  0.2552  0.2916  0.2280
    1W        W57628   2.374  23.312   1.319  0.1898 -0.1152  0.2721
    1W        W57629  13.297   5.454   9.429  0.1491 -0.0081  0.1370
    1W        W57630   2.289   6.390   0.281 -0.3986  0.1768 -0.2516
    1W        W57631  23.266   2.121   1.876 -0.0827 -0.1680 -0.1365
    1W        W57632  15.653  28.588   8.380  0.3163 -0.1142  0.1079
    1W        W57633  25.269  15.781   1.949  0.1378 -0.1222 -0.0889
    1W        W57634  15.382  22.294   2.676  0.0819 -0.5101  0.0847
    1W        W57635   2.538  13.386   6.956  0.1122 -0.0008  0.0258
    1W        W57636   9.435   8.622   1.818 -0.1518  0.1382  0.0926
    1W        W57637   2.901  13.589   0.379 -0.0665  0.3076  0.1109
    1W        W57638  19.411  22.491   9.077 -0.1117  0.2496 -0.1282
    1W        W57639   8.076   2.253   8.851  0.0060  0.0890  0.2865
    1W        W57640  21.430  26.005   9.261 -0.0708 -0.2621 -0.0677
    1W        W57641   0.382  10.030   6.603 -0.2943  0.2452 -0.1164
    1W        W57642   6.927  15.230   8.166 -0.1964  0.1273  0.1862
    1W        W57643  18.806   3.035   9.213 -0.0789 -0.1076  0.0741
    1W        W57644  27.602   8.947   1.498  0.0818 -0.2253  0.1179
    1W        W57645  13.572   7.539   2.729  0.2774  0.1508  0.0327
    1W        W57646  23.271   5.045   0.547 -0.0436  0.1128  0.1056
    1W        W57647  21.530   2.280   0.529  0.3529 -0.0702  0.0680
    1W        W57648  25.578   2.168   6.603  0.3440  0.0402  0.0864
    1W        W57649   7.868  27.421   3.119  0.2884  0.0376 -0.2039
    1W        W57650   6.465  26.236   7.484  0.0011 -0.1369  0.1655
    1W        W57651   3.061   4.317   8.586  0.1490  0.1604  0.2376
    1W        W57652  19.456  17.751   1.280  0.1039  0.1577 -0.1554
    1W        W57653   0.759  17.528   7.895  0.0763 -0.1488  0.0233
    1W        W57654  21.130  21.326   8.011 -0.0858  0.0941  0.0289
    1W        W57655   2.457  22.427   0.638 -0.1185 -0.2959 -0.1095
    1W        W57656  19.675   3.449   7.271  0.3044  0.5437 -0.4784
    1W        W57657  15.566  22.901   1.571  0.2006  0.1689  0.0262
    1W        W57658  16.440  15.061   9.079  0.1462  0.4065 -0.1767
    1W        W57659  16.646   1.586   4.079 -0.1444 -0.2517 -0.3211
    1W        W57660   5.221  13.465   7.531  0.0883 -0.2008 -0.1206
    1W        W57661  21.287  10.858   8.791  0.0453 -0.0789  0.0364
    1W        W57662   4.611  19.418   2.534 -0.0151 -0.1997 -0.3708
    1W        W57663   2.445   2.794   0.995 -0.0629 -0.1021  0.2022
    1W        W57664  20.262  13.765   2.460 -0.2034 -0.0738  0.1411
    1W        W57665   8.483   8.547   9.545 -0.0792 -0.1593  0.1775
    1W        W57666  18.024   0.606   1.544 -0.0829  0.2144 -0.0263
    1W        W57667  25.890  22.613   2.556  0.0920 -0.1103  0.0522
    1W        W57668  10.524   3.514   1.914  0.2934  0.0343 -0.5536
    1W        W57669  28.401   4.764   8.607 -0.1325 -0.0495  0.1256
    1W        W57670   4.330   8.208   7.787  0.3489  0.0509  0.2539
    1W        W57671  12.428  21.756   9.550  0.1964  0.3866 -0.1383
    1W        W57672   7.215  24.646   7.347 -0.1167  0.0306 -0.1287
    1W        W57673   0.706   9.204   7.620  0.0219 -0.2819  0.0655
    1W        W57674  10.439  27.739   9.391 -0.1823  0.0153  0.1784
    1W        W57675  24.622  28.517   6.555 -0.1676  0.3438 -0.1553
    1W        W57676  22.289  21.616   1.548 -0.1067 -0.0616  0.1487
    1W        W57677  21.317   9.695   0.912 -0.0160 -0.1723 -0.1771
    1W        W57678  24.931   1.500   9.218 -0.0154  0.0118 -0.1510
    1W        W57679   9.637  16.524   2.129 -0.0904  0.0683  0.3011
    1W        W57680  17.814  19.002   2.163 -0.0938  0.2384  0.1906
    1W        W57681  25.661   8.787   7.836  0.1616 -0.1036  0.0667
    1W        W57682  11.564  16.573   9.509  0.0566  0.2602  0.1594
    1W        W57683   6.538   5.621   7.560 -0.2395 -0.0115 -0.3906
    1W        W57684  15.043   7.829   8.510 -0.1760 -0.2022 -0.0207
    1W        W57685  13.241   9.719   3.139  0.4259 -0.1347  0.2048
    1W        W57686  24.389  18.289   6.892 -0.2830  0.0660  0.1762
    1W        W57687  22.772  26.142   1.258 -0.0825  0.0217  0.2109
    1W        W57688   5.336   0.541   2.617 -0.1579 -0.1056 -0.0621
    1W        W57689   0.816   4.071   0.049  0.2010  0.1081  0.0824
    1W        W57690   4.951  14.318   8.475  0.2064 -0.0187  0.0295
    1W        W57691  23.038  16.508   8.278  0.1649 -0.0830  0.1060
    1W        W57692  26.471   2.011   8.291 -0.1609 -0.0833 -0.1328
    1W        W57693   0.521  12.086   9.820  0.0003  0.0364 -0.1278
    1W        W57694   1.709  19.372   8.115 -0.2683 -0.2026 -0.1806
    1W        W57695   2.078   6.746   2.351  0.2009  0.4792  0.0510
    1W        W57696  19.389   5.951   1.984 -0.0145 -0.1211 -0.0077
    1W        W57697  21.422  20.739   3.578 -0.0818 -0.0097 -0.0696
    1W        W57698   7.589  18.611   1.639 -0.1803  0.1778  0.0946
    1W        W57699  17.039  23.869   9.247 -0.1947  0.4310 -0.0929
    1W        W57700  25.789   0.181   8.525  0.0843  0.2595 -0.0818
    1W        W57701  15.248   1.971   2.969 -0.1041  0.0593  0.2202
    1W        W57702  27.155  27.464   9.153 -0.0061  0.0308 -0.1253
    1W        W57703   6.156  22.739   5.867 -0.3624 -0.1728  0.1093
    1W        W57704  13.131  20.478   8.345 -0.0196  0.0904  0.0874
    1W        W57705  13.808  14.767   2.604 -0.0922  0.0557 -0.0219
    1W        W57706  28.602   1.711   2.765  0.0302 -0.1066 -0.3170
    1W        W57707  18.640  27.848   7.543 -0.3735  0.1929  0.2088
    1W        W57708  18.578   2.097   8.562 -0.2281 -0.0105  0.2987
    1W        W57709   3.758  28.276   7.075 -0.0850 -0.1259  0.1410
    1W        W57710  23.130  15.817   7.533 -0.0129 -0.1805  0.1080
    1W        W57711  23.404  28.558   8.804  0.3834 -0.2557 -0.1330
    1W        W57712   4.951  21.084   5.188  0.3374 -0.2878 -0.1839
    1W        W57713  17.490  21.617   2.475  0.0353 -0.1203  0.1068
    1W        W57714  16.147   7.940   2.488  0.1596 -0.0723  0.0376
    1W        W57715   7.196  13.138   7.587 -0.0206 -0.3532 -0.0516
    1W        W57716   7.138  23.231   6.618  0.1503  0.3932 -0.1959
    1W        W57717  22.937   5.310   7.727  0.1123 -0.2804 -0.1738
    1W        W57718  14.860  18.628   3.352 -0.1047 -0.1188 -0.0570
    1W        W57719  28.005   3.966   3.322  0.0779  0.2379  0.2563
    1W        W57720   1.286  18.969   6.853  0.1420  0.0507 -0.0774
    1W        W57721   0.320  22.639   9.318 -0.3548  0.0810  0.1568
    1W        W57722  13.043  20.080   1.482 -0.1537  0.0469 -0.0997
    1W        W57723  21.921  13.109   0.837  0.0906  0.1007 -0.0542
    1W        W57724  28.182  11.181   8.364  0.0002  0.3450  0.3621
    1W        W57725  27.735   1.196   9.404  0.0282 -0.1721 -0.0673
    1W        W57726   5.494   6.725   0.315  0.1186  0.0357 -0.2131
    1W        W57727   7.718  20.866   9.845  0.3524 -0.5296  0.2043
    1W        W57728  25.525  11.970   3.033  0.1395  0.3008 -0.0718
    1W        W57729   5.914   5.780   1.086  0.0415 -0.1657 -0.2221
    1W        W57730  14.360  27.335   7.742  0.3858 -0.3066 -0.2083
    1W        W57731  20.700   5.605   1.067 -0.3824 -0.4591  0.1705
    1W        W57732  11.128  19.840   8.717 -0.1125 -0.2826  0.1114
    1W        W57733  18.049  10.539   1.884  0.0741  0.2996  0.0574
    1W        W57734   3.900  22.217   1.120 -0.1745  0.1812  0.2300
    1W        W57735  15.812  18.531   7.393 -0.1074  0.0915  0.0159
    1W        W57736  25.059   0.258   6.299 -0.1310  0.2830 -0.1466
    1W        W57737  19.910  22.400   2.683 -0.1520 -0.1615 -0.2028
    1W        W57738  12.455   7.798   7.231 -0.0517  0.2791  0.1975
    1W        W57739  23.556   8.717   7.688  0.1609  0.1321 -0.2901
    1W        W57740  18.801  19.320   0.091  0.0247  0.2785  0.3023
    1W        W57741  16.274  24.562   9.131  0.0295 -0.1496 -0.3066
    1W        W57742   9.281  18.745   1.809 -0.0478 -0.1379  0.1885
    1W        W57743   2.357  10.005   9.809  0.0842  0.0737 -0.3272
    1W        W57744   8.969   4.935   1.000  0.0300  0.1814 -0.2510
    1W        W57745   6.218  24.764   9.830  0.2039 -0.3594 -0.1736
    1W        W57746  12.934  25.167   9.958  0.1471  0.0940 -0.2517
    1W        W57747   3.515  18.013   9.519 -0.0462 -0.0844 -0.0356
    1W        W57748  26.462  17.739   1.161 -0.1643 -0.1698 -0.0766
    1W        W57749   6.841  20.893   0.329  0.0206 -0.0003  0.0199
    1W        W57750   2.140  17.134   6.821  0.1348  0.0907  0.0144
    1W        W57751   4.488  15.169   3.204 -0.1818 -0.2442  0.1684
    1W        W57752  14.129   8.124   8.378  0.0033 -0.3557 -0.2220
    1W        W57753  11.910   3.567   4.737 -0.1258 -0.1707  0.2312
    1W        W57754   4.155   3.304   2.217  0.0560  0.0349 -0.2636
    1W        W57755   6.020   4.904   7.289  0.1862 -0.0719  0.1523
    1W        W57756   1.633  16.559   1.542 -0.2024 -0.1946 -0.0137
    1W        W57757  21.697  26.389   8.064 -0.1805  0.2925 -0.2591
    1W        W57758  26.904   3.478   8.030  0.1102  0.3152 -0.0628
    1W        W57759  13.281  24.985   9.200 -0.0697 -0.0700 -0.0362
    1W        W57760  19.317  22.729   1.725 -0.2704 -0.3191 -0.0311
    1W        W57761  24.451  11.315   2.820 -0.0850  0.1985 -0.0111
    1W        W57762  23.278  21.148   0.153  0.1964 -0.1619  0.1397
    1W        W57763   0.389   3.318   7.392 -0.0400  0.0362  0.1635
    1W        W57764  25.237   6.289   1.380 -0.0980  0.0704  0.2706
    1W        W57765  23.420  13.887   0.979  0.0904 -0.1321 -0.3258
    1W        W57766  21.869   2.060   8.889  0.1965 -0.0245  0.0587
    1W        W57767  23.513  26.515   3.049 -0.0221 -0.1950  0.0956
    1W        W57768   1.780  28.113   7.505  0.1097 -0.1847 -0.2061
    1W        W57769   0.236   6.498   7.293 -0.1309  0.1637  0.0022
    1W        W57770   5.307  28.259   8.068  0.0477  0.1662  0.1666
    1W        W57771  17.484  14.532   7.768 -0.0862  0.0697 -0.2050
    1W        W57772  18.401  17.910   8.534  0.1814 -0.0027 -0.2741
    1W        W57773   3.329  21.888   7.090  0.1786 -0.2692  0.2533
    1W        W57774  25.047  27.995   8.569 -0.0210 -0.0668  0.0695
    1W        W57775  14.220  21.696   0.305 -0.0986  0.0477  0.0239
    1W        W57776   0.392  20.097   8.864  0.1909  0.0791 -0.1632
    1W        W57777  10.236  25.504   8.273  0.2332 -0.0009 -0.0321
    1W        W57778  13.925  14.903   7.204  0.1497  0.1299 -0.0450
    1W        W57779  11.946   9.084   1.907 -0.0321 -0.1283 -0.1752
    1W        W57780  18.824   5.713   4.024  0.4938 -0.3086  0.1654
    1W        W57781  13.862   6.127   1.184  0.0108 -0.0830  0.1130
    1W        W57782   1.190   9.825   9.741 -0.4716 -0.1876  0.0719
    1W        W57783  12.783  20.202   0.128 -0.0192  0.0303 -0.0957
    1W        W57784   0.974   5.573   8.875 -0.2879  0.1561  0.0241
    1W        W57785  15.412   3.514   9.292  0.3383 -0.1794  0.3575
    1W        W57786  15.874  24.707   3.376 -0.0578 -0.0119  0.0414
    1W        W57787   7.503   7.003   2.468 -0.5630 -0.1564 -0.2449
    1W        W57788   4.789   9.889   7.062 -0.1312 -0.3424  0.0854
    1W        W57789   8.572   9.463   1.395  0.2161  0.0100  0.2580
    1W        W57790  14.085  14.972   8.289  0.0749  0.0968 -0.2169
    1W        W57791   8.634   9.346   9.036  0.0622 -0.0806  0.2229
    1W        W57792   8.269  25.517   7.228 -0.1205  0.2320  0.1441
    1W        W57793   5.028  23.274   2.231 -0.1037 -0.3392 -0.3473
    1W        W57794   5.519  12.497   1.067 -0.0623 -0.0423 -0.3500
    1W        W57795  18.595   1.743   9.551  0.1401 -0.0376  0.0138
    1W        W57796  27.083  28.517   2.002  0.0499 -0.0850  0.1153
    1W        W57797   1.722  14.582   1.848 -0.1121  0.1494  0.0689
    1W        W57798  23.173   7.653   1.589  0.0513  0.0090 -0.3240
    1W        W57799  23.139  24.700   1.650 -0.1683 -0.4227 -0.0681
    1W        W57800  24.199  28.678   6.258  0.1052  0.0107 -0.1625
    1W        W57801  24.292  18.036   8.889  0.1307  0.2605 -0.0963
    1W        W57802  12.326  13.708   2.098 -0.0351 -0.4030 -0.1053
    1W        W57803  14.503   5.373   4.345 -0.0857  0.1509  0.0476
    1W        W57804   7.212  23.748   6.896  0.1616  0.1837 -0.2718
    1W        W57805  21.688  15.356   2.187  0.0171 -0.0181  0.1751
    1W        W57806  10.796   9.428   2.122 -0.1175  0.0211 -0.0104
    1W        W57807  11.922   4.190   3.571 -0.1167 -0.1449  0.0588
    1W        W57808  20.461  26.059   2.842 -0.0355  0.0414 -0.1675
    1W        W57809  12.280  12.178   9.945  0.4301 -0.1865  0.3119
    1W        W57810  28.165  12.145   2.251 -0.0937 -0.1914  0.0642
    1W        W57811   8.937   3.165   8.508 -0.1409  0.0106 -0.0176
    1W        W57812  14.699  26.946   7.658 -0.2391  0.1490 -0.1337
    1W        W57813   9.046   3.490   8.906 -0.0604  0.1854  0.0764
    1W        W57814  15.408  21.764   1.793  0.2507  0.4863 -0.1437
    1W        W57815  10.950   2.216   8.019  0.0911 -0.3301 -0.0568
    1W        W57816  15.006   0.690   0.984  0.4085 -0.0865  0.1152
    1W        W57817  14.063  26.177   9.783 -0.0058  0.0526 -0.2016
    1W        W57818  11.227  27.256   1.112  0.2182 -0.0852  0.1133
    1W        W57819  10.221   0.222   2.332 -0.3047 -0.2291  0.3071
    1W        W57820   5.094  27.364   7.230 -0.0017  0.1356  0.2574
    1W        W57821   0.996  24.821   1.939  0.0492 -0.3564 -0.0101
    1W        W57822   6.256   9.812   0.145  0.0962 -0.3022  0.0237
    1W        W57823  19.096   4.219   0.895  0.0688  0.3346  0.2845
    1W        W57824  24.828  17.117   7.419  0.0840 -0.0925  0.0276
    1W        W57825   0.538  11.579   0.113 -0.2190 -0.0132 -0.2473
    1W        W57826  22.337  15.781   8.540 -0.1340 -0.0139 -0.0460
    1W        W57827  17.081  19.827   8.987 -0.1109  0.0488 -0.2707
    1W        W57828  26.380   0.201   1.368  0.2573  0.0193 -0.1637
    1W        W57829  17.624  26.925   2.402  0.2252 -0.1577 -0.1116
    1W        W57830  10.749  10.882   0.862  0.0004 -0.0282 -0.0414
    1W        W57831  26.258  15.767   1.074 -0.3005  0.0314 -0.2513
    1W        W57832  15.913  13.579   9.648 -0.0579 -0.0194 -0.1926
    1W        W57833  17.102   4.657   2.474  0.0862 -0.2842  0.0327
    1W        W57834   4.332   8.396   8.257  0.0687  0.1784  0.0714
    1W        W57835  12.380  10.878   3.019 -0.1604 -0.1047  0.0019
    1W        W57836   9.885   3.867   4.096 -0.2428  0.1640 -0.1841
    1W        W57837  10.659   0.025   2.354 -0.1837 -0.3597 -0.2126
    1W        W57838  12.103   4.130   8.444  0.1142 -0.1300  0.1671
    1W        W57839  22.144  27.215   7.698 -0.1113 -0.2527  0.0516
    1W        W57840  13.736  10.526   1.226 -0.0394 -0.0961  0.4796
    1W        W57841  12.618  22.747   0.638  0.3073 -0.1342 -0.2858
    1W        W57842  28.515   4.290   9.381  0.1669 -0.1139 -0.1487
    1W        W57843   0.589   4.861   6.736  0.1399 -0.0970 -0.1793
    1W        W57844  17.209  17.403   8.253  0.1689 -0.1099  0.0470
    1W        W57845   2.664  15.574   1.553  0.2220 -0.4905 -0.0148
    1W        W57846   8.416  15.260   0.041 -0.0972 -0.1147 -0.1590
    1W        W57847   5.635   3.045   2.433 -0.2101 -0.2280  0.2319
    1W        W57848   5.392   6.601   7.846  0.0500 -0.0227  0.1590
    1W        W57849   2.692  10.677   0.037  0.1327 -0.3416 -0.1278
    1W        W57850  18.145   7.245   1.740 -0.2282 -0.1592 -0.4478
    1W        W57851   1.622   7.820   9.053  0.0044 -0.0040 -0.2054
    1W        W57852   3.291  21.833   6.191 -0.1095  0.0206  0.1659
    1W        W57853  15.721   8.390   9.270 -0.1765  0.0903 -0.1288
    1W        W57854  10.082  26.682   2.575  0.0995  0.1027 -0.1904
    1W        W57855  22.036  23.196   7.754  0.0456 -0.2180  0.1737
    1W        W57856  27.534  20.216   9.010  0.0496  0.1051 -0.2681
    1W        W57857   7.519  21.123   8.795  0.1790 -0.0768  0.1582
    1W        W57858   5.498  20.575   8.209 -0.1043 -0.3778  0.0985
    1W        W57859   2.472  26.440   7.371 -0.1055  0.3221  0.1625
    1W        W57860  12.568   7.026   9.702 -0.1313 -0.0085 -0.0470
    1W        W57861  18.222   3.653   9.768  0.0664  0.0089 -0.3375
    1W        W57862  12.960  21.756   0.299 -0.0273  0.0934 -0.0125
    1W        W57863  26.565  11.162   6.987 -0.0563  0.2742  0.2812
    1W        W57864   1.642  20.665   9.130 -0.0334 -0.0929  0.1923
    1W        W57865  21.869   2.012   0.303 -0.1134  0.3144  0.0645
    1W        W57866   6.940  26.992   9.906  0.2786 -0.2824 -0.0328
    1W        W57867   9.844   8.359   7.232 -0.1889  0.0610 -0.1504
    1W        W57868  18.919  17.103   1.974 -0.1928  0.2297  0.0284
    1W        W57869  14.529   4.311   2.176 -0.4077  0.5899  0.0889
    1W        W57870   8.954   0.537   3.799 -0.0375  0.1998 -0.0108
    1W        W57871   3.997   1.032   0.860 -0.2623  0.0427 -0.1005
    1W        W57872  26.548   3.173   7.875 -0.1523 -0.0967  0.0293
    1W        W57873  11.902   8.777   0.193 -0.1078 -0.2602 -0.0164
    1W        W57874   2.450  12.287   0.912 -0.0411 -0.2062 -0.0048
    1W        W57875  26.863  23.488   8.939  0.1171  0.0980 -0.0943
    1W        W57876   8.572  14.758   9.697 -0.2045 -0.1258  0.1903
    1W        W57877  26.372   8.221   2.908 -0.2011 -0.0629 -0.0724
    1W        W57878   1.065   1.530   9.340 -0.2292  0.0668 -0.1507
    1W        W57879  24.798  15.447   2.538 -0.0806 -0.1046 -0.0785
    1W        W57880  27.323  13.205   0.777  0.0379 -0.1668  0.0454
    1W        W57881  12.101   6.644   1.606 -0.0287  0.2033 -0.0334
    1W        W57882  28.231  17.953   9.108  0.2238 -0.2933  0.0668
    1W        W57883  19.016  26.602   7.656 -0.0149 -0.0892  0.4335
    1W        W57884  17.744  12.121   7.509 -0.3481  0.0739 -0.1104
    1W        W57885  18.041  26.750   9.557  0.1230  0.0800  0.1097
    1W        W57886   6.136  25.843   8.971  0.2251 -0.0904  0.2535
    1W        W57887   7.139   5.199   0.769  0.1452  0.1450  0.1979
    1W        W57888  11.009  19.446   2.117  0.0798  0.2202 -0.0529
    1W        W57889   6.321   1.064   1.044 -0.1135  0.0012 -0.2211
    1W        W57890  24.643   9.552   9.899 -0.3453  0.3352  0.2579
    1W        W57891   5.263  16.332   1.681 -0.0867 -0.1875  0.0389
    1W        W57892  27.734  18.109   8.272  0.0555  0.0100 -0.1228
    1W        W57893  16.147   8.960   0.530 -0.0735  0.0585  0.2326
    1W        W57894   5.124  13.827   8.261  0.0286  0.0866  0.0100
    1W        W57895   1.838  20.384   6.892  0.0789 -0.0867 -0.1796
    1W        W57896  23.611   4.847   8.932  0.0829 -0.0120  0.1939
    1W        W57897  24.461  27.377   2.942 -0.0003  0.2248  0.0475
    1W        W57898  26.209  22.639   8.127 -0.1250 -0.5124  0.2479
    1W        W57899  16.580  21.348   0.430 -0.0738 -0.0300  0.1453
    1W        W57900  16.340   2.257   2.291 -0.2002 -0.0274 -0.2282
    1W        W57901  27.521  11.951   6.032  0.4510 -0.0047 -0.0169
    1W        W57902   5.131  13.211   9.181  0.1641 -0.0525  0.0522
    1W        W57903   3.522  20.822   7.729 -0.2237  0.0570 -0.0640
    1W        W57904  10.519   2.244   2.746  0.2430 -0.1053 -0.1709
    1W        W57905  12.723  14.252   0.167  0.1206 -0.1084  0.0092
    1W        W57906   5.954   8.738   0.450 -0.0773 -0.0768 -0.1544
    1W        W57907  27.188  21.075   9.416  0.1702  0.1434 -0.0708
    1W        W57908   6.931   6.176   8.176  0.2574 -0.3270  0.1384
    1W        W57909   2.692  14.076   0.436 -0.0518 -0.0195  0.2048
    1W        W57910   4.911  17.262   8.976 -0.0860  0.0698 -0.1021
    1W        W57911  26.606  12.253   1.014  0.0982  0.1138 -0.2084
    1W        W57912  11.778  24.473   2.692  0.0969  0.0284  0.3390
    1W        W57913  11.126  25.090   8.887  0.1633  0.1767  0.1011
    1W        W57914   6.056  26.313   0.280 -0.4069  0.1903 -0.1269
    1W        W57915  20.698   4.900   7.150 -0.1611  0.2071 -0.0643
    1W        W57916  23.853   9.606   8.698  0.2249 -0.0193 -0.0327
    1W        W57917  23.312  11.608   7.555 -0.3801 -0.0244 -0.1884
    1W        W57918  10.250  21.458   6.821 -0.0503 -0.1912 -0.2082
    1W        W57919  28.458  18.749   2.091 -0.0105 -0.3707  0.0461
    1W        W57920  23.493  19.510   2.806 -0.2321  0.3056  0.0873
    1W        W57921  28.256  17.689   2.073 -0.0154  0.0173 -0.1246
    1W        W57922  19.666   9.266   7.857 -0.1383  0.0328 -0.2753
    1W        W57923  26.959  18.970   6.942 -0.2528 -0.0369 -0.3738
    1W        W57924   3.326  26.698   6.231  0.0648 -0.0578  0.1590
    1W        W57925  12.396   4.385   1.878  0.0418 -0.1642 -0.0014
    1W        W57926  12.201  13.999   9.441  0.1795 -0.1231  0.0980
    1W        W57927  15.619  24.143   1.081 -0.1104 -0.0819 -0.2072
    1W        W57928  22.530   0.351   2.251  0.3329 -0.0056  0.0939
    1W        W57929   6.887   0.894   3.028  0.3294  0.3091  0.0896
    1W        W57930  21.834  10.897   9.120  0.3262  0.1552 -0.0688
    1W        W57931  16.871   4.875   9.151  0.0113 -0.2810 -0.0977
    1W        W57932  26.327   3.484   2.386  0.0535  0.0897 -0.1621
    1W        W57933   5.522  15.220   1.176  0.1461  0.0946 -0.0647
    1W        W57934   1.239   1.994   9.410 -0.0563  0.0065  0.0784
    1W        W57935   4.364   9.870   7.493 -0.0619  0.2915 -0.0575
    1W        W57936  20.396  28.482   1.586 -0.0551 -0.0997 -0.4042
    1W        W57937  22.112  10.488   9.375  0.2383 -0.0667 -0.0772
    1W        W57938  24.597  19.108   6.966 -0.1802 -0.0468  0.0540
    1W        W57939  11.790   2.029   0.817  0.2487  0.0866  0.1364
    1W        W57940   3.184  27.497   6.578  0.0675  0.4206 -0.1784
    1W        W57941  24.605  20.218   2.455 -0.0599  0.0085  0.0073
    1W        W57942  27.341   4.983   1.701 -0.0573 -0.3410  0.1209
    1W        W57943  24.098   0.178   2.714  0.0251  0.1525  0.0504
    1W        W57944  22.511  20.382   2.908 -0.2764 -0.2560 -0.2131
    1W        W57945  15.324   0.002   0.978  0.0126 -0.0839 -0.0197
    1W        W57946   0.922  14.476   0.206 -0.0255  0.1697 -0.0008
    1W        W57947  21.705  22.748   6.252 -0.0434 -0.2143 -0.0482
    1W        W57948  27.731  26.412   2.340  0.0950 -0.0888  0.0734
    1W        W57949  22.729   1.296   8.182  0.0140 -0.0478  0.1882
    1W        W57950  17.991  22.402   0.667  0.0430 -0.1854 -0.0899
    1W        W57951  13.095   4.028   8.679  0.2279  0.0700 -0.1840
    1W        W57952  19.882  20.343   9.007  0.1271  0.0096 -0.2855
    1W        W57953  24.110  21.524   3.691  0.0669  0.0025 -0.1369
    1W        W57954   2.642  16.577   1.339  0.0934 -0.1565  0.0404
    1W        W57955  20.967  28.470   8.388  0.5237 -0.4754  0.1015
    1W        W57956   8.630   5.608   9.961  0.2107  0.1816  0.1217
    1W        W57957  12.287  16.796   8.160  0.0662 -0.0180 -0.1887
    1W        W57958   5.813  25.709   1.547 -0.2262  0.1647  0.0606
    1W        W57959  25.983  11.085   1.443  0.0314 -0.1213  0.5593
    1W        W57960  14.044   2.840   6.990 -0.2085  0.0666 -0.0150
    1W        W57961  22.150   1.523   2.456 -0.1126 -0.0367 -0.1964
    1W        W57962  20.015  21.326   9.513 -0.1423 -0.0415 -0.1187
    1W        W57963   4.037  12.546   1.867  0.0679 -0.0789 -0.0725
    1W        W57964  10.915  27.965   2.334 -0.1408 -0.0197  0.1420
    1W        W57965   4.549   6.366   1.438  0.2853 -0.2391  0.1951
    1W        W57966  24.083  22.167   2.590 -0.1345 -0.0589 -0.1731
    1W        W57967   5.838  16.753   7.953 -0.3961  0.0348 -0.2231
    1W        W57968   5.607   0.492   0.106 -0.2492 -0.2701  0.2958
    1W        W57969  15.558  24.195   7.053 -0.0232 -0.0871  0.0774
    1W        W57970  20.073  26.322   9.373 -0.1466 -0.0787 -0.3919
    1W        W57971  13.914  10.458   2.606  0.1325 -0.2504  0.2397
    1W        W57972   4.441  11.688   2.836 -0.2426  0.1219  0.2284
    1W        W57973   7.225   9.240   7.244  0.3217 -0.2252 -0.0309
    1W        W57974   3.565  10.492   2.122 -0.1257 -0.0417 -0.2037
    1W        W57975  21.748  24.068   1.550  0.0497 -0.2115  0.1325
    1W        W57976   5.661  18.489   7.083 -0.1726  0.0112 -0.0287
    1W        W57977  15.576   4.297   3.087 -0.1086  0.0448  0.2441
    1W        W57978  22.816   9.797   2.307 -0.3985 -0.2887 -0.1281
    1W        W57979  21.530   7.534   9.082 -0.0540  0.2201  0.1792
    1W        W57980  21.416   7.755   6.443 -0.2064  0.1292  0.4378
    1W        W57981   7.997  15.321   1.134  0.0062 -0.0206 -0.1697
    1W        W57982  23.241   0.823   6.405  0.4429  0.2030  0.0519
    1W        W57983  27.423  25.520   1.443  0.0129 -0.0327  0.1031
    1W        W57984  18.079  23.994   6.718  0.1678 -0.0595 -0.0675
    1W        W57985  21.037   1.176   7.733 -0.0039  0.3095 -0.0265
    1W        W57986  26.935  26.834   2.052  0.0734  0.2047 -0.0126
    1W        W57987  19.039   1.182   1.942 -0.1242 -0.0870 -0.0367
    1W        W57988   7.361  16.825   0.667  0.2790  0.0946 -0.0297
    1W        W57989  26.346   2.193   0.520 -0.0320  0.0114  0.0294
    1W        W57990   8.802  16.044   1.906 -0.0796  0.2723 -0.0525
    1W        W57991  20.639  16.439   7.255 -0.1294  0.2946  0.2807
    1W        W57992  20.416   7.674   9.897 -0.0540 -0.2414 -0.0733
    1W        W57993  10.213   1.336   0.598  0.0795  0.0880  0.2300
    1W        W57994  16.884  14.092   8.776  0.1282 -0.2002 -0.0347
    1W        W57995  19.411  12.053   8.678 -0.1005  0.2804  0.0439
    1W        W57996  14.069  28.412   9.147 -0.2287 -0.0459  0.0717
    1W        W57997  24.050   6.893   2.074 -0.1136 -0.0993  0.1814
    1W        W57998   2.364  18.793   9.775 -0.1142 -0.0723 -0.1046
    1W        W57999   1.240  27.189   2.704 -0.2245  0.0453 -0.3539
    1W        W58000  26.212  11.620   7.923 -0.0059  0.4179  0.1584
    1W        W58001   1.403  25.735   7.367 -0.1212 -0.0381  0.0982
    1W        W58002   1.531  21.947   7.503  0.2392 -0.1208 -0.1855
    1W        W58003   2.419  25.349   0.946 -0.1858 -0.0398  0.1864
    1W        W58004   4.203  15.805   1.865 -0.1760  0.1230 -0.0321
    1W        W58005   4.418   9.619   2.610  0.0166  0.0635 -0.1257
    1W        W58006  25.037  16.230   1.110 -0.0006  0.1361  0.3334
    1W        W58007  24.583   6.137   8.616  0.4254 -0.0202 -0.1436
    1W        W58008   5.529   1.090   7.192 -0.1863  0.0799 -0.2560
    1W        W58009  27.695   7.505   8.860  0.2398  0.1064  0.5138
    1W        W58010  22.592   5.902   7.136  0.1356 -0.3424  0.5487
    1W        W58011   0.447  28.038   0.588 -0.3682 -0.0835 -0.3969
    1W        W58012  25.191  25.064   8.727  0.0520 -0.1573  0.1533
    1W        W58013   6.328  14.368   7.524  0.1687  0.1858 -0.0700
    1W        W58014  27.964  10.505   6.892  0.3308  0.2461 -0.3067
    1W        W58015   0.976   4.111   7.878  0.0248  0.0606  0.0098
    1W        W58016  28.257  12.658   8.889  0.0421  0.0586  0.3686
    1W        W58017  24.923   0.489   0.112 -0.0095  0.0649 -0.1533
    1W        W58018   2.694  21.883   7.864  0.1027 -0.0622 -0.0481
    1W        W58019  13.725  27.946   1.069 -0.3012 -0.1271  0.2714
    1W        W58020  26.037   3.330   9.514  0.2965  0.3725 -0.0045
    1W        W58021   2.649  15.005   8.232  0.1330 -0.3325  0.1248
    1W        W58022   3.513  23.125   8.661  0.1071  0.0428 -0.0964
    1W        W58023  26.984  28.630   9.889 -0.2736  0.0553 -0.2686
    1W        W58024  26.793  27.702   2.171  0.3609  0.1778 -0.1247
    1W        W58025  23.859   8.348   3.016 -0.1319 -0.0478  0.1262
    1W        W58026  21.351   1.936   1.186 -0.0775 -0.3143 -0.0773
    1W        W58027  20.668  25.113   1.763  0.0633 -0.0203  0.0425
    1W        W58028  24.912   6.446   0.825  0.0327  0.2683 -0.2212
    1W        W58029  13.392  14.490   2.702 -0.3943  0.0114 -0.1193
    1W        W58030  28.443  21.796   7.088  0.0547  0.1167 -0.0411
    1W        W58031  16.726  20.421   1.244  0.1853  0.2931 -0.0531
    1W        W58032  11.618  22.383   8.618 -0.0570  0.3013  0.1816
    1W        W58033   6.777  14.732   1.108 -0.0866  0.2098  0.0355
    1W        W58034  11.514  28.107   2.593 -0.1022 -0.0194 -0.3428
    1W        W58035   5.055  25.534   7.541  0.0267  0.0637  0.0212
    1W        W58036   2.155   7.540   8.324  0.2259  0.1049 -0.0811
    1W        W58037  28.192   7.128   7.070  0.1174 -0.2916  0.0680
    1W        W58038   4.178   8.444   8.762  0.2013 -0.2477  0.0994
    1W        W58039  15.475  13.595   2.138  0.4122 -0.0778 -0.2766
    1W        W58040  14.715   7.163   3.154  0.2577  0.2703 -0.0425
    1W        W58041  23.492  19.858   7.655 -0.0516  0.0517  0.2158
    1W        W58042   3.126  16.353   0.071 -0.1600  0.0636  0.4366
    1W        W58043  22.628  17.247   8.686 -0.0166 -0.0608  0.1420
    1W        W58044  22.682  17.709   8.669  0.1901  0.0217 -0.0698
    1W        W58045  14.022  25.287   3.443  0.0335  0.0898 -0.1725
    1W        W58046  24.169  27.048   3.233 -0.1348  0.1873  0.0189
    1W        W58047  11.204  25.805   0.218  0.3166  0.0844 -0.1094
    1W        W58048  21.642  13.691   0.760 -0.0495  0.1279  0.0946
    1W        W58049  18.171  12.850   7.079 -0.3205 -0.0244 -0.2118
    1W        W58050  22.905   5.515   2.491  0.2441  0.2264  0.1245
    1W        W58051  19.603  19.990   8.153 -0.3566  0.2257 -0.0540
    1W        W58052   8.231  24.566   8.777 -0.1371 -0.0909 -0.2979
    1W        W58053   0.214  26.233   1.586  0.0461  0.0363 -0.0151
    1W        W58054  19.258  14.239   1.621 -0.1526 -0.1858 -0.0053
    1W        W58055  23.133   4.201   0.248  0.1920  0.2658  0.1871
    1W        W58056  24.277   5.678   2.802 -0.1432 -0.2059  0.1386
    1W        W58057  11.634   0.191   9.500  0.1339  0.2180 -0.1778
    1W        W58058   1.240   2.453   7.376  0.0377 -0.0634 -0.1700
    1W        W58059   8.444  23.943   6.542 -0.0497 -0.0061 -0.0363
    1W        W58060  22.023   6.296   7.670 -0.0640 -0.1521 -0.1025
    1W        W58061  14.935   6.751   3.269 -0.0321  0.2691  0.5640
    1W        W58062   6.168  28.294   3.151  0.0245 -0.1452 -0.1069
    1W        W58063  21.751   4.838   7.368 -0.2585  0.1331  0.1645
    1W        W58064  26.537  20.229   7.504  0.0237 -0.1224  0.2428
    1W        W58065   4.489  14.601   2.561 -0.0168  0.2786 -0.1097
    1W        W58066   3.790   6.202   8.988 -0.1837  0.1805 -0.1734
    1W        W58067   6.782  12.316   9.813  0.0788 -0.0202 -0.1049
    1W        W58068  26.755  24.194   3.381 -0.1380  0.2329 -0.2175
    1W        W58069   3.132   2.377   1.768 -0.1475  0.3005  0.1165
    1W        W58070   6.566  13.390   0.540  0.1938  0.1407 -0.2476
    1W        W58071   9.776  18.105   1.868 -0.0827 -0.1966  0.1415
    1W        W58072   1.069  18.292   9.792  0.1273  0.2019  0.2276
    1W        W58073   1.274   3.502   8.728 -0.1251  0.2585  0.0226
    1W        W58074  28.069   7.587   8.495 -0.1292  0.0874 -0.2317
    1W        W58075  26.486  25.380   7.223  0.1040 -0.1226 -0.3380
    1W        W58076  21.491  19.399   2.627 -0.1609 -0.3437  0.0580
    1W        W58077  11.816  15.967   8.428  0.1070  0.1784  0.1477
    1W        W58078  24.197  27.275   1.641 -0.2724 -0.2127  0.0385
    1W        W58079  13.057   9.850   8.488 -0.0458  0.1381 -0.3074
    1W        W58080   3.958  26.754   1.456 -0.2008 -0.2312 -0.0147
    1W        W58081  14.499   4.720   2.540 -0.0233 -0.1342 -0.3349
    1W        W58082  15.311   6.002   8.850  0.0274 -0.4208  0.0669
    1W        W58083   5.250   2.414   7.464  0.0282  0.1614 -0.0698
    1W        W58084  21.110  12.512   9.230 -0.1371  0.1972  0.3285
    1W        W58085  20.462  21.165   2.632  0.0117 -0.2489 -0.2081
    1W        W58086   6.612   3.570   8.802 -0.0611 -0.0666 -0.0798
    1W        W58087   6.415   6.986   6.873  0.0880 -0.2633  0.0517
    1W        W58088   0.758   2.398   0.507 -0.3624  0.1066 -0.2200
    1W        W58089  26.878   0.592   4.100  0.1373 -0.1840  0.0760
    1W        W58090  26.264  22.472   1.318  0.0393 -0.1072  0.1544
    1W        W58091  23.166  26.496   9.232  0.1164 -0.0706  0.0445
    1W        W58092   0.088  12.138   9.470 -0.1362 -0.0428 -0.0681
    1W        W58093  13.616  14.238   8.156  0.0104 -0.0757  0.0230
    1W        W58094  13.111  26.966   9.535  0.0141 -0.0723 -0.0538
    1W        W58095  10.436  26.884   7.639  0.0019  0.1060 -0.0534
    1W        W58096  11.198  21.830   0.471  0.2774  0.2505 -0.2901
    1W        W58097  23.893  10.741   8.623  0.0500  0.2557  0.0086
    1W        W58098  21.462  22.431   9.726  0.1798  0.1190  0.1237
    1W        W58099   4.965   6.633   7.107  0.0841 -0.1525 -0.0522
    1W        W58100  18.077  20.595   0.176 -0.0250  0.0678  0.0723
    1W        W58101  16.871  20.242   7.738  0.1561  0.1758  0.1147
    1W        W58102   4.391  16.016   8.994  0.1790 -0.0157 -0.0346
    1W        W58103   8.195  28.622   0.851  0.0025 -0.0211 -0.0126
    1W        W58104  25.110   2.330   8.022 -0.2041  0.0303 -0.0035
    1W        W58105  20.650  11.127   7.797 -0.1755 -0.0055  0.1811
    1W        W58106  17.025  13.702   0.197 -0.3038  0.0835  0.2312
    1W        W58107  23.384  21.471   3.746 -0.1215  0.1199 -0.1926
    1W        W58108   7.350  14.782   8.085 -0.0236 -0.1119  0.0808
    1W        W58109  16.024  23.667   9.635 -0.2577 -0.1016 -0.0132
    1W        W58110  10.929  12.381   8.999 -0.0820 -0.1601  0.2079
    1W        W58111  16.915   6.142   9.327 -0.1017 -0.1118 -0.3712
    1W        W58112   1.033   7.109   8.673  0.1791 -0.0165 -0.3313
    1W        W58113   2.041  22.186   8.235  0.0345 -0.2770  0.1108
    1W        W58114  25.812   4.396   8.689 -0.1805 -0.1985  0.0458
    1W        W58115   0.039  14.662   7.251 -0.0612  0.2379  0.2536
    1W        W58116  16.744  25.115   0.204  0.1254 -0.6437  0.1496
    1W        W58117   6.061  23.355   2.246  0.5081 -0.2383 -0.2204
    1W        W58118  15.099  11.580   9.838  0.0509  0.1810  0.0401
    1W        W58119  12.193  21.927   3.727  0.2042  0.0211  0.0535
    1W        W58120  19.646  27.465   9.101 -0.0354 -0.0076 -0.2211
    1W        W58121  23.737  16.478   9.738 -0.2011  0.1365 -0.0587
    1W        W58122  28.249  25.915   7.481  0.0208  0.0751 -0.0513
    1W        W58123  27.635   5.458   7.178  0.3552  0.0584  0.0937
    1W        W58124  25.276   9.813   7.511 -0.2280  0.1451 -0.2112
    1W        W58125  21.985  28.442   0.063  0.2032  0.1052 -0.4292
    1W        W58126   3.814   5.036   0.778  0.0247  0.2989 -0.0467
    1W        W58127  12.010  14.964   8.564  0.1964  0.2065  0.0713
    1W        W58128  11.464  26.397   9.100  0.1846  0.1289  0.0646
    1W        W58129   3.932  18.237   1.808 -0.1368  0.2728 -0.1478
    1W        W58130  24.215   6.968   7.116  0.1217  0.2222 -0.2564
    1W        W58131  13.285  13.370   1.641 -0.2732 -0.2362  0.0886
    1W        W58132  22.836  27.633   7.808 -0.0694  0.0778  0.2088
    1W        W58133  17.962  19.148   7.642 -0.0740 -0.1698 -0.2844
    1W        W58134   1.763   3.131   7.620 -0.2760  0.0051 -0.0739
    1W        W58135  27.216   1.079   9.699  0.2940  0.0122 -0.1036
    1W        W58136   2.619  26.471   7.927 -0.0889  0.0668  0.0867
    1W        W58137  11.365  21.940   1.039  0.1899  0.4500  0.1981
    1W        W58138   9.359   1.950   2.768  0.1755  0.0650  0.0977
    1W        W58139   6.140   7.375   8.848 -0.1305 -0.1275 -0.1356
    1W        W58140  24.244  11.404   1.311  0.1124  0.0290  0.1515
    1W        W58141   5.160   9.951   1.132  0.0496 -0.0664 -0.1746
    1W        W58142   2.891   2.970   9.552  0.1088  0.0555  0.0332
    1W        W58143  10.145   0.339   8.845  0.0774 -0.1791 -0.0972
    1W        W58144  28.323   0.899   8.322 -0.2259 -0.0588  0.0623
    1W        W58145  27.546  26.949   0.359  0.0044 -0.1024  0.1979
    1W        W58146   3.026   8.342   9.672  0.0199  0.0199 -0.2421
    1W        W58147   7.314   6.074   9.474  0.0721 -0.0573  0.0817
    1W        W58148   2.079  13.198   6.267  0.0844 -0.2455  0.0053
    1W        W58149   8.604   7.630   9.371  0.1895 -0.2587  0.0317
    1W        W58150  24.678  23.461   9.083 -0.1896 -0.4074  0.0458
    1W        W58151   3.446  14.305   7.456 -0.2861  0.1159 -0.2057
    1W        W58152  18.127  12.357   2.968  0.2462  0.2342 -0.1508
    1W        W58153  19.202   6.624   3.212  0.0009  0.2792  0.1437
    1W        W58154  20.598   8.435   6.917 -0.0548 -0.1765  0.1210
    1W        W58155   8.193  11.007   0.674 -0.1521 -0.1667 -0.2635
    1W        W58156  12.751  18.298   6.688 -0.2720 -0.1793 -0.1485
    1W        W58157  19.842  23.090   8.670 -0.1293 -0.0710  0.0534
    1W        W58158   6.070   4.521   2.701 -0.2023 -0.1429 -0.2713
    1W        W58159   0.246  19.711   6.568 -0.0618 -0.2826  0.0143
    1W        W58160  18.902   5.390   1.193  0.0080  0.0731  0.1211
    1W        W58161  14.350   9.753   2.501  0.2067  0.0257  0.0239
    1W        W58162  18.595   4.813   8.730  0.1939 -0.1991 -0.1691
    1W        W58163  24.537  13.201   8.211  0.0617  0.2681  0.2301
    1W        W58164  16.116  10.756   9.741  0.2312 -0.1517 -0.1502
    1W        W58165   3.244  26.549   0.525 -0.0781 -0.0530  0.1344
    1W        W58166  11.147   5.690   8.691  0.0577  0.0300  0.0633
    1W        W58167  18.195  27.506   7.587 -0.0037  0.1799  0.0491
    1W        W58168  16.074  21.706   7.288 -0.3412  0.2340 -0.0198
    1W        W58169  22.827  18.307   0.646 -0.1851 -0.2227  0.0299
    1W        W58170  24.396   0.137   7.993  0.0770  0.3406  0.1959
    1W        W58171  13.642   3.251   2.032 -0.0855  0.1132  0.2540
    1W        W58172   0.863  15.773   8.172  0.2875  0.0646 -0.1875
    1W        W58173   1.535  24.672   1.514 -0.0306 -0.0055  0.2854
    1W        W58174  20.665  12.489   2.959  0.0831 -0.0653  0.2405
    1W        W58175   7.983  27.933   7.588 -0.2396 -0.2223 -0.2343
    1W        W58176  21.114  24.227   0.937  0.1945 -0.1077 -0.0839
    1W        W58177   0.220  24.623   0.394 -0.0757  0.3060  0.0163
    1W        W58178   3.890   8.055   8.498  0.1389 -0.0084  0.4587
    1W        W58179  23.623   8.498   6.862  0.0515  0.0069  0.0137
    1W        W58180  19.205  10.556   8.138  0.0640  0.0914  0.0200
    1W        W58181  17.235   0.661   9.210  0.3412  0.1812  0.1846
    1W        W58182  22.335  11.236   0.344  0.1932 -0.0148 -0.0676
    1W        W58183  10.749  26.442   9.943  0.1971 -0.1161 -0.1155
    1W        W58184   0.776  19.955   9.115 -0.2226  0.0618  0.1217
    1W        W58185  11.465   1.462   1.938 -0.1225  0.0045  0.3622
    1W        W58186  19.301   9.702   7.757 -0.0509 -0.4908 -0.0982
    1W        W58187  16.672  21.967   0.403 -0.1453  0.1732  0.0640
    1W        W58188  20.860   1.069   6.608 -0.2520  0.4161  0.0768
    1W        W58189  12.317  24.233   9.662  0.2296  0.0397 -0.0650
    1W        W58190  15.107  15.475   8.362 -0.1153 -0.1968  0.3232
    1W        W58191  27.678   4.961   0.874  0.2582 -0.0525 -0.1576
    1W        W58192   1.718  23.121   9.655  0.1233  0.0981 -0.1178
    1W        W58193  23.731   7.042   7.893 -0.1313  0.0173  0.0949
    1W        W58194  17.999  25.375   2.603  0.0840  0.0261 -0.0068
    1W        W58195   0.985   9.814   7.038  0.0400 -0.1539 -0.0291
    1W        W58196  25.397  12.969   1.751  0.0050  0.3669  0.0470
    1W        W58197  22.415  17.357   6.687  0.2203  0.1047 -0.0597
    1W        W58198   4.332  10.959   6.172  0.0975 -0.1125 -0.0151
    1W        W58199  11.576   5.518   9.732  0.0581  0.0577 -0.0012
    1W        W58200  25.610   0.643   9.531 -0.2554 -0.1485  0.3277
    1W        W58201  17.300  11.219   8.558  0.0850 -0.0783 -0.0653
    1W        W58202   8.885  27.989   7.585  0.1324  0.1202  0.0361
    1W        W58203  19.434  25.598   1.156  0.3099 -0.1337  0.0080
    1W        W58204  18.758   0.840   9.102 -0.0640 -0.2432  0.2792
    1W        W58205  12.476  12.556   9.505  0.1253 -0.2190 -0.0284
    1W        W58206  26.145  18.822   7.268  0.1135 -0.0966  0.1180
    1W        W58207  23.014  28.416   9.873  0.1937  0.0456 -0.2759
    1W        W58208   1.687  13.529   7.055 -0.0119 -0.1121 -0.0307
    1W        W58209   1.361  15.397   1.756 -0.0610  0.0022  0.1524
    1W        W58210  26.870  14.914   1.027 -0.1675 -0.1989  0.1522
    1W        W58211  11.217  23.097   2.555 -0.2786  0.0818  0.3521
    1W        W58212  27.828  19.811   0.850  0.0998  0.0277  0.0985
    1W        W58213   2.931   1.858   0.425  0.3405 -0.1682  0.3259
    1W        W58214  20.857  25.447   2.542  0.0688 -0.0692  0.1333
    1W        W58215   3.885  11.618   1.242 -0.2840  0.2160  0.0385
    1W        W58216   2.036   3.719   1.103  0.0838 -0.0364  0.0535
    1W        W58217  13.605  25.822   1.895  0.3608  0.1349  0.0327
    1W        W58218   4.172   2.793   1.353  0.0644  0.3031  0.0279
    1W        W58219  16.843  17.255   1.219  0.1015  0.0806 -0.1240
    1W        W58220  16.057  22.882   3.883  0.2522 -0.3226 -0.1263
    1W        W58221  10.330  19.687   1.567 -0.3578 -0.0314  0.0773
    1W        W58222  23.464   1.775   9.120 -0.6378 -0.1675  0.1651
    1W        W58223  24.189  15.909   9.072 -0.0394  0.0164  0.0171
    1W        W58224   6.690  14.392   9.384  0.1015  0.1309  0.3393
    1W        W58225  24.016  11.069   7.049  0.2842 -0.0228 -0.0022
    1W        W58226  28.136  27.662   0.403  0.1033  0.0655  0.0423
    1W        W58227  23.305   8.617   9.402 -0.2137  0.1661 -0.1553
    1W        W58228   9.117  16.395   7.491  0.0662 -0.0375 -0.0132
    1W        W58229  17.795   2.099   2.768 -0.0100  0.2996 -0.0529
    1W        W58230  11.425   4.193   1.687 -0.0444 -0.3106 -0.1065
    1WF      WF58231  13.847  20.401   0.324  0.1827 -0.1047 -0.0362
    1WF      WF58232   1.161   8.049   0.456  0.4348  0.0530 -0.0123
    1WF      WF58233   7.695  20.102   0.469  0.0634  0.2463  0.1696
    1WF      WF58234   9.554   9.514   8.764  0.3593  0.0422  0.0677
    1WF      WF58235   6.003   5.771   8.822  0.2963  0.3344 -0.3017
    1WF      WF58236  15.602   6.084   7.868  0.0015  0.1018  0.1180
    1WF      WF58237  11.065   0.658   0.050 -0.0511 -0.1358 -0.0133
    1WF      WF58238  25.838  27.311   9.767  0.0260  0.0106 -0.1591
    1WF      WF58239  25.748  15.262   2.322 -0.5361  0.0920 -0.0161
    1WF      WF58240  25.602  15.410   8.639  0.1820  0.1220 -0.3616
    1WF      WF58241  24.976  10.054   2.464  0.3697  0.1098  0.2067
    1WF      WF58242  23.013   6.605   9.291 -0.0521 -0.2808 -0.3524
    1WF      WF58243  13.674  10.565   9.488 -0.0340 -0.1980 -0.0041
    1WF      WF58244  28.406  15.390   8.513  0.1495 -0.3603 -0.1188
    1WF      WF58245  22.680  20.656   8.816  0.2116 -0.2369  0.0719
    1WF      WF58246  20.978   1.173   1.550  0.1708 -0.0064  0.0509
    1WF      WF58247  14.842  20.262   9.608 -0.1359  0.0252 -0.0046
    1WF      WF58248  24.970   7.768   9.534  0.0870 -0.0055  0.0514
    1WF      WF58249   5.404  15.855   8.597  0.1790  0.0757  0.0943
    1WF      WF58250   7.355   6.200   3.473 -0.0811  0.1190 -0.2628
    1WF      WF58251   3.719  23.835   8.778 -0.1771  0.1507  0.0843
    1WF      WF58252  24.549  28.081   7.552  0.1176 -0.0452 -0.2262
    1WF      WF58253   1.833   0.907   8.226  0.1820  0.0285  0.0625
    1WF      WF58254   1.558   8.577   6.570  0.1111 -0.1378  0.1284
    1WF      WF58255  25.680   1.648   9.074 -0.0111  0.0657 -0.2101
    1WF      WF58256   9.570   1.406   1.853  0.2584 -0.3312  0.1182
    1WF      WF58257   1.491  22.851   0.856 -0.2689 -0.0321  0.0589
    1WF      WF58258   3.004  20.450   0.913 -0.1729  0.2435  0.0500
    1WF      WF58259  24.516  21.871   0.790 -0.3212 -0.0307  0.0240
    1WF      WF58260  26.130  18.397   8.409  0.4572  0.0253 -0.4123
    1WF      WF58261  15.924   7.905   1.274 -0.0352  0.0008 -0.1112
    1WF      WF58262   2.271   0.943   8.642  0.2191 -0.3079 -0.0066
    1WF      WF58263  21.455  14.352   8.667  0.1031  0.0294 -0.1345
    1WF      WF58264  15.184  28.483   8.770  0.0503  0.1194  0.0712
    1WF      WF58265  18.665   2.612   9.595  0.1427  0.2633 -0.1523
    1WF      WF58266   9.585  26.316   9.946  0.2366  0.0698 -0.0450
    1WF      WF58267  28.639  26.751   8.291 -0.2567  0.0105 -0.0955
    1WF      WF58268   8.557  23.417   2.879 -0.1001  0.0014 -0.3153
    1WF      WF58269  11.675   1.043   2.311  0.0248  0.0673 -0.0042
    1WF      WF58270  26.387   0.479   2.902  0.1675  0.0026 -0.1012
    1WF      WF58271  24.344   6.558   1.018  0.1309  0.0402  0.0049
    1WF      WF58272  20.984   3.360   8.309 -0.1875 -0.1676 -0.4212
    1WF      WF58273  14.479   1.925   1.423 -0.0061  0.2804 -0.2645
    1WF      WF58274  10.106  23.465   7.980 -0.0004  0.4191  0.2353
    1WF      WF58275   7.829   9.384   2.347 -0.2610 -0.1424  0.0439
    1WF      WF58276  16.734  17.779   9.897  0.0155  0.2371 -0.0065
    1WF      WF58277  26.773  16.476   8.268  0.0531  0.0040 -0.1168
    1WF      WF58278  24.628   6.942   2.980 -0.1877  0.1204 -0.2137
    1WF      WF58279  21.721  12.070   9.030  0.2235  0.2554 -0.1984
    1WF      WF58280  22.029  28.137   8.680 -0.1431  0.0435 -0.1432
    1WF      WF58281   3.931  23.937   0.348 -0.5863 -0.1757 -0.2674
    1WF      WF58282  22.678  20.285   1.797  0.1510  0.0384 -0.1890
    1WF      WF58283  18.719  11.327   8.991 -0.1740 -0.1517 -0.1464
    1WF      WF58284   7.164   0.095   8.951  0.0125  0.2333 -0.3191
    1WF      WF58285   7.189  13.698   8.846 -0.0398  0.0603 -0.0848
    1WF      WF58286   4.563  25.141   0.098  0.1484 -0.1401  0.0280
    1WF      WF58287  25.426  25.521   0.605 -0.0686 -0.0243 -0.2171
    1WF      WF58288  21.340  25.387   9.572 -0.1595  0.0478 -0.0283
    1WF      WF58289  14.493  28.671   1.266 -0.1183 -0.0309  0.0383
    1WF      WF58290   8.014   1.123   8.867 -0.2129  0.0765  0.1662
    1WF      WF58291  20.228  15.658   9.601 -0.2777 -0.2453  0.1882
    1WF      WF58292  10.515  13.550   0.790 -0.2306 -0.0374 -0.0513
    1WF      WF58293  18.112  16.850   2.486  0.0941 -0.1540 -0.2299
    1WF      WF58294  15.627  17.415   9.729 -0.0990 -0.0260  0.2342
    1WF      WF58295  27.695   3.913   7.665 -0.2231  0.1502 -0.1876
    1WF      WF58296   7.228  21.769   9.726  0.0337 -0.1533 -0.3748
    1WF      WF58297   3.370  14.886   1.866  0.1449  0.1826  0.2146
    1WF      WF58298  15.245  15.833   0.242  0.4367  0.0287  0.2705
    1WF      WF58299  27.997  14.973   8.786 -0.0683  0.0446 -0.0311
    1WF      WF58300  16.677   0.602   0.182  0.2500  0.2609 -0.0539
    1WF      WF58301  23.469  24.961   1.019 -0.0164 -0.0377 -0.3319
    1WF      WF58302  10.461   5.493   9.083 -0.0165  0.4700  0.1324
    1WF      WF58303   1.541   5.982   0.742 -0.0188  0.0168  0.1469
    1WF      WF58304   6.147  19.059   8.985 -0.3143 -0.0709  0.1384
    1WF      WF58305   3.720  11.122   9.286  0.1624  0.0349  0.1045
    1WF      WF58306  23.690  16.062   7.432 -0.0381 -0.2355 -0.0285
    1WF      WF58307  12.726  27.445   9.374  0.1111 -0.0862  0.0475
    1WF      WF58308  25.672  18.307   8.191 -0.0018  0.0439  0.0488
    1WF      WF58309   7.092   1.980   9.527  0.0333 -0.2012  0.1093
    1WF      WF58310   8.568   1.821   9.495 -0.0193 -0.0745  0.0345
    1WF      WF58311  22.256   0.507   7.083  0.1469  0.0515 -0.1430
    1WF      WF58312  21.652  16.141   8.078 -0.2168  0.4690  0.0098
    1WF      WF58313   5.408  21.748   8.238 -0.2135  0.1039  0.0342
    1WF      WF58314   5.452  26.190   0.052 -0.1778  0.3547 -0.2140
    1WF      WF58315  22.507  10.638   0.509 -0.0398  0.4327 -0.3940
    1WF      WF58316  12.856   5.015   0.358  0.2114 -0.2560  0.0379
    1WF      WF58317   2.323   7.329   9.729  0.3679  0.0326 -0.1496
    1WF      WF58318  12.592  27.936   0.182  0.1014 -0.0641  0.2721
    1WF      WF58319  24.713  20.844   8.116 -0.2708  0.1884  0.1399
    1WF      WF58320  15.871  16.122   9.382  0.2730  0.0090  0.5566
    1WF      WF58321  26.632   1.755   9.300  0.0239  0.0351 -0.3291
    1WF      WF58322  25.307  13.653   9.507 -0.2086 -0.3739  0.1517
    1WF      WF58323  10.396   2.761   9.675 -0.1055  0.3700 -0.4596
    1WF      WF58324  12.768  24.668   1.359  0.2931 -0.0795 -0.1089
    1WF      WF58325  15.509  20.094   8.796  0.0657 -0.0259 -0.0168
    1WF      WF58326  22.053   0.173   5.904  0.0111  0.0676  0.0935
    1WF      WF58327   7.589  16.686   1.198  0.0670  0.1677  0.0397
    1WF      WF58328  23.422  10.020   7.610 -0.2749 -0.3417  0.1108
    1WF      WF58329  17.641  11.386   0.853  0.1108  0.0851  0.1061
    1WF      WF58330  17.372  24.802   9.878 -0.3258  0.0734  0.0181
    1WF      WF58331   1.468  17.876   9.245  0.2035 -0.2043  0.2113
    1WF      WF58332   2.939  27.225   8.629  0.1350  0.3578  0.0926
    1WF      WF58333  18.677  20.677   9.402 -0.0287 -0.2918 -0.2040
    1WF      WF58334   0.763  20.497   0.727  0.0150  0.2619  0.2115
    1WF      WF58335  26.542  10.091   8.247 -0.4705  0.0842  0.1552
    1WF      WF58336  18.989   0.636   2.265 -0.2401 -0.3175 -0.2086
    1WF      WF58337  24.180   4.634   0.242  0.1002 -0.1370 -0.0031
    1WF      WF58338  21.565  16.222   9.358 -0.2025  0.1507 -0.0238
    1WF      WF58339   8.639  18.208   7.906 -0.0012  0.2441  0.3061
    1WF      WF58340   0.557  17.699   9.706  0.1241 -0.4180  0.1461
    1WF      WF58341  13.555  22.971   8.955  0.0378  0.0713  0.2062
    1WF      WF58342   5.938  26.900   7.149 -0.0902  0.0810 -0.1034
    1WF      WF58343  25.834  13.680   7.501 -0.2015  0.2326  0.0631
    1WF      WF58344   6.717   6.589   2.124 -0.0857  0.0442 -0.1096
    1WF      WF58345  25.487  17.639   7.529  0.2443 -0.0261  0.1195
    1WF      WF58346  15.157   7.289   9.537  0.0795 -0.3586  0.2243
    1WF      WF58347   5.658  19.459   1.786  0.0267  0.1612  0.1966
    1WF      WF58348   8.454   5.866   2.843 -0.3808 -0.2178 -0.0027
    1WF      WF58349  23.149   1.860   0.081  0.1162 -0.2680 -0.1363
    1WF      WF58350  27.979   3.616   7.385 -0.0812  0.0928 -0.1605
    1WF      WF58351  16.005  20.093   8.954  0.0625 -0.1437 -0.3714
    1WF      WF58352  25.835   4.252   7.498  0.1529  0.0184  0.0293
    1WF      WF58353  12.205  27.291   9.305  0.2683 -0.1541  0.0371
    1WF      WF58354  18.761  17.660   1.210 -0.4158  0.0205  0.1319
    1WF      WF58355   5.734   0.470   1.079  0.0656  0.1369 -0.0396
    1WF      WF58356  20.398   8.868   0.745  0.0529  0.1152  0.1378
    1WF      WF58357   0.557  20.677   7.435 -0.1902 -0.3888  0.0427
    1WF      WF58358  16.210  27.496   9.945 -0.0973 -0.0451  0.2755
    1WF      WF58359  28.276   6.721   7.461 -0.0864  0.0196  0.1414
    1WF      WF58360  10.644  24.023   1.532 -0.2182 -0.1525  0.0212
    1WF      WF58361  19.084   7.616   0.380  0.2227  0.0754  0.0304
    1WF      WF58362  15.042  19.906   9.228 -0.2307 -0.1314  0.1409
    1WF      WF58363   9.497  25.415   2.230 -0.1879  0.0126  0.0600
    1WF      WF58364   0.521  26.679   8.563  0.1020 -0.0609  0.0029
    1WF      WF58365   3.876  17.684   7.123 -0.2247 -0.1468 -0.2088
    1WF      WF58366  16.259   2.808   7.949 -0.3641  0.1246  0.2089
    1WF      WF58367  20.169   5.339   8.763 -0.2406 -0.2390  0.1898
    1WF      WF58368   8.874  13.975   8.745  0.0179  0.0827 -0.0894
    1WF      WF58369   3.994   7.397   0.794  0.0938  0.0409 -0.1608
    1WF      WF58370   2.901  21.566   0.778 -0.0796 -0.2368  0.0276
    1WF      WF58371   7.934   8.073   1.403  0.1839 -0.3635  0.0165
    1WF      WF58372  15.127  24.419   0.681 -0.1057  0.1533  0.4485
    1WF      WF58373   4.876   8.606   7.910 -0.3244 -0.0257 -0.0319
    1WF      WF58374   7.709  17.269   8.968  0.1987  0.0281  0.1343
    1WF      WF58375  24.170  17.321   0.433  0.0210 -0.1221 -0.2074
    1WF      WF58376  25.539  16.153   6.746  0.1037  0.1484 -0.0907
    1WF      WF58377  20.613  18.981   8.809 -0.0715 -0.1153 -0.3064
    1WF      WF58378  14.722   6.432   8.112  0.1057  0.1125 -0.0599
    1WF      WF58379  19.882   9.648   1.818  0.2898 -0.1528 -0.1539
    1WF      WF58380  14.526   3.628   2.163 -0.0505  0.1794  0.1484
    1WF      WF58381  21.533   4.448   1.677 -0.0213  0.1089 -0.2469
    1WF      WF58382   2.274  12.848   9.509 -0.2468  0.1038 -0.1130
    1WF      WF58383  16.215  23.660   6.997 -0.0381 -0.2298 -0.1312
    1WF      WF58384  19.574   9.266   9.349  0.1049  0.0883  0.0820
    1WF      WF58385  20.870  20.991   0.398  0.0562 -0.1334 -0.0090
    1WF      WF58386  23.499   3.782   9.769  0.1711 -0.2278 -0.1183
    1WF      WF58387   1.731  22.456   8.952  0.0220  0.1342 -0.4435
    1WF      WF58388   3.654  25.442   9.445 -0.3438 -0.0245 -0.2620
    1WF      WF58389  26.188  14.913   7.625  0.1761  0.1969 -0.3337
    1WF      WF58390  27.021  19.783   7.981  0.2282 -0.0236 -0.1627
    1WF      WF58391  23.123  28.683   0.460 -0.1502 -0.0318  0.1690
    1WF      WF58392   9.816   9.478   2.069 -0.0537  0.0061  0.2383
    1WF      WF58393  23.959   5.715   0.361  0.0369  0.1359  0.2861
    1WF      WF58394  12.486   6.515   3.907  0.1344  0.0058  0.0810
    1WF      WF58395   4.293   9.012   8.504 -0.0766 -0.0023  0.1810
    1WF      WF58396   2.150  24.139   9.261  0.0010  0.0787  0.0361
    1WF      WF58397   9.054  24.780   7.982  0.3334 -0.0527 -0.2380
    1WF      WF58398   6.477  26.945   9.470 -0.0749 -0.0356 -0.0799
    1WF      WF58399  22.235   9.984   7.692 -0.1115 -0.2994  0.1358
    1WF      WF58400  13.420  25.994   8.696  0.2334 -0.0865  0.3185
    1WF      WF58401   4.173   4.822   1.243 -0.0986  0.0009  0.0551
    1WF      WF58402  21.630  10.917   6.576  0.3041  0.0720  0.0158
    1WF      WF58403   4.526   0.173   0.656  0.1541  0.1634 -0.2243
    1WF      WF58404  14.968  21.656   0.087  0.0997 -0.0993  0.0581
    1WF      WF58405  17.702   8.726   0.849  0.0729  0.0418  0.0559
    1WF      WF58406   3.251   1.567   2.292 -0.0111 -0.1279 -0.0999
    1WF      WF58407  12.563  24.079   6.728 -0.2310 -0.0787 -0.0188
    1WF      WF58408  25.068   1.223   1.361  0.0090 -0.0327  0.2123
    1WF      WF58409  14.777  14.166   8.775 -0.1750 -0.2625 -0.1086
    1WF      WF58410   7.144   1.788   7.863 -0.0511 -0.1173 -0.0060
    1WF      WF58411   1.274   9.537   7.573 -0.0029  0.0615  0.2666
    1WF      WF58412  20.613   7.684   8.286  0.1229  0.1073 -0.0965
    1WF      WF58413  25.658  22.648   1.080  0.0433  0.1166  0.0066
    1WF      WF58414  21.044  18.680   8.815  0.0664 -0.0864 -0.0893
    1WF      WF58415  28.719   1.921   2.099 -0.2191  0.2259  0.0492
    1WF      WF58416  26.431   8.175   8.459  0.0431  0.0156  0.0132
    1WF      WF58417   6.711  14.464   2.015 -0.1556  0.1380  0.1543
    1WF      WF58418  21.466   8.991   1.025  0.1264  0.1992  0.0715
    1WF      WF58419   9.386   5.703   1.057 -0.2735  0.1689 -0.2077
    1WF      WF58420   7.250  20.376   9.500  0.2048  0.0161 -0.0936
    1WF      WF58421   2.323  10.607   6.835 -0.0002  0.0877 -0.0815
    1WF      WF58422  28.419  16.077   1.701 -0.0008 -0.0931  0.1270
    1WF      WF58423  10.682   9.948   8.910  0.0069 -0.3264 -0.0363
    1WF      WF58424   5.847  21.201   9.673  0.0782 -0.1228 -0.2377
    1WF      WF58425  28.555   8.668   1.503  0.3606  0.0781  0.2811
    1WF      WF58426   2.127  22.736   2.524 -0.0583  0.1153 -0.1656
    1WF      WF58427  19.828  20.497   6.959  0.4960 -0.1485  0.3078
    1WF      WF58428  20.329  18.587   1.630 -0.0313  0.3066 -0.3173
    1WF      WF58429  16.896  23.939   2.401 -0.1199  0.0602 -0.0891
    1WF      WF58430  26.415  18.333   8.797  0.0810  0.1815  0.3506
    1WF      WF58431   3.295  16.008   7.053 -0.1006 -0.1605  0.1000
    1WF      WF58432  12.771  11.838   0.122  0.2343 -0.1543  0.1739
    1WF      WF58433  12.515  28.322   9.302  0.1875  0.0992 -0.3255
    1WF      WF58434   9.853  20.033   9.326 -0.0943  0.0057  0.1531
    1WF      WF58435  25.292  12.894   6.231 -0.0815 -0.1071  0.2806
    1WF      WF58436  20.062   2.876   8.266 -0.1685 -0.1256 -0.0013
    1WF      WF58437   6.168  14.648   8.536  0.1790  0.1172  0.0150
    1WF      WF58438  24.850  23.883   0.218  0.3961 -0.2313  0.2578
    1WF      WF58439   5.719   0.961   1.156 -0.1346  0.1112 -0.1091
    1WF      WF58440  16.985  19.529   0.800 -0.3613 -0.2968  0.3116
    1WF      WF58441  18.993  23.048   3.016 -0.0813  0.1089 -0.2408
    1WF      WF58442   9.835  18.077   7.933  0.2665  0.1314 -0.0543
    1WF      WF58443  27.178  25.092   8.946  0.2050 -0.3160 -0.1202
    1WF      WF58444   1.572  23.390   2.750  0.2522  0.1313  0.0588
    1WF      WF58445  10.181  10.355   2.063 -0.1234 -0.0909  0.2286
    1WF      WF58446  23.582   1.760   0.187 -0.1591 -0.0455  0.2021
    1WF      WF58447   2.470   1.685   3.229  0.0855 -0.2104 -0.2727
    1WF      WF58448   3.443   0.460   2.071  0.0132 -0.1834  0.0214
    1WF      WF58449   8.832  10.767   7.165 -0.0916  0.1683  0.0448
    1WF      WF58450   3.043  18.906   9.327  0.2975  0.0916 -0.1037
    1WF      WF58451   5.733  22.460   7.922  0.0518 -0.2193  0.0078
    1WF      WF58452  25.611  24.105   0.074  0.1077 -0.0162  0.1368
    1WF      WF58453  12.331  25.909   8.116 -0.0380  0.2464 -0.2343
    1WF      WF58454  13.538   4.469   9.869  0.2893 -0.2126 -0.3388
    1WF      WF58455   8.876  28.700   1.866 -0.1080  0.4293 -0.2390
    1WF      WF58456  19.831  27.526   0.154 -0.1959 -0.1453 -0.1166
    1WF      WF58457   1.173  12.593   9.048 -0.1056  0.1824 -0.1249
    1WF      WF58458  11.400   2.473   1.837 -0.1995 -0.1203  0.0070
    1WF      WF58459   0.322  19.123   0.955 -0.0062  0.0916 -0.2474
    1WF      WF58460   1.716   4.611   0.508 -0.1765 -0.4052  0.0301
    1WF      WF58461  27.008  23.918   1.270  0.1896 -0.0619  0.0137
    1WF      WF58462  11.138  24.859   0.780 -0.0542  0.2666  0.2210
    1WF      WF58463   8.313   6.998   8.340 -0.3205 -0.2695  0.0960
    1WF      WF58464   6.951  18.732   0.434 -0.4584 -0.1130 -0.0010
    1WF      WF58465  24.107  10.472   0.378 -0.4850 -0.1173 -0.1591
    1WF      WF58466  11.726   2.651   0.025  0.2027 -0.3439 -0.4102
    1WF      WF58467  14.780  15.542   0.413  0.1169  0.0715  0.1381
    1WF      WF58468  22.564  28.481   8.520  0.0266 -0.1343 -0.2720
    1WF      WF58469  25.597   2.756   6.608  0.0094 -0.2300 -0.0991
    1WF      WF58470  16.013   9.541   0.227 -0.1408 -0.1641  0.2552
    1WF      WF58471  17.249  24.604   7.091 -0.1510 -0.1944  0.1848
    1WF      WF58472   1.299   6.528   6.255 -0.0893 -0.0789 -0.2371
    1WF      WF58473  19.170  12.965   0.889 -0.1269  0.3812  0.0015
    1WF      WF58474  13.998  25.379   1.684 -0.1104 -0.0525 -0.1151
    1WF      WF58475  20.115  27.814   8.224  0.0525  0.2874  0.2203
    1WF      WF58476   1.950  18.189   9.077 -0.1362 -0.2794  0.3325
    1WF      WF58477   6.397   9.178   9.340 -0.2940 -0.3432  0.0652
    1WF      WF58478  24.186  21.557   1.615  0.0089  0.0661  0.0223
    1WF      WF58479  18.456   4.230   0.811 -0.1990 -0.2391  0.1680
    1WF      WF58480   8.015  16.073   2.656 -0.2012 -0.0190 -0.1207
    1WF      WF58481  22.165   9.768   9.398 -0.3105  0.3213  0.1881
    1WF      WF58482   6.297   5.277   8.836  0.1368 -0.0012  0.1196
    1WF      WF58483  27.965   9.466   7.899  0.0333  0.0189  0.4109
    1WF      WF58484  24.393  19.596   1.138  0.1218 -0.1288 -0.1291
    1WF      WF58485  16.370  20.080   9.893  0.2426  0.0033 -0.2089
    1WF      WF58486   6.828  21.722   9.304 -0.0371 -0.1248  0.2291
    1WF      WF58487  12.220  17.393   9.041  0.2600  0.2377 -0.1466
    1WF      WF58488   9.704  24.567   8.759  0.1403  0.0790 -0.0924
    1WF      WF58489  23.211  27.890   0.157 -0.3035  0.2335 -0.2937
    1WF      WF58490   9.241   6.540   1.669  0.1287  0.1051 -0.0580
    1WF      WF58491   9.306   0.994   1.722  0.2684  0.0483 -0.3136
    1WF      WF58492   6.045  18.599   7.879  0.5513  0.2926 -0.0052
    1WF      WF58493   9.271  12.551   3.020 -0.1696 -0.0497  0.1233
    1WF      WF58494  28.673  23.356   8.768 -0.1119 -0.0044 -0.1942
    1WF      WF58495  18.616  21.102   8.941  0.1332 -0.0680  0.3207
    1WF      WF58496   1.455  22.826   9.107 -0.0043 -0.2610 -0.1071
    1WF      WF58497  18.037  21.220   1.749 -0.0048  0.3006 -0.0754
    1WF      WF58498  23.555   8.754   1.823 -0.1919  0.0434 -0.0458
    1WF      WF58499   4.460  24.051   0.401 -0.0496 -0.0585  0.3869
    1WF      WF58500  24.922  19.538   1.344  0.0321 -0.0046  0.2155
    1WF      WF58501  23.591   9.328   0.180  0.5412 -0.3709 -0.0155
    1WF      WF58502   6.544  23.618   0.204 -0.3934 -0.0560  0.3793
    1WF      WF58503  14.301   6.569   0.924  0.0594 -0.0747  0.0204
    1WF      WF58504  19.142  13.272   8.154 -0.4612  0.2915  0.3178
    1WF      WF58505   7.437  20.473   8.959  0.1853  0.1236 -0.3907
    1WF      WF58506  16.191  20.282   9.359  0.0043 -0.1598  0.0179
    1WF      WF58507  21.781  25.170   1.514 -0.1639 -0.0533  0.0863
    1WF      WF58508  11.438  23.259   8.507 -0.3870 -0.0645  0.2621
    1WF      WF58509   8.144  25.175   0.538  0.1834  0.0188  0.0734
    1WF      WF58510  26.022   4.264   8.079  0.2235 -0.0019  0.3006
    1WF      WF58511  21.651   7.014   8.782  0.0790 -0.0596  0.0084
    1WF      WF58512  25.748  19.702   0.961 -0.0804  0.1482 -0.0854
    1WF      WF58513  26.902  26.594   1.516  0.0642 -0.0179 -0.3190
    1WF      WF58514  28.505  16.453   5.728  0.0363 -0.2384  0.1410
    1WF      WF58515   9.478  26.236   8.331  0.0928  0.3130  0.0417
    1WF      WF58516   0.110  20.977   7.273 -0.0254  0.0329 -0.0852
    1WF      WF58517  10.393   6.998   0.594 -0.1115  0.4197  0.2628
    1WF      WF58518  25.535  11.300   8.788  0.4227  0.0790 -0.1362
    1WF      WF58519  20.002  20.385   8.361  0.1890  0.2239 -0.0088
    1WF      WF58520   3.227  27.020   9.337 -0.2762 -0.1087  0.1001
    1WF      WF58521  16.607  14.144   0.365 -0.2385  0.3266 -0.0338
    1WF      WF58522   9.861   9.986   2.159  0.3057  0.1339 -0.0395
    1WF      WF58523  25.444   4.369   7.858  0.1941  0.1925 -0.0021
    1WF      WF58524  12.844  27.188   3.702 -0.3031  0.0077  0.0458
    1WF      WF58525   3.764  18.905   7.246 -0.1681 -0.1768  0.2714
    1WF      WF58526  13.712   5.221   2.486  0.0801  0.0558  0.1679
    1WF      WF58527  23.684   6.886   8.767 -0.2061 -0.1970  0.0105
    1WF      WF58528  15.003   8.938   2.452  0.1115  0.2320 -0.2510
    1WF      WF58529  14.931  11.648   0.472 -0.1565 -0.0309  0.1274
    1WF      WF58530   9.180  12.199   8.830 -0.1049 -0.1064  0.1787
    1WF      WF58531  25.122   2.454   8.663 -0.1229  0.1282 -0.1090
    1WF      WF58532  26.152  18.252   1.326 -0.2117  0.1331 -0.2925
    1WF      WF58533   2.335  23.746   9.002 -0.1667  0.0722 -0.0457
    1WF      WF58534  23.141   5.001   9.355 -0.0255 -0.1146  0.1563
    1WF      WF58535  17.402  25.919   9.158  0.1944  0.1587 -0.0092
    1WF      WF58536  20.234   4.719   1.733  0.2959  0.3065  0.1284
    1WF      WF58537   7.134   4.731   9.840 -0.1966  0.0023 -0.0675
    1WF      WF58538   0.988   9.061   8.273  0.1413 -0.0803  0.1771
    1WF      WF58539   9.072  12.917   7.234  0.0747  0.1212 -0.0756
    1WF      WF58540   2.741   9.226   1.875  0.0472 -0.0222  0.1273
    1WF      WF58541  17.643  15.267   0.495 -0.0902  0.1611 -0.0436
    1WF      WF58542   1.745   4.211   2.001  0.0086 -0.2263  0.0926
    1WF      WF58543   7.392  18.219   1.148 -0.5271 -0.1466  0.0529
    1WF      WF58544  22.832   0.179   0.815 -0.2546 -0.2640  0.0157
    1WF      WF58545  26.657  23.527   0.405  0.1157  0.3838 -0.0638
    1WF      WF58546  17.960   9.929   8.097 -0.0628  0.0963 -0.1093
    1WF      WF58547  26.533   5.869   9.007  0.1846 -0.1185  0.1596
    1WF      WF58548  11.999  10.661   8.674 -0.0238 -0.0741  0.0441
    1WF      WF58549   5.297  19.892   0.365  0.0818  0.3105 -0.2615
    1WF      WF58550  11.896  19.656   2.234  0.4294 -0.0696 -0.3700
    1WF      WF58551  17.703  25.051   1.782 -0.2234  0.1877  0.1477
    1WF      WF58552  27.767  12.000   8.466  0.2982 -0.0499  0.1661
    1WF      WF58553  12.744  23.821   9.562  0.1715  0.0231 -0.2265
    1WF      WF58554  27.847   5.806   2.603  0.0754  0.0656 -0.4565
    1WF      WF58555  23.061  17.769   1.567  0.0242  0.1947  0.2590
    1WF      WF58556   1.086  22.478   7.456  0.2375 -0.0922 -0.1781
    1WF      WF58557   4.521   5.394   8.798  0.1409 -0.1144 -0.2904
    1WF      WF58558  10.289   1.433   8.966 -0.1252 -0.0375  0.0925
    1WF      WF58559  13.223  21.240   9.165  0.0197  0.0757  0.0214
    1WF      WF58560   7.843  16.724   9.092 -0.2065 -0.1082  0.0636
    1WF      WF58561   6.723  14.201   6.795  0.0023  0.0669  0.0096
    1WF      WF58562  12.345   1.912   1.255  0.1523 -0.0778 -0.1134
    1WF      WF58563   6.513   9.689   9.559 -0.1448  0.0756 -0.1026
    1WF      WF58564  10.113   3.596   7.080 -0.0876 -0.2407 -0.0657
    1WF      WF58565  13.449  14.866   0.339  0.0889 -0.2851  0.3370
    1WF      WF58566  15.953   3.537   0.686  0.1046 -0.2839 -0.2324
    1WF      WF58567  21.909  17.560   1.547  0.2339  0.1036  0.0657
    1WF      WF58568  25.057   0.730   1.304  0.0360 -0.1382 -0.0707
    1WF      WF58569   3.609  26.923   7.672 -0.2311 -0.0781  0.0708
    1WF      WF58570   5.937  10.758   3.979 -0.1368  0.2327  0.1766
    1WF      WF58571  14.297   5.089   0.759  0.1672 -0.0225 -0.0870
    1WF      WF58572  26.466   3.450   1.710 -0.2309 -0.4219  0.2850
    1WF      WF58573  23.046  20.410   1.410  0.1170  0.2106 -0.2107
    1WF      WF58574   7.793  14.650   0.525  0.0647  0.0460  0.2239
    1WF      WF58575   3.261  12.103   0.355 -0.1618  0.0654 -0.0741
    1WF      WF58576  20.354  28.236   8.043  0.0700  0.0096  0.0192
    1WF      WF58577  19.083  18.569   0.322 -0.4801  0.2289  0.1645
    1WF      WF58578  21.499  23.504   7.681 -0.0287  0.0453  0.0295
    1WF      WF58579  12.028  10.053   8.715 -0.4152 -0.2406 -0.2795
    1WF      WF58580  19.454   6.256   1.390 -0.0003 -0.0186 -0.0202
    1WF      WF58581   4.418   1.914   2.264  0.0246 -0.0964 -0.3251
    1WF      WF58582  19.018  22.156   7.604  0.0516  0.0125  0.3175
    1WF      WF58583   9.254   5.016   0.191  0.2813  0.0685  0.0963
    1WF      WF58584  26.281  21.154   9.066  0.0525 -0.1761 -0.3345
    1WF      WF58585  26.297  15.103   1.294  0.4307 -0.1597  0.2427
    1WF      WF58586  19.178  16.640   9.805 -0.2354 -0.1545  0.1482
    1WF      WF58587  26.672  26.199   6.540 -0.2500  0.1360 -0.3522
    1WF      WF58588   4.339   7.389   0.493  0.2386 -0.1256  0.2245
    1WF      WF58589  18.020   6.234   0.966  0.1654  0.1191  0.1495
    1WF      WF58590   0.169   1.581   1.241 -0.0506  0.2355 -0.0298
    1WF      WF58591  23.237  27.653   8.728 -0.0378  0.0596 -0.0441
    1WF      WF58592  26.666  26.856   1.120 -0.1645  0.0836  0.2561
    1WF      WF58593  10.407  20.938   0.859 -0.1279 -0.1824 -0.0587
    1WF      WF58594  19.647  16.395   0.035 -0.1219  0.2021 -0.0288
    1WF      WF58595  10.647  28.000   1.496  0.0294 -0.0090  0.2011
    1WF      WF58596  10.612   5.011   0.659  0.2071  0.1006 -0.2489
    1WF      WF58597  27.300   5.381   1.159 -0.1969 -0.0923 -0.1490
    1WF      WF58598  16.887   9.957   1.269 -0.2980 -0.0784 -0.2427
    1WF      WF58599  22.091  22.889   1.549  0.0883  0.4513  0.0341
    1WF      WF58600  17.714   2.663   3.664  0.1282 -0.2514 -0.2481
    1WF      WF58601  24.041  21.637   8.253  0.3439  0.1330  0.1312
    1WF      WF58602   2.710   5.932   1.637 -0.2126 -0.1130  0.3831
    1WF      WF58603   6.913   7.825   2.278  0.0352  0.1039 -0.2900
    1WF      WF58604  18.810  20.081   9.351  0.1257  0.2994  0.0071
    1WF      WF58605   3.459  23.459   9.510 -0.0273  0.0000  0.3015
    1WF      WF58606  16.244  22.053   8.142  0.4516  0.0377  0.0069
    1WF      WF58607  14.701  26.032   8.259  0.0326  0.2526  0.0409
    1WF      WF58608  22.437   0.580   0.833  0.3361  0.0475  0.0721
    1WF      WF58609  25.273  14.488   2.915  0.0832  0.2299 -0.1516
    1WF      WF58610   1.069   9.506   1.359  0.0123  0.1781 -0.2953
    1WF      WF58611  22.636  14.092   2.038 -0.2625 -0.1218 -0.0266
    1WF      WF58612  26.779  20.761   2.571  0.1296  0.1253  0.3434
    1WF      WF58613   2.911   9.405   1.367  0.0432 -0.3121 -0.0272
    1WF      WF58614  13.012  17.703   1.389  0.1100  0.0993 -0.0261
    1WF      WF58615   7.001   4.606   7.091 -0.0326 -0.2446  0.2643
    1WF      WF58616   0.868   1.509   0.959  0.3540 -0.0563  0.0324
    1WF      WF58617  16.270   6.224   9.504  0.1481  0.0059 -0.0693
    1WF      WF58618  10.022   5.122   0.636  0.2022 -0.3434  0.0219
    1WF      WF58619  26.621  13.075   9.677 -0.1318 -0.2778  0.1754
    1WF      WF58620   9.889   1.042   9.418 -0.2925 -0.2756  0.1065
    1WF      WF58621   9.892   1.716   3.991 -0.2085 -0.0955 -0.0153
    1WF      WF58622  18.496  17.270   7.327 -0.0223  0.0263  0.0298
    1WF      WF58623   3.854  23.904   1.969 -0.0363 -0.1439  0.2787
    1WF      WF58624  22.786  18.679   9.316 -0.0062 -0.1382 -0.1363
    1WF      WF58625  24.148  16.835   1.966 -0.1488  0.0287 -0.1746
    1WF      WF58626  21.386   9.280   8.058  0.2264 -0.3066  0.2492
    1WF      WF58627  18.256  24.982   1.562  0.2671 -0.4398  0.1307
    1WF      WF58628  12.818  11.322   8.422 -0.0857 -0.2122 -0.2520
    1WF      WF58629   8.803  15.344   8.632  0.3923 -0.0097  0.2261
    1WF      WF58630  23.988  26.650   6.325  0.0329  0.0182 -0.0781
    1WF      WF58631  21.467  20.964   0.181  0.0779  0.3254 -0.0434
    1WF      WF58632  24.764   3.336   7.855  0.0026 -0.0437 -0.0253
    1WF      WF58633  20.999  19.001   8.456 -0.1748 -0.0687 -0.2152
    1WF      WF58634  19.528  24.318   6.416  0.1921 -0.2204 -0.1684
    1WF      WF58635  18.628  18.458   0.671 -0.1149  0.1797 -0.2230
    1WF      WF58636   6.276  11.202   9.224  0.2780 -0.2359 -0.0584
    1WF      WF58637   9.096  11.696   8.842  0.1745 -0.0718 -0.2432
    1WF      WF58638  11.477  21.066   0.374 -0.0935  0.0906 -0.0909
    1WF      WF58639  15.759   5.150   2.507  0.0485 -0.2308 -0.2393
    1WF      WF58640   7.657  16.121   1.005 -0.1839 -0.5660 -0.1884
    1WF      WF58641  28.478  27.296   0.092  0.1640 -0.2040 -0.1308
    1WF      WF58642  10.936  21.528   2.730  0.0734  0.1625 -0.1432
    1WF      WF58643  21.830  22.614   1.165 -0.1613 -0.2084  0.0230
    1WF      WF58644  19.824   2.679   1.325 -0.0029 -0.0840  0.1588
    1WF      WF58645   6.962   1.580   7.385  0.1826 -0.1212 -0.0668
    1WF      WF58646   3.974  22.719   5.411 -0.0997 -0.0480  0.1837
    1WF      WF58647   9.025  19.292   9.015  0.0965  0.2027  0.1687
    1WF      WF58648   2.781  24.855   1.265 -0.0944 -0.1525  0.0234
    1WF      WF58649  22.539  10.051   8.114  0.2293  0.1616  0.0509
    1WF      WF58650  21.630  16.534   2.261 -0.2653 -0.2095 -0.0064
    1WF      WF58651  23.481  12.885   8.453  0.1576  0.1600  0.0865
    1WF      WF58652  18.407   0.931   9.735  0.0834 -0.0990 -0.2390
    1WF      WF58653   3.194  14.010   0.811  0.0808 -0.1766  0.2735
    1WF      WF58654  16.119  26.880   0.459 -0.0360 -0.1183  0.1425
    1WF      WF58655  22.636  18.762   0.156 -0.4008  0.0002 -0.0661
    1WF      WF58656  12.399  15.379   6.818  0.1742  0.0074 -0.3154
    1WF      WF58657  12.531  21.721   1.849 -0.0665 -0.0843 -0.0034
    1WF      WF58658   0.386  22.588   8.003  0.0240 -0.2713 -0.2709
    1WF      WF58659   9.064   6.353   7.346 -0.0900  0.2720 -0.0366
    1WF      WF58660   6.353   8.626   0.921 -0.2395 -0.1982 -0.0768
    1WF      WF58661   3.478  22.496   9.898  0.1133  0.1618 -0.0153
    1WF      WF58662   7.112   5.768   6.909  0.0931 -0.2246  0.3614
    1WF      WF58663  23.523   3.919   7.924  0.0490 -0.0446  0.3009
    1WF      WF58664  10.544  17.056   0.102  0.2287 -0.1474  0.0009
    1WF      WF58665   1.214  17.686   9.668 -0.1335 -0.1331  0.2255
    1WF      WF58666  21.893  16.535   7.857  0.0310  0.2268  0.2093
    1WF      WF58667  25.140  17.697   7.095  0.3443 -0.4703 -0.1334
    1WF      WF58668   8.604   1.417   3.472  0.2738 -0.1507  0.1461
    1WF      WF58669  22.446  23.426   9.595 -0.0564  0.0924 -0.0885
    1WF      WF58670  16.630   4.053   7.733 -0.0459 -0.0373 -0.3530
    1WF      WF58671   2.461  22.167   0.040  0.2091 -0.1602  0.3081
    1WF      WF58672  12.822  19.163   2.651  0.0031 -0.4317  0.0996
    1WF      WF58673  19.217   5.199   0.021  0.0115 -0.0070 -0.2456
    1WF      WF58674  16.749   4.768   9.719 -0.1151 -0.1559 -0.0485
    1WF      WF58675  13.044  12.400   8.921 -0.0012 -0.2823  0.1028
    1WF      WF58676  25.062  14.095   9.513 -0.0536 -0.1619  0.0340
    1WF      WF58677  14.934   6.984   9.199 -0.0930 -0.0176 -0.0839
    1WF      WF58678  15.898  28.332   0.340  0.0250  0.1218  0.2149
    1WF      WF58679   4.097   2.203   1.989  0.1718  0.2235 -0.1697
    1WF      WF58680   5.552   3.084   9.555  0.0047  0.0185  0.1068
    1WF      WF58681   9.003   9.858   1.196 -0.0608  0.0481  0.1320
    1WF      WF58682   6.976   2.439   9.586 -0.0446 -0.1872 -0.0451
    1WF      WF58683   5.866   3.604   2.409  0.0703 -0.0871  0.0367
    1WF      WF58684  19.913  25.586   0.578 -0.1050 -0.0487  0.1989
    1WF      WF58685   9.954  14.664   0.535 -0.2288  0.0729  0.2422
    1WF      WF58686  27.007   6.259   2.895 -0.1586  0.0789 -0.1576
    1WF      WF58687  24.858   2.581   0.400  0.0043 -0.2092  0.3299
    1WF      WF58688   3.106  17.665   8.160  0.0172  0.0881 -0.0206
    1WF      WF58689   3.518  14.444   0.748  0.0353  0.2545 -0.1106
    1WF      WF58690  17.610  10.499   1.019  0.1678 -0.0527  0.2683
    1WF      WF58691   5.286   7.188   8.228  0.4585  0.1095 -0.0068
    1WF      WF58692   1.332  19.792   8.666 -0.0819 -0.1700  0.0731
    1WF      WF58693   4.263  27.038   9.706  0.1658 -0.0897  0.0615
    1WF      WF58694   0.236  12.266   8.693  0.0780  0.3341 -0.0031
    1WF      WF58695  22.419  16.447   2.915  0.1118  0.2960  0.2291
    1WF      WF58696   3.173  28.455   6.316  0.0882  0.0562  0.0642
    1WF      WF58697  13.283   4.902   9.915  0.0694 -0.1989 -0.1981
    1WF      WF58698   8.649  24.588   7.605 -0.0504 -0.1919  0.2056
    1WF      WF58699   4.281  11.423   9.045 -0.2467  0.1205 -0.0139
    1WF      WF58700  25.946  21.206   0.116  0.1029  0.1761  0.2283
    1WF      WF58701   8.701  14.063   8.194  0.2098  0.0228  0.1850
    1WF      WF58702  20.948  13.407   7.220 -0.0436 -0.1664 -0.1334
    1WF      WF58703  15.929  14.935   9.612 -0.0397 -0.0301  0.1046
    1WF      WF58704   4.649  25.262   0.983 -0.0249  0.0147  0.0603
    1WF      WF58705   4.068   1.331   6.474 -0.0442  0.0865 -0.1651
    1WF      WF58706   8.279   9.664   7.128  0.0952 -0.0832  0.0627
    1WF      WF58707  14.886  10.629   9.637  0.0228  0.1725  0.0077
    1WF      WF58708   2.853  25.079   8.681  0.0060  0.0782 -0.1045
    1WF      WF58709  20.486  16.083   9.530  0.1631  0.0019 -0.3254
    1WF      WF58710  26.467   6.698   0.315  0.1225  0.4393 -0.0195
    1WF      WF58711   4.559  13.442   9.015 -0.0798  0.1300  0.1265
    1WF      WF58712   5.184  16.719   8.931 -0.0434 -0.2576 -0.2083
    1WF      WF58713  26.968   1.435   9.115 -0.0700 -0.0168  0.3064
    1WF      WF58714   5.957   3.382   1.915  0.0709  0.1243 -0.2973
    1WF      WF58715   4.456  18.032   9.748  0.2310 -0.0783 -0.1275
    1WF      WF58716   9.420  13.951   8.680 -0.0753 -0.0297  0.0279
    1WF      WF58717  12.228  16.817   0.346 -0.4049  0.0103 -0.2312
    1WF      WF58718   9.475   6.298   7.653  0.3246  0.0234 -0.1831
    1WF      WF58719  16.907  27.084   0.980 -0.2596  0.1425  0.0630
    1WF      WF58720  19.708   5.568   8.786 -0.1423  0.0532 -0.0754
    1WF      WF58721  11.384  20.479   0.245  0.0455 -0.0187 -0.0487
    1WF      WF58722   1.102  25.825   9.432 -0.2463 -0.2344  0.0890
    1WF      WF58723  11.867  14.960   9.645  0.0441  0.0805 -0.2877
    1WF      WF58724  24.714  20.332   8.969 -0.1681  0.0206  0.0921
    1WF      WF58725  19.432  25.498   9.287 -0.1325  0.2460  0.1694
    1WF      WF58726   3.471  25.101   1.043 -0.0065  0.1474  0.2203
    1WF      WF58727  10.468  25.184   8.761  0.0139  0.0534 -0.0784
    1WF      WF58728   7.784  27.588   0.821  0.2459 -0.3071  0.2741
    1WF      WF58729   0.054  22.463   8.349  0.1606  0.0277  0.1175
    1WF      WF58730  12.549  20.639   3.057  0.1460 -0.0606  0.0694
    1WF      WF58731   2.879   7.837   8.662  0.0869  0.0899 -0.0231
    1WF      WF58732  28.449   8.429   8.464 -0.2253 -0.0492 -0.1965
    1WF      WF58733  22.252  14.102   2.331  0.2222 -0.0973  0.1050
    1WF      WF58734  18.579  26.447   9.950  0.3040 -0.1160 -0.0395
    1WF      WF58735  14.827   2.624   1.012  0.1614  0.2778 -0.0056
    1WF      WF58736  25.996  18.336   1.882 -0.0271 -0.0591 -0.1415
    1WF      WF58737  21.247   4.881   1.711  0.0021 -0.0201 -0.2974
    1WF      WF58738  15.629  17.562   9.224 -0.0180  0.2148  0.1051
    1WF      WF58739  26.252   1.875   6.783 -0.0561 -0.0770  0.0950
    1WF      WF58740  25.949  28.419   2.049  0.2988  0.3396  0.1152
    1WF      WF58741   9.463  10.111   1.018 -0.1872  0.2027  0.1190
    1WF      WF58742   0.661  24.925   0.936 -0.1134 -0.1748 -0.1954
    1WF      WF58743   8.505   2.683   8.513 -0.3361  0.0622 -0.2696
    1WF      WF58744  22.533  12.258   2.034 -0.1625 -0.4104  0.3059
    1WF      WF58745  18.209   2.585   9.471 -0.0433  0.0850 -0.0637
    1WF      WF58746   8.840  16.685   9.721  0.1228  0.0881 -0.1053
    1WF      WF58747  25.991  19.801   1.407  0.1330 -0.3449  0.2549
    1WF      WF58748   9.590   2.786   2.999 -0.0529  0.1149  0.2364
    1WF      WF58749  22.011   5.212   9.928  0.1275  0.0386 -0.0041
    1WF      WF58750  16.971  10.469   3.084  0.1593  0.0293  0.1058
    1WF      WF58751  12.405  10.329   8.805 -0.1481  0.3075  0.2568
    1WF      WF58752  26.208   7.815   8.251  0.0959 -0.0303  0.1486
    1WF      WF58753  22.328  27.869   2.630  0.2965 -0.1139 -0.1902
    1WF      WF58754  18.375  21.046   9.409 -0.1458  0.1125  0.1260
    1WF      WF58755  23.680  12.644   2.427  0.1044 -0.3135  0.2397
    1WF      WF58756  15.182   4.980   0.122  0.2156  0.0038 -0.0309
    1WF      WF58757  27.524  18.105   1.217  0.1043  0.3159  0.1049
    1WF      WF58758  13.573   5.674   2.716  0.2101 -0.1277 -0.5644
    1WF      WF58759  11.940   3.525   9.664 -0.1764  0.0265 -0.1135
    1WF      WF58760  15.115  27.366   0.596  0.1218  0.0836 -0.2021
    1WF      WF58761  11.864   4.723   8.916  0.0896 -0.4279  0.0270
    1WF      WF58762  14.775   5.604   9.180  0.2837 -0.1864 -0.5339
    1WF      WF58763   3.265  15.984   7.624 -0.2464 -0.0206 -0.1048
    1WF      WF58764   9.134  13.554   8.799 -0.0373 -0.2238 -0.2170
    1WF      WF58765  19.970   4.868   2.312 -0.0801 -0.1883 -0.3107
    1WF      WF58766  18.818  10.393   0.654 -0.0100  0.2470 -0.0059
    1WF      WF58767  27.331  15.294   7.451 -0.1807 -0.3006  0.1462
    1WF      WF58768  14.513  16.408   8.856  0.1847 -0.1945  0.4140
    1WF      WF58769   9.081  26.044   8.190 -0.0338 -0.1041  0.1986
    1WF      WF58770   2.152   4.070   8.003 -0.2974 -0.2538  0.3265
    1WF      WF58771  15.923  24.529   9.826 -0.0916 -0.1435 -0.2532
    1WF      WF58772   8.684  28.505   0.075  0.0582 -0.3263 -0.1905
    1WF      WF58773   6.738  19.131   7.383 -0.1209  0.1587 -0.0667
    1WF      WF58774  12.317   4.437   7.569  0.0452  0.4219  0.2594
    1WF      WF58775  22.571   2.988   9.376 -0.0005  0.0317  0.0200
    1WF      WF58776   4.222  26.260   2.174  0.0350  0.1668  0.0493
    1WF      WF58777  27.495  15.086   6.654 -0.2365  0.0861  0.0087
    1WF      WF58778   7.818   1.416   3.018  0.2399 -0.2092  0.0629
    1WF      WF58779  21.472  22.782   0.872 -0.3381  0.3366 -0.2447
    1WF      WF58780   3.033   5.592   0.654  0.2397  0.0822  0.2711
    1WF      WF58781  13.164  15.804   1.568  0.3137  0.0454  0.0062
    1WF      WF58782  19.551  22.263   7.740  0.0754  0.0132 -0.0231
    1WF      WF58783  11.609  22.279   0.574 -0.0420 -0.3256  0.0170
    1WF      WF58784  28.374  10.727   7.930  0.1040 -0.2843 -0.0100
    1WF      WF58785  23.423  11.048   1.269 -0.1533  0.1987  0.0702
    1WF      WF58786  25.728  17.960   7.889 -0.1270  0.3515  0.0053
    1WF      WF58787  20.824  23.664   9.140 -0.0959  0.3775 -0.0814
    1WF      WF58788   9.968   2.648   2.732  0.0651  0.1036 -0.0608
    1WF      WF58789   4.446   7.061   3.112  0.1098  0.1027  0.0168
    1WF      WF58790  18.354   6.944   9.526 -0.1933 -0.1589  0.2094
    1WF      WF58791  20.815  11.324   1.766  0.1708 -0.2523  0.0185
    1WF      WF58792  23.704   5.524   0.692  0.1241  0.0486 -0.5121
    1WF      WF58793   1.623  13.977   9.760 -0.0474 -0.1482 -0.1377
    1WF      WF58794   9.316   2.388   3.298 -0.0067  0.1361  0.2831
    1WF      WF58795  27.260   9.323   8.453 -0.2543  0.0411  0.0479
    1WF      WF58796   8.786  22.464   7.871 -0.0209 -0.0956  0.1724
    1WF      WF58797  15.106   6.440   2.339  0.0485 -0.1031  0.0895
    1WF      WF58798   6.471   7.744   1.946  0.1176 -0.2109  0.0441
    1WF      WF58799  26.759  25.219   0.587 -0.0889  0.1051 -0.0715
    1WF      WF58800  18.458  17.068   2.819 -0.1022 -0.0306  0.1543
    1WF      WF58801  22.751   3.827   0.626  0.0369  0.0983  0.1631
    1WF      WF58802  17.215  25.024   1.627 -0.2863 -0.1522 -0.2171
    1WF      WF58803  19.409  21.571   8.766  0.1417 -0.1481  0.0789
    1WF      WF58804  18.533  10.886   9.062  0.1064 -0.0401  0.0827
    1WF      WF58805   0.114  19.224   9.004  0.1986 -0.4724  0.2343
    1WF      WF58806   2.303  24.698   1.049  0.1022 -0.0173 -0.0645
    1WF      WF58807  26.737  15.423   8.752 -0.0089  0.1379 -0.0961
    1WF      WF58808   2.686  10.159   8.437  0.1618 -0.0749  0.0918
    1WF      WF58809  10.288   2.535   1.838 -0.0660  0.3609  0.0230
    1WF      WF58810   0.985  19.776   8.248  0.2779 -0.1398  0.0488
    1WF      WF58811  25.752  16.767   8.371  0.1212 -0.1708 -0.0022
    1WF      WF58812  26.801   3.383   0.444 -0.0937 -0.1182  0.0547
    1WF      WF58813   7.359   3.193   2.916  0.0052  0.1056 -0.0915
    1WF      WF58814  18.509  22.862   2.731  0.0761 -0.0726  0.1782
    1WF      WF58815  28.400   6.078   1.228 -0.1917 -0.1159  0.1228
    1WF      WF58816  23.989  20.220   6.416 -0.2722  0.1534  0.3594
    1WF      WF58817  20.184   5.243   0.150 -0.0723  0.0120  0.1839
    1WF      WF58818  18.583  27.398   2.351 -0.0017  0.2013 -0.0784
    1WF      WF58819  19.805  17.245   8.410  0.0351 -0.3147  0.2732
    1WF      WF58820  23.567  10.847   9.256 -0.0462  0.3633 -0.0830
    1WF      WF58821   1.782   5.878   7.258 -0.2808  0.0885  0.0240
    1WF      WF58822   6.676  15.906   9.548 -0.0344  0.3997 -0.2454
    1WF      WF58823  13.931   7.818   1.854  0.1305 -0.1315  0.0912
    1WF      WF58824  11.974   4.433   9.395 -0.0545  0.0546 -0.3210
    1WF      WF58825  27.850  11.843   9.362  0.1180 -0.0523 -0.0043
    1WF      WF58826  18.877  23.942   2.148  0.1586  0.2047 -0.0545
    1WF      WF58827   0.818  21.032   8.483  0.0452 -0.3152 -0.3116
    1WF      WF58828  25.780   2.890   0.402 -0.1603 -0.3090 -0.0734
    1WF      WF58829  24.401  24.435   8.012  0.1657  0.1932  0.1015
    1WF      WF58830  26.674   7.813   1.165  0.2987  0.1692  0.0934
    1WF      WF58831  22.332  14.264   0.103 -0.0520 -0.3108  0.2136
    1WF      WF58832  11.496  13.014   1.510 -0.0479  0.2065 -0.1842
    1WF      WF58833   8.306  16.623   0.407  0.2518  0.1381 -0.2159
    1WF      WF58834  10.566  16.440   1.047  0.0837 -0.3574 -0.0036
    1WF      WF58835  16.150  15.921   9.839 -0.1047 -0.1013  0.0876
    1WF      WF58836  14.478   5.107   1.389  0.0091 -0.0449 -0.1882
    1WF      WF58837   4.178  17.754   9.408  0.0625 -0.2103  0.0661
    1WF      WF58838  13.013   4.541   4.228 -0.2368 -0.1250  0.1143
    1WF      WF58839   9.798   0.944   1.873  0.1361 -0.0372  0.1831
    1WF      WF58840  14.040  23.842   1.743  0.2079 -0.2602 -0.2363
    1WF      WF58841   2.450   1.019   7.541 -0.0494 -0.0889 -0.1300
    1WF      WF58842  26.156  12.855   9.782  0.1078 -0.1464 -0.3521
    1WF      WF58843  17.979  22.070   8.632  0.1483 -0.0448 -0.1449
    1WF      WF58844  27.343  19.826   1.900 -0.2759 -0.4810 -0.1206
    1WF      WF58845  25.861   4.097   7.036 -0.1352 -0.3147  0.3993
    1WF      WF58846  10.327   4.008   0.037  0.1771  0.3918  0.0699
    1WF      WF58847   8.859  10.886   0.286 -0.3341 -0.1142  0.2600
    1WF      WF58848  12.511  18.587   1.215  0.1587 -0.1052  0.0885
    1WF      WF58849  17.191   1.060   2.161  0.1994 -0.2382 -0.0221
    1WF      WF58850  11.356   8.635   9.421  0.1500 -0.1357  0.0005
    1WF      WF58851  10.317  22.562   9.951  0.1328  0.1412  0.1280
    1WF      WF58852   4.974  11.376   0.065 -0.2064  0.2401 -0.0615
    1WF      WF58853  25.263  27.750   6.734  0.2596 -0.0262  0.1473
    1WF      WF58854  16.319  11.515   8.417 -0.1532  0.4762  0.1399
    1WF      WF58855  22.923  15.906   9.529  0.1133  0.0551  0.1248
    1WF      WF58856  27.166  10.267   0.042  0.0457  0.1069  0.1193
    1WF      WF58857  11.794   1.085   0.263  0.2433  0.2016 -0.0331
    1WF      WF58858   4.233  27.804   0.702  0.1247 -0.0461  0.0246
    1WF      WF58859  21.869   2.559   8.386 -0.0224  0.0481 -0.0006
    1WF      WF58860  15.359  23.411   3.201  0.0573 -0.2650 -0.1978
    1WF      WF58861  28.645  22.176   8.798  0.5305  0.0205 -0.6097
    1WF      WF58862   5.807  25.806   9.943  0.1402  0.0070 -0.1488
    1WF      WF58863  26.341   8.171   1.198  0.3437 -0.0111  0.0117
    1WF      WF58864   6.346  12.178   0.480 -0.3295  0.1152  0.2757
    1WF      WF58865   0.213  27.049   0.081  0.1080 -0.1523 -0.1244
    1WF      WF58866  19.915   6.182   1.617 -0.2303 -0.1119  0.2310
    1WF      WF58867  22.739  21.958   1.808 -0.0441  0.0572  0.3137
    1WF      WF58868   8.466   7.614   1.663 -0.1844  0.0383  0.0521
    1WF      WF58869  19.243  20.724   1.127 -0.1815 -0.2249  0.0850
    1WF      WF58870  12.169   5.996   1.756  0.0737 -0.0954  0.2311
    1WF      WF58871  23.233  15.341   8.938 -0.4269 -0.0565  0.0693
    1WF      WF58872  25.844  11.294   9.531  0.2190 -0.1933  0.0828
    1WF      WF58873  12.584  10.858   1.867 -0.0701  0.1180  0.3142
    1WF      WF58874   9.819  21.444   7.418  0.0924 -0.3240  0.0889
    1WF      WF58875  17.306   5.979   8.688  0.1849 -0.0099  0.0034
    1WF      WF58876  10.810   7.225   7.653 -0.3522  0.0011  0.1815
    1WF      WF58877  25.446   4.902   0.914  0.0906  0.0134  0.0288
    1WF      WF58878  13.967  15.680   8.569  0.0359  0.1527 -0.0075
    1WF      WF58879  15.434  19.017   0.757 -0.0168  0.3121  0.1245
    1WF      WF58880  16.312   7.817   8.438 -0.0583  0.1397  0.0822
    1WF      WF58881  20.323  18.055   0.553 -0.0049  0.2505 -0.2835
    1WF      WF58882  25.334   7.237   0.697  0.2485  0.1245  0.1750
    1WF      WF58883  11.734  27.711   1.044  0.0711 -0.3013  0.1625
    1WF      WF58884   6.126  21.799   1.934  0.0522 -0.1639  0.0329
    1WF      WF58885   5.571  10.251   0.762 -0.0604  0.0619  0.0779
    1WF      WF58886  23.084  22.214   9.627  0.0894 -0.0434 -0.2127
    1WF      WF58887   9.715   6.451   9.232  0.2310  0.0677 -0.2058
    1WF      WF58888  27.229  26.875   1.322  0.1699 -0.0925  0.2959
    1WF      WF58889  16.240   7.474   0.461  0.0197 -0.1140  0.0317
    1WF      WF58890  26.985  15.404   8.285  0.1400  0.2655 -0.0469
    1WF      WF58891  12.207   0.107   0.654  0.1666 -0.1150 -0.0555
    1WF      WF58892   4.667  14.379   9.103 -0.0552  0.1887 -0.3427
    1WF      WF58893  26.776   0.294   2.625  0.0259 -0.3689 -0.4931
    1WF      WF58894  15.339   8.751   9.665 -0.0801 -0.3430  0.2166
    1WF      WF58895   2.879   4.834   1.889  0.3505 -0.0009 -0.1915
    1WF      WF58896  26.056  22.785   0.816 -0.3070  0.1507  0.0141
    1WF      WF58897  16.048  26.411   0.201 -0.0084 -0.0590  0.0943
    1WF      WF58898  16.653  14.193   9.791  0.1725  0.0579 -0.2728
    1WF      WF58899  12.308   3.944   7.427  0.1147  0.1106 -0.0756
    1WF      WF58900   7.666  22.979   9.375 -0.0421  0.2265 -0.0914
    1WF      WF58901  21.557  12.107   0.027  0.1097  0.0172  0.0139
    1WF      WF58902  14.319  11.676   3.296  0.0127  0.1497 -0.0931
    1WF      WF58903  18.990  13.259   1.882 -0.0371 -0.0697  0.1127
    1WF      WF58904   6.299   6.456   2.288 -0.2966 -0.3371  0.1131
    1WF      WF58905  17.162   0.922   3.915  0.0144  0.3156 -0.2112
    1WF      WF58906  21.701  20.873   2.641  0.1754  0.1333  0.3273
    1WF      WF58907   8.521  20.287   1.130  0.1469  0.1479 -0.1101
    1WF      WF58908  20.862  19.263   8.059 -0.0191  0.1205 -0.2086
    1WF      WF58909   1.247  14.698   8.631  0.0364 -0.0072 -0.1559
    1WF      WF58910  24.896  20.387   8.494  0.1477 -0.1386  0.0341
    1WF      WF58911  24.698  20.011   9.344  0.0017 -0.1305 -0.2069
    1WF      WF58912  22.842  15.581   9.189  0.2327 -0.1225  0.0858
    1WF      WF58913  27.779   3.728   9.687 -0.0729 -0.0928 -0.0802
    1WF      WF58914   7.353   7.346   8.536 -0.1532  0.1825  0.1334
    1WF      WF58915  15.032  13.021   0.301 -0.0112  0.2851 -0.1966
    1WF      WF58916  26.642  12.733   0.139 -0.2745 -0.0638 -0.1952
    1WF      WF58917   4.266  11.279   7.252  0.0430  0.1877 -0.2156
    1WF      WF58918  28.365  17.999   0.893  0.0902  0.0670 -0.3018
    1WF      WF58919  13.730   4.085   9.411 -0.0712 -0.0567 -0.0489
    1WF      WF58920  24.920  13.838   6.884 -0.0510 -0.1056 -0.2377
    1WF      WF58921  11.334  20.198   7.527  0.1503 -0.0551  0.0171
    1WF      WF58922  28.219  11.688   0.829  0.0030  0.2411 -0.2786
    1WF      WF58923  21.736  12.131   8.547 -0.1197  0.4798  0.0532
    1WF      WF58924   5.579  17.726   8.280  0.1962 -0.0079  0.0067
    1WF      WF58925  18.641   7.622   0.827 -0.0354  0.0961  0.1078
    1WF      WF58926  24.903  18.773   9.434  0.3241  0.0003 -0.0005
    1WF      WF58927  24.413  22.034   8.463  0.1867 -0.0576 -0.0010
    1WF      WF58928   6.458  26.562   1.900 -0.3026  0.2127 -0.0733
    1WF      WF58929  18.679  11.016   8.631 -0.0631  0.1402  0.0610
    1WF      WF58930  20.926  21.340   8.711 -0.0275  0.0030  0.2423
    1WF      WF58931   9.984   6.659   2.212  0.1193  0.2403 -0.1432
    1WF      WF58932  17.835   8.491   1.303 -0.0821  0.1546 -0.1422
    1WF      WF58933  10.177   8.628   2.055  0.1001  0.1336  0.1859
    1WF      WF58934  27.125   9.796   8.387  0.1762  0.1542 -0.1514
    1WF      WF58935   0.691  23.313   9.441 -0.0759  0.2060  0.1743
    1WF      WF58936   2.970   9.731   8.389 -0.2090 -0.2690 -0.0268
    1WF      WF58937  14.451  11.654   8.263  0.2525 -0.0831  0.2962
    1WF      WF58938  24.922  25.872   8.788 -0.1136  0.0767  0.0385
    1WF      WF58939  14.138  25.323   0.483 -0.2326 -0.0498 -0.1405
    1WF      WF58940   9.032  18.149   8.933  0.3479  0.1099 -0.1671
    1WF      WF58941  13.680   8.660   9.279  0.1701  0.1269  0.2321
    1WF      WF58942   6.059   5.303   8.392  0.1072 -0.0617 -0.0084
    1WF      WF58943  26.872  24.854   8.547 -0.1788  0.0583 -0.0489
    1WF      WF58944   6.343  10.094   7.799 -0.1937  0.1485 -0.0942
    1WF      WF58945  13.201  10.957   0.392 -0.0512 -0.1745  0.2296
    1WF      WF58946  20.426   4.898   1.218  0.3192  0.4362 -0.0500
    1WF      WF58947   5.315  11.255   2.502  0.0993  0.0096 -0.3160
    1WF      WF58948  25.843   1.153   0.475  0.0417 -0.0180 -0.1442
    1WF      WF58949  26.862   9.530   8.770  0.0606  0.2711 -0.0320
    1WF      WF58950  11.183   6.919   1.336 -0.0384  0.2460  0.3342
    1WF      WF58951  12.557   1.359   1.013 -0.1499  0.3847  0.0042
    1WF      WF58952  10.113   6.660   0.284 -0.1801 -0.0805  0.3491
    1WF      WF58953  25.507   3.063   2.306 -0.1056  0.1081 -0.1095
    1WF      WF58954  11.526  27.953   0.646  0.0604  0.2042  0.1549
    1WF      WF58955  28.661  20.562   5.977 -0.0187  0.1590 -0.0842
    1WF      WF58956  11.181   8.803   8.986  0.2239  0.0015  0.0265
    1WF      WF58957  20.161   8.788   8.452  0.0961  0.0888  0.2776
    1WF      WF58958  28.245  13.306   9.903 -0.3236  0.1319  0.3342
    1WF      WF58959  17.890  24.863   9.870 -0.0562 -0.0881 -0.0967
    1WF      WF58960  20.067  21.371   1.901  0.1184  0.0865  0.1340
    1WF      WF58961   1.197  15.684   7.597 -0.0590  0.0419 -0.3675
    1WF      WF58962  17.733  20.084   3.035 -0.2312  0.1094  0.1606
    1WF      WF58963  27.305   2.197   1.637  0.1179 -0.0106  0.1208
    1WF      WF58964  10.180   6.713   8.673  0.0683 -0.0918  0.1512
    1WF      WF58965   6.181   3.689   1.045 -0.0727  0.1141  0.2228
    1WF      WF58966   2.800   2.667   3.086  0.0571  0.1907 -0.3167
    1WF      WF58967  21.297  15.338   9.278  0.1989 -0.0884 -0.1041
    1WF      WF58968  12.827   5.894   9.820  0.1467  0.3112 -0.0568
    1WF      WF58969  26.528  20.088   8.496  0.0727 -0.2500 -0.0298
    1WF      WF58970  13.584   0.026   8.729  0.0376  0.0505  0.0510
    1WF      WF58971  14.756  24.986   9.203 -0.0821  0.0220 -0.1205
    1WF      WF58972   0.314  17.581   7.416 -0.1756  0.4910  0.1609
    1WF      WF58973  14.643   6.642   2.173 -0.0895  0.0703 -0.1709
    1WF      WF58974  22.189  11.959   8.271 -0.2010 -0.2582  0.0037
    1WF      WF58975   0.599  18.437   7.588  0.1864  0.1036 -0.1563
    1WF      WF58976  13.819   9.100   1.911 -0.1037  0.0175 -0.0432
    1WF      WF58977   9.514   7.938   2.183 -0.0725 -0.2834 -0.1290
    1WF      WF58978   7.933   8.476   1.853  0.0520  0.0909  0.0878
    1WF      WF58979   7.680  28.161   9.386  0.2811 -0.0772 -0.1224
    1WF      WF58980   0.346  25.893   7.431 -0.1297 -0.0408 -0.3448
    1WF      WF58981  13.266  26.157   0.529 -0.2259  0.1534 -0.2381
    1WF      WF58982  14.253   7.003   3.481 -0.2206 -0.0474 -0.2643
    1WF      WF58983   4.666   1.512   1.958  0.1439  0.4032  0.0825
    1WF      WF58984   4.946   3.580   0.817  0.1796  0.1613  0.0873
    1WF      WF58985  18.628  18.754   0.270  0.0790  0.2806 -0.0189
    1WF      WF58986   5.804  25.713   8.374 -0.0124  0.1943 -0.1359
    1WF      WF58987   5.409   1.802   0.599 -0.1226 -0.0472 -0.0977
    1WF      WF58988   4.257   1.263   7.186 -0.0070  0.1626  0.1476
    1WF      WF58989  24.952   4.969   0.634  0.1321  0.0724 -0.2405
    1WF      WF58990  28.672   2.131   8.174 -0.0409 -0.1050 -0.2991
    1WF      WF58991  27.350  26.137   9.523  0.0563  0.1910  0.0252
    1WF      WF58992  24.942   7.708   7.585  0.3902  0.1679 -0.0147
    1WF      WF58993  23.675  19.315   7.403  0.0109 -0.0877 -0.2693
    1WF      WF58994   1.630  11.662   7.358 -0.0258 -0.1458  0.0732
    1WF      WF58995   2.861  23.558   2.083 -0.0513 -0.2419 -0.0523
    1WF      WF58996  27.483  13.244   7.809 -0.2266  0.0167 -0.0093
    1WF      WF58997   2.113  27.023   0.097  0.1425  0.4537  0.1228
    1WF      WF58998  10.842  24.285   8.256  0.1922  0.2077  0.1650
    1WF      WF58999   1.047   3.155   2.084 -0.0009 -0.0526  0.1859
    1WF      WF59000   6.594   1.801   7.667  0.0215  0.0270  0.1974
    1WF      WF59001  12.070   1.753   9.269 -0.3829 -0.0958  0.0517
    1WF      WF59002  24.396  23.964   8.419  0.1500 -0.0465  0.2025
    1WF      WF59003   0.628  15.819   0.079 -0.0544 -0.0849 -0.0726
    1WF      WF59004  14.716   3.725   1.654 -0.1105 -0.0474  0.2082
    1WF      WF59005  21.675  16.318   1.816 -0.1323  0.0279  0.0493
    1WF      WF59006  25.950  17.768   2.891  0.0465 -0.1184 -0.1072
    1WF      WF59007  19.610   2.566   6.537  0.0591 -0.0021 -0.0771
    1WF      WF59008  13.490  21.394   8.774  0.0520 -0.0047 -0.2290
    1WF      WF59009   2.294   6.894   7.501  0.0994  0.0105 -0.1324
    1WF      WF59010   3.650  24.445   7.514  0.2077 -0.4950 -0.1293
    1WF      WF59011  23.910  15.671   7.622 -0.0090  0.0916  0.1974
    1WF      WF59012  23.234   4.199   7.653  0.2097 -0.0984  0.0388
    1WF      WF59013   1.094   2.885   1.627  0.1274  0.0473 -0.1679
    1WF      WF59014  20.564  18.445   8.985 -0.0593  0.1221  0.1080
    1WF      WF59015  26.578   3.437   8.637  0.3112 -0.1364  0.1100
    1WF      WF59016  16.153  22.385   0.432 -0.0848 -0.0626 -0.3206
    1WF      WF59017  28.084  19.095   1.709  0.3050 -0.0929 -0.1252
    1WF      WF59018   2.747  27.543   7.732 -0.3032 -0.0194 -0.3311
    1WF      WF59019   5.166  23.955   7.284  0.1154  0.1096  0.1074
    1WF      WF59020  15.892   0.942   0.358 -0.1713 -0.1506  0.2014
    1WF      WF59021   4.214   4.771   8.033  0.2240 -0.5541  0.0305
    1WF      WF59022  16.848  20.738   0.607 -0.2581  0.1662 -0.0330
    1WF      WF59023  20.763  13.752   8.251  0.0518 -0.0912 -0.1706
    1WF      WF59024  15.622  14.426   0.956  0.0204 -0.3443  0.0504
    1WF      WF59025  20.755  16.618   9.134 -0.0330  0.3584  0.1780
    1WF      WF59026  27.950  21.835   0.892 -0.1405  0.1599 -0.1818
    1WF      WF59027  10.719   8.471   0.468 -0.1416  0.1028 -0.1014
    1WF      WF59028  22.233   2.536   7.779 -0.2640 -0.1444 -0.1182
    1WF      WF59029   4.199  21.965   8.396 -0.1103 -0.0729 -0.1574
    1WF      WF59030  22.354   5.593   2.742  0.1622  0.0725 -0.0397
    1WF      WF59031  19.180   0.771   8.660 -0.0576  0.0513  0.1842
    1WF      WF59032   0.373  20.987   0.794 -0.1820 -0.2067  0.1679
    1WF      WF59033  23.786  11.269   0.939  0.1388 -0.0579 -0.1530
    1WF      WF59034  26.094  21.652   8.537  0.3539  0.1349  0.0254
    1WF      WF59035   4.975  18.067   9.922 -0.1648  0.2058 -0.3030
    1WF      WF59036  23.272  15.937   0.729  0.0163 -0.0973  0.0851
    1WF      WF59037  10.689  13.017   8.832 -0.1846 -0.5080 -0.0189
    1WF      WF59038  14.875  17.362   8.613 -0.1030  0.3871 -0.2559
    1WF      WF59039  11.483   4.779   0.800 -0.0232 -0.0093 -0.3494
    1WF      WF59040   7.955   6.667   8.418 -0.2897 -0.0135  0.0874
    1WF      WF59041  20.383  17.931   1.030  0.0788 -0.1974  0.1032
    1WF      WF59042  23.927  14.914   2.598  0.0738  0.2184  0.1471
    1WF      WF59043  23.165  18.524   3.071  0.0622  0.2728  0.4275
    1WF      WF59044  10.307  27.806   8.768  0.0241 -0.1005  0.0558
    1WF      WF59045  28.012  11.368   9.276  0.0459 -0.3563 -0.4718
    1WF      WF59046  23.809  26.647   9.352  0.0828  0.0262 -0.0758
    1WF      WF59047  25.907   3.258   8.816  0.0527  0.0060 -0.1240
    1WF      WF59048  10.413  17.484   0.978  0.0259 -0.0068 -0.2255
    1WF      WF59049  15.144   4.083   1.717  0.2198  0.0323 -0.0513
    1WF      WF59050   6.608  11.361   1.789 -0.0616 -0.0128 -0.1012
    1WF      WF59051   5.769   3.923   2.013 -0.0329 -0.0988 -0.2190
    1WF      WF59052  16.048   6.258   8.990 -0.2169  0.0170 -0.0645
    1WF      WF59053  11.914  25.408   8.994  0.0801  0.0432  0.0537
    1WF      WF59054  10.866  18.827   1.314 -0.2001 -0.0054 -0.0297
    1WF      WF59055   1.576   9.870   7.226 -0.0315 -0.0772 -0.2725
    1WF      WF59056  28.201  11.367   1.275 -0.3027  0.2135  0.3617
    1WF      WF59057   3.548  26.697   9.165  0.0762 -0.2924  0.1870
    1WF      WF59058  12.611  23.606   9.079  0.1380  0.0113  0.1690
    1WF      WF59059  18.157  16.208   1.622 -0.0975 -0.1835  0.0389
    1WF      WF59060   9.579   6.714   0.252  0.0580 -0.2451 -0.2264
    1WF      WF59061  17.162  20.853   9.277 -0.1624 -0.0835 -0.0081
    1WF      WF59062  16.151   1.797   8.634 -0.1047  0.1023 -0.0311
    1WF      WF59063   1.584  12.858   8.746  0.4034  0.0582  0.0710
    1WF      WF59064  17.582   4.569   9.458  0.0393  0.2407 -0.0065
    1WF      WF59065  22.988   0.306   8.716  0.2198  0.0857  0.0028
    1WF      WF59066   9.754   8.712   7.731  0.1246 -0.1333  0.1223
    1WF      WF59067  28.491  12.460   1.399 -0.0764  0.0807 -0.2253
    1WF      WF59068  20.153  11.882   1.358  0.4171  0.0477  0.0835
    1WF      WF59069  27.151  26.115   1.551 -0.0387 -0.1498  0.1225
    1WF      WF59070  12.019   3.965   9.507  0.3174 -0.1565  0.2291
    1WF      WF59071  13.018  21.798   1.999  0.1620 -0.0131  0.1907
    1WF      WF59072  21.848  22.781   2.911 -0.2599 -0.1264 -0.1019
    1WF      WF59073  10.090  17.250   8.531  0.2742 -0.2252 -0.0105
    1WF      WF59074   0.613  25.765   0.567 -0.0084  0.0994 -0.0702
    1WF      WF59075   6.003   7.675   1.719 -0.1522  0.3243 -0.2255
    1WF      WF59076  14.986  20.621   9.871 -0.2763 -0.2133 -0.2977
    1WF      WF59077  25.895  11.476   9.043 -0.2487 -0.3096  0.3220
    1WF      WF59078   2.220  24.570   9.551 -0.2251 -0.1673  0.2150
    1WF      WF59079   2.775  23.749   7.821  0.1370  0.0962 -0.3090
    1WF      WF59080  24.798  18.226   2.343 -0.0692 -0.1172  0.2897
    1WF      WF59081  18.945  25.614   8.076  0.0309  0.1910  0.1232
    1WF      WF59082  13.434  25.577   9.035 -0.1098  0.0876  0.1672
    1WF      WF59083   3.295  11.213   9.653 -0.3837  0.1019  0.1203
    1WF      WF59084  22.094  17.139   8.975  0.2530 -0.0779  0.1943
    1WF      WF59085  20.657  13.885   1.029  0.0562  0.0434  0.1906
    1WF      WF59086   6.691   9.247   6.933 -0.0651  0.4822  0.1460
    1WF      WF59087  19.582  22.183   1.647  0.3056 -0.0852 -0.0867
    1WF      WF59088  10.832   2.669   1.778  0.4427  0.1058 -0.0462
    1WF      WF59089  14.197   8.689   9.039  0.0111  0.0854 -0.2850
    1WF      WF59090  10.973  24.049   8.631  0.2340  0.0129  0.1908
    1WF      WF59091  19.069  28.135   6.663 -0.0982  0.4207  0.1521
    1WF      WF59092  25.415   0.277   1.467  0.0562  0.2471  0.2865
    1WF      WF59093  17.076   5.386   0.024 -0.0283 -0.1282  0.2746
    1WF      WF59094   3.938  25.274   2.392  0.0204 -0.0107  0.2286
    1WF      WF59095  18.573  28.394   0.501 -0.1346 -0.2829 -0.1721
    1WF      WF59096  16.441  11.721   9.732 -0.0576 -0.0436  0.2117
    1WF      WF59097   8.144  22.402   8.301 -0.0003 -0.1406  0.0552
    1WF      WF59098   8.732   0.525   9.419  0.0257  0.1967  0.0203
    1WF      WF59099  18.440  24.135   9.493  0.0536  0.1861 -0.2119
    1WF      WF59100  17.297  22.710   0.270  0.2684  0.2644 -0.2695
    1WF      WF59101   8.882  13.986   1.221  0.1696  0.1399  0.1091
    1WF      WF59102  15.511   8.901   1.370  0.0096  0.3267 -0.0264
    1WF      WF59103  13.307  14.031   0.928  0.0499  0.1091  0.3330
    1WF      WF59104  19.455   0.439   8.958 -0.1035 -0.2905  0.2162
    1WF      WF59105   6.414  18.777   7.488  0.1064 -0.1026  0.0992
    1WF      WF59106  24.762  27.443   8.703  0.0074  0.3025 -0.1663
    1WF      WF59107  25.341  10.199   8.916 -0.2369  0.1738 -0.1661
    1WF      WF59108  15.999  21.137   1.275 -0.2933 -0.0387  0.0610
    1WF      WF59109  25.406  27.591   9.744 -0.1670  0.2775 -0.4758
    1WF      WF59110  23.085  25.587   0.985 -0.5900 -0.1429 -0.3880
    1WF      WF59111  16.720  14.282   0.867  0.1812  0.1164  0.3137
    1WF      WF59112  25.079  25.946   9.395 -0.0055 -0.3290  0.0974
    1WF      WF59113   0.328  10.113   2.654 -0.1249 -0.1390  0.1322
    1WF      WF59114  24.339  21.254   7.844 -0.0130  0.3212  0.3488
    1WF      WF59115  22.443   0.904   7.837 -0.0069 -0.4625 -0.0058
    1WF      WF59116  22.497  23.030   1.811  0.1703 -0.1797  0.2310
    1WF      WF59117   0.010  15.738   1.289  0.3427 -0.1338  0.2289
    1WF      WF59118  12.009  15.931   9.027  0.0652  0.1821  0.1297
    1WF      WF59119   5.910   5.299   1.477 -0.0582  0.0849 -0.0272
    1WF      WF59120  10.198  11.746   0.536 -0.4796 -0.0592 -0.0329
    1WF      WF59121   2.839  15.510   5.991 -0.0549 -0.1553 -0.0073
    1WF      WF59122   4.715   4.710   1.242 -0.1590 -0.0460  0.0910
    1WF      WF59123   4.316  10.237   1.212 -0.1341  0.0685 -0.1681
    1WF      WF59124  20.064  18.234   3.238 -0.2930 -0.1647 -0.2839
    1WF      WF59125  28.710  10.383   8.075 -0.1506  0.1068 -0.2283
    1WF      WF59126   8.697   9.933   0.089  0.0291 -0.2778 -0.0936
    1WF      WF59127   7.021  11.487   9.100 -0.2203 -0.3306 -0.0349
    1WF      WF59128   6.214  23.326   7.776  0.1006  0.1513 -0.0338
    1WF      WF59129  17.566  26.792   9.922  0.0811  0.2365  0.0015
    1WF      WF59130  23.475   9.003   1.396  0.1698 -0.0236  0.2927
    1WF      WF59131  20.547  13.106   7.106  0.2787  0.1502 -0.2223
    1WF      WF59132   3.189  18.203   1.494 -0.0716  0.0457 -0.1152
    1WF      WF59133   0.450  18.796   7.927  0.2498 -0.1362  0.2615
    1WF      WF59134   3.296  13.395   8.122 -0.0061 -0.1541 -0.0382
    1WF      WF59135  19.074   7.851   0.890 -0.0084 -0.0316  0.2785
    1WF      WF59136   0.788  12.883   9.193  0.1384  0.0325  0.1903
    1WF      WF59137   0.601  24.550   7.600 -0.2466 -0.0799 -0.0519
    1WF      WF59138  14.168  15.812   9.531 -0.1818 -0.3533  0.2938
    1WF      WF59139  14.001   3.572   2.476  0.2190  0.1066  0.2844
    1WF      WF59140  19.489  25.998   9.536  0.3824  0.0995  0.2704
    1WF      WF59141  26.188  21.161   0.574 -0.0101  0.0380  0.1088
    1WF      WF59142  16.182   5.781   9.317 -0.0392  0.2378  0.3012
    1WF      WF59143  24.187  10.168   9.016 -0.1081 -0.0184 -0.1583
    1WF      WF59144  23.121   8.402   8.281  0.1510  0.3297 -0.2163
    1WF      WF59145   7.105  25.713   0.097 -0.0824  0.1644  0.1223
    1WF      WF59146  10.631  17.274   0.522 -0.3008 -0.1417 -0.0980
    1WF      WF59147  21.966   9.085   0.894 -0.1258  0.1960  0.2690
    1WF      WF59148   6.462  11.300   1.305 -0.0440 -0.1763  0.0588
    1WF      WF59149  11.436  16.317   8.977  0.0832  0.3021 -0.2407
    1WF      WF59150   2.598  25.321   2.024  0.0132  0.1924  0.3499
    1WF      WF59151  15.506  17.995   1.212  0.0781 -0.0412  0.0930
    1WF      WF59152  11.065  15.823   0.841  0.1776  0.5543  0.1569
    1WF      WF59153  18.727  10.561   8.567  0.0809 -0.0377 -0.3724
    1WF      WF59154  17.214   7.979   0.102 -0.0287  0.2707  0.3375
    1WF      WF59155  14.416  17.641   2.479  0.0773 -0.0170 -0.1258
    1WF      WF59156  26.667   8.335   5.792  0.2841  0.2463 -0.0921
    1WF      WF59157  12.383   7.715   0.581  0.1845 -0.0188 -0.0103
    1WF      WF59158  11.831  21.823   0.629  0.3091  0.0598  0.4580
    1WF      WF59159  14.383   8.017   1.767 -0.2136 -0.0220 -0.3373
    1WF      WF59160   9.088  17.969   0.361 -0.3648  0.2537  0.0297
    1WF      WF59161  24.393  24.050   9.710  0.1336 -0.4739 -0.0559
    1WF      WF59162  25.972  21.092   1.286 -0.0130 -0.3354 -0.0416
    1WF      WF59163  19.124  24.773   8.820  0.6507  0.0757  0.1085
    1WF      WF59164   5.153   2.009   0.251 -0.2721 -0.2038 -0.1186
    1WF      WF59165  14.000  15.871   1.459 -0.1030 -0.0510 -0.0046
    1WF      WF59166  18.955  20.426   9.767  0.0155  0.1470  0.0632
    1WF      WF59167  15.134  11.471   2.229 -0.2467  0.0016  0.0090
    1WF      WF59168  13.778  25.958   9.062  0.1603 -0.1923  0.1601
    1WF      WF59169   2.663   4.705   1.411 -0.1315 -0.0733  0.1236
    1WF      WF59170  13.636  20.226   9.889 -0.0464  0.0620  0.0322
    1WF      WF59171  23.173   4.887   2.515  0.0584 -0.2293  0.1509
    1WF      WF59172  22.889   7.699   9.431 -0.2800  0.0665 -0.1440
    1WF      WF59173  21.477  15.118   9.661  0.0888  0.0053 -0.1034
    1WF      WF59174  11.046  27.043   3.279  0.0930 -0.1784  0.2588
    1WF      WF59175   2.086  21.027   8.682  0.2203 -0.2229  0.1442
    1WF      WF59176  25.479  15.424   9.136  0.0671  0.2304  0.0199
    1WF      WF59177  23.239  21.195   8.064  0.4201 -0.1691  0.1715
    1WF      WF59178  20.997  16.991   8.767 -0.2115 -0.1463  0.1860
    1WF      WF59179  15.498  15.437   0.065  0.0687  0.4203 -0.0770
    1WF      WF59180   3.705  19.371   8.820  0.1658  0.0836  0.3710
    1WF      WF59181   1.428  22.804   7.697 -0.0483  0.0784 -0.2513
    1WF      WF59182   3.399   6.565   1.927 -0.0411  0.1194  0.2126
    1WF      WF59183  20.423  10.419   9.876  0.0884  0.2085  0.2521
    1WF      WF59184  21.015   9.673   9.904 -0.0311  0.2440 -0.0227
    1WF      WF59185  22.885   7.869   0.733  0.2606  0.3314 -0.1553
    1WF      WF59186  24.763   7.368   9.618  0.1097 -0.0242 -0.1378
    1WF      WF59187  16.935   0.202   0.388  0.5477  0.2949  0.1129
    1WF      WF59188   1.489  19.764   1.650  0.1748  0.0293  0.1488
    1WF      WF59189  23.367  22.404   0.751 -0.1426 -0.0740 -0.2495
    1WF      WF59190  11.220  17.657   8.449  0.1499  0.0378  0.2092
    1WF      WF59191  14.297   2.133   9.048  0.1910 -0.1204  0.1830
    1WF      WF59192  15.148   5.070   4.270 -0.2195  0.1097 -0.1621
    1WF      WF59193  22.546   9.166   9.391 -0.2002 -0.0231 -0.3540
    1WF      WF59194  19.624   8.778   9.045 -0.2175 -0.1937 -0.2744
    1WF      WF59195   8.700  28.714   9.607  0.0424 -0.2407 -0.1538
    1WF      WF59196  20.414  24.524   3.576 -0.0848 -0.0305 -0.4203
    1WF      WF59197  20.472  23.021   1.561  0.1583  0.0162 -0.1884
    1WF      WF59198  28.129   3.028   0.692  0.0045 -0.1501 -0.0337
    1WF      WF59199   3.936  28.179   2.775 -0.3527  0.0013  0.2802
    1WF      WF59200   7.827  12.950   6.996  0.0207  0.0561 -0.2225
    1WF      WF59201  22.488   6.464   9.295  0.2762 -0.0296 -0.0119
    1WF      WF59202  17.266  21.091   0.482  0.2808  0.2320 -0.1741
    1WF      WF59203  18.208  10.413   9.169 -0.1098 -0.1149 -0.1686
    1WF      WF59204  23.852  10.494   9.209 -0.0817  0.5081 -0.0076
    1WF      WF59205  13.805   3.912   1.368 -0.0089 -0.2399 -0.1720
    1WF      WF59206  22.924   5.817   6.268 -0.3483 -0.0401  0.0578
    1WF      WF59207  27.942  22.327   0.875  0.1061 -0.1375  0.0373
    1WF      WF59208  20.858   0.180   9.244  0.0232 -0.2638  0.1437
    1WF      WF59209  17.914  27.653   0.435 -0.3370  0.5869  0.1014
    1WF      WF59210   0.743   6.359   8.404  0.2273 -0.0477  0.2650
    1WF      WF59211  26.371  10.527   2.657  0.1759 -0.0316 -0.1173
    1WF      WF59212  21.105   6.132   8.334 -0.2171  0.0424  0.0241
    1WF      WF59213   6.893   3.388   2.733 -0.2461  0.1416 -0.0385
    1WF      WF59214  15.955  15.994   8.850  0.1253  0.1660 -0.0098
    1WF      WF59215  21.846  25.515   8.826 -0.0979 -0.1227 -0.0247
    1WF      WF59216  26.246  15.149   2.518 -0.0091 -0.0852 -0.1698
    1WF      WF59217  28.386  20.913   8.084 -0.0455  0.2690 -0.3220
    1WF      WF59218  26.248   6.250   1.728  0.1993  0.0761 -0.0019
    1WF      WF59219  23.691  23.252   0.884 -0.0563  0.0603 -0.1289
    1WF      WF59220  25.365   2.552   0.619  0.2303 -0.0667  0.2846
    1WF      WF59221   2.767  28.323   6.731 -0.0267  0.3063 -0.2012
    1WF      WF59222  13.241  12.457   8.453  0.0340  0.0786  0.1814
    1WF      WF59223  12.281  25.660   8.798  0.3482 -0.2602  0.3874
    1WF      WF59224  14.516  14.402   9.166  0.0335  0.1318 -0.2627
    1WF      WF59225  23.989  18.816   2.476  0.0995 -0.1563 -0.2093
    1WF      WF59226   2.837   2.378   0.716 -0.0445 -0.0133  0.0002
    1WF      WF59227  22.567  10.973   6.717 -0.2520 -0.0951  0.2793
    1WF      WF59228  14.884   9.508   2.688 -0.0334 -0.2113  0.1238
    1WF      WF59229   9.488  18.425   9.138  0.0431  0.1469  0.0146
    1WF      WF59230  16.716  20.249   0.218  0.0679  0.0229 -0.1270
    1WF      WF59231  12.098   6.940   8.720 -0.0003 -0.2673 -0.0406
    1WF      WF59232  20.748   1.867   0.270  0.0645  0.0036 -0.3417
    1WF      WF59233   9.481  16.939   9.164  0.3397 -0.0786  0.4912
    1WF      WF59234  14.759  20.565   8.760  0.1798  0.0443 -0.0243
    1WF      WF59235   6.199  20.652   8.805 -0.0991 -0.4056  0.0312
    1WF      WF59236  21.284  20.693   0.536 -0.2549 -0.0115 -0.1449
    1WF      WF59237   4.196  19.136   8.274  0.0147  0.0277  0.0178
    1WF      WF59238  10.191  11.807   1.056 -0.2212 -0.1175  0.1589
    1WF      WF59239   7.410  12.221   1.145  0.4456 -0.0106 -0.0543
    1WF      WF59240  19.909  13.495   1.440  0.0247 -0.4354 -0.3054
    1WF      WF59241   1.986   5.042   0.677 -0.0811 -0.1829  0.0378
    1WF      WF59242   8.164  23.830   7.566 -0.1482  0.1209 -0.0017
    1WF      WF59243  20.673  20.946   8.859  0.1177  0.2026 -0.1199
    1WF      WF59244  13.213   6.076   2.842 -0.1233  0.3129 -0.3599
    1WF      WF59245  13.965  28.516   1.437  0.1773 -0.1813  0.1261
    1WF      WF59246  25.606  12.455   0.478 -0.1936 -0.0282 -0.1492
    1WF      WF59247  23.687  17.634   0.387 -0.0436  0.2989  0.0898
    1WF      WF59248   2.860   4.031   0.016  0.0107  0.1253 -0.0887
    1WF      WF59249   4.364  25.949   0.891  0.3988 -0.2538 -0.0249
    1WF      WF59250   0.205   8.213   8.418  0.0172  0.0676  0.1655
    1WF      WF59251  24.842  15.979   5.767  0.1346 -0.1741  0.0655
    1WF      WF59252  28.220  14.737   9.458 -0.0793  0.0318 -0.1576
    1WF      WF59253  22.465  27.172   8.166  0.0378  0.0324 -0.0581
    1WF      WF59254  22.899  15.582   0.521 -0.2980  0.0833 -0.0087
    1WF      WF59255   2.353  20.161   7.868  0.0065 -0.2279  0.2394
    1WF      WF59256   5.870  19.029   9.425 -0.2846  0.4133  0.0622
    1WF      WF59257  26.200  16.728   1.151  0.1314 -0.1033  0.1980
    1WF      WF59258   5.940   4.664   0.240 -0.2905  0.1095  0.0557
    1WF      WF59259  14.804   7.739   2.780  0.3169 -0.2388 -0.4196
    1WF      WF59260  14.698  16.875   8.598  0.1632 -0.2118 -0.1813
    1WF      WF59261  19.143  10.088   9.184  0.0115 -0.2338  0.0624
    1WF      WF59262  18.649   9.925   0.848  0.0314  0.1377 -0.0245
    1WF      WF59263  16.613  22.741   3.208 -0.1514  0.1199  0.1770
    1WF      WF59264  27.488   9.402   7.630 -0.3288 -0.3665 -0.1605
    1WF      WF59265   1.683   5.107   1.283 -0.2386  0.1368  0.0280
    1WF      WF59266  27.576   1.977   0.713  0.1336  0.1943 -0.0483
    1WF      WF59267  19.337  19.986   7.420  0.1682 -0.3155 -0.0304
    1WF      WF59268  22.677   6.642   8.891 -0.0289 -0.1981 -0.1017
    1WF      WF59269  10.674   9.608   8.587  0.0954 -0.0908  0.0035
    1WF      WF59270   5.408  19.325   0.197 -0.1445  0.1785  0.0068
    1WF      WF59271   8.682  22.433   1.276  0.2699  0.1539  0.0411
    1WF      WF59272  23.766  19.032   8.928  0.0335  0.1142  0.2671
    1WF      WF59273  12.311  27.747   8.301 -0.0448  0.1064 -0.0842
    1WF      WF59274  25.158   8.941   9.838  0.1070 -0.0059  0.1861
    1WF      WF59275   7.580   2.703   0.761 -0.2182 -0.2845 -0.0841
    1WF      WF59276   3.740  19.365   8.263  0.1491  0.2486  0.1800
    1WF      WF59277   6.557  18.926   6.017 -0.2953 -0.0301 -0.3385
    1WF      WF59278  24.689  21.073   7.483 -0.0251 -0.0788 -0.0889
    1WF      WF59279   3.220  10.921   0.147 -0.0810 -0.2020 -0.1288
    1WF      WF59280  27.664   3.046   0.487  0.0479 -0.1287  0.0153
    1WF      WF59281  16.554   9.486   0.429  0.0935 -0.0062  0.1060
    1WF      WF59282   9.983   7.914   3.355  0.0232 -0.2416 -0.3380
    1WF      WF59283   6.807  16.367   8.107  0.2672 -0.1498  0.0235
    1WF      WF59284  22.727  13.038   1.195 -0.1003 -0.1907 -0.1970
    1WF      WF59285   1.731   0.226   1.127  0.0295  0.0675  0.0347
    1WF      WF59286  21.791   8.565   1.112 -0.2019  0.0842 -0.1310
    1WF      WF59287  14.536   9.598   7.620  0.0745 -0.0704 -0.3025
    1WF      WF59288  23.855   5.987   7.915 -0.1063 -0.1848  0.0436
    1WF      WF59289  25.476  11.303   5.628 -0.2942 -0.1231  0.0286
    1WF      WF59290   9.653   5.353   6.771  0.1239 -0.1388  0.0313
    1WF      WF59291  12.202   7.268   9.151 -0.1221 -0.3602  0.0947
    1WF      WF59292  10.548  28.698   1.507 -0.0048 -0.0655 -0.1393
    1WF      WF59293  19.093   3.539   3.398 -0.2158  0.1285 -0.0168
    1WF      WF59294  20.933  20.384   0.771 -0.1564  0.0764 -0.0503
    1WF      WF59295   7.315  20.395   0.189 -0.2828  0.1252 -0.0543
    1WF      WF59296  17.766  24.776   8.604  0.2134 -0.0856 -0.1710
    1WF      WF59297  22.821  20.549   8.331 -0.1565  0.0333 -0.0139
    1WF      WF59298  15.244  11.078   1.704 -0.1066 -0.4938  0.1668
    1WF      WF59299  21.706  11.225   2.224 -0.3409 -0.0792 -0.2082
    1WF      WF59300   4.569   7.549   0.019 -0.2036  0.3363 -0.2993
    1WF      WF59301   0.692  26.518   7.500 -0.0388  0.0227  0.1706
    1WF      WF59302  26.022  14.206   6.150  0.1615  0.0662 -0.0539
    1WF      WF59303   2.110   7.133   7.117  0.0515  0.2526  0.0559
    1WF      WF59304  19.662  24.842   8.775  0.4129  0.3795  0.3929
    1WF      WF59305  23.734   3.127   2.849 -0.3031  0.2810 -0.3539
    1WF      WF59306  17.701  10.383   9.096 -0.4247 -0.1189 -0.0659
    1WF      WF59307   9.935   7.886   7.638 -0.2487 -0.0967  0.0501
    1WF      WF59308  22.137  22.162   9.896  0.0135 -0.0672 -0.0489
    1WF      WF59309  20.228  10.385   8.691 -0.3513 -0.3469  0.2231
    1WF      WF59310   9.432   7.113   0.648  0.0972  0.0104 -0.0455
    1WF      WF59311  28.181  23.305   1.578 -0.2161  0.0206 -0.4038
    1WF      WF59312   7.049  24.851   9.593 -0.2262  0.0805 -0.0155
    1WF      WF59313  24.524   7.181   9.131  0.0754  0.0819 -0.3437
    1WF      WF59314  14.008   4.712   2.248  0.3521  0.1242  0.2469
    1WF      WF59315  11.764   5.586   7.805  0.2426 -0.1346  0.0945
    1WF      WF59316  17.951  14.987   1.389 -0.1348 -0.0874  0.0589
    1WF      WF59317   8.470  25.015   9.187  0.0744  0.2052 -0.2067
    1WF      WF59318  20.070  11.236   3.081 -0.2695  0.0474  0.2841
    1WF      WF59319  24.000  15.373   0.782  0.3748 -0.0163 -0.1673
    1WF      WF59320  18.630  24.430   0.279 -0.1093  0.2765 -0.0104
    1WF      WF59321   6.785  22.341   7.016  0.1178 -0.2516 -0.3368
    1WF      WF59322  20.044  21.106   1.468 -0.1135 -0.2203  0.0228
    1WF      WF59323   7.176  13.719   0.622 -0.0836 -0.0947  0.1801
    1WF      WF59324   4.740  19.992   0.884  0.0728 -0.2208 -0.0751
    1WF      WF59325   5.348  13.828   9.950 -0.3540 -0.0316  0.3167
    1WF      WF59326  17.550  22.244   1.821 -0.0708 -0.0428 -0.2905
    1WF      WF59327   6.000  14.143   1.342 -0.3044  0.0399 -0.3987
    1WF      WF59328  15.325   1.234   2.038 -0.2036  0.0815  0.3999
    1WF      WF59329  23.156  12.310   0.656  0.0572 -0.2892 -0.2020
    1WF      WF59330   2.978  25.437   8.290 -0.2923 -0.2436 -0.0415
    1WF      WF59331  21.745  27.750   8.950 -0.0478 -0.0304  0.0591
    1WF      WF59332  13.496   4.826   2.192 -0.1343  0.1574 -0.0109
    1WF      WF59333   2.620  11.735   0.523  0.1904  0.1302 -0.1094
    1WF      WF59334  19.704   4.347   9.654 -0.0655 -0.0841  0.0154
    1WF      WF59335  12.912  18.473   0.257  0.1020 -0.1577  0.3330
    1WF      WF59336  12.985  18.796   0.997  0.2633 -0.0951  0.2110
    1WF      WF59337  22.011   7.986   2.899  0.1536 -0.1506 -0.1354
    1WF      WF59338   0.050   4.385   8.329  0.2201 -0.1016 -0.1671
    1WF      WF59339   9.360  24.721   8.383  0.2907 -0.1378  0.2441
    1WF      WF59340  15.166   3.410   8.733 -0.2851  0.0523 -0.0478
    1WF      WF59341   6.487  21.951   7.320 -0.2560  0.1252 -0.0382
    1WF      WF59342  17.177  19.094   1.456  0.3035  0.1762  0.0336
    1WF      WF59343  20.028  17.083   7.981 -0.2656 -0.3095  0.1225
    1WF      WF59344  26.912   0.577   2.221  0.0068  0.1541  0.0609
    1WF      WF59345  26.096  27.035   0.187 -0.2873 -0.2764  0.2232
    1WF      WF59346   9.706  19.404   2.837  0.0963 -0.1607 -0.1294
    1WF      WF59347  27.977   1.605   7.729 -0.0941  0.1805 -0.0941
    1WF      WF59348   9.792  20.975   1.964 -0.2686  0.2444 -0.1207
    1WF      WF59349   5.338  20.587   9.818 -0.1541  0.1533 -0.0437
    1WF      WF59350  20.627  14.544   0.987  0.1371  0.0052 -0.3382
    1WF      WF59351   7.563  15.431   8.884 -0.3307  0.1488 -0.0424
    1WF      WF59352  11.161  24.817   1.371 -0.0499 -0.0906 -0.1869
    1WF      WF59353  22.143  10.726   0.170  0.1008  0.1258  0.3700
    1WF      WF59354   2.922  10.758   1.979 -0.2447 -0.1027 -0.0409
    1WF      WF59355   4.466   6.834   2.637 -0.2868  0.1559 -0.3680
    1WF      WF59356  16.874  22.805   9.140  0.1432 -0.0025  0.0332
    1WF      WF59357   5.515  20.961   9.417 -0.0627 -0.1187  0.0356
    1WF      WF59358  20.965   0.316   8.656  0.0624  0.0278 -0.0502
    1WF      WF59359   6.647  18.318   1.679  0.0315 -0.1184  0.0429
    1WF      WF59360  12.840  12.692   8.549  0.2028  0.0320 -0.1291
    1WF      WF59361   3.119   5.771   1.292  0.2065  0.1456  0.0645
    1WF      WF59362  28.466  14.222   0.355  0.0439 -0.0675 -0.1789
    1WF      WF59363  14.326   4.668   0.496 -0.0862  0.2020  0.0153
    1WF      WF59364  21.220  11.179   2.031  0.0175 -0.1995 -0.1927
    1WF      WF59365   1.081  12.998   8.769  0.0043  0.2087  0.0109
    1WF      WF59366  28.417   9.387   8.115 -0.0016 -0.0982  0.1897
    1WF      WF59367  20.286  18.389   1.161 -0.0319  0.0413 -0.0802
    1WF      WF59368  15.907   6.504   9.486  0.1041  0.1186  0.0095
    1WF      WF59369  25.429   1.989   8.803 -0.0271  0.2802 -0.2900
    1WF      WF59370  10.327  11.550   2.634  0.1347  0.1688 -0.1296
    1WF      WF59371  12.968   5.306   9.934  0.1214  0.0212  0.1340
    1WF      WF59372  25.123  12.273   9.941  0.0092  0.2992 -0.0784
    1WF      WF59373   6.850  12.030   1.840  0.3622  0.0737 -0.2493
    1WF      WF59374  24.550   0.973   9.857  0.2039  0.2587  0.2261
    1WF      WF59375  28.284  25.418   3.186  0.1680 -0.1834 -0.0297
    1WF      WF59376  27.703   7.042   8.401  0.0361 -0.1257 -0.3581
    1WF      WF59377  25.454  11.370   0.753  0.2321 -0.1908 -0.0893
    1WF      WF59378   7.128  20.832   9.738 -0.2225 -0.1242  0.0355
    1WF      WF59379  26.683  13.541   8.651 -0.0522 -0.2574  0.0800
    1WF      WF59380  24.060  14.756   9.192 -0.2684 -0.2706 -0.1169
    1WF      WF59381  23.778   8.902   9.657 -0.0780 -0.0596 -0.0159
    1WF      WF59382   7.973   0.459   1.501 -0.2550  0.2616  0.2026
    1WF      WF59383  16.814  12.597   8.724 -0.0215  0.0280  0.0882
    1WF      WF59384   9.140  27.521   9.718 -0.0103  0.0040  0.1463
    1WF      WF59385  26.469  25.418   0.945 -0.0625  0.1964 -0.1559
    1WF      WF59386   3.855  27.692   1.098  0.0604 -0.1393  0.0324
    1WF      WF59387  11.816   2.730   2.929 -0.0937  0.1997 -0.1672
    1WF      WF59388  17.807  24.977   0.396 -0.2880 -0.0007 -0.0665
    1WF      WF59389   2.070  26.253   8.562 -0.1388  0.1598 -0.0888
    1WF      WF59390  15.505  17.047   1.563 -0.0590 -0.0312 -0.0841
    1WF      WF59391   0.498   0.183   3.691 -0.1660  0.1512 -0.0857
    1WF      WF59392   0.125   1.407   1.715 -0.0445  0.3807  0.1291
    1WF      WF59393   0.960  15.965   9.719 -0.0224  0.1571  0.1169
    1WF      WF59394   9.797  12.599   0.600 -0.0095  0.1134 -0.2397
    1WF      WF59395  15.102  28.543   9.288 -0.3401  0.2592  0.1564
    1WF      WF59396  24.154  21.616   1.091 -0.0426 -0.0539  0.1289
    1WF      WF59397  27.622   2.538   2.053  0.1491  0.0873 -0.0437
    1WF      WF59398   1.382   2.550   1.370  0.0977 -0.3641 -0.0803
    1WF      WF59399  20.187  15.998   6.764 -0.0142 -0.1221  0.1782
    1WF      WF59400  22.333   1.706   8.141  0.0050  0.1107 -0.0128
    1WF      WF59401  24.636   4.459   8.843 -0.2351  0.1358  0.2724
    1WF      WF59402  20.011  16.356   9.569 -0.0542  0.4535 -0.3009
    1WF      WF59403  14.633   1.040   9.558  0.0919  0.0572 -0.0164
    1WF      WF59404   7.256  16.360   1.978  0.0067  0.0000  0.3024
    1WF      WF59405  22.636   9.630   7.799  0.0445 -0.1598 -0.1483
    1WF      WF59406  23.627  25.068   1.490  0.0010 -0.0883 -0.0961
    1WF      WF59407  19.569  22.357   1.192 -0.0679  0.0808  0.2217
    1WF      WF59408   7.724  19.576   0.573  0.1133  0.0885 -0.1799
    1WF      WF59409  13.094   9.476   0.027 -0.2160 -0.1390 -0.2345
    1WF      WF59410   1.030  16.875   9.687 -0.1322  0.1714  0.0334
    1WF      WF59411  17.405  27.140   0.352  0.0164 -0.0173 -0.2127
    1WF      WF59412  22.471   2.573   7.361  0.0381  0.2134  0.2600
    1WF      WF59413  16.300  11.943   0.219  0.1565 -0.3022  0.1285
    1WF      WF59414  15.160   1.556   2.417  0.2230 -0.2112 -0.1205
    1WF      WF59415  12.033   1.530   1.173 -0.0857 -0.1024 -0.1751
    1WF      WF59416  17.251   4.778   9.794  0.0446 -0.1914  0.0492
    1WF      WF59417  16.882  20.259   1.871  0.0231 -0.0538 -0.2030
    1WF      WF59418  15.368  11.357   8.686 -0.0550  0.1448  0.0720
    1WF      WF59419   7.558   3.212   9.149 -0.0085 -0.0397  0.0627
    1WF      WF59420   4.479  28.586   1.766  0.0816 -0.0804  0.0104
    1WF      WF59421   0.130  24.536   7.834  0.4084  0.1241  0.1017
    1WF      WF59422  16.342   3.096   1.716 -0.1768  0.2377  0.0251
    1WF      WF59423  26.362  26.441   1.010  0.2162 -0.2970 -0.3278
    1WF      WF59424  12.083   2.589   2.546  0.0309  0.2766  0.0542
    1WF      WF59425  10.834  24.056   1.102  0.3618  0.1193 -0.0066
    1WF      WF59426  12.775  19.155   9.479 -0.0400  0.0503 -0.0771
    1WF      WF59427   2.443  24.045   8.097 -0.2862  0.1704 -0.4061
    1WF      WF59428  16.000   7.823   0.757  0.0627  0.1059  0.0323
    1WF      WF59429  17.003  10.316   9.019  0.3498  0.0603  0.0113
    1WF      WF59430  18.383  23.299   7.418  0.1957 -0.1616 -0.1837
    1WF      WF59431   2.549  26.335   6.410  0.3060 -0.0496  0.0278
    1WF      WF59432   3.461   3.257   7.872 -0.0785 -0.0165 -0.2732
    1WF      WF59433  28.493   8.331   0.011  0.0163 -0.1184 -0.2019
    1WF      WF59434  24.571   4.576   0.572 -0.0295 -0.3840 -0.0131
    1WF      WF59435   0.207  19.541   7.435  0.1100  0.2101  0.2319
    1WF      WF59436  26.959   0.543   7.344 -0.4249  0.1251 -0.0954
    1WF      WF59437  17.402  26.776   1.047  0.0017  0.3969  0.2932
    1WF      WF59438  21.334  20.246   9.298  0.0313 -0.1110 -0.3035
    1WF      WF59439  19.614  21.058   1.215  0.0235  0.1085  0.2399
    1WF      WF59440   0.348   1.659   0.675  0.0776  0.0938 -0.0489
    1WF      WF59441  19.396  24.993   9.195  0.4591 -0.0874 -0.1833
    1WF      WF59442  12.634   7.498   1.581 -0.1210 -0.1527  0.0137
    1WF      WF59443   0.997   4.041   8.726 -0.1033 -0.1440 -0.0138
    1WF      WF59444  14.876  10.305   1.190 -0.1468  0.1089  0.1222
    1WF      WF59445  17.555  21.158   9.148  0.1880  0.2897  0.0564
    1WF      WF59446   0.240  27.187   9.522 -0.1243  0.1161  0.0618
    1WF      WF59447  27.394  11.246   0.357  0.4037  0.1475 -0.1436
    1WF      WF59448  27.783   3.675   1.551 -0.0392 -0.3742 -0.0538
    1WF      WF59449  13.807  20.271   0.898 -0.2464 -0.0454 -0.0452
    1WF      WF59450  25.755  19.110   9.001  0.0476 -0.0326 -0.0480
    1WF      WF59451   0.123   8.563   8.811  0.1541  0.3279  0.0402
    1WF      WF59452  13.427   9.312   1.627 -0.1037 -0.1693 -0.0040
    1WF      WF59453   0.695  11.552   7.867 -0.2133 -0.2620 -0.0561
    1WF      WF59454  14.942  26.315   2.156 -0.0228 -0.0631  0.0687
    1WF      WF59455   4.269  24.320   9.907 -0.1275  0.2244  0.0681
    1WF      WF59456  15.850  10.745   0.856 -0.0758 -0.0162 -0.0427
    1WF      WF59457   9.234  22.517   6.731  0.0793  0.1708 -0.1032
    1WF      WF59458  14.427   3.321   2.718 -0.1408 -0.0984  0.3881
    1WF      WF59459   3.796  21.790   7.951  0.2037 -0.3659 -0.1587
    1WF      WF59460   0.539  26.728   9.679 -0.3797  0.0922  0.1978
    1WF      WF59461  12.712  18.386   0.772 -0.1281  0.1132  0.1641
    1WF      WF59462  18.885  28.448   8.324  0.3251 -0.3125 -0.0193
    1WF      WF59463   5.567   8.052   7.428  0.0322 -0.1511  0.2189
    1WF      WF59464  19.432  18.083   8.761 -0.1593 -0.3214  0.2559
    1WF      WF59465  25.720  19.705   0.421  0.0073  0.0179  0.1553
    1WF      WF59466   2.545  12.505   9.784  0.2717  0.1456  0.2283
    1WF      WF59467  14.128  24.189   1.321  0.0722  0.1337  0.1373
    1WF      WF59468  22.898  13.140   6.634 -0.0392 -0.0405  0.0740
    1WF      WF59469  15.552  18.422   1.800 -0.4909 -0.1965 -0.1249
    1WF      WF59470  14.975  20.077   8.785 -0.2836  0.1452 -0.1835
    1WF      WF59471  15.771  25.641   1.619  0.0692  0.0227 -0.2401
    1WF      WF59472   8.593  10.104   8.373  0.1669  0.3950 -0.1470
    1WF      WF59473   9.949   7.116   0.455 -0.0628 -0.0819  0.3001
    1WF      WF59474  17.371   1.207   8.575  0.0297 -0.1947 -0.2417
    1WF      WF59475  17.688   1.075   2.078  0.0276 -0.1912 -0.1518
    1WF      WF59476  13.689  14.507   0.651 -0.1040 -0.1463 -0.0853
    1WF      WF59477  16.164   5.097   2.189  0.0220 -0.0421 -0.2638
    1WF      WF59478  28.613  23.737   0.201 -0.0525  0.1136  0.1193
    1WF      WF59479  10.279  20.242   0.723 -0.0873  0.0632 -0.1174
    1WF      WF59480   9.284  11.567   9.301 -0.2701 -0.3674  0.0989
    1WF      WF59481   0.683  14.983   6.745 -0.3679 -0.0094 -0.0649
    1WF      WF59482  17.023  12.378   8.322  0.1057 -0.1815 -0.0263
    1WF      WF59483  20.770  22.113   1.280  0.3615 -0.1367  0.2692
    1WF      WF59484  28.708   8.794   9.754  0.1548  0.1340  0.1309
    1WF      WF59485   4.542  20.825   1.595  0.1018 -0.2666 -0.0157
    1WF      WF59486  14.691  28.561   2.192 -0.0992  0.0501  0.0444
    1WF      WF59487   9.951   0.029   3.805  0.0944 -0.2467  0.0527
    1WF      WF59488  21.967   3.633   3.043 -0.0857  0.1183  0.0957
    1WF      WF59489   0.196  25.247   2.053  0.2674 -0.0977  0.2103
    1WF      WF59490  23.459  27.996   8.437 -0.1431  0.0548  0.0570
    1WF      WF59491  28.233   6.755   1.336 -0.2222  0.2079 -0.3337
    1WF      WF59492   0.611   4.361   2.019  0.0790 -0.1881  0.2779
    1WF      WF59493  27.427  23.588   1.254 -0.0607  0.2446 -0.1082
    1WF      WF59494  21.842  26.451   1.210  0.2529 -0.1096  0.1746
    1WF      WF59495  19.333  17.275   0.508  0.1297 -0.3646  0.1312
    1WF      WF59496  17.717  22.482   0.070 -0.1619  0.3340  0.2933
    1WF      WF59497   2.784  14.525   7.267  0.0377  0.1614 -0.0546
    1WF      WF59498  25.410  25.135   1.702  0.1538 -0.3654 -0.1268
    1WF      WF59499  16.052  19.705   7.416  0.1832  0.1152  0.1894
    1WF      WF59500  10.921  10.038   8.416  0.0915  0.1658  0.0125
    1WF      WF59501  26.184   1.680   9.492  0.0236 -0.1416  0.1325
    1WF      WF59502  12.609   7.301   0.321 -0.2213  0.0181  0.0610
    1WF      WF59503  17.513  24.883   4.399  0.1244 -0.0175  0.0566
    1WF      WF59504   4.602   1.944   3.329  0.0208  0.3933  0.3788
    1WF      WF59505   4.259  15.346   0.312  0.1606 -0.1345  0.0726
    1WF      WF59506   0.852  12.532   6.599  0.1335  0.0607  0.2422
    1WF      WF59507  13.554  15.612   1.297  0.0765  0.2278 -0.0423
    1WF      WF59508   3.511   6.831   2.356 -0.0019  0.0481 -0.1440
    1WF      WF59509  10.673  18.413   0.610 -0.5781  0.0434 -0.1489
    1WF      WF59510   4.234  11.099   9.407  0.1675  0.0913  0.0326
    1WF      WF59511  22.789  19.544   0.876  0.0233 -0.0727 -0.0499
    1WF      WF59512  27.255  26.193   8.983 -0.1062  0.0771  0.2385
    1WF      WF59513  21.772   9.420   1.188  0.2769  0.0635 -0.2762
    1WF      WF59514   4.868   7.054   2.809  0.2157 -0.1582 -0.0166
    1WF      WF59515  18.998  20.774   9.016  0.2889  0.1460  0.2741
    1WF      WF59516  18.196  20.767   2.046 -0.3001  0.0113  0.0822
    1WF      WF59517  21.825   8.311   1.572 -0.0589 -0.1357  0.2817
    1WF      WF59518   6.092  10.411   3.598 -0.1536 -0.1022 -0.1386
    1WF      WF59519  21.834  19.376   0.685 -0.0200  0.0250  0.2762
    1WF      WF59520  14.635  12.816   8.233 -0.0788 -0.0389 -0.0733
    1WF      WF59521  28.259  15.823   0.453 -0.1403 -0.2470 -0.0757
    1WF      WF59522  15.036   7.021   0.464  0.0202 -0.1201  0.2620
    1WF      WF59523   6.541  23.099   9.871 -0.0826  0.1826 -0.7049
    1WF      WF59524  17.135   6.105   8.173  0.1216  0.0924  0.2720
    1WF      WF59525  26.232   6.778   0.876 -0.3427  0.2467  0.2472
    1WF      WF59526   6.684   5.085   9.037  0.1879  0.0536 -0.0785
    1WF      WF59527   7.163  22.920   9.386 -0.1760 -0.1154 -0.0001
    1WF      WF59528  17.467  10.144   8.748  0.1102 -0.2974 -0.0248
    1WF      WF59529  15.547   5.589   2.673  0.1126 -0.0804 -0.0320
    1WF      WF59530   3.698   6.318   0.321  0.1915  0.0000 -0.2852
    1WF      WF59531  19.971  21.320   0.919 -0.5009  0.4335  0.0400
    1WF      WF59532  24.006  19.712   6.590 -0.2842 -0.1921 -0.1344
    1WF      WF59533  17.531  19.083   0.137  0.0551  0.4693 -0.3700
    1WF      WF59534  10.663   3.094   9.849 -0.1018  0.1573  0.2111
    1WF      WF59535   3.149   9.491   0.896 -0.3097  0.1429  0.1242
    1WF      WF59536   3.893   8.441   6.370  0.0767 -0.1387 -0.1493
    1WF      WF59537  14.328  22.966   2.240 -0.2237 -0.0460  0.3149
    1WF      WF59538   2.409  18.456   7.594  0.0622 -0.1595 -0.1674
    1WF      WF59539  24.153  27.447   2.278 -0.3671  0.2989  0.0918
    1WF      WF59540   8.552  19.075   1.271 -0.0555 -0.0559 -0.0729
    1WF      WF59541  24.796  27.611   8.221  0.1877  0.2245 -0.1530
    1WF      WF59542   1.197  10.596   0.217 -0.0410  0.1283  0.0983
    1WF      WF59543   5.910  15.640   9.277  0.0421 -0.0435  0.3656
    1WF      WF59544  24.464  21.197   1.908 -0.0192 -0.1083  0.3151
    1WF      WF59545  14.049  27.186   1.869 -0.5391  0.0395  0.0261
    1WF      WF59546   0.806  20.786   6.961  0.1645 -0.0799 -0.1154
    1WF      WF59547  12.806   6.249   9.408  0.1269  0.0273  0.3466
    1WF      WF59548  24.788  12.010   9.690 -0.1194 -0.0541 -0.0646
    1WF      WF59549  22.994  27.639   8.354  0.1279 -0.0030  0.2131
    1WF      WF59550   6.785  26.832   1.546 -0.1128  0.1378 -0.0649
    1WF      WF59551  27.429  25.679   9.672  0.0524  0.2561  0.0763
    1WF      WF59552  10.943  16.407   9.238  0.0590 -0.2172  0.2682
    1WF      WF59553  20.004  24.389   8.327  0.3990 -0.1605  0.0642
    1WF      WF59554  19.354  13.156   1.456 -0.0288 -0.0715  0.1304
    1WF      WF59555  13.325   6.155   9.229 -0.0525 -0.2138 -0.2613
    1WF      WF59556  10.481  20.632   9.331  0.0601  0.1753  0.1270
    1WF      WF59557  12.239  16.358   0.145  0.0493 -0.1705  0.1444
    1WF      WF59558   6.002  18.867   8.375  0.1645  0.0475 -0.2192
    1WF      WF59559  13.606   6.864   9.356 -0.0135  0.2664 -0.1934
    1WF      WF59560   7.034  18.246   0.461 -0.4097 -0.2089  0.2425
    1WF      WF59561   0.384   8.667   0.293 -0.1462 -0.2196  0.3306
    1WF      WF59562  28.701  13.815   0.128 -0.1032 -0.0762 -0.0225
    1WF      WF59563  25.083   5.218   1.143  0.1027 -0.0105 -0.0362
    1WF      WF59564  13.066   8.941   9.867 -0.3046  0.1629  0.1597
    1WF      WF59565  26.439  13.564   9.552  0.0802 -0.3391  0.1260
    1WF      WF59566  22.904  13.682   9.241  0.3072  0.2732  0.1142
    1WF      WF59567   6.186  25.608   2.614  0.2212  0.1739 -0.0102
    1WF      WF59568   0.784  14.910   8.596  0.2238  0.1344 -0.1642
    1WF      WF59569   6.002  18.401   9.591 -0.1693  0.0184 -0.2517
    1WF      WF59570  25.224   3.202   7.626  0.1050 -0.1428  0.1692
    1WF      WF59571  17.777  18.567   8.399  0.1302  0.0963  0.1612
    1WF      WF59572  12.428  23.685   3.648  0.2874 -0.2378 -0.0426
    1WF      WF59573  26.095  19.661   0.091 -0.2264 -0.1849 -0.0352
    1WF      WF59574   3.204   1.781   1.839  0.0477  0.2180 -0.1887
    1WF      WF59575   3.755   9.223   0.739 -0.1473  0.0820  0.0216
    1WF      WF59576  20.607   1.570   2.807 -0.1554  0.1950 -0.0250
    1WF      WF59577  15.187   5.940   2.634 -0.1650  0.2493  0.3320
    1WF      WF59578  21.633  25.169   8.607 -0.1223  0.1118  0.0820
    1WF      WF59579   8.352   4.180   8.060 -0.2864 -0.0291  0.1835
    1WF      WF59580  27.863   2.589   0.488 -0.0573  0.1192 -0.1183
    1WF      WF59581   5.512  15.669   9.012  0.2551  0.1070 -0.0205
    1WF      WF59582  17.381   1.390   2.786  0.2956 -0.3488  0.1178
    1WF      WF59583  23.846  19.518   9.059 -0.0254 -0.3299 -0.3798
    1WF      WF59584  15.657  17.550   1.593  0.0686  0.0956 -0.1314
    1WF      WF59585   9.039  18.656   9.156 -0.5391  0.3541  0.2037
    1WF      WF59586  22.857  18.150   1.286 -0.1146  0.0644 -0.1826
    1WF      WF59587   1.614   5.636   1.241  0.1657  0.3883 -0.1193
    1WF      WF59588   3.713  20.292   0.714  0.0403  0.3975 -0.0642
    1WF      WF59589   3.370  27.225   8.878 -0.4230 -0.1358 -0.2936
    1WF      WF59590  10.002   1.739   1.782  0.2223  0.0406 -0.1961
    1WF      WF59591   9.189  17.367   6.639 -0.0562 -0.0528  0.1289
    1WF      WF59592   4.505  20.895   7.901  0.0615  0.3938  0.1932
    1WF      WF59593  10.499  10.869   9.095 -0.1457 -0.1207 -0.3900
    1WF      WF59594  27.596  11.547   6.880 -0.1815 -0.4518  0.0839
    1WF      WF59595   6.163  12.132   9.775 -0.1661  0.0408  0.2196
    1WF      WF59596  10.777   1.498   8.698 -0.0802  0.1255  0.1414
    1WF      WF59597  17.690   0.036   1.745  0.0132 -0.1367  0.0084
    1WF      WF59598   4.352   3.670   1.560  0.0153 -0.2653  0.2178
    1WF      WF59599  12.075  24.859   7.235  0.2478 -0.1962  0.1301
    1WF      WF59600  15.465  24.540   9.700  0.1305  0.1273  0.2680
    1WF      WF59601   8.817   9.810   8.014 -0.0521  0.0658 -0.0654
    1WF      WF59602  16.458   2.045   0.689 -0.0890 -0.0178 -0.0625
    1WF      WF59603   3.087  15.528   0.613  0.1837  0.1035 -0.1822
    1WF      WF59604  14.396   1.962   2.036  0.0019  0.0470 -0.2658
    1WF      WF59605  12.785   9.758   2.164 -0.2707 -0.2076  0.2852
    1WF      WF59606   4.856   6.502   0.161  0.0515  0.0719  0.2439
    1WF      WF59607  17.536   8.294   1.666 -0.2437 -0.1413 -0.0288
    1WF      WF59608  21.299   8.096   1.612 -0.1272  0.0495  0.0047
    1WF      WF59609   3.260  16.024   0.566  0.0579 -0.2914 -0.2960
    1WF      WF59610  14.818  10.891   9.110 -0.1350 -0.1399  0.0530
    1WF      WF59611   6.146  24.330   8.377  0.1677 -0.0785  0.2414
    1WF      WF59612  15.806   2.043   9.960 -0.2879  0.0429  0.0122
    1WF      WF59613  11.148  27.235   8.928  0.1461  0.0421  0.2019
    1WF      WF59614  20.494   8.386   9.175  0.2222  0.2634 -0.1849
    1WF      WF59615  10.139   2.347   9.685  0.0874  0.0115 -0.2819
    1WF      WF59616   2.776   7.829   3.521  0.1397 -0.3202  0.1321
    1WF      WF59617  25.279  23.949   0.402 -0.3186 -0.2129  0.1362
    1WF      WF59618   2.724  27.191   8.117 -0.0472 -0.0223  0.1718
    1WF      WF59619  25.593  18.153   1.679  0.2964  0.1790 -0.0448
    1WF      WF59620  21.004   9.161   9.955 -0.2674 -0.4881 -0.2621
    1WF      WF59621  11.140  23.927   1.483  0.1979  0.1155  0.0034
    1WF      WF59622  11.068  24.190   0.665  0.2976  0.0055  0.1492
    1WF      WF59623  19.048  22.214   0.280  0.2717  0.0064 -0.2061
    1WF      WF59624   6.980  11.056   1.286  0.4319 -0.2054 -0.1659
    1WF      WF59625   9.078  22.679   2.652 -0.1419 -0.1208  0.1205
    1WF      WF59626  26.075  17.031   1.564 -0.0637 -0.3553 -0.0199
    1WF      WF59627  14.642  22.978   9.288  0.5083  0.0346  0.1908
    1WF      WF59628   9.619  13.076   7.292  0.1276  0.0828  0.4161
    1WF      WF59629   2.806  27.675   8.237  0.0917 -0.2506 -0.3082
    1WF      WF59630  28.695  26.474   8.686 -0.2541  0.0025 -0.3066
    1WF      WF59631  10.387  10.388   9.058 -0.1760 -0.3488 -0.1005
    1WF      WF59632  12.902  17.453   1.813 -0.2403 -0.0905 -0.0789
    1WF      WF59633  24.407   1.609   8.404 -0.1566  0.0483  0.0537
    1WF      WF59634  16.755   9.835   0.761 -0.2894  0.1121  0.0398
    1WF      WF59635  24.840  17.405   6.896  0.1052 -0.0333  0.0807
    1WF      WF59636  21.674   8.313   8.518  0.3506 -0.1462  0.0326
    1WF      WF59637  22.159  19.774   0.629 -0.1786 -0.0688  0.3519
    1WF      WF59638  22.087  17.540   8.679 -0.1108 -0.0088 -0.0268
    1WF      WF59639  12.351  25.166   9.823  0.1616 -0.0392 -0.2222
    1WF      WF59640   7.498   6.821   8.503 -0.0424 -0.2600  0.1498
    1WF      WF59641   0.485  18.982   8.791  0.1361  0.0529 -0.0376
    1WF      WF59642  28.336  18.191   8.448 -0.3849 -0.1705 -0.0254
    1WF      WF59643  12.575  27.293   8.160  0.1724 -0.0062 -0.1259
    1WF      WF59644   3.333   5.966   0.414  0.0239  0.2785  0.2011
    1WF      WF59645  26.983  14.946   9.573 -0.0490 -0.1378 -0.2031
    1WF      WF59646  26.152  23.861   8.415 -0.1432 -0.0745  0.2098
    1WF      WF59647   6.068   1.703   8.353 -0.1721  0.0782 -0.0107
    1WF      WF59648  10.062  11.095   2.656  0.0966 -0.2212  0.3686
    1WF      WF59649   5.469  27.539   0.674  0.0386 -0.0396  0.1269
    1WF      WF59650  12.730  18.136   1.402 -0.1249  0.1908  0.3635
    1WF      WF59651  25.897  22.099   7.904  0.1004  0.1757  0.1881
    1WF      WF59652   9.475  17.747   0.708  0.0550 -0.2239  0.1735
    1WF      WF59653  24.716  26.654   0.740  0.1717  0.1199  0.0411
    1WF      WF59654  18.899   2.210   0.568 -0.2234 -0.1429 -0.1127
    1WF      WF59655   2.235  11.724   0.157  0.2246 -0.2633 -0.3378
    1WF      WF59656  28.066  18.262   1.154 -0.0299 -0.1840 -0.0563
    1WF      WF59657  24.331  19.653   9.253 -0.3449 -0.1798  0.0712
    1WF      WF59658   5.617  21.253   8.356 -0.1140  0.0403 -0.0082
    1WF      WF59659  13.128  27.358   2.286  0.2152  0.1132 -0.0521
    1WF      WF59660  21.337  23.782   8.154  0.0311 -0.2101 -0.2998
    1WF      WF59661  22.067   6.210   9.525  0.0210  0.1642  0.0597
    1WF      WF59662   9.084   1.474   1.871  0.0255 -0.0733  0.0127
    1WF      WF59663  15.398  16.300   0.178  0.3109  0.0695 -0.2218
    1WF      WF59664  17.453   4.321   2.157  0.0640  0.2175  0.1998
    1WF      WF59665   6.392  20.583   8.358 -0.0843  0.1940  0.0851
    1WF      WF59666   9.546  20.436   9.335  0.1344 -0.0388  0.0719
    1WF      WF59667   3.766   2.407   1.626 -0.2037 -0.0276 -0.3717
    1WF      WF59668  16.302  11.652   9.259  0.1301 -0.0015 -0.0011
    1WF      WF59669  20.802  13.402   8.707  0.0368 -0.3254  0.1897
    1WF      WF59670  27.853  17.107   7.983 -0.1072 -0.2103 -0.2921
    1WF      WF59671  16.312  27.862   1.961  0.0985 -0.1705  0.3697
    1WF      WF59672  20.557  10.046   8.631  0.1172  0.0760  0.0089
    1WF      WF59673  22.619   9.137   7.892  0.0889  0.1135 -0.0492
    1WF      WF59674   7.477   0.343   0.343  0.1872 -0.0141 -0.0494
    1WF      WF59675  12.457   9.809   8.718  0.0242 -0.2660 -0.2521
    1WF      WF59676   3.138   6.048   0.834  0.1584  0.3647 -0.2805
    1WF      WF59677   5.534   3.129   7.412 -0.2329  0.0603 -0.2065
    1WF      WF59678  20.412  11.200   2.053  0.0780  0.0652 -0.0541
    1WF      WF59679  17.977  20.639   7.968  0.0862  0.1072  0.2675
    1WF      WF59680  28.676  11.413   1.484  0.0115 -0.1336 -0.2856
    1WF      WF59681  24.291  15.040   2.270  0.0795  0.3781  0.3335
    1WF      WF59682   0.313  14.898   6.181  0.0566 -0.2677 -0.2067
    1WF      WF59683  26.059  24.891   9.414 -0.1119 -0.3873  0.2722
    1WF      WF59684  25.199   2.077   0.426 -0.3569 -0.1116  0.0589
    1WF      WF59685  28.283   5.522   1.528 -0.0830  0.1209 -0.2196
    1WF      WF59686  24.860  13.526   9.554 -0.0671 -0.1930  0.1445
    1WF      WF59687  22.852   3.371   8.246 -0.3164  0.1941  0.3036
    1WF      WF59688  19.535   8.362   9.862 -0.0228  0.3527 -0.0701
    1WF      WF59689  26.818   0.651   9.432 -0.0415 -0.1785 -0.2784
    1WF      WF59690  12.405  24.301   3.148 -0.3676 -0.0927 -0.0196
    1WF      WF59691  19.530  26.718   1.415 -0.3054  0.1092 -0.2663
    1WF      WF59692  18.367  25.972   0.179  0.0872 -0.0093 -0.0201
    1WF      WF59693   3.302   2.381   0.480 -0.2813  0.3533  0.1544
    1WF      WF59694   2.712   4.484   9.942  0.1332 -0.0290 -0.1022
    1WF      WF59695   5.109  10.136   0.518 -0.2382  0.0394 -0.1932
    1WF      WF59696   6.370   5.661   8.514 -0.2401  0.0536  0.1652
    1WF      WF59697  11.949  21.326   0.365 -0.0313 -0.1324 -0.0355
    1WF      WF59698   2.458  21.484   9.384  0.0638 -0.0859 -0.2174
    1WF      WF59699   3.192  13.562   7.668  0.1127  0.1690 -0.1004
    1WF      WF59700  16.721   7.292   1.045 -0.0086 -0.1056  0.3593
    1WF      WF59701  22.045  18.008   8.818 -0.1110 -0.0359 -0.0168
    1WF      WF59702  25.676  20.098   5.944  0.0063 -0.1055  0.4022
    1WF      WF59703   4.954  12.517   9.678 -0.1029  0.2082 -0.0489
    1WF      WF59704  18.330  26.424   0.439 -0.2327  0.1317 -0.1134
    1WF      WF59705   7.013  10.623   9.445  0.0439 -0.0658 -0.0391
    1WF      WF59706   4.906   6.435   8.223 -0.0649 -0.0743 -0.1910
    1WF      WF59707   1.796  23.016   1.345 -0.0180 -0.0388  0.2624
    1WF      WF59708  27.042  10.868   0.230 -0.0380  0.0541 -0.0183
    1WF      WF59709  25.407  27.798   9.188  0.1442  0.2535 -0.1984
    1WF      WF59710   4.198  10.483   7.869 -0.0225  0.2279  0.1354
    1WF      WF59711  23.883  19.726   7.111 -0.1412 -0.0335 -0.1790
    1WF      WF59712   6.514  12.947   0.088 -0.0539 -0.1333 -0.2434
    1WF      WF59713  17.707  19.883   2.564 -0.4481 -0.2062 -0.2087
    1WF      WF59714  20.903  19.973   0.335  0.2186  0.0309 -0.0171
    1WF      WF59715   3.620   1.826   8.249 -0.1691  0.0397  0.2717
    1WF      WF59716  13.363  19.828   9.876  0.1210 -0.0317  0.2315
    1WF      WF59717   6.602  14.071   0.383 -0.1280 -0.1243 -0.0546
    1WF      WF59718  12.011   7.737   9.144  0.1413  0.1158  0.0100
    1WF      WF59719   4.715  21.244   1.320 -0.1031 -0.0954 -0.1943
    1WF      WF59720  15.549   5.096   9.720  0.3353  0.0056 -0.1108
    1WF      WF59721   8.493  15.806   9.022 -0.0259 -0.0344  0.1686
    1WF      WF59722   0.184   5.666   8.778  0.0863 -0.1171  0.2490
    1WF      WF59723  13.464  28.386   1.506  0.1079 -0.2628  0.0949
    1WF      WF59724   5.857   4.801   8.197  0.0323  0.0367  0.2357
    1WF      WF59725   7.739  26.812   9.054  0.0343  0.0252 -0.1215
    1WF      WF59726  18.757   1.228   0.865  0.2762 -0.0468 -0.0929
    1WF      WF59727   1.729   4.435   0.030 -0.1266 -0.1326 -0.1623
    1WF      WF59728  17.628   8.547   8.052  0.1383 -0.3597 -0.1144
    1WF      WF59729  11.242  26.836   8.507  0.0958 -0.4645  0.2903
    1WF      WF59730   5.753   1.169   9.080  0.1098  0.0566  0.1860
    1WF      WF59731   6.997  21.299   9.603  0.2628  0.3576 -0.1634
    1WF      WF59732  27.934  10.869   7.858  0.1506  0.2308  0.2748
    1WF      WF59733   3.592  25.121   6.772 -0.0678  0.0348 -0.1113
    1WF      WF59734  18.885  26.260   2.428 -0.3829  0.1045 -0.0643
    1WF      WF59735  27.209  18.980   7.699  0.2083  0.1010  0.1162
    1WF      WF59736   8.414   3.563   3.371  0.1108  0.0252  0.0892
    1WF      WF59737  21.421  18.512   2.111 -0.0082 -0.1054  0.0763
    1WF      WF59738  21.983  13.408   0.260  0.2600 -0.2379  0.2365
    1WF      WF59739   2.818  20.560   8.050  0.2188  0.0079 -0.1481
    1WF      WF59740   1.446   4.624   6.246  0.2352  0.4310 -0.2467
    1WF      WF59741   5.598  14.316   0.076 -0.2032  0.0172  0.0906
    1WF      WF59742  22.117   3.520   1.166 -0.1188  0.1027  0.0062
    1WF      WF59743  17.138  15.160   0.422 -0.1446 -0.2122  0.0520
    1WF      WF59744  14.509   7.768   7.389  0.1400  0.1486 -0.1274
    1WF      WF59745  24.183   3.388   9.224  0.0801  0.4637 -0.2188
    1WF      WF59746  25.972  15.281   0.110  0.0159 -0.4631  0.0859
    1WF      WF59747  19.879   5.378   8.328  0.0872 -0.1385  0.2740
    1WF      WF59748  15.277  15.505   0.579 -0.4925  0.1638  0.1235
    1WF      WF59749   9.581  11.904   8.814  0.0375 -0.0245  0.1732
    1WF      WF59750  27.028  17.309   7.180 -0.1512  0.0677 -0.2602
    1WF      WF59751   5.484  13.446   0.236  0.2356  0.2152  0.1183
    1WF      WF59752   2.785   5.386   2.721  0.1212 -0.0427  0.0692
    1WF      WF59753  10.162  20.662   2.029  0.0271 -0.0899  0.1478
    1WF      WF59754   0.918  17.889   6.751 -0.2445 -0.1534 -0.1420
    1WF      WF59755  14.400  23.867   7.360 -0.2320  0.2023 -0.2428
    1WF      WF59756  20.502  18.496   0.285  0.1442 -0.2932 -0.1656
    1WF      WF59757   5.028   7.805   0.220 -0.0147 -0.2865  0.1558
    1WF      WF59758   1.453  13.646   8.178  0.1281  0.0106  0.2138
    1WF      WF59759  19.144  21.122   8.644  0.1414 -0.2466  0.1361
    1WF      WF59760  16.668  14.604   9.472  0.1407  0.1064 -0.1033
    1WF      WF59761  15.803  27.866   0.097 -0.1522  0.0954  0.2017
    1WF      WF59762   1.048   9.055   1.585 -0.0007 -0.1625 -0.1904
    1WF      WF59763  18.222  28.702   1.937  0.0947 -0.0919  0.2335
    1WF      WF59764  24.213   1.905   7.983  0.2268 -0.1193 -0.1253
    1WF      WF59765  10.173  10.797   2.270 -0.1040  0.0490 -0.2828
    1WF      WF59766  21.035   8.633   0.132 -0.6698  0.0255  0.0150
    1WF      WF59767   8.273  18.235   0.807  0.1296  0.1650  0.2513
    1WF      WF59768   5.284   1.873   1.074 -0.2240  0.1831 -0.0071
    1WF      WF59769  10.034   1.337   2.109  0.1392 -0.0054 -0.0259
    1WF      WF59770   3.560  27.800   2.802 -0.0864 -0.3084 -0.0593
    1WF      WF59771   9.363  13.867   9.185 -0.3539  0.1984 -0.0020
    1WF      WF59772  17.997  16.252   0.782 -0.0057  0.1557  0.0180
    1WF      WF59773   1.511   8.399   2.189 -0.0212 -0.1048 -0.2180
    1WF      WF59774  28.094  21.358   7.819  0.0463  0.0782 -0.0135
    1WF      WF59775   0.185   6.019   1.269 -0.0714 -0.1667  0.0235
    1WF      WF59776  11.965  16.505   8.967 -0.2199 -0.2756  0.0669
    1WF      WF59777  14.666  27.161   9.167  0.1701 -0.2118  0.3837
    1WF      WF59778  20.978  24.553   2.065  0.1399 -0.1942 -0.1353
    1WF      WF59779  10.372  20.298   8.090  0.2366  0.0447  0.3419
    1WF      WF59780  15.658   0.486   0.729 -0.1399  0.2142 -0.2562
    1WF      WF59781  12.081  26.295   3.793  0.2916 -0.0101 -0.0078
    1WF      WF59782  20.102  28.491   0.156 -0.0227 -0.0104 -0.0360
    1WF      WF59783  17.797   6.511   0.552 -0.1548 -0.0593  0.0381
    1WF      WF59784  12.511  15.819   9.123  0.2366  0.0372  0.2088
    1WF      WF59785  22.418   5.206   1.628  0.0758  0.0541 -0.1360
    1WF      WF59786   7.559  26.666   8.602  0.0460  0.1212 -0.1697
    1WF      WF59787   8.712  17.786   8.945  0.2362  0.0169  0.1664
    1WF      WF59788   9.620   0.703   7.589 -0.1000 -0.0818 -0.2572
    1WF      WF59789  25.901  25.648   0.627  0.1630  0.0056  0.1695
    1WF      WF59790   4.970  11.893   8.150 -0.2052  0.0312  0.0836
    1WF      WF59791  10.418  19.755   2.335  0.1694 -0.0241  0.1236
    1WF      WF59792  10.466  26.945   0.199 -0.0183  0.2259 -0.1059
    1WF      WF59793  21.683  16.111   1.252 -0.1729  0.0050 -0.0048
    1WF      WF59794  16.471   0.217   1.429  0.3876 -0.1785  0.1903
    1WF      WF59795   9.849  21.431   1.797  0.2564 -0.0064 -0.2562
    1WF      WF59796  13.520   2.504   4.028  0.0964 -0.0938 -0.0362
    1WF      WF59797  28.290  21.630   1.196 -0.0090 -0.3521  0.0014
    1WF      WF59798  16.467   2.053   8.986 -0.2461  0.0985  0.3443
    1WF      WF59799  19.958  25.036   0.560 -0.1932 -0.1680  0.0372
    1WF      WF59800  20.321  16.708   9.399  0.1441 -0.2898  0.2589
    1WF      WF59801  21.251   2.968   8.219 -0.1457  0.0621 -0.1407
    1WF      WF59802   1.173  16.414   9.578  0.2188 -0.0820  0.1529
    1WF      WF59803  25.927  12.833   0.558  0.1003 -0.0010 -0.1243
    1WF      WF59804   6.716  11.202   0.783  0.1462  0.0259  0.0367
    1WF      WF59805  21.083  25.244   8.685  0.0009 -0.5014  0.1937
    1WF      WF59806  25.905   4.412   6.586 -0.1169 -0.1129 -0.0528
    1WF      WF59807  25.464  25.030   3.404 -0.2288 -0.0344 -0.0472
    1WF      WF59808  14.560   5.464   1.021  0.0725 -0.1334  0.1211
    1WF      WF59809  15.874   2.858   7.143 -0.0130  0.2382  0.2467
    1WF      WF59810   7.263  27.795   0.782  0.1000  0.1010  0.1379
    1WF      WF59811   7.643   6.249   8.472 -0.0013  0.0760  0.1941
    1WF      WF59812  20.063  10.729   9.893  0.2652 -0.0741  0.1471
    1WF      WF59813   7.449   3.005   8.744  0.1269 -0.0168 -0.1424
    1WF      WF59814  12.451  17.636   7.731 -0.0720  0.2949  0.0512
    1WF      WF59815   6.216  15.735   9.675 -0.1681  0.1023 -0.2354
    1WF      WF59816  13.884   6.546   0.489  0.0228  0.0317 -0.1552
    1WF      WF59817  22.178  25.432   8.504 -0.3347  0.0586 -0.0118
    1WF      WF59818   5.142  17.833   8.226  0.1391 -0.0981 -0.1245
    1WF      WF59819   5.887  10.981   8.929 -0.1169  0.0576  0.2136
    1WF      WF59820   0.958   2.416   3.268  0.1343 -0.4241  0.1161
    1WF      WF59821  24.122  14.198   1.025 -0.0579  0.1465  0.0997
    1WF      WF59822  17.289  18.586   1.210  0.2020  0.2021 -0.1716
    1WF      WF59823  19.648  25.829   0.169  0.0660 -0.1560  0.2741
    1WF      WF59824  10.625  22.323   5.913 -0.4481  0.0409  0.1262
    1WF      WF59825   2.135  19.711   1.211  0.4563  0.2089 -0.0349
    1WF      WF59826   0.239  12.678   1.249 -0.0878  0.1857  0.1566
    1WF      WF59827  11.409   9.295   1.302 -0.0267 -0.0030  0.1936
    1WF      WF59828  20.258  12.469   6.988  0.3047  0.0910 -0.0686
    1WF      WF59829  18.210   7.640   0.605 -0.0974 -0.0425 -0.0427
    1WF      WF59830  25.896  26.650   1.777 -0.0205  0.2400  0.0696
    1WF      WF59831  28.516   1.892   0.540 -0.0248  0.1566  0.1768
    1WF      WF59832  28.049   8.110   0.099 -0.2560  0.0325 -0.0910
    1WF      WF59833  18.049   3.738   1.229  0.2278 -0.3490 -0.0170
    1WF      WF59834   9.101  26.936   0.889  0.0447  0.0646  0.0489
    1WF      WF59835  16.701  18.842   8.722 -0.0411 -0.0986  0.0130
    1WF      WF59836   6.485  23.629   9.677  0.1132  0.0195 -0.0563
    1WF      WF59837  27.290  10.857   0.703  0.2837  0.2523 -0.0929
    1WF      WF59838  18.537  27.405   1.857  0.1333  0.0340  0.0743
    1WF      WF59839   5.099   4.942   1.055 -0.1803 -0.2146 -0.1244
    1WF      WF59840  13.825   7.749   7.969 -0.1141 -0.1892 -0.0099
    1WF      WF59841   5.612   3.582   1.672 -0.1394 -0.1717 -0.1047
    1WF      WF59842   6.656  24.384   7.249 -0.0979 -0.1239  0.0369
    1WF      WF59843  10.834  13.842   7.537 -0.3178 -0.0278  0.0487
    1WF      WF59844   3.487  18.823   6.828  0.1848  0.0929 -0.1422
    1WF      WF59845  19.263  12.891   1.964 -0.1423 -0.1750 -0.0034
    1WF      WF59846  20.357  19.198   0.065 -0.2195 -0.4112 -0.0700
    1WF      WF59847  28.651  15.741   8.772  0.0698  0.0505  0.1067
    1WF      WF59848  17.681  12.208   0.664 -0.1874  0.2173 -0.0132
    1WF      WF59849  13.408   0.704   1.508 -0.1247  0.3572 -0.0287
    1WF      WF59850  19.084   0.410   0.778  0.0751  0.2693 -0.1639
    1WF      WF59851   5.190   8.952   0.617  0.0969  0.2985  0.0399
    1WF      WF59852  23.161   0.581   2.490 -0.1653  0.0581  0.0118
    1WF      WF59853  21.126  27.720   0.800  0.1409  0.1732  0.0907
    1WF      WF59854   6.201   1.307   9.245 -0.0016 -0.2993  0.2193
    1WF      WF59855  15.908  27.798   2.319 -0.4172 -0.1633 -0.0150
    1WF      WF59856  21.619   7.720   1.860  0.0059  0.1269  0.0104
    1WF      WF59857  24.613   4.027   1.981 -0.1227 -0.1663 -0.2400
    1WF      WF59858  16.670   2.384   1.286 -0.3040 -0.2319  0.1165
    1WF      WF59859  28.329  19.490   1.530 -0.1516 -0.1949  0.1473
    1WF      WF59860  11.171   8.245   0.334  0.0024  0.0054 -0.0893
    1WF      WF59861  15.313  24.265   0.130 -0.0362  0.1220 -0.0501
    1WF      WF59862  11.730   3.071   9.712 -0.0064 -0.0177 -0.1337
    1WF      WF59863  15.602  15.905   9.843 -0.1159  0.0980  0.0284
    1WF      WF59864   3.541   7.574   8.835 -0.0213  0.1594 -0.0270
    1WF      WF59865  25.326  19.055   9.294 -0.0338 -0.1953 -0.0181
    1WF      WF59866  19.879  10.317   8.374  0.0505 -0.0163  0.1572
    1WF      WF59867  11.858  17.243   0.243 -0.0139 -0.2695  0.0756
    1WF      WF59868  10.358  20.099   9.486 -0.0574 -0.2420 -0.0160
    1WF      WF59869  20.489  27.963   8.487 -0.1153  0.1144 -0.2749
    1WF      WF59870  18.028  14.266   0.202  0.1025 -0.0889  0.1814
    1WF      WF59871   1.267  16.303   8.872 -0.1246 -0.4169  0.2334
    1WF      WF59872  15.209   0.275   9.002  0.0639 -0.1836 -0.0251
    1WF      WF59873  25.386  27.945   1.943  0.1982 -0.2096  0.3066
    1WF      WF59874   9.537  26.690   8.456  0.0183  0.0029 -0.2802
    1WF      WF59875  18.500  13.981   9.114 -0.1290  0.0800  0.4038
    1WF      WF59876  21.773  10.938   9.772 -0.3606  0.2353  0.1784
    1WF      WF59877  19.453   2.439   1.055 -0.0915  0.1053 -0.2360
    1WF      WF59878  21.354  17.833   9.650 -0.1432 -0.1407  0.0359
    1WF      WF59879   2.038  26.622   6.438 -0.0344  0.1589  0.0367
    1WF      WF59880  21.028  23.027   9.918  0.1273  0.0087 -0.2998
    1WF      WF59881   5.943  14.158   8.537 -0.2852 -0.2190 -0.1294
    1WF      WF59882  12.007  17.401   9.544  0.0766  0.0949  0.1080
    1WF      WF59883  18.721   1.736   0.723  0.1193 -0.0213  0.1513
    1WF      WF59884  22.194   6.687   9.670  0.0739  0.2810  0.1422
    1WF      WF59885  23.934  22.024   1.391 -0.2893  0.1218 -0.1951
    1WF      WF59886  25.747  14.257   7.538  0.0342  0.0219  0.1050
    1WF      WF59887  16.187   0.032   8.930  0.2584 -0.0494  0.4055
    1WF      WF59888  13.944   0.994   0.173  0.0464  0.0794  0.0434
    1WF      WF59889  11.745   9.695   1.930 -0.2492  0.3382 -0.0299
    1WF      WF59890  12.624   5.912   7.582  0.2417 -0.1307  0.2523
    1WF      WF59891  25.320  17.012   6.045 -0.1679 -0.3083  0.1831
    1WF      WF59892   8.086   1.704   9.336  0.2030 -0.0192  0.1779
    1WF      WF59893   3.935  23.312   7.345  0.1762 -0.1113 -0.5518
    1WF      WF59894  28.342  14.663   0.237  0.3435 -0.3584  0.0282
    1WF      WF59895  22.604   3.548   1.082 -0.2337 -0.2318 -0.4066
    1WF      WF59896  17.781   9.733   8.534  0.1249  0.2407  0.0870
    1WF      WF59897   6.441   5.594   0.266  0.4250  0.1736  0.0251
    1WF      WF59898   9.884  12.174   0.836 -0.1561 -0.0244  0.2290
    1WF      WF59899  25.524  25.052   0.537 -0.0628 -0.1166  0.1691
    1WF      WF59900   0.173  19.665   9.238 -0.2982 -0.1837  0.0627
    1WF      WF59901  28.552   1.948   8.733 -0.2440 -0.2382 -0.0327
    1WF      WF59902  19.559   9.747   9.296  0.1624 -0.2857 -0.0412
    1WF      WF59903  19.221  20.277   0.275 -0.1362 -0.0614  0.0753
    1WF      WF59904   3.210  10.611   1.570  0.0440  0.0455 -0.1748
    1WF      WF59905   8.399   4.626   0.289 -0.1140 -0.0996  0.3821
    1WF      WF59906  27.035  17.983   1.083  0.4193  0.1228  0.2295
    1WF      WF59907  20.177  23.338   9.088  0.1608 -0.0324 -0.0348
    1WF      WF59908   6.410   5.782   9.761 -0.0144  0.0246 -0.1417
    1WF      WF59909  10.428  24.935   9.236  0.1171 -0.1979  0.1998
    1WF      WF59910  23.537  15.493   8.566 -0.2040 -0.0187 -0.0084
    1WF      WF59911   0.254   3.743   3.329  0.0029  0.0079 -0.1660
    1WF      WF59912   7.391  15.265   9.857  0.2499 -0.2125  0.0016
    1WF      WF59913   9.058  13.772   0.168 -0.1164 -0.0233  0.0866
    1WF      WF59914  10.925   5.236   9.056  0.2954 -0.0003  0.0636
    1WF      WF59915   1.200  18.111   7.208  0.0577  0.2467  0.2096
    1WF      WF59916  25.450   6.449   8.729  0.1427 -0.1372  0.0731
    1WF      WF59917  21.417  22.694   0.296 -0.0331 -0.0392 -0.0676
    1WF      WF59918   3.394  20.216   0.363  0.0051 -0.0124 -0.0331
    1WF      WF59919  21.615  11.263   1.684 -0.1016 -0.2180 -0.1556
    1WF      WF59920  20.637   5.222   8.866 -0.0262 -0.2319 -0.0956
    1WF      WF59921   8.182  21.909   8.434 -0.0558 -0.0966  0.1874
    1WF      WF59922   7.160  17.078   5.881  0.0479 -0.0006  0.2497
    1WF      WF59923  16.846  18.827   1.747 -0.0934  0.0185 -0.1505
    1WF      WF59924  21.016  23.099   7.477 -0.3064  0.1673  0.1075
    1WF      WF59925   7.483   1.941   1.306 -0.0845 -0.0848  0.0327
    1WF      WF59926  25.015  20.825   7.140  0.0187  0.0187  0.0876
    1WF      WF59927   6.218   0.558   1.334  0.0623  0.2275 -0.1351
    1WF      WF59928  17.029   5.597   0.563  0.0663 -0.1123  0.1323
    1WF      WF59929  27.300  21.744   8.932  0.1674  0.2338 -0.0936
    1WF      WF59930  13.029  15.154   0.429  0.1133 -0.1537 -0.0580
    1WF      WF59931  12.845  21.999   1.436 -0.1232  0.0118 -0.2897
    1WF      WF59932   1.844   3.818   8.233 -0.1686 -0.0783 -0.2343
    1WF      WF59933  10.393  19.995   8.468 -0.1384  0.2411 -0.0791
    1WF      WF59934   6.238  11.754   9.467  0.3424 -0.0214  0.0980
    1WF      WF59935  14.078  15.541   1.103 -0.0021 -0.0800  0.0323
    1WF      WF59936   3.199   7.498   8.492 -0.1288 -0.1475  0.0438
    1WF      WF59937  19.861   8.139   0.238  0.2972  0.0019  0.0882
    1WF      WF59938  11.998   5.963   1.173 -0.1480 -0.2272  0.0549
    1WF      WF59939  22.780  26.622   0.138  0.0949  0.2374  0.0733
    1WF      WF59940  22.999  28.177   8.391  0.0345 -0.0711 -0.1290
    1WF      WF59941   1.800  14.487   8.580  0.1326  0.1921 -0.1538
    1WF      WF59942   9.909  13.072   0.857  0.1805 -0.2421  0.0926
    1WF      WF59943  17.190  24.690   8.468 -0.1826  0.0525 -0.0453
    1WF      WF59944  27.239   5.583   0.534 -0.4187  0.3937 -0.0399
    1WF      WF59945  22.367   3.279   9.802  0.0629  0.1189 -0.1988
    1WF      WF59946   4.552  16.761   9.779 -0.0618  0.1873  0.0662
    1WF      WF59947   8.346  22.103   0.968 -0.0382 -0.2174  0.3156
    1WF      WF59948   5.464  24.717   7.801  0.2393 -0.0615  0.2190
    1WF      WF59949   9.479  10.284   2.206  0.1271 -0.4024 -0.1109
    1WF      WF59950   3.534   5.536   0.423 -0.2226 -0.0315 -0.0130
    1WF      WF59951   7.535  10.832   1.056  0.0195  0.0355 -0.0735
    1WF      WF59952  24.358  10.714   0.029  0.0599  0.1136 -0.1768
    1WF      WF59953  15.220   8.852   0.161  0.2093  0.0047 -0.0328
    1WF      WF59954   6.768  26.060   9.865 -0.0389  0.1566  0.0106
    1WF      WF59955  21.321  20.183   0.529  0.0576  0.1765  0.0165
    1WF      WF59956   2.422  27.060   0.459 -0.3191  0.3371 -0.2726
    1WF      WF59957  21.098  28.425   2.714  0.1958  0.3460  0.1320
    1WF      WF59958  20.219  18.543   0.710 -0.2169  0.1418 -0.1416
    1WF      WF59959  14.657  16.020   8.396 -0.1913  0.0999 -0.2813
    1WF      WF59960  11.934  12.753   1.503 -0.1086 -0.1124  0.1684
    1WF      WF59961  11.844   9.571   1.450 -0.0567 -0.1587  0.1542
    1WF      WF59962   1.083  11.276   2.073 -0.0838 -0.0822  0.2060
    1WF      WF59963  26.065   7.176   1.117 -0.0076  0.0069  0.0791
    1WF      WF59964  21.378  27.802   0.324 -0.0417 -0.1573  0.2317
    1WF      WF59965   3.167  27.210   7.679 -0.3528  0.1701  0.0248
    1WF      WF59966   3.749  19.811   0.462 -0.2190  0.1081 -0.1497
    1WF      WF59967  22.056   8.031   8.330 -0.0685  0.4397 -0.2426
    1WF      WF59968  11.546  10.960   6.939 -0.0338 -0.3001  0.0344
    1WF      WF59969   7.457  26.082   2.562 -0.2089  0.2151  0.3042
    1WF      WF59970   1.827  12.153   5.849 -0.1045  0.1871  0.0503
    1WF      WF59971  21.401  22.352   1.190  0.0145 -0.2903  0.0338
    1WF      WF59972   9.134  28.592   1.414  0.1251 -0.0986 -0.2036
    1WF      WF59973  12.114   3.860   2.215  0.0180  0.0567  0.0399
    1WF      WF59974   2.478   4.110   9.624  0.2046 -0.0503 -0.1931
    1WF      WF59975   6.119  19.470   1.639  0.2704 -0.2096  0.1655
    1WF      WF59976  18.885  27.708   2.041  0.0178 -0.0234 -0.1482
    1WF      WF59977  27.258  23.399   7.762 -0.0846  0.1818 -0.1858
    1WF      WF59978   8.056  15.139   0.534  0.0094 -0.1561  0.1116
    1WF      WF59979  10.954  16.063   8.793  0.1551  0.2875 -0.4485
    1WF      WF59980   0.100  22.087   0.443 -0.2796 -0.1709  0.1781
    1WF      WF59981  26.859  20.050   1.672  0.3544  0.1543 -0.0498
    1WF      WF59982   2.724  21.914   0.427 -0.0686  0.0875  0.1596
    1WF      WF59983  17.230  10.745   8.004  0.0693  0.1517 -0.1713
    1WF      WF59984   2.360  18.058   7.242 -0.2699  0.2536  0.1062
    1WF      WF59985  14.326   8.845   1.280 -0.0679  0.2016 -0.0286
    1WF      WF59986  18.055   4.619   9.646  0.0492 -0.0769 -0.0089
    1WF      WF59987  27.068  22.319   8.619 -0.0024 -0.2345 -0.3021
    1WF      WF59988   2.586  17.132   6.270 -0.0939 -0.3595  0.0767
    1WF      WF59989  19.666  24.810   1.619  0.0200  0.0306 -0.0684
    1WF      WF59990  18.724  17.922   0.745 -0.0934 -0.0241  0.0310
    1WF      WF59991  27.026  16.938   8.424 -0.0242 -0.0171  0.0774
    1WF      WF59992  23.671   8.023   9.738  0.0426 -0.0816  0.2007
    1WF      WF59993   8.376  25.191   1.036  0.0622  0.1271  0.1692
    1WF      WF59994  22.116   3.028   9.436  0.0280 -0.2409 -0.1959
    1WF      WF59995   3.547  11.467   2.985 -0.1896 -0.2861 -0.1533
    1WF      WF59996   0.627   5.887   8.512  0.0583  0.3452  0.0822
    1WF      WF59997   3.311  12.267   9.367 -0.3025 -0.1072 -0.3099
    1WF      WF59998  24.948  25.573   2.473  0.2029 -0.3052  0.2697
    1WF      WF59999  18.043   0.705   0.119 -0.0276 -0.1821  0.0124
    1WF      WF60000  26.751  16.883   8.009  0.0452  0.0060  0.1928
    1WF      WF60001  13.146   0.134   8.934  0.3374  0.0905  0.0579
    1WF      WF60002   4.429  25.457   0.468  0.1558  0.4875 -0.2638
    1WF      WF60003  16.391   3.909   8.178 -0.1293 -0.1864 -0.0361
    1WF      WF60004   1.820  17.348   1.230  0.1467  0.0033 -0.0122
    1WF      WF60005  18.899   8.061   8.172  0.3814 -0.0851 -0.1069
    1WF      WF60006   5.051   1.907   6.696  0.3580 -0.0872 -0.2947
    1WF      WF60007   4.181  20.614   7.608 -0.0066 -0.3275  0.1981
    1WF      WF60008  28.511  20.609   7.615  0.2053  0.0547  0.2079
    1WF      WF60009  22.129  10.284   0.440  0.2540 -0.1261  0.0531
    1WF      WF60010  22.149  14.749   8.808  0.1728 -0.0340  0.1166
    1WF      WF60011   2.843   3.358   8.755  0.2189 -0.0510  0.0154
    1WF      WF60012  18.957  25.201   9.080 -0.0706  0.1920 -0.1856
    1WF      WF60013  12.094  12.316   0.682 -0.2244 -0.1957  0.0876
    1WF      WF60014   1.937  19.921   7.837  0.1568  0.1160 -0.0645
    1WF      WF60015  22.104  11.503   1.871  0.1834 -0.0664 -0.1143
    1WF      WF60016  17.729  11.248   2.939  0.4803 -0.2374 -0.0168
    1WF      WF60017  22.347   1.092   0.725 -0.2152 -0.1095  0.0038
    1WF      WF60018   1.574  23.832   0.942 -0.0099  0.1582  0.0038
    1WF      WF60019  23.288   6.543   8.859 -0.1689  0.1368  0.0313
    1WF      WF60020  27.582  24.073   8.024  0.1153 -0.2534  0.2079
    1WF      WF60021   2.818  22.923   8.522  0.0047  0.2186 -0.0638
    1WF      WF60022  15.930  11.700   0.642 -0.2489  0.2849  0.1718
    1WF      WF60023  24.570   8.833   0.909  0.3461 -0.0552  0.1067
    1WF      WF60024  11.402   0.973   2.723  0.1403 -0.1785  0.0763
    1WF      WF60025  24.867  10.841   6.189 -0.2525  0.0413 -0.2719
    1WF      WF60026  24.975   2.243   0.823  0.1709  0.1520  0.3311
    1WF      WF60027   2.398  21.438   8.863  0.1653  0.0010 -0.0175
    1WF      WF60028  10.453  26.087   1.022 -0.2671 -0.1027  0.1008
    1WF      WF60029  20.517   6.858   9.807  0.1512  0.1910 -0.0437
    1WF      WF60030   2.240   9.362   2.650  0.1116 -0.0499  0.3497
    1WF      WF60031  19.203  14.971   9.944  0.1252 -0.1454  0.0909
    1WF      WF60032   4.658  21.615   0.901 -0.2409  0.1393 -0.0336
    1WF      WF60033  27.883  23.951   7.129  0.0002  0.0550  0.3085
    1WF      WF60034   3.513   2.881   0.369  0.2933 -0.1372 -0.1883
    1WF      WF60035  28.256  12.033   9.776 -0.0710 -0.2731  0.0025
    1WF      WF60036  25.266  23.694   8.238  0.0842  0.0740 -0.0017
    1WF      WF60037  17.211  20.084   1.427  0.2189 -0.1114  0.0352
    1WF      WF60038   0.077  24.061   8.081  0.0286 -0.2213 -0.3035
    1WF      WF60039  17.072   1.323   1.158  0.1584 -0.2461 -0.0959
    1WF      WF60040   6.663  26.022   9.251  0.0033 -0.1886 -0.1624
    1WF      WF60041  16.572   2.902   1.330  0.1702  0.1340 -0.0314
    1WF      WF60042   5.066  18.594   5.243  0.1595 -0.0048 -0.0606
    1WF      WF60043  23.590   3.993   1.453  0.0752  0.0565 -0.3186
    1WF      WF60044  16.375  27.033   0.862  0.0998 -0.2698  0.1235
    1WF      WF60045   0.887  18.658   1.324  0.0169  0.3561 -0.0182
    1WF      WF60046   1.746  10.307   8.972  0.2659  0.1256  0.4201
    1WF      WF60047   2.509  28.061   1.174 -0.0730 -0.2662  0.2226
    1WF      WF60048  14.441  23.017   9.749 -0.1758 -0.0582 -0.4324
    1WF      WF60049   2.263  18.584   7.139 -0.1383  0.1921 -0.0878
    1WF      WF60050  10.107  20.676   0.448  0.1080 -0.2101  0.1134
    1WF      WF60051   1.758   4.807   1.717 -0.1116 -0.0918 -0.4866
    1WF      WF60052  11.560  27.528   9.140  0.1163  0.0611  0.1190
    1WF      WF60053  22.021  25.942   9.060  0.1132 -0.2534  0.0839
    1WF      WF60054  19.825   6.640   3.336  0.3165 -0.1786  0.1835
    1WF      WF60055   4.921   6.642   0.641 -0.0600  0.2361  0.1307
    1WF      WF60056  20.349  20.995   1.856  0.1362  0.1257  0.0447
    1WF      WF60057  22.672  11.281   3.002 -0.4313 -0.3507 -0.1319
    1WF      WF60058   5.579   7.700   1.450  0.0394  0.2644  0.1066
    1WF      WF60059  22.758   1.516   9.886 -0.1150 -0.0648 -0.1769
    1WF      WF60060   2.272  15.994   8.945 -0.1666 -0.3668 -0.1187
    1WF      WF60061  15.138  10.477   9.252  0.1704 -0.1805 -0.0423
    1WF      WF60062  27.948   9.377   7.407  0.0599 -0.0966  0.1042
    1WF      WF60063   9.524  16.836   0.913 -0.2508  0.2679 -0.0753
    1WF      WF60064  26.351  21.363   9.559 -0.1704 -0.0184  0.1615
    1WF      WF60065  28.646  12.319   8.307 -0.0680 -0.2460 -0.3466
    1WF      WF60066  25.664  18.220   1.206 -0.0319 -0.0962 -0.0836
    1WF      WF60067  20.382  23.811   8.841 -0.0066 -0.1601 -0.0605
    1WF      WF60068  23.117  11.902   9.713  0.1147  0.2632 -0.0044
    1WF      WF60069   6.970  17.780   0.279  0.1319 -0.0407  0.3633
    1WF      WF60070  12.174   1.495   0.699 -0.0441 -0.1023 -0.0300
    1WF      WF60071  20.478  26.512   3.753 -0.2362 -0.2207  0.0891
    1WF      WF60072   8.678   7.752   1.244  0.0704 -0.2238  0.3440
    1WF      WF60073   7.720  15.271   9.341  0.1347  0.2242 -0.0892
    1WF      WF60074  17.746  20.839   1.770 -0.1465 -0.0090  0.0284
    1WF      WF60075   2.964  13.594   0.998 -0.1775  0.0449  0.1747
    1WF      WF60076  20.994   0.392   9.754 -0.0244  0.2639  0.1516
    1WF      WF60077  26.513  23.405   9.890  0.0892 -0.4145  0.0978
    1WF      WF60078  10.036  15.129   9.940 -0.0318 -0.1507  0.3293
    1WF      WF60079  25.701  14.722   7.687 -0.0604 -0.1301 -0.0986
    1WF      WF60080   0.875  15.188   3.101 -0.0582 -0.0587  0.4519
    1WF      WF60081   0.669  21.798   1.888 -0.0036 -0.1173  0.3638
    1WF      WF60082   4.575  15.515   7.956  0.2264  0.1308 -0.0855
    1WF      WF60083  21.898  21.782   0.132  0.0790  0.0735 -0.2357
    1WF      WF60084  17.256   0.701   7.611 -0.1124 -0.0045 -0.1172
    1WF      WF60085  21.741  27.771   9.950 -0.3278  0.1032 -0.1628
    1WF      WF60086  11.541   1.659   9.227 -0.0391  0.2440 -0.0505
    1WF      WF60087  27.536  24.186   2.990  0.2960  0.2293  0.0542
    1WF      WF60088  28.257  23.846   1.757  0.0273  0.2372 -0.0105
    1WF      WF60089   8.053  24.018   8.888 -0.2005  0.1805 -0.0766
    1WF      WF60090  15.155   2.917   8.906  0.2152  0.0910 -0.1761
    1WF      WF60091  20.809  20.457   1.910 -0.0120 -0.0548 -0.1852
    1WF      WF60092  15.776   1.112   2.301  0.0785 -0.3257  0.0391
    1WF      WF60093  27.473   9.659   8.037  0.2274  0.2869 -0.1544
    1WF      WF60094   9.234   2.319   0.927  0.1217 -0.0199 -0.4234
    1WF      WF60095  18.070  11.017   2.338 -0.0963  0.1919 -0.1760
    1WF      WF60096  28.017  11.272   5.928  0.2137 -0.0694 -0.1626
    1WF      WF60097  19.038   9.185   1.584  0.1336  0.2428  0.4989
    1WF      WF60098  15.645   1.598   2.533  0.0659 -0.0131 -0.4077
    1WF      WF60099  18.676  10.418   9.022 -0.4765  0.0708 -0.1128
    1WF      WF60100  21.364  19.048   2.200  0.0082  0.1563 -0.0910
    1WF      WF60101  13.590  28.014   0.471 -0.0568  0.0996 -0.3292
    1WF      WF60102   1.461   4.162   8.457 -0.0053  0.0243  0.4955
    1WF      WF60103  25.613  12.390   0.002  0.0119  0.0496  0.1206
    1WF      WF60104  20.514   3.196   8.306 -0.1652  0.0101  0.0809
    1WF      WF60105  27.684   9.826   0.866 -0.2476  0.1896 -0.0861
    1WF      WF60106  18.951  25.847   8.519 -0.0433  0.2110 -0.0185
    1WF      WF60107  20.229  17.521   3.041 -0.1983  0.3019 -0.1769
    1WF      WF60108   8.534  11.835   0.372 -0.1925 -0.2361 -0.0945
    1WF      WF60109  21.716  25.825   0.395 -0.0395  0.1759  0.1044
    1WF      WF60110  12.094   8.061   0.346 -0.1816  0.3606  0.3012
    1WF      WF60111  10.998  16.827   9.636 -0.1233  0.0920 -0.2190
    1WF      WF60112  12.715  15.486   8.343  0.0596  0.0357  0.0252
    1WF      WF60113  12.632   8.946   1.002  0.4697  0.0433  0.0582
    1WF      WF60114  23.381  14.125   9.756 -0.2107  0.2437  0.0306
    1WF      WF60115  10.239  27.784   1.604 -0.0357 -0.0949  0.0184
    1WF      WF60116  25.938   3.063   1.825 -0.1385  0.0268 -0.0449
    1WF      WF60117  27.392  10.119   0.615 -0.0935 -0.0643  0.3479
    1WF      WF60118   9.652  17.302   0.907  0.1613 -0.0663 -0.0246
    1WF      WF60119  10.439   1.116   7.312  0.1704  0.1571 -0.2440
    1WF      WF60120  28.353  28.449   1.297  0.4928 -0.1245 -0.2741
    1WF      WF60121  16.528   5.206   1.878 -0.0040  0.2291  0.1358
    1WF      WF60122  14.728  25.426   0.187  0.0414 -0.3656  0.2812
    1WF      WF60123  12.362  22.068   1.548 -0.2736 -0.1482 -0.1989
    1WF      WF60124  21.615  23.299   8.162 -0.1986 -0.0275 -0.0071
    1WF      WF60125  18.995  24.142   0.495  0.0880  0.0397 -0.0160
    1WF      WF60126  14.100  15.889   9.051 -0.2587 -0.0958 -0.1654
    1WF      WF60127   2.481  18.158   8.933 -0.1966 -0.0048  0.1233
    1WF      WF60128   4.665   2.352   3.582 -0.2007  0.0168  0.0454
    1WF      WF60129   1.325  13.056   8.331  0.0020 -0.0317  0.0653
    1WF      WF60130  22.936  24.224   9.437 -0.2070  0.0423  0.2450
    1WF      WF60131   6.598  16.832   0.215  0.1461 -0.1067  0.1012
    1WF      WF60132   0.206  13.346   6.044 -0.1389  0.3449 -0.0138
    1WF      WF60133  19.832   5.458   9.860  0.1031  0.2282 -0.1947
    1WF      WF60134   5.585   4.227   0.047  0.1621 -0.3128  0.4178
    1WF      WF60135  13.066  17.531   0.895  0.2389 -0.2064 -0.1184
    1WF      WF60136  23.033  13.100   8.584 -0.0475  0.0222  0.0023
    1WF      WF60137  18.349   5.050   8.097  0.1115 -0.1286 -0.0531
    1WF      WF60138   2.811  28.415   0.414  0.2587  0.5922  0.1036
    1WF      WF60139  12.925   7.777   2.032 -0.1875  0.0302  0.0050
    1WF      WF60140  14.706   1.724   0.956 -0.1823  0.0945 -0.1611
    1WF      WF60141   5.836  19.794   1.390 -0.3617  0.1227  0.0063
    1WF      WF60142  16.618   8.158   8.796 -0.2693 -0.3595 -0.2102
    1WF      WF60143  20.572  25.706   6.673  0.1037 -0.2544 -0.2315
    1WF      WF60144   6.820  17.322   0.209  0.1302 -0.3154 -0.0225
    1WF      WF60145  12.731   6.181   0.315  0.0360 -0.0465  0.0806
    1WF      WF60146  17.403   0.434   8.015  0.0177 -0.0224 -0.0780
    1WF      WF60147  28.600   3.935   8.199 -0.0633  0.2261  0.1438
    1WF      WF60148  17.958   6.099   1.474  0.3644  0.3309  0.2420
    1WF      WF60149  22.523  23.919   9.657 -0.0088 -0.0095 -0.0451
    1WF      WF60150  10.899   9.804   0.814 -0.1376 -0.2126  0.4307
    1WF      WF60151   4.994   0.059   7.861 -0.1685  0.1807  0.0941
    1WF      WF60152  20.126  11.929   0.832  0.2718  0.2038 -0.0617
    1WF      WF60153  26.891  14.947   8.741 -0.3771  0.0236  0.2275
    1WF      WF60154  14.281   7.090   2.190  0.0718 -0.1844 -0.0021
    1WF      WF60155  25.814  13.323   7.823  0.1765  0.0390  0.0741
    1WF      WF60156  27.748  12.200   9.737 -0.1256 -0.0553  0.1090
    1WF      WF60157  27.185  25.322   9.402 -0.0763  0.0228 -0.1837
    1WF      WF60158   8.537  26.170   8.112  0.0376 -0.0422 -0.2422
    1WF      WF60159  16.818  22.553   0.382 -0.0017 -0.2269 -0.0441
    1WF      WF60160   8.559   9.469   7.505  0.0126 -0.1726  0.0765
    1WF      WF60161  25.295  19.502   7.987 -0.0698  0.0583 -0.0396
    1WF      WF60162  28.028   2.011   0.462  0.0921 -0.1108 -0.0524
    1WF      WF60163  27.912   5.694   1.208  0.2317 -0.2071 -0.0354
    1WF      WF60164  21.462  22.187   6.385  0.1311 -0.0395 -0.1222
    1WF      WF60165  25.844  13.424   1.426 -0.2123  0.0011 -0.0578
    1WF      WF60166   6.117  11.454   1.791 -0.2787 -0.0029 -0.3038
    1WF      WF60167  12.936  27.828   2.966 -0.4470 -0.1420 -0.2196
    1WF      WF60168  21.703   6.541   9.665  0.0018  0.1814 -0.1064
    1WF      WF60169  22.742   0.744   8.983 -0.2437  0.0097 -0.3403
    1WF      WF60170  20.579  25.151   6.476  0.1598 -0.1375  0.1468
    1WF      WF60171  27.826  17.153   0.865  0.1373  0.3816 -0.3218
    1WF      WF60172  10.243  11.498   0.064 -0.1120  0.1803  0.0561
    1WF      WF60173  17.517  24.191   8.468  0.1236  0.0664 -0.0340
    1WF      WF60174   6.521  11.621   9.063 -0.0738  0.0697 -0.4341
    1WF      WF60175  19.548  12.001   6.222 -0.1784  0.1558  0.2199
    1WF      WF60176   1.926  18.833   6.849 -0.0418  0.0353 -0.1461
    1WF      WF60177   7.425   1.778   7.449 -0.1437  0.0868  0.2286
    1WF      WF60178  22.016   5.708   3.158 -0.0934  0.1806  0.1550
    1WF      WF60179  24.281   5.226   8.344 -0.0367 -0.1859 -0.1051
    1WF      WF60180  18.509   5.186   0.682 -0.0192  0.1559  0.2275
    1WF      WF60181  27.430   0.658   7.661 -0.2593 -0.0761  0.2494
    1WF      WF60182  23.349  12.273   1.103  0.2724  0.0136 -0.3113
    1WF      WF60183  14.992  21.159   9.892 -0.0309  0.0066  0.0196
    1WF      WF60184   2.705  23.697   1.595 -0.1203 -0.1791  0.0863
    1WF      WF60185  23.397   8.485   1.428  0.2181 -0.1528 -0.0467
    1WF      WF60186  24.829  26.009   2.296 -0.3928 -0.2592  0.0252
    1WF      WF60187  25.935   9.457   0.839 -0.1818  0.1595  0.1544
    1WF      WF60188   7.197  28.071   3.531 -0.0226 -0.1672 -0.0465
    1WF      WF60189  16.026  22.465   9.852  0.2301  0.0454  0.2152
    1WF      WF60190   2.971  11.956   0.788 -0.1603  0.1559 -0.0646
    1WF      WF60191  16.417   5.669   1.258  0.1275 -0.0467  0.3842
    1WF      WF60192  23.908   5.389   8.056 -0.1291  0.1068 -0.0734
    1WF      WF60193  27.252  28.622   8.690  0.1014  0.1313 -0.4605
    1WF      WF60194  19.164  26.860   1.742 -0.1881  0.0849 -0.0812
    1WF      WF60195  21.666  10.466   0.210  0.1963  0.0180 -0.3402
    1WF      WF60196   0.719  21.026   0.450 -0.0713  0.1680  0.3396
    1WF      WF60197  17.306   6.867   0.597 -0.0051 -0.2531 -0.2968
    1WF      WF60198   8.773  17.693   0.124  0.1189  0.0140  0.2751
    1WF      WF60199  17.197   7.137   1.028 -0.0569 -0.0378  0.0666
    1WF      WF60200  15.879   4.640   2.265 -0.0588 -0.1939  0.0789
    1WF      WF60201   1.064  14.050   9.738 -0.1985 -0.2605  0.2406
    1WF      WF60202  21.230  21.001   8.900  0.0448 -0.0145 -0.0370
    1WF      WF60203   8.943   5.610   9.055 -0.0989 -0.0921  0.0733
    1WF      WF60204   7.901   4.881   7.551 -0.1762  0.1396  0.0511
    1WF      WF60205  22.726   8.668   8.167  0.0207 -0.2582 -0.0346
    1WF      WF60206  11.231   2.732   1.453  0.1169 -0.0076 -0.0632
    1WF      WF60207   0.965  22.143   6.461 -0.4532  0.0167  0.0286
    1WF      WF60208  22.747   4.238   7.557  0.1209  0.2585 -0.0933
    1WF      WF60209  23.290  19.816   1.451  0.1450 -0.1013 -0.1357
    1WF      WF60210  13.655  24.334   1.217  0.0256 -0.0063  0.1525
    1WF      WF60211  25.946   6.505   0.562  0.0597  0.1533  0.2757
    1WF      WF60212   0.408   3.864   2.025  0.4222 -0.3181 -0.1680
    1WF      WF60213  11.162  25.829   7.391 -0.1223 -0.0803  0.0106
    1WF      WF60214  11.850  20.768   0.138  0.0505  0.2152 -0.1374
    1WF      WF60215  20.831  11.158   2.404 -0.2517  0.1159  0.1508
    1WF      WF60216  18.575   7.248   2.144  0.0755 -0.0043  0.1027
    1WF      WF60217  25.478  28.443   2.065 -0.1588 -0.0405  0.0364
    1WF      WF60218   4.369  22.925   0.169  0.0515  0.2783  0.2455
    1WF      WF60219   4.810   1.775   9.128  0.1456 -0.2542  0.3702
    1WF      WF60220  20.622  26.224   1.503  0.2200  0.2215 -0.2158
    1WF      WF60221  17.701  16.985   8.782 -0.0513  0.2316  0.1503
    1WF      WF60222   6.595  18.754   7.013 -0.0053  0.2208 -0.0253
    1WF      WF60223   9.635  17.163   8.730  0.1685 -0.5306  0.1428
    1WF      WF60224  14.922   3.637   9.836 -0.1003  0.0428 -0.0171
    1WF      WF60225  16.594  15.785   1.787  0.2197 -0.2345  0.0032
    1WF      WF60226  17.198   1.313   0.689  0.0884  0.1668  0.1123
    1WF      WF60227  25.984  18.490   0.896  0.0955 -0.2342  0.3952
    1WF      WF60228   0.720  12.748   6.990  0.0669  0.2091  0.1368
    1WF      WF60229  12.476  15.854   8.582 -0.0858 -0.0809  0.1957
    1WF      WF60230   4.122  23.028   0.610 -0.1019 -0.0959  0.0422
    1WF      WF60231   4.810   6.934   8.309 -0.1283 -0.0355  0.4143
    1WF      WF60232  23.339  19.357   9.011 -0.2621 -0.2015 -0.0498
    1WF      WF60233  11.896   7.371   9.526 -0.1803  0.2111 -0.0891
    1WF      WF60234   9.249  11.740   8.298 -0.0611  0.0389  0.1814
    1WF      WF60235  26.061  12.531   0.202 -0.2812 -0.2495 -0.1032
    1WF      WF60236  14.819   2.215   0.685  0.2976  0.0520  0.1730
    1WF      WF60237  26.500  19.789   1.510 -0.3504 -0.1548 -0.0678
    1WF      WF60238  16.340  17.914   0.219 -0.2511  0.2667 -0.0623
    1WF      WF60239  20.389  26.577   1.131 -0.0928  0.1082  0.1048
    1WF      WF60240  28.063   4.837   9.415 -0.0365  0.2333  0.0869
    1WF      WF60241  21.417  27.486   8.611 -0.2888  0.1402 -0.0036
    1WF      WF60242   8.317   8.031   1.093 -0.2516  0.0799  0.0354
    1WF      WF60243   7.949   1.859   1.234  0.1499 -0.0965 -0.0135
    1WF      WF60244  23.866   4.994   8.387  0.2257 -0.2616 -0.1854
    1WF      WF60245  10.405   2.881   2.787 -0.2929  0.1580  0.1751
    1WF      WF60246   1.674   9.212   9.337  0.0040  0.0658 -0.0700
    1WF      WF60247  24.776   2.761   8.719 -0.1187 -0.1396 -0.2733
    1WF      WF60248  18.152  23.799   9.160 -0.1362  0.0848 -0.1858
    1WF      WF60249  26.073   0.173   0.416 -0.1347  0.1128 -0.0745
    1WF      WF60250   0.075  28.411   0.957 -0.0908 -0.0248  0.0448
    1WF      WF60251  16.306   1.304   8.393  0.2521  0.1718 -0.4488
    1WF      WF60252  24.620  25.186   2.737  0.2183  0.0546  0.3062
    1WF      WF60253  18.079  13.823   0.469  0.0116 -0.0338  0.0619
    1WF      WF60254  15.140  14.235   0.824 -0.0376  0.1237  0.2406
    1WF      WF60255  19.268  10.774   1.739 -0.1088 -0.1182  0.0738
    1WF      WF60256   8.181  21.682   5.983 -0.0257 -0.0270  0.4254
    1WF      WF60257  17.957  25.422   1.671  0.1189  0.0296 -0.0924
    1WF      WF60258  28.014  18.490   8.730  0.3880 -0.0505 -0.0965
    1WF      WF60259  10.256  19.716   8.125  0.0161 -0.1087  0.2165
    1WF      WF60260   0.809   1.961   8.932 -0.1232 -0.0352 -0.0242
    1WF      WF60261  16.219  14.549   9.640  0.1395  0.3932 -0.1610
    1WF      WF60262  25.700   1.471   8.628 -0.1633  0.0505  0.0204
    1WF      WF60263   0.199  23.249   9.237  0.4030  0.0409 -0.0880
    1WF      WF60264  19.301  25.464   7.809 -0.1883 -0.1261  0.3514
    1WF      WF60265  26.235   3.105   8.469 -0.0335  0.1165  0.1298
    1WF      WF60266   5.887  13.377   9.106  0.1470  0.2729 -0.0501
    1WF      WF60267  22.236  22.750   8.973 -0.0894  0.1420  0.0805
    1WF      WF60268  22.617  22.520   0.134 -0.4118  0.5101 -0.2687
    1WF      WF60269  13.944  18.207   1.851  0.1764 -0.0167 -0.2415
    1WF      WF60270  25.132   3.342   2.457 -0.1434 -0.0799 -0.2936
    1WF      WF60271   3.824  18.526   5.752 -0.0502 -0.0356 -0.1095
    1WF      WF60272  26.334   8.527   7.300 -0.2126  0.4231 -0.0578
    1WF      WF60273   4.992  14.007   1.512 -0.0973  0.0894 -0.0943
    1WF      WF60274  19.045   1.610   1.080  0.0320  0.0590  0.1281
    1WF      WF60275  26.274   1.245   0.848  0.0477 -0.2135 -0.1179
    1WF      WF60276  28.709  16.077   6.174  0.3943  0.1715  0.0195
    1WF      WF60277   0.495   5.687   0.225 -0.3187  0.0949  0.3728
    1WF      WF60278   1.108  11.566   7.324 -0.6098  0.0465  0.0197
    1WF      WF60279  12.831  21.215   9.454  0.2556  0.1452 -0.2811
    1WF      WF60280  23.600  15.036   9.088  0.0630  0.2209 -0.0682
    1WF      WF60281   4.532   3.575   1.110  0.3008 -0.0774 -0.1965
    1WF      WF60282  20.934   4.625   8.112 -0.1056 -0.0285 -0.1336
    1WF      WF60283  25.650  23.651   8.518  0.2656 -0.2444 -0.3211
    1WF      WF60284  14.761  14.029   0.577 -0.1739  0.1391  0.0597
    1WF      WF60285  13.966   7.263   1.815  0.1216  0.3448  0.1731
    1WF      WF60286   2.925  24.344   1.303 -0.0235 -0.2895 -0.1689
    1WF      WF60287   0.149  22.037   9.210 -0.0525 -0.1548 -0.0758
    1WF      WF60288  19.498  17.390   2.237  0.1370  0.0900  0.4439
    1WF      WF60289  20.469  23.620   3.964 -0.0399 -0.1859 -0.1751
    1WF      WF60290   4.646  24.941   0.571 -0.0844  0.2842 -0.0622
    1WF      WF60291   8.854   0.015   3.016 -0.1581  0.0511 -0.0269
    1WF      WF60292  20.297  25.988   1.823  0.2188  0.0578 -0.0211
    1WF      WF60293  28.116  22.711   0.561  0.0917  0.0851 -0.1302
    1WF      WF60294   2.065  24.954   1.367 -0.3729  0.0867 -0.0669
    1WF      WF60295  14.254  24.230   8.488  0.1602 -0.1402 -0.3024
    1WF      WF60296  17.418   5.749   9.157 -0.1639  0.0054 -0.0467
    1WF      WF60297  25.850   4.756   1.094 -0.0653  0.2149 -0.1562
    1WF      WF60298  17.197  19.564   1.342  0.0603 -0.1837  0.0216
    1WF      WF60299  26.344   3.800   0.484  0.6272 -0.0429  0.2781
    1WF      WF60300   4.687  23.152   0.497  0.1643  0.1633 -0.1789
    1WF      WF60301   7.686  19.834   6.709 -0.4704  0.0318  0.0853
    1WF      WF60302  16.457   5.671   1.741 -0.0789 -0.2865  0.0722
    1WF      WF60303   1.902   9.316   0.197 -0.0718  0.0247  0.0351
    1WF      WF60304   1.334  23.519   9.368  0.0068 -0.0026 -0.1786
    1WF      WF60305   1.859  10.769   8.704  0.1555  0.1176  0.0898
    1WF      WF60306  19.327  13.978   8.634  0.0789  0.1945  0.1612
    1WF      WF60307  27.615  16.602   1.034 -0.1074  0.0065  0.2243
    1WF      WF60308  11.281  26.264   9.781 -0.3916 -0.0860 -0.1442
    1WF      WF60309  28.218  21.808   7.701 -0.0444 -0.1267  0.0159
    1WF      WF60310   2.362  22.676   8.513  0.0444  0.3315  0.1833
    1WF      WF60311   0.521   6.171   8.846 -0.0224 -0.1677 -0.1232
    1WF      WF60312  15.051  19.208   0.495 -0.2481 -0.0641  0.2092
    1WF      WF60313  21.331  15.840   1.557  0.1944 -0.2544  0.0849
    1WF      WF60314  15.152  27.668   0.145  0.0594 -0.1421 -0.2249
    1WF      WF60315   2.854   7.810   8.100  0.2499 -0.1015  0.0813
    1WF      WF60316  23.964  26.642   2.539  0.0824  0.1982 -0.0637
    1WF      WF60317   9.473   5.166   1.428 -0.2712  0.2479  0.0279
    1WF      WF60318  26.931  27.356   1.093  0.2269 -0.2556 -0.1334
    1WF      WF60319  25.234  13.930   9.027 -0.0763 -0.2215  0.1278
    1WF      WF60320   1.022   7.542   7.181  0.0279 -0.1441 -0.1274
    1WF      WF60321   6.070   3.344   1.410 -0.1238  0.4007 -0.0193
    1WF      WF60322  18.610   0.274   2.013  0.0192 -0.1225 -0.0591
    1WF      WF60323   1.359   6.119   1.202 -0.0753 -0.0423 -0.0714
    1WF      WF60324   7.390  16.264   1.452  0.0699 -0.2050  0.0353
    1WF      WF60325  13.738  24.207   1.691  0.0060  0.1597 -0.0467
    1WF      WF60326   3.547  21.571   7.596  0.0130  0.1578 -0.1375
    1WF      WF60327  21.100  13.044   8.908 -0.3023  0.1330 -0.0673
    1WF      WF60328   0.644  28.434   2.539  0.0308 -0.2850  0.1401
    1WF      WF60329  21.196  16.397   9.124 -0.0457  0.0278 -0.1231
    1WF      WF60330   4.405  24.968   6.014  0.2458 -0.0067  0.0738
    1WF      WF60331  24.090   6.884   9.052 -0.1562  0.2086 -0.3958
    1WF      WF60332  18.291  24.801   0.211  0.3602 -0.3528 -0.0757
    1WF      WF60333   9.995   1.288   1.609  0.1578 -0.0383  0.4554
    1WF      WF60334  21.463   9.813   8.911 -0.4571  0.2184  0.3183
    1WF      WF60335  17.121   1.112   1.620  0.0777  0.1097 -0.1194
    1WF      WF60336  14.356  16.319   9.293  0.3358  0.0610 -0.2446
    1WF      WF60337  21.370  12.978   1.987  0.0371  0.4057 -0.1175
    1WF      WF60338   9.816  27.770   8.707  0.0984  0.0458  0.0817
    1WF      WF60339   4.144  27.491   9.531  0.1117  0.2376  0.0271
    1WF      WF60340   1.043  27.062   1.504  0.0686  0.0606  0.2087
    1WF      WF60341  26.496   5.424   9.236 -0.1217  0.0195 -0.1342
    1WF      WF60342  26.168   7.739   1.008  0.0387  0.2029 -0.1967
    1WF      WF60343  21.242  15.151   0.107  0.4794 -0.0798  0.0291
    1WF      WF60344  28.277  19.063   1.230  0.0019  0.0902  0.0812
    1WF      WF60345   4.518  14.150   7.086 -0.1164  0.0734  0.1717
    1WF      WF60346  27.980   2.730   8.076  0.0919  0.1310 -0.1950
    1WF      WF60347   5.614  25.081   8.348  0.2912  0.2131  0.1695
    1WF      WF60348  22.986  12.578   1.066 -0.2199  0.1314 -0.1854
    1WF      WF60349  12.676  24.321   8.625  0.1937 -0.5455 -0.1366
    1WF      WF60350  12.281  18.465   7.785 -0.1795 -0.1346  0.1433
    1WF      WF60351  16.802  24.447   7.002  0.0034  0.1728 -0.0658
    1WF      WF60352  21.800  25.511   9.358 -0.0973  0.1070 -0.0221
    1WF      WF60353  16.559  27.660   9.082  0.0771  0.0680  0.1316
    1WF      WF60354  18.002  22.228   9.667 -0.0884  0.1955 -0.0530
    1WF      WF60355  14.038   2.361   9.729 -0.1613  0.3355 -0.0805
    1WF      WF60356  14.940  22.134   0.453  0.3209 -0.2491  0.1245
    1WF      WF60357   3.631   2.632   2.030  0.3138 -0.2608 -0.1104
    1WF      WF60358   4.555   5.159   1.070 -0.1877 -0.1379  0.1426
    1WF      WF60359  14.037  17.757   1.564  0.1460  0.0009 -0.2168
    1WF      WF60360   2.820  18.320   7.335  0.0407  0.0876  0.0140
    1WF      WF60361  18.042  14.695   9.846  0.1461 -0.1418  0.1122
    1WF      WF60362   1.912  26.211   9.015 -0.4006  0.0680 -0.0422
    1WF      WF60363   5.411  13.532   2.979 -0.0026 -0.0870  0.0705
    1WF      WF60364   2.868   6.302   1.962  0.2415 -0.1160  0.2281
    1WF      WF60365   0.277  12.883   1.708 -0.2701 -0.1592  0.1482
    1WF      WF60366  24.952  27.666   9.921 -0.1429  0.0323  0.1257
    1WF      WF60367  14.696  13.885   9.282  0.0773 -0.0416  0.1861
    1WF      WF60368  17.251   9.032   0.805 -0.2210 -0.2398 -0.0821
    1WF      WF60369   0.879   1.775   0.362 -0.2493  0.0926  0.1126
    1WF      WF60370  18.856   9.636   1.919 -0.0726  0.2255 -0.0342
    1WF      WF60371  15.396  17.475   0.172  0.0833 -0.1844  0.0266
    1WF      WF60372  18.521   7.298   2.629 -0.1001 -0.1140 -0.0910
    1WF      WF60373   6.418   7.855   2.444  0.3462  0.2094  0.1409
    1WF      WF60374  20.199   7.586   0.479 -0.1754 -0.2495  0.0542
    1WF      WF60375   0.134  24.498   8.341 -0.0967 -0.1318  0.0226
    1WF      WF60376  14.833   7.391   0.709 -0.2634  0.2312 -0.3795
    1WF      WF60377  27.161  26.551   7.433 -0.1002 -0.0204 -0.0094
    1WF      WF60378  23.806  20.903   6.836 -0.2690  0.0219 -0.0884
    1WF      WF60379   6.946  17.179   8.530 -0.0999  0.2565 -0.3075
    1WF      WF60380  14.384  15.555   0.705 -0.0194 -0.0041 -0.2501
    1WF      WF60381  24.839  13.002   9.601 -0.1111  0.1147 -0.1538
    1WF      WF60382  25.229  27.417   1.948  0.0378  0.0607  0.0860
    1WF      WF60383   4.436  10.584   0.905  0.2507  0.0757  0.1077
    1WF      WF60384  14.507  17.225   0.175 -0.1421  0.1747 -0.3317
    1WF      WF60385   3.888  22.761   0.179  0.0378 -0.0461  0.1299
    1WF      WF60386   0.959   3.413   7.589  0.0376 -0.1112 -0.0157
    1WF      WF60387  14.385  24.479   8.031  0.2962  0.0143 -0.4137
    1WF      WF60388  13.783   4.886   3.933  0.0549  0.0552 -0.1873
    1WF      WF60389   6.471   6.125   0.193  0.3465 -0.3049  0.1803
    1WF      WF60390  24.359   1.267   7.981 -0.2621  0.0751 -0.0994
    1WF      WF60391   3.633  22.411   6.917 -0.0905  0.2999  0.0229
    1WF      WF60392  22.051   6.001   2.352 -0.1002  0.0287 -0.1284
    1WF      WF60393  22.889  21.689   6.623  0.1512 -0.0200  0.2231
    1WF      WF60394   2.185   4.570   0.247  0.0806  0.0272 -0.2362
    1WF      WF60395  14.908   7.024   9.882  0.1541 -0.1728 -0.1961
    1WF      WF60396  15.291  26.406   3.501 -0.0268  0.1985 -0.1275
    1WF      WF60397  17.378  18.528   8.136 -0.0283 -0.1535  0.0576
    1WF      WF60398  10.304  17.856   7.876  0.0523 -0.1873 -0.0709
    1WF      WF60399   7.196   5.680   7.502 -0.2055 -0.0772  0.1556
    1WF      WF60400  19.710  24.901   2.106  0.0540  0.1486  0.0891
    1WF      WF60401   8.046   8.962   2.145 -0.2612 -0.0195 -0.1102
    1WF      WF60402   6.996   3.506   1.022  0.0294  0.1782 -0.3211
    1WF      WF60403  11.684   7.729   1.168 -0.2443  0.0888  0.1045
    1WF      WF60404   4.287  13.359   0.724 -0.2333 -0.2070 -0.4655
    1WF      WF60405  16.978   4.304   7.461  0.1535 -0.0350  0.0116
    1WF      WF60406   0.539  19.017   1.399  0.2672  0.1977  0.1302
    1WF      WF60407  15.326  27.943   9.702  0.4260 -0.1457 -0.2261
    1WF      WF60408  10.164  15.088   1.436  0.0961  0.2549  0.0547
    1WF      WF60409  10.406   5.380   0.946 -0.1508 -0.2828  0.1416
    1WF      WF60410  12.929  13.646   1.090  0.2475  0.1815 -0.0574
    1WF      WF60411   6.730  12.410   3.114  0.3169 -0.1334 -0.0149
    1WF      WF60412   2.835  12.891   9.918 -0.1229  0.2843  0.0393
    1WF      WF60413  24.560  17.106   8.101 -0.0750  0.1333  0.2152
    1WF      WF60414  15.918   3.253   1.413  0.0790  0.0668 -0.0623
    1WF      WF60415  19.975   6.338   1.190 -0.0104 -0.2355  0.0657
    1WF      WF60416  14.858  13.469   0.485 -0.0453 -0.1992 -0.1737
    1WF      WF60417   1.573  19.945   8.214  0.0624 -0.0136  0.0176
    1WF      WF60418  18.737   4.632   0.722  0.1781 -0.2904 -0.2361
    1WF      WF60419  25.684  27.675   8.053 -0.1557  0.0302 -0.2407
    1WF      WF60420  27.648  14.525   8.091 -0.1854 -0.0183 -0.0736
    1WF      WF60421  28.433   1.757   1.582 -0.0661  0.3589 -0.1173
    1WF      WF60422  17.701   5.669   8.718  0.2469  0.1076 -0.1880
    1WF      WF60423  18.993  25.701   6.297  0.0841 -0.0713  0.1423
    1WF      WF60424   9.719   6.347   1.782  0.0789 -0.2561  0.0096
    1WF      WF60425   2.474  16.851   5.314  0.0817  0.2216  0.2596
    1WF      WF60426  13.912  18.645   2.114  0.1322  0.1128 -0.1505
    1WF      WF60427   2.769  15.941   7.538 -0.1918  0.0475 -0.2078
    1WF      WF60428   3.708   1.331   8.549 -0.0428  0.2418  0.1274
    1WF      WF60429  15.860  28.679   0.674  0.1649  0.3647 -0.1529
    1WF      WF60430   4.098   2.080   1.439  0.0401  0.0529  0.1010
    1WF      WF60431  19.440  20.443   3.610  0.2956 -0.1374  0.1972
    1WF      WF60432   7.861  14.896   0.073 -0.3237  0.2307  0.1163
    1WF      WF60433   4.650   8.987   8.145 -0.1957 -0.1030 -0.2676
    1WF      WF60434  25.384  26.341   9.606 -0.3813 -0.3336  0.0025
    1WF      WF60435  17.787  20.338   1.571 -0.2962  0.1065  0.1969
    1WF      WF60436   0.041  13.182   6.502  0.0912 -0.1281 -0.2051
    1WF      WF60437  16.534  11.405   8.858 -0.1881  0.0716 -0.1965
    1WF      WF60438  23.898  24.120   9.612 -0.0996  0.0282 -0.0453
    1WF      WF60439  14.600   3.303   9.546  0.1400  0.0281  0.1420
    1WF      WF60440  20.300   8.317   8.482 -0.0934  0.0359 -0.0521
    1WF      WF60441  21.899   5.939   6.646  0.0062 -0.0092 -0.2486
    1WF      WF60442   8.559  11.300   0.284 -0.3529  0.0663 -0.1636
    1WF      WF60443  19.809  11.101   0.080 -0.1075 -0.3029 -0.0246
    1WF      WF60444  22.482   3.081   1.087  0.1675  0.2245 -0.1562
    1WF      WF60445   2.497  19.836   8.198  0.2594 -0.0025 -0.0302
    1WF      WF60446  23.582  23.905   8.439  0.3698 -0.1438  0.0432
    1WF      WF60447  21.291  16.078   8.625 -0.1410 -0.1203 -0.2023
    1WF      WF60448   2.146  27.351   2.183 -0.2234 -0.3300 -0.2469
    1WF      WF60449  25.719  12.844   0.026 -0.0259 -0.0119 -0.0181
    1WF      WF60450   8.713   4.367   7.705 -0.0385 -0.1460 -0.1364
    1WF      WF60451   1.809  16.752   0.560 -0.1462  0.1383 -0.1673
    1WF      WF60452  11.565  24.507   9.500 -0.1972  0.0097  0.5679
    1WF      WF60453   5.286  11.610   8.373  0.1914  0.0738  0.0993
    1WF      WF60454  21.762  19.957   9.482  0.1019  0.1929 -0.2640
    1WF      WF60455  22.560  19.438   3.185  0.0817  0.1826  0.0694
    1WF      WF60456   6.163  22.123   7.626  0.0167  0.3394 -0.0616
    1WF      WF60457   2.656  22.691   9.005  0.0065 -0.1768  0.4595
    1WF      WF60458  11.468   4.694   3.527 -0.1155 -0.4308  0.3013
    1WF      WF60459   5.058   0.202   7.345 -0.2474 -0.4118  0.0836
    1WF      WF60460   1.484  21.176   2.203  0.1523 -0.0876  0.1301
    1WF      WF60461   9.596   8.988   8.570 -0.2975  0.0403  0.1995
    1WF      WF60462  11.211  11.114   1.639 -0.1162  0.0347  0.0061
    1WF      WF60463  24.622  15.343   8.358  0.1556  0.1547 -0.0083
    1WF      WF60464   4.268  19.944   0.656  0.1935  0.0987 -0.1472
    1WF      WF60465   4.461  15.777   0.117  0.2361 -0.0636  0.1275
    1WF      WF60466  24.442   7.707   7.671  0.3147  0.1223  0.4521
    1WF      WF60467  19.116  28.003   8.452  0.0366 -0.1125 -0.1308
    1WF      WF60468  28.324  22.199   0.458  0.0710  0.1651 -0.1395
    1WF      WF60469   4.023  18.291   9.778 -0.0299  0.1177 -0.2379
    1WF      WF60470  10.382  22.792   1.502  0.1127  0.0422 -0.0157
    1WF      WF60471  25.906   0.662   0.437  0.0435  0.2400  0.0875
    1WF      WF60472  22.653  19.028   9.671  0.0320  0.0115 -0.0260
    1WF      WF60473  21.183   2.903   0.153 -0.3024  0.1745 -0.1131
    1WF      WF60474  10.804   9.936   9.392 -0.1537  0.2043  0.1250
    1WF      WF60475  15.288  10.892   8.928 -0.1318  0.0652 -0.2024
    1WF      WF60476   0.533  22.228   1.588  0.1091  0.3605 -0.0899
    1WF      WF60477   3.143  24.681   0.938 -0.1297  0.3082 -0.1114
    1WF      WF60478  10.964  17.759   0.170 -0.0692  0.4492 -0.1287
    1WF      WF60479  27.744  20.704   0.712  0.1050 -0.0344 -0.0424
    1WF      WF60480  28.266   3.721   7.769 -0.1962 -0.1163 -0.0143
    1WF      WF60481  16.812  19.713   0.362 -0.0967  0.0692 -0.1021
    1WF      WF60482  15.766  15.880   0.454  0.0363 -0.0808  0.2150
    1WF      WF60483  15.908  20.567   1.302 -0.1004 -0.1207  0.1822
    1WF      WF60484  26.348   3.932   1.788 -0.1717 -0.4781 -0.1389
    1WF      WF60485   4.266  10.417   0.412 -0.1623  0.2355 -0.2265
    1WF      WF60486  18.324   6.920   2.416  0.1362  0.1626  0.1483
    1WF      WF60487  25.625  16.532   7.883 -0.1785  0.1982 -0.3815
    1WF      WF60488  27.957  13.401   7.949 -0.0832  0.0254 -0.1039
    1WF      WF60489   1.241  13.970   0.260 -0.1054 -0.1594  0.0330
    1WF      WF60490  10.683  15.173   1.400 -0.2321 -0.1615  0.1284
    1WF      WF60491  11.824   1.827   1.505 -0.0252  0.1881 -0.1666
    1WF      WF60492  14.244  27.078   9.430 -0.2870  0.3586  0.2421
    1WF      WF60493  14.557   7.453   2.473 -0.3915 -0.1074  0.1993
    1WF      WF60494   2.753  15.302   0.895 -0.1229 -0.0537  0.0281
    1WF      WF60495  22.889  13.477   8.253 -0.0471 -0.2401 -0.1064
    1WF      WF60496  28.123  17.755   8.579  0.2322  0.1568 -0.1275
    1WF      WF60497   5.990  20.838   9.242 -0.0664  0.0571 -0.0468
    1WF      WF60498  20.274  26.946   0.818  0.3311  0.2249  0.2259
    1WF      WF60499   3.408  24.886   7.349  0.0267 -0.1048 -0.1742
    1WF      WF60500  23.405   7.692   9.501  0.2349  0.1699  0.0093
    1WF      WF60501   8.804  25.354   6.995  0.2438 -0.1167  0.1691
    1WF      WF60502  19.162  28.415   8.776  0.0270  0.2334 -0.0333
    1WF      WF60503  28.038  15.580   2.492  0.1889  0.1537  0.0530
    1WF      WF60504  23.550   4.885   2.847 -0.1070  0.0806 -0.1513
    1WF      WF60505  27.657   5.705   0.199  0.1385  0.5100  0.1535
    1WF      WF60506  14.896  11.203   0.317 -0.0633  0.0447 -0.3233
    1WF      WF60507   5.784  10.077   6.669 -0.0885 -0.0591 -0.1873
    1WF      WF60508   1.615  18.565   6.501 -0.2894  0.0843 -0.1720
    1WF      WF60509  22.356   2.716   1.534 -0.1265  0.0460  0.3536
    1WF      WF60510  21.779  19.870   2.317  0.1398  0.1191 -0.0351
    1WF      WF60511  12.026  16.986   9.193 -0.0804  0.1950  0.2387
    1WF      WF60512   3.226   3.111   9.041  0.2990  0.1309 -0.4819
    1WF      WF60513  13.022  15.115   8.451  0.2139  0.1189 -0.0732
    1WF      WF60514  15.085  26.533   8.447  0.2585  0.1508 -0.0548
    1WF      WF60515   5.196   0.332   9.314  0.4461 -0.0659 -0.1223
    1WF      WF60516  11.356  23.457   8.968 -0.1763  0.3464  0.0948
    1WF      WF60517  14.918  10.972   8.633  0.4042 -0.0611  0.0791
    1WF      WF60518  11.092  21.559   9.544 -0.0175  0.0556  0.0161
    1WF      WF60519  10.533  24.767   3.312  0.0076 -0.0522  0.3888
    1WF      WF60520   2.038   1.175   7.814  0.1328 -0.1351  0.5682
    1WF      WF60521   4.511  11.892   9.138 -0.2259 -0.2474  0.0845
    1WF      WF60522   7.148  18.522   0.850  0.0142  0.3477  0.0197
    1WF      WF60523  21.382   8.179   8.909  0.2246  0.2668  0.1456
    1WF      WF60524   3.719   4.697   1.289 -0.0453  0.1664 -0.0882
    1WF      WF60525  20.600  26.568   9.701  0.0561  0.3699 -0.0953
    1WF      WF60526  12.740  17.913   0.945  0.0387 -0.1262  0.0948
    1WF      WF60527  10.067   1.011   0.137 -0.1686  0.1050 -0.0190
    1WF      WF60528  23.116  17.302   1.718  0.1529  0.1152  0.0298
    1WF      WF60529  16.482  27.419   9.527 -0.0674  0.1236  0.1502
    1WF      WF60530  22.240  13.356   9.693  0.3955 -0.1961 -0.1199
    1WF      WF60531   3.731  27.214   9.377  0.1134  0.0571 -0.1319
    1WF      WF60532   0.788   8.700   7.987 -0.3670 -0.1976  0.1470
    1WF      WF60533  26.410   4.486   8.265 -0.1247 -0.2064  0.2017
    1WF      WF60534  25.670  19.950   9.937  0.0274  0.1076 -0.4174
    1WF      WF60535  18.273   9.460   1.942  0.0604 -0.1744  0.0084
    1WF      WF60536  12.675  28.303   0.555 -0.1135  0.1388 -0.2903
    1WF      WF60537  19.921  15.585   0.874 -0.1636  0.0891  0.0417
    1WF      WF60538  19.840  17.786   8.961  0.0310  0.0981  0.0629
    1WF      WF60539   1.672   7.896   0.377  0.1306  0.1786 -0.2955
    1WF      WF60540   8.005  16.106   0.514 -0.0283 -0.3620  0.1372
    1WF      WF60541   4.077  10.018   7.983 -0.1092  0.0889 -0.1918
    1WF      WF60542   7.655  11.977   3.041 -0.0486  0.1149 -0.0432
    1WF      WF60543  13.404  26.765   7.661 -0.3221  0.3964 -0.5182
    1WF      WF60544  18.915  17.475   0.766 -0.1375 -0.0485 -0.5391
    1WF      WF60545  24.144  21.555   2.121  0.3036  0.1262  0.1566
    1WF      WF60546   2.874  18.495   9.007 -0.0502 -0.0558 -0.1122
    1WF      WF60547   9.030  12.022   9.266  0.0181 -0.0545  0.2178
    1WF      WF60548   8.719  12.412   9.249  0.1313  0.3614  0.2588
    1WF      WF60549  12.935  18.675   1.511  0.0743  0.1591  0.1755
    1WF      WF60550  18.391   6.301   1.324 -0.2462 -0.2975  0.0926
    1WF      WF60551   5.012  20.917   9.356 -0.1231  0.2419 -0.2038
    1WF      WF60552   9.465   4.617   9.874  0.1557 -0.3441 -0.2695
    1WF      WF60553  21.805  11.492   3.656 -0.0734  0.2335  0.0792
    1WF      WF60554  10.774  22.367   0.011 -0.0489 -0.1980  0.0102
    1WF      WF60555  24.573  25.733   9.187 -0.1810  0.0621  0.3797
    1WF      WF60556   0.396  10.629   8.176  0.0311 -0.1156 -0.0102
    1WF      WF60557   6.887  20.370   9.816 -0.1352  0.2624 -0.1035
    1WF      WF60558  13.867  11.731   1.805  0.0150  0.1295  0.2225
    1WF      WF60559   4.352  17.536   2.650 -0.1480  0.0349  0.1643
    1WF      WF60560   6.903  25.631   9.554 -0.1240 -0.0651 -0.2795
    1WF      WF60561  17.382  25.178   0.268  0.0637  0.1642 -0.2401
    1WF      WF60562   4.691  20.480   7.383 -0.1134  0.0269  0.0729
    1WF      WF60563   0.754   1.473   6.795 -0.2002 -0.0147 -0.0796
    1WF      WF60564   3.290  24.708   1.413 -0.2230 -0.1366 -0.2747
    1WF      WF60565  22.251   1.380   0.204  0.0068  0.0123  0.1555
    1WF      WF60566   5.489  19.459   2.270  0.1725  0.1333 -0.0746
    1WF      WF60567  16.618  16.335   1.771  0.1487  0.1837 -0.1777
    1WF      WF60568  28.002  20.719   0.250 -0.0118  0.1390  0.2219
    1WF      WF60569  27.988   7.179   1.344  0.3706 -0.0252  0.2585
    1WF      WF60570  11.924  21.156   8.781 -0.0977  0.2526  0.2594
    1WF      WF60571  26.684  17.019   7.448  0.0253  0.2489 -0.2524
    1WF      WF60572   8.350  16.547   9.831 -0.0467 -0.1650 -0.1327
    1WF      WF60573  12.695  15.562   0.521  0.0775  0.1341  0.0956
    1WF      WF60574   9.476   4.176   2.671  0.2734  0.0864  0.2852
    1WF      WF60575   5.851  14.771   0.058 -0.3280  0.1961  0.0776
    1WF      WF60576   5.819  13.690   8.695  0.0003 -0.3857  0.3257
    1WF      WF60577  21.578   9.899   1.431  0.2726 -0.0240  0.2173
    1WF      WF60578   0.178  14.952   6.702 -0.0302  0.0015 -0.2403
    1WF      WF60579  23.375  15.436   0.660  0.0584 -0.1864  0.0216
    1WF      WF60580   7.971   4.711   1.352 -0.1061 -0.0790 -0.1594
    1WF      WF60581  20.308  13.766   1.408  0.0416 -0.2002 -0.1260
    1WF      WF60582  16.612  16.762   1.556 -0.1376 -0.0081  0.0742
    1WF      WF60583  18.125  28.145   0.311  0.0874  0.0130 -0.0829
    1WF      WF60584   4.550   0.037   0.182  0.0454 -0.1165  0.0836
    1WF      WF60585   7.202  10.592   1.361 -0.3514  0.1140 -0.1862
    1WF      WF60586   5.225   4.027   0.333  0.0411 -0.1916  0.1982
    1WF      WF60587   1.615  27.169   1.540 -0.0132  0.0503 -0.0534
    1WF      WF60588   0.243  15.820   0.388  0.0861  0.4074  0.1245
    1WF      WF60589  27.271  12.768   7.809  0.1240 -0.0764  0.5529
    1WF      WF60590  10.866  21.130   9.383  0.0068  0.0115  0.1113
    1WF      WF60591   2.100   9.228   9.705 -0.1016  0.0006 -0.3836
    1WF      WF60592   6.669  26.953   2.012 -0.0696 -0.0790 -0.2495
    1WF      WF60593  14.329   3.921   1.390 -0.2452 -0.0600  0.0830
    1WF      WF60594   3.970  10.022   1.480 -0.0783 -0.1387 -0.1263
    1WF      WF60595  24.622  20.028   1.251  0.2161  0.1764 -0.0573
    1WF      WF60596   6.964  13.872   9.228 -0.0154  0.3895 -0.0188
    1WF      WF60597  25.645  19.846   7.922 -0.1279 -0.2537  0.2472
    1WF      WF60598   3.558  21.682   8.341 -0.3225  0.2069 -0.3592
    1WF      WF60599   8.789  11.057   0.770 -0.2386 -0.1560 -0.1263
    1WF      WF60600  14.227   9.295   1.643 -0.1047 -0.0118 -0.0433
    1WF      WF60601  23.824  27.176   9.373 -0.1212  0.2320 -0.1669
    1WF      WF60602   2.663  15.622   9.952  0.4671 -0.1174 -0.2620
    1WF      WF60603  19.828  12.140   0.343  0.1220 -0.0908  0.1320
    1WF      WF60604  21.173  19.561   2.145 -0.0311 -0.1236  0.2733
    1WF      WF60605  25.900  12.041   0.256  0.1473 -0.0255  0.0804
    1WF      WF60606  23.061  21.698   9.855 -0.0738 -0.0225  0.3875
    1WF      WF60607  11.403  22.846   8.271  0.0242 -0.1291  0.1811
    1WF      WF60608   4.157   5.423   9.212 -0.0703 -0.1077  0.1547
    1WF      WF60609   2.397   9.469   2.169 -0.1136 -0.0452 -0.0044
    1WF      WF60610   6.888   1.976   1.382  0.0095 -0.0420 -0.4839
    1WF      WF60611  15.975  15.376   9.953  0.1516  0.1591  0.0601
    1WF      WF60612  27.423   8.746   9.567 -0.3881 -0.1060  0.1243
    1WF      WF60613   0.541   8.567   8.408 -0.0192  0.0711 -0.0304
    1WF      WF60614  23.754  15.700   0.506 -0.0601  0.0961 -0.0835
    1WF      WF60615  17.658   5.022   9.721 -0.0665 -0.2489  0.1000
    1WF      WF60616  12.192  24.926   0.305  0.1039  0.0602  0.0371
    1WF      WF60617  22.921  20.806   9.311  0.3295 -0.0686  0.0741
    1WF      WF60618  24.156   7.112   1.096 -0.0410 -0.2530 -0.1699
    1WF      WF60619   6.258  27.858   9.679  0.0320  0.3206  0.1376
    1WF      WF60620   0.572  13.317   9.365  0.0401  0.3642 -0.1356
    1WF      WF60621   7.233   6.522   2.189  0.0310 -0.1935 -0.1097
    1WF      WF60622  23.085  12.100   0.238 -0.0537  0.0388 -0.1056
    1WF      WF60623  10.696  18.273   0.159 -0.0739 -0.1024 -0.2253
    1WF      WF60624   6.820  26.531   9.449  0.4524  0.0068  0.0661
    1WF      WF60625  14.868  10.702   0.153 -0.3267 -0.0063  0.0371
    1WF      WF60626  18.492  16.321   1.318  0.0551 -0.2843 -0.2815
    1WF      WF60627   0.557   1.013   1.778  0.0489 -0.2486 -0.2943
    1WF      WF60628  10.029   8.727   1.573 -0.0935 -0.1533  0.0879
    1WF      WF60629   4.539  16.321   0.044 -0.3551  0.0805  0.0448
    1WF      WF60630  22.278   3.925   0.894  0.0714  0.3553 -0.0134
    1WF      WF60631  14.165  25.855   1.697  0.4592  0.0793 -0.0619
    1WF      WF60632   4.255   9.105   0.642  0.2660  0.1823 -0.0367
    1WF      WF60633  25.681  16.690   1.563 -0.3137  0.3921 -0.0610
    1WF      WF60634   4.768  21.710   1.403  0.1781 -0.1919  0.0065
    1WF      WF60635  19.208   6.828   7.018  0.0820 -0.2271  0.2105
    1WF      WF60636  25.382   7.401   9.528  0.3399  0.2891 -0.0790
    1WF      WF60637   9.702   2.387   0.671  0.1383  0.0831  0.3425
    1WF      WF60638  10.283   2.636   2.327 -0.1334 -0.2331  0.0560
    1WF      WF60639  16.768  18.647   1.280 -0.2899  0.1995  0.1094
    1WF      WF60640  28.404   3.532   3.327  0.2537  0.0497  0.1272
    1WF      WF60641  14.436   7.568   2.012  0.1345 -0.0377 -0.0549
    1WF      WF60642  11.382  11.566   1.368  0.1708  0.0647  0.0350
    1WF      WF60643  13.112  28.210   0.280 -0.0704  0.0650  0.1218
    1WF      WF60644  12.865   1.931   1.321  0.2105  0.1224 -0.1128
    1WF      WF60645  23.634  10.321   7.985 -0.3740 -0.0296 -0.1119
    1WF      WF60646   7.017  18.069   1.432  0.1749  0.1036 -0.2365
    1WF      WF60647  22.935   9.899   7.462  0.0234  0.1268 -0.1573
    1WF      WF60648  26.403  20.132   8.991  0.0685  0.2382  0.0669
    1WF      WF60649  18.681  28.389   7.858 -0.0778  0.2858  0.2883
    1WF      WF60650  26.348   0.495   6.684 -0.2320 -0.1922 -0.1699
    1WF      WF60651  13.787  26.137   1.330  0.0028  0.1337 -0.0480
    1WF      WF60652   5.271   8.290   7.729  0.1018  0.1028  0.1059
    1WF      WF60653  12.011  19.895   1.744 -0.2268  0.0597  0.1447
    1WF      WF60654   4.384  18.165   6.416 -0.4505 -0.1522  0.2506
    1WF      WF60655  20.927  23.515   0.017  0.0330  0.1460 -0.1098
    1WF      WF60656  28.021  14.513   8.429 -0.4627 -0.3841 -0.0495
    1WF      WF60657  12.794  16.060   8.293 -0.3600  0.0609  0.0156
    1WF      WF60658   0.240   4.870   9.812 -0.0209 -0.1169 -0.1594
    1WF      WF60659   7.928  19.951   7.809  0.3002  0.2061  0.2325
    1WF      WF60660  15.201   1.934   0.966 -0.0710  0.3055  0.1848
    1WF      WF60661   2.375   2.602   0.370  0.1662  0.0365 -0.1043
    1WF      WF60662  13.506  19.702   1.684 -0.0391  0.2148  0.2490
    1WF      WF60663  14.067   1.959   9.438  0.0838 -0.0756  0.0896
    1WF      WF60664  14.193   6.160   0.669  0.2037  0.0669 -0.2239
    1WF      WF60665   3.810  11.330   8.793 -0.0392 -0.3126 -0.2277
    1WF      WF60666   8.504  11.002   1.246 -0.1287 -0.0400 -0.1670
    1WF      WF60667  12.479  26.706   0.536 -0.4623 -0.1168 -0.2388
    1WF      WF60668   7.326  24.543   9.339 -0.1861  0.0218  0.0508
    1WF      WF60669  23.666   7.537   9.873 -0.0293 -0.1393 -0.3326
    1WF      WF60670   5.563  11.281   8.673  0.3472 -0.2795 -0.0162
    1WF      WF60671  25.709  17.026   1.148  0.0439  0.2207 -0.3496
    1WF      WF60672  13.047   3.881   2.467 -0.2760 -0.0350 -0.2155
    1WF      WF60673  27.434  19.498   8.064 -0.1784 -0.1816 -0.0419
    1WF      WF60674  26.710  22.548   8.896 -0.0237 -0.1389  0.1892
    1WF      WF60675  15.796  20.810   1.685  0.1466 -0.1351 -0.0501
    1WF      WF60676  18.249   4.724   0.812 -0.3493 -0.1562  0.2268
    1WF      WF60677   4.656  11.429   0.428 -0.1960  0.0772  0.1357
    1WF      WF60678  12.202  26.100   8.529  0.4022  0.2581 -0.2780
    1WF      WF60679   5.958   3.530   7.396 -0.0425 -0.2014 -0.1083
    1WF      WF60680  14.826   4.602   0.288  0.1089 -0.1729 -0.1469
    1WF      WF60681   8.384  27.886   7.122  0.2771 -0.0136 -0.0040
    1WF      WF60682  18.566  28.481   0.015 -0.2730 -0.1217  0.2510
    1WF      WF60683  19.065  27.279   7.105 -0.2629  0.2260  0.1355
    1WF      WF60684  20.234   7.124   0.186 -0.0110  0.1092 -0.1232
    1WF      WF60685   0.710  13.767   9.540 -0.1461 -0.1035 -0.1895
    1WF      WF60686   8.427   0.033   7.556 -0.1873  0.2130 -0.1759
    1WF      WF60687  20.856  14.030   8.699  0.1423  0.0113 -0.0595
    1WF      WF60688  26.623  15.731   8.186  0.0676  0.2339  0.1722
    1WF      WF60689  11.060  17.263   0.064 -0.2532 -0.6202  0.2587
    1WF      WF60690  26.368  25.563   0.462 -0.0267 -0.1291  0.0450
    1WF      WF60691   2.019  19.950   0.107  0.0363 -0.1029 -0.2396
    1WF      WF60692  26.778  15.197   9.210 -0.2512  0.1790  0.2690
    1WF      WF60693  12.416  15.909   0.286  0.0269 -0.1478  0.0433
    1WF      WF60694  20.018  23.887   8.395  0.0693 -0.0018 -0.2178
    1WF      WF60695  15.657  26.658   2.313  0.1919 -0.0484 -0.0105
    1WF      WF60696  12.163   7.575   0.148 -0.1159  0.2260  0.1969
    1WF      WF60697  23.643  27.992   8.872 -0.0532 -0.1395  0.0945
    1WF      WF60698  24.442  16.947   0.640  0.1238  0.0020 -0.1380
    1WF      WF60699  22.910   4.555   9.274  0.0608  0.3311  0.2628
    1WF      WF60700   5.904  23.830   5.152  0.2775  0.3468 -0.1238
    1WF      WF60701  27.776  11.693   8.062 -0.1217  0.1842  0.1832
    1WF      WF60702  18.772  12.745   2.749  0.0832 -0.1488  0.1243
    1WF      WF60703   9.985   2.249   1.531  0.1386  0.3010  0.0640
    1WF      WF60704  16.409  22.729   0.701  0.1246  0.1793 -0.0313
    1WF      WF60705  25.428   4.604   0.486 -0.0383  0.2715 -0.1747
    1WF      WF60706  25.830  11.014   0.533  0.0833  0.1381  0.1533
    1WF      WF60707  14.099  12.945   8.008  0.0224 -0.1404 -0.0460
    1WF      WF60708   0.988  15.494   0.009 -0.1340  0.1243 -0.0488
    1WF      WF60709   1.869  21.561   9.590 -0.3337  0.0029  0.2570
    1WF      WF60710  22.674  13.429   8.747 -0.0604  0.2524  0.4370
    1WF      WF60711  18.482  16.363   0.807 -0.0563  0.1115  0.4274
    1WF      WF60712  22.451   7.991   9.599  0.0756  0.1198  0.0098
    1WF      WF60713  20.345  11.559   1.655  0.0361 -0.0339 -0.2316
    1WF      WF60714   7.894   4.308   0.265  0.0825 -0.2511  0.3755
    1WF      WF60715  22.470   5.752   3.191 -0.3429 -0.0270 -0.0444
    1WF      WF60716  27.021  10.461   0.491  0.0499  0.2198 -0.0858
    1WF      WF60717   8.294  10.055   0.336 -0.2479 -0.2385  0.4290
    1WF      WF60718   9.019   6.083   1.861  0.0331 -0.0283  0.1836
    1WF      WF60719  28.222  11.948   8.195 -0.1941 -0.3196 -0.0583
    1WF      WF60720   2.980  15.006   1.552  0.1017 -0.1030  0.1588
    1WF      WF60721  25.925  14.776   1.235  0.0002 -0.1503  0.1475
    1WF      WF60722  17.629  21.018   0.103 -0.0397  0.0295  0.0347
    1WF      WF60723  10.640   2.650   0.148 -0.1087  0.3067  0.0517
    1WF      WF60724   6.537   3.292   1.165  0.0772  0.0014 -0.0544
    1WF      WF60725  24.007   8.424   9.811  0.1485  0.0564 -0.0061
    1WF      WF60726  17.472  16.958   9.225  0.1271 -0.0362  0.1205
    1WF      WF60727   5.400  22.224   8.186  0.0969 -0.1371  0.0201
    1WF      WF60728  20.359  14.367   1.817 -0.0606 -0.4071  0.0868
    1WF      WF60729   1.306  26.700   1.740 -0.1464  0.4142 -0.0196
    1WF      WF60730  24.164  19.999   0.989 -0.0454 -0.0349 -0.1591
    1WF      WF60731  28.089  14.970   9.859  0.0478  0.0626  0.0237
    1WF      WF60732  24.961   7.834   8.049  0.0889  0.1425 -0.3099
    1WF      WF60733   0.925  17.317   9.844 -0.0634  0.0964  0.1144
    1WF      WF60734  12.520  23.836   8.663  0.0922  0.0569  0.1457
    1WF      WF60735  28.081  22.429   0.047 -0.1307  0.3332  0.1880
    1WF      WF60736   6.057  10.316   1.539  0.0582  0.0923  0.2760
    1WF      WF60737   5.588  18.890   9.809  0.3423 -0.1389 -0.2023
    1WF      WF60738   7.921  28.671   1.378  0.0955 -0.3043 -0.1376
    1WF      WF60739   8.325  21.538   8.056 -0.0823 -0.2030  0.2069
    1WF      WF60740   7.393   6.008   6.572  0.1649 -0.1831 -0.1455
    1WF      WF60741  26.275  14.797   1.675 -0.1583 -0.3416 -0.1201
    1WF      WF60742   2.882  20.140   8.348 -0.2188 -0.0246 -0.3356
    1WF      WF60743  16.330   0.957   0.124 -0.1083 -0.0236  0.1606
    1WF      WF60744  13.059  10.869   8.491 -0.4385 -0.0451  0.0051
    1WF      WF60745  17.120  17.618   9.670 -0.0199 -0.3467 -0.3363
    1WF      WF60746  13.646  20.890   9.185  0.3261 -0.0992 -0.2687
    1WF      WF60747  21.345   0.935   1.848  0.1881 -0.1976  0.0467
    1WF      WF60748   9.557   8.782   0.512  0.1196  0.4237 -0.0600
    1WF      WF60749   0.283   7.388   6.626  0.1606 -0.1340 -0.0887
    1WF      WF60750  13.542  12.219   8.912  0.4056 -0.0823  0.0839
    1WF      WF60751  14.254   1.464   1.048 -0.1876 -0.2098  0.1827
    1WF      WF60752   9.093  20.622   9.178  0.1359 -0.1230  0.1961
    1WF      WF60753  23.104  19.980   1.973 -0.4238 -0.1768 -0.0326
    1WF      WF60754   1.779   4.893   8.651  0.1141  0.1211  0.1060
    1WF      WF60755  11.297   4.476   0.415  0.0196  0.1106 -0.1185
    1WF      WF60756   0.658  25.930   1.112 -0.1721  0.0868  0.2003
    1WF      WF60757  23.494  15.879   7.040 -0.2541 -0.1329  0.1469
    1WF      WF60758  22.697  14.522   0.357 -0.3057  0.3626  0.3750
    1WF      WF60759  28.381  15.704   2.086  0.3781  0.6165  0.0505
    1WF      WF60760  25.619   3.713   8.800  0.0879  0.2206 -0.3006
    1WF      WF60761  26.156   8.610   8.399 -0.0131 -0.2394 -0.1115
    1WF      WF60762  20.199  24.942   8.514  0.1974 -0.1718 -0.0055
    1WF      WF60763  23.115  12.687   8.218 -0.1845  0.0589  0.0395
    1WF      WF60764   5.081  10.251   2.988  0.0475  0.1258 -0.2505
    1WF      WF60765  26.786  17.482   7.634 -0.0303 -0.1592 -0.1089
    1WF      WF60766   3.264  10.463   9.928 -0.0397  0.2526 -0.1070
    1WF      WF60767  21.096  23.521   9.543 -0.0900 -0.0008  0.0762
    1WF      WF60768  20.187  26.976   9.653  0.1016 -0.1641 -0.0795
    1WF      WF60769  27.837  23.707   1.559 -0.1343 -0.3135 -0.1783
    1WF      WF60770   1.404  26.014   8.992  0.0360 -0.1197 -0.0211
    1WF      WF60771  12.129   9.731   2.265 -0.2002 -0.1887  0.0780
    1WF      WF60772   2.257  21.743   9.808  0.1412  0.1235 -0.1381
    1WF      WF60773   0.778  16.187   8.762  0.4060  0.1872 -0.0049
    1WF      WF60774   6.030   3.830   1.554 -0.2735  0.4129 -0.1555
    1WF      WF60775  17.131   3.978   1.827  0.0275 -0.2850  0.0408
    1WF      WF60776  18.845   5.215   0.326 -0.0814 -0.0494  0.0992
    1WF      WF60777  24.776  23.628   8.479  0.0584  0.4453  0.0533
    1WF      WF60778   5.586   1.450   1.012 -0.3378 -0.3864 -0.0861
    1WF      WF60779  10.775  16.830   0.759  0.1570 -0.1628 -0.0084
    1WF      WF60780  25.619   0.691   8.013  0.1658 -0.0486  0.3825
    1WF      WF60781  26.948  23.499   0.843  0.1186  0.0887 -0.2837
    1WF      WF60782  18.438  14.515   0.386 -0.2116 -0.2219  0.1369
    1WF      WF60783  13.184  14.809   8.854 -0.2266 -0.1946 -0.0282
    1WF      WF60784  26.122  17.159   0.824  0.2060 -0.2337  0.0160
    1WF      WF60785   3.328  22.098   0.270 -0.1322 -0.0860 -0.0570
    1WF      WF60786   1.669   3.300   8.287  0.0014 -0.3592  0.3512
    1WF      WF60787   3.043   0.203   8.563 -0.0905  0.1925 -0.2223
    1WF      WF60788  26.786   3.847   1.566 -0.2401 -0.1065  0.1657
    1WF      WF60789  11.808   6.567   8.426  0.1280 -0.1226  0.0419
    1WF      WF60790  11.755  19.982   7.696  0.1423 -0.2162 -0.1346
    1WF      WF60791  15.916  25.902   0.148  0.1762  0.1641 -0.1343
    1WF      WF60792   6.844  23.318   9.482 -0.2454  0.0847 -0.1375
    1WF      WF60793  11.452  26.669   8.086 -0.0638  0.0063 -0.0560
    1WF      WF60794  25.655  27.092   1.925  0.5065  0.0828  0.1732
    1WF      WF60795  13.634  20.639   1.345  0.2453  0.0035 -0.0763
    1WF      WF60796  13.548  28.681   2.538  0.1819  0.0562  0.2872
    1WF      WF60797  18.207  14.236   0.725 -0.1840 -0.2396 -0.1963
    1WF      WF60798   2.503  25.180   1.537 -0.1026 -0.0741  0.0610
    1WF      WF60799   0.187  22.597   1.648  0.3725  0.0081  0.0780
    1WF      WF60800   4.686  23.602   0.818  0.1053 -0.1128  0.0322
    1WF      WF60801   0.197   9.125   0.075  0.0287  0.1342 -0.0472
    1WF      WF60802   1.218   9.905   6.228  0.4848 -0.0344  0.1148
    1WF      WF60803  11.670   2.894   3.389  0.1087 -0.2062  0.0249
    1WF      WF60804   1.675  25.989   8.489  0.1923  0.1499 -0.0780
    1WF      WF60805  18.762  14.859   0.249 -0.1920  0.1480 -0.1998
    1WF      WF60806  22.668   1.587   0.460 -0.1454  0.0002 -0.0731
    1WF      WF60807   2.129  16.986   1.426 -0.1740 -0.2055 -0.1965
    1WF      WF60808  23.680   0.209   0.241 -0.1704  0.2471 -0.0271
    1WF      WF60809   0.646   1.540   1.453  0.0327 -0.1266 -0.1171
    1WF      WF60810  24.897  21.153   9.594  0.2049  0.0970 -0.1554
    1WF      WF60811   2.051   5.927   9.229  0.3652  0.3217 -0.1074
    1WF      WF60812  13.825  15.935   0.977 -0.0248  0.0731 -0.0341
    1WF      WF60813  20.925  16.474   8.669 -0.1180  0.0401 -0.1031
    1WF      WF60814  13.923   0.055   9.629  0.1114  0.0385  0.1925
    1WF      WF60815  16.813   9.896   0.189 -0.3032  0.0669  0.1326
    1WF      WF60816  14.277   7.556   8.103  0.0104  0.0126 -0.0504
    1WF      WF60817  19.014  13.817   8.974  0.0451  0.2737  0.2396
    1WF      WF60818   8.668  19.666   8.840  0.0136 -0.1846  0.2646
    1WF      WF60819  10.664   6.793   1.231  0.2029 -0.2137  0.1839
    1WF      WF60820   9.905  17.710   1.053 -0.0966  0.1985  0.1190
    1WF      WF60821   6.366   1.875   1.582  0.1727  0.3641 -0.0285
    1WF      WF60822   0.727  12.850   1.571 -0.1863  0.0503  0.1271
    1WF      WF60823  27.747  24.579   2.717  0.1485  0.1666 -0.0437
    1WF      WF60824   4.008  14.397   0.603 -0.1023  0.0639 -0.3363
    1WF      WF60825  18.208   3.810   0.815  0.1402 -0.0194  0.0074
    1WF      WF60826  11.652  25.274   3.139  0.0234 -0.0131 -0.1035
    1WF      WF60827   8.674   0.995   9.421 -0.0938 -0.1977  0.0829
    1WF      WF60828  28.251  22.082   9.185  0.0470 -0.1954 -0.0590
    1WF      WF60829  18.672   3.734   3.098 -0.2546 -0.3642  0.1200
    1WF      WF60830   5.184   3.066   9.928 -0.0280 -0.4912 -0.4288
    1WF      WF60831  24.728  12.516   9.637 -0.0602 -0.0861 -0.0326
    1WF      WF60832  19.771  22.252   2.123  0.2684 -0.2489 -0.3932
    1WF      WF60833  16.856   2.764   8.129  0.1090 -0.0442 -0.1066
    1WF      WF60834   4.704  28.581   7.455 -0.4983  0.0501 -0.1794
    1WF      WF60835  15.729  15.306   0.485 -0.1166  0.0756  0.0843
    1WF      WF60836  27.599   3.866   7.162 -0.0966 -0.2675  0.0513
    1WF      WF60837  27.227  16.852   2.955 -0.0667  0.0085  0.0635
    1WF      WF60838  18.335   9.542   0.895  0.2584  0.1005  0.2646
    1WF      WF60839  24.444  25.095   1.276 -0.2169 -0.1128  0.3477
    1WF      WF60840  24.482   3.756   8.025 -0.3365 -0.2474  0.4009
    1WF      WF60841  21.286   0.055   8.925  0.4592  0.1679  0.2387
    1WF      WF60842   4.291  15.932   8.019 -0.2872  0.0336 -0.4046
    1WF      WF60843   3.119   4.529   1.547 -0.2001  0.2701 -0.0437
    1WF      WF60844  28.508  22.954   1.698 -0.2138 -0.1274 -0.2326
    1WF      WF60845  21.258  23.533   7.239 -0.2650 -0.0970 -0.1918
    1WF      WF60846   9.620  13.000   0.438 -0.3648  0.1812 -0.2207
    1WF      WF60847  13.584  16.991   7.730 -0.0492  0.0165  0.2082
    1WF      WF60848  14.999  18.809   0.908 -0.0757 -0.1611  0.2355
    1WF      WF60849   2.274  17.059   7.436 -0.0949  0.2655 -0.1566
    1WF      WF60850   1.823  11.808   2.562 -0.2636  0.1530 -0.0419
    1WF      WF60851  23.749   9.796   7.930 -0.2425 -0.2017  0.0382
    1WF      WF60852  17.353   5.759   9.655 -0.0847  0.0267 -0.0702
    1WF      WF60853   6.829  10.949   9.085  0.0921  0.2666  0.0295
    1WF      WF60854  13.431   0.846   0.282 -0.0037 -0.2411  0.3808
    1WF      WF60855  10.783  17.489   8.262  0.2354 -0.3569 -0.0177
    1WF      WF60856  21.369  25.395   9.070  0.0283 -0.2048 -0.1339
    1WF      WF60857   8.678  10.475   0.024 -0.1834  0.1164  0.0044
    1WF      WF60858  17.594  17.564   0.917 -0.0132  0.1385 -0.0547
    1WF      WF60859   0.626  18.560   0.914 -0.3853  0.4284  0.0858
    1WF      WF60860   7.327  10.216   3.295  0.2318 -0.0226  0.0743
    1WF      WF60861  10.713  17.864   0.604  0.1913 -0.0656  0.1893
    1WF      WF60862  24.622  21.551   9.559 -0.2328 -0.2770  0.0602
    1WF      WF60863   8.385   9.617   9.705 -0.0688 -0.3257 -0.1531
    1WF      WF60864   0.401  24.531   1.171  0.3493  0.3097  0.0460
    1WF      WF60865   5.083  20.196   0.043  0.0465 -0.0109  0.2050
    1WF      WF60866   1.427  14.103   8.427  0.1101  0.3601 -0.2279
    1WF      WF60867  15.434   9.878   8.316 -0.1859 -0.1591  0.0511
    1WF      WF60868  12.462   1.753   9.689  0.1266 -0.4025  0.2080
    1WF      WF60869   6.075  16.686   8.506  0.0191  0.0729 -0.2449
    1WF      WF60870  22.211   8.466   8.237 -0.3338 -0.2415  0.1521
    1WF      WF60871  17.239  10.132   0.879  0.1237 -0.0423  0.0812
    1WF      WF60872   6.761  11.362   9.531 -0.0081 -0.0955 -0.0287
    1WF      WF60873  26.762   8.660   6.156 -0.0223 -0.1924  0.0173
    1WF      WF60874   7.444  21.614   0.974  0.1481 -0.0130  0.0080
    1WF      WF60875  12.365   6.820   0.329  0.1894 -0.1025 -0.0424
    1WF      WF60876  25.086  27.781   1.493 -0.0975 -0.3358 -0.1890
    1WF      WF60877  10.382  15.279   0.963 -0.1475  0.0014  0.2400
    1WF      WF60878  24.187  22.489   8.497  0.1716 -0.0014 -0.0535
    1WF      WF60879  22.165   4.211   9.727 -0.0971 -0.1723  0.5068
    1WF      WF60880  14.951   1.742   0.505 -0.2212 -0.3419 -0.1937
    1WF      WF60881   0.014  19.194   1.353  0.1652  0.0851 -0.1222
    1WF      WF60882   8.818  14.472   1.170  0.0215 -0.1101  0.3608
    1WF      WF60883  21.509  28.495   8.516 -0.3697  0.0043  0.0338
    1WF      WF60884  21.884  25.996   0.963  0.2123  0.0478  0.2340
    1WF      WF60885   0.811  14.399   8.505 -0.3077 -0.1146 -0.1635
    1WF      WF60886  25.370   4.075   6.584 -0.2477  0.4509 -0.1627
    1WF      WF60887  17.648   9.393   8.895 -0.0634  0.2034  0.1208
    1WF      WF60888   5.653   4.666   9.755  0.0212 -0.1995 -0.1453
    1WF      WF60889  27.694  13.412   9.830  0.1456 -0.4101 -0.1323
    1WF      WF60890   5.479  16.184   8.959  0.0735  0.1997  0.0005
    1WF      WF60891   9.069  28.665   0.350 -0.0967 -0.0259 -0.0090
    1WF      WF60892  24.208   1.049   9.519  0.0775 -0.0077  0.0110
    1WF      WF60893  28.450  16.133   8.566 -0.2437 -0.2413 -0.0986
    1WF      WF60894  20.214   5.265   0.777 -0.1368 -0.2708  0.0506
    1WF      WF60895  12.116  26.382   0.340 -0.1581  0.3239 -0.0012
    1WF      WF60896  25.008  27.523   9.369 -0.2695  0.0714 -0.0447
    1WF      WF60897  21.231  14.060   8.313  0.2457  0.1093 -0.0238
    1WF      WF60898   2.708   6.929   9.033  0.0683  0.0280 -0.1887
    1WF      WF60899  17.596   3.552   1.374  0.2200  0.0170  0.0100
    1WF      WF60900   3.096   4.694   1.092 -0.3344  0.1789  0.1154
    1WF      WF60901  14.418  27.285   1.527  0.1086 -0.0080  0.0167
    1WF      WF60902  17.928  22.418   1.578 -0.0009 -0.0837  0.1548
    1WF      WF60903   6.647  12.567   0.397 -0.0033 -0.2465  0.0403
    1WF      WF60904   6.734  16.716   8.464 -0.1099 -0.1759  0.2211
    1WF      WF60905   0.891  17.805   0.108 -0.0549  0.0135  0.2835
    1WF      WF60906  25.452   8.666   0.167 -0.2543 -0.3678 -0.0792
    1WF      WF60907  20.871   4.858   8.577  0.1486 -0.3006  0.2602
    1WF      WF60908  20.743   7.991   1.889 -0.0594 -0.0728 -0.2729
    1WF      WF60909  23.326  22.901   0.941 -0.2928 -0.1135 -0.2197
    1WF      WF60910  10.890  18.846   0.441 -0.0457 -0.2172  0.1263
    1WF      WF60911   3.274  10.763   9.441 -0.1590  0.0219  0.0662
    1WF      WF60912  23.980  16.017   7.030  0.2436  0.0637  0.1323
    1WF      WF60913  14.629   1.862   8.836 -0.2369 -0.1134  0.1605
    1WF      WF60914  21.396  27.959   8.561 -0.1489 -0.4837 -0.2349
    1WF      WF60915  28.132  18.661   1.469 -0.0576 -0.2126  0.1744
    1WF      WF60916   9.311   6.337   1.180  0.1893  0.0503 -0.0781
    1WF      WF60917   1.412  12.179   2.518 -0.0002 -0.0842 -0.0299
    1WF      WF60918   2.883   3.383   1.151 -0.1745 -0.3620 -0.0942
    1WF      WF60919  22.529  15.048   6.587  0.0693  0.1872  0.0018
    1WF      WF60920  22.624  22.993   9.871  0.1607  0.2196 -0.0914
    1WF      WF60921  24.350  10.155   0.063 -0.2237 -0.1230  0.3234
    1WF      WF60922   1.053  20.808   0.148  0.0762 -0.0101 -0.0785
    1WF      WF60923   4.425  16.140   0.482  0.4680 -0.3212  0.0351
    1WF      WF60924  14.704  13.074   7.294 -0.1911 -0.0361 -0.0529
    1WF      WF60925  22.123  19.912   1.935 -0.1085 -0.0053 -0.1778
    1WF      WF60926  18.140  22.491   8.401 -0.2628 -0.1129  0.1938
    1WF      WF60927  26.119   3.189   0.211 -0.1740 -0.1042 -0.1104
    1WF      WF60928   1.975   2.880   0.454  0.2960 -0.5023 -0.0681
    1WF      WF60929   3.943   0.891   8.504 -0.3118 -0.0986  0.0764
    1WF      WF60930  17.972  21.071   9.709 -0.0684 -0.0771  0.0076
    1WF      WF60931   4.119  16.781   8.346  0.0081  0.1850 -0.2413
    1WF      WF60932  20.300   6.538   0.192  0.0064  0.3738 -0.0274
    1WF      WF60933  19.964  18.956   0.197  0.0157  0.0571  0.1530
    1WF      WF60934   4.456   3.989   7.156 -0.1269 -0.2206 -0.0166
    1WF      WF60935   4.324  12.876   0.794 -0.1190 -0.2883 -0.0976
    1WF      WF60936  26.778  20.216   8.067 -0.0911  0.1723  0.0556
    1WF      WF60937  13.966   1.734   1.830  0.1599 -0.0442 -0.0067
    1WF      WF60938  14.472  12.674   9.123  0.0241 -0.0410  0.1295
    1WF      WF60939  18.985  10.317   7.525 -0.0741 -0.0725 -0.1329
    1WF      WF60940  22.152   0.758   8.992  0.1157  0.1399  0.1818
    1WF      WF60941  25.792   0.033   1.692 -0.0835  0.1027 -0.2365
    1WF      WF60942   6.752  23.402   7.811 -0.2476  0.1218 -0.0525
    1WF      WF60943  12.347  28.173   8.037 -0.0318 -0.2328  0.2699
    1WF      WF60944  14.081   2.498   9.239  0.1930  0.0898 -0.1575
    1WF      WF60945  18.268  20.803   7.364 -0.2114  0.2595  0.0389
    1WF      WF60946  14.832   2.166   1.199 -0.1729 -0.1089  0.1309
    1WF      WF60947  22.181  24.734   3.656 -0.2344  0.2996 -0.1262
    1WF      WF60948  12.741  22.266   1.847  0.0750  0.0560 -0.0209
    1WF      WF60949   1.306   5.099   5.873 -0.0677 -0.0377  0.1947
    1WF      WF60950  18.829  24.192   9.848 -0.0427 -0.0065 -0.0049
    1WF      WF60951  26.667   5.218   9.635 -0.3030  0.0191 -0.0379
    1WF      WF60952  13.241   2.616   4.422  0.0664 -0.2915 -0.0150
    1WF      WF60953  16.482   3.350   2.983  0.0232  0.2801  0.3497
    1WF      WF60954  25.762  24.232   2.143 -0.2091  0.0866  0.0081
    1WF      WF60955  12.982  24.176   1.251 -0.0354 -0.0183 -0.3372
    1WF      WF60956   0.986   9.816   1.681  0.0322 -0.1204 -0.1697
    1WF      WF60957   4.045   1.834   8.561  0.2850  0.0328 -0.2628
    1WF      WF60958  17.824  12.576   0.990  0.1476  0.1005 -0.1674
    1WF      WF60959  10.792  22.410   7.874 -0.3123  0.3679 -0.0460
    1WF      WF60960  23.937  24.180   8.076  0.0659 -0.0148 -0.1823
    1WF      WF60961   2.391  28.395   0.786 -0.1105  0.0212  0.1817
    1WF      WF60962  13.602   0.172   1.533 -0.0264 -0.0963  0.1616
    1WF      WF60963   9.265  28.350   2.962  0.0379 -0.0362 -0.0272
    1WF      WF60964  21.309  17.988   1.801 -0.1054 -0.5097  0.4744
    1WF      WF60965  21.321   4.000   6.913 -0.4268  0.1982  0.2128
    1WF      WF60966   9.975  17.750   8.369 -0.2576  0.0676 -0.0849
    1WF      WF60967   2.454   1.752   9.037 -0.3369  0.3122 -0.2386
    1WF      WF60968  24.921  23.032   0.321  0.3357  0.0948  0.1602
    1WF      WF60969   3.536   5.662   9.263 -0.0576  0.1827  0.1710
    1WF      WF60970   1.637   5.440   0.751 -0.0795 -0.0031  0.0100
    1WF      WF60971   7.353   2.821   9.523  0.0612  0.2109  0.2364
    1WF      WF60972  20.313  13.265   0.071  0.0081  0.0972  0.0526
    1WF      WF60973   2.708  20.477   1.559  0.2023  0.0460 -0.1188
    1WF      WF60974  21.596   9.562   6.647 -0.1365 -0.0162 -0.1281
    1WF      WF60975  17.929  11.910   0.290 -0.1437 -0.0498  0.0056
    1WF      WF60976   0.112  19.113   7.818 -0.3581 -0.0100 -0.1676
    1WF      WF60977  14.760  22.893   8.758  0.1907  0.0044 -0.0314
    1WF      WF60978  21.118  24.908   7.463 -0.1666 -0.0619 -0.1026
    1WF      WF60979  21.778   8.150   7.983  0.0355  0.0127  0.0171
    1WF      WF60980  13.116  22.011   7.732  0.0509  0.0371 -0.0664
    1WF      WF60981  21.891  21.285   0.218 -0.0155 -0.1707 -0.2181
    1WF      WF60982  24.330   8.114   6.359  0.0088  0.2614 -0.0983
    1WF      WF60983  19.804  26.723   0.935  0.0144  0.1438  0.1878
    1WF      WF60984  28.015  22.359   9.516  0.2090 -0.0072 -0.0120
    1WF      WF60985  15.351  26.312   2.487  0.0905 -0.1599 -0.0015
    1WF      WF60986  15.350   7.195   0.058 -0.1448  0.1823 -0.0274
    1WF      WF60987   1.322   8.776   2.479 -0.1610  0.2297 -0.0793
    1WF      WF60988  23.560  14.942   8.592 -0.0225  0.0517  0.6495
    1WF      WF60989  17.753  15.283   0.969  0.0813  0.1864  0.0238
    1WF      WF60990  20.626   0.483   8.953  0.4192  0.1099  0.0227
    1WF      WF60991  13.688  12.243   1.649  0.1958  0.1714  0.1761
    1WF      WF60992   8.399   7.589   0.816 -0.0491 -0.0248 -0.1246
    1WF      WF60993   9.515   5.186   1.929  0.0257  0.1699 -0.0978
    1WF      WF60994  27.950  17.705   0.863  0.0402 -0.0865  0.1429
    1WF      WF60995   6.000  12.142   9.244 -0.0209  0.0219 -0.0005
    1WF      WF60996   0.412  12.545   9.136 -0.1462  0.0312 -0.2780
    1WF      WF60997   2.544  14.685   7.697 -0.3183 -0.0019  0.2862
    1WF      WF60998   9.760   9.149   9.035 -0.0521 -0.0179  0.1416
    1WF      WF60999  19.849  11.636   8.366 -0.0025 -0.2381  0.1064
    1WF      WF61000  25.790   2.599   1.575  0.0824  0.1797  0.1572
    1WF      WF61001  16.373   6.638   7.095  0.3877  0.1357  0.1148
    1WF      WF61002   8.314  18.421   1.281 -0.1410 -0.0601  0.2631
    1WF      WF61003   9.217   6.657   0.738 -0.0284  0.1985  0.3937
    1WF      WF61004  22.410   5.634   2.251  0.1055 -0.1218 -0.0831
    1WF      WF61005  21.233  17.392   3.129  0.1301  0.0567  0.0530
    1WF      WF61006   8.994  12.182   8.352 -0.1837 -0.1978  0.0566
    1WF      WF61007  13.621  28.542   1.952  0.1607 -0.1485 -0.0872
    1WF      WF61008   7.903  21.722   0.975  0.1167  0.2472 -0.0391
    1WF      WF61009   7.717  24.471   6.944  0.0311 -0.0885 -0.0304
    1WF      WF61010  12.743  24.167   9.131 -0.0729 -0.1818  0.1164
    1WF      WF61011  20.372  19.729   9.775 -0.1246  0.3797  0.0110
    1WF      WF61012   8.006  19.583   6.959 -0.0421  0.2569 -0.0195
    1WF      WF61013  13.967  17.694   2.128  0.1355 -0.0022  0.0025
    1WF      WF61014  23.239  23.979   6.297  0.0114  0.1018  0.0226
    1WF      WF61015   4.538   1.653   8.647 -0.0003 -0.1900 -0.3099
    1WF      WF61016   6.227  12.517   0.150  0.0000  0.2087 -0.1391
    1WF      WF61017  19.478   4.801   9.786  0.2155 -0.1983  0.2422
    1WF      WF61018   0.726  26.980   7.316  0.1668  0.2520  0.1100
    1WF      WF61019  13.475  10.700   0.065 -0.3753 -0.1248 -0.0287
    1WF      WF61020  21.276  15.798   9.064 -0.1822 -0.2948  0.2693
    1WF      WF61021  15.269  17.503   1.280 -0.2848  0.0258 -0.0806
    1WF      WF61022  18.404  20.559   7.776  0.1063 -0.0371 -0.2606
    1WF      WF61023   9.526  28.139   8.943 -0.3597  0.0217 -0.3156
    1WF      WF61024  13.071   9.700   1.779  0.0459  0.1261 -0.1203
    1WF      WF61025  15.436  18.543   1.160  0.0255  0.0896 -0.0366
    1WF      WF61026  21.947  16.566   9.363 -0.0328 -0.3047 -0.0130
    1WF      WF61027  10.902   0.105   1.823 -0.3138 -0.2255 -0.1489
    1WF      WF61028   6.169  25.429   1.092 -0.1298  0.1983 -0.2490
    1WF      WF61029  12.696  16.376   7.873 -0.1409  0.1206 -0.4379
    1WF      WF61030  23.824  14.040   8.646 -0.1692  0.0739  0.0613
    1WF      WF61031  21.109   2.637   9.600  0.1320  0.0253 -0.2654
    1WF      WF61032  11.360   7.367   1.363 -0.0375  0.0977  0.2571
    1WF      WF61033  12.297   0.454   3.953  0.1164 -0.2018  0.1864
    1WF      WF61034  25.552   6.296   8.259 -0.0406  0.0235  0.0710
    1WF      WF61035   4.747  24.119   7.563  0.0632  0.1278  0.2822
    1WF      WF61036  20.364   6.490   3.273  0.0346 -0.0321  0.0496
    1WF      WF61037  18.703  17.983   9.031  0.1042 -0.2216 -0.1474
    1WF      WF61038  14.949  28.705   1.581 -0.2027 -0.1040  0.0552
    1WF      WF61039   1.647  19.740   9.730  0.2318 -0.1018 -0.2275
    1WF      WF61040  27.101  22.233   8.126 -0.0780 -0.3342  0.1831
    1WF      WF61041  28.551   5.323   1.894 -0.0090  0.2100 -0.2204
    1WF      WF61042   3.497  22.510   5.428  0.0385  0.2221 -0.0338
    1WF      WF61043   7.470   0.327   8.579 -0.0672 -0.3836  0.0375
    1WF      WF61044   9.475  13.310   0.947  0.1745  0.0481  0.0794
    1WF      WF61045   5.187   0.749   9.577  0.1352 -0.2490  0.0454
    1WF      WF61046  16.107   4.348   8.191 -0.0173 -0.0417  0.2329
    1WF      WF61047  21.285  19.703   9.397 -0.0193  0.1740 -0.0768
    1WF      WF61048  17.994  22.306   2.057 -0.0219  0.1504  0.1260
    1WF      WF61049  27.444  25.779   9.168 -0.1518 -0.0434  0.2202
    1WF      WF61050   7.770  13.556   2.775 -0.0300 -0.0753  0.1102
    1WF      WF61051   9.202  28.333   0.843 -0.1015 -0.1340  0.1628
    1WF      WF61052   0.842  10.904   8.204 -0.2541 -0.0529 -0.1878
    1WF      WF61053  22.331  23.725   9.232 -0.1544 -0.1365  0.1055
    1WF      WF61054   4.804  13.851   8.899 -0.1267  0.0001 -0.0430
    1WF      WF61055   8.015   9.749   0.060  0.1912  0.2941  0.0902
    1WF      WF61056   3.580  10.484   0.345 -0.2696 -0.0057  0.3137
    1WF      WF61057   7.630  27.861   0.400  0.0754  0.1030 -0.2404
    1WF      WF61058  28.628   5.827   1.652  0.1323 -0.1213  0.0595
    1WF      WF61059   0.969  22.683   7.933  0.0330  0.1116 -0.0419
    1WF      WF61060  24.915  25.252   1.576 -0.0620  0.1453  0.1730
    1WF      WF61061  19.338  22.295   0.708  0.1011 -0.1308 -0.1229
    1WF      WF61062  15.572  16.573   3.382  0.1460  0.1646 -0.1264
    1WF      WF61063  18.576  12.567   9.682  0.0117 -0.0429  0.0532
    1WF      WF61064   1.566   1.042   7.798  0.0921 -0.1016 -0.4441
    1WF      WF61065   9.579  28.633   0.519  0.0732  0.2020 -0.3804
    1WF      WF61066  19.071  13.176   0.471 -0.0328  0.0384 -0.0459
    1WF      WF61067   0.688  17.851   7.222 -0.0376  0.0606  0.1938
    1WF      WF61068  20.667  24.243   1.843 -0.2637 -0.1157 -0.3168
    1WF      WF61069   7.657  25.373   0.217 -0.0362 -0.0283  0.1650
    1WF      WF61070  27.491  20.544   3.382 -0.0214  0.0885 -0.0917
    1WF      WF61071  24.908   3.103   9.145  0.0597  0.0868  0.3521
    1WF      WF61072  25.734  28.621   2.463  0.1326  0.2824  0.1609
    1WF      WF61073   1.786   1.152   8.661  0.1430  0.0734 -0.3382
    1WF      WF61074  19.008  27.195   2.024  0.1255 -0.0555  0.4931
    1WF      WF61075  18.270  20.506   1.617 -0.1483  0.4645 -0.0764
    1WF      WF61076  10.084  24.896   8.812  0.2788 -0.0280 -0.0727
    1WF      WF61077   4.488   5.299   7.180  0.1676 -0.0367 -0.2363
    1WF      WF61078   2.036   8.826   0.260 -0.0825  0.4481  0.0453
    1WF      WF61079  22.266   8.400   9.836 -0.2314  0.0505  0.3516
    1WF      WF61080  12.692  27.522   9.889 -0.2147  0.3090  0.1060
    1WF      WF61081  24.593  23.450   0.393  0.0066 -0.3344  0.1615
    1WF      WF61082   4.419  16.343   9.507 -0.1877 -0.1532 -0.0690
    1WF      WF61083  11.813   1.531   0.406 -0.0983  0.1175  0.0677
    1WF      WF61084   2.283   1.293   9.003  0.0625 -0.0118 -0.0013
    1WF      WF61085   6.768  28.540   8.788 -0.2375  0.2094  0.1014
    1WF      WF61086   4.072  10.919   8.941  0.2403 -0.1873 -0.1423
    1WF      WF61087   2.538  20.154   1.177  0.2455  0.0349  0.2010
    1WF      WF61088  19.368  22.073   9.590  0.1257  0.0175 -0.3939
    1WF      WF61089  26.613  18.280   1.040 -0.0483 -0.2959  0.1057
    1WF      WF61090  25.754  24.533   9.347  0.1139 -0.1073  0.1152
    1WF      WF61091   8.010  15.684   9.183  0.2582  0.0284  0.2519
    1WF      WF61092   5.531  20.263   0.139 -0.0048 -0.1329  0.0176
    1WF      WF61093  21.688  19.881   0.749 -0.1767 -0.1649 -0.1523
    1WF      WF61094  14.439   0.864   0.017 -0.3092  0.1456  0.0951
    1WF      WF61095   4.660  10.160   0.768 -0.1236  0.0601  0.2918
    1WF      WF61096  13.454   3.496   2.583 -0.0904  0.1894 -0.0476
    1WF      WF61097  26.184  18.804   8.953 -0.1302  0.2705 -0.1064
    1WF      WF61098   8.735  21.848   9.843 -0.0096 -0.1164  0.0767
    1WF      WF61099  23.270  16.806   1.640 -0.1898 -0.3704  0.1530
    1WF      WF61100  17.422  16.618   8.892  0.0098 -0.0833 -0.0177
    1WF      WF61101  22.159   2.203   8.180  0.0752 -0.2796 -0.0018
    1WF      WF61102  23.994   1.775   0.478 -0.1735  0.1992  0.0538
    1WF      WF61103   4.986  20.493   5.175  0.1951 -0.1433 -0.2651
    1WF      WF61104   6.388  14.447   1.619  0.1343 -0.2375  0.1075
    1WF      WF61105   6.478  16.053   0.050  0.0537 -0.0784  0.2145
    1WF      WF61106   9.684  19.092   2.446 -0.2611  0.0315 -0.0252
    1WF      WF61107  13.064  26.652   0.470 -0.3309 -0.0153  0.0177
    1WF      WF61108  26.317  13.849   8.628  0.0890 -0.0706  0.0598
    1WF      WF61109   2.933   6.756   2.111 -0.0610  0.3336  0.0355
    1WF      WF61110  17.882   2.571   9.902 -0.0267  0.0675  0.0362
    1WF      WF61111   2.986   4.283   9.568 -0.0394 -0.2573 -0.2636
    1WF      WF61112  20.391  18.351   2.140 -0.2326  0.0317 -0.1415
    1WF      WF61113  15.314  26.086   8.167  0.1708 -0.0470  0.0655
    1WF      WF61114   8.162  25.291   9.487  0.0357 -0.4073 -0.1378
    1WF      WF61115  19.882  11.546   1.110 -0.2057 -0.0318  0.0412
    1WF      WF61116   8.970  13.535   0.739 -0.0610 -0.0049 -0.0992
    1WF      WF61117   9.353   2.741   0.570 -0.1267  0.1238 -0.3988
    1WF      WF61118   4.508   1.894   1.741  0.0707 -0.2300 -0.1783
    1WF      WF61119  13.118  25.562   9.463 -0.0370 -0.1593 -0.2913
    1WF      WF61120  28.450   1.694   8.127 -0.0866 -0.0634  0.0467
    1WF      WF61121  11.562  21.813   2.490  0.1236  0.3611  0.1432
    1WF      WF61122   4.736   9.049   0.517  0.1284  0.1791 -0.3741
    1WF      WF61123  23.152  22.472   0.304  0.0212 -0.0362 -0.0723
    1WF      WF61124  23.717  14.518   8.821 -0.0064  0.4113 -0.0807
    1WF      WF61125  13.231  18.874   9.899 -0.1156  0.0402  0.6040
    1WF      WF61126  23.826  22.838   8.886  0.1993  0.5118 -0.0690
    1WF      WF61127   1.561  19.703   9.168 -0.1422 -0.1657  0.4369
    1WF      WF61128  11.701  11.206   1.688 -0.0570 -0.2307  0.0783
    1WF      WF61129   4.913   2.090   8.694 -0.2725  0.0644  0.5014
    1WF      WF61130  18.955   0.495   1.288  0.0401 -0.0813 -0.1603
    1WF      WF61131  14.256  22.585   9.951 -0.0996  0.1686 -0.0072
    1WF      WF61132   7.440  27.500   7.961 -0.2290 -0.0675 -0.0223
    1WF      WF61133   6.501  11.734   2.137  0.0332 -0.0970  0.0855
    1WF      WF61134  11.252  22.368   0.206  0.1411  0.1351  0.2178
    1WF      WF61135   7.633   9.767   9.593  0.1143  0.0435  0.2208
    1WF      WF61136   7.316   5.066   8.505  0.1095 -0.2467 -0.0589
    1WF      WF61137  21.874  11.846   9.596 -0.0201 -0.0656  0.0048
    1WF      WF61138   2.321  17.530   7.377 -0.0248 -0.1610  0.1078
    1WF      WF61139   9.837   5.372   1.108 -0.2302 -0.0802  0.1257
    1WF      WF61140  27.778   5.571   0.704 -0.0509  0.1064  0.3044
    1WF      WF61141  25.066  16.319   8.818  0.0312  0.0366  0.0977
    1WF      WF61142  12.182   2.773   0.240 -0.2762 -0.3550  0.1673
    1WF      WF61143  25.403   7.675   6.098  0.3232  0.2833 -0.1839
    1WF      WF61144  20.545  24.151   2.308  0.0366  0.0279 -0.2052
    1WF      WF61145  25.975  11.245   0.048  0.2266  0.1434 -0.0413
    1WF      WF61146  21.890  18.679   2.007  0.0040 -0.0033 -0.2627
    1WF      WF61147  15.155   5.393   9.516 -0.0339 -0.1898  0.0245
    1WF      WF61148  10.585  20.488   8.550  0.0360 -0.2751 -0.0012
    1WF      WF61149   2.018   7.794   0.648 -0.3398 -0.0520 -0.3616
    1WF      WF61150   1.438   4.085   8.979 -0.0227  0.2450  0.2656
    1WF      WF61151   0.608  28.489   0.272 -0.4391 -0.1733  0.5486
    1WF      WF61152  17.227  27.444   0.795  0.0121 -0.3159 -0.0569
    1WF      WF61153   0.305  28.266   9.844  0.1423  0.1622  0.0206
    1WF      WF61154  20.328  10.901   8.785  0.2396  0.1823  0.0423
    1WF      WF61155   8.764  24.892   1.375 -0.1132  0.0071  0.2347
    1WF      WF61156   4.299   1.287   8.408  0.1029  0.2537  0.0197
    1WF      WF61157  15.033  24.618   3.167  0.3153  0.3299 -0.0550
    1WF      WF61158  18.178  12.381   0.111  0.0759  0.1216  0.0448
    1WF      WF61159  25.185  27.728   0.626  0.1036 -0.1150  0.2028
    1WF      WF61160  21.649  14.893   6.874  0.1059 -0.2168 -0.1018
    1WF      WF61161  21.392  12.874   2.480  0.1967  0.0056 -0.0987
    1WF      WF61162   1.702  27.283   6.069  0.0462 -0.2033 -0.1758
    1WF      WF61163  21.322   4.456   6.614  0.2133 -0.0165 -0.0238
    1WF      WF61164   4.614  17.042   0.239  0.0276 -0.1138 -0.0400
    1WF      WF61165   5.701  16.568   8.784 -0.0071 -0.0417 -0.0816
    1WF      WF61166  26.247   9.133   1.171  0.3824  0.3542 -0.2116
    1WF      WF61167  18.396  11.929   1.164  0.1138  0.1505 -0.0186
    1WF      WF61168   5.191  24.343   7.616 -0.2021  0.3128  0.0430
    1WF      WF61169   9.891   1.171   8.949  0.2114  0.2664 -0.0819
    1WF      WF61170   5.512   4.419   0.566  0.2632  0.0496  0.2257
    1WF      WF61171   7.327  17.457   8.700 -0.1063  0.2048 -0.1210
    1WF      WF61172  23.891  15.591   7.099 -0.1063 -0.1021 -0.0869
    1WF      WF61173  23.296  26.065   0.852 -0.1150  0.1864 -0.0812
    1WF      WF61174   4.794  20.006   0.370 -0.2004  0.5002 -0.1780
    1WF      WF61175  21.108   7.569   1.939  0.0357 -0.0077 -0.4271
    1WF      WF61176  25.001  27.959   1.052  0.2279  0.0933  0.1224
    1WF      WF61177   4.499  12.825   9.865 -0.1376 -0.0825 -0.1299
    1WF      WF61178  24.637   1.713   7.918 -0.0174  0.2768 -0.1551
    1WF      WF61179  17.646  27.585   1.018  0.3429  0.0193 -0.0389
    1WF      WF61180  15.047  25.085   8.723  0.3835 -0.0077 -0.1391
    1WF      WF61181   5.616   3.451   7.033  0.2372  0.1166 -0.2332
    1WF      WF61182  19.240   7.866   8.460  0.1089 -0.0610 -0.1262
    1WF      WF61183  27.190   3.104   0.269 -0.4534 -0.1155 -0.3495
    1WF      WF61184   6.407  17.074   8.552  0.2208  0.1101  0.0673
    1WF      WF61185   3.271   2.066   0.860  0.2094 -0.1285 -0.1164
    1WF      WF61186  16.999   9.315   7.091 -0.0808 -0.2421 -0.0998
    1WF      WF61187  10.673  20.922   8.954 -0.0854 -0.3296  0.4038
    1WF      WF61188  27.326  20.951   0.864  0.0996 -0.0180 -0.2647
    1WF      WF61189   9.996  10.707   9.144  0.2315  0.0767  0.1125
    1WF      WF61190   7.276  10.718   7.500  0.1057  0.2413  0.1081
    1WF      WF61191  26.129  14.835   2.173 -0.1973 -0.3320 -0.1624
    1WF      WF61192  22.999  10.302   7.863  0.1275 -0.0023 -0.3497
    1WF      WF61193   4.326  10.817   7.054  0.1271  0.0520 -0.0140
    1WF      WF61194  16.059   2.807   1.405 -0.0531 -0.0819  0.2851
    1WF      WF61195  11.386   4.613   4.011 -0.2800 -0.0235  0.0436
    1WF      WF61196   2.974  13.142   7.820  0.1575  0.2477 -0.0615
    1WF      WF61197   6.102  14.259   0.201  0.4501  0.0444  0.2759
    1WF      WF61198  14.829   3.284   9.094  0.0282 -0.0385 -0.2994
    1WF      WF61199   2.950   9.760   6.935 -0.0804  0.2328  0.1200
    1WF      WF61200  24.840   3.754   2.412 -0.0872  0.2710  0.1964
    1WF      WF61201   8.016  27.803   0.093  0.2248 -0.1688  0.0420
    1WF      WF61202  13.236   8.709   9.449  0.0215 -0.2632 -0.1482
    1WF      WF61203  12.487  12.421   8.852  0.0188 -0.0818 -0.1279
    1WF      WF61204   6.486  24.577   6.814 -0.1227 -0.2567 -0.0554
    1WF      WF61205  22.080   5.563   1.511 -0.2167 -0.2406  0.1099
    1WF      WF61206  16.683  14.691   8.228  0.0975  0.0056  0.0242
    1WF      WF61207   0.166   2.379   2.104  0.2186  0.5117 -0.1387
    1WF      WF61208  24.908  22.241   9.576  0.0276 -0.3537  0.3495
    1WF      WF61209  27.810  28.563   1.232 -0.0052 -0.0093  0.1460
    1WF      WF61210  25.172  20.782   8.291  0.0429  0.1898 -0.1258
    1WF      WF61211   3.584  18.909   5.995 -0.1725  0.3260 -0.0997
    1WF      WF61212  23.908  28.591   9.903 -0.0784  0.0070  0.3821
    1WF      WF61213  10.191   0.568   9.877  0.1656  0.0708  0.0134
    1WF      WF61214  18.033   0.004   9.310 -0.1125  0.0392 -0.0224
    1WF      WF61215   3.376  19.339   2.770 -0.0849 -0.2995 -0.0519
    1WF      WF61216  20.468  19.711   0.358  0.0967 -0.4299 -0.1975
    1WF      WF61217  26.065  14.471   7.922 -0.2238  0.2843 -0.1266
    1WF      WF61218   9.724  28.341   0.936 -0.0005  0.0324 -0.0957
    1WF      WF61219   1.386   4.613   8.625  0.0736  0.0816  0.0199
    1WF      WF61220  10.678  24.453   6.738 -0.2967  0.0236  0.3058
    1WF      WF61221  23.180   3.611   7.936  0.0400 -0.2715  0.0847
    1WF      WF61222  25.418  19.603   7.498 -0.1699 -0.0243  0.0123
    1WF      WF61223  24.283  19.070   1.222  0.1716  0.0825 -0.0024
    1WF      WF61224  12.534  27.684   7.840 -0.1919  0.1182 -0.1905
    1WF      WF61225  10.963   4.912   3.253  0.2022 -0.3138 -0.1386
    1WF      WF61226  14.088  14.272   2.799  0.0298 -0.1417 -0.0758
    1WF      WF61227   4.815  24.207   7.090 -0.1982 -0.1251  0.0546
    1WF      WF61228  16.540  14.330   1.436  0.0437  0.3907 -0.0322
    1WF      WF61229   0.862   8.357   0.289 -0.2501  0.0079  0.1913
    1WF      WF61230  25.968   5.826   7.608  0.3354  0.1159 -0.2184
    1WF      WF61231  16.422   9.724   9.928 -0.2272 -0.1172  0.1324
    1WF      WF61232  16.308   2.378   0.292 -0.0814 -0.0022 -0.2109
    1WF      WF61233  12.955  27.748   2.497  0.2926 -0.2002 -0.0213
    1WF      WF61234   7.816   0.400   0.718  0.0463  0.1909  0.0212
    1WF      WF61235   9.919   7.136   2.258  0.0625  0.2028 -0.1014
    1WF      WF61236   4.183  14.833   0.490  0.1899  0.1549 -0.1543
    1WF      WF61237   5.196  25.952   2.084  0.2372 -0.2018  0.0311
    1WF      WF61238  22.341   0.207   1.111 -0.0223 -0.0505 -0.0120
    1WF      WF61239  16.722   4.356   8.186 -0.3025  0.3612 -0.0078
    1WF      WF61240   6.931  12.518   1.881 -0.2000 -0.1812 -0.1415
    1WF      WF61241   4.449  13.161   9.457 -0.0796 -0.2254  0.1702
    1WF      WF61242  25.270  13.858   6.441 -0.0976 -0.1438 -0.3758
    1WF      WF61243  11.748   1.292   2.757  0.1511  0.1898 -0.1205
    1WF      WF61244  24.122   5.785   7.503  0.1914  0.1797  0.0370
    1WF      WF61245  23.991   9.392   9.887 -0.1074 -0.1816  0.1292
    1WF      WF61246  27.072  20.161   2.269  0.0264  0.0987 -0.0544
    1WF      WF61247  17.627   0.290   7.607  0.2147  0.0620 -0.0034
    1WF      WF61248   8.292   8.095   1.795  0.0565 -0.4101  0.1464
    1WF      WF61249   2.479  24.156   1.515  0.2441  0.2828 -0.0431
    1WF      WF61250   3.714  27.424   7.635 -0.5589  0.0179  0.3710
    1WF      WF61251   9.082  13.768   8.341  0.0365 -0.0617 -0.0235
    1WF      WF61252  11.089  22.735   7.914 -0.2215  0.0127  0.1408
    1WF      WF61253  10.975  20.195   0.338 -0.1452  0.0738  0.0124
    1WF      WF61254  21.377   3.264   8.688  0.2952  0.0740  0.0667
    1WF      WF61255   2.567  15.205   0.442  0.1659  0.2078 -0.0885
    1WF      WF61256   9.975   5.175   1.613  0.1597 -0.2361  0.1861
    1WF      WF61257   3.463  25.025   9.633 -0.4148 -0.1736  0.0541
    1WF      WF61258  18.205  23.278   9.305 -0.1306 -0.0860 -0.0860
    1WF      WF61259  12.740  23.857   2.935  0.1151 -0.0363 -0.0152
    1WF      WF61260  13.132  22.337   9.544 -0.0458  0.1538  0.0437
    1WF      WF61261  15.665   5.029   0.232  0.0929  0.0507 -0.0280
    1WF      WF61262  19.880  11.432   8.822  0.1280  0.1797 -0.1658
    1WF      WF61263  10.384  17.182   1.482 -0.2817 -0.0775 -0.1627
    1WF      WF61264   4.169  18.397   8.772  0.2436  0.1041 -0.0961
    1WF      WF61265  16.167  25.437   7.176 -0.1601  0.1626  0.0113
    1WF      WF61266  18.772  20.601   1.255 -0.0450  0.0008 -0.3635
    1WF      WF61267   2.329   4.686   9.727  0.4012 -0.1248  0.4813
    1WF      WF61268   5.677  10.382   1.214  0.2408 -0.0496 -0.2415
    1WF      WF61269   1.533   4.933   0.827 -0.0712  0.0763  0.0016
    1WF      WF61270   6.514   5.738   9.005 -0.0421 -0.1500 -0.1909
    1WF      WF61271  16.852   9.316   0.808  0.2337  0.0904  0.1056
    1WF      WF61272  19.161  24.619   1.545 -0.2034 -0.3278  0.3388
    1WF      WF61273   0.970  26.748   9.413 -0.0843  0.0707 -0.1485
    1WF      WF61274   1.284   0.213   1.004  0.3312 -0.1863 -0.1925
    1WF      WF61275  14.762  24.119   7.948 -0.0233  0.2441 -0.0315
    1WF      WF61276   6.413   6.675   0.212  0.0428  0.0131  0.0125
    1WF      WF61277  15.436   2.920   6.856 -0.1019  0.0171 -0.0860
    1WF      WF61278  13.243  10.458   0.433  0.0358 -0.3304  0.0602
    1WF      WF61279  24.567  17.776   6.971  0.0616  0.0158 -0.0615
    1WF      WF61280  10.211  21.301   7.781  0.4702  0.4122  0.0446
    1WF      WF61281  17.612   8.939   9.092  0.1377 -0.0342  0.0091
    1WF      WF61282  17.244   8.014   1.995  0.0325  0.0095 -0.1050
    1WF      WF61283   7.021   9.908   9.558  0.0539 -0.0009  0.0855
    1WF      WF61284  18.002  11.790   0.843  0.0391 -0.0399  0.0041
    1WF      WF61285  20.162  15.219   9.389  0.0439  0.2197 -0.1397
    1WF      WF61286   7.534   3.142   1.929  0.1070  0.0874  0.2348
    1WF      WF61287   4.129  18.901   8.720 -0.0483  0.1444 -0.1659
    1WF      WF61288   6.156  13.049   1.951  0.0944 -0.0275  0.0200
    1WF      WF61289  24.259  10.417   9.451 -0.4109 -0.0270  0.3646
    1WF      WF61290  16.517  28.706   9.271  0.0423  0.2218 -0.3067
    1WF      WF61291  23.543   8.178   8.140 -0.0258  0.0669 -0.0089
    1WF      WF61292  23.148  15.135   8.392  0.0374 -0.3038  0.3261
    1WF      WF61293  13.626  19.891   1.188  0.0559  0.3594 -0.0604
    1WF      WF61294  25.594   5.369   1.259 -0.0347 -0.1372 -0.0591
    1WF      WF61295  21.742  25.559   9.919  0.0787  0.5083 -0.1266
    1WF      WF61296   2.375  20.008   1.621 -0.0849  0.1162  0.1179
    1WF      WF61297  14.946  26.789   8.942 -0.1447 -0.1795  0.0970
    1WF      WF61298   0.991   0.853   9.957  0.2715  0.0912  0.0107
    1WF      WF61299  14.178  18.337   7.936 -0.1313 -0.1520  0.1495
    1WF      WF61300   0.165   4.324   8.801 -0.0771 -0.1496  0.3252
    1WF      WF61301  24.360   5.044   0.469 -0.2077 -0.1468 -0.0097
    1WF      WF61302   6.635  12.949   1.972  0.0940  0.0942  0.1831
    1WF      WF61303  20.421  20.180   0.131 -0.2137  0.1930  0.0778
    1WF      WF61304   3.799  26.627   9.552 -0.0157  0.4622 -0.0848
    1WF      WF61305   4.651   6.905   0.238  0.1060 -0.2433  0.4155
    1WF      WF61306  20.700   4.843   1.657 -0.0725  0.2034 -0.0223
    1WF      WF61307  22.058   6.690   9.200  0.1237 -0.4249 -0.2441
    1WF      WF61308  13.335  19.143   9.473  0.0593  0.2332  0.1080
    1WF      WF61309  18.843  25.491   7.553 -0.1106 -0.2037 -0.0537
    1WF      WF61310  18.738  16.524   9.653 -0.3824 -0.2648  0.0067
    1WF      WF61311  14.500  28.441   1.790  0.0277  0.4712  0.0025
    1WF      WF61312  23.149  16.014   9.125  0.0462  0.2127 -0.0504
    1WF      WF61313   2.500  27.854   0.705  0.0841  0.1826  0.1635
    1WF      WF61314  16.467  15.129   8.167 -0.1224  0.1865 -0.2436
    1WF      WF61315  14.903  12.395   1.606 -0.0261 -0.3448  0.0077
    1WF      WF61316  11.428   8.391   9.894  0.0916  0.0564  0.2262
    1WF      WF61317  23.412  24.293   9.520  0.2728 -0.1034 -0.0737
    1WF      WF61318  16.296  17.448   7.355  0.1979  0.1706 -0.2334
    1WF      WF61319  12.642  22.285   1.027  0.0225 -0.0044 -0.0810
    1WF      WF61320  15.868  22.803   0.311  0.3757  0.0080  0.3440
    1WF      WF61321   3.130   7.210   8.951 -0.0694 -0.1219 -0.2309
    1WF      WF61322   8.918  15.603   9.053 -0.3279  0.5020 -0.0936
    1WF      WF61323  24.110  23.147   1.110  0.0536 -0.0796 -0.3982
    1WF      WF61324  11.777   6.261   2.004  0.1811  0.0019  0.0347
    1WF      WF61325   3.557   1.986   1.382  0.0906  0.0319  0.0817
    1WF      WF61326   7.702  20.173   9.942  0.1234 -0.0170  0.3660
    1WF      WF61327  26.489   8.994   7.169  0.2536 -0.2568 -0.1269
    1WF      WF61328  27.214  19.483   7.598 -0.0229  0.1653 -0.2373
    1WF      WF61329   7.725  22.000   9.955  0.0161  0.0700  0.0326
    1WF      WF61330  13.855   2.706   8.053 -0.1260  0.2015  0.2771
    1WF      WF61331  12.589   6.483   0.687  0.1224 -0.0348 -0.0922
    1WF      WF61332  18.813  24.271   1.736  0.0896 -0.1564 -0.3155
    1WF      WF61333  20.633  20.567   0.387  0.0914  0.0256 -0.2364
    1WF      WF61334  17.876   5.056   0.940  0.0231 -0.1555  0.1211
    1WF      WF61335   9.446   9.736   2.319 -0.0131 -0.0700 -0.2244
    1WF      WF61336  16.558   5.600   0.779  0.2128 -0.2610 -0.1718
    1WF      WF61337  18.050  23.774   3.549  0.0932 -0.1541 -0.0618
    1WF      WF61338  23.687  14.627   6.204  0.1984 -0.0577 -0.0994
    1WF      WF61339  14.566  25.161   9.743  0.0517  0.0578 -0.2315
    1WF      WF61340   4.785  14.504   1.621  0.1514  0.2178 -0.2891
    1WF      WF61341   1.484  15.178   9.925 -0.2058 -0.3712 -0.2749
    1WF      WF61342   1.046  26.283   9.279 -0.1943  0.0476 -0.2032
    1WF      WF61343  28.624   8.746   0.282 -0.0934  0.1147 -0.0513
    1WF      WF61344   8.275  22.023   7.986 -0.0806 -0.1969 -0.0408
    1WF      WF61345  23.737  17.063   0.534 -0.0650 -0.1018  0.2777
    1WF      WF61346   1.326  23.043   1.273 -0.3520 -0.0834  0.0405
    1WF      WF61347  21.911  14.375   8.969 -0.1685 -0.0745  0.2910
    1WF      WF61348   0.378  23.940   0.345  0.1559  0.0538 -0.2572
    1WF      WF61349   1.840   6.697   0.461 -0.0367 -0.0795  0.2258
    1WF      WF61350  14.877  26.391   7.971 -0.0013  0.1031  0.1239
    1WF      WF61351   5.619   7.293   8.588 -0.1447  0.0181  0.3779
    1WF      WF61352  19.357  15.679   8.477 -0.3144 -0.1053  0.1114
    1WF      WF61353   4.777   6.767   7.823 -0.0241 -0.0794 -0.1648
    1WF      WF61354  22.831  14.386   9.791 -0.2595  0.2369  0.1108
    1WF      WF61355  19.634  23.736   6.366 -0.0265 -0.2663 -0.1222
    1WF      WF61356  18.533  17.378   1.562 -0.1268  0.0375 -0.1205
    1WF      WF61357  16.765  28.684   9.811 -0.2226 -0.0475  0.3029
    1WF      WF61358  14.074   7.055   9.308  0.1242 -0.2769  0.1320
    1WF      WF61359   2.560   2.225   6.397  0.1736 -0.1310  0.0468
    1WF      WF61360  10.527   3.556   9.935 -0.1985 -0.0247  0.0573
    1WF      WF61361  15.873  25.779   7.540  0.2064 -0.1283 -0.4216
    1WF      WF61362   8.691   1.393   9.721  0.3983  0.0319 -0.2342
    1WF      WF61363  18.997  12.229   9.577  0.2214  0.0231  0.2613
    1WF      WF61364  22.009  24.851   1.234 -0.3527  0.1246 -0.1349
    1WF      WF61365  18.679  21.904   0.148 -0.0629 -0.1994 -0.4881
    1WF      WF61366   2.224  28.210   3.197  0.0764  0.1977  0.0768
    1WF      WF61367  20.795   7.952   8.764 -0.1676  0.1159 -0.0096
    1WF      WF61368   5.955   1.603   8.870 -0.2807 -0.1125 -0.1429
    1WF      WF61369   5.619  25.767   2.399 -0.2201  0.3230 -0.1074
    1WF      WF61370   1.181  19.713   9.469 -0.0780  0.2183 -0.1280
    1WF      WF61371  19.135   7.192   0.727 -0.3460 -0.3438  0.1765
    1WF      WF61372   5.853  26.469   7.432  0.0161 -0.0556  0.0379
    1WF      WF61373   0.581  25.418   0.969 -0.3129 -0.0168 -0.1889
    1WF      WF61374   3.546  13.024   8.540 -0.1397 -0.1466  0.1415
    1WF      WF61375  18.156  28.380   9.805 -0.2280 -0.0179  0.2855
    1WF      WF61376  19.528  10.707   0.028 -0.1962  0.0411 -0.1626
    1WF      WF61377  23.954  23.690   8.220  0.1285  0.0028 -0.1025
    1WF      WF61378  23.546   0.907   2.863  0.0095  0.3439 -0.2817
    1WF      WF61379  20.566  25.721   1.502 -0.2779  0.0103  0.0936
    1WF      WF61380  17.995  12.175   1.201 -0.2557 -0.0686  0.0894
    1WF      WF61381  27.173  15.032   7.055 -0.1714  0.0902  0.0908
    1WF      WF61382   7.055  26.410   8.420 -0.0657  0.3019  0.2721
    1WF      WF61383  19.804  28.071   0.005  0.3489 -0.2466  0.2126
    1WF      WF61384  17.397  16.055   8.855  0.3507 -0.0595 -0.4384
    1WF      WF61385  22.662  27.537   2.591  0.2617  0.2250 -0.0753
    1WF      WF61386  12.819  27.924   9.152 -0.0776 -0.1933 -0.0369
    1WF      WF61387  25.705  25.823   9.445  0.0485  0.1378  0.0242
    1WF      WF61388   8.760  20.181   1.591  0.0620 -0.0073  0.0027
    1WF      WF61389  22.352  13.486   9.156  0.1708  0.0073  0.2369
    1WF      WF61390   8.220  24.503   7.272  0.1923  0.0660 -0.0123
    1WF      WF61391   1.355  18.506   9.282 -0.1768 -0.3039  0.0982
    1WF      WF61392   7.511   4.926   1.245  0.1649  0.3165  0.1292
    1WF      WF61393  27.042  14.612   9.249 -0.2116  0.1749  0.0916
    1WF      WF61394  22.317  16.461   0.304  0.0976 -0.0762 -0.0616
    1WF      WF61395   7.530  28.021   9.926 -0.0200 -0.1738 -0.3321
    1WF      WF61396  26.372   3.355   9.049  0.0775 -0.3123 -0.3464
    1WF      WF61397  10.830  21.740   3.169 -0.0087  0.0093 -0.1999
    1WF      WF61398  18.132  14.235   8.897  0.3442 -0.0419 -0.1303
    1WF      WF61399  24.400   6.048   3.300  0.0190 -0.1693  0.0215
    1WF      WF61400  27.082   9.343   7.970 -0.2702  0.1041  0.4073
    1WF      WF61401   3.850  25.244   7.395  0.2765  0.0958 -0.0406
    1WF      WF61402  24.905   0.239   1.360 -0.0081  0.1423  0.1692
    1WF      WF61403  26.989  13.205   7.642  0.1495  0.1956 -0.0522
    1WF      WF61404  21.172  21.858   1.084  0.1623  0.1020 -0.2456
    1WF      WF61405  18.115  23.302   3.511 -0.1514  0.0022  0.0075
    1WF      WF61406  21.052  27.218   8.332  0.2839 -0.4524 -0.1376
    1WF      WF61407  24.827  27.442   0.880 -0.0991  0.2862  0.0496
    1WF      WF61408  26.364  26.637   1.483 -0.4084  0.1945  0.2124
    1WF      WF61409   6.189  24.435   7.243  0.2877  0.2137 -0.3085
    1WF      WF61410  10.271  21.174   1.985  0.0415 -0.2033 -0.1607
    1WF      WF61411  14.798   2.358   8.865  0.2484  0.1823  0.1042
    1WF      WF61412  25.901  11.584   0.418  0.0795  0.0259 -0.2697
    1WF      WF61413   7.621  24.241   8.997  0.0218  0.1266 -0.0704
    1WF      WF61414   9.500  15.999   0.773 -0.0650  0.2050  0.0925
    1WF      WF61415   2.799   5.869   2.247  0.1510  0.1678 -0.3574
    1WF      WF61416  21.029  19.849   8.209 -0.1221 -0.0073  0.0921
    1WF      WF61417   4.193  16.270   8.395 -0.0326 -0.0973 -0.0888
    1WF      WF61418  20.700   7.472   7.830  0.1989 -0.0541 -0.0728
    1WF      WF61419  15.336  26.451   3.001 -0.0230  0.2864 -0.2041
    1WF      WF61420   8.637   5.066   0.352 -0.1833 -0.3502 -0.2330
    1WF      WF61421  24.636   1.416   1.433  0.0019 -0.2897  0.1019
    1WF      WF61422  12.725  20.805   1.066 -0.0521  0.0503 -0.0066
    1WF      WF61423  17.658  23.818   8.068  0.1141  0.2500  0.1058
    1WF      WF61424  12.535  12.129   0.502 -0.1597  0.2975  0.1592
    1WF      WF61425   9.358  24.882   2.836  0.1918 -0.3374  0.1633
    1WF      WF61426   7.847  25.055   1.096  0.0799 -0.3751  0.3040
    1WF      WF61427   6.299  16.445   0.241 -0.2108 -0.0945 -0.1787
    1WF      WF61428  21.927   3.910   2.640 -0.0102 -0.1435  0.0099
    1WF      WF61429  10.393  11.267   7.153  0.1236 -0.0564  0.1319
    1WF      WF61430  22.843  22.581   0.717 -0.0946  0.1443  0.0044
    1WF      WF61431   7.321  12.179   1.670 -0.1604 -0.3590  0.1543
    1WF      WF61432  25.161   1.529   2.977 -0.1756 -0.0316  0.4371
    1WF      WF61433   3.047  12.368   9.806  0.0528  0.0150  0.1863
    1WF      WF61434   4.108  25.517   7.767  0.0103  0.3265  0.0274
    1WF      WF61435   8.370  10.316   8.720  0.2193  0.0746 -0.3536
    1WF      WF61436  24.836  20.483   1.188  0.1353  0.2341 -0.1270
    1WF      WF61437  25.048  21.862   9.368  0.3047  0.1409  0.2900
    1WF      WF61438  24.909  16.873   0.920  0.4363 -0.0127  0.0307
    1WF      WF61439   6.780   2.093   9.893  0.1945  0.2271 -0.0345
    1WF      WF61440  12.667  11.511   0.441  0.2190 -0.1086 -0.1243
    1WF      WF61441  18.270  19.039   0.361 -0.1129 -0.0564 -0.0101
    1WF      WF61442  18.763  26.901   2.351 -0.3260  0.2681  0.1977
    1WF      WF61443  16.763   0.894   1.297 -0.2044  0.2742 -0.1556
    1WF      WF61444  15.132  26.758   2.324  0.0706  0.0483  0.1588
    1WF      WF61445  14.532   6.962   9.567  0.0189  0.0967 -0.1260
    1WF      WF61446  13.986   1.287   2.067 -0.1535 -0.1337  0.0112
    1WF      WF61447   0.825   1.786   9.851  0.4581  0.0450  0.1837
    1WF      WF61448  18.911   0.576   1.757  0.3137  0.0729 -0.1706
    1WF      WF61449  24.895  17.013   0.423 -0.1405  0.0756  0.1541
    1WF      WF61450  10.257  15.046   0.443  0.0961  0.2734  0.1223
    1WF      WF61451   7.865  22.727   0.809 -0.0653 -0.1215 -0.0074
    1WF      WF61452  16.129  10.745   0.417 -0.0086 -0.1578  0.1530
    1WF      WF61453  13.960  25.520   9.147  0.0546 -0.1372  0.0345
    1WF      WF61454  22.323   0.273   1.602  0.0395 -0.0557  0.1419
    1WF      WF61455  13.816   8.971   1.386  0.1248 -0.0619  0.1878
    1WF      WF61456  16.695   3.835   3.257  0.0954 -0.0531  0.0582
    1WF      WF61457  12.842  27.014   0.235  0.1472  0.0416 -0.0123
    1WF      WF61458  26.423  13.631   9.067  0.0793  0.0123 -0.2626
    1WF      WF61459   2.238  10.403   8.678  0.1948 -0.1204  0.0180
    1WF      WF61460   4.138  10.846   7.525  0.1201  0.3120  0.0904
    1WF      WF61461  12.587  24.676   0.142 -0.2915  0.1374 -0.2076
    1WF      WF61462   6.157  19.300   8.543 -0.2864  0.0441  0.0581
    1WF      WF61463  24.358  16.702   7.988  0.2093  0.0597 -0.2586
    1WF      WF61464  18.022  24.167   8.732  0.2448 -0.2609 -0.1227
    1WF      WF61465   4.660  11.591   0.932  0.1506 -0.1543 -0.0655
    1WF      WF61466  15.505   7.275   3.710  0.0937 -0.2611  0.1759
    1WF      WF61467  22.012   3.057   1.239  0.1022  0.4070  0.2688
    1WF      WF61468  26.142  25.083   0.663 -0.3914 -0.0464 -0.2541
    1WF      WF61469   1.483   6.444   0.831 -0.0124 -0.3651 -0.0750
    1WF      WF61470  28.508  27.194   0.685 -0.0910 -0.2129  0.0814
    1WF      WF61471   5.512  25.284   6.935 -0.0116 -0.4202  0.1401
    1WF      WF61472  13.781  15.496   9.462  0.1096  0.0691 -0.1375
    1WF      WF61473   1.496  12.127   7.429  0.2461 -0.1904 -0.0118
    1WF      WF61474  12.160   7.613   1.000 -0.0775  0.0193 -0.0922
    1WF      WF61475  28.266   0.448   9.044 -0.3406  0.1685  0.4139
    1WF      WF61476   6.981  13.842   0.155 -0.4907 -0.0200  0.1485
    1WF      WF61477  25.116   6.926   7.541 -0.0503 -0.0653 -0.1819
    1WF      WF61478  19.480   8.763   9.520  0.2040  0.0048 -0.1379
    1WF      WF61479  15.916  24.411   2.656 -0.0776  0.4178 -0.4881
    1WF      WF61480  18.245   3.791   7.022 -0.1109 -0.1237  0.3314
    1WF      WF61481   5.400   8.117   1.330 -0.2066 -0.1068  0.0206
    1WF      WF61482  12.067   3.240   0.095 -0.1642  0.2060 -0.1503
    1WF      WF61483   5.198  13.520   1.412  0.1428 -0.0057  0.3628
    1WF      WF61484  17.393  10.683   9.356  0.3329 -0.2150  0.0535
    1WF      WF61485   5.811  22.986   7.795  0.0480 -0.0418  0.2259
    1WF      WF61486  27.539  23.899   7.473 -0.4533 -0.1754 -0.0208
    1WF      WF61487  28.309   2.150   3.123  0.0151  0.3222  0.4959
    1WF      WF61488   8.484  12.850   9.277  0.2423 -0.0293 -0.1389
    1WF      WF61489  22.565   7.500   9.732 -0.1780  0.2699  0.0045
    1WF      WF61490   8.406  21.551   1.188 -0.1833 -0.1906 -0.1267
    1WF      WF61491  21.526  19.876   1.874  0.1401 -0.1135 -0.2705
    1WF      WF61492  12.375   1.667   0.177 -0.1804 -0.0779 -0.1095
    1WF      WF61493  18.777  25.943   2.787  0.2503  0.1885  0.1138
    1WF      WF61494   2.653  24.545   0.745 -0.0317  0.1148  0.3231
    1WF      WF61495  21.316  12.401   0.382  0.1551 -0.2925  0.0470
    1WF      WF61496   3.385  19.272   9.214  0.3577  0.1836  0.0955
    1WF      WF61497  20.059  26.060   0.426  0.2732  0.0553  0.1057
    1WF      WF61498  20.948   8.165   9.252  0.1155  0.0178  0.0929
    1WF      WF61499  23.628  26.355   8.880  0.0330 -0.0682 -0.0909
    1WF      WF61500  12.933  14.894   0.039 -0.1366  0.2683 -0.0118
    1WF      WF61501   7.459  26.057   8.536  0.1142 -0.1032  0.1431
    1WF      WF61502  17.145   7.869   9.030  0.1582  0.2480  0.0927
    1WF      WF61503  24.830   9.515   7.197 -0.1408 -0.2598 -0.2055
    1WF      WF61504   9.408  22.997   8.811  0.1013 -0.3549  0.1040
    1WF      WF61505  27.764   9.113   9.458  0.1465 -0.0663 -0.0520
    1WF      WF61506  28.387  11.895   1.316  0.1524  0.2125 -0.0087
    1WF      WF61507  10.843   3.125   2.939  0.0987  0.1969  0.2088
    1WF      WF61508   9.234  22.642   7.926  0.1204 -0.0227  0.1198
    1WF      WF61509   1.954  16.655   7.505  0.2259  0.1330  0.3022
    1WF      WF61510  19.202  28.695   9.193  0.0638 -0.0545 -0.0025
    1WF      WF61511   2.883  23.045   7.245  0.2653 -0.1445 -0.1202
    1WF      WF61512  17.683   8.164   7.707 -0.0922  0.0795  0.1622
    1WF      WF61513  21.307   9.690   8.392 -0.0900 -0.0370 -0.0903
    1WF      WF61514  10.594   0.848   0.077  0.1036  0.1968 -0.0688
    1WF      WF61515  22.898  21.308   9.471  0.2571  0.0385 -0.2203
    1WF      WF61516  28.109  17.334   8.352  0.0435  0.3031  0.0049
    1WF      WF61517   3.759   7.194   1.171  0.1306 -0.1338  0.1433
    1WF      WF61518  26.157   2.756   8.129 -0.0475 -0.4289 -0.1438
    1WF      WF61519  22.737  13.285   1.601 -0.2092 -0.1328  0.0095
    1WF      WF61520   1.113   1.382   9.941 -0.1068  0.1234  0.0374
    1WF      WF61521   1.650  23.914   9.226  0.0106  0.2187  0.0415
    1WF      WF61522  23.097  12.637   8.760 -0.2915 -0.1620 -0.0010
    1WF      WF61523  15.543   4.961   0.737  0.0836  0.0703  0.1479
    1WF      WF61524  21.126   9.643   7.871  0.2022 -0.1565 -0.0540
    1WF      WF61525  22.359  22.567   1.914 -0.0036 -0.0133  0.3715
    1WF      WF61526  26.398   6.728   1.434 -0.3397 -0.0834  0.0371
    1WF      WF61527  18.363   2.646   9.003  0.0760 -0.1078 -0.0782
    1WF      WF61528  27.585  28.342   7.053 -0.1634 -0.1352  0.1136
    1WF      WF61529  23.821   7.949   0.884  0.0821  0.0253  0.2071
    1WF      WF61530   0.880  14.856   6.279  0.3236 -0.1300  0.2188
    1WF      WF61531  18.679  24.753   1.421  0.3325 -0.2633 -0.1850
    1WF      WF61532   9.803   9.149   3.634 -0.1204  0.0792  0.1136
    1WF      WF61533  11.262  25.742   9.547 -0.1033  0.0948  0.0671
    1WF      WF61534   0.535  26.496   9.035  0.1905 -0.6167 -0.0258
    1WF      WF61535   9.872   7.353   0.910  0.1433 -0.0309 -0.2466
    1WF      WF61536  17.568  23.845   3.712  0.0474  0.0736  0.2295
    1WF      WF61537  27.721   9.390   1.038 -0.0096 -0.0575  0.1175
    1WF      WF61538   9.218  22.900   8.369 -0.0467 -0.2957  0.0606
    1WF      WF61539   3.085  26.834   3.592  0.1036 -0.1715 -0.1752
    1WF      WF61540  20.155  18.799   9.706 -0.0931 -0.1828 -0.1246
    1WF      WF61541  11.452  17.549   0.255  0.1324  0.0802 -0.0629
    1WF      WF61542  22.359  23.151   9.194 -0.4239 -0.4340 -0.0300
    1WF      WF61543  19.812  25.323   0.158 -0.0623 -0.2454  0.1060
    1WF      WF61544  10.288  21.145   0.416 -0.0895 -0.5755 -0.3725
    1WF      WF61545  26.864   9.946   0.340  0.0819 -0.2321  0.0216
    1WF      WF61546  22.973  16.334   0.719 -0.0426  0.1748 -0.1303
    1WF      WF61547   7.646   0.837   8.547  0.1379 -0.0953  0.2165
    1WF      WF61548   2.262  15.913   8.336 -0.1535  0.2598 -0.3851
    1WF      WF61549   1.795  24.475   9.289 -0.2180 -0.1665 -0.3060
    1WF      WF61550   6.225  15.247   9.901  0.0218 -0.4142 -0.1382
    1WF      WF61551   2.211  22.411   8.882 -0.2376 -0.2326 -0.2158
    1WF      WF61552  27.939  20.296   0.514 -0.0256  0.3000 -0.1609
    1WF      WF61553   9.823  13.770   8.883 -0.1422  0.0882  0.0265
    1WF      WF61554   8.849  25.217   7.509  0.1771 -0.0243 -0.0066
    1WF      WF61555  12.116  17.285   2.874  0.0896  0.2223 -0.1133
    1WF      WF61556   6.687  22.819   9.487 -0.0563  0.1431 -0.0264
    1WF      WF61557  20.234  18.869   9.142 -0.0534 -0.3993  0.2686
    1WF      WF61558   7.869  18.263   1.214 -0.3107  0.0053 -0.2307
    1WF      WF61559  26.210   6.242   0.221 -0.0370 -0.0708 -0.0154
    1WF      WF61560  27.286   3.743   1.446  0.2037 -0.0254  0.3036
    1WF      WF61561  16.952  18.817   8.298  0.2836 -0.0892 -0.1164
    1WF      WF61562  13.431   4.241   1.220  0.0348 -0.2483  0.1910
    1WF      WF61563  28.047  13.395   7.465 -0.1681 -0.2093  0.0977
    1WF      WF61564  18.727  20.340   8.923 -0.0280  0.0388 -0.0419
    1WF      WF61565  27.439   5.952   6.931  0.2986  0.4672 -0.2312
    1WF      WF61566  17.200  19.403   0.325  0.0070 -0.2613 -0.1629
    1WF      WF61567  13.449  16.114   1.285  0.1540  0.1417  0.2367
    1WF      WF61568   1.153   1.010   2.941 -0.3614 -0.1485 -0.0520
    1WF      WF61569   2.663  26.677   0.823  0.2346 -0.0138  0.0286
    1WF      WF61570   7.178   4.844   8.891 -0.0093 -0.1713 -0.1426
    1WF      WF61571  23.977  21.963   1.940  0.0974 -0.2733  0.2782
    1WF      WF61572  19.675  25.570   9.690  0.2224  0.0397 -0.1270
    1WF      WF61573  26.261  18.659   2.438 -0.2054  0.0592 -0.1961
    1WF      WF61574  24.585  28.084   8.070 -0.3485  0.1143  0.1044
    1WF      WF61575   9.484   6.964   1.875 -0.1066  0.3283  0.0726
    1WF      WF61576  14.342  22.549   3.338 -0.0626 -0.4816  0.1109
    1WF      WF61577  15.028  28.378   1.888  0.3397  0.2376  0.0314
    1WF      WF61578  15.848  27.629   2.826 -0.0202  0.4542 -0.0958
    1WF      WF61579  17.571  22.268   2.283 -0.2160 -0.0650  0.6786
    1WF      WF61580  22.853  26.860   0.605  0.2571  0.1803  0.2889
    1WF      WF61581  24.698   6.630   6.539  0.0782  0.3188 -0.2456
    1WF      WF61582   7.767  14.312   6.856 -0.1745 -0.0664  0.1956
    1WF      WF61583  27.295  25.379   2.474 -0.1016  0.3529  0.2882
    1WF      WF61584  17.373  25.471   8.935  0.2094 -0.3220  0.1808
    1WF      WF61585  26.937  22.069   9.042  0.1338  0.2751 -0.2294
    1WF      WF61586  21.278  15.809   8.070  0.0923  0.0083 -0.2787
    1WF      WF61587   4.630  27.498   9.573  0.0457  0.3545 -0.1416
    1WF      WF61588  19.386   9.530   1.848  0.0969  0.2598 -0.0889
    1WF      WF61589  18.604   7.683   0.228 -0.0590  0.0407 -0.2854
    1WF      WF61590   4.653  24.439   0.608 -0.0128 -0.2347  0.2146
    1WF      WF61591  11.156  24.357   1.183  0.5375 -0.0359  0.1907
    1WF      WF61592   4.548   3.789   2.375  0.5197 -0.0931 -0.0083
    1WF      WF61593  18.499   9.438   1.473  0.1225 -0.1384  0.0654
    1WF      WF61594  12.363   3.249   1.211 -0.0255  0.0302  0.1429
    1WF      WF61595   5.828  24.749   8.623  0.2391  0.0573  0.0338
    1WF      WF61596  22.871   5.396   9.197  0.4381  0.1400 -0.0207
    1WF      WF61597  11.141  27.684   0.587  0.3408  0.0028  0.1218
    1WF      WF61598  25.633  15.382   9.687  0.1020 -0.1865  0.0980
    1WF      WF61599  22.752  16.919   2.828  0.0349  0.1854  0.1409
    1WF      WF61600  19.088  28.641   0.657  0.0447  0.0976 -0.0227
    1WF      WF61601   3.505  12.148   9.820  0.3700 -0.1045  0.1853
    1WF      WF61602  20.639   5.051   7.995  0.0351  0.0806  0.1834
    1WF      WF61603  18.311  20.641   1.086  0.0737  0.3164  0.2271
    1WF      WF61604  12.243  13.419   9.707 -0.2494 -0.1471  0.0779
    1WF      WF61605  17.394   1.237   9.057 -0.1254 -0.2886 -0.0239
    1WF      WF61606  21.880  10.016   9.027 -0.0601  0.1375 -0.3261
    1WF      WF61607  20.836   0.813   0.000  0.0241  0.2012 -0.1526
    1WF      WF61608  13.640  20.399   9.354  0.3092  0.1243 -0.3522
    1WF      WF61609   2.983  25.626   8.732 -0.0907 -0.0849 -0.0703
    1WF      WF61610   2.227   6.409   9.233  0.2841  0.1461 -0.3191
    1WF      WF61611   1.444  18.213   5.428  0.1005 -0.0502  0.0776
    1WF      WF61612   2.740  27.353   0.744 -0.0323 -0.0183 -0.1863
    1WF      WF61613   9.989  23.605   7.486 -0.1897  0.0117 -0.1116
    1WF      WF61614  18.307  24.421   9.860 -0.1036  0.1279  0.0005
    1WF      WF61615  18.734   0.716   0.868 -0.2886 -0.0573  0.0330
    1WF      WF61616  26.642  16.949   0.856  0.0411  0.1370  0.0382
    1WF      WF61617  24.416   4.799   8.452 -0.1642  0.0806 -0.1065
    1WF      WF61618   5.847  21.940   8.041 -0.1807  0.2755  0.0470
    1WF      WF61619  11.305  27.768   0.099  0.0163 -0.3296 -0.1044
    1WF      WF61620  15.390  12.213   1.463  0.0587 -0.0683 -0.2132
    1WF      WF61621   1.608   2.762   0.015 -0.0443 -0.2659  0.0440
    1WF      WF61622  18.595  16.028   1.695 -0.1147  0.1162 -0.0537
    1WF      WF61623  26.034   9.517   1.376  0.1895 -0.0003  0.2920
    1WF      WF61624  12.795  24.486   2.847  0.1897 -0.1535  0.0635
    1WF      WF61625   2.307   4.869   8.795 -0.4201  0.3501  0.3839
    1WF      WF61626   4.089  18.293   9.267  0.1110  0.0613 -0.2959
    1WF      WF61627  20.740   9.764   8.289 -0.3867  0.0447  0.1465
    1WF      WF61628  15.531   4.299   2.089 -0.0324 -0.0596  0.0467
    1WF      WF61629  20.364  23.503   9.537  0.2477 -0.2944  0.1419
    1WF      WF61630   1.239  18.268   6.692  0.0197 -0.5393  0.2299
    1WF      WF61631   6.162   6.150   8.572  0.1227 -0.0474  0.0133
    1WF      WF61632   0.553  28.677   0.702  0.3132 -0.0548  0.0500
    1WF      WF61633  10.905  16.266   0.768 -0.0059  0.0670 -0.1962
    1WF      WF61634  26.481   8.592   1.011  0.0113 -0.2192  0.0681
    1WF      WF61635  15.975  11.199   0.658  0.1695  0.0590  0.1206
    1WF      WF61636  20.926  27.672   8.491 -0.0075  0.2716 -0.2991
    1WF      WF61637  25.407  16.651   8.718  0.3293 -0.4787  0.3856
    1WF      WF61638  23.024  12.168   9.008 -0.1115 -0.0658 -0.0214
    1WF      WF61639   1.580  15.336   7.630  0.0840  0.0918 -0.0083
    1WF      WF61640   4.524   5.678   9.487  0.0668 -0.0154  0.2708
    1WF      WF61641  19.549  17.326   8.867  0.0365  0.0914  0.1095
    1WF      WF61642   2.903  18.932   5.441  0.1399 -0.0981 -0.1170
    1WF      WF61643   0.764   3.782   3.149 -0.1909  0.3566  0.1791
    1WF      WF61644  10.136  14.836   0.990  0.4452 -0.5064  0.1867
    1WF      WF61645   5.466  13.893   1.223  0.2146  0.1367 -0.3410
    1WF      WF61646  15.614   0.918   0.969  0.2363 -0.2031  0.0144
    1WF      WF61647  10.188  22.680   9.472  0.0354 -0.2876  0.1550
    1WF      WF61648   3.892  22.856   6.774  0.3635  0.3651 -0.2751
    1WF      WF61649  12.209  20.382   0.085  0.2301  0.1862 -0.0662
    1WF      WF61650  11.676  22.696   0.291 -0.1037  0.0844 -0.1070
    1WF      WF61651   8.612  18.051   0.478  0.3154  0.2043  0.1070
    1WF      WF61652  17.256  12.356   8.840  0.0507 -0.1310  0.1128
    1WF      WF61653   3.896   2.276   8.307 -0.2596 -0.0361 -0.0110
    1WF      WF61654  20.794   6.049   7.965 -0.0534  0.1431  0.2866
    1WF      WF61655  14.025   8.303   9.400  0.1663 -0.1600  0.1632
    1WF      WF61656  22.455  24.447   6.845  0.1011 -0.1014  0.0842
    1WF      WF61657   1.273   1.652   0.649 -0.0246  0.2256 -0.0123
    1WF      WF61658  25.246  23.588   8.787 -0.1956 -0.2213 -0.2110
    1WF      WF61659  20.801  16.089   9.086  0.0358  0.0539  0.3676
    1WF      WF61660  25.254  27.085   3.485  0.0104  0.5203 -0.1592
    1WF      WF61661  11.645   8.297   0.397 -0.1773  0.0887 -0.3197
    1WF      WF61662   1.291   9.228   7.942 -0.2099 -0.1690  0.0894
    1WF      WF61663   3.375  13.803   1.288 -0.0090 -0.0464 -0.0217
    1WF      WF61664   1.494   7.020   2.441 -0.0663  0.0589 -0.3492
    1WF      WF61665   0.349   4.422   9.618 -0.0122  0.1874  0.0683
    1WF      WF61666  13.433   3.037   7.810 -0.0989  0.0401  0.2002
    1WF      WF61667  23.000  14.121   1.600 -0.0257  0.3485  0.1683
    1WF      WF61668  21.987  13.917   0.110  0.4152  0.0586 -0.0005
    1WF      WF61669  20.787   9.164   2.535  0.0934  0.1235 -0.0031
    1WF      WF61670  24.741   7.243   7.629  0.2142  0.2111  0.2144
    1WF      WF61671   1.646  13.640   0.280  0.2867  0.1507 -0.1194
    1WF      WF61672   3.126  24.887   8.317 -0.0009 -0.0688  0.0265
    1WF      WF61673  15.007  16.977   1.756  0.0593 -0.2109  0.1865
    1WF      WF61674  26.861  12.485   7.866 -0.3281 -0.1858  0.1700
    1WF      WF61675  10.056  10.907   3.105 -0.1670 -0.2859 -0.1901
    1WF      WF61676  14.727   6.892   0.938 -0.0258  0.1159  0.3134
    1WF      WF61677  12.045  12.189   8.654  0.1648  0.0459  0.2934
    1WF      WF61678  25.258  16.771   1.312  0.1051  0.1176  0.0488
    1WF      WF61679  16.412  12.653   8.284 -0.0516  0.0990 -0.1297
    1WF      WF61680  21.737   3.091   8.250  0.1299  0.0743 -0.0564
    1WF      WF61681  16.199   3.181   1.027  0.2440 -0.0676 -0.2160
    1WF      WF61682  15.015  12.747   0.729  0.0058 -0.0116 -0.3291
    1WF      WF61683   3.225   9.716   8.964 -0.1508  0.1017  0.1033
    1WF      WF61684  26.252  22.747   8.808  0.0520 -0.1493  0.3225
    1WF      WF61685  14.448  22.557   9.473 -0.0819 -0.2670  0.0281
    1WF      WF61686   6.373   2.036   8.043 -0.2020  0.1128 -0.0149
    1WF      WF61687  23.323   7.889   0.933  0.0391  0.0814 -0.0825
    1WF      WF61688  17.003  12.030   7.309 -0.1246  0.2663 -0.3476
    1WF      WF61689   5.477   0.748   9.171 -0.1241  0.0801  0.0346
    1WF      WF61690   2.694  23.327   8.755 -0.2266  0.0711  0.1126
    1WF      WF61691   7.675   2.237   0.972  0.2702 -0.1727  0.0167
    1WF      WF61692   1.674  23.365   1.008 -0.0851  0.2732 -0.4062
    1WF      WF61693  26.431  18.475   0.619  0.3771 -0.0603 -0.0499
    1WF      WF61694   7.473   4.612   0.224  0.1232  0.0328 -0.0718
    1WF      WF61695   0.547  11.278   8.227  0.0170  0.1155 -0.0603
    1WF      WF61696  11.783  21.547   8.533 -0.0416  0.0403 -0.0889
    1WF      WF61697   8.195  15.656   0.516  0.0508 -0.1273 -0.0391
    1WF      WF61698  23.323  18.210   1.504 -0.1613 -0.0911 -0.2634
    1WF      WF61699   8.095   1.317   3.415  0.4422 -0.0526 -0.2469
    1WF      WF61700  26.928  15.553   7.757 -0.1954  0.0576  0.0583
    1WF      WF61701   6.488  21.551   2.665 -0.1139 -0.0580  0.0060
    1WF      WF61702  25.678  17.952   7.213 -0.3405 -0.0698  0.0395
    1WF      WF61703   6.823   5.306   8.621  0.4678 -0.2091 -0.1104
    1WF      WF61704  10.755  22.722   1.148  0.1215  0.1113  0.1838
    1WF      WF61705   1.675  15.823   7.422 -0.4009  0.0849  0.0535
    1WF      WF61706  28.440  26.261   8.330  0.0388 -0.1613 -0.0809
    1WF      WF61707  19.511  21.782   9.241  0.1492 -0.0862  0.1208
    1WF      WF61708  28.169  12.648   9.638 -0.2706 -0.0682  0.1421
    1WF      WF61709  11.550  27.828   9.594 -0.1972 -0.2582 -0.0241
    1WF      WF61710  12.140  11.010   1.716  0.0785  0.2155 -0.0823
    1WF      WF61711   3.315  23.615   9.013  0.2274 -0.0335 -0.0708
    1WF      WF61712  24.420  27.129   1.014  0.0180 -0.0287 -0.0374
    1WF      WF61713  10.559  15.048   9.924  0.0182 -0.0578  0.0063
    1WF      WF61714   9.086  13.540   1.263  0.0388  0.1598 -0.0362
    1WF      WF61715  17.517   8.463   2.177 -0.4049  0.0765  0.0827
    1WF      WF61716   7.664  13.885   7.051 -0.0513 -0.0003  0.1919
    1WF      WF61717  26.723   1.036   0.777  0.0224 -0.0221  0.2114
    1WF      WF61718   8.704  26.724   1.228 -0.2792 -0.0392 -0.2189
    1WF      WF61719  15.261  10.635   1.970  0.0326 -0.2376  0.1126
    1WF      WF61720   9.227  16.418   0.968 -0.2322 -0.0096 -0.0541
    1WF      WF61721   0.228   2.048   9.032 -0.2167  0.0998 -0.0431
    1WF      WF61722  27.050  19.570   8.436 -0.0747 -0.0665 -0.1504
    1WF      WF61723  24.214  28.315   7.856 -0.0372 -0.1743  0.0761
    1WF      WF61724  26.222   4.553   7.690  0.0111  0.1911  0.0635
    1WF      WF61725   8.842  14.219   9.933  0.1991  0.4738  0.0121
    1WF      WF61726   7.667  18.115   7.455 -0.1003 -0.4164 -0.1557
    1WF      WF61727   4.870  11.114   2.406  0.0975 -0.0588  0.0121
    1WF      WF61728  14.844   2.612   3.509  0.2183 -0.0229  0.0884
    1WF      WF61729  20.554  10.003   0.155  0.0842 -0.0833 -0.0608
    1WF      WF61730  28.588   0.727   8.794  0.1822  0.0618  0.1330
    1WF      WF61731  28.666  11.560   1.004  0.3598  0.0626  0.0295
    1WF      WF61732  20.087   8.520   8.886  0.0783 -0.1021  0.1057
    1WF      WF61733   0.035   0.297   9.022 -0.0623  0.4576  0.2016
    1WF      WF61734  10.212   9.157   1.896  0.0738  0.0135  0.2406
    1WF      WF61735  11.563  12.129   8.765  0.1850 -0.2402 -0.1275
    1WF      WF61736  27.007   0.868   7.825  0.0922  0.2509  0.0710
    1WF      WF61737  19.021  12.868   7.894  0.0010 -0.2031 -0.0159
    1WF      WF61738   0.384   5.388   9.825  0.2322  0.1313 -0.1670
    1WF      WF61739   0.904  24.647   1.280  0.2051 -0.1819  0.0109
    1WF      WF61740  10.955  21.901   9.869 -0.1649  0.0864  0.2853
    1WF      WF61741   8.057  18.325   7.831 -0.1114  0.2760 -0.0255
    1WF      WF61742  15.415  18.870   7.640  0.0288  0.0092 -0.2511
    1WF      WF61743  22.224   7.145   9.866  0.2214  0.0234  0.2130
    1WF      WF61744  10.536   6.565   8.370 -0.1081  0.0100 -0.1688
    1WF      WF61745  26.747  28.696   8.624  0.0707  0.0321 -0.0802
    1WF      WF61746  17.386  26.185   0.981 -0.1472 -0.0092 -0.0279
    1WF      WF61747  18.911  26.903   8.342  0.2888 -0.0672  0.0740
    1WF      WF61748  12.290   8.647   3.430  0.0124  0.2114 -0.1297
    1WF      WF61749   7.545   4.484   1.505 -0.2810 -0.2959 -0.1726
    1WF      WF61750   6.039  11.761   2.183 -0.1579 -0.3139  0.0454
    1WF      WF61751  24.038   6.072   0.664  0.0230 -0.1582  0.1240
    1WF      WF61752  16.218  15.059   7.753 -0.1423  0.0167  0.0150
    1WF      WF61753  28.636   9.898   8.111 -0.0995 -0.1376 -0.1291
    1WF      WF61754  18.512   4.270   9.558  0.1357  0.0612 -0.4002
    1WF      WF61755  12.387  12.057   0.974  0.1541 -0.2295  0.0109
    1WF      WF61756   7.558  14.881   9.611 -0.1464  0.3644 -0.3825
    1WF      WF61757  21.275  10.849   9.941  0.0655 -0.0335  0.2384
    1WF      WF61758  20.330   1.815   0.566  0.0356  0.0963 -0.0913
    1WF      WF61759   0.566   4.261   9.055 -0.1487 -0.1062  0.2288
    1WF      WF61760   4.268   5.088   8.461 -0.2452 -0.1745 -0.0895
    1WF      WF61761  24.758  26.239   9.121 -0.0837  0.1176  0.0867
    1WF      WF61762  28.562  26.816   0.348  0.0351  0.0058 -0.0487
    1WF      WF61763  15.347   4.571   0.465  0.2900  0.0587 -0.0989
    1WF      WF61764  13.251  24.509   1.600  0.0822  0.2360  0.1723
    1WF      WF61765   1.587   4.752   6.723  0.1149 -0.3430  0.0207
    1WF      WF61766  27.990   1.646   5.991  0.0389  0.0223  0.1054
    1WF      WF61767  27.991   0.006   1.724 -0.1285 -0.3460 -0.0209
    1WF      WF61768  23.225  20.423   9.449 -0.1587  0.2578 -0.2484
    1WF      WF61769  21.353  23.757   9.161  0.0949  0.0238  0.0750
    1WF      WF61770   7.683  17.907   2.623 -0.1253 -0.0992 -0.1820
    1WF      WF61771  11.084  28.288   1.717  0.0494 -0.0082  0.0172
    1WF      WF61772  11.938   8.039   0.853  0.0446  0.2058  0.2717
    1WF      WF61773   6.886   4.777   9.406 -0.3402 -0.1720 -0.1812
    1WF      WF61774   3.492  23.082   7.112  0.0232  0.1497 -0.4317
    1WF      WF61775   0.596   5.819   9.251  0.1734 -0.4139  0.1630
    1WF      WF61776  15.882  17.649   0.166 -0.1036  0.1172 -0.0351
    1WF      WF61777  22.081  16.723   9.858  0.3279 -0.2422  0.1635
    1WF      WF61778   0.788   5.797   9.749 -0.1777  0.0540 -0.1703
    1WF      WF61779  22.416  18.399   1.291 -0.0830  0.1753 -0.1515
    1WF      WF61780  26.251   9.498   7.259  0.1833 -0.2303  0.1189
    1WF      WF61781  16.425   7.651   0.918  0.3632 -0.3386 -0.1624
    1WF      WF61782  14.294  25.145   9.332 -0.0881  0.2653  0.0836
    1WF      WF61783  10.966   9.546   1.210  0.1960  0.1931 -0.2202
    1WF      WF61784  28.170  28.721   0.860 -0.2210 -0.0837  0.0022
    1WF      WF61785  20.061  27.381   0.549  0.1992 -0.2145 -0.1312
    1WF      WF61786  11.081   4.919   0.590 -0.2434 -0.1658  0.3689
    1WF      WF61787   7.129   3.253   2.273  0.0058 -0.2772  0.4613
    1WF      WF61788   0.605  22.426   7.572  0.1604 -0.2113 -0.0478
    1WF      WF61789  23.824  18.167   0.482  0.0835  0.1173 -0.1143
    1WF      WF61790  21.309   0.886   1.358 -0.3886 -0.1972 -0.0721
    1WF      WF61791  28.389  22.024   0.911  0.1440 -0.0094  0.2165
    1WF      WF61792  15.813   9.369   1.437  0.0911  0.0101  0.1352
    1WF      WF61793  25.225  12.703   9.721 -0.1772  0.1203  0.0664
    1WF      WF61794  25.779  17.883   8.424  0.1269 -0.1112  0.3064
    1WF      WF61795  27.415  24.635   9.072  0.0818 -0.2322 -0.0914
    1WF      WF61796  20.148  17.068   7.418 -0.1790  0.1543 -0.0948
    1WF      WF61797   8.688  24.889   1.861  0.0945  0.1701 -0.0186
    1WF      WF61798  10.849  25.041   2.916 -0.0386  0.0285 -0.1147
    1WF      WF61799  18.611  23.138   9.499  0.1750  0.1715  0.0777
    1WF      WF61800   2.691  24.123   2.084  0.0925 -0.0855  0.0799
    1WF      WF61801  11.959  26.507   8.047  0.0080 -0.0795  0.0683
    1WF      WF61802  25.068   9.380   9.479  0.3267 -0.2581  0.1054
    1WF      WF61803  17.232   3.680   2.203  0.0637 -0.2946 -0.1485
    1WF      WF61804  25.770   6.997   0.758  0.2229  0.0704  0.0536
    1WF      WF61805  19.424  16.956   0.107  0.1755 -0.2420 -0.0457
    1WF      WF61806  24.312   0.497   7.093 -0.1847 -0.1024  0.1448
    1WF      WF61807   2.235   7.181   9.252 -0.3001 -0.1545 -0.0420
    1WF      WF61808  26.237  25.963   0.826 -0.0598 -0.0320  0.0034
    1WF      WF61809  19.821  17.085   0.512 -0.2132  0.1017  0.2176
    1WF      WF61810   0.307  13.598   9.782  0.3705 -0.1249  0.4290
    1WF      WF61811  21.223  18.186   0.074 -0.1370  0.0741  0.0473
    1WF      WF61812  28.212  14.525   0.759  0.1369 -0.1078  0.2250
    1WF      WF61813   4.584   7.409   2.632  0.0950  0.3109  0.0772
    1WF      WF61814  13.001  28.459   9.204  0.0618  0.2879 -0.1850
    1WF      WF61815  17.014  22.282   9.124 -0.1936  0.0890  0.4393
    1WF      WF61816  19.855  21.790   1.992 -0.1505 -0.1395  0.3210
    1WF      WF61817  10.095   4.707   3.989  0.2202  0.2408 -0.2241
    1WF      WF61818  11.659  20.163   1.446 -0.0736  0.0202 -0.3418
    1WF      WF61819  11.210   1.762   8.821 -0.2698  0.1204 -0.3276
    1WF      WF61820   9.049  13.286   1.704  0.1249 -0.0248 -0.0948
    1WF      WF61821   0.649   8.014   1.897  0.2424 -0.3920  0.0040
    1WF      WF61822  13.235  22.657   9.126  0.1712 -0.2510  0.2345
    1WF      WF61823  20.900   8.862   0.561  0.0668 -0.0599 -0.0778
    1WF      WF61824  22.396  18.328   0.197 -0.1080  0.0799 -0.1442
    1WF      WF61825   1.342   8.782   1.834 -0.2223 -0.3236  0.0911
    1WF      WF61826   7.181  11.054   0.815  0.1283 -0.1767 -0.2392
    1WF      WF61827  25.031  10.302   1.939  0.1532  0.0455  0.0401
    1WF      WF61828   1.032  16.037   9.228 -0.0074  0.1360 -0.0941
    1WF      WF61829  13.531  28.677   9.280  0.1825  0.1974  0.2867
    1WF      WF61830  16.209  14.099   0.025 -0.1757  0.1148  0.3288
    1WF      WF61831  11.686  26.493   0.036 -0.0346  0.0560  0.1381
    1WF      WF61832  17.986  15.170   0.029 -0.0715 -0.0517 -0.1225
    1WF      WF61833   4.183   4.311   8.254  0.3401 -0.0758  0.3551
    1WF      WF61834   5.486  25.464   2.775  0.1402  0.0154 -0.0506
    1WF      WF61835  13.364  10.992   8.872  0.3547  0.4941 -0.1365
    1WF      WF61836  17.966  26.228   6.297  0.1275  0.1868 -0.1570
    1WF      WF61837   2.653  15.868   8.038  0.0853  0.0090 -0.1565
    1WF      WF61838   9.374  22.900   6.379 -0.0518  0.2602 -0.3911
    1WF      WF61839  21.759  11.915   8.055 -0.2977  0.1680  0.0485
    1WF      WF61840   4.962  24.030   0.682  0.0041  0.4792  0.4435
    1WF      WF61841  12.913  20.622   1.468  0.2080  0.2878 -0.0210
    1WF      WF61842   3.484  14.140   8.884 -0.0367 -0.2111 -0.0082
    1WF      WF61843  16.782  12.474   7.851 -0.2080  0.0240 -0.1683
    1WF      WF61844   5.308  14.610   0.358  0.1187 -0.3412 -0.1002
    1WF      WF61845   9.904  27.851   1.228  0.0895 -0.1098 -0.0322
    1WF      WF61846  20.083   6.489   0.627 -0.1239 -0.1838 -0.4221
    1WF      WF61847  17.186   5.899   0.129 -0.0509  0.2175 -0.0197
    1WF      WF61848  20.451   5.119   8.440  0.0942 -0.0632  0.0878
    1WF      WF61849  23.036  20.973   1.108 -0.2048 -0.2880 -0.4241
    1WF      WF61850  21.757  27.680   9.442  0.0545  0.1155 -0.4417
    1WF      WF61851  21.678  13.261   6.605  0.1194  0.0655 -0.1289
    1WF      WF61852  15.313  17.387   8.904  0.1801  0.3503 -0.3877
    1WF      WF61853   1.246   8.893   9.328  0.2221 -0.0541  0.1647
    1WF      WF61854   3.297   5.355   6.392  0.0531 -0.1631 -0.5423
    1WF      WF61855  17.882  18.551   7.927  0.0944 -0.1452  0.4332
    1WF      WF61856   1.130   1.365   7.175  0.1711  0.1400 -0.1082
    1WF      WF61857   2.055   8.247   0.527  0.2012 -0.0642 -0.0145
    1WF      WF61858  28.650  15.614   0.791 -0.0484 -0.4063  0.1067
    1WF      WF61859   4.285  12.963   0.323 -0.0387  0.2480  0.1113
    1WF      WF61860  19.245  13.471   8.668 -0.0390 -0.2661  0.4451
    1WF      WF61861  25.030  20.719   7.638 -0.1998  0.1783 -0.1836
    1WF      WF61862  10.287  13.741   3.035 -0.0255 -0.1076 -0.1090
    1WF      WF61863   0.406  23.990   3.696 -0.0141 -0.1455  0.0840
    1WF      WF61864  25.722   5.867   8.026  0.1277  0.0539 -0.2988
    1WF      WF61865  18.108   7.467   8.683  0.3184  0.1498 -0.0421
    1WF      WF61866  14.720  25.927   1.947  0.0990  0.0756  0.0630
    1WF      WF61867  15.744  22.334   8.094 -0.0753  0.3245  0.2511
    1WF      WF61868  17.986  20.880   1.352 -0.0576 -0.1582  0.1961
    1WF      WF61869  12.357  25.622   9.386 -0.2494  0.2306 -0.0069
    1WF      WF61870  14.537  25.479   0.685  0.1760  0.0296  0.2513
    1WF      WF61871   2.816  27.656   1.147  0.2494 -0.0805  0.0438
    1WF      WF61872   8.266  16.046   9.950  0.0368 -0.0836 -0.1215
    1WF      WF61873  15.066   8.405   9.939  0.0436 -0.3631 -0.2501
    1WF      WF61874   7.084  25.945   6.700  0.2575 -0.1125  0.1423
    1WF      WF61875  24.150   7.577   1.100 -0.2489 -0.1639 -0.2045
    1WF      WF61876   7.293  25.348   9.784  0.2847  0.0436 -0.1785
    1WF      WF61877  14.592   8.423   1.426 -0.0942 -0.1115 -0.1757
    1WF      WF61878   8.949  24.519   2.008 -0.0204 -0.0852 -0.2976
    1WF      WF61879  11.346  24.880   3.022  0.0794  0.1853  0.1932
    1WF      WF61880  10.344   7.487   0.684 -0.0981  0.2324 -0.2336
    1WF      WF61881  16.126   8.157   8.718 -0.1135 -0.1478 -0.3315
    1WF      WF61882   8.232   1.216   9.275 -0.0281  0.1888 -0.2431
    1WF      WF61883   0.716  21.498   8.273  0.0921  0.0504  0.1893
    1WF      WF61884   5.951  20.880   8.426 -0.1863  0.0690 -0.0361
    1WF      WF61885  15.253   2.429   8.997 -0.3875 -0.4016  0.1908
    1WF      WF61886   5.965   5.809   0.128 -0.0983 -0.1064  0.2247
    1WF      WF61887  18.453  10.699   9.510  0.1102 -0.0826 -0.0407
    1WF      WF61888   2.134  27.505   0.440  0.2443 -0.1261  0.2732
    1WF      WF61889  22.180   8.372   2.573  0.2854  0.0858 -0.1564
    1WF      WF61890  12.106  22.332   0.400  0.0872 -0.1548  0.0242
    1WF      WF61891  23.504   7.727   0.516  0.1076 -0.1135  0.0795
    1WF      WF61892  17.948  14.754   9.365  0.1860 -0.1393  0.3008
    1WF      WF61893  27.664   3.989   6.377 -0.1432  0.3056 -0.3932
    1WF      WF61894  17.912   9.887   9.001 -0.1556  0.1924 -0.0354
    1WF      WF61895  17.693   7.565   9.066  0.2243  0.1139 -0.1726
    1WF      WF61896  15.405  28.105   0.231  0.1472  0.0993  0.1714
    1WF      WF61897   5.756  11.331   2.139 -0.0350 -0.1155  0.0183
    1WF      WF61898   2.571  23.568   8.259 -0.1772 -0.0743  0.1678
    1WF      WF61899   8.201  24.898   1.489  0.1550  0.0599 -0.1074
    1WF      WF61900   7.963  11.133   1.179 -0.0083  0.0822 -0.0622
    1WF      WF61901  27.612  15.473   6.991 -0.1369  0.3524  0.0352
    1WF      WF61902  24.105  10.912   7.997 -0.0332 -0.5035  0.0330
    1WF      WF61903  26.945  15.958   1.236  0.2234  0.1976  0.1144
    1WF      WF61904  22.233  11.844   7.826 -0.4276 -0.0504  0.2815
    1WF      WF61905  20.912   2.455   0.201  0.0480 -0.2190 -0.0996
    1WF      WF61906  13.328  20.860   1.725 -0.5318 -0.1297  0.1472
    1WF      WF61907  12.153  12.486   1.155  0.2053 -0.1179 -0.2508
    1WF      WF61908  12.208  18.007   7.868  0.4093  0.1568  0.0124
    1WF      WF61909  16.692  10.761   7.987  0.0522  0.1027 -0.0429
    1WF      WF61910  11.297   5.647   7.571 -0.4394  0.0907 -0.1884
    1WF      WF61911   8.136  25.254   0.026 -0.0313 -0.2418 -0.0155
    1WF      WF61912   0.119  20.105   6.120  0.0505  0.0898 -0.0304
    1WF      WF61913  12.697   0.032   0.697 -0.0454 -0.1903  0.2226
    1WF      WF61914  17.393  25.052   8.728  0.1905  0.1516 -0.0518
    1WF      WF61915  26.882  16.209   1.843 -0.4721  0.2178  0.0001
    1WF      WF61916  23.956  25.018   1.108  0.1585  0.2057  0.0716
    1WF      WF61917   4.490  11.866   1.302 -0.1925  0.1811  0.0820
    1WF      WF61918   8.522  25.455   6.552 -0.1959  0.0015 -0.2562
    1WF      WF61919   9.233  15.631   8.706 -0.3476 -0.0050  0.5882
    1WF      WF61920  15.747   6.869   9.758 -0.0920 -0.0768  0.3865
    1WF      WF61921  17.348  20.527   1.639 -0.0314 -0.2319 -0.1032
    1WF      WF61922   5.550  16.521   9.298  0.0739  0.0755  0.1306
    1WF      WF61923  18.127   7.181   9.090  0.0134 -0.0754 -0.2001
    1WF      WF61924  20.409  14.223   1.329 -0.1894 -0.0681 -0.1450
    1WF      WF61925   3.351   1.641   1.104 -0.0077  0.0393  0.1401
    1WF      WF61926   1.592   3.178   2.011 -0.0098 -0.0339 -0.2588
    1WF      WF61927  19.464  27.163   3.658  0.0809  0.1223  0.1480
    1WF      WF61928  10.014  20.476   9.596 -0.0785 -0.0908  0.1061
    1WF      WF61929  19.502   6.680   7.407  0.1393  0.1443  0.2124
    1WF      WF61930  11.383  18.907   1.255 -0.1671 -0.1917  0.1173
    1WF      WF61931   8.206  19.378   6.551 -0.0115  0.2593 -0.1146
    1WF      WF61932  11.981  18.904   1.207 -0.3248  0.0469 -0.1390
    1WF      WF61933  15.683   4.614   9.890 -0.2533 -0.0529 -0.0060
    1WF      WF61934  22.747   0.111   1.330 -0.0458 -0.4136  0.2247
    1WF      WF61935  20.384  11.364   8.968 -0.2051 -0.1893  0.0895
    1WF      WF61936   4.421  11.076   0.684 -0.5143 -0.0546  0.0161
    1WF      WF61937   5.841  25.333   2.447 -0.0411  0.1556 -0.0197
    1WF      WF61938  26.305   4.712   6.072 -0.0153 -0.0332 -0.0644
    1WF      WF61939   8.420   3.982   0.411  0.0495 -0.0784  0.1091
    1WF      WF61940  11.607   0.705   7.765 -0.1322 -0.3137  0.1503
    1WF      WF61941  22.975  19.179   9.312  0.0210 -0.1415 -0.1233
    1WF      WF61942  15.182  12.642   1.279 -0.0196 -0.4640  0.2155
    1WF      WF61943   9.041  24.391   1.489  0.0884 -0.0950  0.0090
    1WF      WF61944  27.436  28.615   1.540  0.2536 -0.0684 -0.1490
    1WF      WF61945   3.059  22.616   7.456  0.1502 -0.2922 -0.3010
    1WF      WF61946   7.159  23.742   5.710  0.2767 -0.0727  0.0886
    1WF      WF61947   9.889   8.252   2.044 -0.1604  0.1097  0.2556
    1WF      WF61948  18.290  16.308   9.625 -0.0777  0.1096 -0.2716
    1WF      WF61949   4.674  10.154   0.261 -0.2259  0.0042 -0.0435
    1WF      WF61950  13.189  20.997   1.127  0.2025  0.1163 -0.0328
    1WF      WF61951   9.879  24.542   8.294 -0.2937  0.1883  0.5261
    1WF      WF61952   4.386   4.415   6.941  0.0128 -0.0932  0.0199
    1WF      WF61953   6.637  19.621   7.605  0.1342 -0.1784 -0.0263
    1WF      WF61954  20.167  19.620   7.064  0.1880  0.1058  0.0473
    1WF      WF61955   6.582  27.493   9.618 -0.0077 -0.0345  0.0674
    1WF      WF61956  24.431   3.130   8.912 -0.0968  0.1758  0.0629
    1WF      WF61957   3.796  23.438   9.150 -0.3606 -0.2050 -0.0418
    1WF      WF61958   2.195  16.676   1.795 -0.2486  0.2951  0.0463
    1WF      WF61959   9.538   7.407   2.118 -0.0018  0.0916  0.1933
    1WF      WF61960   0.670  18.796   8.328 -0.0404  0.3312 -0.4681
    1WF      WF61961   8.340  22.583   0.891 -0.0227  0.0635 -0.1812
    1WF      WF61962  26.447   2.972   1.765  0.0396 -0.2391 -0.1810
    1WF      WF61963  25.186   9.838   2.118  0.0409  0.0832  0.1587
    1WF      WF61964   5.777  24.600   8.159 -0.1045 -0.1738 -0.1342
    1WF      WF61965  14.734  23.963   8.430 -0.1387 -0.0429 -0.0923
    1WF      WF61966  13.258   4.575   2.545 -0.0257  0.2120  0.1784
    1WF      WF61967   1.983   6.420   0.823 -0.3938 -0.0838  0.0702
    1WF      WF61968   9.428  13.497   0.416 -0.0029 -0.3272 -0.1478
    1WF      WF61969  18.047   7.625   7.005 -0.2426  0.1287  0.0386
    1WF      WF61970   0.952  10.209   1.408  0.1550 -0.0028  0.0447
    1WF      WF61971   7.156  24.778   2.585 -0.2898 -0.2258 -0.1689
    1WF      WF61972  22.864  26.349   0.645 -0.0211 -0.0660 -0.1941
    1WF      WF61973   9.312  14.090   9.739 -0.0084 -0.0577  0.3267
    1WF      WF61974  12.760  28.019   9.633 -0.2760  0.0037  0.1646
    1WF      WF61975   6.168   6.020   6.530  0.2186  0.2195 -0.0642
    1WF      WF61976  19.564  16.571   0.506 -0.3562 -0.2085 -0.2189
    1WF      WF61977  21.036  19.959   1.835 -0.1646  0.0390 -0.0021
    1WF      WF61978  28.331   7.000   0.327  0.0611 -0.2684  0.1683
    1WF      WF61979   8.207   4.495   7.638 -0.0030 -0.1864 -0.0347
    1WF      WF61980   5.984   5.136   7.859  0.3108 -0.2886  0.0037
    1WF      WF61981  19.658  28.621   8.979  0.0121 -0.1264 -0.0192
    1WF      WF61982  26.919  16.075   8.025  0.1225 -0.1353 -0.2622
    1WF      WF61983   7.246  11.194   9.532  0.1867  0.0840  0.3348
    1WF      WF61984  25.726   1.246   8.217 -0.2366  0.0670 -0.0881
    1WF      WF61985  11.881  25.057   0.680  0.1983  0.1730  0.1608
    1WF      WF61986  14.671  12.855   8.715  0.0610 -0.0070  0.1766
    1WF      WF61987  23.792   8.914   6.318 -0.2642 -0.0620  0.2255
    1WF      WF61988   8.346   1.562   8.904  0.5323 -0.1834  0.0746
    1WF      WF61989   4.526   4.658   8.412  0.1707 -0.3026 -0.1689
    1WF      WF61990   3.770  15.838   7.860 -0.0658  0.0448 -0.2246
    1WF      WF61991  25.267  16.087   6.320 -0.2658 -0.2423 -0.2109
    1WF      WF61992  22.554   3.687   0.023  0.2102  0.1349  0.4285
    1WF      WF61993   1.155  12.681   1.471 -0.1478 -0.0359 -0.1905
    1WF      WF61994  22.681  20.766   1.359  0.0296  0.2175 -0.4047
    1WF      WF61995  16.578   0.010   8.635  0.0243 -0.0983  0.1151
    1WF      WF61996  26.059   8.259   7.736 -0.0593  0.0775 -0.0205
    1WF      WF61997  10.811   6.898   8.037 -0.1879 -0.0490  0.0047
    1WF      WF61998  18.185  10.749   6.717  0.0326  0.1763 -0.2464
    1WF      WF61999   9.499  26.129   7.802 -0.0376  0.1611 -0.3780
    1WF      WF62000  22.447  21.190   1.125  0.3397  0.0571  0.1297
    1WF      WF62001   7.916  19.535   7.460  0.2111  0.2580 -0.2769
    1WF      WF62002  22.729   4.905   8.946  0.0358 -0.0954 -0.1836
    1WF      WF62003  23.507  28.476   0.219  0.1744  0.1836 -0.1230
    1WF      WF62004  22.020   5.821   1.905  0.1661 -0.2395  0.3798
    1WF      WF62005  28.438   2.603   8.265  0.0846  0.0368 -0.2054
    1WF      WF62006   9.716   4.930   0.289 -0.0363  0.1058 -0.0758
    1WF      WF62007   5.672  20.956   8.837  0.0673 -0.0559 -0.3020
    1WF      WF62008   8.429  17.456   2.003 -0.1177  0.0402 -0.1052
    1WF      WF62009  19.295   1.965   0.799 -0.0747  0.0790  0.1595
    1WF      WF62010   1.981  19.667   1.683  0.4547  0.1413  0.0912
    1WF      WF62011   5.635  21.451   2.518 -0.0140 -0.2261 -0.0123
    1WF      WF62012  10.156  22.567   1.908 -0.2000 -0.1475 -0.0677
    1WF      WF62013  19.251  19.990   3.246  0.2438  0.0491  0.3232
    1WF      WF62014  28.360   0.707   0.793 -0.1299 -0.1413 -0.0579
    1WF      WF62015   1.224  24.282   9.168 -0.2611  0.1035 -0.0051
    1WF      WF62016  11.332   2.960   2.904  0.0421  0.0559 -0.0212
    1WF      WF62017   0.609  17.150   9.492 -0.1677  0.0665  0.1273
    1WF      WF62018  25.675   7.528   0.909 -0.2627  0.1601 -0.1001
    1WF      WF62019   9.255  21.999   9.881  0.2362  0.2520  0.1070
    1WF      WF62020  19.099   3.502   2.877  0.3066 -0.0947  0.1697
    1WF      WF62021  23.821  27.814   9.430  0.1478  0.1270  0.0210
    1WF      WF62022   3.214  15.715   0.146  0.0124  0.2324 -0.1392
    1WF      WF62023  22.093  12.125   1.803  0.0518 -0.0346 -0.0900
    1WF      WF62024  10.738  17.103   1.125 -0.1299  0.0060 -0.0308
    1WF      WF62025  15.445   7.436   7.350  0.0814  0.2208  0.1074
    1WF      WF62026   9.016  16.900   9.337  0.0579 -0.0158  0.0821
    1WF      WF62027   8.023   0.931   1.631  0.1058  0.2360  0.1071
    1WF      WF62028  27.320  18.654   7.333 -0.0830  0.2470  0.0033
    1WF      WF62029   6.348  23.970   8.717 -0.0070  0.1116  0.1864
    1WF      WF62030  14.237  17.442   0.562  0.0257  0.1662  0.1867
    1WF      WF62031  23.171  25.216   0.676 -0.0741  0.2192 -0.3148
    1WF      WF62032  13.373  25.937   6.956  0.1308  0.2034  0.1061
    1WF      WF62033  25.776  14.948   7.269  0.2685 -0.1517  0.1751
    1WF      WF62034  17.601  20.784   9.615  0.3178  0.0594  0.2904
    1WF      WF62035  13.142  19.376   9.850  0.0072  0.0612 -0.1421
    1WF      WF62036  22.550  11.816   1.822  0.0326  0.0574 -0.0544
    1WF      WF62037  25.862  27.647   9.338  0.0528 -0.0423 -0.1108
    1WF      WF62038  12.636   3.857   2.126  0.0490 -0.0095  0.1845
    1WF      WF62039   4.185  23.554   0.614  0.0746  0.1220 -0.0474
    1WF      WF62040   8.933  15.136   9.122  0.0655 -0.0670 -0.3119
    1WF      WF62041   1.767  16.918   1.015 -0.0585  0.3603 -0.1239
    1WF      WF62042  27.117   0.953   9.113 -0.0281  0.0854  0.0444
    1WF      WF62043   3.824  27.828   0.461  0.0764 -0.1468  0.0279
    1WF      WF62044   7.069  25.981   7.303  0.1699 -0.0640  0.1196
    1WF      WF62045   4.387   3.921   8.425 -0.0182 -0.1818  0.0251
    1WF      WF62046   5.997  14.602   8.062 -0.1083 -0.0846  0.1287
    1WF      WF62047  21.987  17.243   1.166  0.0936 -0.2612 -0.4697
    1WF      WF62048   0.392  17.976   7.639 -0.0366  0.2105 -0.2869
    1WF      WF62049  12.395  26.474   6.828  0.0542  0.1671 -0.1068
    1WF      WF62050   1.531  21.641   1.973 -0.0233 -0.0431 -0.2146
    1WF      WF62051  10.613  25.907   6.792  0.1646 -0.2670  0.1100
    1WF      WF62052  14.338   5.653   0.562  0.0674 -0.1799  0.1693
    1WF      WF62053  22.854  13.695   1.899 -0.2797  0.2059 -0.0537
    1WF      WF62054  13.705   4.749   2.695  0.1034  0.3986 -0.2409
    1WF      WF62055   1.847  27.500   1.831 -0.4116 -0.0005  0.0125
    1WF      WF62056  23.549  27.530   9.053 -0.2824 -0.2535  0.1204
    1WF      WF62057  15.620   0.038   9.156 -0.0605 -0.1167 -0.2047
    1WF      WF62058   6.116   3.662   2.795 -0.1781 -0.1434  0.0737
    1WF      WF62059  10.014  26.579   9.928 -0.2993 -0.3862  0.1127
    1WF      WF62060  26.980  19.979   8.772 -0.1375 -0.0105  0.2442
    1WF      WF62061  28.040  13.115   9.502  0.1116 -0.1679  0.1254
    1WF      WF62062   6.053   3.159   7.106  0.0407  0.1433  0.2227
    1WF      WF62063   8.915   9.485   9.877  0.3874  0.2396  0.0967
    1WF      WF62064   5.049   4.154   0.786 -0.0034  0.2409 -0.2369
    1WF      WF62065   1.637  19.746   1.224 -0.0401 -0.0789 -0.0346
    1ION     NA62066  15.827   7.702   7.527 -0.1574  0.1265  0.0470
    1ION     NA62067  24.365  13.497   8.561 -0.0073  0.3555 -0.0208
    1ION     NA62068  26.467  25.158   0.160 -0.4562 -0.1784 -0.0132
    1ION     NA62069  21.235  28.354   6.167 -0.2180 -0.0834  0.0295
    1ION     NA62070  11.178  10.972   7.773  0.0361  0.0892 -0.0304
    1ION     NA62071   0.293   7.094   1.810  0.2382 -0.0279  0.1933
    1ION     NA62072  19.352  22.213   2.546 -0.1646  0.1808  0.1571
    1ION     NA62073   1.830   0.335   2.141 -0.2333  0.0116 -0.1506
    1ION     NA62074   7.692  13.228   7.431  0.2235 -0.0684  0.0133
    1ION     NA62075  19.136  18.444   3.263  0.2161  0.0250 -0.0032
    1ION     NA62076  14.786   2.679   0.408 -0.0019  0.0461 -0.2801
    1ION     NA62077   5.246  27.676   3.107  0.0601 -0.1884  0.0573
    1ION     NA62078   1.190   8.011   7.264  0.4755 -0.1766 -0.0382
    1ION     NA62079  20.476  17.857   2.156  0.0540  0.2090 -0.0622
    1ION     NA62080  15.555  25.729   6.564 -0.2258 -0.1427 -0.0996
    1ION     NA62081  10.563  10.028   0.436 -0.1001  0.1034  0.0664
    1ION     NA62082  10.083  25.703   6.676  0.1820  0.2178  0.1804
    1ION     NA62083  14.296  24.968   1.895 -0.0315  0.1268  0.4686
    1ION     NA62084  24.161  23.550   0.762 -0.2380  0.0189 -0.0347
    1ION     NA62085  12.179  14.207   2.674  0.3401 -0.3275  0.2814
    1ION     NA62086  17.812  24.858   3.507 -0.1936 -0.1347 -0.0958
    1ION     NA62087   0.107  12.194   7.791 -0.1270  0.0417 -0.3622
    1ION     NA62088  27.987  22.685   3.241 -0.0813 -0.1581 -0.2744
    1ION     NA62089   3.938  16.365   8.002  0.2839  0.1365  0.0734
    1ION     NA62090  10.612  13.235   9.246  0.0134 -0.0853 -0.0346
    1ION     NA62091  23.772   5.439   7.587  0.1367 -0.1592 -0.0362
    1ION     NA62092   2.799  12.821   7.514 -0.1339  0.0900 -0.1327
    1ION     NA62093  17.240   5.797   3.719  0.1716  0.0953  0.1142
    1ION     NA62094  28.272  10.923   9.476  0.0465  0.0807 -0.0839
    1ION     NA62095   7.652  24.558   6.004 -0.2046  0.0005  0.0616
    1ION     NA62096  14.839  16.506   1.741  0.1296  0.0229 -0.1905
    1ION     NA62097  10.508   6.608   7.007  0.2012 -0.0141  0.2108
    1ION     NA62098  12.086   9.075   3.288 -0.1694 -0.1681 -0.0922
    1ION     NA62099  15.847  18.799   1.020  0.1339  0.3012 -0.2255
    1ION     NA62100   0.527   2.739   6.354 -0.0235  0.1461 -0.0643
    1ION     NA62101  27.808  18.851   7.207 -0.0117  0.1932  0.0394
    1ION     NA62102   3.256  17.334   9.883 -0.0744  0.0823  0.2279
    1ION     NA62103  22.316  18.593   3.065  0.0611 -0.0428 -0.2404
    1ION     NA62104  25.984   3.677   1.598 -0.1616  0.0259  0.3292
    1ION     NA62105  13.917  17.492   1.162  0.0889  0.0570  0.1699
    1ION     NA62106  14.095  14.183   7.280 -0.0456  0.0312  0.2731
    1ION     NA62107  28.056  20.838   7.731 -0.0183 -0.2381  0.1156
    1ION     NA62108  24.257  10.784   2.070  0.1493 -0.1001 -0.0256
    1ION     NA62109  14.418  12.601   7.808 -0.4344 -0.0919 -0.2004
    1ION     NA62110   5.767  17.683   5.730 -0.1890 -0.4320  0.0064
    1ION     NA62111  13.074  14.847   1.812 -0.1976  0.1541  0.1064
    1ION     NA62112   7.821   7.222   8.367 -0.0050  0.0858 -0.1598
    1ION     NA62113  17.782  15.192   2.787 -0.0400  0.1480  0.1924
    1ION     NA62114   5.955   7.026   3.513 -0.0088  0.2684  0.1343
    1ION     NA62115  19.328   8.355   0.969 -0.0601 -0.0919  0.2616
    1ION     NA62116   7.746   2.609   7.178  0.1564 -0.0250  0.1284
    1ION     NA62117  22.876  13.312   7.098 -0.2818 -0.3807 -0.3296
    1ION     NA62118  14.137   9.827   2.019  0.0116 -0.0544  0.0251
    1ION     NA62119   2.199   9.199   9.135 -0.0270  0.0842 -0.2662
    1ION     NA62120  17.422  15.124   1.414  0.0691 -0.0347  0.2134
    1ION     NA62121  16.134  11.584   7.913  0.0664 -0.2776  0.3706
    1ION     NA62122   7.364   1.783   2.132 -0.0708 -0.0268  0.0471
    1ION     NA62123   0.239   5.333   2.807 -0.1661 -0.0930  0.1593
    1ION     NA62124   8.977  17.235   8.037  0.1897  0.1458  0.1286
    1ION     NA62125   7.606  18.751   6.452 -0.0737 -0.1758 -0.0697
    1ION     NA62126   3.923   9.246   9.627  0.1402  0.0293 -0.2872
    1ION     NA62127   5.767  23.500   7.617 -0.3223  0.0707  0.0281
    1ION     NA62128   4.446  22.089   1.303 -0.0588  0.0601 -0.1593
    1ION     NA62129   1.847  15.596   2.459 -0.3154 -0.2838  0.0016
    1ION     NA62130   0.851   9.769   6.557 -0.2320  0.0971  0.0363
    1ION     NA62131  20.868  22.107   6.520 -0.1425  0.0164  0.0824
    1ION     NA62132  21.823  12.144   2.751 -0.2453  0.2459  0.2236
    1ION     NA62133  16.913  19.178   7.298  0.0369  0.2300 -0.1184
    1ION     NA62134   4.913   6.985   6.772  0.1289 -0.1785 -0.2103
    1ION     NA62135   7.058  13.210   8.830 -0.1862 -0.1688 -0.1816
    1ION     NA62136   2.248  20.541   5.813 -0.0262  0.3723 -0.1887
    1ION     NA62137   9.999  25.140   9.400 -0.1166  0.1332 -0.1957
    1ION     NA62138   5.246  20.771   5.473 -0.1018  0.0473  0.3069
    1ION     NA62139  19.582  20.508   7.435 -0.0291 -0.0732  0.2201
    1ION     NA62140   9.854  18.996   8.198 -0.0118 -0.0706 -0.1129
    1ION     NA62141   5.434  20.569   6.599  0.3895  0.0123  0.2885
    1ION     NA62142  13.980  19.596   1.359 -0.2303  0.1113  0.2005
    1ION     NA62143   7.072  16.008   8.210  0.4330  0.1311  0.0278
    1ION     NA62144  26.661  23.031   0.879 -0.1340  0.1258 -0.1298
    1ION     NA62145  19.136  12.387   2.795  0.1607 -0.0101 -0.1352
    1ION     NA62146  24.962  12.095   6.390  0.0827 -0.2555  0.0510
    1ION     NA62147  25.690  21.672   3.116  0.2232  0.2268  0.1072
    1ION     NA62148   8.699  15.368   7.195  0.1571  0.1681 -0.2761
    1ION     NA62149  14.433  11.226   8.671 -0.1883  0.0066 -0.1529
    1ION     NA62150  22.464   2.006   6.667 -0.2049  0.0250  0.0962
    1ION     NA62151  26.265  26.377   6.738 -0.0267  0.2158 -0.1416
    1ION     NA62152  23.948  25.622   2.000  0.2800  0.2314  0.1040
    1ION     NA62153  10.415   5.108   1.874 -0.1175 -0.0194  0.1170
    1ION     NA62154  22.563  10.031   7.142 -0.1281  0.1152  0.1106
    1ION     NA62155  25.824  17.069   6.058 -0.0972 -0.0385  0.1142
    1ION     NA62156  18.363   4.835   7.145  0.3020 -0.1299 -0.2551
    1ION     NA62157  11.460  13.460   7.262 -0.2538 -0.0799  0.0296
    1ION     NA62158  24.140  18.244   1.181  0.2856  0.0943  0.2207
    1ION     NA62159  17.931  15.332   9.540  0.1817 -0.0908 -0.0777
    1ION     NA62160  19.256  10.474   0.377 -0.1089  0.2771  0.4008
    1ION     NA62161  27.936  25.120   8.169 -0.0056 -0.2312 -0.1043
    1ION     NA62162  22.523  12.651   0.928 -0.0405 -0.1501 -0.0932
    1ION     NA62163  28.085  26.471   8.669  0.0362 -0.0421  0.1666
    1ION     NA62164   8.353  25.022   8.678  0.1391  0.1825 -0.0836
    1ION     NA62165   1.172  10.470   9.096  0.1929  0.1573  0.0876
    1ION     NA62166  16.507   1.876   3.053  0.0419  0.1211  0.0520
    1ION     NA62167   5.158   0.013   3.417 -0.0561  0.0123 -0.2975
    1ION     NA62168  19.874   2.041   8.252  0.0118 -0.1671  0.0492
    1ION     NA62169  16.711  26.769   8.840 -0.0998 -0.0826  0.1199
    1ION     NA62170   7.320   9.848   8.228  0.0965  0.0756  0.2083
    1ION     NA62171  26.290  13.072   6.240  0.3229 -0.2042 -0.1231
    1ION     NA62172  18.275   6.838   1.294  0.2069 -0.1053  0.1202
    1ION     NA62173   9.960   4.577   3.520  0.0646 -0.1142  0.1004
    1ION     NA62174  12.776  15.498   9.418 -0.1395 -0.0624  0.3402
    1ION     NA62175   5.560  18.516   1.894 -0.4684  0.0266  0.0742
    1ION     NA62176   3.939  13.345   0.360 -0.3527  0.1714  0.0378
    1ION     NA62177  10.694  25.143   0.680  0.0569 -0.0536 -0.2263
    1ION     NA62178   8.766  21.914   1.153 -0.1676 -0.1839  0.3230
    1ION     NA62179   6.607  24.692   2.647 -0.0421 -0.1085  0.1210
    1ION     NA62180  17.726  19.050   3.144 -0.1911  0.1082 -0.0423
    1ION     NA62181  25.972  26.743   6.765  0.1171 -0.2208  0.0816
    1ION     NA62182  28.069   7.172   8.782 -0.0451 -0.0505  0.0284
    1ION     NA62183  20.268  17.725   8.598 -0.0457 -0.0144  0.2281
    1ION     NA62184  27.530  27.748   7.061 -0.1181 -0.0891  0.0376
    1ION     NA62185  10.891   7.238   1.097  0.0110  0.2524 -0.0264
    1ION     NA62186  23.760  20.347   2.441 -0.2561  0.1959 -0.2431
    1ION     NA62187   3.291  14.501   8.537 -0.4117 -0.1786 -0.0063
    1ION     NA62188  23.648   6.166   0.223  0.2116 -0.0470  0.1738
    1ION     NA62189   1.010  13.398   9.104 -0.1279 -0.5362  0.2397
    1ION     NA62190   0.396   0.128   1.120  0.0937 -0.0853  0.0858
    1ION     NA62191  21.646  23.006   9.913  0.0267 -0.5103  0.1479
    1ION     NA62192   3.946  18.129   5.508 -0.0723 -0.1409  0.1632
    1ION     NA62193   0.498   1.689   9.465  0.0610 -0.2602  0.1662
    1ION     NA62194  19.361  13.440   0.149 -0.1845  0.1261 -0.0131
    1ION     NA62195  24.778  11.786   2.442  0.3582 -0.1081 -0.3783
    1ION     NA62196  20.173  26.414   0.707  0.2414 -0.3767 -0.0844
    1ION     NA62197  25.154   8.291   2.660 -0.0971 -0.1532  0.0636
    1ION     NA62198  11.739  17.361   7.143  0.3166  0.1624  0.0602
    1ION     NA62199   8.583  13.518   1.120 -0.0459  0.0041  0.1112
    1ION     NA62200  16.790   9.573   2.828 -0.2837  0.1656  0.1942
    1ION     NA62201  11.857   7.590   0.518 -0.0128 -0.3193 -0.0724
    1ION     NA62202  21.057   4.847   9.850  0.0449 -0.1155  0.1470
    1ION     NA62203  23.916  15.276   8.319  0.1962  0.1398 -0.1197
    1ION     NA62204  18.518   0.115   7.436  0.1545 -0.0509 -0.3757
    1ION     NA62205   4.717  24.255   2.592 -0.1906  0.1499  0.0045
    1ION     NA62206   9.413  22.930   6.968 -0.1551  0.1045  0.1582
    1ION     NA62207   2.474  19.044   2.230 -0.0342  0.2712  0.1621
    1ION     NA62208  13.956  11.760   0.750 -0.2005 -0.0173  0.0900
    1ION     NA62209  26.108   1.125   1.326  0.0863  0.1006 -0.2564
    1ION     NA62210  11.110  24.507   2.811 -0.0610 -0.0859 -0.3459
    1ION     NA62211  26.840   2.438   6.128  0.0925  0.2722  0.0449
    1ION     NA62212  16.160  25.440   7.704  0.0777 -0.1633  0.0140
    1ION     NA62213  17.270  25.170   0.767 -0.1042  0.1959  0.0121
    1ION     NA62214   7.884  16.630   0.758  0.1301  0.0057 -0.0674
    1ION     NA62215  12.034  15.486   1.302 -0.1654 -0.2333 -0.0058
    1ION     NA62216  14.449  22.093   7.404  0.1725  0.3361 -0.2694
    1ION     NA62217  11.154  27.667   7.490 -0.0017 -0.0562 -0.0029
    1ION     NA62218   5.032  16.298   6.540  0.0351  0.1830  0.0383
    1ION     NA62219  22.752   8.108   8.162  0.0674 -0.1435  0.3068
    1ION     NA62220   3.656   3.099   8.822 -0.1995  0.0344  0.1162
    1ION     NA62221  25.073   7.008   9.489 -0.0787  0.0357  0.2247
    1ION     NA62222  10.937   0.699   2.558 -0.2342  0.1006  0.2320
    1ION     NA62223  21.635  17.712   8.531  0.2506 -0.1073  0.1706
    1ION     NA62224  14.924   7.595   2.166  0.0229  0.1372  0.1070
    1ION     NA62225  18.933   2.517   0.157  0.3261 -0.0597 -0.1147
    1ION     NA62226  21.372  14.548   2.883 -0.3463  0.0465 -0.0553
    1ION     NA62227  18.214   2.483   8.497 -0.3497  0.0583  0.2075
    1ION     NA62228  11.313   8.765   1.388  0.3379 -0.2753  0.3559
    1ION     NA62229   1.581  22.439   7.349 -0.1418  0.0517  0.1187
    1ION     NA62230  27.975   3.484   3.117 -0.2206  0.4637  0.2213
    1ION     NA62231  21.306  16.143   7.636  0.1517 -0.1607  0.0870
    1ION     NA62232  14.480   2.033   9.756 -0.0686  0.2154 -0.2348
    1ION     NA62233  14.222  17.769   7.224 -0.1022 -0.1849 -0.1812
    1ION     NA62234  27.610  28.105   7.571  0.0533 -0.1614  0.0548
    1ION     NA62235  23.330   8.305   2.945  0.2928  0.0350  0.0606
    1ION     NA62236  27.678   1.546   6.394  0.2963  0.0274 -0.1534
    1ION     NA62237  13.903  26.762   7.564 -0.1088 -0.0846 -0.0841
    1ION     NA62238   3.132  28.631   3.094  0.0893 -0.1636 -0.2379
    1ION     NA62239  12.990   6.524   3.887 -0.0587  0.1774  0.0659
    1ION     NA62240   9.119  23.714   9.669 -0.1404  0.2101  0.2148
    1ION     NA62241  19.701  11.610   0.586 -0.1409 -0.0079  0.3094
    1ION     NA62242  28.010  17.324   0.444  0.3735 -0.0450 -0.2021
    1ION     NA62243  26.114  27.920   3.453  0.0587 -0.0250 -0.2506
    1ION     NA62244  20.281  14.567   2.881 -0.2340  0.2674 -0.1636
    1ION     NA62245  12.844  20.014   8.590  0.1583  0.0843  0.0566
    1ION     NA62246   4.970  20.612   2.296  0.1938  0.1842  0.0688
    1ION     NA62247  24.765  10.322   1.469 -0.2195 -0.2540 -0.0325
    1ION     NA62248  19.399  14.544   9.759 -0.1546 -0.2159 -0.0349
    1ION     NA62249  27.577  13.836   0.156 -0.0965 -0.1054 -0.2132
    1ION     NA62250  21.632  11.610   8.408  0.3803  0.3407  0.1110
    1ION     NA62251  17.917  16.508   7.471 -0.1964 -0.0382 -0.0984
    1ION     NA62252  17.515  22.684   7.826 -0.3235 -0.2204 -0.0046
    1ION     NA62253   1.180   7.838   8.559  0.1951 -0.2164 -0.2048
    1ION     NA62254  25.507  10.755   8.656 -0.1551  0.1223  0.0725
    1ION     NA62255  12.947  16.836   9.488 -0.1542  0.0984  0.2137
    1ION     NA62256  21.426   4.345   1.194 -0.1825  0.0914 -0.1837
    1ION     NA62257  10.238  26.219   2.402  0.1114  0.1654  0.0825
    1ION     NA62258  17.568  13.444   2.581 -0.0640 -0.1311 -0.4149
    1ION     NA62259  21.348  25.589   3.001  0.0419 -0.0245  0.2575
    1ION     NA62260  24.508  10.746   0.558 -0.3492 -0.2334 -0.1816
    1ION     NA62261  20.606   9.625   7.803  0.0688 -0.0731 -0.1334
    1ION     NA62262   7.149   1.004   8.530 -0.0157  0.3226 -0.0607
    1ION     NA62263  24.290   3.537   6.840 -0.0764 -0.0890  0.2847
    1ION     NA62264   6.735   1.956   0.426 -0.2373  0.0705  0.0338
    1ION     NA62265   1.820  18.614   5.584 -0.3298 -0.0526  0.1384
    1ION     NA62266   4.963  14.833   2.432  0.1775  0.2715  0.1910
    1ION     NA62267  22.601   9.648   9.561 -0.2175 -0.0043 -0.1027
    1ION     NA62268  12.567  27.395   2.235 -0.0798  0.1284  0.0727
    1ION     NA62269  16.818   9.761   7.112  0.2052  0.2125  0.2272
    1ION     NA62270  19.714  14.718   7.158  0.0962 -0.2581  0.0287
    1ION     NA62271  20.081  28.602   3.398 -0.1960  0.2141 -0.0510
    1ION     NA62272  23.401  24.379   3.020 -0.0624 -0.0226  0.1337
    1ION     NA62273   7.123  14.387   2.318 -0.0861 -0.0491  0.5475
    1ION     NA62274  23.994  23.770   6.641 -0.2350  0.0027  0.1076
    1ION     NA62275   0.799  14.363   6.069  0.3504  0.3768  0.0985
    1ION     NA62276  15.431  23.121   9.298  0.0534  0.0249  0.0532
    1ION     NA62277  13.040  17.844   2.808 -0.3638 -0.3305 -0.1822
    1ION     NA62278   3.009  16.773   8.170 -0.2311  0.0719  0.1547
    1ION     NA62279   0.896   3.585   0.978  0.1475 -0.0190 -0.0270
    1ION     NA62280  26.752   0.857   2.943  0.2396  0.2111  0.0563
    1ION     NA62281   4.853   8.918   1.561  0.3110 -0.0361 -0.2965
    1ION     NA62282  15.886  11.652   0.172 -0.0076  0.1489 -0.3561
    1ION     NA62283  13.541  21.978   2.072 -0.0500 -0.0819  0.0335
    1ION     NA62284  19.920  22.792   3.559 -0.0880  0.3834 -0.1708
    1ION     NA62285  25.169  28.720   1.827 -0.1200  0.1981 -0.0061
    1ION     NA62286  24.208  15.458   2.523  0.1949  0.0669 -0.1110
    1ION     NA62287  11.143  15.367   8.023 -0.0694  0.1659  0.3400
    1ION     NA62288  16.418  16.155   7.153  0.0593  0.2045 -0.1537
    1ION     NA62289  10.862  15.434   1.037  0.2122  0.2210  0.4485
    1ION     NA62290  26.092  13.952   2.661 -0.2090  0.1251 -0.0646
    1ION     NA62291  16.559   2.619   4.119  0.2263 -0.0989 -0.1024
    1ION     NA62292  11.035   2.274   1.566 -0.2493 -0.0013  0.4454
    1ION     NA62293   2.830   7.080   7.566  0.0487 -0.2927  0.0878
    1ION     NA62294  25.151   9.771   9.120 -0.0337 -0.0507  0.0422
    1ION     NA62295   7.596  25.308   0.730 -0.1862 -0.0197  0.1873
    1ION     NA62296  13.293   8.423   9.048 -0.1126 -0.0242 -0.1084
    1ION     NA62297  27.091   3.549   8.475  0.1268  0.0754 -0.1225
    1ION     NA62298  18.406  18.833   1.998  0.0696 -0.1361  0.1234
    1ION     NA62299  27.772  21.905   9.293  0.1729 -0.0930  0.0891
    1ION     NA62300  17.986   6.165   1.977 -0.1422  0.3398 -0.5025
    1ION     NA62301   3.178  20.789   6.356  0.2172  0.2998  0.0164
    1ION     NA62302  23.837   8.389   7.318 -0.0183  0.2909 -0.2442
    1ION     NA62303   4.610  10.811   8.039 -0.0817 -0.1360  0.0374
    1ION     NA62304   3.834  17.924   0.149  0.1022 -0.0754 -0.1439
    1ION     NA62305  26.517   6.186   8.615  0.1194  0.2739  0.1987
    1ION     NA62306  23.845  16.522   2.506  0.0186  0.3098  0.0610
    1ION     NA62307  14.705   5.790   8.102  0.1639 -0.0550  0.2640
    1ION     NA62308   0.539  27.622   6.967  0.1083  0.1212  0.2586
    1ION     NA62309  12.993   4.932   2.257 -0.1077 -0.0855 -0.2617
    1ION     NA62310  12.303   1.730   7.547 -0.0388 -0.2420  0.2178
    1ION     NA62311   0.381  15.898   8.494  0.0384  0.1663 -0.3875
    1ION     NA62312   5.518  10.684   8.639 -0.0989  0.2167 -0.2835
    1ION     NA62313  25.941   1.590   7.944 -0.2029 -0.1642  0.1632
    1ION     NA62314  17.615   0.006   3.832 -0.1041 -0.2054 -0.0913
    1ION     NA62315   3.919  12.718   1.070 -0.1487 -0.0195 -0.2783
    1ION     NA62316   9.388   9.619   9.912  0.0115  0.0103  0.0139
    1ION     NA62317   1.930  20.138   1.393 -0.0447 -0.0804 -0.0452
    1ION     NA62318   3.891  12.783   8.772 -0.1104  0.1667  0.2818
    1ION     NA62319  28.216  22.258   7.359 -0.3991  0.4402  0.0688
    1ION     NA62320  26.813   8.450   8.502  0.0234  0.0613 -0.2098
    1ION     NA62321   1.445   6.967   6.509  0.1059  0.0528  0.0939
    1ION     NA62322  25.402   6.531   7.502  0.1312 -0.0888 -0.3217
    1ION     NA62323  14.387  23.901   7.825  0.2009 -0.1390 -0.1328
    1ION     NA62324   8.046  19.224   2.376  0.0161 -0.1166 -0.2577
    1ION     NA62325  20.190   3.599   7.183 -0.0872  0.1325 -0.3312
    1ION     NA62326  11.497  24.122   0.341 -0.2748  0.1451  0.1430
    1ION     NA62327  10.983  25.753   6.409 -0.3349 -0.0193  0.1106
    1ION     NA62328  13.256  24.504   9.121  0.1639 -0.1815 -0.1735
    1ION     NA62329   6.823  12.093   0.415 -0.3106  0.0296 -0.1949
    1ION     NA62330   4.674  16.454   8.391  0.1668 -0.1558 -0.2558
    1ION     NA62331  16.177   2.320   1.411  0.0679 -0.0127 -0.1012
    1ION     NA62332   4.805   0.984   0.481 -0.1831  0.2150 -0.0670
    1ION     NA62333  13.269   1.015   9.759 -0.1820 -0.1226  0.1141
    1ION     NA62334   6.272  18.303   9.151  0.2856 -0.0115  0.1252
    1ION     NA62335  11.446  14.905   0.736  0.1062 -0.0097  0.0256
    1ION     NA62336   8.245   0.603   0.486  0.3907  0.1640  0.3615
    1ION     NA62337  18.705  13.572   7.114  0.0549  0.4255  0.2953
    1ION     NA62338  25.128  28.568   2.848 -0.3266  0.0682  0.0481
    1ION     NA62339  17.342  15.924   7.082 -0.0139 -0.2680 -0.1484
    1ION     NA62340   5.325  10.071   3.399 -0.4825  0.2052  0.3007
    1ION     NA62341  27.843   2.526   9.199 -0.0020 -0.2355 -0.2213
    1ION     NA62342  14.652  13.573   7.249 -0.0191 -0.1345  0.2644
    1ION     NA62343   1.125  15.352   6.014 -0.3480 -0.0132  0.3360
    1ION     NA62344  20.606   7.639   2.219 -0.0077 -0.0349 -0.1258
    1ION     NA62345   0.551  28.114   9.436  0.0377 -0.2441 -0.2156
    1ION     NA62346   8.668   8.023   9.017 -0.0507 -0.0597 -0.0630
    1ION     NA62347  27.720   4.215   1.497  0.1464  0.0075  0.0231
    1ION     NA62348  13.301  14.085   2.311  0.0404 -0.2188  0.2687
    1ION     NA62349  26.790  21.258   6.677  0.0967  0.0314 -0.2967
    1ION     NA62350   0.471  13.952   8.463 -0.1593 -0.0339  0.0863
    1ION     NA62351  21.861  27.840   2.958  0.0054 -0.1290  0.0124
    1ION     NA62352  24.481   5.414   3.313 -0.2525 -0.3540  0.0507
    1ION     NA62353  24.750  24.671   1.117  0.1766 -0.1977  0.1988
    1ION     NA62354   3.278  17.519   0.790  0.0551 -0.1780 -0.2429
    1ION     NA62355   7.671   6.688   1.943  0.0274 -0.0386 -0.3233
    1ION     NA62356  24.744  14.093   9.128 -0.0695  0.1406 -0.0781
    1ION     NA62357  14.114  27.396   1.094 -0.0826  0.1692  0.1969
    1ION     NA62358  14.558  10.088   1.647 -0.0978  0.1250 -0.0387
    1ION     NA62359  25.943  28.081   8.938  0.1504 -0.0641  0.0008
    1ION     NA62360  24.683   8.742   2.204  0.1331 -0.0978 -0.2556
    1ION     NA62361   4.154   3.148   7.894  0.3363 -0.0324  0.0046
    1ION     NA62362  28.656   6.186   6.477 -0.2044 -0.0441  0.1576
    1ION     NA62363   3.993   6.562   8.637 -0.1498 -0.0508 -0.3713
    1ION     NA62364   7.901  28.306   2.455 -0.2262 -0.2191 -0.4436
    1ION     NA62365  27.465  16.853   2.507  0.0331  0.1126 -0.3039
    1ION     NA62366  26.262  13.744   1.479 -0.1611  0.1691 -0.5120
    1ION     NA62367   5.051  23.088   8.608  0.0697 -0.0152 -0.3002
    1ION     NA62368  10.292   9.011   2.388  0.0875  0.3141 -0.0574
    1ION     NA62369   2.067  23.930   6.740  0.0801 -0.1356  0.1650
    1ION     NA62370   7.075  28.024   8.109 -0.2127  0.1706 -0.3330
    1ION     NA62371  16.986   4.951   0.214 -0.1351 -0.0934  0.1550
    1ION     NA62372   0.027  16.595   2.083  0.0120 -0.0216  0.1352
    1ION     NA62373  22.806  23.033   2.989  0.1891 -0.0474 -0.3891
    1ION     NA62374   2.466  26.462   8.743  0.0280  0.1010  0.1113
    1ION     NA62375  27.934  13.620   9.391  0.1418 -0.1215  0.3859
    1ION     NA62376  25.929  15.408   0.934 -0.2973  0.1985 -0.2626
    1ION     NA62377  27.373  17.400   6.216  0.1108  0.3418 -0.1432
    1ION     NA62378   4.024   2.678   9.276  0.1176 -0.2856  0.0277
    1ION     NA62379  21.420  27.460   3.102  0.0001  0.1326  0.2796
    1ION     NA62380  23.305  21.985   0.342 -0.2574  0.0194 -0.1053
    1ION     NA62381  14.883  24.338   3.611 -0.0654 -0.1526 -0.0555
    1ION     NA62382   1.871   6.807   9.289 -0.1010  0.2719  0.0107
    1ION     NA62383  15.190  19.580   8.827 -0.0512  0.0464 -0.2018
    1ION     NA62384  15.341  21.761   0.452  0.2092  0.1325  0.0846
    1ION     NA62385  18.386  10.240   8.237  0.0055 -0.1736  0.0545
    1ION     NA62386   7.598  27.145   7.569 -0.1364 -0.1849  0.2185
    1ION     NA62387   2.959  17.316   9.033  0.0942  0.2450 -0.0133
    1ION     NA62388  12.672   3.966   7.792 -0.0507 -0.0340 -0.0798
    1ION     NA62389  17.226  18.402   3.114  0.1388 -0.1356 -0.2517
    1ION     NA62390  28.339  27.198   8.165  0.1282  0.3553 -0.1106
    1ION     NA62391  14.094  15.748   2.852  0.1150 -0.3226  0.1548
    1ION     NA62392   8.865  24.592   0.994 -0.1479  0.0735 -0.2131
    1ION     NA62393  21.503  14.503   8.133  0.1036 -0.0818 -0.0892
    1ION     NA62394   5.712  19.506   9.353 -0.0695  0.0358 -0.1722
    1ION     NA62395  19.866   4.391   0.687 -0.0988 -0.1926 -0.4851
    1ION     NA62396  14.535  20.628   2.626 -0.2220 -0.1390 -0.1404
    1ION     NA62397  10.872   8.959   3.429 -0.2715  0.1497  0.0080
    1ION     NA62398   6.047   0.750   0.151 -0.0596  0.2957  0.2206
    1ION     NA62399   6.156  14.074   1.849 -0.0148 -0.0766  0.0734
    1ION     NA62400  20.589  25.248   8.347  0.0967 -0.1158  0.1054
    1ION     NA62401  23.998   2.829   6.468 -0.0927  0.1401 -0.1963
    1ION     NA62402   8.967  20.730   8.684 -0.0520  0.0797 -0.0052
    1ION     NA62403  10.895   0.783   3.655  0.0034  0.1350  0.0585
    1ION     NA62404  24.638   2.232   6.427 -0.2336 -0.3011 -0.2583
    1ION     NA62405  27.827  26.140   2.786 -0.1507  0.1649  0.2916
    1ION     NA62406  23.508  22.122   1.164  0.0341  0.1034 -0.1195
    1ION     NA62407  15.832  14.712   8.579 -0.1027  0.0423  0.0053
    1ION     NA62408   8.127  24.379   2.372  0.1356  0.0722 -0.0191
    1ION     NA62409   0.822  26.613   8.168 -0.0280 -0.1559  0.0852
    1ION     NA62410   7.470   4.831   0.721  0.0805 -0.2891 -0.1938
    1ION     NA62411   3.884  24.845   7.840 -0.0619  0.1839  0.0180
    1ION     NA62412  14.684  14.736   8.837 -0.1896  0.1259  0.0119
    1ION     NA62413  27.286  25.825   1.994 -0.2091 -0.1695  0.1906
    1ION     NA62414   6.365  21.150   5.639 -0.1526  0.0501  0.1584
    1ION     NA62415  11.104   7.240   7.254  0.0663 -0.0435  0.0209
    1ION     NA62416  22.755   0.712   7.456 -0.0754 -0.1246  0.2028
    1ION     NA62417  24.461   9.345   2.877  0.0259 -0.1133  0.0104
    1ION     NA62418  22.690  22.053   8.428  0.2143 -0.0503 -0.0562
    1ION     NA62419  24.199  11.815   6.396 -0.0681  0.1900 -0.1977
    1ION     NA62420   2.387   2.618   3.378 -0.0951 -0.0191 -0.1197
    1ION     NA62421  15.987  23.222   2.057 -0.1439  0.0408  0.1829
    1ION     NA62422  14.505  20.053   8.708  0.3006 -0.0891  0.1823
    1ION     NA62423   6.039   0.102   0.913  0.2374 -0.0681  0.1913
    1ION     NA62424  12.402  27.818   7.341 -0.1938 -0.3023 -0.1208
    1ION     NA62425   1.602  21.791   2.457  0.0010 -0.0943  0.1837
    1ION     NA62426  14.700  24.718   7.244  0.1800  0.1633  0.0156
    1ION     NA62427  16.186   3.663   4.211 -0.3138 -0.1809 -0.0939
    1ION     NA62428  15.354  15.700   1.035 -0.1539  0.2790 -0.1628
    1ION     NA62429   8.085   3.185   3.399 -0.2855 -0.1056  0.1197
    1ION     NA62430  24.120  27.112   2.696  0.3043  0.0369 -0.0737
    1ION     NA62431  15.188  16.958   8.543  0.2532  0.0126 -0.0653
    1ION     NA62432   0.339  17.521   9.276 -0.0969  0.2238 -0.1730
    1ION     NA62433   5.245   8.183   3.163  0.1970 -0.3786 -0.1909
    1ION     NA62434  19.198  25.779   1.659 -0.0898 -0.2716  0.2545
    1ION     NA62435  23.392   8.696   8.506  0.0361 -0.1943 -0.1204
    1ION     NA62436  23.310  12.433   2.712 -0.0384  0.0511  0.0113
    1ION     NA62437  18.865   1.421   3.178 -0.0384 -0.0245  0.0343
    1ION     NA62438  24.581   7.626   3.007  0.0382 -0.2084 -0.2498
    1ION     NA62439  13.153  11.496   7.234 -0.2782 -0.2509 -0.0104
    1ION     NA62440  17.129  16.355   9.167 -0.0077  0.1676  0.1447
    1ION     NA62441   9.079  18.944   6.581 -0.0544  0.0255 -0.0956
    1ION     NA62442  23.134  26.444   8.700 -0.0433 -0.2333 -0.0607
    1ION     NA62443  28.043  21.782   8.209  0.1052 -0.2086 -0.2242
    1ION     NA62444  23.680  14.515   2.787 -0.0007  0.1671  0.1380
    1ION     NA62445  24.906   0.443   3.256  0.0806  0.1861  0.0321
    1ION     NA62446  22.620  18.365   9.684  0.3226  0.1617  0.1465
    1ION     NA62447  18.545  19.433   1.608 -0.1882 -0.1185  0.0583
    1ION     NA62448   4.527   5.685   6.881 -0.1731 -0.3340  0.1229
    1ION     NA62449  18.560   6.115   7.187  0.0369 -0.0185  0.1596
    1ION     NA62450   5.994   0.055   2.245 -0.1964 -0.2766 -0.0599
    1ION     NA62451  15.845  14.012   7.151  0.1600 -0.1277  0.1297
    1ION     NA62452  25.677  21.843   8.295 -0.2572  0.0019  0.1427
    1ION     NA62453   7.657  19.717   0.087  0.2064  0.0896 -0.0075
    1ION     NA62454   7.230  17.474   9.870 -0.1519 -0.2983 -0.0313
    1ION     NA62455  16.078   9.041   8.644  0.2705  0.3593 -0.0551
    1ION     NA62456  24.433   0.697   9.111  0.4093 -0.0647  0.2624
    1ION     NA62457  20.251  15.336   8.882  0.3643  0.4123  0.2244
    1ION     NA62458  12.249  18.384   2.771 -0.2058  0.1153  0.1492
    1ION     NA62459   3.680  15.111   2.383  0.1571  0.1212  0.1811
    1ION     NA62460  28.527   7.891   8.549 -0.0839  0.3382  0.0454
    1ION     NA62461  20.832   8.418   0.743  0.2140 -0.1625  0.1310
    1ION     NA62462  19.178  22.751   0.339  0.0926 -0.0791  0.0676
    1ION     NA62463  11.917  28.448   7.964  0.2833  0.0247  0.0073
    1ION     NA62464   6.407   5.588   3.486 -0.1565  0.2395  0.0291
    1ION     NA62465   7.748  14.973   2.546 -0.1590 -0.0470 -0.1144
    1ION     NA62466   1.310   9.400   6.950 -0.0278  0.3690  0.2715
    1ION     NA62467  16.952   5.083   2.069 -0.1293  0.0882 -0.1263
    1ION     NA62468   7.589  22.523   0.297  0.2119  0.2074  0.0079
    1ION     NA62469  16.307  12.455   0.203  0.2079 -0.1700  0.0417
    1ION     NA62470  22.775  27.335   7.106  0.0236 -0.2132  0.0265
    1ION     NA62471  17.794  19.520   2.151 -0.0988  0.1441 -0.0945
    1ION     NA62472  11.492  15.229   2.850 -0.0458  0.1932 -0.0621
    1ION     NA62473   1.906  13.779   0.730  0.0160  0.0902 -0.0774
    1ION     NA62474  28.646  25.839   7.130 -0.2055 -0.0656 -0.0579
    1ION     NA62475  12.353  18.270   8.811 -0.1075 -0.1288  0.0772
    1ION     NA62476   9.264  21.483   6.295  0.1173 -0.1853 -0.1165
    1ION     NA62477   2.296  11.420   6.249 -0.2709 -0.1568  0.3488
    1ION     NA62478  25.681  25.141   8.521  0.1292  0.1479 -0.3406
    1ION     NA62479   1.402  15.535   0.395  0.3262  0.0666 -0.2621
    1ION     NA62480  17.140  28.466   0.596  0.1156 -0.1195  0.0396
    1ION     NA62481   3.208  25.483   0.703  0.1972 -0.0923  0.0537
    1ION     NA62482   5.559  28.705   0.227 -0.1599 -0.0535 -0.1624
    1ION     NA62483  23.920  10.775   9.672 -0.1136  0.1463 -0.1542
    1ION     NA62484   3.414  11.686   7.945  0.0393  0.1484  0.0871
    1ION     NA62485  13.044  11.558   7.772 -0.2403  0.0390 -0.0903
    1ION     NA62486  14.919  18.348   0.672 -0.0973 -0.0681  0.2710
    1ION     NA62487  19.091  15.257   8.385  0.1121  0.1247 -0.2285
    1ION     CL62488  23.241   7.286   2.241 -0.0712  0.1783  0.2427
    1ION     CL62489  13.616   8.721   8.765 -0.0314 -0.2181 -0.0693
    1ION     CL62490   6.614  11.668   0.603 -0.1876 -0.1238  0.2706
    1ION     CL62491  10.907  12.812   9.248  0.3474  0.1149 -0.0361
    1ION     CL62492  16.336  18.670   9.016  0.2531 -0.2258 -0.0850
    1ION     CL62493   1.101   4.662   6.641 -0.1064  0.1857 -0.1973
    1ION     CL62494   8.842  18.622   1.469 -0.1120 -0.0259 -0.0359
    1ION     CL62495   2.402  10.643   2.145 -0.2229 -0.2255 -0.0987
    1ION     CL62496   2.997   7.290   8.021  0.2412  0.2920  0.0506
    1ION     CL62497  17.355  27.229   1.214 -0.1868 -0.0460 -0.2829
    1ION     CL62498  21.252  11.329   8.491  0.2305 -0.0249  0.0621
    1ION     CL62499   9.239   3.582   8.324  0.1973  0.0242  0.2995
    1ION     CL62500   5.221  17.178   1.156 -0.1360 -0.0802  0.1716
    1ION     CL62501   3.075  14.526   2.074  0.0782  0.0253 -0.0634
    1ION     CL62502  23.939  26.074   2.242  0.0424  0.1758  0.3901
    1ION     CL62503   3.266  17.188   8.080  0.0291 -0.0949  0.1110
    1ION     CL62504   1.996  15.724   7.040 -0.1306  0.2086 -0.0067
    1ION     CL62505  25.143   3.539   8.924  0.1133  0.0716  0.2199
    1ION     CL62506   8.258   1.435   1.462 -0.0126 -0.0361  0.3157
    1ION     CL62507  23.151  26.339   1.864  0.0214 -0.0227  0.1727
    1ION     CL62508  27.560   2.665   8.762 -0.2356 -0.1323 -0.3106
    1ION     CL62509  21.405   3.692   8.942  0.1547  0.0371 -0.0705
    1ION     CL62510   0.400  15.160   7.148  0.1492 -0.0693 -0.2105
    1ION     CL62511   3.678  22.768   5.859  0.0612  0.0847  0.0736
    1ION     CL62512  28.469   7.451   8.748 -0.2765  0.2345  0.1589
    1ION     CL62513  16.438   4.503   7.822 -0.0109 -0.1157  0.1881
    1ION     CL62514  28.174  25.889   8.494 -0.0056  0.2093 -0.2168
    1ION     CL62515   0.661  16.224   8.233 -0.0035 -0.1521  0.1982
    1ION     CL62516  22.378   7.106   7.079  0.1748  0.0371  0.0998
    1ION     CL62517  16.395   1.379   9.852  0.1015  0.0430 -0.1838
    1ION     CL62518  22.644  22.061   9.930  0.3810 -0.0361  0.2133
    1ION     CL62519   7.232   1.653   1.605 -0.1981  0.2954  0.1683
    1ION     CL62520  19.809  22.618   7.969  0.1023 -0.0587 -0.0803
    1ION     CL62521   6.937  14.349   1.496  0.2055 -0.2398 -0.0019
    1ION     CL62522   2.961  17.702   1.157 -0.2483 -0.1304 -0.0456
    1ION     CL62523   6.358   5.574   1.249 -0.4128 -0.0034  0.2308
    1ION     CL62524   3.689  18.374   0.216 -0.0435 -0.2436  0.1095
    1ION     CL62525   4.478  24.612   2.102 -0.0194  0.3285 -0.1279
    1ION     CL62526  17.252  19.629   2.517 -0.0473  0.5562  0.0638
    1ION     CL62527  17.452   9.397   8.448  0.0933 -0.3066 -0.0582
    1ION     CL62528   8.901   5.593   2.694  0.0131  0.2019  0.1294
    1ION     CL62529  25.921  13.788   1.076 -0.1196  0.1546  0.0205
    1ION     CL62530  16.327  14.845   8.598  0.0225 -0.0093 -0.0594
    1ION     CL62531  27.668  21.058   6.779 -0.2507  0.1571  0.0685
    1ION     CL62532  23.773  15.927   1.651  0.0145 -0.2008 -0.1842
    1ION     CL62533  20.922  21.801   9.051 -0.2990  0.0266 -0.1381
    1ION     CL62534  23.568  12.156   2.398 -0.0042 -0.0025  0.0920
    1ION     CL62535   7.785   1.679   2.327  0.2315  0.0318 -0.0867
    1ION     CL62536  28.191   8.358   1.508  0.4799  0.2229  0.1428
    1ION     CL62537  23.919  25.196   8.678  0.0401  0.0659 -0.0011
    1ION     CL62538  25.161  23.492   0.503 -0.0375  0.0087  0.0652
    1ION     CL62539   5.869  13.821   0.170  0.2076 -0.4049 -0.1428
    1ION     CL62540   7.470   1.086   8.954 -0.1665 -0.1269  0.1400
    1ION     CL62541  15.068  23.280   8.981  0.0827 -0.1697  0.0832
    1ION     CL62542  10.047  24.550   6.947  0.0709  0.4902  0.0252
    1ION     CL62543  19.943   4.880   0.946  0.0147 -0.2723 -0.2251
    1ION     CL62544   2.966  21.099   6.700 -0.0520 -0.2498 -0.0428
    1ION     CL62545  18.640  23.366   7.834  0.1601  0.2782 -0.1104
    1ION     CL62546  21.496  16.833   7.824 -0.1418  0.3040  0.0123
    1ION     CL62547   3.039  26.450   6.658 -0.2078  0.0393 -0.1677
    1ION     CL62548   4.881  16.725   7.906  0.0274  0.0608  0.0790
    1ION     CL62549   4.011  27.626   2.523 -0.0805 -0.0045  0.1946
    1ION     CL62550  20.841   3.874   0.115  0.1516 -0.3485  0.3602
    1ION     CL62551  11.438   5.306   8.112  0.1265  0.2740 -0.0889
    1ION     CL62552  26.497  25.042   9.652  0.0819  0.2203  0.1598
    1ION     CL62553   0.835  28.218   9.833 -0.0615 -0.0272  0.1828
    1ION     CL62554  20.965   9.712   8.752  0.0505  0.1510 -0.3177
    1ION     CL62555  11.191  11.489   7.900  0.1629 -0.0582  0.0548
    1ION     CL62556   1.922   6.626   8.774  0.0592 -0.2596 -0.1446
    1ION     CL62557  28.698   9.296   1.367  0.5342  0.3794  0.2032
    1ION     CL62558  16.495  16.345   7.993 -0.1761 -0.0820 -0.0426
    1ION     CL62559   5.542   5.795   9.740 -0.0143 -0.1213  0.1223
    1ION     CL62560  27.229   4.430   1.583 -0.2071 -0.0845 -0.1909
    1ION     CL62561   4.548   3.954   1.890  0.3809  0.1957  0.0736
    1ION     CL62562  23.271  10.563   1.160 -0.1369  0.2020  0.0686
    1ION     CL62563   5.720  26.482   9.661  0.1131 -0.2756  0.1021
    1ION     CL62564   5.827  14.393   1.713  0.3694  0.1052 -0.1594
    1ION     CL62565  12.612  11.665   8.044 -0.1126  0.3543  0.0971
    1ION     CL62566  19.981  27.036   2.436 -0.0072 -0.0496  0.1258
    1ION     CL62567  11.499  25.154   0.977 -0.0135 -0.0371 -0.0813
    1ION     CL62568  21.921  23.652   9.042  0.2705 -0.0560  0.3295
    1ION     CL62569   0.173   4.784   7.787 -0.0077  0.0287  0.0653
    1ION     CL62570  12.343  17.759   9.683  0.1954  0.0771  0.1091
    1ION     CL62571   8.352  21.988   1.452  0.2301 -0.1180  0.0400
    1ION     CL62572   5.077  21.320   1.646  0.0212 -0.2607  0.0193
    1ION     CL62573  14.772   2.191   0.159 -0.0777  0.3299 -0.0708
    1ION     CL62574  22.251   7.171   2.330 -0.0558 -0.0364  0.4703
    1ION     CL62575  15.670   3.848   3.028  0.0646 -0.0061  0.1266
    1ION     CL62576  27.564  15.782   0.404  0.0577  0.1154  0.3045
    1ION     CL62577   7.158   0.354   9.858 -0.0951  0.2551 -0.2191
    1ION     CL62578  28.044  26.724   8.223 -0.1194  0.0621  0.1220
    1ION     CL62579  20.040  10.887   2.150  0.1361  0.1660 -0.1513
    1ION     CL62580   5.267  23.437   8.934  0.1347  0.2061  0.1547
    1ION     CL62581  15.652  14.317   8.363  0.3501  0.1599 -0.0263
    1ION     CL62582  11.193  23.725   0.248  0.0143 -0.1273 -0.0437
    1ION     CL62583   2.830  20.791   1.989  0.3275  0.0837  0.0769
    1ION     CL62584   0.092  17.938   9.512 -0.0486 -0.0620  0.2705
    1ION     CL62585  16.128  22.013   0.091  0.2031  0.3133 -0.1730
    1ION     CL62586  23.840  18.096   1.519  0.1923  0.0628  0.3004
    1ION     CL62587   0.861   9.114   1.143 -0.2943  0.3118  0.1126
    1ION     CL62588  28.482  22.043   8.181  0.2543 -0.1957 -0.0201
    1ION     CL62589  12.303  15.396   9.361  0.0884 -0.2645 -0.1423
    1ION     CL62590  25.190  15.292   8.373  0.3543  0.2250  0.0355
    1ION     CL62591  16.496   0.424   8.190  0.1364 -0.3302  0.0887
    1ION     CL62592   9.809  21.924   0.389 -0.0883  0.0348  0.2329
    1ION     CL62593  17.373  22.210   7.594  0.0837  0.3266 -0.0647
    1ION     CL62594   6.815   4.174   7.132 -0.0744 -0.1845  0.0792
    1ION     CL62595  25.438  16.277   9.876  0.1715  0.0181 -0.1844
    1ION     CL62596   7.025  23.893   6.235 -0.1088 -0.1085  0.0998
    1ION     CL62597   4.883   0.436   0.449  0.0122 -0.2582 -0.0323
    1ION     CL62598   7.208  27.845   7.680 -0.0516  0.1416 -0.1789
    1ION     CL62599  11.651   9.423   2.349  0.0035  0.0043 -0.1993
    1ION     CL62600   8.950  12.807   9.435  0.0518 -0.0782 -0.0306
    1ION     CL62601   4.186  21.800   0.981  0.0899 -0.0139 -0.1247
    1ION     CL62602  27.522   0.271   1.199  0.3069 -0.1887  0.0796
    1ION     CL62603   2.513   9.067   9.513 -0.1096  0.2708 -0.1506
    1ION     CL62604   3.500   1.358   9.038 -0.1278 -0.0951 -0.2514
    1ION     CL62605  18.203  16.957   8.609  0.0434 -0.0551  0.1789
    1ION     CL62606  14.559  16.647   1.298 -0.2264  0.0136  0.1682
    1ION     CL62607   3.874   5.513   3.070 -0.3017 -0.1061 -0.1288
    1ION     CL62608  26.019  14.012   7.147 -0.0627  0.0710  0.3133
    1ION     CL62609   1.577  10.781   9.071 -0.1702 -0.3679 -0.0338
    1ION     CL62610  10.635  17.053   7.396 -0.0261 -0.1170  0.2019
    1ION     CL62611  24.296  16.242   8.110  0.0384  0.1867  0.0263
    1ION     CL62612  21.313  10.813   9.406 -0.2191 -0.1497  0.0632
    1ION     CL62613  21.478  10.622   7.840  0.1230 -0.0455 -0.1668
    1ION     CL62614   1.000  15.762   0.444 -0.2228 -0.2843 -0.0441
    1ION     CL62615  18.670  10.675   8.070  0.0369  0.0832  0.1543
    1ION     CL62616  18.140   5.656   8.450  0.1343 -0.1603 -0.1360
    1ION     CL62617  12.710  27.350   2.673 -0.1012  0.1207 -0.0229
    1ION     CL62618  20.577   2.093   1.547 -0.1670 -0.1311  0.1602
    1ION     CL62619   7.668  16.368   7.661 -0.1828 -0.1845  0.1437
    1ION     CL62620   3.716  17.580   9.798 -0.0446 -0.1766 -0.0007
    1ION     CL62621  11.834  23.197   1.351  0.0918  0.0546 -0.0028
    1ION     CL62622  15.386   8.929   0.873 -0.2874 -0.0744 -0.0367
    1ION     CL62623  21.331   9.640   2.520  0.0717  0.0462  0.0237
    1ION     CL62624  10.245  25.343   0.594  0.0093  0.1807 -0.1419
    1ION     CL62625  21.548  25.074   7.622 -0.0565  0.1035  0.2567
    1ION     CL62626  21.512   7.190   1.982 -0.1041 -0.0840 -0.4046
    1ION     CL62627  14.533  21.146   0.968 -0.1149 -0.1604  0.0867
    1ION     CL62628   3.175  24.453   7.152 -0.1208  0.2809 -0.0219
    1ION     CL62629   8.076   0.159   0.353 -0.0504 -0.3068  0.1577
    1ION     CL62630   8.624   9.626   8.448 -0.3418 -0.0246 -0.0308
    1ION     CL62631   9.092  19.000   0.125  0.1402 -0.1404  0.0847
    1ION     CL62632  26.440  21.211   7.040 -0.4605  0.0253 -0.0886
    1ION     CL62633   5.591  23.317   0.040 -0.1977  0.1207  0.0658
    1ION     CL62634  24.759  10.736   1.928 -0.0644 -0.1155 -0.0334
    1ION     CL62635   6.871  25.773   8.921 -0.2903 -0.1521 -0.0971
    1ION     CL62636  20.874   1.383   0.061 -0.1427  0.1080 -0.2103
    1ION     CL62637   7.527  12.603   8.200  0.2547  0.2716  0.1781
    1ION     CL62638  11.866  19.469   8.033 -0.0943  0.0705  0.1534
    1ION     CL62639  20.690   1.881   1.067  0.4078 -0.1589  0.0570
    1ION     CL62640  19.303  12.161   0.169 -0.1540 -0.1619  0.6622
    1ION     CL62641   5.549  25.441   7.380 -0.0596  0.0141 -0.0629
    1ION     CL62642  13.115   5.073   1.755  0.0589  0.1345 -0.1686
    1ION     CL62643   2.662   6.710   7.181 -0.1980  0.0407 -0.0852
    1ION     CL62644  24.226  26.932   2.216  0.1641  0.1417 -0.2388
    1ION     CL62645  17.595  24.554   2.787  0.0633  0.1625  0.1973
    1ION     CL62646  25.198  28.702   2.375  0.1117 -0.0813  0.1039
    1ION     CL62647  28.666  17.819   6.767 -0.2713 -0.1527 -0.1901
    1ION     CL62648  11.409  11.176   9.434 -0.0034  0.0752  0.0048
    1ION     CL62649   7.198  21.341   0.083 -0.1563  0.1444  0.1107
    1ION     CL62650  16.286  18.691   0.873 -0.1148  0.0173  0.0216
    1ION     CL62651  22.513  22.331   8.815 -0.0927 -0.0828 -0.1384
    1ION     CL62652   4.621  20.048   9.760  0.1628  0.0653 -0.0642
    1ION     CL62653   6.626  15.805   8.297  0.0622 -0.0981  0.2670
    1ION     CL62654  17.049  14.480   0.531 -0.3838  0.0623 -0.0274
    1ION     CL62655  10.015  20.391   1.605 -0.0780  0.0487 -0.1166
    1ION     CL62656  26.070   2.586   6.663 -0.1229  0.0498 -0.2904
    1ION     CL62657  17.742  15.198   1.819  0.2641 -0.0531  0.0944
    1ION     CL62658  22.200  26.522   1.648 -0.1081  0.0467  0.1333
    1ION     CL62659   3.548   2.739   9.224 -0.0617  0.3525  0.3201
    1ION     CL62660  24.341  14.005   8.750  0.1110  0.5137 -0.1617
    1ION     CL62661   3.135  26.737   8.756  0.1481  0.1842 -0.1682
    1ION     CL62662  20.285   6.060   7.982  0.2055  0.0572 -0.5827
    1ION     CL62663   0.873   3.282   7.083 -0.3413  0.2778  0.2321
    1ION     CL62664   5.198   3.613   0.102 -0.1877 -0.1232  0.1939
    1ION     CL62665   6.674  20.629   7.358  0.1769 -0.0841 -0.1273
    1ION     CL62666  24.397   2.024   6.881  0.0563 -0.0729  0.0024
    1ION     CL62667   7.935   7.064   2.162  0.0576 -0.3604 -0.2548
    1ION     CL62668   1.585  24.331   7.191  0.1325  0.1900 -0.0627
    1ION     CL62669   9.270  25.791   8.560 -0.0027 -0.1617 -0.0464
    1ION     CL62670  11.145  25.051   2.484 -0.0919  0.1287  0.2975
    1ION     CL62671  22.457  17.305   2.734 -0.1202  0.0854 -0.3594
    1ION     CL62672   8.737   8.090   8.541  0.2054  0.2345  0.1720
    1ION     CL62673  13.295   9.479   0.490  0.1678 -0.2749  0.2350
    1ION     CL62674  27.437  24.038   2.533  0.0524 -0.0175 -0.3626
    1ION     CL62675  15.339   5.339   0.440  0.0613  0.2473  0.3310
    1ION     CL62676  28.317  14.904   8.400 -0.0414  0.0296  0.0038
    1ION     CL62677  22.317   0.983   7.330  0.0610 -0.1834 -0.0904
    1ION     CL62678   4.132   3.562   8.143 -0.0146  0.0566 -0.0379
    1ION     CL62679  16.508  10.941   7.603 -0.0329 -0.1412  0.0766
    1ION     CL62680  11.727   8.134   8.084 -0.2069  0.3258 -0.1002
    1ION     CL62681  13.475  22.119   8.069  0.1188  0.2726 -0.4333
    1ION     CL62682  20.193  18.791   8.548 -0.2234 -0.0413  0.2369
    1ION     CL62683   9.054  25.982   7.142  0.0596  0.0977  0.1066
    1ION     CL62684  21.677   1.966   6.917  0.3589 -0.1575  0.1426
    1ION     CL62685   0.183  22.973   8.409  0.1977 -0.2385  0.2616
    1ION     CL62686   5.874   0.368   0.523 -0.3735  0.1112  0.4545
    1ION     CL62687  22.434  18.355   9.158  0.0320  0.1811  0.1286
    1ION     CL62688  18.200  16.694   0.999 -0.2517 -0.0329 -0.0686
    1ION     CL62689   9.536  23.535   1.083  0.0358  0.3058 -0.0573
    1ION     CL62690  21.697  28.467   0.453 -0.0302  0.2688 -0.0783
    1ION     CL62691   4.810  12.797   9.216 -0.0825  0.0218  0.2282
    1ION     CL62692  14.669   9.594   1.685 -0.2368 -0.2289  0.3574
    1ION     CL62693   9.640  22.450   6.995  0.1380 -0.1455  0.3632
    1ION     CL62694  26.185   1.559   8.394  0.3117 -0.1972 -0.1228
    1ION     CL62695  19.925   0.752   9.618  0.0004  0.0214  0.1126
    1ION     CL62696   9.351  18.711   8.730 -0.0502  0.0968  0.2445
    1ION     CL62697  21.139  26.640   2.827 -0.3999 -0.0948 -0.2264
    1ION     CL62698  11.637  15.331   1.542  0.3333  0.4204  0.4322
    1ION     CL62699   3.371  24.757   7.911  0.0596 -0.0497 -0.0377
    1ION     CL62700  14.576  14.862   9.396  0.2010  0.0717  0.3384
    1ION     CL62701  15.243   7.901   2.407  0.2489  0.0061  0.0133
    1ION     CL62702  27.598   4.738   9.763  0.1874  0.1092 -0.2548
    1ION     CL62703  11.101  19.023   0.877  0.0659 -0.2042  0.2606
    1ION     CL62704  28.614  17.700   0.598 -0.0132 -0.2492  0.0402
    1ION     CL62705   7.701   6.584   8.021 -0.2521 -0.0128 -0.2999
    1ION     CL62706   7.023  21.831   1.313 -0.0115 -0.2027 -0.2306
    1ION     CL62707  13.891  12.102   0.278 -0.1066 -0.1745  0.1725
    1ION     CL62708  17.102  17.633   0.912 -0.1029  0.1030  0.1278
    1ION     CL62709   9.432  17.443   7.657 -0.2127 -0.1606  0.2398
    1ION     CL62710  24.685   0.102   2.985  0.0732 -0.0945 -0.2759
    1ION     CL62711  17.761   3.495   1.838 -0.0056 -0.1744 -0.0398
    1ION     CL62712   3.590  16.895   1.330  0.1156  0.1264  0.1482
    1ION     CL62713  13.000  17.722   2.336 -0.2357 -0.3046 -0.0687
    1ION     CL62714   2.166  25.790   8.694 -0.2710 -0.0279  0.3837
    1ION     CL62715  10.640  14.195   1.714  0.1169  0.1413  0.0234
    1ION     CL62716   3.782  17.654   0.901 -0.3649  0.1915  0.1117
    1ION     CL62717  24.887  13.301   7.112 -0.0444 -0.0117  0.0762
    1ION     CL62718  16.070  14.229   9.338 -0.2934  0.2195 -0.1946
    1ION     CL62719  25.813  17.608   8.781 -0.0355  0.0079 -0.0006
    1ION     CL62720   6.011   4.859   8.627 -0.4146 -0.0378 -0.1496
    1ION     CL62721   6.269  12.634   7.778 -0.0750  0.3019 -0.3205
    1ION     CL62722   2.318   0.417   2.049  0.2871  0.2075  0.2819
    1ION     CL62723   9.507  25.432   1.676 -0.0303 -0.1719 -0.2831
    1ION     CL62724  25.330  11.896   8.941 -0.1468  0.1029 -0.0869
    1ION     CL62725  18.332   7.233   0.963 -0.0647  0.2232  0.0991
    1ION     CL62726  26.821   1.687   2.357 -0.1612  0.2642 -0.6536
    1ION     CL62727  19.194  18.426   8.481  0.0933 -0.1799 -0.3183
    1ION     CL62728   1.821  13.071   7.339 -0.0314  0.0037  0.0094
    1ION     CL62729   5.827  22.780   6.755 -0.1452 -0.1190 -0.3048
    1ION     CL62730  16.503  22.850   2.692  0.0485 -0.0730  0.2308
    1ION     CL62731   2.520   9.062   7.701 -0.1832  0.0356 -0.1844
    1ION     CL62732  23.229  20.366   2.296 -0.1554  0.2501 -0.3614
    1ION     CL62733   9.130  20.609   1.818 -0.4089  0.1135 -0.2122
    1ION     CL62734  16.754  15.269   7.756  0.3844  0.0966  0.2493
    1ION     CL62735  27.326  19.167   7.207  0.0123  0.0471 -0.0109
    1ION     CL62736   3.339  19.131   8.465  0.1554 -0.0051 -0.1102
    1ION     CL62737  26.560  28.394   9.592 -0.0857  0.1027 -0.2636
    1ION     CL62738  23.103  24.736   8.358 -0.2527  0.2218  0.1448
    1ION     CL62739  19.743   6.344   2.111 -0.2004  0.1234 -0.4582
    1ION     CL62740  14.957  25.116   2.965 -0.2502  0.3726 -0.0866
    1ION     CL62741   2.321  16.774   6.495 -0.1146 -0.1485 -0.0453
    1ION     CL62742  25.396  10.303   1.518  0.0492 -0.3773  0.1599
    1ION     CL62743  20.152  23.156   3.185  0.1542  0.1685  0.2031
    1ION     CL62744   7.319  15.249   7.841  0.1265  0.0307  0.3180
    1ION     CL62745   6.200  15.491   1.533  0.2314  0.2411 -0.0203
    1ION     CL62746  25.736  22.664   8.788  0.1522  0.1780  0.1553
    1ION     CL62747   8.542  24.141   7.914 -0.3710 -0.0720 -0.2760
    1ION     CL62748   5.389  27.992   2.254 -0.3209 -0.0072  0.2437
    1ION     CL62749   9.598  23.398   7.263 -0.0587  0.2005 -0.2776
    1ION     CL62750  13.027  14.314   1.954 -0.0238  0.2838  0.1883
    1ION     CL62751   2.003  22.600   7.162 -0.3092  0.0766 -0.3042
    1ION     CL62752  15.730  17.644   2.260  0.0047  0.1534  0.1372
    1ION     CL62753  10.723   0.587   2.160  0.2086 -0.0026  0.1952
    1ION     CL62754   0.335  20.427   0.894 -0.1288 -0.2477  0.3173
    1ION     CL62755  21.783   3.619   2.192 -0.1318  0.1611 -0.3729
    1ION     CL62756  18.150  19.315   1.857  0.4238 -0.3328 -0.2366
    1ION     CL62757  15.865  16.409   9.848  0.1490 -0.1154  0.0786
    1ION     CL62758  10.171   2.644   8.222 -0.0978  0.0971 -0.1850
    1ION     CL62759  23.839  15.100   7.004 -0.1695 -0.5307  0.1646
    1ION     CL62760  22.197   5.205   3.036 -0.2622  0.0193 -0.1525
    1ION     CL62761  11.507   0.486   2.557 -0.0843 -0.4296 -0.1611
    1ION     CL62762  10.206   7.203   8.830  0.3011  0.1377  0.0767
    1ION     CL62763  27.462  13.773   9.571 -0.2080 -0.0281  0.0532
    1ION     CL62764  11.843   1.587   8.842 -0.2024 -0.0380  0.0431
    1ION     CL62765  16.933  14.290   9.251 -0.3408 -0.1255 -0.0918
    1ION     CL62766  23.357  15.172   1.926  0.3139 -0.0803  0.1229
    1ION     CL62767  24.748  10.640   1.127 -0.2121 -0.3927 -0.4043
    1ION     CL62768  19.898  21.405   2.348 -0.3478  0.2775  0.0806
    1ION     CL62769   8.903  17.298   7.033 -0.1484  0.1919 -0.0442
    1ION     CL62770  11.430   2.001   1.779 -0.0322 -0.0453  0.0015
    1ION     CL62771  24.420  11.231   7.694 -0.0194 -0.1480 -0.0130
    1ION     CL62772   5.933  21.684   9.627 -0.0202 -0.1266  0.2530
    1ION     CL62773   6.010   0.879   7.539  0.1870 -0.1610 -0.0265
    1ION     CL62774  21.387  22.532   3.053 -0.1419 -0.0223 -0.0326
    1ION     CL62775  23.239  23.440   0.824 -0.3678  0.1672 -0.4002
    1ION     CL62776  26.893  22.566   1.035 -0.0516 -0.5153 -0.1710
    1ION     CL62777   4.363  15.517   1.451  0.3452 -0.0250  0.1191
    1ION     CL62778  11.436  15.880   8.725  0.1199  0.3432  0.1705
    1ION     CL62779  28.269  16.829   1.882  0.0168  0.0127  0.1200
    1ION     CL62780   5.527  27.626   8.714  0.2964 -0.0825  0.4063
    1ION     CL62781  18.417  22.118   0.678 -0.0982 -0.0568 -0.2766
    1ION     CL62782  21.093  16.687   2.304  0.1526 -0.1669 -0.1257
    1ION     CL62783  11.177  14.244   2.413  0.2168  0.3710 -0.0334
    1ION     CL62784  18.959   1.853   7.171 -0.1242  0.1361 -0.1239
    1ION     CL62785  23.124  21.946   0.806  0.0045 -0.1372 -0.1398
    1ION     CL62786  18.183  12.663   2.204  0.2302  0.1425 -0.2920
    1ION     CL62787  26.838  11.324   1.542  0.0619 -0.0492  0.0116
    1ION     CL62788  17.027  25.252   1.204  0.1559 -0.1161  0.2720
    1ION     CL62789  16.890  11.585   7.517 -0.0172 -0.0366  0.0208
    1ION     CL62790  14.658  15.449   1.925 -0.0977 -0.2480 -0.1117
    1ION     CL62791  25.591   7.200   6.174 -0.0035 -0.2351  0.2415
    1ION     CL62792   2.958   1.919   2.504 -0.1531  0.0998  0.2837
    1ION     CL62793   8.964  23.379   2.071  0.0718 -0.3033 -0.1074
    1ION     CL62794  20.493   5.699   9.878 -0.1841 -0.0187  0.1743
    1ION     CL62795  11.125  21.596   2.217  0.0696 -0.1175 -0.2307
    1ION     CL62796   9.047   2.793   2.832 -0.2372  0.0026 -0.0569
    1ION     CL62797  27.381  25.901   2.844  0.0495  0.0095 -0.2972
    1ION     CL62798   1.722   5.361   1.743  0.3516  0.0095 -0.0289
    1ION     CL62799   4.314  26.585   1.703  0.3043  0.1062 -0.1810
    1ION     CL62800  16.421   4.540   1.427 -0.1017 -0.4726  0.0982
    1ION     CL62801  22.739  20.871   7.933  0.1945 -0.0562  0.1344
    1ION     CL62802  17.843  21.585   2.077 -0.1233  0.1942 -0.2991
    1ION     CL62803  13.019  17.079   8.694  0.1466 -0.0049  0.4690
    1ION     CL62804   4.844  18.021   6.672 -0.0138 -0.0635  0.1814
    1ION     CL62805  21.245  18.619   6.936 -0.1322  0.0267  0.2300
    1ION     CL62806   1.351  12.279   6.391 -0.1755  0.1362 -0.4105
    1ION     CL62807   1.665  15.429   0.832  0.0114 -0.1374  0.4247
    1ION     CL62808   1.237   1.348   7.638  0.0991 -0.0847  0.1988
    1ION     CL62809   4.420  25.138   2.260  0.0342  0.0102  0.1879
    1ION     CL62810  23.679   9.122   8.608  0.2741 -0.0199  0.0100
    1ION     CL62811  15.381   8.489   8.137  0.1109 -0.0651 -0.0203
    1ION     CL62812  20.745  18.095   8.034 -0.4965 -0.0873 -0.0053
    1ION     CL62813  14.188  10.375   1.954  0.2121 -0.3371 -0.0855
    1ION     CL62814  17.697  28.436   9.609 -0.1227 -0.0875  0.0581
    1ION     CL62815  23.892   3.002   0.599 -0.1229 -0.1443  0.0100
    1ION     CL62816   5.973   7.750   7.307  0.3957 -0.0396  0.1284
    1ION     CL62817  15.444  24.821   2.908  0.0119 -0.0121 -0.0313
    1ION     CL62818  19.919  20.641   7.953  0.1484  0.0332 -0.3282
    1ION     CL62819  12.375   5.195   8.354  0.0664 -0.1107 -0.3945
    1ION     CL62820   7.094   4.584   0.514 -0.0697 -0.0034  0.1974
    1ION     CL62821  13.769   2.422   0.814 -0.3225  0.2449  0.2462
    1ION     CL62822  28.181  10.608   9.844  0.0567 -0.0185 -0.3444
    1ION     CL62823  16.599   2.045   1.745  0.0274  0.0852 -0.1134
    1ION     CL62824   5.405  17.955   7.789  0.2340  0.1405 -0.2745
    1ION     CL62825   2.695  12.273   8.395 -0.0026  0.0136  0.1018
    1ION     CL62826  20.214  25.075   7.996  0.3104 -0.1718 -0.0432
    1ION     CL62827  13.183   6.644   9.169  0.1401 -0.1389  0.1979
    1ION     CL62828   3.576  19.139   6.449 -0.1752  0.0388 -0.0314
    1ION     CL62829   7.055  28.132   8.604 -0.0230  0.0548 -0.1540
    1ION     CL62830  10.539   6.275   9.843  0.0636 -0.3139 -0.3540
    1ION     CL62831   2.989  17.131   2.125  0.2979 -0.2972  0.0527
    1ION     CL62832   3.268   7.904   7.214 -0.0310 -0.1602 -0.1722
    1ION     CL62833  26.387   6.361   9.080  0.2203  0.2548  0.0621
    1ION     CL62834  14.044  19.964   8.454  0.0966  0.0558  0.0082
    1ION     CL62835  16.487   9.168   8.374  0.1537  0.3199  0.0516
    1ION     CL62836  19.748   1.667   8.639 -0.2239  0.1187  0.0382
    1ION     CL62837  14.532   5.196   9.041 -0.0094 -0.0796 -0.1023
    1ION     CL62838  14.394  19.175   8.922 -0.1550  0.1505 -0.1979
    1ION     CL62839   1.181   7.431   8.295 -0.2776 -0.1660  0.0420
    1ION     CL62840  20.031  28.520   0.821  0.0285 -0.0052  0.2043
    1ION     CL62841  27.250  17.236   8.108  0.1169 -0.1952  0.0378
    1ION     CL62842   2.164  25.013   1.995 -0.1429 -0.0545  0.1514
    1ION     CL62843   1.418  27.965   0.910  0.0584  0.0963  0.0557
    1ION     CL62844  19.141   7.512   1.971 -0.0843 -0.0275  0.1489
    1ION     CL62845  14.933   7.489   0.206  0.1365 -0.1355 -0.1477
    1ION     CL62846  12.322  19.268   8.869  0.1635  0.2911 -0.0665
    1ION     CL62847   3.102  25.843   9.158 -0.3294 -0.1237 -0.0953
    1ION     CL62848  28.430  21.390   8.233  0.0662 -0.0874 -0.2532
    1ION     CL62849  27.213  13.379   1.829  0.1118  0.1061  0.3235
    1ION     CL62850  10.541  27.493   1.924 -0.1472 -0.2012  0.2130
    1ION     CL62851  24.470   0.377   8.699  0.1276  0.0541 -0.1357
    1ION     CL62852  28.095   4.547   2.127  0.0459 -0.1763  0.2291
    1ION     CL62853  25.433  19.494   1.322 -0.1140 -0.3636  0.1573
    1ION     CL62854  15.887  11.224   8.337 -0.1483  0.0387  0.0107
    1ION     CL62855   1.138  26.616   7.730  0.2344 -0.1150  0.0878
    1ION     CL62856  21.441  12.506   2.799 -0.2689 -0.4323 -0.0254
    1ION     CL62857  19.233   8.944   1.048 -0.0290 -0.4315 -0.1880
    1ION     CL62858  21.560  20.335   2.697  0.0947 -0.1704 -0.1347
    1ION     CL62859   8.299  28.715   2.723 -0.1295 -0.2255  0.1717
    1ION     CL62860  13.408  17.340   1.251  0.1066  0.1616  0.0962
    1ION     CL62861  15.329  20.208   9.883 -0.1033  0.1038 -0.0339
    1ION     CL62862  15.412  11.808   0.736 -0.0570  0.1270  0.1409
    1ION     CL62863   4.453   3.366   7.530  0.1780  0.2530 -0.2679
    1ION     CL62864  15.554   3.152   8.960 -0.2560 -0.1268  0.2325
    1ION     CL62865   3.645   3.364   0.081 -0.2109 -0.0797  0.1814
    1ION     CL62866  19.486  22.502   0.017 -0.3030 -0.1560 -0.2956
    1ION     CL62867  21.683  22.239   0.181 -0.1970 -0.0727  0.0121
    1ION     CL62868  14.735   7.114   1.948  0.0447  0.0463  0.1224
    1ION     CL62869   5.660  28.206   3.046 -0.0267  0.0132  0.1416
    1ION     CL62870  14.182  20.003   1.115  0.0949  0.0049  0.0121
    1ION     CL62871   9.659   0.896   1.358 -0.1404  0.0914  0.0784
    1ION     CL62872   9.417  12.346   0.837 -0.2871  0.1145  0.3210
    1ION     CL62873  26.509  25.355   8.644  0.1168 -0.1849 -0.1578
    1ION     CL62874  25.737   6.308   7.795 -0.0237 -0.1624 -0.3625
    1ION     CL62875   2.745  12.062   0.107 -0.0683  0.0933  0.2700
    1ION     CL62876  14.128   0.522   7.855 -0.0268 -0.1334 -0.0011
    1ION     CL62877  12.585  11.079   1.385  0.1701  0.1283  0.0756
    1ION     CL62878   6.967  17.119   9.646  0.0606  0.0168 -0.0747
    1ION     CL62879  24.585   3.673   6.413 -0.3328 -0.3668 -0.3165
    1ION     CL62880  13.743   4.466   8.969 -0.2907 -0.0609 -0.1369
    1ION     CL62881   5.282  26.278   1.674  0.6196 -0.0479  0.1199
    1ION     CL62882  22.297  20.752   2.588  0.0375  0.1921 -0.1584
    1ION     CL62883  14.146  24.711   1.307  0.2603 -0.5369  0.0584
    1ION     CL62884   1.411  19.329   1.102  0.1148 -0.2824 -0.0852
    1ION     CL62885  26.391   7.364   1.583  0.2648 -0.0817  0.2816
    1ION     CL62886   4.458   4.767   7.345  0.0769  0.1728  0.1658
    1ION     CL62887  11.276   9.133   9.365  0.0953 -0.1077 -0.0877
    1ION     CL62888   1.381  13.882   0.751  0.0390  0.0866  0.0797
    1ION     CL62889   4.892   1.081   1.898  0.0775  0.2949  0.1012
    1ION     CL62890   8.687  13.644   1.581 -0.0501  0.0229 -0.0711
    1ION     CL62891   2.945   0.966   7.777  0.0102  0.1722 -0.0731
    1ION     CL62892  12.930   3.491   9.450  0.2931  0.1206 -0.2439
    1ION     CL62893  26.466  23.084   0.420  0.1289 -0.1419 -0.0170
    1ION     CL62894  23.043   8.175   8.735  0.1934 -0.4065 -0.1103
    1ION     CL62895   3.651  16.273   8.415  0.0251 -0.3784 -0.0628
    1ION     CL62896  14.812  11.414   8.420  0.1120  0.0789 -0.1622
    1ION     CL62897  28.616  15.722   8.101 -0.1756  0.1853 -0.0357
    1ION     CL62898  15.833  17.160   0.124  0.2764  0.1861  0.0038
    1ION     CL62899  21.969   4.668   9.755  0.2134 -0.0792  0.0425
    1ION     CL62900  13.516   8.322   9.570 -0.1349  0.1896 -0.4223
    1ION     CL62901  13.770  10.560   7.874  0.1224  0.4769 -0.2657
    1ION     CL62902  18.975  12.706   2.288  0.1297  0.2549 -0.0339
    1ION     CL62903   5.604  23.511   7.149 -0.1929 -0.1710  0.0341
    1ION     CL62904  13.206  22.241   1.815  0.1656  0.1691  0.0006
    1ION     CL62905  12.182  18.547   8.242  0.1995 -0.0837 -0.3109
    1ION     CL62906  23.557  10.825   2.450  0.2158 -0.1012  0.0496
    1ION     CL62907  17.075   6.684   9.041  0.1560 -0.1700  0.3119
    1ION     CL62908   7.644   8.407   2.855 -0.1009 -0.2265 -0.3205
    1ION     CL62909   0.950   3.332   1.394  0.1506  0.2599  0.0103
    1PPC    NC362910   5.905  16.132   6.500 -0.3188 -0.0813 -0.1616
    1PPC    PO462911   5.698  15.702   6.660  0.3755 -0.0641 -0.2582
    1PPC    GL162912   5.787  15.805   6.171 -0.0654 -0.1019 -0.2716
    1PPC    GL262913   5.817  15.564   5.997  0.1311  0.2186  0.1998
    1PPC    C1B62914   5.539  15.307   5.674 -0.1161 -0.1989  0.4017
    1PPC    C2B62915   5.424  15.220   5.118  0.0899  0.1306 -0.0562
    1PPC    C3B62916   5.035  15.151   4.833 -0.0081  0.2802 -0.1256
    1PPC    C4B62917   4.656  14.967   4.835 -0.2010 -0.0567 -0.1212
    1PPC    NC362918   4.703  13.151   6.798  0.3061 -0.1125 -0.1073
    1PPC    PO462919   4.960  12.717   6.826  0.0788  0.0180  0.0538
    1PPC    GL162920   5.173  12.608   6.450  0.0131 -0.1593  0.0085
    1PPC    GL262921   5.370  12.516   6.154  0.0999 -0.1812  0.3065
    1PPC    C1B62922   5.343  12.623   5.697  0.0057 -0.2624 -0.1016
    1PPC    C2B62923   5.155  12.886   5.407 -0.2102  0.0549  0.3441
    1PPC    C3B62924   4.867  13.225   5.219 -0.2554 -0.1304 -0.0779
    1PPC    C4B62925   4.763  13.638   5.137 -0.0973  0.0186  0.0325
    1PPC    NC362926   9.013  23.303   6.339  0.2173  0.2150 -0.2984
    1PPC    PO462927   9.419  23.478   6.307 -0.1342  0.0035 -0.2484
    1PPC    GL162928   9.352  23.132   5.911 -0.0151  0.3333 -0.1668
    1PPC    GL262929   9.405  22.945   5.660  0.1037  0.3336  0.0608
    1PPC    C1B62930   9.212  23.053   5.291 -0.0938 -0.1444  0.1916
    1PPC    C2B62931   9.216  23.114   4.837  0.0933  0.1170  0.2305
    1PPC    C3B62932   9.136  23.253   4.413  0.2080 -0.1705  0.2080
    1PPC    C4B62933   8.754  23.340   4.314  0.3085  0.1151 -0.1745
    1PPC    NC362934  15.472   1.986   7.051  0.1381 -0.0174 -0.2700
    1PPC    PO462935  15.127   2.044   7.228  0.2871  0.1040  0.0309
    1PPC    GL162936  14.878   2.294   7.235 -0.3270  0.3627  0.0640
    1PPC    GL262937  15.001   2.534   7.044 -0.0970  0.1927  0.1080
    1PPC    C1B62938  15.017   2.740   6.705 -0.1503  0.1144  0.1985
    1PPC    C2B62939  15.250   3.002   6.378  0.3477  0.2850  0.1115
    1PPC    C3B62940  15.650   3.049   6.237 -0.0022  0.0316 -0.1125
    1PPC    C4B62941  15.989   3.320   6.265  0.3642  0.0786  0.1075
    1PPC    NC362942   0.099  21.035   6.049 -0.1487  0.1172  0.0563
    1PPC    PO462943  -0.351  20.969   6.316 -0.1777 -0.0353 -0.0367
    1PPC    GL162944  -0.461  20.809   5.961 -0.1543 -0.1592  0.2387
    1PPC    GL262945  -0.473  20.571   5.670 -0.1291 -0.1642 -0.1192
    1PPC    C1B62946  -0.504  20.666   5.313  0.2264 -0.3144 -0.0693
    1PPC    C2B62947  -0.417  20.463   4.934  0.2385 -0.1023 -0.1429
    1PPC    C3B62948  -0.717  20.302   4.576 -0.0914  0.3101 -0.1274
    1PPC    C4B62949  -0.992  20.146   4.378  0.0906 -0.1861  0.1871
    1PPC    NC362950   0.435  20.582   6.205  0.1397  0.0885 -0.0773
    1PPC    PO462951   0.539  20.790   5.926  0.0604 -0.2172 -0.1766
    1PPC    GL162952   0.183  20.865   5.586 -0.0396  0.2796 -0.1034
    1PPC    GL262953  -0.019  21.076   5.540  0.2442  0.0478 -0.1744
    1PPC    C1B62954  -0.466  21.238   5.368  0.2145 -0.0919  0.0368
    1PPC    C2B62955  -0.741  21.048   5.038 -0.0546  0.0723  0.4531
    1PPC    C3B62956  -0.869  20.719   4.781  0.3047  0.2084 -0.0268
    1PPC    C4B62957  -1.214  20.529   4.728 -0.1596 -0.3096  0.1010
    1PPC    NC362958  27.701  24.678   6.694 -0.0767  0.2647 -0.2994
    1PPC    PO462959  27.603  24.541   6.328  0.1022 -0.0783 -0.1498
    1PPC    GL162960  27.729  24.938   6.156  0.2203  0.2693 -0.2218
    1PPC    GL262961  27.804  25.068   5.884  0.1441 -0.0834  0.1312
    1PPC    C1B62962  28.070  25.298   5.587 -0.0811  0.1336 -0.1379
    1PPC    C2B62963  28.126  25.310   5.146 -0.4935 -0.2425 -0.0838
    1PPC    C3B62964  28.122  25.262   4.661  0.0536 -0.1213  0.3096
    1PPC    C4B62965  28.054  25.425   4.303  0.2164  0.1236 -0.2224
    1PPC    NC362966  11.612  25.724   7.544 -0.2231 -0.1192  0.0790
    1PPC    PO462967  11.584  26.074   7.177  0.1571 -0.1039  0.0997
    1PPC    GL162968  11.763  26.040   6.754  0.0168  0.1052  0.5314
    1PPC    GL262969  11.754  26.030   6.408  0.0054  0.1959 -0.0755
    1PPC    C1B62970  11.632  26.121   5.888  0.3533 -0.2329 -0.2092
    1PPC    C2B62971  11.686  26.223   5.436 -0.0358  0.2840 -0.1608
    1PPC    C3B62972  11.593  26.197   5.017 -0.0364 -0.1170  0.1316
    1PPC    C4B62973  11.227  26.211   4.744 -0.1209 -0.2532 -0.1487
    1PPC    NC362974  22.060  27.762   7.189  0.1536  0.1046 -0.0927
    1PPC    PO462975  22.469  27.692   6.866 -0.2226 -0.1260  0.2049
    1PPC    GL162976  22.469  27.641   6.342 -0.1500 -0.1249 -0.1915
    1PPC    GL262977  22.504  27.650   6.002  0.2208 -0.0677 -0.0291
    1PPC    C1B62978  22.680  27.963   5.730  0.0531 -0.0324 -0.0472
    1PPC    C2B62979  23.077  27.937   5.568 -0.0609  0.0237  0.0230
    1PPC    C3B62980  23.430  27.817   5.492  0.0951 -0.0948  0.0843
    1PPC    C4B62981  23.826  27.891   5.697  0.3269 -0.3410 -0.2039
    1PPC    NC362982  25.611   0.050   7.011 -0.2548 -0.0974  0.1411
    1PPC    PO462983  26.047  -0.108   6.837  0.2928 -0.0929 -0.1694
    1PPC    GL162984  26.110   0.133   6.503 -0.1547 -0.0143 -0.1625
    1PPC    GL262985  26.065   0.149   6.147  0.1641  0.1486  0.0564
    1PPC    C1B62986  26.011  -0.119   5.814  0.1826  0.0139 -0.0442
    1PPC    C2B62987  26.001  -0.473   5.498  0.1253  0.0445  0.0334
    1PPC    C3B62988  26.064  -0.639   5.083 -0.1612 -0.3764 -0.0939
    1PPC    C4B62989  26.121  -1.080   5.045 -0.1016 -0.1218  0.3457
    1PPC    NC362990  16.649  27.645   8.045  0.0026 -0.1021  0.1281
    1PPC    PO462991  16.412  27.625   7.578 -0.1935 -0.2060  0.2025
    1PPC    GL162992  16.396  27.881   7.280 -0.1660  0.0265  0.0399
    1PPC    GL262993  16.326  27.885   7.013 -0.3385  0.0686 -0.2481
    1PPC    C1B62994  16.300  27.691   6.562  0.1710 -0.1281  0.0411
    1PPC    C2B62995  16.509  27.623   6.152  0.0171  0.0458  0.2018
    1PPC    C3B62996  16.678  27.468   5.847  0.1616  0.2387  0.1437
    1PPC    C4B62997  16.601  27.475   5.398  0.0188 -0.0431  0.2471
    1PPC    NC362998   7.375  21.546   6.297  0.1164  0.0048 -0.1420
    1PPC    PO462999   7.788  21.911   6.420  0.0975  0.1194 -0.0206
    1PPC    GL163000   7.638  21.782   5.970  0.2075 -0.0778  0.3390
    1PPC    GL263001   7.456  21.682   5.782 -0.0598  0.0287 -0.2644
    1PPC    C1B63002   7.262  21.368   5.479  0.0493  0.1592 -0.0459
    1PPC    C2B63003   7.117  21.249   5.023 -0.2310  0.2110  0.2033
    1PPC    C3B63004   7.287  20.999   4.689  0.0600 -0.0392  0.2148
    1PPC    C4B63005   7.526  20.640   4.464  0.0986  0.1293 -0.0433
    1PPC    NC363006   6.067   3.634   6.886  0.0811  0.1276 -0.0162
    1PPC    PO463007   5.935   3.983   6.772 -0.1233 -0.0377 -0.1279
    1PPC    GL163008   6.213   4.186   6.417 -0.1078 -0.3086 -0.5059
    1PPC    GL263009   6.453   4.409   6.257  0.3490 -0.1150 -0.0910
    1PPC    C1B63010   6.611   4.426   5.912 -0.2934  0.0546  0.1621
    1PPC    C2B63011   6.607   4.306   5.566 -0.1336 -0.0385 -0.0939
    1PPC    C3B63012   6.641   4.058   5.282  0.1997 -0.1678  0.3394
    1PPC    C4B63013   6.395   3.938   4.888  0.0468  0.1313 -0.0886
    1PPC    NC363014  27.280   6.202   6.548 -0.0404  0.2673  0.1047
    1PPC    PO463015  27.171   5.781   6.495 -0.1940  0.2524 -0.1183
    1PPC    GL163016  27.059   5.751   6.068  0.0754 -0.3793  0.0682
    1PPC    GL263017  26.792   5.681   5.891  0.2142  0.0892  0.0002
    1PPC    C1B63018  26.634   5.604   5.454 -0.0415  0.0380  0.0339
    1PPC    C2B63019  26.678   5.682   5.054 -0.1038  0.0536 -0.5183
    1PPC    C3B63020  26.791   5.494   4.675  0.2550  0.0865  0.3106
    1PPC    C4B63021  27.065   5.386   4.308  0.1018  0.0765  0.1865
    1PPC    NC363022   7.880  28.431   7.572 -0.3183  0.1431  0.2298
    1PPC    PO463023   8.258  28.334   7.379  0.1076 -0.0600  0.2275
    1PPC    GL163024   7.885  28.150   7.165  0.1063  0.3789  0.2928
    1PPC    GL263025   7.637  28.126   6.984  0.3878  0.2104 -0.0780
    1PPC    C1B63026   7.549  28.207   6.599 -0.0618 -0.1720  0.0182
    1PPC    C2B63027   7.228  28.412   6.314 -0.1285 -0.1168 -0.0708
    1PPC    C3B63028   7.086  28.656   5.982  0.1853  0.3859 -0.4260
    1PPC    C4B63029   6.802  28.506   5.634 -0.1697  0.0595  0.1215
    1PPC    NC363030  10.849  28.516   7.579  0.1559  0.0557 -0.0123
    1PPC    PO463031  10.630  28.912   7.542 -0.1638 -0.2165  0.1417
    1PPC    GL163032  10.851  28.960   7.177 -0.0330 -0.0073  0.1428
    1PPC    GL263033  10.993  28.934   6.878  0.1983  0.1233  0.1981
    1PPC    C1B63034  11.146  29.038   6.460 -0.2334  0.1398 -0.1564
    1PPC    C2B63035  10.994  29.081   5.968 -0.0065  0.1790  0.0740
    1PPC    C3B63036  10.673  29.231   5.848  0.1199 -0.0439  0.0200
    1PPC    C4B63037  10.408  29.294   5.458 -0.0303 -0.1164  0.1388
    1PPC    NC363038   8.272   6.235   6.989  0.2992 -0.2487  0.0512
    1PPC    PO463039   8.706   6.194   7.012  0.0136  0.0978  0.1879
    1PPC    GL163040   8.761   6.278   6.581 -0.2400 -0.2037 -0.0834
    1PPC    GL263041   8.732   6.212   6.301 -0.2404 -0.0384 -0.0032
    1PPC    C1B63042   8.637   6.268   5.898 -0.2150  0.2867  0.2794
    1PPC    C2B63043   8.687   6.324   5.439 -0.0759  0.3910 -0.1969
    1PPC    C3B63044   8.755   6.654   5.098  0.2072 -0.0291  0.2501
    1PPC    C4B63045   8.679   6.977   5.202 -0.0692  0.0210 -0.0557
    1PPC    NC363046  26.713   3.044   6.696 -0.0038  0.0397 -0.0609
    1PPC    PO463047  26.459   2.773   6.380  0.1031  0.2753  0.2095
    1PPC    GL163048  26.404   2.997   5.970  0.1311  0.1879  0.4150
    1PPC    GL263049  26.459   3.103   5.594  0.0325 -0.0290 -0.2700
    1PPC    C1B63050  26.285   3.419   5.369 -0.2351  0.0002 -0.5555
    1PPC    C2B63051  26.336   3.628   5.001 -0.0805 -0.1739  0.2815
    1PPC    C3B63052  26.057   3.796   4.591 -0.1409 -0.0856  0.1015
    1PPC    C4B63053  25.774   3.974   4.300 -0.0509 -0.0538  0.1065
    1PPC    NC363054  18.305  23.131   6.825 -0.1472 -0.1184  0.3334
    1PPC    PO463055  18.402  23.550   6.834 -0.1607 -0.2618  0.0394
    1PPC    GL163056  18.314  23.380   6.399  0.0630  0.0950 -0.0691
    1PPC    GL263057  18.298  23.183   6.064  0.1113 -0.0316  0.0220
    1PPC    C1B63058  18.218  22.802   5.859 -0.1285 -0.0513  0.0422
    1PPC    C2B63059  17.909  22.510   5.718  0.1067  0.3859 -0.1976
    1PPC    C3B63060  17.930  22.168   5.899  0.3903 -0.0039 -0.3376
    1PPC    C4B63061  17.765  22.048   6.189  0.1428  0.4415  0.1521
    1PPC    NC363062  15.415   3.531   7.991 -0.0227  0.1852  0.1423
    1PPC    PO463063  15.618   3.518   7.663  0.0981  0.1000  0.2505
    1PPC    GL163064  15.821   3.422   7.241  0.0586  0.3732 -0.1269
    1PPC    GL263065  15.820   3.250   6.847  0.0161  0.0974 -0.2601
    1PPC    C1B63066  16.036   2.907   6.542 -0.0026  0.1110  0.1898
    1PPC    C2B63067  16.322   2.956   6.268  0.0154  0.1247 -0.0871
    1PPC    C3B63068  16.372   2.702   5.794  0.4288  0.1820 -0.4483
    1PPC    C4B63069  16.689   2.398   5.653 -0.0014  0.0914  0.3138
    1PPC    NC363070   1.242   8.204   6.771 -0.0427 -0.0299  0.1028
    1PPC    PO463071   1.351   7.786   6.794 -0.2321 -0.0818  0.0918
    1PPC    GL163072   1.304   7.891   6.340  0.2372 -0.1046 -0.0143
    1PPC    GL263073   1.438   8.108   6.307 -0.0437 -0.3010 -0.0408
    1PPC    C1B63074   1.400   8.421   6.108 -0.1803  0.1028  0.1776
    1PPC    C2B63075   1.448   8.775   5.866  0.1349  0.0796 -0.1239
    1PPC    C3B63076   1.463   9.000   5.519 -0.0014  0.5131  0.1996
    1PPC    C4B63077   1.539   9.266   5.108 -0.1049  0.0162 -0.2098
    1PPC    NC363078  16.936  25.492   7.793  0.0345 -0.2969  0.1226
    1PPC    PO463079  17.057  25.758   7.506 -0.2639  0.2812 -0.1159
    1PPC    GL163080  16.736  25.592   7.277  0.1176 -0.0184 -0.1682
    1PPC    GL263081  16.709  25.547   6.928  0.2198  0.0133  0.3353
    1PPC    C1B63082  16.606  25.422   6.594 -0.0729 -0.0616  0.1375
    1PPC    C2B63083  16.420  25.259   6.222 -0.0994 -0.2504  0.4674
    1PPC    C3B63084  16.506  25.196   5.859  0.1203 -0.1479  0.2302
    1PPC    C4B63085  16.731  25.140   5.499 -0.0790  0.1022 -0.1130
    1PPC    NC363086  15.981  27.568   7.358  0.0226  0.3130  0.1740
    1PPC    PO463087  15.541  27.369   7.550  0.0360  0.2079 -0.0478
    1PPC    GL163088  15.456  27.587   7.087 -0.1599  0.2145 -0.0464
    1PPC    GL263089  15.539  27.618   6.740  0.0052  0.1614 -0.1846
    1PPC    C1B63090  15.819  27.732   6.444  0.2014 -0.0586  0.1133
    1PPC    C2B63091  16.018  27.950   6.150  0.4468 -0.0117 -0.2188
    1PPC    C3B63092  15.851  28.094   5.703 -0.1525  0.5318  0.3330
    1PPC    C4B63093  16.026  28.388   5.466 -0.0199  0.1166 -0.0733
    1PPC    NC363094   3.119  18.905   5.894  0.1718  0.1154  0.2426
    1PPC    PO463095   2.802  19.290   5.739 -0.3033  0.0133  0.0142
    1PPC    GL163096   2.584  19.337   5.372  0.0571  0.1823 -0.0195
    1PPC    GL263097   2.666  19.231   5.153 -0.1050  0.0576  0.1181
    1PPC    C1B63098   2.881  18.996   4.781 -0.0898  0.0608  0.0568
    1PPC    C2B63099   2.975  19.029   4.354  0.0251 -0.0919 -0.1289
    1PPC    C3B63100   3.141  19.319   3.986  0.1548 -0.1673 -0.2866
    1PPC    C4B63101   3.641  19.185   3.901 -0.0327 -0.1504 -0.2775
    1PPC    NC363102   8.235  26.232   7.709 -0.4897  0.0405 -0.0983
    1PPC    PO463103   8.244  26.425   7.262  0.0013 -0.1061  0.3122
    1PPC    GL163104   8.057  26.702   6.945 -0.1524  0.3803  0.2790
    1PPC    GL263105   8.095  26.711   6.616  0.1018  0.1492 -0.1382
    1PPC    C1B63106   8.173  26.957   6.201 -0.2078  0.0987  0.0657
    1PPC    C2B63107   8.018  26.903   5.759 -0.1368 -0.3232  0.2175
    1PPC    C3B63108   8.203  26.879   5.375 -0.1757  0.0087  0.1236
    1PPC    C4B63109   8.469  27.065   5.273  0.0347  0.0148 -0.1257
    1PPC    NC363110  28.202   1.403   7.252 -0.2590 -0.1773 -0.0061
    1PPC    PO463111  27.970   1.293   6.855  0.0550 -0.0686  0.0668
    1PPC    GL163112  27.734   1.094   6.500  0.0836  0.1153 -0.2284
    1PPC    GL263113  27.797   0.994   6.105  0.3895 -0.2599 -0.1773
    1PPC    C1B63114  27.662   1.098   5.743 -0.1958  0.4088 -0.2149
    1PPC    C2B63115  27.574   1.547   5.796  0.1594  0.1231  0.5463
    1PPC    C3B63116  27.358   1.899   5.526 -0.0171 -0.4489  0.1375
    1PPC    C4B63117  27.116   2.053   5.166 -0.1722 -0.1327 -0.5302
    1PPC    NC363118  10.344  25.095   6.303 -0.0739 -0.1212 -0.1382
    1PPC    PO463119  10.587  25.434   6.578  0.2591  0.3952  0.0588
    1PPC    GL163120  10.434  25.765   6.290 -0.1169  0.0825 -0.0432
    1PPC    GL263121  10.143  25.891   6.026 -0.2317 -0.2161  0.0980
    1PPC    C1B63122  10.041  25.837   5.606  0.0346 -0.0294  0.1948
    1PPC    C2B63123   9.927  25.833   5.143 -0.1296 -0.0600  0.2626
    1PPC    C3B63124   9.732  26.242   4.904  0.0595  0.2926  0.2224
    1PPC    C4B63125   9.816  26.346   4.413  0.0227 -0.0691  0.0137
    1PPC    NC363126   7.493  15.494   6.819  0.0801 -0.2867 -0.3531
    1PPC    PO463127   7.365  15.850   6.837 -0.2003 -0.0775 -0.2133
    1PPC    GL163128   7.635  15.805   6.412  0.0814  0.2183 -0.2341
    1PPC    GL263129   7.795  15.774   6.267 -0.0735  0.3752 -0.0458
    1PPC    C1B63130   7.692  15.802   5.805 -0.1299  0.0276 -0.1099
    1PPC    C2B63131   7.636  16.091   5.445 -0.1050 -0.1636 -0.1463
    1PPC    C3B63132   7.517  16.109   5.083  0.2588 -0.4512 -0.1097
    1PPC    C4B63133   7.616  16.467   4.806 -0.2678 -0.0968  0.0103
    1PPC    NC363134  26.199   8.767   6.838 -0.1791 -0.0111 -0.0999
    1PPC    PO463135  26.269   8.704   6.407 -0.2144  0.2254  0.1155
    1PPC    GL163136  26.086   8.332   6.047  0.1349  0.1700 -0.0100
    1PPC    GL263137  26.130   8.154   5.730 -0.0044  0.0749 -0.2040
    1PPC    C1B63138  26.339   8.080   5.346  0.2906  0.0068  0.4359
    1PPC    C2B63139  26.262   7.706   5.045 -0.0813  0.1792  0.1358
    1PPC    C3B63140  26.431   7.724   4.605 -0.1115  0.0423  0.0216
    1PPC    C4B63141  26.567   7.504   4.211 -0.0864  0.0372 -0.0086
    1PPC    NC363142  23.400   4.886   6.865  0.2264 -0.0398  0.1066
    1PPC    PO463143  23.471   4.628   6.556 -0.1193 -0.0463 -0.0234
    1PPC    GL163144  23.668   4.761   6.161 -0.4255  0.0441  0.2113
    1PPC    GL263145  23.723   4.695   5.872 -0.0194  0.1956 -0.0069
    1PPC    C1B63146  23.631   4.299   5.728  0.0027  0.2356 -0.1097
    1PPC    C2B63147  23.696   3.998   5.461 -0.2267 -0.4486  0.1519
    1PPC    C3B63148  23.572   4.033   5.115 -0.2898 -0.0627  0.2380
    1PPC    C4B63149  23.655   3.726   4.691 -0.4291  0.2370 -0.3174
    1PPC    NC363150  25.344  22.173   6.344 -0.1987 -0.2221 -0.2007
    1PPC    PO463151  24.972  22.078   6.201 -0.0068  0.1429  0.0485
    1PPC    GL163152  24.888  22.000   5.881 -0.1982 -0.3413  0.0945
    1PPC    GL263153  24.980  21.981   5.613 -0.0987  0.0212  0.2652
    1PPC    C1B63154  25.098  21.979   5.205 -0.0633 -0.0623 -0.0549
    1PPC    C2B63155  25.139  21.766   4.832  0.1747 -0.3912  0.1953
    1PPC    C3B63156  25.337  21.533   4.564 -0.1851  0.0672 -0.2560
    1PPC    C4B63157  25.684  21.325   4.429  0.2935 -0.1289 -0.1137
    1PPC    NC363158  20.671  22.211   7.795  0.0061  0.0254 -0.1674
    1PPC    PO463159  20.883  22.230   7.304  0.0578 -0.2698 -0.2288
    1PPC    GL163160  20.614  22.405   6.981 -0.1420  0.4702  0.2558
    1PPC    GL263161  20.426  22.428   6.700  0.2342 -0.1429  0.0954
    1PPC    C1B63162  20.198  22.656   6.315  0.0949  0.1570 -0.0555
    1PPC    C2B63163  20.122  23.074   6.280 -0.0212  0.2147  0.2592
    1PPC    C3B63164  19.756  23.400   6.100  0.0674 -0.2338 -0.0959
    1PPC    C4B63165  19.546  23.684   5.820 -0.0500 -0.0597  0.1421
    1PPC    NC363166   3.723   1.108   7.278  0.4536 -0.2088  0.2971
    1PPC    PO463167   3.820   1.239   6.887  0.1691 -0.2296  0.0722
    1PPC    GL163168   3.754   0.819   6.619  0.0884 -0.0315 -0.1741
    1PPC    GL263169   3.508   0.744   6.303 -0.1030 -0.2113  0.0914
    1PPC    C1B63170   3.305   0.572   5.898  0.2875 -0.1497 -0.1545
    1PPC    C2B63171   3.168   0.124   5.603 -0.1034 -0.1722  0.2974
    1PPC    C3B63172   3.071  -0.266   5.308  0.3393 -0.1103 -0.0879
    1PPC    C4B63173   2.849  -0.442   4.878  0.0967  0.2379 -0.1095
    1PPC    NC363174  13.930  24.766   7.850  0.0805 -0.1899 -0.1338
    1PPC    PO463175  13.678  25.010   7.620 -0.2412 -0.0813  0.0460
    1PPC    GL163176  13.636  24.608   7.274  0.1202 -0.0034  0.0611
    1PPC    GL263177  13.780  24.640   6.993  0.1658  0.1092 -0.2455
    1PPC    C1B63178  13.805  24.647   6.531  0.1841 -0.1690 -0.0316
    1PPC    C2B63179  13.705  24.741   6.121 -0.1227 -0.2782 -0.2141
    1PPC    C3B63180  13.585  24.938   5.765 -0.0805 -0.1762 -0.1136
    1PPC    C4B63181  13.362  25.137   5.473 -0.2782 -0.0763 -0.2715
    1PPC    NC363182  16.149   4.169   7.689 -0.3051  0.0793  0.1768
    1PPC    PO463183  15.883   4.512   7.722 -0.1238 -0.2430 -0.0511
    1PPC    GL163184  15.961   4.414   7.301 -0.0512  0.2002  0.1329
    1PPC    GL263185  15.801   4.546   6.977 -0.0584 -0.6232 -0.0664
    1PPC    C1B63186  15.817   4.689   6.525  0.2144 -0.0298 -0.0863
    1PPC    C2B63187  15.572   4.396   6.274  0.3506 -0.1494  0.0892
    1PPC    C3B63188  15.256   4.025   6.173 -0.2702  0.1605 -0.1902
    1PPC    C4B63189  14.923   3.932   6.459  0.0104  0.0719  0.1619
    1PPC    NC363190  17.374  23.850   7.428 -0.0573 -0.1546  0.1861
    1PPC    PO463191  17.088  23.549   7.388  0.1645 -0.0451  0.2125
    1PPC    GL163192  16.986  23.640   6.988 -0.0582 -0.2646 -0.0919
    1PPC    GL263193  17.047  23.660   6.670  0.1373 -0.2631 -0.1215
    1PPC    C1B63194  16.976  23.381   6.296 -0.0718 -0.0111  0.1634
    1PPC    C2B63195  16.980  23.312   5.829  0.1198  0.2447  0.0509
    1PPC    C3B63196  17.101  23.292   5.378  0.2226 -0.0496 -0.0009
    1PPC    C4B63197  17.027  22.898   5.115 -0.0377 -0.2375 -0.0390
    1PPC    NC363198  23.049   6.633   6.683  0.1872  0.0199 -0.2286
    1PPC    PO463199  22.875   6.276   6.754 -0.0071 -0.1868  0.1261
    1PPC    GL163200  22.767   6.292   6.433  0.2310  0.2805 -0.0161
    1PPC    GL263201  22.641   6.205   6.138  0.0345 -0.1165 -0.1808
    1PPC    C1B63202  22.613   6.043   5.697  0.2691  0.1159 -0.2933
    1PPC    C2B63203  22.619   6.130   5.310  0.0933 -0.0974  0.0784
    1PPC    C3B63204  22.591   6.101   4.906  0.3397 -0.2459  0.2775
    1PPC    C4B63205  22.675   6.355   4.520 -0.1638 -0.1134 -0.4154
    1PPC    NC363206   8.602  20.879   6.736  0.0429  0.0311  0.1988
    1PPC    PO463207   8.456  20.658   6.427  0.0328 -0.3620 -0.1054
    1PPC    GL163208   8.423  20.635   6.048 -0.2880  0.0967 -0.1781
    1PPC    GL263209   8.740  20.635   5.797 -0.0959 -0.1122  0.0464
    1PPC    C1B63210   9.110  20.410   5.579  0.0075  0.0731 -0.0435
    1PPC    C2B63211   9.349  20.143   5.382 -0.2280 -0.5911  0.2877
    1PPC    C3B63212   9.745  20.300   5.158 -0.1247  0.2507  0.0131
    1PPC    C4B63213  10.117  20.285   4.859  0.0905  0.2362 -0.0679
    1PPC    NC363214  10.852   3.226   7.631  0.4025 -0.0215  0.0046
    1PPC    PO463215  10.960   2.772   7.620  0.2674  0.0362  0.2642
    1PPC    GL163216  10.883   2.517   7.315 -0.0376  0.2767 -0.0948
    1PPC    GL263217  10.792   2.576   7.059 -0.0269 -0.0773 -0.0985
    1PPC    C1B63218  10.794   2.834   6.781 -0.1033  0.4534  0.2833
    1PPC    C2B63219  10.412   2.935   6.416  0.0414 -0.1238 -0.3694
    1PPC    C3B63220  10.366   2.789   5.982  0.3303  0.0666 -0.2425
    1PPC    C4B63221  10.210   2.473   5.624 -0.1246  0.0773 -0.3399
    1PPC    NC363222  10.320  27.269   7.375  0.1958 -0.0481  0.0881
    1PPC    PO463223  10.677  27.606   7.361  0.0696 -0.0733  0.0324
    1PPC    GL163224  10.474  27.824   6.939  0.0397  0.2862 -0.1899
    1PPC    GL263225  10.400  27.908   6.778  0.0557  0.0182  0.1498
    1PPC    C1B63226  10.330  27.837   6.381  0.2262  0.1603  0.0599
    1PPC    C2B63227  10.208  27.864   5.996  0.0442 -0.0800  0.2527
    1PPC    C3B63228  10.169  27.514   5.663  0.1163 -0.2130 -0.2933
    1PPC    C4B63229   9.941  27.614   5.252  0.3265 -0.2312 -0.4143
    1PPC    NC363230  20.968  21.215   6.682 -0.1179 -0.1727 -0.1599
    1PPC    PO463231  20.924  21.614   6.760 -0.0824 -0.1067 -0.0918
    1PPC    GL163232  20.678  21.681   6.416 -0.0298  0.0346  0.2854
    1PPC    GL263233  20.628  21.577   6.101 -0.2444  0.0141  0.1881
    1PPC    C1B63234  20.756  21.418   5.817  0.1303 -0.0373  0.0584
    1PPC    C2B63235  21.087  21.534   5.531 -0.3765  0.0608 -0.0134
    1PPC    C3B63236  21.388  21.417   5.820 -0.2882  0.2585  0.3359
    1PPC    C4B63237  21.815  21.250   6.031 -0.0525 -0.0268  0.0594
    1PPC    NC363238   4.612  22.005   5.816 -0.0257  0.0188 -0.5027
    1PPC    PO463239   4.993  21.751   5.961 -0.0115 -0.0973 -0.1895
    1PPC    GL163240   5.346  21.609   5.607  0.2758 -0.0084  0.1807
    1PPC    GL263241   5.392  21.548   5.342  0.1340 -0.1551 -0.3015
    1PPC    C1B63242   5.457  21.255   5.115  0.0006 -0.0366 -0.1131
    1PPC    C2B63243   5.729  21.174   4.766  0.0618  0.0544 -0.1661
    1PPC    C3B63244   5.852  21.194   4.336 -0.1851 -0.0830  0.0737
    1PPC    C4B63245   5.978  21.464   4.055  0.0308 -0.0222  0.0919
    1PPC    NC363246  14.298   2.923   8.234  0.0992  0.1204  0.0483
    1PPC    PO463247  14.363   2.672   7.888  0.0259 -0.0482 -0.4518
    1PPC    GL163248  14.304   2.478   7.443 -0.0054  0.1807 -0.1369
    1PPC    GL263249  14.092   2.363   7.117 -0.1652  0.1505  0.0231
    1PPC    C1B63250  13.979   2.079   6.879 -0.1336 -0.1684  0.1711
    1PPC    C2B63251  13.756   1.751   6.662 -0.2593 -0.1276 -0.0260
    1PPC    C3B63252  13.747   1.773   6.217  0.0018  0.1650  0.2308
    1PPC    C4B63253  13.878   1.621   5.810 -0.0328  0.0173 -0.0920
    1PPC    NC363254  14.985  26.139   7.144  0.1709 -0.0885  0.1216
    1PPC    PO463255  15.330  26.072   6.866 -0.2263  0.2302  0.0808
    1PPC    GL163256  15.159  26.306   6.545 -0.0094  0.0711 -0.1387
    1PPC    GL263257  15.140  26.570   6.384  0.1302 -0.0064  0.3362
    1PPC    C1B63258  14.940  26.727   6.047 -0.0798 -0.1514  0.0123
    1PPC    C2B63259  14.843  27.193   5.871  0.1054  0.1901  0.0609
    1PPC    C3B63260  15.177  27.580   5.807  0.0268  0.0004  0.0841
    1PPC    C4B63261  15.304  28.009   5.684 -0.2441  0.0195 -0.0718
    1PPC    NC363262   8.071  25.739   6.539 -0.2033 -0.2414  0.1721
    1PPC    PO463263   7.997  25.330   6.362  0.3116 -0.2960  0.4056
    1PPC    GL163264   8.331  25.560   6.071  0.1185  0.0367 -0.0026
    1PPC    GL263265   8.392  25.717   5.815  0.1178  0.4616 -0.0704
    1PPC    C1B63266   8.528  26.131   5.772  0.2121 -0.0121 -0.0190
    1PPC    C2B63267   8.755  26.467   5.547 -0.1093 -0.1480 -0.0309
    1PPC    C3B63268   8.888  26.773   5.253 -0.2808 -0.0664 -0.1356
    1PPC    C4B63269   9.062  27.100   4.929 -0.1982 -0.0232  0.4631
    1PPC    NC363270   4.123  27.176   7.737 -0.0683 -0.1733 -0.0173
    1PPC    PO463271   4.123  26.886   7.562  0.1874  0.1859  0.1158
    1PPC    GL163272   4.307  26.740   7.086  0.0882  0.0494 -0.0783
    1PPC    GL263273   4.245  26.960   6.667  0.0417 -0.1410  0.0736
    1PPC    C1B63274   4.450  27.124   6.275 -0.0046  0.1874  0.0856
    1PPC    C2B63275   4.475  26.977   5.831  0.1985 -0.2736 -0.0200
    1PPC    C3B63276   4.311  27.204   5.460 -0.0859  0.0502  0.0000
    1PPC    C4B63277   4.377  27.355   4.992  0.0541 -0.0492 -0.0606
    1PPC    NC363278   7.182  27.383   7.519  0.3864 -0.1116 -0.1566
    1PPC    PO463279   7.033  27.540   7.147  0.0767  0.0801 -0.2830
    1PPC    GL163280   7.011  27.337   6.768 -0.0324  0.1899  0.3052
    1PPC    GL263281   7.037  27.446   6.426 -0.1389  0.0186  0.2521
    1PPC    C1B63282   7.217  27.441   6.060  0.1654 -0.0149 -0.0461
    1PPC    C2B63283   7.057  27.558   5.625  0.0049  0.1377  0.1355
    1PPC    C3B63284   6.823  27.372   5.209 -0.1026  0.4277 -0.0131
    1PPC    C4B63285   6.774  27.108   4.984  0.0395 -0.0551  0.2400
    1PPC    NC363286   7.056  22.527   5.929  0.0292  0.0759  0.1677
    1PPC    PO463287   7.178  22.106   6.049 -0.0191  0.3115  0.1088
    1PPC    GL163288   7.410  22.215   5.786  0.3730 -0.0506  0.1548
    1PPC    GL263289   7.494  22.137   5.551  0.0424 -0.1465  0.0681
    1PPC    C1B63290   7.474  21.804   5.291 -0.2059  0.2520 -0.1896
    1PPC    C2B63291   7.517  21.488   4.840  0.2757  0.0065  0.0989
    1PPC    C3B63292   7.760  21.276   4.522  0.0453 -0.1017 -0.3841
    1PPC    C4B63293   7.887  20.951   4.239  0.1674  0.3339 -0.1904
    1PPC    NC363294   0.487   3.156   6.753  0.0866 -0.1670 -0.1305
    1PPC    PO463295   0.303   3.175   6.333  0.1314  0.0921 -0.0444
    1PPC    GL163296   0.186   2.871   5.922 -0.1422  0.2785 -0.4171
    1PPC    GL263297   0.220   2.500   6.030 -0.3136  0.0376 -0.0455
    1PPC    C1B63298   0.255   2.138   5.773  0.0053 -0.2196  0.0999
    1PPC    C2B63299   0.224   1.781   5.472 -0.2467 -0.3771  0.0408
    1PPC    C3B63300   0.286   1.793   5.022 -0.0642 -0.2175 -0.2838
    1PPC    C4B63301   0.562   1.981   4.706  0.1578  0.3505  0.1182
    1PPC    NC363302  22.791   9.229   6.912 -0.0406  0.1209  0.1023
    1PPC    PO463303  22.348   8.958   6.892 -0.3191 -0.1164 -0.0042
    1PPC    GL163304  22.485   9.179   6.442 -0.3864 -0.1098  0.0483
    1PPC    GL263305  22.610   9.193   6.113  0.0866 -0.2176  0.1996
    1PPC    C1B63306  22.748   9.165   5.662 -0.1770 -0.0108 -0.0591
    1PPC    C2B63307  22.486   9.242   5.367 -0.0453  0.1504 -0.0389
    1PPC    C3B63308  22.311   9.617   5.109  0.2191 -0.1325  0.0125
    1PPC    C4B63309  22.067  10.002   4.961 -0.1616 -0.4465  0.0526
    1PPC    NC363310  23.511  21.971   7.280  0.1384 -0.1045 -0.1005
    1PPC    PO463311  23.980  21.845   7.059  0.0632 -0.0605 -0.1483
    1PPC    GL163312  24.119  21.912   6.678  0.3863  0.1864  0.0508
    1PPC    GL263313  24.045  21.882   6.364 -0.1163 -0.3743  0.1112
    1PPC    C1B63314  24.014  21.931   5.929  0.1289  0.1422  0.0757
    1PPC    C2B63315  23.877  21.875   5.544 -0.1683 -0.2065  0.1358
    1PPC    C3B63316  24.059  21.709   5.168 -0.3943 -0.0564 -0.0763
    1PPC    C4B63317  24.235  21.512   4.742  0.2234 -0.0707  0.1033
    1PPC    NC363318  13.583  28.145   7.328 -0.2625  0.2671 -0.0800
    1PPC    PO463319  13.791  27.731   7.160  0.1055 -0.2089  0.1220
    1PPC    GL163320  13.827  27.689   6.697 -0.1997  0.2225  0.1212
    1PPC    GL263321  13.553  27.704   6.415  0.4334  0.0703 -0.0119
    1PPC    C1B63322  13.482  27.982   6.015  0.3652 -0.1028 -0.0021
    1PPC    C2B63323  13.298  27.869   5.598  0.6225 -0.0715  0.0950
    1PPC    C3B63324  13.321  27.996   5.158 -0.0397  0.1190 -0.0767
    1PPC    C4B63325  13.660  27.899   4.849  0.0525 -0.0709  0.2352
    1PPC    NC363326   9.595   4.741   7.462 -0.2640  0.1426  0.0283
    1PPC    PO463327   9.785   4.407   7.497 -0.0938 -0.0575  0.3471
    1PPC    GL163328   9.963   4.134   7.205 -0.0660 -0.3125 -0.2236
    1PPC    GL263329   9.990   4.152   6.815 -0.2609  0.2543  0.0971
    1PPC    C1B63330   9.737   4.275   6.485 -0.1833 -0.1170  0.1156
    1PPC    C2B63331   9.689   4.624   6.162 -0.0248  0.0574  0.1580
    1PPC    C3B63332   9.663   4.700   5.740  0.3523 -0.0764 -0.1910
    1PPC    C4B63333   9.779   4.890   5.324 -0.1978  0.2869  0.4325
    1PPC    NC363334  24.866  21.543   6.082 -0.0253 -0.1766 -0.0046
    1PPC    PO463335  24.630  21.313   6.406 -0.0243  0.0402 -0.2544
    1PPC    GL163336  24.335  21.473   6.041  0.0885 -0.2801 -0.3210
    1PPC    GL263337  24.433  21.754   5.856  0.0509  0.0119 -0.1392
    1PPC    C1B63338  24.392  21.867   5.495 -0.0364  0.2093 -0.1252
    1PPC    C2B63339  24.276  22.144   5.203 -0.1113  0.1208  0.0164
    1PPC    C3B63340  23.876  22.258   5.054 -0.0172  0.0643  0.0431
    1PPC    C4B63341  23.540  22.591   5.052 -0.2117 -0.3193  0.3206
    1PPC    NC363342   0.268  27.169   7.244  0.1883 -0.0278 -0.0019
    1PPC    PO463343   0.075  27.504   6.974  0.0836  0.1110 -0.2003
    1PPC    GL163344  -0.269  27.606   6.581  0.2088  0.2689  0.2881
    1PPC    GL263345  -0.047  27.788   6.267  0.2970 -0.0680  0.1059
    1PPC    C1B63346   0.308  27.967   6.002  0.2400 -0.1544 -0.2155
    1PPC    C2B63347   0.324  28.219   5.779 -0.1205  0.3137 -0.0400
    1PPC    C3B63348   0.283  28.455   5.332  0.0171 -0.1976  0.0481
    1PPC    C4B63349   0.046  28.533   5.026  0.1232 -0.0492  0.0941
    1PPC    NC363350  11.469   4.336   7.439 -0.1500 -0.2501 -0.0363
    1PPC    PO463351  11.513   3.875   7.469  0.0423 -0.1521  0.2168
    1PPC    GL163352  11.530   4.116   7.028 -0.1963 -0.2440  0.0678
    1PPC    GL263353  11.662   4.369   6.952 -0.1569 -0.0284  0.1266
    1PPC    C1B63354  11.708   4.664   6.713 -0.1081 -0.0491 -0.1952
    1PPC    C2B63355  11.844   4.654   6.267  0.0711  0.0519 -0.1605
    1PPC    C3B63356  11.833   4.624   5.892  0.2641 -0.1796 -0.0061
    1PPC    C4B63357  11.468   4.626   5.493 -0.0342  0.1880 -0.1578
    1PPC    NC363358  10.359   4.995   7.942 -0.0083  0.3196 -0.1342
    1PPC    PO463359  10.639   4.912   7.680  0.0336  0.1722  0.0261
    1PPC    GL163360  10.761   4.965   7.271  0.0428 -0.0922 -0.1374
    1PPC    GL263361  10.756   4.736   6.908 -0.3838 -0.0815  0.1206
    1PPC    C1B63362  10.966   4.884   6.549  0.3080 -0.1116  0.0889
    1PPC    C2B63363  11.305   4.747   6.335 -0.2307 -0.0566  0.3789
    1PPC    C3B63364  11.372   4.503   5.988  0.1426 -0.0902  0.1292
    1PPC    C4B63365  11.092   4.307   5.677 -0.1699 -0.4220 -0.2204
    1PPC    NC363366  27.118  18.263   6.300  0.0542  0.0788 -0.0670
    1PPC    PO463367  27.101  18.808   6.348 -0.0366  0.1743  0.3685
    1PPC    GL163368  26.835  18.647   6.066  0.0417  0.0071  0.2356
    1PPC    GL263369  26.648  18.667   5.820  0.3134  0.0735 -0.0722
    1PPC    C1B63370  26.567  18.929   5.514 -0.1183  0.0880  0.1816
    1PPC    C2B63371  26.489  19.138   5.173 -0.0462 -0.1487  0.0377
    1PPC    C3B63372  26.274  19.032   4.838 -0.2844  0.1110  0.1779
    1PPC    C4B63373  26.251  19.058   4.452  0.1504  0.0156 -0.0006
    1PPC    NC363374  13.247  25.614   7.344  0.3197  0.1247 -0.1170
    1PPC    PO463375  13.660  25.452   7.063  0.1939 -0.2454  0.0334
    1PPC    GL163376  13.624  25.530   6.668 -0.1737  0.0703 -0.1344
    1PPC    GL263377  13.636  25.341   6.346 -0.0859  0.0952  0.0178
    1PPC    C1B63378  13.896  25.278   6.015  0.0580  0.1520  0.1178
    1PPC    C2B63379  14.055  25.153   5.684 -0.4087 -0.2309  0.1392
    1PPC    C3B63380  14.025  24.702   5.571 -0.2285  0.1219  0.0794
    1PPC    C4B63381  13.897  24.304   5.450 -0.0400 -0.0332 -0.0553
    1PPC    NC363382   4.256  18.957   5.743  0.1830 -0.1512 -0.2893
    1PPC    PO463383   3.892  19.184   5.682  0.0830 -0.1501  0.2656
    1PPC    GL163384   3.963  18.982   5.301  0.1663  0.0396 -0.2317
    1PPC    GL263385   4.144  19.037   5.044  0.3635 -0.2495  0.2813
    1PPC    C1B63386   4.301  18.965   4.707 -0.0266  0.2084 -0.0174
    1PPC    C2B63387   4.507  19.150   4.391  0.0039 -0.1915  0.0045
    1PPC    C3B63388   4.599  19.420   4.056 -0.2092  0.0895  0.0119
    1PPC    C4B63389   4.674  19.854   3.777  0.2955  0.2396 -0.0762
    1PPC    NC363390   6.042  18.915   6.187  0.2602  0.1769 -0.0569
    1PPC    PO463391   5.601  18.763   5.976 -0.3854  0.1552  0.3725
    1PPC    GL163392   5.689  18.576   5.540 -0.0609  0.0842 -0.2890
    1PPC    GL263393   5.806  18.554   5.379 -0.0310 -0.1993 -0.2936
    1PPC    C1B63394   5.802  18.375   5.055 -0.0203  0.0660 -0.0182
    1PPC    C2B63395   5.708  17.959   4.889 -0.0889 -0.3861 -0.1722
    1PPC    C3B63396   5.389  17.807   4.584 -0.0040  0.0691  0.0378
    1PPC    C4B63397   5.320  17.354   4.466 -0.2501  0.1441 -0.2330
    1PPC    NC363398   9.135   8.429   7.790  0.0027 -0.1113 -0.0478
    1PPC    PO463399   9.570   8.276   7.631 -0.2482  0.0153 -0.0626
    1PPC    GL163400   9.461   7.985   7.336 -0.2097 -0.1316 -0.1676
    1PPC    GL263401   9.408   7.942   7.043  0.0938  0.1267 -0.0407
    1PPC    C1B63402   9.418   7.805   6.722 -0.3643 -0.0811 -0.2035
    1PPC    C2B63403   9.240   7.695   6.409  0.0770 -0.1437  0.0151
    1PPC    C3B63404   9.139   7.892   6.026  0.2382 -0.0078 -0.2151
    1PPC    C4B63405   9.079   8.014   5.580  0.0424  0.3124 -0.0381
    1PPC    NC363406  11.525  25.591   7.037  0.1244 -0.3818 -0.1030
    1PPC    PO463407  11.497  25.192   6.788  0.4478 -0.0258 -0.1237
    1PPC    GL163408  11.780  25.213   6.421  0.0726 -0.0918  0.2159
    1PPC    GL263409  11.667  25.370   6.106 -0.0165 -0.2604  0.1190
    1PPC    C1B63410  11.770  25.621   5.813 -0.1117 -0.0141  0.0941
    1PPC    C2B63411  11.894  25.695   5.371  0.0559  0.0596 -0.0951
    1PPC    C3B63412  12.148  26.122   5.208 -0.0399 -0.0033  0.1091
    1PPC    C4B63413  12.091  26.353   4.838 -0.2572  0.2160  0.3224
    1PPC    NC363414  13.490   0.638   7.910 -0.0314  0.3788 -0.2052
    1PPC    PO463415  13.184   0.852   7.788  0.1593 -0.0217  0.3475
    1PPC    GL163416  13.376   1.162   7.463 -0.1248  0.0539 -0.0401
    1PPC    GL263417  13.405   1.374   7.082 -0.0584  0.0273 -0.1459
    1PPC    C1B63418  13.412   1.312   6.656 -0.2609 -0.1252 -0.1759
    1PPC    C2B63419  13.412   1.390   6.299 -0.2635  0.1950  0.3166
    1PPC    C3B63420  13.398   1.427   5.948  0.2311 -0.2645  0.0145
    1PPC    C4B63421  13.436   1.667   5.541  0.0036  0.1230 -0.1216
    1PPC    NC363422  26.893   9.354   5.717 -0.1853 -0.1536 -0.3297
    1PPC    PO463423  26.879   9.087   5.953 -0.0581 -0.1425 -0.0436
    1PPC    GL163424  26.947   8.735   5.685 -0.0816 -0.2798 -0.3680
    1PPC    GL263425  26.966   8.514   5.418  0.1024  0.2191 -0.2109
    1PPC    C1B63426  26.796   8.297   5.143  0.1100  0.1454 -0.2909
    1PPC    C2B63427  26.730   8.100   4.709  0.2471  0.0477  0.1481
    1PPC    C3B63428  26.910   7.873   4.370 -0.1339 -0.0060  0.1134
    1PPC    C4B63429  27.018   7.583   4.061 -0.1225  0.0600  0.0568
    1PPC    NC363430   2.345   3.843   6.939  0.2289 -0.2219 -0.0756
    1PPC    PO463431   2.043   3.844   6.711  0.1926  0.3340  0.2822
    1PPC    GL163432   1.916   4.093   6.395 -0.0055  0.1182 -0.0146
    1PPC    GL263433   1.751   4.197   6.096  0.2154 -0.0814 -0.0859
    1PPC    C1B63434   1.415   4.282   5.823 -0.1875  0.1578  0.1225
    1PPC    C2B63435   1.312   4.608   5.624 -0.1449 -0.2254  0.1920
    1PPC    C3B63436   1.418   5.015   5.446 -0.1351  0.1564 -0.3449
    1PPC    C4B63437   1.764   5.372   5.546 -0.0454 -0.1237 -0.2144
    1PPC    NC363438  17.940   0.362   8.004 -0.0630 -0.3522 -0.2137
    1PPC    PO463439  18.098   0.371   7.519  0.0405  0.1271  0.0228
    1PPC    GL163440  18.192   0.363   7.016 -0.2220 -0.0518 -0.2495
    1PPC    GL263441  18.159   0.555   6.782 -0.1549  0.2658 -0.0396
    1PPC    C1B63442  18.063   0.853   6.491 -0.2088  0.1160  0.0121
    1PPC    C2B63443  17.861   0.885   6.097  0.2151  0.2286 -0.0011
    1PPC    C3B63444  17.596   0.908   5.722 -0.7332  0.3907  0.2617
    1PPC    C4B63445  17.357   0.455   5.540 -0.0003  0.0501  0.0202
    1PPC    NC363446   4.975  19.155   5.325 -0.2543 -0.0882 -0.0524
    1PPC    PO463447   5.026  19.534   5.356 -0.0994 -0.1382  0.1306
    1PPC    GL163448   5.386  19.455   5.138  0.0574 -0.3618 -0.1045
    1PPC    GL263449   5.689  19.615   5.009 -0.2062 -0.0077 -0.0727
    1PPC    C1B63450   6.082  19.646   4.942  0.0464  0.0758 -0.0528
    1PPC    C2B63451   6.394  19.486   4.669  0.0989  0.1484  0.0468
    1PPC    C3B63452   6.795  19.540   4.524  0.1322  0.2117  0.0735
    1PPC    C4B63453   7.181  19.600   4.582 -0.5080 -0.0049  0.0618
    1PPC    NC363454  11.236  26.346   7.272  0.2667 -0.3996 -0.3462
    1PPC    PO463455  10.983  26.456   6.925 -0.1252  0.2381 -0.2260
    1PPC    GL163456  10.800  26.328   6.545  0.1432 -0.0492  0.3363
    1PPC    GL263457  10.824  26.195   6.344  0.0607 -0.1902 -0.2452
    1PPC    C1B63458  10.653  26.233   5.968 -0.0801  0.2776 -0.3685
    1PPC    C2B63459  10.284  26.333   5.704  0.0424 -0.1129 -0.1340
    1PPC    C3B63460  10.137  26.540   5.357 -0.2774 -0.4465  0.0298
    1PPC    C4B63461   9.814  26.706   5.137 -0.1571 -0.0749 -0.4955
    1PPC    NC363462  22.686   8.541   6.802 -0.1443 -0.4514 -0.1432
    1PPC    PO463463  22.815   8.813   6.402  0.0302  0.0444 -0.2808
    1PPC    GL163464  22.994   8.386   6.387 -0.1577 -0.0931  0.3646
    1PPC    GL263465  23.052   8.171   6.162  0.3950  0.1477  0.2348
    1PPC    C1B63466  23.079   8.039   5.799  0.0059 -0.0902 -0.0511
    1PPC    C2B63467  22.874   7.783   5.535 -0.0871 -0.1267 -0.3223
    1PPC    C3B63468  22.500   7.505   5.542  0.2093 -0.0592  0.1662
    1PPC    C4B63469  22.300   7.413   5.904 -0.0182  0.0370  0.1470
    1PPC    NC363470  26.396  27.188   6.577  0.0361  0.0986 -0.2917
    1PPC    PO463471  26.338  26.795   6.391  0.3163 -0.2362 -0.0694
    1PPC    GL163472  25.922  26.863   6.259  0.3153 -0.1028 -0.0830
    1PPC    GL263473  25.824  26.692   6.104 -0.3509  0.4210  0.2893
    1PPC    C1B63474  25.821  26.517   5.724 -0.0269  0.2366  0.0537
    1PPC    C2B63475  25.845  26.653   5.409  0.0234 -0.2373  0.1492
    1PPC    C3B63476  26.019  26.776   4.947 -0.2417 -0.0623 -0.0207
    1PPC    C4B63477  26.055  27.189   4.733  0.3773 -0.2949 -0.0264
    1PPC    NC363478   3.101  13.913   7.305  0.0022  0.0685  0.0258
    1PPC    PO463479   3.331  13.930   6.998  0.0575  0.2013  0.1853
    1PPC    GL163480   3.646  14.021   6.807  0.0661 -0.3163 -0.2340
    1PPC    GL263481   3.650  14.094   6.567 -0.0946  0.2522  0.1764
    1PPC    C1B63482   3.550  14.144   6.162 -0.3378 -0.0753  0.1448
    1PPC    C2B63483   3.325  14.081   5.842  0.0271 -0.2092  0.2492
    1PPC    C3B63484   2.884  14.243   5.872 -0.2333  0.0940  0.0768
    1PPC    C4B63485   2.519  14.165   6.153 -0.3180 -0.0600 -0.0022
    1PPC    NC363486  24.618   8.090   5.928  0.1718  0.0685  0.0046
    1PPC    PO463487  24.853   8.369   6.242 -0.3206 -0.2031  0.1668
    1PPC    GL163488  24.780   8.575   5.822  0.1880 -0.1336  0.0405
    1PPC    GL263489  24.976   8.743   5.647 -0.3550  0.0849  0.1155
    1PPC    C1B63490  25.097   9.018   5.249  0.0254  0.3835  0.4719
    1PPC    C2B63491  25.001   9.168   4.745 -0.2210  0.1543  0.0348
    1PPC    C3B63492  25.065   9.199   4.322 -0.0829 -0.1824  0.0268
    1PPC    C4B63493  25.142   9.146   3.882 -0.1262 -0.1871 -0.3063
    1PPC    NC363494  27.886  22.640   6.618  0.2705 -0.0032  0.3463
    1PPC    PO463495  27.671  22.204   6.745 -0.3230  0.3655  0.1568
    1PPC    GL163496  27.516  21.961   6.518 -0.0425 -0.1220  0.2745
    1PPC    GL263497  27.740  21.827   6.293 -0.1940  0.2777 -0.2124
    1PPC    C1B63498  27.755  21.937   5.917 -0.1506 -0.3047 -0.0949
    1PPC    C2B63499  27.554  22.081   5.469  0.4526  0.1728 -0.0706
    1PPC    C3B63500  27.472  22.019   5.050  0.0716  0.0917  0.1745
    1PPC    C4B63501  27.365  21.645   4.803  0.2231  0.0921 -0.0231
    1PPC    NC363502   0.863  17.405   6.818 -0.1007  0.0096  0.3335
    1PPC    PO463503   0.930  17.402   6.429 -0.0351 -0.2129  0.1406
    1PPC    GL163504   0.945  17.052   6.103 -0.2834  0.0738 -0.1046
    1PPC    GL263505   1.025  16.963   5.810  0.0559  0.3544 -0.1119
    1PPC    C1B63506   1.026  17.018   5.335  0.2142  0.3327 -0.3233
    1PPC    C2B63507   1.246  16.944   4.984 -0.2244  0.1000 -0.3687
    1PPC    C3B63508   1.614  17.025   4.904 -0.0951  0.2248  0.2112
    1PPC    C4B63509   1.837  17.343   4.883  0.4181 -0.2715  0.2176
    1PPC    NC363510   6.638  20.421   6.929 -0.0832 -0.2768  0.0855
    1PPC    PO463511   6.738  20.182   6.468  0.3155  0.2185  0.1953
    1PPC    GL163512   6.781  20.373   6.059 -0.3077  0.0450  0.1646
    1PPC    GL263513   7.050  20.446   5.834  0.1404 -0.3594 -0.1224
    1PPC    C1B63514   7.312  20.380   5.486  0.0485 -0.2257 -0.4935
    1PPC    C2B63515   7.817  20.261   5.523  0.1271 -0.0899  0.0428
    1PPC    C3B63516   8.004  20.554   5.213  0.5378 -0.2738 -0.0999
    1PPC    C4B63517   8.335  20.754   4.951 -0.2232  0.3962 -0.0919
    1PPC    NC363518  24.232   6.562   6.798  0.2966  0.2420  0.0390
    1PPC    PO463519  24.209   6.657   6.336 -0.1884 -0.1199  0.3823
    1PPC    GL163520  24.533   6.774   6.081 -0.2258  0.2700 -0.2044
    1PPC    GL263521  24.842   6.742   5.755  0.3530 -0.3386 -0.1725
    1PPC    C1B63522  25.227   6.532   5.695  0.3492 -0.3805  0.1311
    1PPC    C2B63523  25.243   6.224   5.355  0.0400 -0.0917  0.2525
    1PPC    C3B63524  25.495   6.201   5.014 -0.0566 -0.3451  0.0927
    1PPC    C4B63525  25.544   6.441   4.646  0.2301 -0.0219  0.1261
    1PPC    NC363526   8.021   3.511   7.350  0.0098  0.2005 -0.0455
    1PPC    PO463527   8.031   3.001   7.434  0.2993  0.1483 -0.0794
    1PPC    GL163528   8.208   2.802   7.141  0.2916 -0.0297 -0.0043
    1PPC    GL263529   8.100   2.772   6.860 -0.2066  0.2657  0.0342
    1PPC    C1B63530   8.429   2.791   6.627 -0.0462 -0.0685 -0.1808
    1PPC    C2B63531   8.350   2.991   6.339  0.3324 -0.1208  0.1309
    1PPC    C3B63532   8.276   3.008   5.879 -0.1786  0.3513 -0.0877
    1PPC    C4B63533   8.076   2.975   5.484  0.0023  0.0236  0.0612
    1PPC    NC363534   9.778  26.345   7.481  0.0555 -0.0058 -0.0245
    1PPC    PO463535   9.783  26.512   7.108 -0.0122  0.0499  0.1059
    1PPC    GL163536   9.896  26.542   6.630 -0.0086 -0.0909 -0.1074
    1PPC    GL263537   9.827  26.299   6.340  0.0401 -0.0507 -0.1493
    1PPC    C1B63538   9.725  26.229   5.821  0.1068  0.3609  0.2889
    1PPC    C2B63539   9.641  26.384   5.461 -0.1089  0.1009  0.0651
    1PPC    C3B63540   9.245  26.399   5.265 -0.2438 -0.1174  0.2090
    1PPC    C4B63541   8.887  26.081   5.237  0.3783 -0.0584 -0.2320
    1PPC    NC363542   1.928   7.600   6.997  0.0957  0.0565 -0.0642
    1PPC    PO463543   2.355   7.708   7.109  0.2058  0.0514 -0.1357
    1PPC    GL163544   2.317   7.440   6.710 -0.1571  0.0786 -0.0171
    1PPC    GL263545   2.104   7.504   6.432  0.3067  0.0711 -0.1152
    1PPC    C1B63546   1.742   7.526   6.165  0.2050  0.0034  0.1452
    1PPC    C2B63547   1.488   7.621   5.801  0.2369 -0.1366 -0.0526
    1PPC    C3B63548   1.202   7.664   5.414 -0.3750  0.0824  0.3026
    1PPC    C4B63549   0.976   7.532   5.004  0.3417 -0.0902 -0.0774
    1PPC    NC363550  21.761  10.710   6.979  0.1150  0.5073 -0.2729
    1PPC    PO463551  22.093  11.013   6.959  0.0229  0.0596 -0.1436
    1PPC    GL163552  22.092  11.133   6.504 -0.2577 -0.4696  0.1196
    1PPC    GL263553  22.129  11.306   6.212 -0.1247  0.0436 -0.0340
    1PPC    C1B63554  22.032  11.614   5.947 -0.2610 -0.0255 -0.3807
    1PPC    C2B63555  21.932  11.801   5.710 -0.1994 -0.0299  0.3076
    1PPC    C3B63556  21.841  12.237   5.701 -0.2428  0.1525  0.0262
    1PPC    C4B63557  21.780  12.661   5.688 -0.0128 -0.1120  0.1931
    1PPC    NC363558   9.059   3.348   7.947  0.1584 -0.1437 -0.1305
    1PPC    PO463559   8.747   3.374   7.661  0.2049 -0.0147 -0.0999
    1PPC    GL163560   8.846   3.569   7.213  0.0116  0.0386 -0.3195
    1PPC    GL263561   8.966   3.560   6.993  0.1074  0.0693  0.1946
    1PPC    C1B63562   9.111   3.762   6.653 -0.3019 -0.1220  0.2075
    1PPC    C2B63563   8.933   3.511   6.284  0.2116  0.0067 -0.0386
    1PPC    C3B63564   8.717   3.211   5.988 -0.1770  0.0429 -0.0089
    1PPC    C4B63565   8.640   3.130   5.572 -0.1289 -0.0295  0.2532
    1PPC    NC363566   1.037   6.501   6.687  0.1288  0.1233  0.1857
    1PPC    PO463567   0.931   6.927   6.398  0.0947 -0.1312 -0.0556
    1PPC    GL163568   1.155   6.967   6.071 -0.0645 -0.0220 -0.0038
    1PPC    GL263569   1.389   7.117   5.982  0.2805 -0.0086  0.0022
    1PPC    C1B63570   1.644   7.183   5.583 -0.2342  0.0549 -0.0915
    1PPC    C2B63571   2.042   7.221   5.278 -0.0514  0.1049 -0.1231
    1PPC    C3B63572   2.493   7.157   5.205  0.0972  0.0673  0.0625
    1PPC    C4B63573   2.625   6.833   5.089 -0.4086 -0.0960  0.1920
    1PPC    NC363574  17.689  18.142   8.131 -0.1893 -0.1258 -0.2379
    1PPC    PO463575  18.168  18.228   8.185  0.1284 -0.1367 -0.3160
    1PPC    GL163576  18.331  18.226   7.725  0.1882  0.1455  0.0650
    1PPC    GL263577  18.360  18.304   7.389 -0.3333 -0.1428  0.0579
    1PPC    C1B63578  18.349  18.430   6.993  0.1657 -0.2813  0.0607
    1PPC    C2B63579  18.109  18.704   6.844 -0.0862  0.0758  0.1299
    1PPC    C3B63580  17.865  19.047   6.835 -0.1770  0.1190 -0.0169
    1PPC    C4B63581  17.836  19.303   7.155  0.0000 -0.0626 -0.1537
    1PPC    NC363582  27.472   2.717   7.029 -0.3704 -0.0470 -0.2686
    1PPC    PO463583  27.571   2.416   6.689  0.1760 -0.0906  0.1041
    1PPC    GL163584  27.367   2.484   6.236 -0.1123  0.1827  0.1113
    1PPC    GL263585  27.262   2.593   5.876 -0.2106  0.0813  0.0538
    1PPC    C1B63586  27.122   2.447   5.512 -0.0486 -0.2730  0.0478
    1PPC    C2B63587  27.218   2.545   5.063  0.3184 -0.1871  0.1384
    1PPC    C3B63588  26.985   2.330   4.684  0.2410 -0.4506 -0.5377
    1PPC    C4B63589  26.599   2.043   4.541  0.1610 -0.2503 -0.2876
    1PPC    NC363590   8.886  25.820   6.701  0.1174  0.2337 -0.1504
    1PPC    PO463591   8.982  26.257   6.722 -0.0688  0.2360  0.2892
    1PPC    GL163592   8.809  26.419   6.356 -0.1280  0.0161  0.2804
    1PPC    GL263593   8.542  26.546   6.201  0.4258  0.0218 -0.1154
    1PPC    C1B63594   8.579  26.868   5.862  0.2184  0.2254 -0.0228
    1PPC    C2B63595   8.441  27.272   5.801 -0.0375  0.0532 -0.0461
    1PPC    C3B63596   7.981  27.439   5.773 -0.1439 -0.2812 -0.0951
    1PPC    C4B63597   7.556  27.558   5.633  0.0812  0.4874  0.2366
    1PPC    NC363598   5.331  19.681   6.325  0.0400  0.1329 -0.0535
    1PPC    PO463599   5.474  19.851   5.997 -0.3032  0.2474  0.3514
    1PPC    GL163600   5.467  19.869   5.468  0.3671  0.1090  0.1576
    1PPC    GL263601   5.447  20.217   5.223 -0.2226 -0.0391 -0.0993
    1PPC    C1B63602   5.641  20.122   4.752  0.1191 -0.0567  0.1213
    1PPC    C2B63603   5.885  20.156   4.275 -0.0337  0.4333  0.3960
    1PPC    C3B63604   5.971  19.966   3.902 -0.1025 -0.1351 -0.0810
    1PPC    C4B63605   6.252  19.728   3.788 -0.0266  0.2084  0.0023
    1PPC    NC363606  24.580  13.534   6.785  0.2618 -0.3208  0.1188
    1PPC    PO463607  24.034  13.412   6.768 -0.2661  0.1141 -0.0112
    1PPC    GL163608  23.757  13.243   6.515 -0.1229 -0.2116  0.1561
    1PPC    GL263609  23.738  13.076   6.241  0.0402  0.3037  0.2568
    1PPC    C1B63610  23.755  13.212   5.830 -0.4918  0.0708 -0.1893
    1PPC    C2B63611  23.492  13.281   5.546  0.0170 -0.1048 -0.0348
    1PPC    C3B63612  23.180  13.023   5.444  0.3040 -0.2791 -0.1455
    1PPC    C4B63613  22.702  13.121   5.265  0.0267 -0.0629  0.0998
    1PPC    NC363614  28.301  23.377   6.642 -0.2695 -0.0910  0.3341
    1PPC    PO463615  28.055  23.730   6.607  0.0243 -0.0367 -0.1943
    1PPC    GL163616  27.815  23.546   6.273  0.0261  0.0178 -0.1205
    1PPC    GL263617  27.736  23.249   6.051 -0.0283  0.0974 -0.0406
    1PPC    C1B63618  27.667  23.328   5.585  0.1809  0.2808  0.2635
    1PPC    C2B63619  27.824  23.216   5.209 -0.0713 -0.0337 -0.1553
    1PPC    C3B63620  27.484  23.321   4.851 -0.1595  0.0834  0.0188
    1PPC    C4B63621  27.155  23.052   4.742  0.0207  0.0877 -0.0004
    1PPC    NC363622  28.503  22.601   6.472  0.1245  0.1698 -0.1418
    1PPC    PO463623  28.588  22.953   6.574 -0.2121  0.0049  0.0602
    1PPC    GL163624  28.374  23.077   6.193 -0.2006  0.0676 -0.0385
    1PPC    GL263625  28.289  23.133   5.876 -0.0472  0.1291 -0.0316
    1PPC    C1B63626  28.367  23.199   5.447 -0.0572 -0.1076  0.1446
    1PPC    C2B63627  28.809  23.178   5.290  0.1871 -0.0521  0.0953
    1PPC    C3B63628  29.176  23.271   5.448 -0.2365  0.0666 -0.0118
    1PPC    C4B63629  29.569  23.386   5.468 -0.2801  0.0356 -0.0010
    1PPC    NC363630  22.888  21.348   7.024  0.0650 -0.0811 -0.1365
    1PPC    PO463631  23.225  21.646   7.011  0.0342 -0.0244 -0.2263
    1PPC    GL163632  23.461  21.739   6.624 -0.3124  0.2280 -0.2937
    1PPC    GL263633  23.543  21.779   6.414 -0.2537  0.3053 -0.1750
    1PPC    C1B63634  23.510  21.837   5.946  0.1936 -0.1776  0.3066
    1PPC    C2B63635  23.336  21.944   5.472  0.0993  0.2937 -0.0902
    1PPC    C3B63636  23.503  21.891   5.112 -0.2873  0.1123 -0.2022
    1PPC    C4B63637  23.079  21.801   4.936  0.2002 -0.0118  0.2948
    1PPC    NC363638   3.694  12.347   6.342 -0.0339 -0.1397  0.1591
    1PPC    PO463639   3.293  12.330   6.187 -0.1840 -0.1175  0.0672
    1PPC    GL163640   3.396  12.624   5.835 -0.0851  0.0483  0.0403
    1PPC    GL263641   3.462  12.918   5.651 -0.3273  0.2356 -0.1840
    1PPC    C1B63642   3.514  13.265   5.373 -0.1969  0.4330  0.1848
    1PPC    C2B63643   3.641  13.318   4.968  0.0731  0.2695 -0.1065
    1PPC    C3B63644   3.402  13.243   4.570  0.2091  0.1842  0.1054
    1PPC    C4B63645   3.112  13.357   4.322  0.0227  0.0611 -0.1080
    1PPC    NC363646   6.431  16.264   6.517  0.0260  0.1211 -0.3563
    1PPC    PO463647   6.296  16.072   6.186 -0.3726  0.0641  0.1280
    1PPC    GL163648   6.076  16.015   5.829 -0.0731 -0.0459  0.0832
    1PPC    GL263649   6.160  16.181   5.568 -0.1620  0.1638  0.1082
    1PPC    C1B63650   6.425  16.147   5.213  0.1420 -0.2012 -0.1260
    1PPC    C2B63651   6.459  16.045   4.762  0.2431  0.2476 -0.0098
    1PPC    C3B63652   6.630  16.237   4.337 -0.1517 -0.0282  0.1896
    1PPC    C4B63653   6.486  16.170   3.894  0.1112 -0.1575  0.2490
    1PPC    NC363654  11.583   5.006   7.785  0.3270  0.1913  0.2963
    1PPC    PO463655  11.592   5.236   7.440 -0.1127 -0.0981  0.3229
    1PPC    GL163656  11.428   4.921   7.264 -0.1739  0.0433  0.0626
    1PPC    GL263657  11.276   4.734   7.097 -0.1519 -0.1097  0.0893
    1PPC    C1B63658  11.227   4.495   6.783 -0.3546 -0.1073  0.1964
    1PPC    C2B63659  11.367   4.202   6.464 -0.4123 -0.2406 -0.1274
    1PPC    C3B63660  11.692   4.150   6.194  0.0821 -0.0650 -0.1680
    1PPC    C4B63661  12.096   4.245   6.008  0.2049  0.0973  0.0577
    1PPC    NC363662  18.689  22.859   7.583  0.0752  0.0630  0.0384
    1PPC    PO463663  18.411  22.683   7.272  0.4025 -0.0759 -0.1099
    1PPC    GL163664  18.513  22.590   6.809  0.0439 -0.2606 -0.0710
    1PPC    GL263665  18.524  22.395   6.540  0.0376  0.2710 -0.1663
    1PPC    C1B63666  18.278  22.358   6.144  0.4138 -0.0444  0.0310
    1PPC    C2B63667  18.410  22.252   5.731 -0.1307  0.0718  0.0092
    1PPC    C3B63668  18.563  22.160   5.233 -0.2853  0.2055 -0.0592
    1PPC    C4B63669  18.169  22.219   4.897 -0.0525 -0.3097 -0.1874
    1PPC    NC363670  20.782   5.664   7.660  0.1396 -0.3449  0.0316
    1PPC    PO463671  20.676   5.622   7.259 -0.1429 -0.1145 -0.0897
    1PPC    GL163672  20.504   5.367   6.848  0.0358  0.1804  0.2853
    1PPC    GL263673  20.370   5.367   6.587 -0.1347  0.0194 -0.2584
    1PPC    C1B63674  20.402   5.132   6.318 -0.1703 -0.0347  0.3356
    1PPC    C2B63675  20.278   4.862   5.934  0.0118 -0.0918 -0.0496
    1PPC    C3B63676  19.993   4.704   5.613  0.0560 -0.1964 -0.0610
    1PPC    C4B63677  19.553   4.435   5.577 -0.1317 -0.2295 -0.0102
    1PPC    NC363678  14.935   5.399   7.720  0.0009  0.0006  0.1660
    1PPC    PO463679  14.532   5.545   7.672  0.1921  0.3188  0.1584
    1PPC    GL163680  14.714   5.565   7.269  0.2254  0.2565 -0.3849
    1PPC    GL263681  14.739   5.381   7.042 -0.0111 -0.0320  0.0110
    1PPC    C1B63682  14.557   5.498   6.652  0.1728  0.0995  0.1921
    1PPC    C2B63683  14.452   5.489   6.196  0.0439 -0.0865  0.1663
    1PPC    C3B63684  14.460   5.321   5.740  0.1906  0.0343  0.1432
    1PPC    C4B63685  14.608   5.293   5.323 -0.2561  0.0475 -0.0126
    1PPC    NC363686  16.771   6.940   8.126  0.1012  0.2310  0.0295
    1PPC    PO463687  17.069   6.619   7.839  0.3140  0.3126 -0.0433
    1PPC    GL163688  17.039   6.571   7.391  0.0764 -0.0479 -0.0777
    1PPC    GL263689  16.977   6.624   7.076  0.0684 -0.1007  0.2291
    1PPC    C1B63690  17.034   6.659   6.565  0.2641 -0.2349  0.1860
    1PPC    C2B63691  16.818   6.406   6.232 -0.0079 -0.2415  0.0997
    1PPC    C3B63692  16.731   6.493   5.737 -0.0569  0.0382 -0.1682
    1PPC    C4B63693  16.488   6.894   5.703  0.0893  0.1931 -0.0945
    1PPC    NC363694   7.676   0.774   7.399  0.1373  0.1476 -0.0378
    1PPC    PO463695   7.312   0.552   7.426 -0.2131  0.0025 -0.1871
    1PPC    GL163696   7.685   0.404   7.141  0.0011  0.1694 -0.0477
    1PPC    GL263697   7.901   0.517   6.934 -0.0925 -0.2585 -0.1122
    1PPC    C1B63698   7.902   0.528   6.468 -0.2542  0.0877  0.1594
    1PPC    C2B63699   7.969   0.647   6.052  0.3569 -0.1623  0.5203
    1PPC    C3B63700   7.939   0.705   5.530 -0.1101 -0.1522  0.3380
    1PPC    C4B63701   7.917   1.035   5.241  0.2290 -0.0422 -0.1408
    1PPC    NC363702  20.852  28.497   7.296 -0.1788  0.4266 -0.0206
    1PPC    PO463703  20.781  28.886   6.966  0.0733  0.0116 -0.1651
    1PPC    GL163704  20.622  28.887   6.481 -0.2898 -0.0850 -0.0313
    1PPC    GL263705  20.594  28.968   6.232 -0.2947 -0.3631 -0.2079
    1PPC    C1B63706  20.506  28.735   5.811 -0.0049 -0.0689 -0.2101
    1PPC    C2B63707  20.545  28.405   5.549  0.1605 -0.1670 -0.1481
    1PPC    C3B63708  20.840  28.145   5.619  0.2114  0.0585  0.1331
    1PPC    C4B63709  21.032  27.825   5.615 -0.2513 -0.1267 -0.3297
    1PPC    NC363710  28.189  12.912   5.836  0.3233 -0.0123  0.1950
    1PPC    PO463711  27.755  13.055   5.861 -0.1313  0.2480  0.0067
    1PPC    GL163712  27.579  13.338   5.529 -0.1144 -0.1237 -0.0982
    1PPC    GL263713  27.336  13.329   5.329  0.1476  0.0174 -0.0109
    1PPC    C1B63714  27.244  13.158   4.917 -0.0765  0.3329 -0.1479
    1PPC    C2B63715  27.104  12.875   4.645  0.0070  0.1612  0.0212
    1PPC    C3B63716  26.822  12.829   4.262  0.1638  0.3412 -0.3295
    1PPC    C4B63717  26.512  12.578   4.020 -0.0617 -0.0201 -0.2771
    1PPC    NC363718  27.808   2.236   7.104 -0.1460  0.1209  0.2437
    1PPC    PO463719  28.143   2.248   6.748  0.0223  0.1993  0.2901
    1PPC    GL163720  27.952   2.049   6.350 -0.0515 -0.0626  0.1876
    1PPC    GL263721  27.801   2.087   6.061 -0.1089 -0.0217 -0.0209
    1PPC    C1B63722  27.642   2.295   5.629 -0.3008 -0.0504  0.1877
    1PPC    C2B63723  27.815   2.343   5.211  0.0001  0.2441 -0.0961
    1PPC    C3B63724  28.191   2.399   5.127  0.1489  0.2201 -0.2004
    1PPC    C4B63725  28.538   2.668   5.183 -0.2835  0.0266  0.2053
    1PPC    NC363726   8.000  26.188   6.801  0.2099  0.1494  0.2684
    1PPC    PO463727   8.134  26.247   6.325 -0.1824  0.2191  0.0264
    1PPC    GL163728   8.515  25.996   6.398 -0.1952 -0.0266 -0.0710
    1PPC    GL263729   8.681  25.875   6.255  0.1205 -0.2449  0.1109
    1PPC    C1B63730   8.919  25.990   6.021 -0.1146 -0.0602 -0.0247
    1PPC    C2B63731   9.117  26.347   5.860  0.2237  0.1839  0.0888
    1PPC    C3B63732   9.264  26.661   5.755  0.2159 -0.0433  0.1829
    1PPC    C4B63733   9.421  26.829   5.476 -0.0540  0.2346  0.0269
    1PPC    NC363734  24.044  11.649   7.052 -0.1725 -0.0183  0.2169
    1PPC    PO463735  23.891  11.514   6.734 -0.2455  0.1271  0.0540
    1PPC    GL163736  23.732  11.652   6.431  0.2786  0.0985  0.3778
    1PPC    GL263737  23.825  11.697   6.091 -0.0796  0.0032  0.0296
    1PPC    C1B63738  23.760  11.497   5.682 -0.0625 -0.0228  0.2474
    1PPC    C2B63739  23.364  11.470   5.389  0.4478 -0.3171 -0.3310
    1PPC    C3B63740  23.289  11.254   5.054 -0.0137  0.0803  0.2295
    1PPC    C4B63741  23.583  11.514   4.764  0.2441 -0.0929 -0.2128
    1PPC    NC363742  22.678  24.265   7.275 -0.1850 -0.1057  0.0059
    1PPC    PO463743  22.903  23.937   7.107  0.2317 -0.0797  0.0270
    1PPC    GL163744  22.803  24.111   6.682  0.2012 -0.2088 -0.2434
    1PPC    GL263745  22.709  24.409   6.377 -0.0400 -0.0731 -0.2377
    1PPC    C1B63746  22.507  24.506   5.959  0.0507  0.0891 -0.2224
    1PPC    C2B63747  22.255  24.623   5.664  0.0944  0.1136 -0.2034
    1PPC    C3B63748  22.020  24.680   5.340  0.0106  0.2992 -0.1027
    1PPC    C4B63749  22.034  24.643   4.910  0.0162 -0.0237 -0.3196
    1PPC    NC363750  22.262  25.575   7.295 -0.2154 -0.0273  0.2092
    1PPC    PO463751  22.489  25.458   6.891 -0.4244 -0.2926 -0.1296
    1PPC    GL163752  22.744  25.489   6.515 -0.4465 -0.0769 -0.4825
    1PPC    GL263753  22.734  25.772   6.211 -0.2277  0.1703 -0.1427
    1PPC    C1B63754  22.439  25.841   5.959  0.2950 -0.1248 -0.0236
    1PPC    C2B63755  22.358  25.900   5.639 -0.2678 -0.3188 -0.0264
    1PPC    C3B63756  22.521  26.080   5.306 -0.3091 -0.1111  0.1732
    1PPC    C4B63757  22.473  26.100   4.873  0.2938 -0.2281  0.0370
    1PPC    NC363758  20.436   7.228   7.424 -0.2961 -0.1594 -0.0638
    1PPC    PO463759  20.601   7.499   7.250  0.1118  0.1916  0.0459
    1PPC    GL163760  20.547   7.334   6.876  0.0380 -0.0146 -0.1373
    1PPC    GL263761  20.361   7.230   6.622 -0.3532 -0.1478  0.1570
    1PPC    C1B63762  20.049   7.460   6.346 -0.0348  0.1247 -0.3008
    1PPC    C2B63763  19.833   7.241   6.208 -0.0530  0.0794 -0.0363
    1PPC    C3B63764  19.819   6.759   6.336 -0.0993  0.1994  0.2600
    1PPC    C4B63765  19.938   6.343   6.292  0.1967 -0.0639  0.1698
    1PPC    NC363766  21.027   0.569   7.150 -0.0158 -0.1596  0.3202
    1PPC    PO463767  21.291   0.214   6.816 -0.0022  0.0265 -0.0122
    1PPC    GL163768  21.171   0.067   6.448 -0.0246  0.2094  0.1476
    1PPC    GL263769  21.093   0.103   6.088  0.0048 -0.1271 -0.0254
    1PPC    C1B63770  20.952   0.394   5.736  0.2701 -0.4697 -0.0313
    1PPC    C2B63771  20.880   0.621   5.377 -0.3558 -0.0051  0.2314
    1PPC    C3B63772  21.000   0.981   5.146 -0.0207 -0.1408  0.2478
    1PPC    C4B63773  21.238   1.128   4.735 -0.0878 -0.1524  0.3203
    1PPC    NC363774  10.415  26.479   6.939 -0.2044 -0.2046  0.2705
    1PPC    PO463775  10.280  26.188   6.555  0.0543 -0.0360  0.0856
    1PPC    GL163776  10.322  26.451   6.275  0.2319 -0.4864 -0.0667
    1PPC    GL263777  10.189  26.691   6.211  0.1079  0.0836  0.2011
    1PPC    C1B63778   9.904  26.748   5.824 -0.0881 -0.1839 -0.0268
    1PPC    C2B63779   9.859  27.088   5.514  0.1820  0.3065 -0.0025
    1PPC    C3B63780   9.574  27.260   5.245  0.0308  0.0357  0.1815
    1PPC    C4B63781   9.386  27.665   5.192 -0.5121  0.0331  0.4383
    1PPC    NC363782  23.169  19.399   7.589  0.0617 -0.0225 -0.1662
    1PPC    PO463783  22.893  19.493   7.162 -0.0218 -0.3318 -0.0168
    1PPC    GL163784  23.009  19.464   6.726 -0.2517 -0.0293 -0.1322
    1PPC    GL263785  22.932  19.361   6.401 -0.2553  0.0023  0.2181
    1PPC    C1B63786  22.865  19.361   5.925 -0.1025  0.0342 -0.1323
    1PPC    C2B63787  22.882  19.088   5.657 -0.2085 -0.1865  0.1445
    1PPC    C3B63788  22.739  18.781   5.266 -0.0338  0.1437  0.0123
    1PPC    C4B63789  22.918  18.442   5.080  0.2172  0.0628  0.2777
    1PPC    NC363790   8.395  27.415   7.063 -0.2572  0.1882  0.0609
    1PPC    PO463791   8.007  27.466   7.338 -0.0844  0.1868 -0.0767
    1PPC    GL163792   7.943  27.616   7.025 -0.2089  0.0747 -0.1593
    1PPC    GL263793   7.950  27.791   6.684 -0.1342  0.1085  0.3346
    1PPC    C1B63794   7.668  27.645   6.287 -0.0999  0.0856  0.3510
    1PPC    C2B63795   7.404  27.946   6.148 -0.0854 -0.1363  0.2791
    1PPC    C3B63796   7.421  28.316   5.818 -0.0335  0.0463  0.1078
    1PPC    C4B63797   7.738  28.460   5.569 -0.1135 -0.0157  0.1607
    1PPC    NC363798  28.148  12.219   6.568 -0.1082 -0.2410  0.4134
    1PPC    PO463799  28.058  12.315   6.114  0.0899  0.2104  0.0712
    1PPC    GL163800  28.155  12.406   5.698 -0.2711  0.1849 -0.3099
    1PPC    GL263801  27.995  12.463   5.403  0.1840  0.2432  0.1451
    1PPC    C1B63802  28.049  12.509   4.972  0.0599  0.1066 -0.1626
    1PPC    C2B63803  27.901  12.561   4.494  0.0716 -0.1306  0.0569
    1PPC    C3B63804  27.569  12.574   4.186 -0.4173  0.2955 -0.0635
    1PPC    C4B63805  27.124  12.402   4.395  0.0263 -0.0441 -0.0944
    1PPC    NC363806   2.533  21.410   6.747 -0.1878  0.0403  0.1462
    1PPC    PO463807   2.368  21.607   6.436  0.2170  0.3672  0.0174
    1PPC    GL163808   2.194  21.397   6.030 -0.1876 -0.1885 -0.0240
    1PPC    GL263809   1.988  21.388   5.734 -0.1167 -0.0823 -0.4244
    1PPC    C1B63810   2.051  21.324   5.304  0.3174  0.0320 -0.1449
    1PPC    C2B63811   2.219  21.426   4.936  0.0906  0.0414 -0.3452
    1PPC    C3B63812   2.579  21.383   4.672 -0.4190  0.0837 -0.1953
    1PPC    C4B63813   2.649  21.305   4.330 -0.3541  0.1980  0.4548
    1PPC    NC363814  24.803   0.415   7.199  0.0596  0.0280  0.1602
    1PPC    PO463815  25.180   0.187   7.265 -0.0977 -0.0387  0.2566
    1PPC    GL163816  25.183  -0.017   6.791 -0.0345 -0.0029 -0.1546
    1PPC    GL263817  25.159  -0.248   6.486  0.1007  0.1861  0.0377
    1PPC    C1B63818  25.129  -0.563   6.252 -0.0754  0.2699 -0.1438
    1PPC    C2B63819  24.757  -0.568   6.187 -0.0196  0.3853 -0.4035
    1PPC    C3B63820  24.692  -0.417   5.696  0.2028 -0.0240 -0.0357
    1PPC    C4B63821  24.590  -0.473   5.202  0.2853 -0.0600  0.0601
    1PPC    NC363822   1.821  10.830   6.663 -0.0279  0.1436 -0.1192
    1PPC    PO463823   1.495  11.170   6.631 -0.1598  0.2312 -0.1004
    1PPC    GL163824   1.845  11.231   6.304  0.1094 -0.1346  0.1528
    1PPC    GL263825   1.854  11.254   6.026  0.0283 -0.0161  0.1335
    1PPC    C1B63826   2.156  11.258   5.583 -0.1488 -0.4864 -0.3288
    1PPC    C2B63827   2.404  11.089   5.242  0.0528 -0.1717  0.1677
    1PPC    C3B63828   2.350  10.707   5.041  0.1916 -0.1174 -0.1946
    1PPC    C4B63829   2.647  10.345   5.002  0.0969 -0.1009 -0.0113
    1PPC    NC363830   1.118  26.775   6.836  0.0674 -0.1954  0.1895
    1PPC    PO463831   0.634  26.943   6.833 -0.3387 -0.1980 -0.0599
    1PPC    GL163832   0.582  27.271   6.655  0.1700  0.4285  0.2506
    1PPC    GL263833   0.305  27.267   6.376  0.3905  0.1195  0.1094
    1PPC    C1B63834   0.238  27.317   5.952 -0.4282 -0.0698 -0.1326
    1PPC    C2B63835   0.196  27.432   5.524  0.3505 -0.2384 -0.0088
    1PPC    C3B63836   0.033  27.564   5.144 -0.1480 -0.0417 -0.0165
    1PPC    C4B63837  -0.327  27.898   5.011 -0.0504 -0.0457 -0.2343
    1PPC    NC363838   5.662  11.601   6.652 -0.2223 -0.2825 -0.0431
    1PPC    PO463839   6.122  11.649   6.895  0.2415  0.2091 -0.1772
    1PPC    GL163840   6.213  11.599   6.560 -0.0890 -0.2349 -0.3280
    1PPC    GL263841   6.046  11.787   6.326  0.1395  0.0303  0.0533
    1PPC    C1B63842   5.971  11.623   5.921 -0.0677  0.0373  0.1043
    1PPC    C2B63843   5.894  11.220   5.607  0.3188  0.3361  0.2189
    1PPC    C3B63844   5.764  10.975   5.334 -0.2489 -0.0696 -0.0153
    1PPC    C4B63845   5.428  10.806   5.220 -0.0933  0.2180  0.0551
    1PPC    NC363846   3.221  14.423   6.986  0.1657 -0.0999 -0.1707
    1PPC    PO463847   3.504  14.584   6.657  0.1351  0.1780 -0.0968
    1PPC    GL163848   3.776  14.626   6.256 -0.1258  0.2798  0.1274
    1PPC    GL263849   4.066  14.595   5.972 -0.0402 -0.0362  0.2758
    1PPC    C1B63850   4.124  14.391   5.558 -0.1486  0.0219 -0.0461
    1PPC    C2B63851   4.535  14.338   5.265 -0.2954 -0.1045  0.0632
    1PPC    C3B63852   4.778  14.108   5.085 -0.3446 -0.0337  0.0151
    1PPC    C4B63853   5.053  13.886   4.828  0.1961 -0.1128 -0.1176
    1PPC    NC363854  21.215  21.955   6.948 -0.1630  0.1199 -0.0696
    1PPC    PO463855  21.562  21.804   6.710  0.0618  0.1196  0.0427
    1PPC    GL163856  21.248  21.715   6.420  0.0271  0.0666 -0.2051
    1PPC    GL263857  21.117  21.784   6.176  0.0710 -0.1686 -0.0454
    1PPC    C1B63858  20.810  21.950   5.746 -0.1796 -0.0555 -0.2620
    1PPC    C2B63859  20.751  22.315   5.365  0.4248 -0.0471  0.1980
    1PPC    C3B63860  20.930  22.405   5.039  0.3272  0.0802  0.2479
    1PPC    C4B63861  21.193  22.696   4.810 -0.2443 -0.0371 -0.3173
    1PPC    NC363862  17.699  28.667   7.279 -0.2352  0.4493  0.3454
    1PPC    PO463863  18.180  28.593   7.208  0.0761 -0.0777  0.2425
    1PPC    GL163864  18.315  28.331   6.842  0.1407  0.2150 -0.1134
    1PPC    GL263865  18.163  28.209   6.594  0.0764  0.1061  0.3598
    1PPC    C1B63866  17.915  28.462   6.281  0.1421  0.2025 -0.0490
    1PPC    C2B63867  17.705  28.790   6.065  0.0128 -0.1546 -0.3131
    1PPC    C3B63868  17.592  29.249   6.007  0.2669  0.3899 -0.1135
    1PPC    C4B63869  17.580  29.251   6.480 -0.2292  0.0779 -0.1681
    1PPC    NC363870  15.695  26.655   6.731  0.0649  0.2985  0.0670
    1PPC    PO463871  15.731  26.200   6.544  0.2189  0.0890  0.0556
    1PPC    GL163872  15.647  26.585   6.270 -0.0031  0.0093  0.1392
    1PPC    GL263873  15.745  26.806   6.139  0.0603 -0.2545 -0.0121
    1PPC    C1B63874  15.732  27.059   5.813 -0.0259  0.3073 -0.0255
    1PPC    C2B63875  15.479  27.255   5.476  0.0720  0.2590 -0.3808
    1PPC    C3B63876  15.268  27.612   5.325 -0.0081 -0.0161  0.0224
    1PPC    C4B63877  15.080  27.873   5.118 -0.3515  0.0621 -0.1613
    1PPC    NC363878  26.773  27.814   7.282  0.2600  0.1079 -0.3212
    1PPC    PO463879  27.120  27.581   7.299 -0.0201  0.1912  0.0184
    1PPC    GL163880  27.176  27.292   6.887 -0.0250  0.4262 -0.2732
    1PPC    GL263881  27.007  27.142   6.592 -0.4544 -0.0804  0.1995
    1PPC    C1B63882  26.906  27.264   6.250  0.0480  0.1768  0.3467
    1PPC    C2B63883  26.722  27.333   5.764  0.1005  0.0889  0.1407
    1PPC    C3B63884  26.631  27.359   5.303  0.1803  0.1635 -0.0784
    1PPC    C4B63885  26.556  27.337   4.821  0.0122 -0.1369  0.2918
    1PPC    NC363886  28.148  20.025   6.785  0.3106 -0.2102 -0.2099
    1PPC    PO463887  28.279  19.894   6.391  0.1983  0.1262 -0.1028
    1PPC    GL163888  27.972  19.605   6.148  0.0354  0.0748  0.3064
    1PPC    GL263889  27.862  19.317   5.950 -0.1207  0.3776  0.0023
    1PPC    C1B63890  27.676  19.281   5.456 -0.3188 -0.1721 -0.0318
    1PPC    C2B63891  27.413  19.235   5.175  0.0604  0.1516 -0.1550
    1PPC    C3B63892  27.282  19.361   4.834  0.0515  0.1001  0.1054
    1PPC    C4B63893  27.044  19.701   4.520 -0.1655  0.2599 -0.2034
    1PPC    NC363894  26.176  15.746   6.126 -0.0648 -0.1426 -0.1225
    1PPC    PO463895  26.397  16.068   6.154 -0.0597  0.1078  0.3244
    1PPC    GL163896  26.305  16.288   5.865 -0.0446 -0.2657 -0.5608
    1PPC    GL263897  26.309  16.285   5.517  0.1444  0.0019 -0.3820
    1PPC    C1B63898  26.512  16.243   5.103  0.0259  0.1816  0.0121
    1PPC    C2B63899  26.515  16.246   4.754 -0.2459 -0.0009 -0.0155
    1PPC    C3B63900  26.568  16.637   4.644  0.0980 -0.0920  0.0628
    1PPC    C4B63901  26.884  16.829   4.515  0.0245 -0.0982  0.1753
    1PPC    NC363902  22.491   5.076   6.877  0.0447 -0.3108  0.2191
    1PPC    PO463903  22.861   5.371   6.894  0.2018 -0.4028 -0.1261
    1PPC    GL163904  23.091   5.483   6.571  0.0308  0.0119  0.0286
    1PPC    GL263905  23.302   5.490   6.343 -0.0033  0.0311 -0.0753
    1PPC    C1B63906  23.308   5.485   5.850  0.2222 -0.0756 -0.3002
    1PPC    C2B63907  23.520   5.552   5.410 -0.2113 -0.1306 -0.0121
    1PPC    C3B63908  23.756   5.478   5.062 -0.2641 -0.0538 -0.0309
    1PPC    C4B63909  24.093   5.451   4.814  0.1684 -0.1441  0.1945
    1PPC    NC363910  20.737   2.287   6.508  0.0959  0.2736 -0.3900
    1PPC    PO463911  21.164   2.249   6.634 -0.0874 -0.0650 -0.1485
    1PPC    GL163912  20.975   1.901   6.388  0.0546 -0.0799  0.2984
    1PPC    GL263913  20.817   1.815   6.027 -0.0419  0.1691 -0.3110
    1PPC    C1B63914  20.857   1.762   5.521  0.2783  0.1049  0.3059
    1PPC    C2B63915  20.582   1.905   5.307 -0.0553  0.1380  0.2057
    1PPC    C3B63916  20.411   2.045   4.942 -0.0602  0.2406 -0.3607
    1PPC    C4B63917  20.082   2.143   4.694  0.0942  0.4707 -0.0497
    1PPC    NC363918   4.893  24.831   6.123 -0.3277 -0.1999 -0.0773
    1PPC    PO463919   4.944  25.194   6.186  0.1513 -0.0383 -0.1034
    1PPC    GL163920   5.161  25.454   6.034 -0.1062  0.0476  0.0904
    1PPC    GL263921   5.340  25.626   5.759  0.0500 -0.1022  0.0138
    1PPC    C1B63922   5.409  25.806   5.345  0.0171  0.4996  0.0663
    1PPC    C2B63923   5.753  25.857   5.111 -0.4714  0.0132  0.2529
    1PPC    C3B63924   6.151  25.956   4.991  0.3431  0.2675  0.0303
    1PPC    C4B63925   6.593  26.005   4.836  0.2384  0.1993 -0.0801
    1PPC    NC363926  14.666   7.820   7.872  0.0172 -0.3446  0.2000
    1PPC    PO463927  14.614   7.378   7.748  0.2092 -0.0892 -0.0716
    1PPC    GL163928  14.155   7.506   7.584 -0.3767  0.0917 -0.1245
    1PPC    GL263929  14.132   7.520   7.156  0.2756 -0.0150 -0.1020
    1PPC    C1B63930  14.014   7.260   6.802 -0.0558 -0.0233  0.0035
    1PPC    C2B63931  13.822   6.905   6.666 -0.1757  0.0328  0.1665
    1PPC    C3B63932  13.522   7.136   6.332  0.1365  0.3258 -0.3318
    1PPC    C4B63933  13.409   7.088   5.881  0.2388  0.0366  0.2226
    1PPC    NC363934  10.648  21.678   7.029  0.3432 -0.0735 -0.1094
    1PPC    PO463935  10.387  21.945   6.798 -0.4775  0.0732  0.0828
    1PPC    GL163936  10.216  21.998   6.330  0.0528  0.0224 -0.3363
    1PPC    GL263937  10.138  22.060   5.976  0.0669 -0.0548  0.0346
    1PPC    C1B63938  10.387  21.935   5.693 -0.0044 -0.0639 -0.2848
    1PPC    C2B63939  10.691  22.110   5.373 -0.0606  0.4753  0.1413
    1PPC    C3B63940  10.690  22.035   4.874  0.2262  0.1007  0.0809
    1PPC    C4B63941  10.615  21.961   4.569 -0.2999 -0.1509  0.0440
    1PPC    NC363942  26.311  15.211   5.797  0.0388 -0.2035  0.1527
    1PPC    PO463943  26.547  14.757   5.597 -0.2382 -0.0055 -0.0847
    1PPC    GL163944  26.201  14.905   5.420 -0.1930 -0.2033 -0.2369
    1PPC    GL263945  26.089  15.163   5.261 -0.3450  0.3335  0.3051
    1PPC    C1B63946  26.304  15.323   4.979 -0.0223  0.0710 -0.3276
    1PPC    C2B63947  26.491  15.225   4.625  0.3028 -0.0650 -0.0531
    1PPC    C3B63948  26.838  15.323   4.510 -0.0708 -0.2688  0.1467
    1PPC    C4B63949  26.949  15.504   4.100  0.3087 -0.0086  0.0227
    1PPC    NC363950  26.708  16.578   6.016 -0.0558  0.0134 -0.0622
    1PPC    PO463951  26.581  17.041   6.326  0.1740  0.1722  0.1664
    1PPC    GL163952  26.498  17.013   5.871 -0.0839 -0.2894 -0.0100
    1PPC    GL263953  26.289  16.919   5.561  0.1947 -0.0385 -0.1022
    1PPC    C1B63954  26.286  17.192   5.200 -0.4084  0.3144  0.0030
    1PPC    C2B63955  26.187  17.651   4.947  0.1498  0.2539 -0.2224
    1PPC    C3B63956  25.948  18.063   4.789  0.0352  0.0330  0.0373
    1PPC    C4B63957  25.732  18.328   4.550  0.0692 -0.2385 -0.1384
    1PPC    NC363958  14.859  23.884   7.473 -0.0471  0.0938  0.0872
    1PPC    PO463959  14.574  24.287   7.503  0.1155  0.0903  0.1246
    1PPC    GL163960  14.591  24.114   6.974  0.0600 -0.1548 -0.0995
    1PPC    GL263961  14.765  24.160   6.585  0.0869 -0.3038  0.1092
    1PPC    C1B63962  15.053  23.903   6.323  0.0245  0.0119  0.4175
    1PPC    C2B63963  15.097  23.887   5.875  0.2817  0.0612  0.1775
    1PPC    C3B63964  15.365  23.887   5.536 -0.0145  0.3336  0.0335
    1PPC    C4B63965  15.499  23.596   5.205  0.4432 -0.1812 -0.1031
    1PPC    NC363966  28.286   8.962   6.325  0.1398 -0.1382 -0.2067
    1PPC    PO463967  28.149   8.583   6.142 -0.1637  0.5948 -0.0663
    1PPC    GL163968  28.321   8.349   5.861 -0.0760  0.0090  0.0526
    1PPC    GL263969  28.596   8.317   5.601 -0.3763  0.2387 -0.2639
    1PPC    C1B63970  28.531   8.125   5.211  0.1383 -0.2930  0.0097
    1PPC    C2B63971  28.427   8.307   4.758  0.0405 -0.3643  0.2247
    1PPC    C3B63972  28.473   8.405   4.385 -0.2505  0.0030  0.0010
    1PPC    C4B63973  28.824   8.213   4.069 -0.2107 -0.1303 -0.0261
    1PPC    NC363974   5.746  16.216   7.140  0.0907 -0.1191  0.2867
    1PPC    PO463975   5.457  16.139   6.839 -0.1885 -0.0924  0.2208
    1PPC    GL163976   5.464  16.270   6.321 -0.1790  0.0933  0.1188
    1PPC    GL263977   5.519  16.193   5.953  0.0758  0.1276 -0.1033
    1PPC    C1B63978   5.500  15.860   5.667 -0.2413 -0.0480  0.3444
    1PPC    C2B63979   5.698  15.607   5.314  0.0456 -0.1906  0.0712
    1PPC    C3B63980   5.668  15.587   4.831  0.1051  0.1887 -0.2985
    1PPC    C4B63981   5.436  15.262   4.532  0.1340 -0.2130  0.0360
    1PPC    NC363982   9.403  19.751   7.274  0.1932  0.3485  0.1997
    1PPC    PO463983   9.554  19.630   6.953  0.1116 -0.1645  0.1623
    1PPC    GL163984   9.922  19.670   6.701 -0.1445 -0.2321 -0.2203
    1PPC    GL263985  10.073  19.805   6.422 -0.2131  0.0597  0.1017
    1PPC    C1B63986  10.109  19.891   5.973  0.0942 -0.1260 -0.0013
    1PPC    C2B63987   9.867  19.957   5.658 -0.1012 -0.0292  0.1602
    1PPC    C3B63988   9.519  19.745   5.602 -0.0115 -0.0190  0.1679
    1PPC    C4B63989   9.286  19.643   5.998 -0.0754 -0.0665 -0.1303
    1PPC    NC363990  24.263  20.640   6.590 -0.1518 -0.2124  0.2331
    1PPC    PO463991  23.913  20.398   6.858 -0.2181 -0.0227  0.3892
    1PPC    GL163992  23.756  20.621   6.475  0.1034 -0.0759  0.0749
    1PPC    GL263993  23.451  20.519   6.337 -0.2692 -0.1148 -0.0109
    1PPC    C1B63994  23.418  20.272   6.010  0.1594  0.0518  0.0023
    1PPC    C2B63995  23.406  20.104   5.562  0.1957  0.1504  0.3655
    1PPC    C3B63996  23.144  20.256   5.293  0.2093 -0.0390  0.2131
    1PPC    C4B63997  23.146  20.482   4.905 -0.0741 -0.2385  0.2617
    1PPC    NC363998  25.086  15.638   6.181  0.2253  0.0123 -0.1132
    1PPC    PO463999  24.756  15.901   6.245  0.2030  0.0034  0.0942
    1PPC    GL164000  24.448  15.726   5.885 -0.1208 -0.1469  0.1606
    1PPC    GL264001  24.443  15.571   5.576 -0.2940  0.4146 -0.2569
    1PPC    C1B64002  24.606  15.446   5.300 -0.2080 -0.0762 -0.1392
    1PPC    C2B64003  24.742  15.091   5.001 -0.0801 -0.0698  0.1451
    1PPC    C3B64004  24.856  14.881   4.627 -0.0826  0.0367 -0.1282
    1PPC    C4B64005  25.304  14.725   4.591  0.2388 -0.2849  0.0318
    1PPC    NC364006  21.517   5.293   7.326 -0.0143  0.0014 -0.1905
    1PPC    PO464007  21.839   5.535   7.156 -0.1465  0.1982  0.0678
    1PPC    GL164008  21.561   5.631   6.870  0.1824  0.2873  0.1517
    1PPC    GL264009  21.443   5.701   6.608  0.2639 -0.0192  0.0024
    1PPC    C1B64010  21.392   5.464   6.164  0.0427  0.0151 -0.1425
    1PPC    C2B64011  21.202   5.375   5.789 -0.1880 -0.0478  0.1358
    1PPC    C3B64012  21.231   5.188   5.389 -0.0009  0.1616 -0.1758
    1PPC    C4B64013  20.937   5.314   5.141 -0.4168 -0.3245  0.1205
    1PPC    NC364014   0.683   1.960   6.770 -0.2506 -0.0014 -0.2660
    1PPC    PO464015   0.799   2.304   6.548 -0.4834 -0.2087  0.0957
    1PPC    GL164016   0.786   2.299   6.113  0.1221 -0.1752  0.1485
    1PPC    GL264017   0.982   2.313   5.868 -0.0013  0.0376 -0.3398
    1PPC    C1B64018   1.276   2.223   5.596  0.0116  0.0088 -0.0499
    1PPC    C2B64019   1.426   2.345   5.223  0.0493 -0.0929  0.0829
    1PPC    C3B64020   1.413   2.433   4.814 -0.0355 -0.2771 -0.0586
    1PPC    C4B64021   1.263   2.776   4.550  0.1913 -0.0576 -0.1031
    1PPC    NC364022  13.813   7.245   7.861  0.2683  0.0884 -0.3729
    1PPC    PO464023  14.291   7.069   7.951 -0.2728  0.1502 -0.1388
    1PPC    GL164024  14.106   6.991   7.557 -0.2039  0.3383  0.1449
    1PPC    GL264025  13.960   6.991   7.257 -0.0047 -0.0335 -0.0128
    1PPC    C1B64026  13.619   7.186   7.131  0.0622  0.1933  0.1237
    1PPC    C2B64027  13.284   7.174   6.967  0.0380  0.1551  0.0684
    1PPC    C3B64028  13.202   7.451   6.629  0.0990 -0.0660 -0.2995
    1PPC    C4B64029  12.966   7.559   6.256 -0.1947 -0.0773  0.1107
    1PPC    NC364030  26.401  19.969   6.641 -0.1579 -0.0219  0.0452
    1PPC    PO464031  26.005  20.183   6.304  0.0657 -0.0235 -0.0417
    1PPC    GL164032  26.408  20.023   6.133  0.0881 -0.1800  0.3110
    1PPC    GL264033  26.521  19.985   5.839 -0.0906  0.1935 -0.0331
    1PPC    C1B64034  26.535  19.774   5.467 -0.0724 -0.1064 -0.2610
    1PPC    C2B64035  26.404  19.609   5.029 -0.1167 -0.0412 -0.2339
    1PPC    C3B64036  26.118  19.493   4.718 -0.3020 -0.0571  0.0239
    1PPC    C4B64037  25.947  19.391   4.266  0.0140  0.1096  0.0527
    1PPC    NC364038   7.146   4.496   7.567  0.1605  0.2522 -0.0588
    1PPC    PO464039   7.446   4.778   7.260  0.0322  0.0082  0.0074
    1PPC    GL164040   7.714   4.922   7.051 -0.1143  0.1585  0.0877
    1PPC    GL264041   7.802   4.873   6.726  0.0284  0.2652  0.1613
    1PPC    C1B64042   7.848   4.618   6.281  0.1912 -0.0164  0.0023
    1PPC    C2B64043   8.047   4.701   5.876  0.2321 -0.3618  0.2305
    1PPC    C3B64044   8.091   4.349   5.456  0.1142  0.0038  0.1347
    1PPC    C4B64045   7.852   4.068   5.172 -0.0434  0.0258 -0.0959
    1PPC    NC364046  17.553  28.095   8.056  0.0387 -0.1632  0.3056
    1PPC    PO464047  17.278  27.803   7.768 -0.0108  0.1359  0.0946
    1PPC    GL164048  17.355  27.933   7.265 -0.0062 -0.1133  0.1638
    1PPC    GL264049  17.207  27.898   6.912 -0.0929 -0.0843  0.3453
    1PPC    C1B64050  16.748  27.883   6.735  0.1079  0.1981  0.0672
    1PPC    C2B64051  16.420  28.202   6.552 -0.2447  0.2198 -0.3031
    1PPC    C3B64052  16.215  28.444   6.223  0.0809  0.1485 -0.0346
    1PPC    C4B64053  16.317  28.512   5.863  0.2558  0.1087 -0.1077
    1PPC    NC364054  27.002  27.006   7.435 -0.2058 -0.2914 -0.3488
    1PPC    PO464055  27.023  26.820   7.028 -0.1590 -0.0085 -0.0148
    1PPC    GL164056  26.883  26.640   6.621 -0.0568 -0.0723 -0.2619
    1PPC    GL264057  26.887  26.730   6.307  0.0519  0.0787  0.1222
    1PPC    C1B64058  26.850  26.840   5.865  0.1336 -0.0749 -0.1663
    1PPC    C2B64059  26.649  26.714   5.429 -0.0419 -0.0155  0.1581
    1PPC    C3B64060  26.570  26.919   5.018 -0.0680 -0.2475 -0.2152
    1PPC    C4B64061  26.410  26.805   4.606  0.0602 -0.0016 -0.0657
    1PPC    NC364062  13.934  28.311   7.665  0.0946 -0.3254  0.4043
    1PPC    PO464063  14.250  28.085   7.608  0.0438  0.2595 -0.2664
    1PPC    GL164064  14.020  28.212   7.149 -0.0652 -0.0011 -0.1005
    1PPC    GL264065  13.920  28.242   6.889  0.4310 -0.1011 -0.1061
    1PPC    C1B64066  14.048  28.158   6.501  0.3454  0.2598 -0.1381
    1PPC    C2B64067  13.930  28.265   6.065  0.5017  0.3991 -0.2546
    1PPC    C3B64068  13.691  28.312   5.648 -0.0801  0.1339  0.2732
    1PPC    C4B64069  13.272  28.393   5.393  0.1116 -0.1404 -0.0650
    1PPC    NC364070  14.287   0.238   6.835  0.0211  0.0463 -0.0031
    1PPC    PO464071  14.435   0.199   7.193  0.0705  0.2154 -0.0818
    1PPC    GL164072  14.630   0.575   6.947  0.1163  0.4932  0.0099
    1PPC    GL264073  14.872   0.696   6.685 -0.0781 -0.0695 -0.0387
    1PPC    C1B64074  14.824   0.871   6.262 -0.0358  0.0724  0.0794
    1PPC    C2B64075  14.655   1.180   5.920 -0.1443  0.1872  0.1532
    1PPC    C3B64076  14.791   1.430   5.556  0.1692  0.0952 -0.0363
    1PPC    C4B64077  14.972   1.449   5.066  0.1600 -0.1911 -0.2395
    1PPC    NC364078  21.269  12.314   8.178 -0.0442  0.3256 -0.0352
    1PPC    PO464079  21.343  12.258   7.820  0.4333  0.1082 -0.3475
    1PPC    GL164080  21.283  12.330   7.433  0.2528  0.0297  0.0732
    1PPC    GL264081  21.183  12.438   7.139 -0.0294  0.1565  0.1175
    1PPC    C1B64082  21.226  12.307   6.769  0.0431 -0.2420 -0.4482
    1PPC    C2B64083  21.305  12.398   6.295 -0.0969  0.1416 -0.0356
    1PPC    C3B64084  21.338  12.354   5.921 -0.2675  0.0967  0.0770
    1PPC    C4B64085  21.284  12.460   5.482 -0.1279  0.1711 -0.1047
    1PPC    NC364086  28.595   2.421   6.407  0.0251  0.0911 -0.1836
    1PPC    PO464087  28.619   2.838   6.360  0.1415 -0.0350  0.1509
    1PPC    GL164088  28.445   2.678   5.996  0.0296 -0.0213 -0.2598
    1PPC    GL264089  28.501   2.558   5.714  0.3954  0.1951  0.2795
    1PPC    C1B64090  28.895   2.579   5.475 -0.0253 -0.2293  0.2360
    1PPC    C2B64091  29.018   2.370   5.097  0.2686  0.1412  0.0944
    1PPC    C3B64092  28.575   2.255   4.792 -0.4183  0.4784 -0.0182
    1PPC    C4B64093  28.248   2.116   4.633  0.5729  0.0366  0.0990
    1PPC    NC364094   0.389   8.492   6.288 -0.0605  0.0983 -0.1884
    1PPC    PO464095   0.684   8.298   6.626  0.0504  0.1855  0.2759
    1PPC    GL164096   0.914   8.504   6.342  0.0096  0.1101 -0.0779
    1PPC    GL264097   0.888   8.440   6.139  0.0578 -0.2799  0.0136
    1PPC    C1B64098   0.951   8.433   5.574  0.0437  0.1930  0.2373
    1PPC    C2B64099   0.900   8.082   5.323  0.0937 -0.0800  0.1715
    1PPC    C3B64100   0.638   7.939   5.060  0.1518 -0.0185  0.1198
    1PPC    C4B64101   0.590   7.892   4.639 -0.0319 -0.1140  0.1738
    1PPC    NC364102  17.604   1.677   7.660  0.0319  0.1210  0.1027
    1PPC    PO464103  17.505   2.101   7.435  0.0484  0.1554  0.2055
    1PPC    GL164104  17.309   2.267   7.020  0.3478 -0.3345  0.2467
    1PPC    GL264105  17.252   2.322   6.624 -0.3223 -0.2967  0.0284
    1PPC    C1B64106  17.535   2.329   6.273  0.0508 -0.2046  0.1516
    1PPC    C2B64107  17.684   2.289   5.945 -0.4430 -0.2156 -0.0781
    1PPC    C3B64108  17.989   2.460   5.740  0.0166  0.0262  0.1593
    1PPC    C4B64109  18.174   2.802   5.631 -0.3320 -0.2527  0.1406
    1PPC    NC364110   8.469  17.125   6.972  0.1689 -0.0014  0.2961
    1PPC    PO464111   8.458  16.640   6.944  0.1762  0.0101  0.0979
    1PPC    GL164112   8.069  16.529   6.533  0.0792  0.3419  0.3858
    1PPC    GL264113   7.892  16.259   6.334 -0.0745  0.1182  0.3544
    1PPC    C1B64114   7.619  16.320   5.961 -0.1151  0.0184  0.1304
    1PPC    C2B64115   7.253  16.503   5.763 -0.0344  0.2084 -0.1588
    1PPC    C3B64116   6.891  16.532   5.560 -0.0692  0.0078  0.0030
    1PPC    C4B64117   6.720  16.522   5.226  0.0307  0.0609 -0.2271
    1PPC    NC364118  21.560   1.259   6.631 -0.2023  0.0305 -0.0485
    1PPC    PO464119  21.177   1.391   6.393  0.1530  0.0341 -0.2417
    1PPC    GL164120  21.319   1.499   6.087  0.0939  0.2710 -0.0541
    1PPC    GL264121  21.379   1.584   5.844 -0.2197 -0.0720 -0.1255
    1PPC    C1B64122  21.363   1.949   5.521  0.1186 -0.1688 -0.3731
    1PPC    C2B64123  21.424   2.332   5.209  0.0472 -0.0051 -0.0592
    1PPC    C3B64124  21.393   2.752   5.288  0.2008  0.1256  0.0565
    1PPC    C4B64125  21.207   3.173   5.114 -0.0466  0.3490  0.0813
    1PPC    NC364126  28.479   8.477   6.985  0.0487  0.2838  0.1941
    1PPC    PO464127  28.508   8.385   6.537  0.1583 -0.3629 -0.0047
    1PPC    GL164128  28.513   8.135   6.293  0.3704 -0.0970 -0.0646
    1PPC    GL264129  28.759   8.175   6.020 -0.4128  0.0826 -0.0239
    1PPC    C1B64130  28.814   7.830   5.714  0.0378 -0.0988 -0.0441
    1PPC    C2B64131  28.954   7.896   5.342  0.0761  0.1172 -0.0454
    1PPC    C3B64132  28.870   8.035   4.826  0.0246  0.2198  0.1447
    1PPC    C4B64133  29.033   8.301   4.505 -0.2023 -0.0300 -0.1255
    1PPC    NC364134   4.642  19.233   5.904 -0.0246  0.2273 -0.1324
    1PPC    PO464135   4.684  18.847   6.016  0.0068  0.0390 -0.1802
    1PPC    GL164136   4.699  18.800   5.537 -0.1221 -0.0446 -0.2748
    1PPC    GL264137   4.617  18.778   5.242  0.0019 -0.1715 -0.0085
    1PPC    C1B64138   4.898  18.759   4.777  0.2222 -0.2638  0.2001
    1PPC    C2B64139   4.809  18.769   4.357 -0.1773 -0.0989  0.1590
    1PPC    C3B64140   5.001  18.664   4.033  0.0012 -0.6030 -0.1209
    1PPC    C4B64141   5.353  18.971   3.908 -0.0776 -0.2545  0.0388
    1PPC    NC364142   9.089   7.641   8.188 -0.0652 -0.0610  0.2017
    1PPC    PO464143   9.505   7.663   7.878  0.0100 -0.2689  0.1494
    1PPC    GL164144   9.538   7.518   7.478 -0.2883 -0.0967  0.0668
    1PPC    GL264145   9.689   7.424   7.112  0.4133 -0.1672  0.1130
    1PPC    C1B64146   9.819   7.385   6.706 -0.0412 -0.2061  0.2523
    1PPC    C2B64147   9.749   7.440   6.314 -0.2176 -0.2440 -0.1207
    1PPC    C3B64148   9.269   7.322   6.107  0.1921  0.0778  0.1896
    1PPC    C4B64149   8.920   7.366   6.132  0.2844 -0.2730 -0.0925
    1PPC    NC364150  21.798  25.868   6.484  0.0174  0.0859 -0.0322
    1PPC    PO464151  22.103  26.257   6.501 -0.0307  0.0428  0.1812
    1PPC    GL164152  22.536  26.305   6.307  0.0106  0.0988  0.0741
    1PPC    GL264153  22.907  26.344   6.280 -0.1020  0.0662 -0.0182
    1PPC    C1B64154  23.161  26.405   5.858 -0.2028 -0.3422 -0.1128
    1PPC    C2B64155  23.323  26.057   5.497 -0.1681 -0.1290 -0.0221
    1PPC    C3B64156  23.547  25.853   5.162  0.0437  0.0935 -0.1859
    1PPC    C4B64157  23.809  25.397   5.000  0.0362 -0.3084 -0.1602
    1PPC    NC364158  20.151   5.161   7.679  0.1562 -0.1610  0.0175
    1PPC    PO464159  20.583   5.191   7.512  0.1167  0.0041  0.0013
    1PPC    GL164160  20.208   5.006   7.161  0.0497 -0.1063 -0.0604
    1PPC    GL264161  20.053   5.134   6.878 -0.1980 -0.1332 -0.1120
    1PPC    C1B64162  19.912   5.310   6.457  0.0409 -0.2200 -0.1316
    1PPC    C2B64163  19.927   5.668   6.072 -0.3737  0.1732 -0.0449
    1PPC    C3B64164  19.896   6.096   5.793  0.0014  0.3092  0.0363
    1PPC    C4B64165  19.566   6.351   5.520  0.0390 -0.0707  0.0475
    1PPC    NC364166  23.508  25.309   6.813 -0.1855 -0.1246  0.1776
    1PPC    PO464167  23.873  25.283   6.713  0.1430  0.0989 -0.3855
    1PPC    GL164168  23.738  25.331   6.304  0.2076  0.2071  0.1984
    1PPC    GL264169  23.825  25.303   6.074  0.0986  0.0716  0.1759
    1PPC    C1B64170  24.012  25.188   5.718 -0.0211 -0.5641 -0.3987
    1PPC    C2B64171  23.956  24.903   5.324  0.0913  0.0060  0.0335
    1PPC    C3B64172  23.718  24.673   5.185  0.0085 -0.0375  0.4235
    1PPC    C4B64173  23.596  24.175   5.023  0.2303  0.0865  0.0920
    1PPC    NC364174   6.782  26.227   6.963 -0.1082 -0.0289 -0.0083
    1PPC    PO464175   6.822  26.764   6.850 -0.3902  0.1090 -0.0799
    1PPC    GL164176   6.966  26.579   6.530 -0.5127 -0.0099  0.0812
    1PPC    GL264177   7.018  26.572   6.208  0.2777  0.1360  0.0052
    1PPC    C1B64178   7.249  26.658   5.822 -0.0621  0.1470  0.2884
    1PPC    C2B64179   7.349  26.573   5.469 -0.1695  0.1540  0.0008
    1PPC    C3B64180   7.519  26.140   5.412 -0.0528  0.1157 -0.1300
    1PPC    C4B64181   7.369  25.915   5.720  0.1471 -0.0209  0.2975
    1PPC    NC364182  16.074  23.810   8.227  0.0597  0.2092 -0.3709
    1PPC    PO464183  16.145  23.987   7.805  0.1779  0.1237  0.0839
    1PPC    GL164184  16.340  23.889   7.434 -0.1894 -0.0952 -0.0967
    1PPC    GL264185  16.500  23.990   7.231  0.0536 -0.1417 -0.1019
    1PPC    C1B64186  16.602  23.903   6.802 -0.0189  0.0889  0.3533
    1PPC    C2B64187  16.808  23.979   6.395 -0.0052 -0.1717 -0.1705
    1PPC    C3B64188  16.817  23.870   6.002  0.1211  0.3174  0.1504
    1PPC    C4B64189  17.077  23.902   5.609 -0.2982  0.0916  0.2264
    1PPC    NC364190  26.735  19.080   6.525 -0.2573 -0.0936  0.2662
    1PPC    PO464191  27.043  19.384   6.409  0.1167  0.0620  0.0795
    1PPC    GL164192  27.008  19.687   6.084 -0.0765  0.0971 -0.0239
    1PPC    GL264193  26.870  19.674   5.782 -0.0912 -0.1991 -0.2726
    1PPC    C1B64194  26.924  19.448   5.264 -0.0545 -0.0748 -0.0991
    1PPC    C2B64195  26.735  19.314   4.801  0.2239  0.0611  0.1135
    1PPC    C3B64196  26.811  19.157   4.496  0.0940  0.0377  0.1983
    1PPC    C4B64197  27.153  18.857   4.662 -0.0031 -0.0661 -0.1581
    1PPC    NC364198  24.283  26.290   6.625  0.1888 -0.0748  0.0603
    1PPC    PO464199  24.089  26.099   6.271  0.1019 -0.0092  0.0151
    1PPC    GL164200  24.377  25.928   5.881 -0.0906 -0.1968 -0.3626
    1PPC    GL264201  24.517  25.883   5.603 -0.0252  0.2247  0.1220
    1PPC    C1B64202  24.600  26.075   5.232  0.2076 -0.0574 -0.0063
    1PPC    C2B64203  24.746  26.430   5.074 -0.1363 -0.1746  0.0137
    1PPC    C3B64204  25.080  26.582   4.819 -0.3185 -0.0579  0.5214
    1PPC    C4B64205  25.187  26.743   4.324 -0.3531  0.3950  0.2246
    1PPC    NC364206  17.464   6.288   7.878 -0.1169 -0.1531  0.0603
    1PPC    PO464207  17.574   6.500   7.502 -0.1973 -0.2102 -0.2170
    1PPC    GL164208  17.439   6.264   7.095  0.1749  0.0561 -0.1764
    1PPC    GL264209  17.233   6.166   6.762 -0.1850 -0.1861  0.2535
    1PPC    C1B64210  16.987   5.987   6.446  0.0121 -0.0336  0.2299
    1PPC    C2B64211  16.755   5.963   5.984 -0.2616 -0.2252 -0.2363
    1PPC    C3B64212  16.331   5.830   6.052  0.2993 -0.1386  0.1703
    1PPC    C4B64213  16.082   5.524   6.026  0.0757 -0.1568  0.0480
    1PPC    NC364214   3.353   9.487   7.097 -0.3162 -0.4137 -0.3049
    1PPC    PO464215   3.067   9.174   6.870 -0.0469 -0.0191  0.0226
    1PPC    GL164216   2.813   9.359   6.490 -0.0585  0.2557  0.1629
    1PPC    GL264217   2.678   9.644   6.257 -0.1282  0.0897  0.1403
    1PPC    C1B64218   2.501   9.797   5.921 -0.2708 -0.0188 -0.1414
    1PPC    C2B64219   2.527   9.953   5.453  0.0050  0.0664  0.0709
    1PPC    C3B64220   2.553   9.830   4.995 -0.2863  0.0768 -0.0900
    1PPC    C4B64221   2.294   9.663   4.634  0.1141 -0.1566  0.1741
    1PPC    NC364222  19.092   4.281   6.915 -0.1894 -0.3246  0.3601
    1PPC    PO464223  18.691   4.442   7.198  0.2612 -0.0766 -0.0428
    1PPC    GL164224  18.604   4.557   6.838 -0.2100 -0.1161  0.2439
    1PPC    GL264225  18.654   4.860   6.738  0.0617  0.1009 -0.0037
    1PPC    C1B64226  18.536   5.062   6.463  0.3317 -0.2583 -0.2548
    1PPC    C2B64227  18.400   5.289   6.123 -0.1687  0.0141 -0.1293
    1PPC    C3B64228  18.255   5.550   5.684 -0.2633 -0.3872 -0.3221
    1PPC    C4B64229  18.453   5.543   5.297 -0.2122  0.1709 -0.2328
    1PPC    NC364230   3.162  27.640   7.410 -0.0601  0.1244 -0.2690
    1PPC    PO464231   2.933  27.819   6.946  0.0913 -0.1120  0.1664
    1PPC    GL164232   2.688  27.926   6.429  0.1750 -0.0028  0.0373
    1PPC    GL264233   2.773  28.184   6.185 -0.0036  0.1503  0.2985
    1PPC    C1B64234   2.980  28.241   5.770  0.0885  0.1774  0.1631
    1PPC    C2B64235   3.373  28.413   5.666  0.2764 -0.2863 -0.1584
    1PPC    C3B64236   3.553  28.434   5.265 -0.2603  0.2148 -0.1292
    1PPC    C4B64237   4.074  28.458   5.170 -0.1340  0.0824  0.1549
    1PPC    NC364238   3.835  13.574   6.773  0.4279 -0.0059 -0.0444
    1PPC    PO464239   3.563  13.315   6.641 -0.0729 -0.1278  0.5309
    1PPC    GL164240   3.867  13.211   6.258 -0.0561  0.0650 -0.4167
    1PPC    GL264241   4.032  13.194   6.109 -0.2664  0.1827  0.0281
    1PPC    C1B64242   3.949  13.002   5.651 -0.0739  0.2708 -0.1058
    1PPC    C2B64243   3.935  12.993   5.266 -0.5751 -0.0981  0.0310
    1PPC    C3B64244   3.568  12.819   5.069  0.2156  0.2378  0.0012
    1PPC    C4B64245   3.412  12.593   4.731 -0.2724 -0.3992  0.0505
    1PPC    NC364246   4.638   2.594   7.025 -0.1455 -0.0199  0.1324
    1PPC    PO464247   5.018   2.407   7.021  0.1633  0.1431 -0.0087
    1PPC    GL164248   5.266   2.433   6.672 -0.2288  0.1125 -0.2227
    1PPC    GL264249   5.226   2.438   6.336 -0.1621  0.3106  0.0384
    1PPC    C1B64250   5.304   2.374   5.962  0.2775  0.1159 -0.2241
    1PPC    C2B64251   5.175   2.347   5.528  0.0415  0.1973  0.3848
    1PPC    C3B64252   5.187   2.018   5.197  0.0140 -0.1138 -0.0191
    1PPC    C4B64253   5.300   1.629   5.008 -0.1790  0.0098 -0.1285
    1PPC    NC364254  25.490   9.730   5.953 -0.1352 -0.0694  0.3551
    1PPC    PO464255  25.614  10.092   5.946  0.0291 -0.0877  0.1069
    1PPC    GL164256  25.316  10.083   5.697  0.1753  0.1154 -0.2602
    1PPC    GL264257  25.245   9.902   5.456 -0.3451 -0.3239  0.2308
    1PPC    C1B64258  25.313   9.857   4.982 -0.2408  0.1663 -0.0787
    1PPC    C2B64259  25.287   9.652   4.639 -0.2181 -0.1070  0.1371
    1PPC    C3B64260  24.782   9.697   4.503  0.1577 -0.3853 -0.0228
    1PPC    C4B64261  24.411   9.731   4.258 -0.0857 -0.3121 -0.0995
    1PPC    NC364262  25.014  25.478   5.946  0.2983  0.0361 -0.0149
    1PPC    PO464263  24.872  25.867   5.996 -0.2027 -0.0803 -0.2874
    1PPC    GL164264  25.011  26.186   5.653  0.1623 -0.2091  0.0717
    1PPC    GL264265  25.116  26.372   5.476 -0.0686 -0.1949  0.1657
    1PPC    C1B64266  25.385  26.502   5.219  0.1418  0.1923 -0.0297
    1PPC    C2B64267  25.492  26.904   5.125  0.2475  0.3496  0.0193
    1PPC    C3B64268  25.682  27.180   5.215 -0.5218 -0.1575 -0.1880
    1PPC    C4B64269  25.647  27.527   4.920 -0.0028  0.1452 -0.1319
    1PPC    NC364270  19.895  28.564   7.125  0.1187  0.0653 -0.1492
    1PPC    PO464271  19.886  28.982   6.852  0.1047  0.1424  0.0403
    1PPC    GL164272  19.796  28.647   6.490  0.2128 -0.0287 -0.1794
    1PPC    GL264273  19.975  28.616   6.370 -0.1073  0.1277  0.1851
    1PPC    C1B64274  20.199  28.424   5.999 -0.3573  0.2725  0.1948
    1PPC    C2B64275  20.397  27.973   5.855 -0.0694 -0.0681  0.0644
    1PPC    C3B64276  20.535  27.837   5.397  0.1653 -0.0132  0.0904
    1PPC    C4B64277  20.812  27.866   4.950 -0.1945  0.0309 -0.0067
    1PPC    NC364278  13.518   3.534   7.962 -0.1139 -0.3158 -0.1819
    1PPC    PO464279  13.847   3.383   7.638  0.2281 -0.0657  0.0579
    1PPC    GL164280  13.646   3.187   7.211 -0.0828  0.0008 -0.0589
    1PPC    GL264281  13.651   3.159   6.929  0.1587 -0.1226  0.3315
    1PPC    C1B64282  13.387   3.166   6.612 -0.0903 -0.1819 -0.0268
    1PPC    C2B64283  13.352   3.376   6.196  0.0233 -0.3484 -0.1966
    1PPC    C3B64284  13.122   3.500   5.714  0.0065  0.3619  0.2996
    1PPC    C4B64285  13.066   3.524   5.297  0.1931  0.2991 -0.1442
    1PPC    NC364286  13.635   6.572   8.331 -0.4282  0.1734 -0.1223
    1PPC    PO464287  14.153   6.580   8.244 -0.1018  0.2453  0.1609
    1PPC    GL164288  13.839   6.715   7.858  0.1736  0.1672  0.1082
    1PPC    GL264289  13.688   6.653   7.486  0.3966  0.2312  0.3405
    1PPC    C1B64290  13.535   6.673   7.098  0.4050 -0.0000  0.1435
    1PPC    C2B64291  13.496   6.325   6.704 -0.1446  0.1130  0.1675
    1PPC    C3B64292  13.354   6.104   6.263  0.0236 -0.0159 -0.2139
    1PPC    C4B64293  13.428   6.089   5.863 -0.1430  0.1734 -0.0694
    1PPC    NC364294  27.435   5.022   6.487  0.0040 -0.2176 -0.0226
    1PPC    PO464295  27.511   5.469   6.225  0.1526 -0.0087  0.1671
    1PPC    GL164296  27.868   5.546   6.122  0.1218 -0.0732 -0.2342
    1PPC    GL264297  27.970   5.760   5.866 -0.1871 -0.1735 -0.1154
    1PPC    C1B64298  27.803   5.838   5.453  0.0476  0.1950 -0.0853
    1PPC    C2B64299  27.534   5.763   5.129 -0.0811  0.1324  0.5045
    1PPC    C3B64300  27.224   5.787   4.733 -0.1811  0.3463  0.1072
    1PPC    C4B64301  27.124   6.072   4.496  0.0801 -0.1957  0.1444
    1PPC    NC364302   1.388   5.182   6.382  0.0937  0.1971  0.0820
    1PPC    PO464303   1.004   5.414   6.326 -0.1182  0.1243  0.0376
    1PPC    GL164304   1.255   5.563   6.030 -0.1973  0.2357 -0.1354
    1PPC    GL264305   1.416   5.752   5.782  0.0202 -0.0027 -0.0847
    1PPC    C1B64306   1.704   5.860   5.373 -0.0118  0.0001 -0.1812
    1PPC    C2B64307   2.005   5.870   5.021  0.1003 -0.0424 -0.3281
    1PPC    C3B64308   2.207   5.650   4.627 -0.0301 -0.1537 -0.0397
    1PPC    C4B64309   2.409   5.724   4.272 -0.3924  0.1259 -0.0363
    1PPC    NC364310  24.437   4.860   6.579  0.1328 -0.0337 -0.0924
    1PPC    PO464311  24.242   4.481   6.867 -0.1252 -0.4293  0.1201
    1PPC    GL164312  24.100   4.553   6.373 -0.0820  0.1342  0.4500
    1PPC    GL264313  24.088   4.435   6.041  0.1670 -0.0360 -0.1676
    1PPC    C1B64314  24.108   4.154   5.650 -0.0815 -0.0854  0.0121
    1PPC    C2B64315  24.013   4.324   5.190 -0.0961  0.6510 -0.3790
    1PPC    C3B64316  24.074   4.332   4.810  0.2054  0.0367 -0.1079
    1PPC    C4B64317  24.159   4.198   4.401 -0.2130 -0.0863  0.1042
    1PPC    NC364318  15.527   0.104   7.863 -0.0415 -0.3346  0.0175
    1PPC    PO464319  15.839   0.112   7.625  0.1253 -0.0242  0.0236
    1PPC    GL164320  15.969   0.248   7.321  0.0695 -0.2814 -0.0160
    1PPC    GL264321  15.843   0.510   7.175  0.0217  0.2986 -0.1596
    1PPC    C1B64322  15.872   0.424   6.786  0.1338  0.0278  0.0828
    1PPC    C2B64323  16.152   0.414   6.449  0.1695  0.2898 -0.1505
    1PPC    C3B64324  16.546   0.332   6.191 -0.2499 -0.1511 -0.4840
    1PPC    C4B64325  16.516   0.553   5.864 -0.0649  0.2703  0.2161
    1PPC    NC364326  23.576  20.134   7.278  0.1598  0.0050  0.2032
    1PPC    PO464327  23.377  19.700   7.150  0.1968 -0.0683  0.0684
    1PPC    GL164328  23.537  19.916   6.794  0.0795  0.0788  0.0428
    1PPC    GL264329  23.519  20.086   6.482  0.0310  0.4796 -0.2403
    1PPC    C1B64330  23.802  19.883   6.094 -0.1242  0.0719 -0.3152
    1PPC    C2B64331  23.848  19.950   5.642 -0.1579 -0.0230 -0.0335
    1PPC    C3B64332  23.658  19.741   5.262  0.1181 -0.0240 -0.0419
    1PPC    C4B64333  23.404  19.899   4.941  0.2042  0.2486 -0.0327
    1PPC    NC364334   1.697   9.076   6.635  0.1802  0.0213  0.2960
    1PPC    PO464335   1.357   8.864   6.914 -0.0050 -0.1121  0.2661
    1PPC    GL164336   1.235   8.878   6.339  0.1518 -0.1873 -0.2086
    1PPC    GL264337   1.055   8.950   6.140  0.1618 -0.1815 -0.3068
    1PPC    C1B64338   1.000   9.139   5.733  0.1229  0.1407 -0.4050
    1PPC    C2B64339   0.949   9.273   5.304  0.1892 -0.2592 -0.2789
    1PPC    C3B64340   0.897   9.191   4.851  0.2172 -0.1717  0.1132
    1PPC    C4B64341   1.205   9.036   4.468 -0.1281  0.1133 -0.0861
    1PPC    NC364342  22.684   6.593   7.073 -0.0585  0.3974  0.1703
    1PPC    PO464343  22.563   6.770   6.690  0.0219  0.0294  0.2124
    1PPC    GL164344  22.786   6.822   6.304 -0.0287 -0.2138  0.2681
    1PPC    GL264345  22.776   6.700   6.056 -0.2637 -0.2638  0.2838
    1PPC    C1B64346  22.560   6.527   5.670  0.1314 -0.0205  0.0443
    1PPC    C2B64347  22.241   6.379   5.456  0.0872 -0.0417  0.0025
    1PPC    C3B64348  21.998   6.128   5.183 -0.1195 -0.3825  0.3521
    1PPC    C4B64349  21.741   6.006   4.837 -0.2299 -0.0722 -0.0114
    1PPC    NC364350  27.146  22.176   6.737  0.1251 -0.1886 -0.0805
    1PPC    PO464351  27.175  22.674   6.598  0.0915 -0.1446 -0.0659
    1PPC    GL164352  27.351  22.422   6.386  0.0349 -0.0921  0.3635
    1PPC    GL264353  27.593  22.434   6.232  0.0945  0.0338 -0.0613
    1PPC    C1B64354  27.750  22.464   5.810  0.0952  0.1038  0.0952
    1PPC    C2B64355  28.040  22.283   5.493 -0.2398  0.1970 -0.0331
    1PPC    C3B64356  28.341  22.292   5.203  0.1360 -0.2707 -0.1587
    1PPC    C4B64357  28.427  22.348   4.720  0.0091  0.0251 -0.1548
    1PPC    NC364358   0.290   6.913   6.453 -0.0491 -0.3487 -0.5587
    1PPC    PO464359   0.374   6.466   6.640  0.2795  0.0786 -0.0308
    1PPC    GL164360   0.216   6.438   6.167 -0.3294  0.2010  0.1147
    1PPC    GL264361   0.251   6.647   5.972 -0.0116 -0.0797  0.1416
    1PPC    C1B64362   0.009   7.038   5.654 -0.0124  0.2619  0.1209
    1PPC    C2B64363   0.234   7.354   5.510  0.0786 -0.0667 -0.0177
    1PPC    C3B64364   0.431   7.486   5.080  0.0643  0.0717  0.0208
    1PPC    C4B64365   0.531   7.432   4.599 -0.0128  0.0581  0.2145
    1PPC    NC364366  16.008   1.928   7.282 -0.3208  0.1578  0.3131
    1PPC    PO464367  15.891   2.296   7.186 -0.0473  0.1073 -0.0911
    1PPC    GL164368  15.548   2.446   6.960  0.2586 -0.1192 -0.3413
    1PPC    GL264369  15.448   2.496   6.581  0.2137  0.0672 -0.2020
    1PPC    C1B64370  15.486   2.605   6.093  0.4379  0.1975  0.5047
    1PPC    C2B64371  15.662   2.413   5.828 -0.1711 -0.0856  0.3133
    1PPC    C3B64372  16.022   2.376   5.703  0.0325 -0.1480 -0.2123
    1PPC    C4B64373  16.266   2.274   5.414 -0.0873  0.2826  0.0605
    1PPC    NC364374   9.330  27.899   7.813 -0.1434  0.3181 -0.2685
    1PPC    PO464375   9.355  28.240   7.568  0.1776 -0.1966 -0.0855
    1PPC    GL164376   9.280  28.193   7.128  0.0735  0.0004 -0.0244
    1PPC    GL264377   9.270  28.040   6.788  0.2149  0.1959  0.0817
    1PPC    C1B64378   9.110  27.857   6.404  0.0037  0.1032  0.2003
    1PPC    C2B64379   9.169  27.817   5.889 -0.2577 -0.1167 -0.1075
    1PPC    C3B64380   9.268  28.092   5.481  0.2875 -0.2108  0.0130
    1PPC    C4B64381   9.621  28.069   5.268 -0.1904  0.0068 -0.1744
    1PPC    NC364382   9.432   4.092   7.522  0.1307  0.0312  0.2862
    1PPC    PO464383   9.191   4.385   7.504  0.1426  0.1189 -0.1997
    1PPC    GL164384   9.384   4.433   7.107  0.1336  0.1130 -0.1427
    1PPC    GL264385   9.356   4.464   6.753 -0.0101 -0.1255 -0.1699
    1PPC    C1B64386   9.255   4.270   6.302  0.0636 -0.2875 -0.4537
    1PPC    C2B64387   9.308   3.868   6.188 -0.0182 -0.2048 -0.2380
    1PPC    C3B64388   9.418   3.453   6.338 -0.0478 -0.0139  0.0412
    1PPC    C4B64389   9.398   3.354   6.667  0.2518 -0.2432  0.1021
    1PPC    NC364390  18.205   0.871   7.227  0.0687  0.2383 -0.1192
    1PPC    PO464391  18.114   1.365   7.514  0.1325  0.2227 -0.0634
    1PPC    GL164392  18.101   1.315   7.168 -0.0344 -0.3579  0.0313
    1PPC    GL264393  17.942   1.185   6.948  0.0775  0.0353  0.1518
    1PPC    C1B64394  17.569   1.011   6.663 -0.0710  0.0740 -0.0714
    1PPC    C2B64395  17.385   0.969   6.200  0.0812  0.0954 -0.1585
    1PPC    C3B64396  17.156   1.213   5.933  0.6790  0.0855  0.0533
    1PPC    C4B64397  16.995   1.459   5.542  0.0225  0.0557 -0.2856
    1PPC    NC364398  27.377  25.360   6.918 -0.3185 -0.0515 -0.1695
    1PPC    PO464399  27.615  25.174   6.572 -0.4753  0.0426  0.2119
    1PPC    GL164400  27.607  25.533   6.444  0.0871  0.1722 -0.1277
    1PPC    GL264401  27.645  25.778   6.198  0.2816  0.3169  0.1032
    1PPC    C1B64402  27.671  26.260   6.063  0.1071  0.0972 -0.1716
    1PPC    C2B64403  28.000  26.495   5.994  0.0728  0.5805 -0.3651
    1PPC    C3B64404  28.376  26.731   5.905  0.1221 -0.1272 -0.0379
    1PPC    C4B64405  28.378  27.141   5.707  0.0285 -0.0027  0.2011
    1PPC    NC364406  28.128   2.561   6.386 -0.0485  0.0197 -0.0226
    1PPC    PO464407  27.822   2.647   6.294 -0.2710  0.0257  0.2256
    1PPC    GL164408  27.969   2.680   5.853 -0.0043 -0.2130  0.0755
    1PPC    GL264409  28.015   2.719   5.581  0.0378 -0.4198 -0.0923
    1PPC    C1B64410  28.061   2.866   5.277 -0.0796  0.3337  0.3054
    1PPC    C2B64411  28.226   3.128   5.057  0.2143  0.1294  0.0576
    1PPC    C3B64412  28.709   3.148   4.983  0.0316  0.2455 -0.1955
    1PPC    C4B64413  29.052   3.377   4.875 -0.2298  0.1035  0.0902
    1PPC    NC364414  27.122  24.678   6.390 -0.1492  0.2676 -0.0222
    1PPC    PO464415  26.913  24.441   6.729 -0.0165  0.2552  0.2244
    1PPC    GL164416  26.746  24.266   6.318  0.0702 -0.2732  0.1472
    1PPC    GL264417  26.545  24.319   6.056 -0.2150  0.0925 -0.1606
    1PPC    C1B64418  26.427  24.006   5.775  0.0289 -0.1215 -0.0801
    1PPC    C2B64419  26.431  23.677   5.445  0.1074 -0.1262 -0.1030
    1PPC    C3B64420  26.363  23.291   5.255  0.0584 -0.2109 -0.0019
    1PPC    C4B64421  26.412  23.033   4.865  0.0686 -0.1609 -0.0591
    1PPC    NC364422  24.558  25.667   7.039 -0.1212 -0.0455  0.1173
    1PPC    PO464423  24.464  25.382   6.679 -0.0328 -0.1109  0.0376
    1PPC    GL164424  24.260  25.055   6.339 -0.0705 -0.0653 -0.3999
    1PPC    GL264425  24.230  24.838   6.035  0.1142 -0.2561  0.0274
    1PPC    C1B64426  24.061  24.593   5.671  0.2980 -0.1447  0.0262
    1PPC    C2B64427  24.133  24.376   5.309 -0.0613 -0.1439  0.1902
    1PPC    C3B64428  24.031  24.381   4.881  0.3040  0.0733  0.2575
    1PPC    C4B64429  24.131  24.355   4.405 -0.1451 -0.1663  0.0472
    1PPC    NC364430   1.992  12.735   6.107  0.1018  0.2319  0.0847
    1PPC    PO464431   1.626  12.536   6.075  0.5564 -0.3253  0.0635
    1PPC    GL164432   1.481  12.372   5.621 -0.1559  0.1001 -0.0360
    1PPC    GL264433   1.530  12.027   5.411  0.0294 -0.1281 -0.1070
    1PPC    C1B64434   1.651  11.695   5.337  0.4886  0.0121 -0.1929
    1PPC    C2B64435   1.556  11.417   4.965 -0.0819  0.2710  0.1282
    1PPC    C3B64436   1.412  11.251   4.626 -0.1415  0.0716  0.1479
    1PPC    C4B64437   1.197  11.189   4.280 -0.2649  0.2823 -0.1147
    1PPC    NC364438  25.764  14.066   5.681  0.0966  0.0621 -0.3179
    1PPC    PO464439  25.992  14.475   5.645 -0.0872  0.2350 -0.0008
    1PPC    GL164440  25.841  14.274   5.191 -0.3631 -0.3730  0.0083
    1PPC    GL264441  25.842  14.171   4.887 -0.1548 -0.1660  0.0472
    1PPC    C1B64442  25.793  13.917   4.476  0.0005  0.4731 -0.1602
    1PPC    C2B64443  25.434  13.866   4.199  0.2654  0.0997  0.0607
    1PPC    C3B64444  25.120  13.674   4.012 -0.1025 -0.4065  0.4377
    1PPC    C4B64445  24.694  13.650   3.871 -0.1640 -0.0733  0.1498
    1PPC    NC364446   3.438  26.884   6.829 -0.0634 -0.0608  0.0630
    1PPC    PO464447   3.681  26.938   6.487 -0.3138 -0.2223 -0.0176
    1PPC    GL164448   3.376  27.194   6.162  0.1546  0.2165  0.1400
    1PPC    GL264449   3.112  27.168   5.863  0.2867  0.0336 -0.1934
    1PPC    C1B64450   3.150  27.058   5.422  0.0781  0.0369  0.2790
    1PPC    C2B64451   3.496  26.936   5.273 -0.1658  0.0360 -0.2896
    1PPC    C3B64452   3.518  26.634   5.091 -0.0714  0.0110  0.2709
    1PPC    C4B64453   3.680  26.667   4.730  0.1880  0.0381  0.2229
    1PPC    NC364454   3.949  24.711   6.041  0.3175 -0.2182  0.3776
    1PPC    PO464455   3.746  24.329   6.077  0.1377 -0.1098  0.2472
    1PPC    GL164456   3.634  24.465   5.826  0.2383 -0.1909  0.3549
    1PPC    GL264457   3.321  24.515   5.582  0.1076 -0.5127 -0.0557
    1PPC    C1B64458   3.215  24.344   5.231  0.1332  0.0774  0.0274
    1PPC    C2B64459   3.286  24.056   4.874 -0.0933 -0.1763  0.4188
    1PPC    C3B64460   2.943  23.773   4.767  0.2353  0.3581  0.2923
    1PPC    C4B64461   2.676  23.344   4.898 -0.0729  0.2236  0.2372
    1PPC    NC364462  21.048  27.122   6.507 -0.1759  0.2574  0.0595
    1PPC    PO464463  21.515  27.089   6.726  0.3251  0.2787  0.0415
    1PPC    GL164464  21.468  26.980   6.211  0.2492  0.3802  0.0658
    1PPC    GL264465  21.528  26.969   5.899  0.0780 -0.0287  0.2116
    1PPC    C1B64466  21.633  27.001   5.469 -0.4200  0.1452 -0.3023
    1PPC    C2B64467  21.682  27.193   5.102 -0.0483 -0.0220  0.1247
    1PPC    C3B64468  21.596  27.630   4.894  0.2181  0.2723 -0.0418
    1PPC    C4B64469  21.790  27.979   4.820 -0.0115 -0.2125  0.2998
    1PPC    NC364470  25.765  18.944   6.850 -0.0722 -0.3329 -0.2734
    1PPC    PO464471  26.070  18.839   6.523  0.2418  0.0145 -0.4010
    1PPC    GL164472  25.781  18.885   6.171  0.1244  0.2120  0.2256
    1PPC    GL264473  25.578  19.101   6.014 -0.1587 -0.1106  0.0117
    1PPC    C1B64474  25.427  19.037   5.561 -0.0352  0.1173 -0.0100
    1PPC    C2B64475  25.440  18.613   5.441  0.3130  0.0482 -0.2686
    1PPC    C3B64476  25.672  18.381   5.162 -0.0147  0.0254  0.0610
    1PPC    C4B64477  26.047  18.528   4.864  0.1213 -0.2833  0.0861
    1PPC    NC364478  26.369  28.315   7.192  0.0749  0.2878  0.0551
    1PPC    PO464479  26.720  28.196   7.033  0.2594 -0.1289  0.2979
    1PPC    GL164480  26.426  28.151   6.713  0.2162 -0.1349 -0.0140
    1PPC    GL264481  26.213  28.031   6.464  0.3838 -0.3230  0.1025
    1PPC    C1B64482  25.925  28.308   6.258 -0.2566  0.1648  0.0413
    1PPC    C2B64483  25.553  28.447   6.048 -0.2217 -0.0790  0.0814
    1PPC    C3B64484  25.497  28.550   5.561 -0.2733 -0.0345 -0.2271
    1PPC    C4B64485  25.143  28.537   5.296  0.0434  0.2120  0.4672
    1PPC    NC364486  16.716  26.040   7.048  0.2488 -0.1929 -0.2991
    1PPC    PO464487  16.349  25.942   7.214 -0.2126 -0.2420  0.0230
    1PPC    GL164488  16.289  25.762   6.735  0.1991 -0.2309 -0.1264
    1PPC    GL264489  16.097  25.715   6.482 -0.1292  0.2096  0.0390
    1PPC    C1B64490  16.030  25.519   6.082  0.0325 -0.2010  0.2175
    1PPC    C2B64491  15.638  25.705   5.897  0.2940  0.1156  0.2038
    1PPC    C3B64492  15.387  26.003   5.677  0.1542  0.0324 -0.0164
    1PPC    C4B64493  15.278  26.253   6.044 -0.1126  0.0043  0.1230
    1PPC    NC364494  24.097  28.436   6.667 -0.0342 -0.2227 -0.1264
    1PPC    PO464495  24.320  28.764   6.850 -0.1259  0.0844  0.0765
    1PPC    GL164496  24.288  29.089   6.569 -0.0465  0.1538 -0.0607
    1PPC    GL264497  24.329  29.258   6.264  0.2069  0.2270  0.1486
    1PPC    C1B64498  24.695  29.134   6.006  0.4213 -0.0924 -0.2950
    1PPC    C2B64499  24.832  28.918   5.591 -0.1329 -0.2423  0.0637
    1PPC    C3B64500  24.574  28.710   5.248  0.2628 -0.3687 -0.2109
    1PPC    C4B64501  24.407  28.880   4.881  0.1951 -0.0746  0.0296
    1PPC    NC364502   3.664  21.363   5.601 -0.2019  0.2454 -0.2297
    1PPC    PO464503   3.605  21.015   5.842 -0.2582  0.0115 -0.0641
    1PPC    GL164504   3.506  20.914   5.483  0.2619  0.2497  0.1987
    1PPC    GL264505   3.563  20.623   5.430  0.1948  0.2155 -0.0400
    1PPC    C1B64506   3.732  20.724   5.077  0.1481  0.0071  0.2491
    1PPC    C2B64507   3.816  20.925   4.681 -0.1539  0.0473 -0.2282
    1PPC    C3B64508   3.868  21.193   4.251 -0.1049  0.2022  0.0201
    1PPC    C4B64509   3.982  21.586   4.306 -0.3184 -0.2911  0.3543
    1PPC    NC364510   3.371   4.706   7.584 -0.3200  0.0705 -0.3047
    1PPC    PO464511   3.550   4.618   7.100 -0.0391 -0.4215 -0.3370
    1PPC    GL164512   3.855   4.504   6.800 -0.1305 -0.1804 -0.3168
    1PPC    GL264513   4.028   4.375   6.476 -0.1693 -0.2691 -0.0386
    1PPC    C1B64514   4.153   4.182   6.092  0.0222 -0.2466 -0.2791
    1PPC    C2B64515   4.382   4.061   5.699 -0.0276 -0.2021  0.1142
    1PPC    C3B64516   4.418   3.951   5.276  0.0192 -0.2057  0.1222
    1PPC    C4B64517   4.589   3.916   4.903  0.1115 -0.3275  0.0791
    1PPC    NC364518  16.152  17.994   7.412  0.0006 -0.0553  0.3624
    1PPC    PO464519  16.619  17.868   7.572 -0.0394  0.0942  0.4820
    1PPC    GL164520  16.576  17.876   7.152 -0.2955 -0.0312 -0.1884
    1PPC    GL264521  16.670  17.922   6.819  0.0077  0.1681 -0.0412
    1PPC    C1B64522  16.617  18.079   6.418 -0.0142 -0.1408 -0.0090
    1PPC    C2B64523  16.409  18.422   6.256 -0.0104 -0.0782  0.2405
    1PPC    C3B64524  16.394  18.846   6.355  0.3483  0.0760 -0.1464
    1PPC    C4B64525  16.592  19.134   6.497  0.0801 -0.0611  0.2648
    1PPC    NC364526  20.190   2.300   6.535  0.1259 -0.1198 -0.1806
    1PPC    PO464527  20.014   2.736   6.787 -0.1537  0.0090 -0.0055
    1PPC    GL164528  20.003   2.783   6.363  0.0090 -0.3473 -0.3238
    1PPC    GL264529  20.042   2.623   6.155  0.1746 -0.0025 -0.2956
    1PPC    C1B64530  20.208   2.856   5.803 -0.0805  0.2165  0.0812
    1PPC    C2B64531  20.191   2.833   5.419 -0.1893 -0.1711  0.2329
    1PPC    C3B64532  20.110   2.547   5.090 -0.1789 -0.2066  0.2195
    1PPC    C4B64533  20.466   2.477   4.824  0.1910 -0.2653 -0.3390
    1PPC    NC364534   8.118  10.064   7.379  0.0321  0.0791  0.1207
    1PPC    PO464535   8.638   9.935   7.470 -0.3366 -0.0471  0.1220
    1PPC    GL164536   8.825   9.618   7.077  0.0004  0.0044 -0.1098
    1PPC    GL264537   8.664   9.607   6.777  0.2946  0.1301  0.0262
    1PPC    C1B64538   8.523   9.575   6.325 -0.0258 -0.4490 -0.2353
    1PPC    C2B64539   8.827   9.639   5.940 -0.0436  0.1911 -0.2529
    1PPC    C3B64540   8.771   9.815   5.604  0.0723 -0.2606  0.2411
    1PPC    C4B64541   8.932  10.036   5.243  0.0363 -0.1474 -0.1149
    1PPC    NC364542   1.335   4.233   6.730 -0.1084  0.0812 -0.1865
    1PPC    PO464543   1.036   4.018   6.566 -0.2374  0.0263 -0.1766
    1PPC    GL164544   1.228   4.038   6.204 -0.1551  0.0158  0.1484
    1PPC    GL264545   1.049   3.946   5.807 -0.4184  0.1980  0.0122
    1PPC    C1B64546   0.896   3.544   5.590 -0.0279 -0.0047  0.0429
    1PPC    C2B64547   0.708   3.208   5.335  0.3166 -0.3909  0.1024
    1PPC    C3B64548   0.495   2.918   5.038 -0.0237  0.0539 -0.0065
    1PPC    C4B64549   0.107   2.749   4.755 -0.0565 -0.1938  0.1408
    1PPC    NC364550  28.433   3.363   6.509  0.1523  0.0455  0.2631
    1PPC    PO464551  28.459   3.893   6.442  0.2945  0.1296  0.0271
    1PPC    GL164552  28.278   4.085   6.154 -0.4236 -0.4159  0.0559
    1PPC    GL264553  28.098   4.013   5.955 -0.2881  0.0484 -0.0531
    1PPC    C1B64554  27.782   3.785   5.924 -0.1693 -0.1009  0.2071
    1PPC    C2B64555  27.523   3.481   5.852 -0.2625 -0.1324 -0.1272
    1PPC    C3B64556  27.590   2.953   5.807 -0.2200 -0.0292  0.0138
    1PPC    C4B64557  27.582   2.731   5.385 -0.0410 -0.1400  0.0037
    1PPC    NC364558  19.264  21.095   7.335  0.0405  0.2896  0.2186
    1PPC    PO464559  19.460  20.837   7.055 -0.1152  0.1454 -0.0106
    1PPC    GL164560  19.597  20.858   6.557 -0.0305 -0.0518 -0.1196
    1PPC    GL264561  19.770  20.795   6.238  0.1456  0.2497 -0.0854
    1PPC    C1B64562  19.858  20.894   5.865 -0.1113 -0.1527 -0.0360
    1PPC    C2B64563  20.129  20.810   5.496 -0.1291  0.1018  0.2474
    1PPC    C3B64564  20.391  20.495   5.485  0.2569 -0.2080  0.3330
    1PPC    C4B64565  20.706  20.299   5.119 -0.4906 -0.0507  0.0951
    1PPC    NC364566  27.973  10.774   5.874 -0.0632  0.2101  0.0617
    1PPC    PO464567  27.673  10.967   6.173 -0.1115 -0.1209  0.0486
    1PPC    GL164568  27.503  11.301   5.882  0.3264  0.1976 -0.1121
    1PPC    GL264569  27.535  11.567   5.731  0.0329  0.1733 -0.0850
    1PPC    C1B64570  27.592  11.593   5.353  0.1045  0.0909  0.0399
    1PPC    C2B64571  27.591  11.664   4.876 -0.2045 -0.0080 -0.0302
    1PPC    C3B64572  27.454  11.587   4.441  0.2428  0.1790 -0.1485
    1PPC    C4B64573  27.141  11.452   4.279 -0.0976  0.1072 -0.0675
    1PPC    NC364574   8.587  28.366   7.795  0.0654 -0.1887 -0.0943
    1PPC    PO464575   8.937  28.640   7.568  0.0091  0.0473 -0.1434
    1PPC    GL164576   8.750  28.843   7.187 -0.1328  0.2694  0.2144
    1PPC    GL264577   8.631  28.827   6.879  0.0939 -0.0255  0.0708
    1PPC    C1B64578   8.671  28.933   6.527  0.0004  0.2196 -0.2171
    1PPC    C2B64579   8.357  29.125   6.203  0.1130 -0.2871 -0.1935
    1PPC    C3B64580   8.265  29.190   5.757  0.0435 -0.0876 -0.3007
    1PPC    C4B64581   8.410  29.522   5.484 -0.0763  0.1321 -0.0925
    1PPC    NC364582  20.906  28.475   6.731 -0.2215 -0.1196 -0.0172
    1PPC    PO464583  20.883  28.118   6.456 -0.3968  0.1259 -0.0594
    1PPC    GL164584  20.853  27.952   6.090 -0.1884 -0.1208  0.1087
    1PPC    GL264585  20.756  27.621   5.984 -0.3155 -0.1048  0.3502
    1PPC    C1B64586  20.571  27.291   5.690 -0.2105 -0.0394  0.2353
    1PPC    C2B64587  20.481  27.365   5.221 -0.1464 -0.0277  0.1601
    1PPC    C3B64588  20.610  27.374   4.787 -0.1104  0.0748 -0.1830
    1PPC    C4B64589  20.660  27.189   4.375 -0.0747  0.1495 -0.0114
    1PPC    NC364590  10.417  19.677   7.110 -0.0910 -0.2326 -0.0608
    1PPC    PO464591  10.241  19.393   7.016 -0.0350  0.0025  0.1479
    1PPC    GL164592  10.446  19.586   6.647 -0.0052  0.0712  0.1980
    1PPC    GL264593  10.570  19.834   6.356 -0.2912 -0.1498  0.0446
    1PPC    C1B64594  10.583  19.902   5.961  0.0519  0.2996 -0.0860
    1PPC    C2B64595  10.264  19.682   5.584  0.1081  0.1501  0.0017
    1PPC    C3B64596  10.001  19.428   5.686 -0.0263 -0.0094 -0.0892
    1PPC    C4B64597   9.941  19.380   6.205 -0.2869 -0.1246  0.0398
    1PPC    NC364598  10.628  22.771   6.216 -0.3186 -0.0529  0.0758
    1PPC    PO464599  10.940  23.114   6.347  0.2593  0.3140 -0.1795
    1PPC    GL164600  10.950  23.241   5.941  0.4935 -0.0980 -0.0031
    1PPC    GL264601  10.926  23.233   5.600  0.0444 -0.3744  0.0296
    1PPC    C1B64602  10.805  23.252   5.181  0.1002  0.1074  0.0396
    1PPC    C2B64603  11.028  23.426   4.726 -0.0054 -0.0472 -0.0893
    1PPC    C3B64604  10.854  23.401   4.395  0.2577 -0.0730 -0.0635
    1PPC    C4B64605  10.920  23.227   4.036 -0.1663  0.2696 -0.0922
    1PPC    NC364606  26.760   0.821   6.995  0.0266 -0.3332 -0.0483
    1PPC    PO464607  26.755   0.354   6.959  0.1236  0.0587 -0.0341
    1PPC    GL164608  26.741   0.204   6.491 -0.0525 -0.1639  0.1613
    1PPC    GL264609  26.658   0.221   6.225  0.0130 -0.2349  0.0021
    1PPC    C1B64610  26.483   0.056   5.753  0.3678 -0.0073 -0.0318
    1PPC    C2B64611  26.187   0.234   5.454  0.0367  0.0086 -0.0718
    1PPC    C3B64612  26.129   0.321   5.058 -0.1625 -0.1152 -0.0513
    1PPC    C4B64613  26.279   0.700   4.811  0.4152  0.0703 -0.1476
    1PPC    NC364614   7.134   7.447   7.039  0.0801 -0.2947 -0.0560
    1PPC    PO464615   7.342   7.898   7.118 -0.0045  0.4009  0.0179
    1PPC    GL164616   7.023   7.953   6.798  0.0927  0.2222 -0.0106
    1PPC    GL264617   7.086   7.930   6.442 -0.0818  0.5224 -0.3608
    1PPC    C1B64618   7.365   7.966   6.110 -0.2083 -0.0640 -0.0380
    1PPC    C2B64619   7.492   7.706   5.746  0.2302 -0.0341 -0.2446
    1PPC    C3B64620   7.574   7.371   5.483 -0.1451 -0.0478 -0.0917
    1PPC    C4B64621   7.787   7.170   5.216 -0.1543 -0.0185  0.2085
    1PPC    NC364622   5.192  17.230   7.378  0.1224  0.0143 -0.2166
    1PPC    PO464623   5.240  17.190   6.897 -0.0145 -0.0224  0.0746
    1PPC    GL164624   5.130  16.852   6.688 -0.1902  0.0003 -0.2789
    1PPC    GL264625   5.282  16.694   6.447 -0.0757 -0.0626 -0.1702
    1PPC    C1B64626   5.420  16.663   6.014 -0.1936  0.0011 -0.0427
    1PPC    C2B64627   5.404  16.746   5.636 -0.1942 -0.0655 -0.1961
    1PPC    C3B64628   5.310  16.559   5.179  0.0724  0.2416  0.0505
    1PPC    C4B64629   5.069  16.528   4.733  0.1645  0.0227 -0.0594
    1PPC    NC364630  26.900  21.665   7.253 -0.2458 -0.0371  0.0263
    1PPC    PO464631  26.869  21.783   6.820 -0.2860  0.0419  0.3000
    1PPC    GL164632  26.749  21.981   6.460 -0.0838  0.0018  0.2951
    1PPC    GL264633  26.922  22.210   6.290 -0.1003  0.0007 -0.0144
    1PPC    C1B64634  26.867  22.537   5.989 -0.0616  0.0516 -0.0373
    1PPC    C2B64635  26.774  22.614   5.545  0.0311 -0.2943  0.2945
    1PPC    C3B64636  26.752  22.820   5.227 -0.1147  0.3019 -0.2263
    1PPC    C4B64637  26.851  23.233   5.181  0.0624 -0.1707 -0.0773
    1PPC    NC364638   2.176  16.753   6.027 -0.2483 -0.0261  0.2177
    1PPC    PO464639   2.552  16.859   5.846 -0.3672  0.0264 -0.1960
    1PPC    GL164640   2.706  16.448   5.650  0.2357  0.1931 -0.0176
    1PPC    GL264641   2.562  16.274   5.475 -0.0641  0.2029 -0.2839
    1PPC    C1B64642   2.353  16.304   5.095  0.0655 -0.0821  0.1424
    1PPC    C2B64643   2.119  15.948   4.821 -0.3504  0.1570  0.0552
    1PPC    C3B64644   1.660  15.829   4.795  0.2374  0.2092 -0.1286
    1PPC    C4B64645   1.326  16.144   4.735  0.0548  0.2220 -0.0954
    1PPC    NC364646  26.521   6.923   6.844 -0.0809  0.0452 -0.0171
    1PPC    PO464647  26.600   7.262   6.577  0.3986 -0.0584 -0.0470
    1PPC    GL164648  26.652   7.383   6.188 -0.0862 -0.0767  0.0489
    1PPC    GL264649  26.489   7.269   5.982 -0.2675 -0.2682  0.1098
    1PPC    C1B64650  26.548   7.022   5.502 -0.1796 -0.2612  0.0574
    1PPC    C2B64651  26.628   6.896   5.117 -0.1756 -0.2205 -0.2052
    1PPC    C3B64652  26.879   6.844   4.706 -0.1385 -0.1395 -0.2102
    1PPC    C4B64653  26.972   6.509   4.421 -0.2052 -0.0944  0.3872
    1PPC    NC364654  25.711  25.875   6.671  0.2775 -0.0222 -0.3486
    1PPC    PO464655  26.121  25.848   6.468  0.1695  0.0516 -0.4354
    1PPC    GL164656  26.320  25.788   6.196  0.0606 -0.0041 -0.1381
    1PPC    GL264657  26.522  25.856   6.061 -0.0942  0.0540  0.1430
    1PPC    C1B64658  26.722  25.835   5.613 -0.2115  0.2036 -0.1062
    1PPC    C2B64659  26.968  25.990   5.218 -0.1985  0.2094 -0.2532
    1PPC    C3B64660  27.250  25.799   4.974 -0.1304 -0.2552  0.2677
    1PPC    C4B64661  27.535  25.937   4.793  0.3271 -0.2244  0.0707
    1PPC    NC364662  20.146  25.916   6.922  0.3823 -0.0542 -0.1187
    1PPC    PO464663  19.942  26.082   6.496  0.0985  0.2258  0.1912
    1PPC    GL164664  20.284  25.931   6.339  0.1220  0.2544 -0.1393
    1PPC    GL264665  20.419  25.751   6.222  0.1736 -0.1380 -0.1974
    1PPC    C1B64666  20.502  25.609   5.804 -0.0735  0.1451 -0.0252
    1PPC    C2B64667  20.696  25.624   5.402  0.1197  0.1010 -0.3806
    1PPC    C3B64668  21.040  25.400   5.260 -0.4013  0.0810 -0.3624
    1PPC    C4B64669  21.494  25.225   5.143 -0.0945  0.0415 -0.0072
    1PPC    NC364670  26.151   1.418   6.723 -0.0757 -0.0566 -0.0570
    1PPC    PO464671  26.473   1.016   6.619 -0.1449 -0.1608  0.0367
    1PPC    GL164672  26.274   1.160   6.224 -0.1148 -0.2115 -0.0416
    1PPC    GL264673  26.256   1.076   5.856  0.0083  0.1412 -0.1336
    1PPC    C1B64674  26.426   1.052   5.440  0.4121 -0.2466 -0.2182
    1PPC    C2B64675  26.522   0.796   5.201  0.0670 -0.3519  0.2944
    1PPC    C3B64676  26.593   0.317   5.200  0.2002 -0.2078 -0.1075
    1PPC    C4B64677  26.754   0.157   4.821  0.0858 -0.2578  0.1394
    1PPC    NC364678   3.108   4.901   7.154  0.0494  0.0808 -0.3093
    1PPC    PO464679   3.287   5.125   6.814  0.0502 -0.0389  0.1540
    1PPC    GL164680   3.701   5.015   6.674 -0.1446 -0.1946 -0.0167
    1PPC    GL264681   3.916   4.890   6.492  0.2499  0.0760 -0.1714
    1PPC    C1B64682   4.249   4.930   6.244 -0.0865 -0.2092 -0.2800
    1PPC    C2B64683   4.546   4.944   5.986 -0.1798 -0.2502 -0.2742
    1PPC    C3B64684   4.873   4.942   5.601  0.0058  0.0757 -0.2864
    1PPC    C4B64685   5.100   4.594   5.360 -0.0258 -0.1375  0.0798
    1PPC    NC364686   5.965  12.817   7.478  0.1684 -0.0932  0.1308
    1PPC    PO464687   6.029  13.077   7.113  0.1833 -0.0115  0.2959
    1PPC    GL164688   5.880  13.123   6.639 -0.0791  0.2464  0.1661
    1PPC    GL264689   5.695  13.001   6.376  0.0836 -0.2843 -0.1030
    1PPC    C1B64690   5.633  13.089   5.981  0.2300 -0.1240  0.0171
    1PPC    C2B64691   5.684  13.001   5.516  0.0577 -0.1714  0.1523
    1PPC    C3B64692   5.802  13.247   5.113 -0.1266  0.1730 -0.0344
    1PPC    C4B64693   6.212  13.417   4.850 -0.0407 -0.0349  0.2165
    1PPC    NC364694  15.862   1.240   7.993 -0.0539  0.1112  0.2095
    1PPC    PO464695  15.637   0.986   7.825 -0.1561  0.2095 -0.0960
    1PPC    GL164696  15.815   0.958   7.429  0.0536 -0.0516  0.1947
    1PPC    GL264697  15.971   0.981   7.134 -0.1480  0.0730 -0.2310
    1PPC    C1B64698  16.175   0.884   6.793  0.0218  0.1045 -0.0055
    1PPC    C2B64699  16.555   0.938   6.528 -0.2616  0.2413 -0.1389
    1PPC    C3B64700  16.849   0.756   6.240 -0.0107 -0.1034 -0.0140
    1PPC    C4B64701  17.066   0.691   5.889  0.0669 -0.0641 -0.0358
    1PPC    NC364702   0.410  23.078   6.807 -0.1160 -0.0296 -0.1298
    1PPC    PO464703   0.110  23.415   6.537 -0.2613  0.2836 -0.1344
    1PPC    GL164704   0.262  23.772   6.300 -0.0815 -0.1991 -0.1062
    1PPC    GL264705   0.141  23.953   6.071 -0.5472  0.2305  0.0798
    1PPC    C1B64706  -0.257  24.059   5.848  0.0309 -0.0344  0.2030
    1PPC    C2B64707  -0.633  24.122   5.606 -0.0389  0.0366  0.2494
    1PPC    C3B64708  -0.877  24.117   5.320  0.2907 -0.0852 -0.0632
    1PPC    C4B64709  -1.104  24.441   5.104  0.0284 -0.2504 -0.0654
    1PPC    NC364710  11.243  23.494   6.661 -0.1008  0.1102  0.2868
    1PPC    PO464711  11.458  23.029   6.615 -0.2942 -0.1225  0.1700
    1PPC    GL164712  11.570  23.258   6.345  0.1723 -0.2410 -0.1753
    1PPC    GL264713  11.458  23.175   6.041  0.1314 -0.1810  0.0642
    1PPC    C1B64714  11.372  23.037   5.681  0.1750 -0.0953  0.5646
    1PPC    C2B64715  11.413  22.563   5.499  0.1972 -0.0448 -0.0040
    1PPC    C3B64716  11.477  22.422   5.123 -0.0661 -0.0500  0.2351
    1PPC    C4B64717  11.595  22.571   4.828 -0.0796  0.0805  0.0717
    1PPC    NC364718  25.823   9.287   6.934 -0.2558 -0.0172  0.1216
    1PPC    PO464719  25.488   9.417   6.557  0.0120 -0.0869 -0.4352
    1PPC    GL164720  25.159   9.535   6.322  0.0108 -0.1946 -0.0139
    1PPC    GL264721  25.086   9.803   6.178 -0.2006  0.0644 -0.0793
    1PPC    C1B64722  24.810   9.933   5.751 -0.2691 -0.3116  0.0519
    1PPC    C2B64723  24.780  10.033   5.392 -0.1027 -0.0767 -0.2227
    1PPC    C3B64724  24.804  10.154   5.053 -0.2339 -0.0855  0.0214
    1PPC    C4B64725  25.013  10.199   4.667 -0.3721 -0.2427  0.2456
    1PPC    NC364726  18.979   0.087   7.962  0.0596  0.1148  0.1233
    1PPC    PO464727  19.035  -0.037   7.482  0.2018 -0.0612  0.0282
    1PPC    GL164728  18.937   0.182   7.169 -0.1272 -0.2569 -0.2738
    1PPC    GL264729  18.840   0.103   6.872 -0.2648 -0.0762 -0.2823
    1PPC    C1B64730  18.424   0.063   6.603 -0.2091  0.0432  0.2714
    1PPC    C2B64731  18.053   0.179   6.489 -0.0693  0.0466  0.0468
    1PPC    C3B64732  18.050   0.411   6.140  0.0982 -0.1524  0.1373
    1PPC    C4B64733  17.975   0.343   5.661 -0.1833 -0.3366 -0.1153
    1PPC    NC364734  23.676  12.235   6.110 -0.0030 -0.4058 -0.1309
    1PPC    PO464735  24.067  12.307   6.214  0.0012 -0.2497  0.0217
    1PPC    GL164736  24.294  12.446   5.787  0.1744 -0.1341  0.0718
    1PPC    GL264737  24.601  12.538   5.602  0.4236 -0.3966  0.1326
    1PPC    C1B64738  24.747  12.847   5.391  0.2728 -0.1020 -0.3454
    1PPC    C2B64739  24.816  12.961   4.954  0.0575 -0.1421  0.0011
    1PPC    C3B64740  25.104  13.086   4.613 -0.0134  0.0944  0.0444
    1PPC    C4B64741  25.287  12.890   4.336 -0.0498 -0.1006 -0.0052
    1PPC    NC364742   1.173  14.833   6.674 -0.2275 -0.1733  0.2096
    1PPC    PO464743   1.490  14.945   6.536  0.2144 -0.0884  0.0857
    1PPC    GL164744   1.373  14.839   6.127 -0.0755  0.0323 -0.1767
    1PPC    GL264745   1.153  14.886   5.864 -0.0235 -0.0628 -0.1124
    1PPC    C1B64746   1.048  15.011   5.455  0.2016 -0.0576  0.0457
    1PPC    C2B64747   1.101  15.159   5.024 -0.0174 -0.2068  0.3059
    1PPC    C3B64748   0.849  15.357   4.674  0.1140 -0.0236  0.2360
    1PPC    C4B64749   0.829  15.588   4.364 -0.2417  0.0380 -0.0280
    1PPC    NC364750  24.703  22.187   6.770 -0.2670 -0.0357  0.2172
    1PPC    PO464751  24.583  22.620   6.781  0.0459  0.1417 -0.2630
    1PPC    GL164752  24.653  22.439   6.314 -0.1094 -0.3485 -0.0129
    1PPC    GL264753  24.441  22.266   6.005 -0.2664 -0.0674 -0.0946
    1PPC    C1B64754  24.205  22.458   5.588  0.0796 -0.0776 -0.2459
    1PPC    C2B64755  24.095  22.672   5.272 -0.5699  0.1470  0.0909
    1PPC    C3B64756  24.302  22.486   4.845 -0.2065 -0.0139 -0.0052
    1PPC    C4B64757  24.671  22.392   4.710 -0.0110  0.0173 -0.0511
    1PPC    NC364758  20.831   3.145   6.869 -0.3542 -0.0260 -0.0654
    1PPC    PO464759  20.397   3.119   7.038  0.1640  0.0514 -0.1658
    1PPC    GL164760  20.345   3.196   6.579  0.0121  0.0576 -0.3363
    1PPC    GL264761  20.344   3.154   6.196 -0.2654  0.0627 -0.0114
    1PPC    C1B64762  20.588   3.459   5.864  0.0448  0.0489 -0.1139
    1PPC    C2B64763  20.686   3.317   5.372  0.0964  0.1629 -0.2567
    1PPC    C3B64764  20.658   3.384   4.842 -0.3249 -0.1260 -0.0418
    1PPC    C4B64765  20.597   3.307   4.349 -0.3318 -0.0313 -0.0303
    1PPC    NC364766  19.767  24.292   6.850 -0.0661  0.0590  0.2795
    1PPC    PO464767  19.377  23.995   6.802  0.1027 -0.0121 -0.2180
    1PPC    GL164768  19.066  24.166   6.425  0.0328  0.0721 -0.1558
    1PPC    GL264769  18.795  24.251   6.239 -0.1814 -0.1539 -0.0645
    1PPC    C1B64770  18.402  24.180   6.212 -0.2440 -0.1592 -0.1650
    1PPC    C2B64771  18.195  23.710   6.048  0.0176  0.1892  0.1326
    1PPC    C3B64772  17.810  23.489   6.090 -0.0025 -0.2426  0.0859
    1PPC    C4B64773  17.819  23.111   5.903 -0.2866 -0.0127  0.3406
    1PPC    NC364774   1.552  23.977   6.782  0.2123  0.0422 -0.1947
    1PPC    PO464775   1.354  23.945   6.388  0.1576 -0.3747 -0.0871
    1PPC    GL164776   1.238  23.881   6.026 -0.0605 -0.0403  0.1712
    1PPC    GL264777   1.142  23.783   5.715 -0.2127  0.0690 -0.2952
    1PPC    C1B64778   0.956  23.967   5.326  0.0691 -0.3240 -0.1344
    1PPC    C2B64779   0.840  24.054   4.833  0.0494  0.1142 -0.1620
    1PPC    C3B64780   0.565  24.216   4.506 -0.2546 -0.0911  0.1605
    1PPC    C4B64781   0.207  24.266   4.174 -0.0029  0.2006 -0.2350
    1PPC    NC364782   8.131  22.298   6.678  0.1578  0.2570  0.1969
    1PPC    PO464783   8.250  22.169   6.205 -0.0242  0.1412  0.4244
    1PPC    GL164784   8.157  22.196   5.784 -0.4506 -0.1668  0.4540
    1PPC    GL264785   8.452  21.997   5.642  0.1038  0.0497  0.1302
    1PPC    C1B64786   8.566  21.837   5.235 -0.3015 -0.0443  0.2578
    1PPC    C2B64787   8.701  21.505   4.855 -0.1153  0.0395  0.1833
    1PPC    C3B64788   8.663  21.092   4.911  0.4307  0.0356  0.1148
    1PPC    C4B64789   8.785  20.623   4.813  0.3296 -0.0524 -0.3224
    1PPC    NC364790  15.479  23.251   7.500  0.0425 -0.1868 -0.0213
    1PPC    PO464791  15.752  23.073   7.351  0.2590 -0.3159  0.0591
    1PPC    GL164792  15.943  23.286   7.109 -0.3406  0.2436 -0.1038
    1PPC    GL264793  16.024  23.154   6.855  0.2329  0.2256  0.2740
    1PPC    C1B64794  16.155  23.020   6.491 -0.1645 -0.3125 -0.0319
    1PPC    C2B64795  16.377  23.013   6.068 -0.1088 -0.1713 -0.3243
    1PPC    C3B64796  16.552  23.082   5.732 -0.0331 -0.1203 -0.0125
    1PPC    C4B64797  16.633  22.699   5.453  0.1088  0.4638  0.2536
    1PPC    NC364798  21.921  17.556   7.429 -0.2505  0.1786 -0.1184
    1PPC    PO464799  21.731  17.277   7.137  0.2076 -0.0278 -0.0088
    1PPC    GL164800  21.970  17.443   6.778  0.1392 -0.1226 -0.0972
    1PPC    GL264801  22.062  17.675   6.517  0.2182 -0.0876  0.2423
    1PPC    C1B64802  21.840  17.832   6.168  0.0135 -0.1120 -0.2229
    1PPC    C2B64803  21.880  17.913   5.687 -0.1473  0.2158 -0.1251
    1PPC    C3B64804  21.707  17.668   5.331 -0.2231 -0.5464 -0.0456
    1PPC    C4B64805  21.820  17.391   5.043  0.2564  0.4945  0.4917
    1PPC    NC364806  21.279  25.278   7.062  0.1177 -0.0750 -0.1588
    1PPC    PO464807  20.949  25.343   6.818 -0.0772 -0.1846  0.4098
    1PPC    GL164808  21.090  25.614   6.573  0.0688  0.1299  0.1300
    1PPC    GL264809  21.297  25.620   6.280 -0.0857  0.3092  0.2073
    1PPC    C1B64810  21.423  25.452   5.790 -0.0374  0.2448 -0.0007
    1PPC    C2B64811  21.475  25.665   5.395  0.0752  0.2702  0.0513
    1PPC    C3B64812  21.351  25.705   4.947  0.2162  0.0910  0.0909
    1PPC    C4B64813  21.482  25.642   4.503 -0.1034 -0.2490 -0.0251
    1PPC    NC364814  18.707   5.852   7.794  0.0714  0.0046  0.1401
    1PPC    PO464815  18.903   5.791   7.371 -0.0145  0.1612 -0.0399
    1PPC    GL164816  18.859   5.652   6.907  0.1012  0.0241  0.0472
    1PPC    GL264817  18.684   5.574   6.731  0.0036  0.0040 -0.0295
    1PPC    C1B64818  18.555   5.674   6.368 -0.0284  0.0484  0.1464
    1PPC    C2B64819  18.038   5.784   6.088  0.0473  0.1119 -0.0661
    1PPC    C3B64820  17.694   5.943   5.833  0.0160  0.2081  0.0066
    1PPC    C4B64821  17.617   6.321   5.458  0.0847 -0.1646 -0.3394
    1PPC    NC364822  19.868  26.091   7.318  0.0598  0.0457 -0.3405
    1PPC    PO464823  19.892  25.673   7.271 -0.1172 -0.1313 -0.2879
    1PPC    GL164824  19.715  25.592   6.790 -0.1020 -0.3796  0.1386
    1PPC    GL264825  19.576  25.682   6.520 -0.1214 -0.1005 -0.2285
    1PPC    C1B64826  19.450  25.813   6.074  0.2316 -0.3556 -0.1663
    1PPC    C2B64827  19.165  25.576   5.798  0.0469  0.0492  0.5132
    1PPC    C3B64828  19.180  25.328   5.397 -0.1949  0.0852 -0.0871
    1PPC    C4B64829  19.109  25.029   5.130 -0.0653 -0.2087  0.1334
    1PPC    NC364830  25.200  11.503   6.587 -0.0409  0.0926  0.2167
    1PPC    PO464831  24.701  11.617   6.450 -0.0001  0.0504 -0.1395
    1PPC    GL164832  24.573  11.851   6.071  0.0658 -0.0010 -0.0839
    1PPC    GL264833  24.404  11.940   5.863 -0.1718 -0.1632 -0.0316
    1PPC    C1B64834  24.165  11.835   5.632 -0.1437 -0.0785  0.1040
    1PPC    C2B64835  23.892  11.908   5.381  0.1568  0.0052  0.1425
    1PPC    C3B64836  23.488  11.871   5.096 -0.0815  0.2688  0.0978
    1PPC    C4B64837  23.143  11.714   4.982  0.3945 -0.0470 -0.1601
    1PPC    NC364838  17.925   5.571   7.264 -0.0915 -0.1376  0.2613
    1PPC    PO464839  18.408   5.641   7.337 -0.0303  0.3031 -0.0747
    1PPC    GL164840  18.283   5.812   6.894 -0.2541 -0.0226 -0.1679
    1PPC    GL264841  18.331   6.024   6.725  0.2090  0.2028  0.1875
    1PPC    C1B64842  18.392   6.134   6.300 -0.0328  0.0393 -0.0156
    1PPC    C2B64843  18.473   5.953   5.915  0.0935  0.3458  0.1522
    1PPC    C3B64844  18.550   6.019   5.518 -0.0455 -0.0381 -0.4313
    1PPC    C4B64845  18.403   5.976   5.119  0.3566 -0.1382  0.1229
    1PPC    NC364846  22.349   0.935   6.864  0.1014  0.0616 -0.0878
    1PPC    PO464847  22.687   0.585   6.858 -0.0669  0.0888  0.0204
    1PPC    GL164848  22.778   0.533   6.377 -0.0009  0.4254  0.1424
    1PPC    GL264849  22.906   0.323   6.127 -0.1741 -0.1523 -0.1530
    1PPC    C1B64850  23.038   0.237   5.742 -0.1468 -0.3365 -0.0799
    1PPC    C2B64851  23.183  -0.039   5.379  0.0947  0.0598 -0.1693
    1PPC    C3B64852  23.312  -0.479   5.254  0.0660  0.2454  0.3094
    1PPC    C4B64853  23.741  -0.642   5.212  0.1091  0.3829  0.0096
    1PPC    NC364854  18.253  19.558   8.297 -0.0810 -0.0064 -0.0868
    1PPC    PO464855  18.115  19.507   7.912  0.0581 -0.1654  0.0810
    1PPC    GL164856  18.006  19.604   7.477 -0.1955  0.0346 -0.1164
    1PPC    GL264857  18.084  19.740   7.160  0.3105 -0.1597 -0.3193
    1PPC    C1B64858  17.993  19.639   6.639 -0.1136 -0.0959  0.0146
    1PPC    C2B64859  17.656  19.735   6.483  0.3671 -0.0579 -0.1230
    1PPC    C3B64860  17.180  19.692   6.466  0.3171  0.0533  0.0769
    1PPC    C4B64861  16.738  19.678   6.395  0.1470 -0.2422  0.1921
    1PPC    NC364862  13.478   4.328   7.999 -0.0386 -0.0938  0.1414
    1PPC    PO464863  13.267   3.966   7.848 -0.1548 -0.1959 -0.0533
    1PPC    GL164864  13.270   4.214   7.561 -0.2474  0.1265  0.3151
    1PPC    GL264865  13.182   4.263   7.264 -0.0324  0.1413  0.0786
    1PPC    C1B64866  13.053   4.468   6.869 -0.0831  0.0180  0.0697
    1PPC    C2B64867  13.283   4.487   6.504 -0.1759  0.0821  0.0008
    1PPC    C3B64868  13.092   4.135   6.211 -0.1020 -0.2004  0.1111
    1PPC    C4B64869  12.914   3.801   5.974  0.0047 -0.3107 -0.2750
    1PPC    NC364870  13.857  22.508   7.939  0.1761  0.2232 -0.2368
    1PPC    PO464871  14.352  22.460   7.709 -0.0423  0.0012 -0.1572
    1PPC    GL164872  14.179  22.606   7.296  0.1543 -0.1764  0.0795
    1PPC    GL264873  14.250  22.635   7.017  0.0730 -0.1797  0.0955
    1PPC    C1B64874  14.496  23.042   6.693 -0.2260  0.0373  0.1019
    1PPC    C2B64875  14.693  23.251   6.311 -0.2835  0.2013  0.2961
    1PPC    C3B64876  14.953  23.415   5.995 -0.1348 -0.3800 -0.1872
    1PPC    C4B64877  14.994  23.527   5.582  0.0128  0.1611 -0.0692
    1PPC    NC364878  21.585  27.551   6.581 -0.2237  0.2440  0.0058
    1PPC    PO464879  21.122  27.636   6.399  0.3710 -0.2316  0.0155
    1PPC    GL164880  21.240  27.396   6.144  0.0803  0.0732 -0.1521
    1PPC    GL264881  21.348  27.385   5.765  0.1645  0.1804 -0.4311
    1PPC    C1B64882  21.401  27.508   5.387  0.2234  0.2868  0.0345
    1PPC    C2B64883  21.299  27.936   5.151 -0.3661  0.0453  0.1512
    1PPC    C3B64884  21.019  28.335   5.196 -0.0608 -0.0496 -0.2394
    1PPC    C4B64885  20.920  28.792   5.140 -0.0843  0.1519  0.1380
    1PPC    NC364886   2.480   5.959   6.454 -0.0281 -0.0042  0.0963
    1PPC    PO464887   2.177   5.915   6.197  0.1813 -0.3152  0.1846
    1PPC    GL164888   2.022   5.825   5.778 -0.2087  0.0809 -0.0725
    1PPC    GL264889   2.287   5.873   5.490  0.3133  0.2414 -0.2039
    1PPC    C1B64890   2.354   5.548   5.323 -0.1057 -0.1919 -0.3975
    1PPC    C2B64891   2.104   5.324   5.008  0.0074  0.1955 -0.0359
    1PPC    C3B64892   1.648   5.326   5.083  0.0173  0.1227 -0.2470
    1PPC    C4B64893   1.401   5.777   4.925 -0.1756 -0.1100  0.1497
    1PPC    NC364894  23.843   0.107   7.012  0.0047  0.1366  0.0222
    1PPC    PO464895  23.410   0.108   6.853  0.1193 -0.1351 -0.1512
    1PPC    GL164896  23.312   0.288   6.394  0.0175  0.0454 -0.0546
    1PPC    GL264897  23.380   0.138   6.182  0.1399 -0.1222  0.2019
    1PPC    C1B64898  23.574   0.050   5.727 -0.0156  0.2933  0.4444
    1PPC    C2B64899  23.730  -0.189   5.384  0.0503 -0.0921  0.0331
    1PPC    C3B64900  23.640  -0.225   4.936  0.0553 -0.2391 -0.0092
    1PPC    C4B64901  23.366  -0.007   4.559 -0.1728  0.1105  0.3758
    1PPC    NC364902   5.787  23.424   5.569  0.1552  0.0553  0.3212
    1PPC    PO464903   5.751  23.129   5.878 -0.3823  0.0895 -0.0591
    1PPC    GL164904   5.827  22.863   5.536 -0.0793 -0.1366 -0.0578
    1PPC    GL264905   5.819  22.947   5.248  0.0341 -0.1283 -0.0858
    1PPC    C1B64906   5.976  22.998   4.848  0.0541 -0.3231  0.2811
    1PPC    C2B64907   5.892  23.182   4.442  0.0154  0.2946  0.1975
    1PPC    C3B64908   5.512  23.242   4.254  0.2365  0.0038  0.0911
    1PPC    C4B64909   5.114  23.165   3.989  0.0767  0.0195  0.2481
    1PPC    NC364910  10.423   7.607   7.670  0.1192  0.2820 -0.2452
    1PPC    PO464911  10.526   8.000   7.747 -0.0427 -0.0737 -0.2579
    1PPC    GL164912  10.253   7.974   7.297  0.3482  0.0622 -0.1316
    1PPC    GL264913   9.986   7.935   7.069  0.0153 -0.2592 -0.0668
    1PPC    C1B64914   9.778   8.102   6.759  0.1370 -0.2343 -0.1884
    1PPC    C2B64915   9.656   7.989   6.285  0.2003  0.0118  0.1337
    1PPC    C3B64916   9.592   7.899   5.801  0.4958 -0.1437  0.2128
    1PPC    C4B64917   9.288   7.565   5.639  0.0841  0.1145 -0.1291
    1PPC    NC364918  19.402  21.919   7.418 -0.0712 -0.0295 -0.0344
    1PPC    PO464919  19.313  21.615   7.221 -0.1517 -0.0337 -0.0629
    1PPC    GL164920  19.132  21.771   6.833 -0.4586 -0.0956  0.2392
    1PPC    GL264921  19.196  21.684   6.433 -0.1794  0.0465  0.1950
    1PPC    C1B64922  19.255  21.639   5.858  0.0472  0.0630 -0.1201
    1PPC    C2B64923  19.195  21.283   5.636 -0.1190  0.4424 -0.0139
    1PPC    C3B64924  19.244  21.277   5.240  0.0732  0.1166 -0.0104
    1PPC    C4B64925  19.234  21.277   4.729 -0.5007 -0.1224 -0.1062
    1PPC    NC364926   1.891   8.680   7.021  0.2840 -0.1430  0.0228
    1PPC    PO464927   2.113   8.795   6.737 -0.1379  0.2286  0.0246
    1PPC    GL164928   1.987   8.716   6.334 -0.0927 -0.2663 -0.1283
    1PPC    GL264929   1.969   8.626   6.058  0.2668 -0.2362  0.2226
    1PPC    C1B64930   1.826   8.597   5.575 -0.2306 -0.0623  0.0567
    1PPC    C2B64931   1.478   8.586   5.215  0.0945  0.4770  0.1358
    1PPC    C3B64932   1.126   8.789   5.006 -0.0437 -0.1688 -0.0032
    1PPC    C4B64933   0.838   8.761   4.591 -0.1675 -0.1930  0.1175
    1PPC    NC364934   5.481   5.768   7.046 -0.0885  0.0562 -0.0637
    1PPC    PO464935   5.611   5.973   6.669  0.1128  0.3056 -0.1792
    1PPC    GL164936   5.691   6.069   6.343 -0.1266 -0.2214 -0.0241
    1PPC    GL264937   5.906   6.294   6.204 -0.2113  0.1317  0.0464
    1PPC    C1B64938   6.317   6.448   6.120  0.0190 -0.0743 -0.0882
    1PPC    C2B64939   6.670   6.581   6.099  0.0408 -0.0306  0.3700
    1PPC    C3B64940   6.929   6.651   5.676  0.1347 -0.0675 -0.0108
    1PPC    C4B64941   7.230   6.494   5.224 -0.3681  0.2093  0.1492
    1PPC    NC364942  21.402   2.584   6.386  0.0125 -0.0082 -0.1938
    1PPC    PO464943  21.031   2.704   6.533 -0.1632 -0.1721  0.0415
    1PPC    GL164944  20.849   2.797   6.171 -0.2292  0.0997  0.0296
    1PPC    GL264945  20.677   2.784   5.932  0.1002 -0.0392  0.5318
    1PPC    C1B64946  20.638   2.855   5.564  0.0899 -0.0237  0.1562
    1PPC    C2B64947  20.791   2.851   5.224  0.1614 -0.0506 -0.1146
    1PPC    C3B64948  20.787   2.934   4.772  0.2987  0.2191 -0.0943
    1PPC    C4B64949  21.067   3.183   4.619  0.2798 -0.0938  0.0624
    1PPC    NC364950   8.637  22.468   6.101  0.1218 -0.3148 -0.3037
    1PPC    PO464951   8.890  22.717   6.416  0.4013 -0.0184 -0.0240
    1PPC    GL164952   8.985  22.734   5.936 -0.1052  0.0034  0.3065
    1PPC    GL264953   8.884  22.791   5.559 -0.0461 -0.0313  0.1227
    1PPC    C1B64954   8.991  22.591   5.082  0.0757 -0.0602 -0.0239
    1PPC    C2B64955   8.691  22.370   4.727 -0.1367 -0.1893 -0.1915
    1PPC    C3B64956   8.628  21.966   4.736 -0.1421 -0.0031  0.1039
    1PPC    C4B64957   8.373  21.622   4.481  0.2466  0.2885  0.0216
    1PPC    NC364958   4.426   3.545   6.917  0.0621 -0.1934  0.2532
    1PPC    PO464959   4.651   3.191   6.844  0.0272 -0.0685 -0.5920
    1PPC    GL164960   4.368   3.267   6.511  0.0535 -0.1323 -0.1509
    1PPC    GL264961   4.131   3.210   6.202  0.0869  0.0974  0.2138
    1PPC    C1B64962   3.909   3.274   5.874 -0.1818 -0.0470  0.0806
    1PPC    C2B64963   3.802   3.216   5.471  0.0644  0.1390  0.1579
    1PPC    C3B64964   3.372   3.056   5.342 -0.0471  0.0463  0.2666
    1PPC    C4B64965   3.162   3.047   4.948 -0.1947 -0.2323  0.3851
    1PPC    NC364966   3.058   6.531   6.516 -0.0334  0.1012  0.0210
    1PPC    PO464967   2.693   6.320   6.268  0.0647 -0.3379  0.1926
    1PPC    GL164968   2.466   6.348   6.032 -0.0969  0.1495  0.0072
    1PPC    GL264969   2.301   6.314   5.754  0.0997  0.1946 -0.3270
    1PPC    C1B64970   2.162   6.666   5.451  0.3981 -0.1828  0.3370
    1PPC    C2B64971   2.171   6.706   4.991 -0.0524  0.0515 -0.1156
    1PPC    C3B64972   1.903   6.555   4.778 -0.0380  0.2285 -0.2524
    1PPC    C4B64973   1.531   6.652   4.797  0.2035 -0.1230  0.2595
    1PPC    NC364974   7.074  28.031   7.165  0.0926 -0.1407 -0.2089
    1PPC    PO464975   7.421  28.284   7.447  0.1035  0.4818  0.0532
    1PPC    GL164976   7.278  28.434   7.111 -0.2033 -0.0524  0.0562
    1PPC    GL264977   7.024  28.441   6.828 -0.1851 -0.0498 -0.1072
    1PPC    C1B64978   7.014  28.793   6.505  0.1780 -0.2753  0.0531
    1PPC    C2B64979   6.761  29.086   6.221  0.0517  0.0226  0.3477
    1PPC    C3B64980   6.469  29.462   6.174 -0.0054 -0.1017 -0.2140
    1PPC    C4B64981   6.376  29.868   5.949  0.2428 -0.0667  0.2276
    1PPC    NC364982  26.810   1.214   6.234  0.1884  0.1197 -0.1635
    1PPC    PO464983  27.068   1.644   6.450 -0.0006  0.2471  0.1288
    1PPC    GL164984  27.014   1.672   6.014  0.0328 -0.0203  0.1258
    1PPC    GL264985  26.992   1.598   5.753 -0.2543 -0.0482  0.0983
    1PPC    C1B64986  26.980   1.579   5.185  0.0174 -0.4084 -0.0898
    1PPC    C2B64987  26.616   1.313   4.997 -0.1405 -0.0532  0.0547
    1PPC    C3B64988  26.494   1.161   4.700 -0.1837  0.0421 -0.0476
    1PPC    C4B64989  26.480   0.914   4.371 -0.4639  0.0335 -0.0278
    1PPC    NC364990   4.897   5.020   7.140  0.1242 -0.2742 -0.0108
    1PPC    PO464991   5.133   5.400   7.062 -0.1416 -0.2995  0.0459
    1PPC    GL164992   5.348   5.437   6.639 -0.0207  0.0802  0.4909
    1PPC    GL264993   5.438   5.604   6.348  0.1507  0.1173 -0.2307
    1PPC    C1B64994   5.539   5.790   5.902 -0.1142  0.0432 -0.2891
    1PPC    C2B64995   5.601   5.881   5.435 -0.1177  0.1352  0.0043
    1PPC    C3B64996   5.291   6.018   5.128 -0.1243  0.0295 -0.0667
    1PPC    C4B64997   5.052   6.423   5.089  0.2893  0.1286  0.1069
    1PPC    NC364998  18.316  25.587   7.032  0.1011  0.0737 -0.1283
    1PPC    PO464999  18.773  25.687   7.102 -0.0890  0.0436 -0.0840
    1PPC    GL165000  18.728  25.527   6.640  0.1794 -0.0862  0.1646
    1PPC    GL265001  18.534  25.638   6.402 -0.1452  0.0324 -0.2179
    1PPC    C1B65002  18.625  25.692   5.993 -0.1993  0.1565 -0.0794
    1PPC    C2B65003  18.761  25.841   5.570  0.0009  0.0587  0.3543
    1PPC    C3B65004  18.488  25.743   5.208  0.0279  0.0933 -0.1548
    1PPC    C4B65005  18.043  25.740   5.205 -0.0736 -0.2360 -0.2086
    1PPC    NC365006   2.427  24.842   6.506 -0.2602 -0.1131  0.2687
    1PPC    PO465007   2.133  25.175   6.413  0.0891 -0.2513 -0.0899
    1PPC    GL165008   1.751  25.080   6.202 -0.0150  0.0035  0.2842
    1PPC    GL265009   1.628  24.926   5.992 -0.2941  0.3618 -0.0358
    1PPC    C1B65010   1.617  25.030   5.631 -0.2392  0.0331 -0.1139
    1PPC    C2B65011   1.745  25.023   5.122 -0.0666 -0.1615 -0.1609
    1PPC    C3B65012   2.033  25.016   4.844 -0.1312 -0.3926 -0.1131
    1PPC    C4B65013   2.421  24.758   4.678 -0.2586 -0.1736 -0.0829
    1PPC    NC365014   0.752  24.714   6.521  0.2090 -0.1401  0.1424
    1PPC    PO465015   1.253  24.881   6.505 -0.3522 -0.4075 -0.1628
    1PPC    GL165016   1.244  24.607   6.212 -0.1098  0.0186  0.1246
    1PPC    GL265017   1.053  24.277   6.230  0.0433  0.0179  0.2602
    1PPC    C1B65018   0.916  24.225   5.754  0.3974 -0.2715 -0.1367
    1PPC    C2B65019   0.624  24.375   5.503  0.1068 -0.0210 -0.1097
    1PPC    C3B65020   0.417  24.372   5.160  0.0752  0.3166 -0.3301
    1PPC    C4B65021   0.176  24.355   4.872 -0.0716 -0.0574 -0.2377
    1PPC    NC365022  18.190   5.995   7.634  0.0811 -0.2968 -0.2341
    1PPC    PO465023  18.074   6.167   7.252  0.1191  0.0063  0.0481
    1PPC    GL165024  17.877   6.065   7.052 -0.0107  0.1412  0.4353
    1PPC    GL265025  17.772   5.936   6.897 -0.0461  0.3299 -0.1917
    1PPC    C1B65026  17.915   6.152   6.525  0.1464 -0.0721 -0.1008
    1PPC    C2B65027  17.958   6.349   6.152 -0.1507 -0.2366  0.0654
    1PPC    C3B65028  17.580   6.438   5.903  0.1992  0.1612 -0.0990
    1PPC    C4B65029  17.182   6.237   5.859  0.2103  0.1548  0.1169
    1PPC    NC365030   3.729   0.104   7.108  0.1977  0.0181 -0.3654
    1PPC    PO465031   4.176   0.315   7.167  0.0214  0.1434  0.0651
    1PPC    GL165032   4.017   0.323   6.732 -0.0549 -0.2419  0.1048
    1PPC    GL265033   3.966   0.345   6.358 -0.1952 -0.1735  0.0858
    1PPC    C1B65034   4.107   0.158   6.026 -0.3551 -0.1526 -0.0838
    1PPC    C2B65035   4.374  -0.024   5.783  0.3055  0.1591 -0.3156
    1PPC    C3B65036   4.487  -0.064   5.308 -0.0018 -0.0189 -0.0883
    1PPC    C4B65037   4.697  -0.351   4.989  0.1501 -0.1309  0.1360
    1PPC    NC365038  11.170   8.745   7.607 -0.0529 -0.0867 -0.1004
    1PPC    PO465039  11.014   8.825   7.220  0.0944  0.1670  0.0331
    1PPC    GL165040  10.889   8.438   7.055  0.3041 -0.1037  0.4169
    1PPC    GL265041  10.727   8.336   6.823 -0.1524 -0.1552  0.4196
    1PPC    C1B65042  10.861   8.352   6.398 -0.0672  0.0909 -0.0220
    1PPC    C2B65043  11.095   8.468   6.063  0.2095  0.0010 -0.0826
    1PPC    C3B65044  11.388   8.630   5.822 -0.1592 -0.2097  0.1573
    1PPC    C4B65045  11.656   8.888   5.735 -0.0384 -0.1297 -0.1097
    1PPC    NC365046  24.034  12.931   6.739 -0.0323  0.1187  0.2062
    1PPC    PO465047  23.744  12.627   6.608  0.0718 -0.1069  0.2825
    1PPC    GL165048  23.319  12.492   6.418 -0.0001  0.4145 -0.2027
    1PPC    GL265049  23.197  12.381   6.148 -0.1487 -0.3137 -0.0709
    1PPC    C1B65050  22.996  12.265   5.823  0.1847  0.0979 -0.1643
    1PPC    C2B65051  22.608  12.450   5.852  0.3391  0.3329 -0.0178
    1PPC    C3B65052  22.310  12.599   5.616  0.2808  0.2677 -0.1378
    1PPC    C4B65053  22.183  12.759   5.260  0.1300 -0.2615 -0.1477
    1PPC    NC365054   8.586  24.863   7.182 -0.1853 -0.0191  0.0177
    1PPC    PO465055   8.409  25.036   6.841  0.2289 -0.1937  0.1152
    1PPC    GL165056   8.451  25.024   6.329  0.2320  0.3165 -0.2383
    1PPC    GL265057   8.498  25.103   6.004  0.1486 -0.3760  0.1819
    1PPC    C1B65058   8.466  25.247   5.600 -0.0348 -0.0414  0.2226
    1PPC    C2B65059   8.263  25.654   5.350 -0.0601  0.0176 -0.1181
    1PPC    C3B65060   8.128  25.658   4.841 -0.0517  0.0627 -0.1113
    1PPC    C4B65061   8.259  25.530   4.465 -0.1733 -0.0008  0.0998
    1PPC    NC365062   2.421  28.695   6.987 -0.1068 -0.1369 -0.1000
    1PPC    PO465063   2.003  28.972   6.878 -0.2259  0.0671 -0.2413
    1PPC    GL165064   1.906  29.268   6.563  0.0469 -0.3739  0.2535
    1PPC    GL265065   1.816  29.402   6.409  0.0941 -0.1066  0.2244
    1PPC    C1B65066   1.663  29.626   6.012 -0.0029  0.0857  0.0978
    1PPC    C2B65067   1.518  29.801   5.564  0.2546 -0.0339 -0.2344
    1PPC    C3B65068   1.526  30.034   5.220 -0.1362 -0.0566  0.0061
    1PPC    C4B65069   1.385  30.490   5.240 -0.0664 -0.0567 -0.0492
    1PPC    NC365070   1.497   0.119   7.011 -0.2039  0.2220 -0.0121
    1PPC    PO465071   1.150  -0.005   6.756 -0.1804 -0.2399  0.1211
    1PPC    GL165072   0.962   0.248   6.456 -0.1415  0.0685 -0.0640
    1PPC    GL265073   0.721   0.238   6.223 -0.1215 -0.0340  0.0900
    1PPC    C1B65074   0.664   0.108   5.771 -0.1845  0.0225 -0.1463
    1PPC    C2B65075   0.833   0.483   5.502  0.0333 -0.0780  0.1419
    1PPC    C3B65076   0.823   0.712   5.085 -0.2276 -0.0006  0.0153
    1PPC    C4B65077   0.677   0.940   4.703 -0.0887  0.1763 -0.1001
    1PPC    NC365078   5.294  26.518   7.363 -0.0080  0.0871  0.2001
    1PPC    PO465079   5.426  26.845   7.042  0.3090  0.0261 -0.1078
    1PPC    GL165080   5.201  26.656   6.642  0.0924 -0.0319 -0.1909
    1PPC    GL265081   5.124  26.523   6.334  0.1779 -0.0838 -0.4705
    1PPC    C1B65082   5.320  26.444   5.943 -0.0461  0.1203 -0.0426
    1PPC    C2B65083   5.463  26.267   5.540 -0.0070 -0.1762  0.1074
    1PPC    C3B65084   5.575  26.559   5.184  0.0675 -0.1811 -0.1524
    1PPC    C4B65085   5.583  26.873   4.756  0.0999  0.0275 -0.1792
    1PPC    NC365086  17.518   3.556   7.982 -0.0727  0.1269 -0.1479
    1PPC    PO465087  17.271   3.878   7.703 -0.2008  0.1502 -0.0036
    1PPC    GL165088  17.259   3.900   7.219 -0.2030 -0.2169 -0.1093
    1PPC    GL265089  17.058   4.087   6.982  0.2665  0.0937  0.2330
    1PPC    C1B65090  16.701   4.102   6.721  0.2017 -0.2245 -0.3584
    1PPC    C2B65091  16.390   3.936   6.519  0.0443  0.0773  0.0970
    1PPC    C3B65092  16.027   3.697   6.594 -0.1569 -0.1021 -0.3381
    1PPC    C4B65093  15.616   3.768   6.831  0.1812 -0.0457 -0.2068
    1PPC    NC365094   1.673   1.535   7.473 -0.0442 -0.2484 -0.2847
    1PPC    PO465095   2.067   1.218   7.318 -0.0399 -0.3222 -0.3224
    1PPC    GL165096   2.058   0.998   6.878  0.0732 -0.1799  0.1393
    1PPC    GL265097   2.270   0.965   6.556  0.0550 -0.1647 -0.0174
    1PPC    C1B65098   2.295   0.934   6.157  0.2786  0.0111 -0.0942
    1PPC    C2B65099   2.172   0.928   5.752 -0.1525 -0.0133 -0.0522
    1PPC    C3B65100   1.862   0.681   5.638  0.0847 -0.0660  0.0524
    1PPC    C4B65101   1.352   0.592   5.501 -0.2015 -0.0184  0.0249
    1PPC    NC365102  16.092   6.278   8.106  0.1104  0.2279 -0.2255
    1PPC    PO465103  16.062   5.872   8.381 -0.1065  0.1287  0.2374
    1PPC    GL165104  15.940   5.756   7.983  0.2702 -0.0166  0.2642
    1PPC    GL265105  15.894   5.796   7.616 -0.0871 -0.1165  0.1375
    1PPC    C1B65106  15.709   5.675   7.265 -0.0005 -0.1293  0.0714
    1PPC    C2B65107  15.786   5.581   6.780  0.1150  0.0648  0.1102
    1PPC    C3B65108  16.186   5.750   6.506 -0.1248  0.2436  0.0073
    1PPC    C4B65109  16.493   6.046   6.586  0.0169 -0.1971  0.0928
    1PPC    NC365110  22.717  17.057   6.495 -0.1712 -0.0197  0.0445
    1PPC    PO465111  23.186  17.182   6.576 -0.1541  0.1074  0.2497
    1PPC    GL165112  23.186  17.172   6.117  0.0115  0.0693 -0.1142
    1PPC    GL265113  23.293  16.998   5.907  0.2203 -0.2098 -0.0641
    1PPC    C1B65114  23.208  17.065   5.397 -0.3863  0.2171 -0.2294
    1PPC    C2B65115  23.297  17.029   4.891  0.3755 -0.0852 -0.1882
    1PPC    C3B65116  23.262  17.129   4.487  0.0459  0.0954  0.0003
    1PPC    C4B65117  23.330  17.065   4.085 -0.2785 -0.0849 -0.4373
    1PPC    NC365118   6.943  25.398   7.372  0.1330 -0.0361 -0.3497
    1PPC    PO465119   6.767  25.603   6.976 -0.0123 -0.0540  0.0513
    1PPC    GL165120   6.723  25.665   6.469 -0.1877  0.1349 -0.0518
    1PPC    GL265121   6.569  25.747   6.186  0.2677 -0.1174  0.0512
    1PPC    C1B65122   6.638  25.748   5.785  0.0596  0.0742  0.3122
    1PPC    C2B65123   6.996  25.534   5.629 -0.0369  0.3690  0.1187
    1PPC    C3B65124   7.512  25.463   5.573 -0.1142 -0.0475  0.1298
    1PPC    C4B65125   7.969  25.458   5.672 -0.2784 -0.2784 -0.2375
    1PPC    NC365126   0.963  10.775   6.017  0.1213 -0.0665 -0.0090
    1PPC    PO465127   0.789  10.385   6.318  0.2415 -0.2376  0.0451
    1PPC    GL165128   1.034  10.288   6.029  0.0465 -0.0526  0.0745
    1PPC    GL265129   1.033  10.193   5.802 -0.0751 -0.1604 -0.0444
    1PPC    C1B65130   1.305  10.136   5.471  0.0878  0.5989 -0.0886
    1PPC    C2B65131   1.556  10.055   5.130  0.0275  0.1508  0.1409
    1PPC    C3B65132   1.717  10.363   4.821 -0.3393 -0.1043 -0.0340
    1PPC    C4B65133   2.042  10.590   4.591 -0.2518 -0.0205 -0.1539
    1PPC    NC365134   3.446  13.028   6.170 -0.1235  0.3820  0.1254
    1PPC    PO465135   3.720  12.802   6.503 -0.2470  0.1654  0.1638
    1PPC    GL165136   3.871  12.744   6.047  0.3289  0.6159 -0.3214
    1PPC    GL265137   3.927  12.559   5.795  0.0436  0.0725 -0.1943
    1PPC    C1B65138   3.817  12.487   5.455 -0.0058  0.1136  0.3416
    1PPC    C2B65139   3.599  12.314   5.191  0.1578 -0.1930 -0.3511
    1PPC    C3B65140   3.310  12.179   5.025 -0.2648 -0.1013  0.0711
    1PPC    C4B65141   2.997  12.419   4.635 -0.0284  0.0936 -0.0890
    1PPC    NC365142  20.933   8.488   7.637  0.1520  0.0090  0.2898
    1PPC    PO465143  21.070   8.352   7.245  0.1856 -0.2937 -0.3110
    1PPC    GL165144  21.062   8.528   6.770 -0.1386  0.0042  0.2018
    1PPC    GL265145  21.116   8.626   6.425  0.3348  0.0271  0.0695
    1PPC    C1B65146  20.912   8.688   5.997  0.1608 -0.0131 -0.0095
    1PPC    C2B65147  20.863   8.617   5.643  0.0211 -0.0868  0.2816
    1PPC    C3B65148  21.060   8.645   5.269  0.1188 -0.0002 -0.0437
    1PPC    C4B65149  21.531   8.610   5.221 -0.1946  0.1043  0.0348
    1PPC    NC365150   2.387  16.334   6.068  0.4110  0.1740 -0.1491
    1PPC    PO465151   2.032  16.208   6.016  0.2216  0.0098  0.0102
    1PPC    GL165152   1.832  15.808   5.972  0.0555  0.1710  0.1480
    1PPC    GL265153   1.765  15.676   5.780 -0.1583  0.0139 -0.0023
    1PPC    C1B65154   1.519  15.445   5.454 -0.2598 -0.2358 -0.0189
    1PPC    C2B65155   1.543  15.382   5.142  0.0851  0.2148 -0.0372
    1PPC    C3B65156   1.503  15.362   4.737  0.2123  0.0066  0.0061
    1PPC    C4B65157   1.343  15.601   4.326 -0.0258  0.2770  0.2099
    1PPC    NC365158  12.987   7.793   7.837  0.1726  0.0328 -0.1335
    1PPC    PO465159  13.369   7.494   7.832 -0.2629  0.2042  0.0662
    1PPC    GL165160  13.091   7.433   7.435 -0.0370 -0.0163 -0.0442
    1PPC    GL265161  12.920   7.494   7.117  0.1412  0.0635  0.1446
    1PPC    C1B65162  12.964   7.787   6.854  0.0928 -0.0383  0.3089
    1PPC    C2B65163  12.661   7.917   6.482 -0.2976  0.0185  0.1622
    1PPC    C3B65164  12.754   8.216   6.076 -0.0029 -0.1053  0.3317
    1PPC    C4B65165  12.604   8.240   5.638 -0.0931 -0.2178  0.2590
    1PPC    NC365166   6.729  14.677   6.937  0.1075  0.2281 -0.2274
    1PPC    PO465167   6.368  14.540   6.695  0.3287 -0.0890 -0.0079
    1PPC    GL165168   6.083  14.694   6.352 -0.3388 -0.2989 -0.0354
    1PPC    GL265169   6.140  14.662   6.051  0.1170  0.1717 -0.1991
    1PPC    C1B65170   6.175  14.508   5.587  0.0401  0.0397 -0.1344
    1PPC    C2B65171   6.206  14.165   5.195 -0.0006 -0.0100 -0.1350
    1PPC    C3B65172   5.926  13.872   5.036  0.0388  0.1319  0.2188
    1PPC    C4B65173   5.715  13.605   4.815 -0.1072  0.0023 -0.0273
    1PPC    NC365174  11.983   4.945   7.445  0.1406  0.1257  0.0089
    1PPC    PO465175  11.833   4.599   7.578 -0.0536 -0.5912  0.2047
    1PPC    GL165176  11.919   4.246   7.327 -0.0842 -0.0074 -0.0966
    1PPC    GL265177  12.156   4.145   7.030  0.2015  0.1305 -0.0642
    1PPC    C1B65178  12.282   3.716   6.790 -0.1612 -0.3159  0.2693
    1PPC    C2B65179  12.537   3.483   6.413  0.2994  0.2135  0.1111
    1PPC    C3B65180  12.765   3.234   6.053  0.3402 -0.1674  0.3515
    1PPC    C4B65181  12.898   3.080   5.607 -0.1471  0.1294 -0.1638
    1PPC    NC365182  20.789  20.288   6.973 -0.0021  0.1299  0.1520
    1PPC    PO465183  21.247  20.430   6.937 -0.1139  0.1579 -0.1078
    1PPC    GL165184  21.409  20.344   6.506  0.1223  0.3020 -0.2491
    1PPC    GL265185  21.422  20.440   6.122  0.1565 -0.0872  0.0128
    1PPC    C1B65186  21.318  20.579   5.699 -0.0561 -0.0493  0.4609
    1PPC    C2B65187  21.365  20.809   5.312 -0.1246  0.1403  0.0389
    1PPC    C3B65188  21.782  20.668   5.098 -0.1094 -0.0831 -0.0532
    1PPC    C4B65189  22.237  20.739   5.305  0.1048  0.3821 -0.1817
    1PPC    NC365190   1.722   2.904   7.144 -0.0322 -0.0173 -0.0357
    1PPC    PO465191   1.822   3.060   6.847  0.3843 -0.2469  0.0430
    1PPC    GL165192   1.757   3.332   6.603 -0.0631 -0.4205 -0.0448
    1PPC    GL265193   1.941   3.497   6.317  0.0364 -0.0950 -0.0934
    1PPC    C1B65194   2.198   3.871   6.073 -0.0292 -0.1896  0.2437
    1PPC    C2B65195   2.177   4.124   5.689  0.2931 -0.1572  0.1436
    1PPC    C3B65196   2.432   4.175   5.358  0.0446 -0.2507 -0.0083
    1PPC    C4B65197   2.716   4.240   5.106  0.1493 -0.2538 -0.2203
    1PPC    NC365198   0.859  23.599   7.217 -0.2998  0.2479 -0.2511
    1PPC    PO465199   0.858  23.307   6.920  0.0699 -0.0298  0.1511
    1PPC    GL165200   0.732  23.340   6.415  0.1683 -0.0528 -0.2231
    1PPC    GL265201   0.484  23.344   6.094 -0.0598  0.2441  0.0774
    1PPC    C1B65202   0.124  23.415   5.883  0.1764 -0.1485  0.0317
    1PPC    C2B65203  -0.183  23.638   5.527 -0.3781 -0.2317  0.2536
    1PPC    C3B65204  -0.484  23.771   5.278  0.0970  0.2305  0.1588
    1PPC    C4B65205  -0.811  23.667   5.017  0.1002  0.0322  0.4693
    1PPC    NC365206  19.362   4.718   7.982 -0.4544  0.0929 -0.1654
    1PPC    PO465207  19.467   4.830   7.603 -0.0290  0.2616  0.3126
    1PPC    GL165208  19.565   4.973   7.176  0.0555 -0.0636 -0.0485
    1PPC    GL265209  19.591   4.974   6.872 -0.0504  0.3555 -0.5016
    1PPC    C1B65210  19.504   5.009   6.388 -0.0268 -0.0947 -0.1380
    1PPC    C2B65211  19.500   5.351   6.116 -0.0864 -0.1347 -0.1729
    1PPC    C3B65212  19.247   5.320   5.690  0.1243 -0.4190 -0.0415
    1PPC    C4B65213  19.285   5.221   5.275 -0.0990 -0.0510  0.2929
    1PPC    NC365214   5.400  12.461   6.857  0.0053  0.0740 -0.0441
    1PPC    PO465215   5.711  12.648   7.116  0.0394 -0.1242 -0.2839
    1PPC    GL165216   5.414  12.969   6.794  0.1694  0.0994  0.0261
    1PPC    GL265217   5.171  13.114   6.586 -0.0430  0.0947  0.0229
    1PPC    C1B65218   5.198  13.241   6.195  0.2852  0.0881 -0.1521
    1PPC    C2B65219   5.003  13.266   5.792 -0.0661  0.3612 -0.1901
    1PPC    C3B65220   4.752  13.492   5.616  0.4111  0.1558 -0.2141
    1PPC    C4B65221   4.516  13.886   5.526 -0.3247  0.1776  0.0871
    1PPC    NC365222   5.979  17.914   6.108  0.1586  0.0401 -0.0572
    1PPC    PO465223   5.991  18.389   6.046  0.0730  0.2159 -0.1872
    1PPC    GL165224   5.979  18.184   5.728  0.2950 -0.1148 -0.1012
    1PPC    GL265225   6.090  18.024   5.412  0.4043  0.0320 -0.0861
    1PPC    C1B65226   6.132  17.802   4.974 -0.0130 -0.2576  0.0341
    1PPC    C2B65227   6.237  17.476   4.808 -0.0869 -0.0579 -0.1418
    1PPC    C3B65228   6.404  17.365   4.471 -0.2872  0.1953 -0.2048
    1PPC    C4B65229   6.440  17.020   4.253  0.0395  0.1825 -0.1805
    1PPC    NC365230   8.532   7.924   7.616 -0.3131 -0.0245 -0.2801
    1PPC    PO465231   8.691   8.377   7.633 -0.2815  0.0325 -0.1231
    1PPC    GL165232   8.993   8.154   7.385 -0.0214  0.1914  0.0029
    1PPC    GL265233   8.906   7.877   7.199  0.0615  0.0746 -0.0375
    1PPC    C1B65234   8.753   7.752   6.740 -0.6267  0.3414 -0.4514
    1PPC    C2B65235   8.689   7.949   6.328 -0.0437 -0.0016 -0.3010
    1PPC    C3B65236   8.810   8.263   5.960  0.1596 -0.1712  0.0266
    1PPC    C4B65237   8.507   8.699   5.787  0.1757 -0.1696  0.0995
    1PPC    NC365238   4.220  27.623   7.359  0.0456 -0.2733  0.3303
    1PPC    PO465239   3.874  27.667   7.151 -0.2941  0.0480 -0.0140
    1PPC    GL165240   3.980  27.811   6.732 -0.2959  0.1806  0.2425
    1PPC    GL265241   4.092  27.970   6.504  0.1278  0.1110  0.0027
    1PPC    C1B65242   3.966  28.067   5.928 -0.2926 -0.2703  0.2572
    1PPC    C2B65243   4.239  28.185   5.557  0.3323 -0.0463  0.1809
    1PPC    C3B65244   4.442  28.083   5.277 -0.0739 -0.2614  0.1187
    1PPC    C4B65245   4.645  27.754   5.172  0.2814  0.1061 -0.0553
    1PPC    NC365246   5.389  13.501   6.973  0.0002 -0.0658  0.3714
    1PPC    PO465247   4.944  13.547   6.783 -0.2472 -0.0176 -0.0350
    1PPC    GL165248   4.679  13.849   6.632 -0.1291 -0.1793 -0.1035
    1PPC    GL265249   4.578  13.869   6.367 -0.3516 -0.0865  0.0916
    1PPC    C1B65250   4.319  13.609   6.031  0.3496  0.1861 -0.3167
    1PPC    C2B65251   4.262  13.417   5.644  0.0951  0.1783 -0.0181
    1PPC    C3B65252   4.371  13.330   5.235  0.0573 -0.1990 -0.0256
    1PPC    C4B65253   4.304  13.291   4.800  0.0045 -0.1170  0.2258
    1PPC    NC365254  13.974   5.820   7.857 -0.2172 -0.0253  0.0319
    1PPC    PO465255  14.289   6.043   8.230 -0.2549 -0.1553  0.1010
    1PPC    GL165256  14.405   6.082   7.837 -0.1414  0.0556  0.2001
    1PPC    GL265257  14.429   5.934   7.483  0.0572  0.3636 -0.0264
    1PPC    C1B65258  14.399   5.971   7.034  0.1490  0.0712 -0.4232
    1PPC    C2B65259  14.267   6.027   6.646 -0.0326 -0.1475  0.2315
    1PPC    C3B65260  14.358   5.953   6.251  0.0100  0.1382  0.3720
    1PPC    C4B65261  14.340   5.857   5.810 -0.2240  0.1035  0.2796
    1PPC    NC365262  13.003  23.070   7.246 -0.0821  0.1710  0.1406
    1PPC    PO465263  13.419  23.130   7.148  0.0872 -0.1430  0.0232
    1PPC    GL165264  13.288  23.105   6.800  0.1537  0.0342  0.2714
    1PPC    GL265265  13.460  23.192   6.583 -0.3075 -0.1774  0.3964
    1PPC    C1B65266  13.689  23.273   6.178 -0.1640 -0.0407  0.0660
    1PPC    C2B65267  13.818  23.166   5.729 -0.2096  0.1452  0.0749
    1PPC    C3B65268  14.023  23.337   5.311 -0.2161  0.1092  0.2167
    1PPC    C4B65269  14.218  23.602   4.981  0.1871  0.0934 -0.0566
    1PPC    NC365270   4.665  22.775   5.728 -0.2755 -0.0008 -0.0755
    1PPC    PO465271   4.415  22.989   5.485 -0.1142  0.3422  0.0490
    1PPC    GL165272   4.390  23.335   5.290  0.0919 -0.0631  0.2465
    1PPC    GL265273   4.629  23.655   5.327 -0.0229 -0.1161  0.0587
    1PPC    C1B65274   4.965  23.671   4.910  0.0933  0.2239 -0.0253
    1PPC    C2B65275   5.121  23.828   4.557  0.1248  0.3105 -0.0091
    1PPC    C3B65276   5.311  23.878   4.192 -0.0820  0.0145 -0.1324
    1PPC    C4B65277   5.671  23.962   3.894  0.0021 -0.0767  0.2161
    1PPC    NC365278  26.938  13.105   6.357  0.3280  0.0171 -0.1256
    1PPC    PO465279  26.728  12.758   6.258 -0.0548 -0.2721 -0.1263
    1PPC    GL165280  26.743  12.924   5.881  0.0304  0.1952  0.1376
    1PPC    GL265281  26.493  13.073   5.696  0.2829  0.0360  0.1965
    1PPC    C1B65282  26.322  13.085   5.171  0.1335  0.1684  0.1108
    1PPC    C2B65283  26.481  13.278   4.820  0.0879  0.1426  0.2560
    1PPC    C3B65284  26.786  13.276   4.566 -0.1937  0.0104  0.1109
    1PPC    C4B65285  26.932  13.619   4.396  0.0686  0.3420  0.2267
    1PPC    NC365286  22.112   1.736   7.117  0.0931 -0.3231  0.1890
    1PPC    PO465287  22.071   1.764   6.578  0.0950  0.1437 -0.3587
    1PPC    GL165288  21.960   1.756   6.135  0.0252  0.0385  0.3565
    1PPC    GL265289  21.848   1.789   5.690 -0.0976  0.1064 -0.2609
    1PPC    C1B65290  21.861   1.920   5.238 -0.1158 -0.0565 -0.1203
    1PPC    C2B65291  21.676   1.779   4.838 -0.0567 -0.2394  0.2013
    1PPC    C3B65292  21.312   1.619   4.663 -0.0340 -0.1281 -0.1589
    1PPC    C4B65293  21.033   1.458   4.373 -0.2020  0.1727  0.0105
    1PPC    NC365294   9.343   0.863   7.987  0.2255 -0.1595 -0.1171
    1PPC    PO465295   9.490   1.201   7.725 -0.2380  0.0781 -0.0094
    1PPC    GL165296   9.347   1.464   7.414  0.0142 -0.0140 -0.1736
    1PPC    GL265297   9.064   1.601   7.157  0.2899 -0.0781 -0.0162
    1PPC    C1B65298   8.903   1.389   6.885  0.0136 -0.3247  0.0690
    1PPC    C2B65299   8.654   1.191   6.501  0.2831 -0.0188 -0.0047
    1PPC    C3B65300   8.731   0.739   6.323  0.5989 -0.0756  0.1603
    1PPC    C4B65301   8.810   0.399   6.077 -0.3510  0.0946 -0.0510
    1PPC    NC365302   6.033  22.530   6.306 -0.0407 -0.0362 -0.0560
    1PPC    PO465303   6.172  22.211   6.080  0.1420 -0.1984 -0.0763
    1PPC    GL165304   5.911  22.345   5.702  0.1981 -0.0259 -0.1143
    1PPC    GL265305   5.866  22.380   5.368 -0.4529  0.0459 -0.3263
    1PPC    C1B65306   5.700  22.523   5.044 -0.1825 -0.1377  0.1548
    1PPC    C2B65307   5.781  22.623   4.551  0.1740 -0.3735 -0.2024
    1PPC    C3B65308   6.024  22.512   4.108 -0.1568 -0.0357 -0.0963
    1PPC    C4B65309   5.936  22.555   3.611 -0.2629 -0.1406  0.0807
    1PPC    NC365310   2.832   5.083   6.602  0.1011  0.0895  0.0302
    1PPC    PO465311   2.761   4.711   6.927 -0.0212 -0.1890 -0.2817
    1PPC    GL165312   3.135   4.644   6.664  0.1472 -0.4964  0.3150
    1PPC    GL265313   3.239   4.857   6.341 -0.0900 -0.1199 -0.0795
    1PPC    C1B65314   3.592   4.650   6.201  0.1697 -0.1055 -0.1549
    1PPC    C2B65315   3.857   4.855   5.877 -0.0496  0.0704  0.0203
    1PPC    C3B65316   3.820   5.065   5.536 -0.2850 -0.0153  0.1544
    1PPC    C4B65317   3.947   5.363   5.344 -0.0083 -0.0139  0.1460
    1PPC    NC365318  19.426  19.662   7.830 -0.3166 -0.0834 -0.0527
    1PPC    PO465319  18.972  19.614   7.607 -0.1483 -0.0181 -0.1637
    1PPC    GL165320  18.940  19.717   7.199  0.2178  0.0368  0.0395
    1PPC    GL265321  19.041  19.768   6.806  0.0261  0.1491 -0.1436
    1PPC    C1B65322  19.055  20.041   6.489 -0.2963  0.0979 -0.1178
    1PPC    C2B65323  18.809  19.989   6.099 -0.1642 -0.2255  0.0173
    1PPC    C3B65324  18.693  20.179   5.638 -0.5169  0.0215 -0.1421
    1PPC    C4B65325  18.512  20.483   5.484  0.0347 -0.0148  0.1016
    1PPC    NC365326   6.993  15.451   7.050 -0.0225 -0.0765  0.2390
    1PPC    PO465327   7.067  15.070   6.891  0.1363  0.2737  0.1563
    1PPC    GL165328   7.134  15.072   6.474  0.1460  0.4081 -0.0054
    1PPC    GL265329   7.100  15.074   6.108 -0.1571 -0.0788  0.3386
    1PPC    C1B65330   7.017  15.086   5.681 -0.0666 -0.0567 -0.0922
    1PPC    C2B65331   7.255  15.123   5.299  0.0540 -0.0514  0.1942
    1PPC    C3B65332   7.540  14.852   5.082  0.0042 -0.3396  0.2832
    1PPC    C4B65333   7.396  14.648   4.782 -0.3216 -0.1311  0.1597
    1PPC    NC365334   4.555  28.683   6.987 -0.0695  0.0106 -0.1746
    1PPC    PO465335   4.902  28.724   6.907 -0.0699  0.2022  0.1278
    1PPC    GL165336   4.960  28.813   6.545  0.3540  0.0565  0.2711
    1PPC    GL265337   5.047  29.124   6.344 -0.2434 -0.1122  0.0881
    1PPC    C1B65338   4.993  29.340   5.963 -0.1239  0.2472 -0.1792
    1PPC    C2B65339   4.695  29.658   5.776  0.1543  0.2125 -0.0217
    1PPC    C3B65340   4.187  29.677   5.817  0.1662  0.3010 -0.1274
    1PPC    C4B65341   3.819  29.905   5.916  0.0785  0.1022 -0.0984
    1PPC    NC365342  20.765  27.748   6.736  0.1079  0.4403 -0.4711
    1PPC    PO465343  20.298  27.740   6.920  0.1371  0.2311  0.1793
    1PPC    GL165344  20.137  27.438   6.576  0.1029 -0.1080 -0.3580
    1PPC    GL265345  19.838  27.406   6.415  0.1237  0.1678  0.4101
    1PPC    C1B65346  19.611  27.555   6.000  0.0693  0.0978  0.1014
    1PPC    C2B65347  19.394  27.771   5.683  0.2000 -0.0886 -0.0917
    1PPC    C3B65348  19.369  28.057   5.409  0.0740  0.1565  0.4351
    1PPC    C4B65349  18.977  28.271   5.504 -0.3149 -0.1434  0.1970
    1PPC    NC365350  26.135  23.980   7.593  0.2111  0.0293 -0.2170
    1PPC    PO465351  26.113  24.116   7.112 -0.3968  0.2396  0.0993
    1PPC    GL165352  26.069  23.928   6.708 -0.2287 -0.0661  0.0545
    1PPC    GL265353  25.930  23.959   6.447 -0.0668  0.1835 -0.1424
    1PPC    C1B65354  25.961  23.989   5.974  0.2439  0.1980  0.0328
    1PPC    C2B65355  25.956  23.699   5.617  0.1596 -0.0087 -0.0868
    1PPC    C3B65356  25.595  23.585   5.328 -0.0900  0.1199  0.1853
    1PPC    C4B65357  25.633  23.584   4.919 -0.1083  0.1605  0.2215
    1PPC    NC365358  15.766  24.661   7.298  0.0721  0.3841  0.0848
    1PPC    PO465359  16.088  24.986   7.428 -0.1724  0.0539 -0.4153
    1PPC    GL165360  16.241  24.995   6.950  0.1155 -0.4123 -0.1261
    1PPC    GL265361  16.197  25.080   6.618 -0.0265 -0.1253 -0.1010
    1PPC    C1B65362  16.048  24.988   6.163 -0.2003 -0.4317  0.0637
    1PPC    C2B65363  16.121  24.710   5.874 -0.2044  0.0480 -0.1079
    1PPC    C3B65364  16.451  24.642   5.653 -0.1753 -0.3008 -0.0271
    1PPC    C4B65365  16.684  24.703   5.280  0.2386 -0.0345  0.5968
    1PPC    NC365366  26.981   4.935   6.856  0.1666  0.0055 -0.1075
    1PPC    PO465367  27.241   4.611   6.626 -0.1272  0.1154  0.1771
    1PPC    GL165368  27.608   4.579   6.345 -0.1668 -0.2312 -0.0183
    1PPC    GL265369  27.634   4.409   5.999  0.0272  0.3132 -0.3879
    1PPC    C1B65370  27.500   4.310   5.582  0.1722 -0.3756  0.0504
    1PPC    C2B65371  27.567   4.398   5.234  0.0126  0.1692  0.3256
    1PPC    C3B65372  27.631   4.713   4.881  0.1026  0.0353  0.0613
    1PPC    C4B65373  27.816   4.934   4.603  0.1099  0.2403  0.0763
    1PPC    NC365374   9.974   1.130   7.542  0.5214 -0.0616 -0.0887
    1PPC    PO465375  10.057   0.797   7.282 -0.2537 -0.1342 -0.1981
    1PPC    GL165376  10.093   0.844   6.937 -0.1115  0.2283 -0.1041
    1PPC    GL265377  10.075   1.072   6.736  0.2088  0.0061  0.0237
    1PPC    C1B65378  10.187   1.354   6.440  0.0286 -0.0457 -0.1805
    1PPC    C2B65379  10.350   1.452   5.995 -0.1414 -0.1169  0.1210
    1PPC    C3B65380  10.515   1.489   5.595 -0.2361 -0.1200  0.1856
    1PPC    C4B65381  10.727   1.595   5.293  0.1650 -0.1615 -0.1015
    1PPC    NC365382  25.971   0.883   6.593 -0.0893  0.2048  0.1178
    1PPC    PO465383  25.826   0.449   6.769  0.0102  0.2580 -0.2770
    1PPC    GL165384  25.639   0.403   6.417  0.0094 -0.3831  0.0246
    1PPC    GL265385  25.557   0.198   6.091 -0.4478 -0.0233 -0.7364
    1PPC    C1B65386  25.831   0.371   5.747 -0.1335 -0.1370  0.0175
    1PPC    C2B65387  25.676   0.362   5.379 -0.2371  0.2037  0.0410
    1PPC    C3B65388  25.314   0.309   5.167  0.0349  0.0861  0.0836
    1PPC    C4B65389  24.948   0.186   5.020 -0.0319 -0.2684 -0.1950
    1PPC    NC365390  24.285   9.121   6.284  0.0744  0.1781 -0.1700
    1PPC    PO465391  24.404   9.679   6.338  0.0528  0.0663  0.3136
    1PPC    GL165392  24.046   9.564   6.120 -0.0297  0.3002 -0.2881
    1PPC    GL265393  23.865   9.410   5.996 -0.2480 -0.0626  0.3727
    1PPC    C1B65394  23.704   9.365   5.616  0.0742 -0.1413  0.1423
    1PPC    C2B65395  23.607   9.295   5.154  0.0219 -0.0801  0.2229
    1PPC    C3B65396  23.455   9.150   4.808 -0.0741  0.2569  0.1553
    1PPC    C4B65397  23.065   9.026   4.764  0.0389 -0.1778  0.4344
    1PPC    NC365398   6.430  21.879   5.810  0.0094  0.0477 -0.0033
    1PPC    PO465399   6.506  21.519   5.925  0.0319  0.2232  0.0138
    1PPC    GL165400   6.852  21.188   5.774 -0.0172 -0.1561  0.2902
    1PPC    GL265401   6.914  20.970   5.561  0.1517 -0.1009  0.2161
    1PPC    C1B65402   7.036  20.700   5.220 -0.3384  0.1821 -0.0161
    1PPC    C2B65403   7.201  20.525   4.798 -0.4084  0.1049  0.1614
    1PPC    C3B65404   7.188  20.188   4.562 -0.0166 -0.1205  0.2417
    1PPC    C4B65405   7.046  20.030   4.268  0.1054 -0.2663  0.1642
    1PPC    NC365406  20.887  24.561   7.087  0.2317 -0.1296 -0.1213
    1PPC    PO465407  20.730  24.589   6.772  0.0442 -0.4804 -0.1214
    1PPC    GL165408  20.599  24.678   6.415  0.2194 -0.0059 -0.1786
    1PPC    GL265409  20.487  24.580   6.194  0.1009 -0.2320 -0.0067
    1PPC    C1B65410  20.310  24.225   5.839  0.0516 -0.0515  0.0249
    1PPC    C2B65411  19.837  24.056   5.699 -0.3680  0.0160  0.2212
    1PPC    C3B65412  19.512  24.191   5.501 -0.2943  0.1261  0.0402
    1PPC    C4B65413  19.313  24.520   5.173  0.0841  0.0489  0.3535
    1PPC    NC365414   1.187  23.459   6.387  0.4875  0.1801 -0.0573
    1PPC    PO465415   1.468  23.126   6.232 -0.0417  0.0487  0.1076
    1PPC    GL165416   1.536  23.456   5.947  0.0215  0.2618  0.0912
    1PPC    GL265417   1.703  23.495   5.730  0.0254 -0.0226  0.1330
    1PPC    C1B65418   1.910  23.791   5.307 -0.0584  0.0060 -0.1112
    1PPC    C2B65419   1.803  24.071   4.994 -0.2667 -0.0354  0.0446
    1PPC    C3B65420   1.962  24.257   4.629 -0.1344  0.1935  0.1306
    1PPC    C4B65421   1.890  24.665   4.519 -0.1949 -0.1440  0.2164
    1PPC    NC365422  23.905  14.952   6.569 -0.0942  0.4465  0.3023
    1PPC    PO465423  24.318  14.972   6.381 -0.0067 -0.1443  0.4186
    1PPC    GL165424  24.462  15.095   5.860 -0.1379 -0.0338  0.0472
    1PPC    GL265425  24.360  14.956   5.513 -0.0972  0.1608  0.2209
    1PPC    C1B65426  24.428  14.694   5.066 -0.1192 -0.0949  0.0557
    1PPC    C2B65427  24.650  14.384   4.765  0.0496 -0.2468 -0.0998
    1PPC    C3B65428  24.931  14.335   4.413 -0.0785 -0.0098 -0.3751
    1PPC    C4B65429  25.402  14.220   4.521  0.0969  0.1988 -0.0194
    1PPC    NC365430  21.074  11.385   7.736  0.0963 -0.0898 -0.2124
    1PPC    PO465431  20.761  11.511   7.505 -0.0378  0.1622  0.1274
    1PPC    GL165432  20.768  11.660   7.064  0.1446  0.0316  0.0007
    1PPC    GL265433  20.889  11.478   6.774  0.1383 -0.0052  0.3046
    1PPC    C1B65434  20.815  11.277   6.405 -0.0143  0.0241  0.0594
    1PPC    C2B65435  20.961  11.189   6.007 -0.2367 -0.2947 -0.0314
    1PPC    C3B65436  21.162  11.306   5.675  0.1512  0.0914  0.1414
    1PPC    C4B65437  21.451  11.019   5.296 -0.0351  0.2110  0.1737
    1PPC    NC365438   4.154  25.536   6.567  0.2815 -0.0086  0.3426
    1PPC    PO465439   4.002  25.142   6.385  0.1924 -0.1283  0.2666
    1PPC    GL165440   3.911  25.240   5.974 -0.1442 -0.2179 -0.1883
    1PPC    GL265441   3.734  25.376   5.802  0.0686 -0.2153 -0.1492
    1PPC    C1B65442   3.529  25.391   5.376 -0.1088  0.0290 -0.1075
    1PPC    C2B65443   3.414  25.719   5.118  0.2444  0.1408 -0.1427
    1PPC    C3B65444   3.459  26.096   5.039  0.1799  0.1350  0.0842
    1PPC    C4B65445   3.331  26.335   4.728 -0.1040 -0.3081 -0.1170
    1PPC    NC365446  12.265  26.931   7.995  0.2402 -0.1154  0.0166
    1PPC    PO465447  12.382  27.270   7.629 -0.2445  0.1929 -0.0060
    1PPC    GL165448  12.473  27.052   7.206  0.1909 -0.2794 -0.0684
    1PPC    GL265449  12.557  26.950   6.849  0.1275  0.4350  0.0081
    1PPC    C1B65450  12.702  27.058   6.497  0.0955 -0.0731  0.1879
    1PPC    C2B65451  12.704  27.146   6.079 -0.1048  0.0054 -0.2681
    1PPC    C3B65452  12.642  27.036   5.575 -0.2447  0.0593 -0.1405
    1PPC    C4B65453  12.909  26.803   5.304  0.1734 -0.0384  0.0044
    1PPC    NC365454   5.327  24.286   6.853  0.2201  0.0240 -0.1147
    1PPC    PO465455   5.244  24.511   6.360  0.1736  0.0842  0.0196
    1PPC    GL165456   4.978  24.297   6.051 -0.0803  0.1323 -0.0771
    1PPC    GL265457   5.017  24.198   5.727 -0.0124 -0.2093 -0.0409
    1PPC    C1B65458   4.983  24.190   5.239 -0.2624 -0.0669 -0.1212
    1PPC    C2B65459   5.274  24.347   4.847 -0.2400 -0.0712 -0.1167
    1PPC    C3B65460   5.532  24.303   4.505  0.1611  0.3234  0.0373
    1PPC    C4B65461   5.689  24.506   4.150 -0.0697 -0.2034 -0.1454
    1PPC    NC365462  23.667   6.702   6.419 -0.1875  0.1396 -0.3771
    1PPC    PO465463  23.765   7.200   6.424 -0.1517  0.0588  0.0371
    1PPC    GL165464  23.627   7.252   5.978  0.0479  0.1388  0.1328
    1PPC    GL265465  23.695   7.434   5.704 -0.2458 -0.2628 -0.0527
    1PPC    C1B65466  23.815   7.494   5.351  0.1489  0.0184 -0.0835
    1PPC    C2B65467  23.837   7.636   4.976  0.0571  0.1697 -0.1829
    1PPC    C3B65468  24.090   7.778   4.651  0.1738 -0.1231 -0.0689
    1PPC    C4B65469  23.928   8.012   4.365  0.2918 -0.6744  0.0524
    1PPC    NC365470  18.570   3.980   7.402  0.2702 -0.0073  0.0872
    1PPC    PO465471  18.177   4.080   7.596 -0.3941  0.2029 -0.0777
    1PPC    GL165472  18.202   4.286   7.183 -0.1088 -0.0164 -0.1486
    1PPC    GL265473  18.105   4.282   6.863  0.0046 -0.1988  0.1858
    1PPC    C1B65474  17.827   4.510   6.500 -0.0148  0.1207  0.0826
    1PPC    C2B65475  17.853   4.759   6.071 -0.0660 -0.2435  0.2866
    1PPC    C3B65476  18.022   5.134   5.842  0.3580  0.0434 -0.2805
    1PPC    C4B65477  18.421   5.127   5.609 -0.3485  0.0104  0.1319
    1PPC    NC365478  26.080   3.067   6.660  0.0302  0.0880  0.0443
    1PPC    PO465479  26.006   3.297   6.327 -0.1492  0.1412  0.2173
    1PPC    GL165480  26.127   3.537   6.069  0.3471 -0.0007  0.0980
    1PPC    GL265481  26.117   3.757   5.949  0.0496 -0.0974  0.1731
    1PPC    C1B65482  26.150   3.904   5.482  0.0758  0.0531  0.0125
    1PPC    C2B65483  25.991   3.985   5.099 -0.0803  0.1866  0.1587
    1PPC    C3B65484  25.825   4.146   4.785  0.0060 -0.0664  0.3645
    1PPC    C4B65485  25.942   4.404   4.392  0.1990  0.0432  0.3089
    1PPC    NC365486  16.783  23.868   7.661 -0.0188 -0.1165  0.3447
    1PPC    PO465487  16.970  24.249   7.432 -0.2440 -0.1198  0.1415
    1PPC    GL165488  17.146  24.114   7.067 -0.0341 -0.2166  0.2416
    1PPC    GL265489  17.193  24.159   6.672 -0.2174  0.0754 -0.1480
    1PPC    C1B65490  17.267  23.985   6.240  0.0812 -0.0793  0.0456
    1PPC    C2B65491  17.274  23.655   5.998  0.2502 -0.2726 -0.1564
    1PPC    C3B65492  17.471  23.418   5.745 -0.1199 -0.0806  0.2605
    1PPC    C4B65493  17.545  23.003   5.460 -0.2769  0.3218  0.0247
    1PPC    NC365494  25.843  19.275   6.514 -0.0475 -0.3477  0.0022
    1PPC    PO465495  25.424  19.133   6.465 -0.2015 -0.1895 -0.0069
    1PPC    GL165496  25.104  18.974   6.051 -0.0266  0.0784  0.0394
    1PPC    GL265497  25.032  18.895   5.741  0.2640 -0.3186  0.1401
    1PPC    C1B65498  24.860  19.238   5.490 -0.3251 -0.0261 -0.0173
    1PPC    C2B65499  24.593  19.420   5.075  0.1311  0.0487 -0.1604
    1PPC    C3B65500  24.468  19.447   4.706  0.0351 -0.2580 -0.1916
    1PPC    C4B65501  24.455  19.161   4.387  0.0432 -0.0897 -0.1013
    1PPC    NC365502  25.699   6.159   6.674  0.0113  0.2854 -0.0303
    1PPC    PO465503  25.439   5.839   6.470  0.2263  0.0239  0.1041
    1PPC    GL165504  25.546   5.892   6.171 -0.1387 -0.0218  0.1364
    1PPC    GL265505  25.819   5.879   5.926  0.0323 -0.0752 -0.0530
    1PPC    C1B65506  26.166   6.144   5.732 -0.1586  0.3368 -0.2937
    1PPC    C2B65507  26.458   6.490   5.425  0.0703  0.3674  0.0703
    1PPC    C3B65508  26.866   6.562   5.408 -0.1587  0.4243  0.3955
    1PPC    C4B65509  27.189   6.652   5.664 -0.0647  0.1105 -0.0459
    1PPC    NC365510   6.325  16.977   6.158  0.0912  0.2228 -0.0801
    1PPC    PO465511   6.172  16.739   6.452 -0.1214 -0.0193 -0.1921
    1PPC    GL165512   5.915  16.561   6.209 -0.1549  0.0286 -0.2058
    1PPC    GL265513   5.859  16.599   5.872 -0.2369  0.1518  0.1906
    1PPC    C1B65514   5.706  16.349   5.497  0.0399  0.0427 -0.3343
    1PPC    C2B65515   5.924  16.060   5.116 -0.0781  0.0774  0.1797
    1PPC    C3B65516   5.965  15.958   4.715 -0.1370 -0.0237 -0.1236
    1PPC    C4B65517   6.041  16.115   4.245 -0.4051 -0.1350 -0.1356
    1PPC    NC365518  12.863   4.515   8.637 -0.0289 -0.0183 -0.2248
    1PPC    PO465519  13.039   4.368   8.264 -0.0355 -0.0611  0.1450
    1PPC    GL165520  12.929   4.451   7.857 -0.1686  0.0750 -0.3339
    1PPC    GL265521  12.819   4.423   7.659 -0.0975 -0.3479  0.0053
    1PPC    C1B65522  12.707   4.256   7.198  0.0412  0.3353  0.0462
    1PPC    C2B65523  12.557   4.200   6.724 -0.0794 -0.1126 -0.2106
    1PPC    C3B65524  12.658   4.014   6.377  0.5018 -0.0422  0.3233
    1PPC    C4B65525  12.414   3.866   5.978 -0.2015  0.0567 -0.0811
    1PPC    NC365526   5.969  26.007   6.587 -0.3602 -0.1241 -0.0006
    1PPC    PO465527   5.857  25.932   6.157  0.0167 -0.0714 -0.0731
    1PPC    GL165528   6.237  26.085   6.049 -0.0120  0.1136 -0.0464
    1PPC    GL265529   6.387  26.210   5.803  0.0603 -0.1955 -0.0262
    1PPC    C1B65530   6.256  26.547   5.620  0.0651 -0.3072  0.1091
    1PPC    C2B65531   6.447  26.863   5.306 -0.1809 -0.1651  0.1289
    1PPC    C3B65532   6.451  27.188   5.495  0.2676 -0.1545  0.1114
    1PPC    C4B65533   6.324  27.493   5.458 -0.0216  0.2908 -0.0714
    1PPC    NC365534   5.538   1.830   6.868  0.0231 -0.1667  0.4245
    1PPC    PO465535   5.606   1.464   6.845 -0.3146  0.0194  0.3798
    1PPC    GL165536   5.922   1.396   6.588  0.1026 -0.1000 -0.1858
    1PPC    GL265537   6.064   1.131   6.473 -0.3011 -0.2765 -0.2142
    1PPC    C1B65538   5.961   0.864   6.117 -0.0621 -0.0763 -0.3523
    1PPC    C2B65539   6.171   0.631   5.819  0.3779  0.2492  0.0535
    1PPC    C3B65540   6.316   0.585   5.512  0.0370 -0.0353 -0.0953
    1PPC    C4B65541   6.583   0.417   5.282  0.4309  0.2441  0.2117
    1PPC    NC365542   0.706   0.400   6.818 -0.0492 -0.0564 -0.0130
    1PPC    PO465543   0.325   0.515   6.967 -0.0289  0.0902  0.1754
    1PPC    GL165544   0.286   0.123   6.801  0.3528  0.0394  0.1644
    1PPC    GL265545   0.188  -0.030   6.521  0.0447  0.1744  0.0530
    1PPC    C1B65546   0.258   0.015   6.143  0.0359  0.1994 -0.0514
    1PPC    C2B65547   0.035   0.046   5.693 -0.0038  0.1372 -0.2229
    1PPC    C3B65548  -0.235  -0.181   5.520 -0.0975 -0.1393  0.0566
    1PPC    C4B65549  -0.591  -0.485   5.504  0.0070 -0.1402 -0.1500
    1PPC    NC365550  22.044  26.477   6.990 -0.0201 -0.2076 -0.2874
    1PPC    PO465551  22.100  25.993   7.133  0.1482 -0.3523  0.3089
    1PPC    GL165552  22.328  25.858   6.638  0.4044 -0.2475 -0.1059
    1PPC    GL265553  22.264  25.680   6.412 -0.3387 -0.0029  0.0046
    1PPC    C1B65554  22.385  25.346   6.130 -0.1064 -0.0086  0.0187
    1PPC    C2B65555  22.361  25.092   5.776 -0.1913 -0.2772 -0.3228
    1PPC    C3B65556  22.570  24.860   5.370  0.0370 -0.2745 -0.2544
    1PPC    C4B65557  22.879  24.866   5.142 -0.1705 -0.0093  0.1425
    1PPC    NC365558  13.112  24.602   7.266 -0.1579 -0.2184 -0.0693
    1PPC    PO465559  12.779  24.304   7.169  0.0061  0.1843 -0.2742
    1PPC    GL165560  12.896  24.494   6.708 -0.3425  0.1091  0.3626
    1PPC    GL265561  12.593  24.625   6.429  0.0422  0.1451 -0.0786
    1PPC    C1B65562  12.544  24.674   6.016  0.2335 -0.1091 -0.2990
    1PPC    C2B65563  12.552  24.996   5.614  0.1837  0.1258 -0.0465
    1PPC    C3B65564  12.232  25.029   5.209  0.2906  0.2410 -0.0302
    1PPC    C4B65565  11.955  25.295   4.967 -0.2152  0.0162 -0.1015
    1PPC    NC365566  12.052  23.911   7.645  0.1999 -0.0196 -0.1006
    1PPC    PO465567  12.287  23.698   7.370 -0.2039  0.0609  0.3035
    1PPC    GL165568  12.201  23.708   6.934  0.0907 -0.1196  0.3281
    1PPC    GL265569  12.170  23.682   6.568 -0.1468 -0.1987  0.1328
    1PPC    C1B65570  12.513  23.747   6.228 -0.0276  0.0834 -0.1672
    1PPC    C2B65571  12.613  23.643   5.817  0.1407  0.2633  0.1698
    1PPC    C3B65572  12.629  23.748   5.388 -0.0723  0.1757 -0.1017
    1PPC    C4B65573  12.799  23.662   4.975 -0.1630  0.1944  0.0745
    1PPC    NC365574   9.134  22.264   6.191  0.1593 -0.1413  0.0324
    1PPC    PO465575   9.246  21.880   5.923  0.1064 -0.0299  0.1485
    1PPC    GL165576   8.928  22.187   5.742 -0.1375 -0.0150  0.0545
    1PPC    GL265577   8.865  22.216   5.406  0.2379 -0.1957 -0.1283
    1PPC    C1B65578   8.445  22.396   5.169  0.2792 -0.1040 -0.4040
    1PPC    C2B65579   8.305  22.688   4.983 -0.0235 -0.4941  0.1949
    1PPC    C3B65580   8.030  23.070   5.036 -0.2335  0.0103  0.3147
    1PPC    C4B65581   7.771  23.225   4.763  0.1781 -0.0654  0.0752
    1PPC    NC365582  24.807   1.876   7.077  0.0066  0.2076  0.0419
    1PPC    PO465583  24.785   1.785   6.658  0.1102 -0.2969  0.1248
    1PPC    GL165584  24.632   1.612   6.229 -0.1441  0.3765 -0.2817
    1PPC    GL265585  24.738   1.411   6.013  0.0928  0.1041 -0.2544
    1PPC    C1B65586  24.837   1.136   5.747 -0.2272  0.3053  0.2184
    1PPC    C2B65587  24.905   0.985   5.309  0.2179 -0.1239 -0.0759
    1PPC    C3B65588  24.889   0.955   4.813  0.0244  0.1271  0.0248
    1PPC    C4B65589  24.915   0.995   4.343 -0.1547  0.0366  0.0559
    1PPC    NC365590   2.033   9.692   7.063 -0.0885  0.1896 -0.1435
    1PPC    PO465591   1.790   9.552   6.737  0.1803 -0.0155  0.3802
    1PPC    GL165592   1.403   9.478   6.418  0.1278  0.4993  0.2709
    1PPC    GL265593   1.249   9.419   6.112 -0.3965 -0.1565  0.0374
    1PPC    C1B65594   1.096   9.646   5.795 -0.5330 -0.2737 -0.0189
    1PPC    C2B65595   1.138   9.749   5.343 -0.2776  0.0687 -0.0190
    1PPC    C3B65596   1.269   9.646   4.980  0.1781 -0.1570 -0.1554
    1PPC    C4B65597   1.448   9.407   4.656  0.1874 -0.2004  0.1296
    1PPC    NC365598  19.930  19.227   7.318  0.3495  0.1833  0.1700
    1PPC    PO465599  20.401  19.147   7.246  0.0081 -0.1438  0.1512
    1PPC    GL165600  20.414  18.956   6.800 -0.1993  0.2205  0.0692
    1PPC    GL265601  20.628  18.710   6.653 -0.3309  0.1151 -0.2942
    1PPC    C1B65602  20.943  18.589   6.379 -0.1146 -0.2206 -0.2524
    1PPC    C2B65603  21.233  18.418   6.144  0.0111 -0.1135  0.3072
    1PPC    C3B65604  21.372  17.957   6.165  0.0521  0.3097 -0.1219
    1PPC    C4B65605  21.528  17.557   5.894  0.3096  0.0449 -0.0566
    1PPC    NC365606  26.172  13.799   5.875 -0.0606 -0.1750 -0.0927
    1PPC    PO465607  26.116  13.433   5.906 -0.2911  0.2424 -0.5590
    1PPC    GL165608  26.325  13.512   5.535  0.1326 -0.1488 -0.0054
    1PPC    GL265609  26.462  13.618   5.230 -0.0193 -0.0169 -0.3860
    1PPC    C1B65610  26.786  13.692   4.951  0.5490 -0.3233 -0.0087
    1PPC    C2B65611  27.188  13.653   4.839 -0.2153  0.2536 -0.0608
    1PPC    C3B65612  27.591  13.565   4.830  0.1206 -0.2403 -0.1145
    1PPC    C4B65613  27.985  13.442   4.642  0.0500 -0.0593 -0.3306
    1PPC    NC365614  27.592  19.632   7.269  0.0056 -0.2978  0.0244
    1PPC    PO465615  27.642  19.953   6.878  0.0048 -0.1080 -0.2386
    1PPC    GL165616  27.759  19.786   6.567 -0.3838  0.0619  0.4614
    1PPC    GL265617  27.550  19.815   6.290 -0.2448  0.0200  0.0591
    1PPC    C1B65618  27.498  19.558   5.953 -0.0027 -0.2771  0.2278
    1PPC    C2B65619  27.366  19.703   5.555  0.1271  0.4156  0.0524
    1PPC    C3B65620  27.391  19.709   5.143  0.1006  0.0503  0.0303
    1PPC    C4B65621  27.376  20.033   4.792 -0.1064 -0.4366  0.1212
    1PPC    NC365622  15.204   0.963   7.636 -0.0375 -0.0217  0.1353
    1PPC    PO465623  15.323   1.169   7.412  0.1896 -0.1449 -0.1608
    1PPC    GL165624  15.188   1.440   7.038  0.0982  0.3415  0.0062
    1PPC    GL265625  15.177   1.694   6.828 -0.1688 -0.1173  0.0815
    1PPC    C1B65626  15.352   1.779   6.494  0.2821 -0.0855 -0.4075
    1PPC    C2B65627  15.371   2.069   6.212 -0.1543  0.1223 -0.0498
    1PPC    C3B65628  15.078   2.458   6.299  0.2918 -0.0431 -0.1720
    1PPC    C4B65629  14.664   2.481   6.214 -0.0794  0.0440  0.4653
    1PPC    NC365630  13.611   0.740   7.470 -0.1406  0.1287  0.2046
    1PPC    PO465631  13.313   0.663   7.215 -0.0511 -0.1717 -0.0242
    1PPC    GL165632  13.122   0.869   6.899  0.2849 -0.0366  0.1227
    1PPC    GL265633  12.948   0.855   6.665 -0.0436  0.3020  0.1362
    1PPC    C1B65634  12.863   0.628   6.365 -0.2871  0.0519  0.0740
    1PPC    C2B65635  12.730   0.475   5.912 -0.0691 -0.0145 -0.2820
    1PPC    C3B65636  12.598   0.746   5.602  0.1319  0.1204  0.0088
    1PPC    C4B65637  12.375   0.806   5.230 -0.0067 -0.0929 -0.0677
    1PPC    NC365638   9.815   2.336   7.911  0.2126  0.2993 -0.1920
    1PPC    PO465639  10.092   2.259   7.740 -0.0440  0.1623  0.1689
    1PPC    GL165640   9.777   2.360   7.447  0.0896 -0.2729  0.0094
    1PPC    GL265641   9.578   2.467   7.233 -0.0041  0.2537  0.0156
    1PPC    C1B65642   9.546   2.734   6.874  0.0528  0.1230 -0.4510
    1PPC    C2B65643   9.490   2.936   6.456  0.1113 -0.0594 -0.1928
    1PPC    C3B65644   9.208   3.014   6.169  0.0757 -0.1022 -0.1307
    1PPC    C4B65645   8.815   2.805   6.213 -0.2169 -0.2004  0.1481
    1PPC    NC365646  18.447  27.053   6.892 -0.0482  0.0713  0.0807
    1PPC    PO465647  18.052  27.175   7.232  0.0198 -0.2231  0.0409
    1PPC    GL165648  17.900  27.264   6.915  0.1974 -0.0041 -0.2217
    1PPC    GL265649  17.797  27.367   6.635 -0.1013  0.1663 -0.1674
    1PPC    C1B65650  17.655  27.257   6.225  0.1428 -0.0654 -0.1188
    1PPC    C2B65651  17.424  27.018   5.943 -0.1327 -0.3543 -0.0772
    1PPC    C3B65652  17.084  26.640   5.769 -0.1867 -0.0739 -0.2964
    1PPC    C4B65653  16.704  26.454   5.578  0.2440 -0.1380  0.1901
    1PPC    NC365654  14.390  26.561   6.916  0.0888  0.0569  0.1387
    1PPC    PO465655  14.752  26.486   6.778 -0.0933 -0.1604  0.3980
    1PPC    GL165656  14.793  26.864   6.533  0.1998  0.0030 -0.0443
    1PPC    GL265657  14.735  27.061   6.398 -0.0804 -0.0966 -0.1626
    1PPC    C1B65658  14.427  27.327   6.127  0.0520  0.2474  0.4602
    1PPC    C2B65659  14.134  27.294   5.796 -0.0673 -0.1479  0.0534
    1PPC    C3B65660  13.881  27.181   5.398 -0.1157  0.3269 -0.2300
    1PPC    C4B65661  13.910  27.414   5.081 -0.2173  0.2180 -0.1468
    1PPC    NC365662  12.053  27.809   7.799 -0.1657 -0.0603 -0.0753
    1PPC    PO465663  12.031  28.139   7.615 -0.1124 -0.2722 -0.0290
    1PPC    GL165664  12.036  28.164   7.183  0.0813  0.1168 -0.0378
    1PPC    GL265665  12.197  28.148   6.845  0.0586  0.0091  0.1883
    1PPC    C1B65666  12.215  28.265   6.383 -0.0320  0.1590 -0.0015
    1PPC    C2B65667  12.361  28.392   5.963 -0.0870 -0.2090  0.0369
    1PPC    C3B65668  12.698  28.619   5.914  0.0299  0.0631 -0.0099
    1PPC    C4B65669  13.131  28.908   6.099  0.0304  0.0551  0.0277
    1PPC    NC365670  27.615  11.470   6.349 -0.1951  0.1358  0.1560
    1PPC    PO465671  27.704  11.941   6.532 -0.0879  0.1561 -0.1710
    1PPC    GL165672  27.958  11.746   6.105 -0.1820  0.3527 -0.0332
    1PPC    GL265673  27.979  11.762   5.840  0.0369 -0.0616 -0.1445
    1PPC    C1B65674  27.942  12.009   5.474 -0.2243 -0.2042  0.0695
    1PPC    C2B65675  27.712  12.094   5.161  0.0228  0.1171  0.0564
    1PPC    C3B65676  27.623  12.221   4.718 -0.1529 -0.0318 -0.1200
    1PPC    C4B65677  27.514  12.108   4.305  0.1071 -0.3842  0.2723
    1PPC    NC365678   5.539   7.173   7.105  0.0964  0.3900  0.1995
    1PPC    PO465679   5.360   7.209   6.705 -0.3160  0.2508  0.2660
    1PPC    GL165680   5.509   7.165   6.287  0.0529 -0.2757  0.3060
    1PPC    GL265681   5.671   7.089   6.119 -0.2071  0.1091  0.0108
    1PPC    C1B65682   5.964   6.821   5.942 -0.1076 -0.2229  0.2989
    1PPC    C2B65683   6.374   6.720   5.687  0.0345 -0.0689 -0.2780
    1PPC    C3B65684   6.291   6.740   5.217 -0.0162 -0.1234  0.0835
    1PPC    C4B65685   6.283   6.994   4.858  0.0848 -0.2239  0.3343
    1PPC    NC365686  20.463   4.467   7.097 -0.0747  0.1335  0.0290
    1PPC    PO465687  20.256   4.154   6.799  0.0745 -0.1759 -0.1876
    1PPC    GL165688  20.158   4.113   6.477 -0.0987 -0.0371  0.1282
    1PPC    GL265689  19.887   4.046   6.359  0.0385  0.2189  0.0089
    1PPC    C1B65690  19.715   4.040   5.952  0.2114  0.0194 -0.0441
    1PPC    C2B65691  19.848   3.756   5.615 -0.3413 -0.1567  0.1603
    1PPC    C3B65692  19.675   3.728   5.219 -0.0741 -0.1345  0.0814
    1PPC    C4B65693  19.486   3.806   4.753  0.1117 -0.1485 -0.1393
    1PPC    NC365694   6.315  10.784   7.438 -0.3018  0.1783 -0.2541
    1PPC    PO465695   5.934  11.064   7.296  0.0483  0.2035 -0.1069
    1PPC    GL165696   6.257  11.163   7.064  0.3120 -0.1518 -0.2323
    1PPC    GL265697   6.403  11.183   6.757 -0.0128 -0.0164  0.1721
    1PPC    C1B65698   6.537  11.294   6.314 -0.2224 -0.1825 -0.2122
    1PPC    C2B65699   6.400  11.340   5.898  0.0268 -0.0874  0.3736
    1PPC    C3B65700   6.562  11.115   5.474  0.2944 -0.0120 -0.3723
    1PPC    C4B65701   6.881  10.855   5.221 -0.0565  0.2806  0.0899
    1PPC    NC365702  19.625   7.169   7.223  0.3571 -0.0230  0.0756
    1PPC    PO465703  20.012   6.946   7.307  0.0348  0.0556 -0.0576
    1PPC    GL165704  20.306   6.906   7.007  0.0013 -0.2636 -0.0415
    1PPC    GL265705  20.303   6.700   6.837  0.1554  0.1757  0.0110
    1PPC    C1B65706  20.296   6.721   6.439 -0.0091  0.3370 -0.0198
    1PPC    C2B65707  20.355   6.891   6.168  0.2291 -0.0729 -0.2505
    1PPC    C3B65708  20.437   6.953   5.684  0.0273 -0.3043 -0.0455
    1PPC    C4B65709  20.361   6.925   5.269 -0.2574  0.0257 -0.4124
    1PPC    NC365710  12.585   1.114   7.677 -0.1521  0.4520 -0.2532
    1PPC    PO465711  12.544   1.390   7.324 -0.0904  0.3732  0.0696
    1PPC    GL165712  12.854   1.412   6.965 -0.0062 -0.0801 -0.1496
    1PPC    GL265713  12.952   1.349   6.729 -0.3113 -0.2331 -0.1696
    1PPC    C1B65714  12.999   1.165   6.327  0.0048  0.2398 -0.1198
    1PPC    C2B65715  13.184   0.951   5.897  0.0377 -0.0761 -0.1375
    1PPC    C3B65716  13.078   0.889   5.507  0.2061  0.0888  0.0983
    1PPC    C4B65717  12.881   0.740   5.173  0.1131 -0.1403 -0.4245
    1PPC    NC365718  25.077  17.213   6.457  0.0672  0.3170 -0.2393
    1PPC    PO465719  24.881  16.918   6.261  0.1280  0.2888 -0.0407
    1PPC    GL165720  24.830  16.971   5.858 -0.2481 -0.2204 -0.2531
    1PPC    GL265721  24.889  17.293   5.662  0.3282 -0.2331 -0.0257
    1PPC    C1B65722  24.878  17.504   5.188 -0.1369  0.0141  0.5650
    1PPC    C2B65723  24.971  17.775   4.825 -0.1360  0.1277  0.0977
    1PPC    C3B65724  25.018  17.957   4.443  0.0820  0.2170 -0.2205
    1PPC    C4B65725  24.973  18.302   4.249  0.3124 -0.2863 -0.2190
    1PPC    NC365726   0.838  19.620   6.105  0.3893  0.0327  0.4131
    1PPC    PO465727   0.667  20.006   6.083  0.3420  0.2724  0.3342
    1PPC    GL165728   0.886  20.010   5.743 -0.3722  0.1540  0.3163
    1PPC    GL265729   0.741  19.941   5.462 -0.0360  0.4005  0.1526
    1PPC    C1B65730   0.737  19.922   4.945 -0.2267 -0.3620  0.3059
    1PPC    C2B65731   0.758  20.035   4.479  0.3708  0.1297  0.0091
    1PPC    C3B65732   0.550  19.773   4.241  0.0151  0.2007  0.1261
    1PPC    C4B65733   0.196  19.870   4.030  0.3493  0.0065 -0.3407
    1PPC    NC365734  28.050   8.253   6.617  0.0002 -0.3036 -0.1095
    1PPC    PO465735  27.823   7.978   6.572 -0.0624 -0.1818  0.1477
    1PPC    GL165736  27.925   8.101   6.070 -0.0375  0.0628 -0.1905
    1PPC    GL265737  27.794   8.304   5.827 -0.1085  0.0565  0.0244
    1PPC    C1B65738  27.684   8.298   5.414  0.1634  0.2140 -0.1722
    1PPC    C2B65739  27.712   8.226   4.931  0.0320  0.3226 -0.3141
    1PPC    C3B65740  27.884   8.349   4.585  0.3318 -0.0679  0.1351
    1PPC    C4B65741  28.144   8.041   4.293  0.0885  0.2200  0.2012
    1PPC    NC365742  11.559  24.877   7.142  0.0228 -0.1259  0.0552
    1PPC    PO465743  11.765  25.249   7.362  0.0559  0.0483  0.3733
    1PPC    GL165744  11.991  25.314   6.967 -0.0916 -0.0973 -0.0189
    1PPC    GL265745  11.996  25.576   6.710  0.1068 -0.0864 -0.0353
    1PPC    C1B65746  12.099  25.669   6.256 -0.0959  0.1684 -0.2277
    1PPC    C2B65747  12.117  26.003   6.046  0.1919 -0.0285  0.3664
    1PPC    C3B65748  12.307  26.194   5.697  0.0040 -0.0027  0.2596
    1PPC    C4B65749  12.611  26.470   5.578 -0.1328  0.2548  0.1968
    1PPC    NC365750   0.527  11.418   5.862 -0.0744  0.1633  0.0906
    1PPC    PO465751   0.637  10.989   5.809  0.2013  0.1383  0.2189
    1PPC    GL165752   0.541  11.166   5.445 -0.0591  0.0898  0.1032
    1PPC    GL265753   0.672  11.189   5.257 -0.1762  0.0933 -0.1146
    1PPC    C1B65754   0.753  10.799   4.982  0.1766 -0.0178 -0.1464
    1PPC    C2B65755   1.088  10.796   4.683 -0.2929 -0.0762 -0.2152
    1PPC    C3B65756   1.446  10.698   4.658 -0.3955 -0.1825  0.1850
    1PPC    C4B65757   1.750  10.934   4.934 -0.0498  0.1537  0.2141
    1PPC    NC365758  18.492   0.699   7.639  0.2334 -0.0623  0.2381
    1PPC    PO465759  18.858   0.492   7.696 -0.1809  0.0782 -0.0008
    1PPC    GL165760  18.656   0.574   7.177 -0.1157  0.2422  0.3828
    1PPC    GL265761  18.709   0.670   6.890 -0.0822 -0.1310 -0.0813
    1PPC    C1B65762  18.774   0.442   6.477 -0.3515  0.2472  0.1951
    1PPC    C2B65763  18.506   0.317   6.063  0.3101  0.0965 -0.3075
    1PPC    C3B65764  18.561   0.161   5.729  0.0018 -0.0924 -0.1372
    1PPC    C4B65765  18.776   0.321   5.401  0.1742 -0.3217  0.0351
    1PPC    NC365766  24.175  18.744   6.616 -0.0101  0.0223 -0.1605
    1PPC    PO465767  23.933  18.390   6.690  0.0420  0.0596  0.2910
    1PPC    GL165768  23.683  18.151   6.274  0.0710 -0.1209  0.0938
    1PPC    GL265769  23.669  18.047   6.016 -0.1550 -0.2271  0.0454
    1PPC    C1B65770  23.397  17.907   5.741  0.2771 -0.0133 -0.1629
    1PPC    C2B65771  23.228  18.252   5.473  0.0691 -0.2601  0.1532
    1PPC    C3B65772  23.027  18.618   5.737 -0.3592  0.1250 -0.2856
    1PPC    C4B65773  23.119  18.821   6.106 -0.2137  0.0301 -0.1288
    1PPC    NC365774  26.565  25.664   6.618 -0.3103  0.1536  0.0483
    1PPC    PO465775  26.897  25.342   6.698 -0.1188  0.0244 -0.0866
    1PPC    GL165776  27.115  25.204   6.351  0.2040  0.0372 -0.0875
    1PPC    GL265777  27.346  25.283   6.113  0.1818  0.0135 -0.1062
    1PPC    C1B65778  27.317  25.125   5.649 -0.1082 -0.1328 -0.0120
    1PPC    C2B65779  27.299  24.682   5.432  0.1042 -0.0807  0.0452
    1PPC    C3B65780  27.072  24.574   5.085 -0.2993  0.1194  0.1100
    1PPC    C4B65781  26.911  24.252   4.884 -0.0572 -0.1212 -0.0076
    1PPC    NC365782   3.006  24.134   6.359 -0.0624  0.1059 -0.1420
    1PPC    PO465783   2.738  23.926   6.637 -0.0915 -0.2560 -0.0511
    1PPC    GL165784   2.565  24.032   6.170 -0.0485  0.2804  0.1909
    1PPC    GL265785   2.211  24.123   6.057 -0.1264  0.0718 -0.0830
    1PPC    C1B65786   2.169  24.162   5.579 -0.4380  0.1780  0.3829
    1PPC    C2B65787   2.322  24.153   5.208  0.0737  0.2426  0.0409
    1PPC    C3B65788   2.482  24.110   4.776 -0.0338 -0.0097  0.1175
    1PPC    C4B65789   2.460  24.316   4.435  0.2321  0.0684 -0.0185
    1PPC    NC365790  27.678  18.865   6.273 -0.3591  0.0206 -0.1571
    1PPC    PO465791  27.529  18.467   6.478 -0.3600  0.3038  0.1910
    1PPC    GL165792  27.442  18.524   6.008  0.1088  0.0023  0.0257
    1PPC    GL265793  27.281  18.701   5.821  0.2323  0.2214 -0.3846
    1PPC    C1B65794  27.212  18.977   5.516 -0.1983  0.5541  0.1565
    1PPC    C2B65795  26.985  18.951   5.185  0.0624 -0.0071 -0.2671
    1PPC    C3B65796  26.648  18.783   4.797 -0.3444  0.0341 -0.1824
    1PPC    C4B65797  26.362  18.615   4.420 -0.1646  0.2891  0.0546
    1PPC    NC365798  25.360  27.429   7.094  0.0689  0.2089  0.0181
    1PPC    PO465799  25.489  27.860   7.234 -0.1989  0.0596 -0.1030
    1PPC    GL165800  25.810  27.620   6.951 -0.0792 -0.0969  0.1154
    1PPC    GL265801  25.975  27.639   6.704 -0.0785  0.2366  0.0860
    1PPC    C1B65802  25.831  27.795   6.314  0.0622  0.0531  0.0980
    1PPC    C2B65803  26.077  27.720   6.036 -0.0619  0.2165  0.0240
    1PPC    C3B65804  26.229  27.387   5.686 -0.1418 -0.4904 -0.0325
    1PPC    C4B65805  26.187  27.183   5.235 -0.0334  0.1057  0.0188
    1PPC    NC365806  27.890  24.177   6.640 -0.0433 -0.3013  0.2219
    1PPC    PO465807  28.271  24.217   6.630  0.0802  0.0211  0.0030
    1PPC    GL165808  28.629  24.362   6.302 -0.2683  0.3444  0.1609
    1PPC    GL265809  28.730  24.435   6.014  0.1905 -0.1612 -0.2981
    1PPC    C1B65810  28.872  24.219   5.676 -0.3501  0.0834 -0.0688
    1PPC    C2B65811  28.710  24.137   5.318  0.0569 -0.1358 -0.0165
    1PPC    C3B65812  28.383  24.314   5.159 -0.1785  0.1947  0.2114
    1PPC    C4B65813  28.132  24.175   4.916  0.1812  0.0593 -0.1620
    1PPC    NC365814   7.649   6.610   7.085  0.2895  0.2063  0.1040
    1PPC    PO465815   8.075   6.696   7.053  0.1106  0.2390  0.0065
    1PPC    GL165816   7.923   7.013   6.848 -0.1141 -0.2289 -0.1055
    1PPC    GL265817   7.725   7.121   6.574 -0.1827 -0.1135 -0.0135
    1PPC    C1B65818   7.782   7.338   6.297  0.2300  0.0522  0.1411
    1PPC    C2B65819   7.939   7.392   5.868 -0.4671  0.2324  0.2720
    1PPC    C3B65820   8.112   7.353   5.555 -0.0113 -0.2038 -0.2883
    1PPC    C4B65821   8.308   7.681   5.421  0.1450  0.1113 -0.2813
    1PPC    NC365822  28.523   7.335   6.670 -0.0281 -0.0096 -0.1305
    1PPC    PO465823  28.701   7.658   6.332 -0.3570  0.2358 -0.2302
    1PPC    GL165824  29.129   7.873   6.183  0.2819  0.0744 -0.2677
    1PPC    GL265825  29.555   7.924   6.158  0.1002  0.0155 -0.3138
    1PPC    C1B65826  29.820   7.941   5.830 -0.1484 -0.1746  0.2539
    1PPC    C2B65827  30.202   8.126   5.526 -0.0213 -0.0680 -0.0853
    1PPC    C3B65828  30.618   8.212   5.236 -0.2290  0.1665 -0.1729
    1PPC    C4B65829  30.901   8.097   4.826 -0.2508  0.1527 -0.1833
    1PPC    NC365830  16.947   0.668   8.065  0.3930  0.0133  0.0017
    1PPC    PO465831  16.775   0.530   7.738  0.3401 -0.1525 -0.0731
    1PPC    GL165832  16.835   0.519   7.322  0.0329  0.2829 -0.2399
    1PPC    GL265833  16.632   0.454   7.047  0.0114 -0.0309  0.0126
    1PPC    C1B65834  16.695   0.457   6.634 -0.2775  0.0276  0.1098
    1PPC    C2B65835  17.020   0.321   6.308 -0.0993  0.0640  0.0161
    1PPC    C3B65836  17.011   0.175   5.856 -0.0437 -0.2328 -0.2121
    1PPC    C4B65837  17.371  -0.027   5.692  0.0885 -0.3450 -0.1891
    1PPC    NC365838  18.735   5.244   7.126 -0.1264 -0.0228 -0.0812
    1PPC    PO465839  19.084   4.810   7.106 -0.0646 -0.1235  0.0724
    1PPC    GL165840  19.204   4.693   6.680  0.2888 -0.0725  0.1892
    1PPC    GL265841  19.248   4.599   6.421 -0.3045 -0.0502 -0.0259
    1PPC    C1B65842  19.506   4.660   6.056 -0.3579  0.2331  0.0289
    1PPC    C2B65843  19.718   4.988   5.896 -0.2382 -0.3447 -0.3807
    1PPC    C3B65844  20.025   5.275   5.722 -0.2180 -0.0773 -0.1140
    1PPC    C4B65845  20.404   5.345   5.878  0.3275  0.2638 -0.1881
    1PPC    NC365846  13.049  22.169   7.215  0.1078  0.1309  0.1485
    1PPC    PO465847  13.463  22.290   7.430  0.1697 -0.4315 -0.0440
    1PPC    GL165848  13.756  22.511   7.075  0.2527  0.0642  0.0426
    1PPC    GL265849  13.705  22.724   6.834 -0.0407  0.1630 -0.0258
    1PPC    C1B65850  13.944  22.923   6.514 -0.0044 -0.0988  0.0581
    1PPC    C2B65851  14.137  23.033   6.152  0.2131  0.2593 -0.0930
    1PPC    C3B65852  14.419  23.365   5.960  0.1566  0.2248  0.0274
    1PPC    C4B65853  14.604  23.727   5.825  0.3858 -0.0192 -0.1619
    1PPC    NC365854  24.087   0.856   6.805  0.2740  0.3140  0.0454
    1PPC    PO465855  24.500   1.057   6.906  0.2752  0.0460  0.1739
    1PPC    GL165856  24.387   1.136   6.447 -0.0433 -0.0593  0.0318
    1PPC    GL265857  24.479   1.010   6.157  0.3327 -0.1698  0.1288
    1PPC    C1B65858  24.478   0.796   5.734 -0.2741 -0.3846  0.1085
    1PPC    C2B65859  24.200   0.632   5.340  0.1032  0.1963  0.2217
    1PPC    C3B65860  24.030   0.190   5.260  0.1889 -0.1371  0.2815
    1PPC    C4B65861  24.124  -0.239   5.060  0.0791  0.0786  0.0577
    1PPC    NC365862   5.665  27.277   7.095 -0.1327 -0.2501  0.1624
    1PPC    PO465863   6.066  27.515   6.973  0.0189  0.0242  0.1970
    1PPC    GL165864   5.828  27.286   6.618 -0.0061 -0.0504 -0.3864
    1PPC    GL265865   5.785  27.298   6.367  0.0443  0.0305  0.1037
    1PPC    C1B65866   5.913  27.323   5.990  0.1322 -0.0764 -0.0437
    1PPC    C2B65867   5.860  27.586   5.603  0.2008  0.1163  0.2590
    1PPC    C3B65868   5.700  27.525   5.249  0.0645  0.2516 -0.0147
    1PPC    C4B65869   5.388  27.203   5.132  0.1274 -0.0652 -0.1088
    1PPC    NC365870  18.373   3.405   7.620  0.0053  0.2817  0.1223
    1PPC    PO465871  18.035   3.489   7.340  0.1865  0.1890 -0.0216
    1PPC    GL165872  17.778   3.606   7.065 -0.0389 -0.0012 -0.2006
    1PPC    GL265873  17.560   3.719   6.850 -0.3409  0.1882  0.1936
    1PPC    C1B65874  17.417   3.781   6.369 -0.1188  0.1344  0.2869
    1PPC    C2B65875  17.325   4.010   6.043  0.0038 -0.1361 -0.1424
    1PPC    C3B65876  17.331   3.895   5.523 -0.2117  0.3721 -0.0987
    1PPC    C4B65877  17.197   3.753   5.128 -0.3172  0.0761  0.0293
    1PPC    NC365878   8.840   1.975   7.649 -0.0879  0.1477 -0.1350
    1PPC    PO465879   9.339   2.106   7.533 -0.2170  0.0279  0.2320
    1PPC    GL165880   9.407   1.947   7.160  0.1559  0.1570 -0.0570
    1PPC    GL265881   9.580   1.813   7.026  0.1554  0.0359 -0.2701
    1PPC    C1B65882   9.933   1.740   6.761 -0.0988  0.0169 -0.1503
    1PPC    C2B65883  10.025   1.896   6.273 -0.4376 -0.1355  0.0847
    1PPC    C3B65884  10.220   1.974   5.842  0.0161 -0.1831 -0.0605
    1PPC    C4B65885  10.275   1.920   5.387 -0.0183 -0.1915 -0.1101
    1PPC    NC365886  19.941  27.619   7.211  0.1870  0.2799  0.1165
    1PPC    PO465887  19.564  27.377   7.033 -0.1156  0.3653 -0.0709
    1PPC    GL165888  19.248  27.604   6.729 -0.1408 -0.1791 -0.3149
    1PPC    GL265889  19.274  27.730   6.408 -0.0347 -0.0343  0.0445
    1PPC    C1B65890  19.039  27.628   6.066  0.1670 -0.0390 -0.0030
    1PPC    C2B65891  18.874  27.302   5.779 -0.0264 -0.1649 -0.0876
    1PPC    C3B65892  18.679  27.222   5.412  0.0632  0.0582 -0.1731
    1PPC    C4B65893  18.716  27.114   4.971 -0.1478  0.2447 -0.0765
    1PPC    NC365894   5.270  17.270   6.406 -0.0908 -0.2068  0.1360
    1PPC    PO465895   5.268  17.600   6.154  0.0587  0.1267  0.2447
    1PPC    GL165896   5.248  17.660   5.704  0.2062 -0.0499  0.0425
    1PPC    GL265897   5.322  17.678   5.330  0.3440  0.2591 -0.3186
    1PPC    C1B65898   5.074  17.792   4.996 -0.0689 -0.0938 -0.1881
    1PPC    C2B65899   4.885  17.616   4.646  0.1181 -0.1694  0.0739
    1PPC    C3B65900   4.529  17.423   4.626 -0.1594 -0.0420 -0.1693
    1PPC    C4B65901   4.362  17.114   4.321  0.2528 -0.1556  0.0491
    1PPC    NC365902  19.421  26.918   6.948  0.2701 -0.1635 -0.1714
    1PPC    PO465903  19.477  26.643   6.631 -0.3663 -0.3599  0.0793
    1PPC    GL165904  19.219  26.653   6.344 -0.3309 -0.2585 -0.2152
    1PPC    GL265905  19.127  26.538   6.008  0.0430 -0.0084  0.2511
    1PPC    C1B65906  19.180  26.112   5.786  0.1904  0.1479  0.1567
    1PPC    C2B65907  19.245  25.847   5.419 -0.3041 -0.0874 -0.1673
    1PPC    C3B65908  19.513  25.984   5.047  0.0210 -0.3328 -0.2049
    1PPC    C4B65909  19.699  26.412   5.084  0.2376 -0.0325 -0.3677
    1PPC    NC365910  11.418  27.183   8.048 -0.2275 -0.1680 -0.1739
    1PPC    PO465911  11.516  27.420   7.695 -0.2092 -0.2280 -0.0581
    1PPC    GL165912  11.565  27.738   7.229 -0.0456 -0.1253 -0.2287
    1PPC    GL265913  11.697  27.715   6.915 -0.1273  0.1700  0.0311
    1PPC    C1B65914  11.947  27.722   6.545  0.2716 -0.0984 -0.1257
    1PPC    C2B65915  12.015  27.849   6.101  0.2029  0.0007  0.0469
    1PPC    C3B65916  11.899  27.642   5.741 -0.1058  0.3895 -0.0094
    1PPC    C4B65917  11.967  27.614   5.363 -0.2645 -0.0775  0.2897
    1PPC    NC365918  27.596   5.324   5.713 -0.0129  0.0195  0.4425
    1PPC    PO465919  27.201   5.253   5.897  0.0827 -0.0203  0.0442
    1PPC    GL165920  27.147   5.434   5.563  0.2141  0.1536 -0.0547
    1PPC    GL265921  27.126   5.718   5.361  0.1362 -0.1660  0.4630
    1PPC    C1B65922  27.155   6.086   5.118  0.2737 -0.1737  0.0950
    1PPC    C2B65923  27.312   6.498   5.088 -0.0107  0.0725  0.2277
    1PPC    C3B65924  27.301   6.862   4.950 -0.1917 -0.0112  0.0488
    1PPC    C4B65925  27.595   7.159   4.784 -0.1191  0.2350  0.5054
    1PPC    NC365926   0.702   4.426   6.474  0.1221 -0.3105 -0.0591
    1PPC    PO465927   0.485   4.611   6.132 -0.1990  0.2050  0.2663
    1PPC    GL165928   0.461   4.257   5.856 -0.1159 -0.0266  0.2432
    1PPC    GL265929   0.541   3.921   5.663  0.1547 -0.1957 -0.1335
    1PPC    C1B65930   0.844   4.114   5.413 -0.1674  0.0717  0.2183
    1PPC    C2B65931   0.830   4.349   4.966 -0.0961 -0.1991 -0.0586
    1PPC    C3B65932   0.876   4.678   4.730  0.0424 -0.0744  0.0310
    1PPC    C4B65933   0.916   4.849   4.371 -0.1210 -0.1916  0.0681
    1PPC    NC365934   7.816  22.329   6.103 -0.2904 -0.0605 -0.1986
    1PPC    PO465935   8.129  22.703   6.120  0.1787 -0.0533  0.1186
    1PPC    GL165936   8.198  22.994   5.744  0.2251  0.0522 -0.4168
    1PPC    GL265937   8.462  23.132   5.466 -0.0048  0.3280 -0.2547
    1PPC    C1B65938   8.672  22.980   5.159 -0.1328 -0.2118  0.0032
    1PPC    C2B65939   8.725  22.921   4.693 -0.1867 -0.0501 -0.0337
    1PPC    C3B65940   8.741  22.758   4.227  0.0028  0.2922 -0.2174
    1PPC    C4B65941   8.478  22.540   4.208 -0.1241 -0.1502  0.1411
    1PPC    NC365942   5.833   8.858   6.701 -0.2522 -0.0280 -0.2838
    1PPC    PO465943   5.499   8.610   6.823  0.1078 -0.1336  0.0002
    1PPC    GL165944   5.428   8.794   6.362  0.0111 -0.1891 -0.3078
    1PPC    GL265945   5.334   8.896   6.108 -0.1702 -0.1765 -0.0146
    1PPC    C1B65946   5.314   9.197   5.830  0.1968  0.1143 -0.3204
    1PPC    C2B65947   5.379   9.596   5.744  0.1082  0.1163  0.1501
    1PPC    C3B65948   5.398   9.930   5.366  0.1694  0.3800  0.0450
    1PPC    C4B65949   5.411  10.327   5.452  0.0312  0.0049 -0.0076
    1PPC    NC365950  14.701   3.411   7.408 -0.1703 -0.1781 -0.0860
    1PPC    PO465951  14.505   2.960   7.370  0.1513  0.0038 -0.1211
    1PPC    GL165952  14.230   3.227   7.227 -0.1630  0.0009  0.1970
    1PPC    GL265953  14.120   3.363   6.955 -0.0604 -0.1697  0.3006
    1PPC    C1B65954  14.331   3.531   6.676  0.1548 -0.0667 -0.0650
    1PPC    C2B65955  14.334   3.559   6.357 -0.2024  0.2433  0.0075
    1PPC    C3B65956  14.381   3.616   5.862 -0.1227 -0.1701 -0.0223
    1PPC    C4B65957  14.505   3.859   5.439 -0.1360  0.0462 -0.1832
    1PPC    NC365958  13.518   2.200   8.024 -0.2339 -0.2096 -0.0280
    1PPC    PO465959  13.547   1.815   7.644  0.1207 -0.0858 -0.1495
    1PPC    GL165960  13.530   2.023   7.273  0.1353 -0.0989  0.0213
    1PPC    GL265961  13.560   2.249   7.026 -0.0462 -0.0292  0.1508
    1PPC    C1B65962  13.682   2.464   6.642 -0.0727  0.4394 -0.3145
    1PPC    C2B65963  13.665   2.799   6.389  0.1508  0.1093  0.2090
    1PPC    C3B65964  13.795   3.024   6.140  0.2126  0.0556  0.2858
    1PPC    C4B65965  13.882   3.466   5.893  0.3026 -0.1320  0.0019
    1PPC    NC365966  27.699  21.553   6.742  0.3694  0.1631  0.0786
    1PPC    PO465967  27.300  21.386   6.980  0.3043 -0.0164  0.0889
    1PPC    GL165968  27.270  21.513   6.578  0.1679 -0.2312 -0.4019
    1PPC    GL265969  27.162  21.678   6.349  0.1888  0.0941  0.0664
    1PPC    C1B65970  27.226  21.902   6.000  0.0110 -0.0502  0.0122
    1PPC    C2B65971  27.292  22.327   5.867  0.3579  0.3160 -0.0496
    1PPC    C3B65972  27.267  22.578   5.551 -0.0720  0.0326  0.0003
    1PPC    C4B65973  27.272  22.929   5.219 -0.0262 -0.0177  0.1639
    1PPC    NC365974  20.253  25.459   7.619  0.2199 -0.0593  0.1068
    1PPC    PO465975  20.423  25.605   7.248  0.0448 -0.0859 -0.0757
    1PPC    GL165976  20.180  25.402   6.867 -0.4826  0.1181 -0.0031
    1PPC    GL265977  20.057  25.396   6.465 -0.3110 -0.2736  0.1618
    1PPC    C1B65978  19.912  25.548   6.075  0.1113  0.1563 -0.0502
    1PPC    C2B65979  20.071  25.937   5.810 -0.0479  0.1313 -0.0121
    1PPC    C3B65980  19.945  26.024   5.369  0.1385 -0.1424  0.2164
    1PPC    C4B65981  20.058  25.945   4.931 -0.2504 -0.3427  0.1408
    1PPC    NC365982  17.039  20.116   7.322 -0.2402 -0.1064  0.2855
    1PPC    PO465983  17.134  20.495   7.412 -0.3186 -0.1138  0.2579
    1PPC    GL165984  17.236  20.601   7.036  0.0826  0.1436 -0.3788
    1PPC    GL265985  17.092  20.647   6.768 -0.2843 -0.0403 -0.1211
    1PPC    C1B65986  16.845  20.674   6.466 -0.2758 -0.0128  0.1490
    1PPC    C2B65987  16.661  20.668   6.064 -0.0875  0.1364  0.2313
    1PPC    C3B65988  16.306  20.482   5.760  0.5131  0.0021  0.2812
    1PPC    C4B65989  16.180  20.105   5.498 -0.0336  0.1871  0.1703
    1PPC    NC365990  23.049  12.531   7.299 -0.2053  0.1777 -0.0202
    1PPC    PO465991  22.990  12.601   6.861  0.2162  0.1472  0.0898
    1PPC    GL165992  22.787  12.357   6.493 -0.0286  0.1191  0.0822
    1PPC    GL265993  22.782  12.033   6.333 -0.1230 -0.2661  0.2967
    1PPC    C1B65994  22.749  11.875   5.998  0.2407 -0.3607 -0.0612
    1PPC    C2B65995  22.866  11.870   5.636 -0.1058 -0.1949  0.1369
    1PPC    C3B65996  22.891  11.611   5.445  0.0236  0.1275  0.0823
    1PPC    C4B65997  22.852  11.166   5.425 -0.0490  0.0704 -0.2791
    1PPC    NC365998   1.234  19.043   5.683  0.0880  0.1409  0.0758
    1PPC    PO465999   1.404  18.770   5.403  0.1756  0.1446  0.0348
    1PPC    GL166000   1.778  19.026   5.270 -0.1079  0.5047  0.0308
    1PPC    GL266001   1.856  19.201   4.972  0.2564 -0.1839 -0.0117
    1PPC    C1B66002   1.966  19.442   4.627 -0.0587 -0.0519  0.2050
    1PPC    C2B66003   2.195  19.554   4.172 -0.1472  0.4083 -0.3971
    1PPC    C3B66004   2.437  19.741   3.810  0.3071  0.0881  0.0041
    1PPC    C4B66005   2.669  20.029   3.681 -0.1004 -0.0799  0.4283
    1PPC    NC366006  10.144   3.767   7.666 -0.0887 -0.0905  0.0725
    1PPC    PO466007   9.834   3.563   7.503  0.0205  0.1192 -0.0545
    1PPC    GL166008   9.651   3.730   7.208  0.2207 -0.0058  0.2937
    1PPC    GL266009   9.644   3.762   6.933  0.1364  0.1606  0.2688
    1PPC    C1B66010   9.782   3.758   6.457  0.1558  0.2779  0.0725
    1PPC    C2B66011   9.748   3.735   5.965  0.1515  0.1560 -0.2810
    1PPC    C3B66012   9.432   3.557   5.616 -0.0661 -0.1384  0.1422
    1PPC    C4B66013   9.121   3.272   5.374 -0.1378  0.1890 -0.1016
    1PPC    NC366014   4.799  16.982   7.052 -0.2688 -0.0498  0.1203
    1PPC    PO466015   4.647  16.730   6.608  0.0544  0.1837  0.0660
    1PPC    GL166016   4.638  16.530   6.272  0.0168  0.0611 -0.3001
    1PPC    GL266017   4.625  16.594   5.919 -0.0935 -0.2722  0.2357
    1PPC    C1B66018   4.842  16.684   5.564 -0.1097 -0.0062 -0.1381
    1PPC    C2B66019   4.900  16.756   5.165 -0.3398  0.2889 -0.0911
    1PPC    C3B66020   4.807  16.896   4.634  0.5707  0.0033 -0.3778
    1PPC    C4B66021   4.667  16.672   4.215  0.4524 -0.3349  0.0913
    1PPC    NC366022   5.246  10.021   6.849 -0.1400 -0.1801  0.1922
    1PPC    PO466023   5.396  10.417   6.818 -0.1487 -0.0361 -0.0707
    1PPC    GL166024   5.332  10.283   6.426 -0.1880  0.0266 -0.0935
    1PPC    GL266025   5.309  10.533   6.155 -0.1944 -0.1533 -0.0855
    1PPC    C1B66026   5.092  10.528   5.779 -0.0283  0.2477  0.0828
    1PPC    C2B66027   4.986  10.595   5.418  0.0492  0.0911  0.2650
    1PPC    C3B66028   4.573  10.716   5.110 -0.0004 -0.2696 -0.0439
    1PPC    C4B66029   4.273  10.923   4.796 -0.2529 -0.0899 -0.3024
    1PPC    NC366030  11.990  26.365   7.115 -0.0731  0.0380  0.0694
    1PPC    PO466031  12.414  26.194   7.262 -0.0768 -0.0778  0.1342
    1PPC    GL166032  12.351  25.979   6.880 -0.1333 -0.0305  0.2596
    1PPC    GL266033  12.230  26.039   6.570  0.0553 -0.1327 -0.1089
    1PPC    C1B66034  12.190  26.368   6.361  0.0281  0.0681  0.2043
    1PPC    C2B66035  11.814  26.528   6.179 -0.1522 -0.2448 -0.1328
    1PPC    C3B66036  11.621  26.909   6.223  0.2162 -0.1107 -0.0746
    1PPC    C4B66037  11.683  27.225   5.884  0.2492 -0.0135  0.2171
    1PPC    NC366038  12.351   0.278   7.881  0.1818 -0.1140  0.2580
    1PPC    PO466039  12.404  -0.133   7.787  0.2161  0.2268 -0.0840
    1PPC    GL166040  12.200  -0.154   7.462  0.1435 -0.3061 -0.2461
    1PPC    GL266041  12.129  -0.066   7.232  0.3932 -0.0526  0.0432
    1PPC    C1B66042  11.984  -0.094   6.854 -0.2283 -0.1204 -0.0279
    1PPC    C2B66043  11.909   0.252   6.625  0.0118 -0.0026  0.2477
    1PPC    C3B66044  11.988   0.515   6.346 -0.0708  0.0817 -0.0309
    1PPC    C4B66045  12.307   0.685   6.042 -0.0177  0.1252  0.0330
    1PPC    NC366046  25.676  12.805   6.651  0.0285  0.1056  0.1861
    1PPC    PO466047  25.847  12.903   6.209 -0.1035 -0.1843 -0.1905
    1PPC    GL166048  25.668  12.629   5.911  0.1038 -0.0848  0.0971
    1PPC    GL266049  25.724  12.558   5.544  0.0468  0.0755 -0.0804
    1PPC    C1B66050  25.933  12.662   5.122  0.1158 -0.2484 -0.0265
    1PPC    C2B66051  26.302  12.726   4.867 -0.2499  0.0902 -0.1802
    1PPC    C3B66052  26.322  12.883   4.392 -0.1536  0.1486  0.2254
    1PPC    C4B66053  26.469  13.155   4.179 -0.0804  0.1553  0.1906
    1PPC    NC366054   4.458   9.044   6.593  0.3193  0.0785 -0.0084
    1PPC    PO466055   3.988   8.900   6.618  0.0168  0.0020  0.0271
    1PPC    GL166056   3.668   8.940   6.298 -0.0364  0.1043  0.2194
    1PPC    GL266057   3.503   8.982   5.982 -0.1851 -0.2042  0.0480
    1PPC    C1B66058   3.616   9.282   5.737 -0.2831 -0.0587 -0.1679
    1PPC    C2B66059   3.517   9.336   5.349  0.0303 -0.2006  0.0234
    1PPC    C3B66060   3.869   9.403   5.020 -0.0499  0.3076 -0.0112
    1PPC    C4B66061   4.107   9.535   4.704  0.2914 -0.2851 -0.2149
    1PPC    NC366062  14.258  27.688   7.362  0.0966  0.2913 -0.0815
    1PPC    PO466063  14.644  27.371   7.396  0.0624  0.1917  0.1032
    1PPC    GL166064  14.573  27.488   7.016  0.2273 -0.0877  0.2089
    1PPC    GL266065  14.553  27.428   6.688  0.1057  0.0536 -0.0153
    1PPC    C1B66066  14.563  27.702   6.394 -0.1903 -0.0407  0.0812
    1PPC    C2B66067  14.497  28.138   6.147  0.0437 -0.1174 -0.0233
    1PPC    C3B66068  14.316  28.227   5.757  0.1455  0.1810 -0.3462
    1PPC    C4B66069  14.089  28.624   5.566 -0.0098  0.4875 -0.1748
    1PPC    NC366070   0.267   4.965   5.922  0.0537  0.1039 -0.0553
    1PPC    PO466071  -0.031   5.169   6.329 -0.1834 -0.2772  0.0412
    1PPC    GL166072  -0.212   4.961   5.899  0.2773  0.1669  0.0220
    1PPC    GL266073  -0.307   4.847   5.601 -0.0061  0.0393 -0.0404
    1PPC    C1B66074  -0.450   4.937   5.188 -0.0340  0.0800 -0.0757
    1PPC    C2B66075  -0.299   5.295   4.871  0.1340  0.3729  0.0856
    1PPC    C3B66076   0.099   5.391   4.629  0.0777  0.1374  0.1759
    1PPC    C4B66077   0.170   5.646   4.218 -0.2934  0.1666 -0.1802
    1PPC    NC366078  27.435  20.303   7.189  0.0420  0.0835 -0.0726
    1PPC    PO466079  27.346  20.459   6.870 -0.1196  0.0105 -0.1832
    1PPC    GL166080  27.474  20.630   6.486 -0.0846 -0.1524  0.1303
    1PPC    GL266081  27.320  20.446   6.202  0.2265 -0.1913 -0.0773
    1PPC    C1B66082  27.280  20.573   5.823  0.0545  0.3094 -0.0970
    1PPC    C2B66083  27.125  20.527   5.427 -0.1485 -0.4854  0.0015
    1PPC    C3B66084  27.006  20.362   5.021  0.0404  0.1006  0.0090
    1PPC    C4B66085  26.963  20.202   4.559 -0.1948  0.3000 -0.0711
    1PPC    NC366086   7.684   8.044   7.604 -0.0700 -0.1688  0.2499
    1PPC    PO466087   7.719   8.429   7.229 -0.0205 -0.1730  0.2025
    1PPC    GL166088   8.077   8.572   7.034 -0.0825 -0.0444  0.0671
    1PPC    GL266089   8.079   8.678   6.664 -0.0881 -0.1234  0.4140
    1PPC    C1B66090   8.230   9.078   6.305  0.1821 -0.1594 -0.1531
    1PPC    C2B66091   8.606   9.119   5.973  0.3142 -0.2292  0.2064
    1PPC    C3B66092   9.025   9.288   5.658  0.1313 -0.0114  0.1835
    1PPC    C4B66093   9.304   9.211   5.226 -0.0303 -0.0200 -0.0932
    1PPC    NC366094  23.310  25.584   6.352  0.0734  0.1808 -0.1937
    1PPC    PO466095  23.118  25.634   6.799  0.1063 -0.0185 -0.2859
    1PPC    GL166096  23.300  26.060   6.541 -0.0093 -0.1870 -0.3520
    1PPC    GL266097  23.555  26.195   6.326 -0.3511  0.1915  0.1692
    1PPC    C1B66098  23.602  26.296   5.942 -0.4327 -0.0514 -0.1440
    1PPC    C2B66099  23.673  26.374   5.549 -0.0616  0.1228  0.0707
    1PPC    C3B66100  23.671  26.311   5.069 -0.0292  0.1696 -0.0537
    1PPC    C4B66101  23.381  26.155   4.647  0.0946  0.3414 -0.3462
    1PPC    NC366102  13.938  23.693   7.116  0.0861 -0.0574  0.0716
    1PPC    PO466103  13.969  24.135   7.169 -0.0147 -0.2780 -0.0084
    1PPC    GL166104  13.647  24.112   6.833 -0.1461 -0.1036 -0.0432
    1PPC    GL266105  13.639  23.910   6.601  0.0860  0.2370  0.3189
    1PPC    C1B66106  13.409  23.609   6.340 -0.3241  0.1462  0.1964
    1PPC    C2B66107  13.025  23.228   6.306 -0.0023  0.1127  0.1534
    1PPC    C3B66108  12.831  23.094   5.841 -0.1457 -0.0170  0.5686
    1PPC    C4B66109  12.941  23.199   5.387 -0.0830 -0.0829  0.0221
    1PPC    NC366110   9.544   3.242   7.755  0.2435  0.0993  0.0070
    1PPC    PO466111   9.306   3.486   7.420 -0.1483  0.4710 -0.0717
    1PPC    GL166112   9.426   3.284   7.165  0.0582 -0.1915 -0.3173
    1PPC    GL266113   9.747   3.242   6.987 -0.0401  0.0893 -0.0559
    1PPC    C1B66114   9.968   2.900   6.714 -0.2968  0.0760 -0.0493
    1PPC    C2B66115   9.994   2.678   6.358  0.3777 -0.0343 -0.0658
    1PPC    C3B66116   9.950   2.432   6.057 -0.1324 -0.1852 -0.2455
    1PPC    C4B66117   9.709   2.210   5.703 -0.1372 -0.1207  0.2108
    1PPC    NC366118   1.932  10.337   7.692 -0.0787 -0.1188 -0.1455
    1PPC    PO466119   1.927  10.214   7.196 -0.1139  0.2534  0.1273
    1PPC    GL166120   1.959  10.149   6.803 -0.1488 -0.1088  0.0121
    1PPC    GL266121   2.057  10.204   6.578 -0.0647 -0.2539 -0.2199
    1PPC    C1B66122   2.217  10.068   6.219  0.1776 -0.0389  0.1757
    1PPC    C2B66123   2.060   9.933   5.740  0.0378  0.0715  0.2381
    1PPC    C3B66124   2.094   9.975   5.266  0.1874  0.2220  0.0369
    1PPC    C4B66125   2.135  10.203   4.854  0.0108  0.3348 -0.0546
    1PPC    NC366126   1.066  28.295   6.646 -0.0935  0.0577 -0.0502
    1PPC    PO466127   1.523  28.320   6.676 -0.2818 -0.4424 -0.3670
    1PPC    GL166128   1.687  28.278   6.291  0.0782  0.1496  0.3757
    1PPC    GL266129   1.828  28.561   6.076 -0.0541  0.3030 -0.2673
    1PPC    C1B66130   1.906  28.649   5.687 -0.2076  0.2994 -0.0736
    1PPC    C2B66131   2.112  28.504   5.373 -0.3001 -0.1498  0.5180
    1PPC    C3B66132   2.252  28.187   5.025 -0.0121  0.3397 -0.0124
    1PPC    C4B66133   2.490  27.790   5.093  0.2835 -0.1296  0.0648
    1PPC    NC366134  26.830   9.837   6.403  0.0939 -0.4564  0.2955
    1PPC    PO466135  26.925  10.234   6.302  0.2109  0.2821  0.2190
    1PPC    GL166136  27.089  10.321   5.872  0.0599  0.0077 -0.5076
    1PPC    GL266137  27.253  10.302   5.591  0.0089  0.0570  0.4006
    1PPC    C1B66138  27.605  10.387   5.117  0.0640 -0.2200 -0.1673
    1PPC    C2B66139  27.905  10.593   4.744  0.1862  0.0173  0.0761
    1PPC    C3B66140  28.088  11.038   4.735 -0.1230 -0.0995  0.1149
    1PPC    C4B66141  27.994  11.447   4.694  0.2037  0.1075  0.0688
    1PPC    NC366142  12.095   8.319   7.803  0.2292 -0.0409  0.0164
    1PPC    PO466143  11.972   8.068   7.541 -0.1318  0.0482 -0.0872
    1PPC    GL166144  12.064   8.184   7.178 -0.1356  0.0878  0.2441
    1PPC    GL266145  12.220   8.033   6.845  0.1531  0.4493 -0.3965
    1PPC    C1B66146  12.168   7.928   6.393 -0.1704  0.2423 -0.0975
    1PPC    C2B66147  12.466   7.796   6.045  0.0902  0.0279  0.0744
    1PPC    C3B66148  12.553   7.448   5.851 -0.1612 -0.3403 -0.1865
    1PPC    C4B66149  12.305   7.248   5.530 -0.0053 -0.2902  0.0475
    1PPC    NC366150   9.470  22.088   6.661 -0.2719  0.0486  0.2694
    1PPC    PO466151   9.627  21.846   6.304  0.2172  0.0552  0.2027
    1PPC    GL166152   9.832  21.682   5.971 -0.0054 -0.0098  0.0423
    1PPC    GL266153   9.891  21.670   5.745  0.1163 -0.1809 -0.3739
    1PPC    C1B66154   9.900  21.476   5.264 -0.0510 -0.2783  0.0372
    1PPC    C2B66155  10.037  21.711   4.827 -0.2414 -0.1565 -0.2628
    1PPC    C3B66156  10.033  21.861   4.444 -0.6282  0.0509  0.2536
    1PPC    C4B66157  10.292  22.055   4.163 -0.0858 -0.1329  0.1093
    1PPC    NC366158  13.895   4.166   8.580  0.1116 -0.0545 -0.0740
    1PPC    PO466159  13.934   4.035   8.123  0.0265 -0.1660 -0.0253
    1PPC    GL166160  13.746   3.970   7.667  0.0244 -0.1785  0.2974
    1PPC    GL266161  13.801   3.798   7.265 -0.2437  0.0703 -0.0259
    1PPC    C1B66162  14.028   3.866   6.899  0.2590  0.3941 -0.1874
    1PPC    C2B66163  13.998   3.976   6.500 -0.1860  0.0831 -0.0721
    1PPC    C3B66164  14.011   3.861   6.105  0.1595  0.1769 -0.1905
    1PPC    C4B66165  13.997   3.818   5.622 -0.0736  0.1321  0.0730
    1PPC    NC366166  28.162   5.150   6.260 -0.0102  0.0098  0.2958
    1PPC    PO466167  27.807   5.013   6.040  0.2600 -0.1006  0.0854
    1PPC    GL166168  28.079   5.235   5.762  0.5600  0.1771  0.3037
    1PPC    GL266169  28.105   5.419   5.432  0.2479  0.1313  0.0292
    1PPC    C1B66170  28.072   5.679   5.053 -0.3313 -0.0446  0.0155
    1PPC    C2B66171  28.023   5.893   4.658  0.2079 -0.1547  0.0824
    1PPC    C3B66172  27.902   6.242   4.344  0.1480  0.1242 -0.0136
    1PPC    C4B66173  27.929   6.532   4.038 -0.0160 -0.2342  0.1974
    1PPC    NC366174   2.962   6.196   7.392  0.2431  0.0568  0.1306
    1PPC    PO466175   3.233   5.908   7.066 -0.1298 -0.0134  0.2044
    1PPC    GL166176   3.371   5.834   6.631 -0.0784  0.0550  0.1601
    1PPC    GL266177   3.624   5.731   6.456 -0.3089 -0.0813  0.0443
    1PPC    C1B66178   4.007   5.626   6.091  0.1913  0.0224 -0.1542
    1PPC    C2B66179   4.154   5.347   5.807 -0.0531 -0.0279 -0.1120
    1PPC    C3B66180   4.349   5.127   5.532  0.0990  0.2039 -0.1610
    1PPC    C4B66181   4.399   5.337   5.105  0.0364 -0.3042  0.1254
    1PPC    NC366182  12.066   1.015   8.053  0.0823  0.1114  0.1834
    1PPC    PO466183  12.170   0.712   7.730 -0.3783  0.1602  0.0751
    1PPC    GL166184  12.305   0.926   7.280  0.0381 -0.0033  0.1684
    1PPC    GL266185  12.514   0.994   6.933  0.5367  0.1809 -0.1164
    1PPC    C1B66186  12.490   1.278   6.605 -0.2741  0.0875 -0.1720
    1PPC    C2B66187  12.592   1.489   6.233 -0.0697 -0.2663 -0.0438
    1PPC    C3B66188  12.507   1.844   6.054  0.2685 -0.2593 -0.1545
    1PPC    C4B66189  12.297   2.215   5.767  0.0758  0.1163  0.2233
    1PPC    NC366190   6.367   5.183   7.575  0.1754  0.2642 -0.0231
    1PPC    PO466191   6.066   5.519   7.435 -0.0160  0.0649  0.0631
    1PPC    GL166192   5.883   5.505   7.002 -0.0360  0.0466 -0.0724
    1PPC    GL266193   5.900   5.597   6.596 -0.1324 -0.3177 -0.1457
    1PPC    C1B66194   6.055   5.614   6.168 -0.1027  0.0073  0.2436
    1PPC    C2B66195   6.413   5.982   6.088  0.0995 -0.2876  0.1037
    1PPC    C3B66196   6.439   6.149   5.675  0.0875  0.0967 -0.3974
    1PPC    C4B66197   6.451   6.287   5.291 -0.1140 -0.5849 -0.1432
    1PPC    NC366198   6.275  26.829   7.510 -0.1056 -0.1519 -0.0929
    1PPC    PO466199   6.403  26.563   7.069  0.2780 -0.0909  0.0995
    1PPC    GL166200   5.990  26.457   6.830 -0.0935  0.1435 -0.1055
    1PPC    GL266201   5.732  26.739   6.633  0.5736 -0.1168 -0.3369
    1PPC    C1B66202   5.527  26.798   6.251  0.0388  0.0469 -0.3596
    1PPC    C2B66203   5.402  27.033   5.948 -0.1358  0.0546  0.3526
    1PPC    C3B66204   5.419  27.414   5.635  0.0036 -0.0925  0.1388
    1PPC    C4B66205   5.152  27.637   5.272  0.0975  0.1771  0.0350
    1PPC    NC366206  24.249  10.915   6.489  0.1128 -0.0187  0.1381
    1PPC    PO466207  24.307  10.515   6.402  0.0234 -0.2380 -0.1468
    1PPC    GL166208  24.547  10.494   5.968  0.2370 -0.0791  0.3214
    1PPC    GL266209  24.833  10.443   5.782  0.1533  0.1788 -0.0339
    1PPC    C1B66210  25.045  10.519   5.430 -0.2235 -0.0698 -0.1098
    1PPC    C2B66211  25.137  10.567   4.966  0.0486 -0.1837  0.0157
    1PPC    C3B66212  24.905  10.678   4.608 -0.0258  0.1640  0.1940
    1PPC    C4B66213  24.781  10.761   4.255  0.3488  0.3250 -0.1061
    1PPC    NC366214   5.853   6.398   6.720  0.1034 -0.2895 -0.0735
    1PPC    PO466215   6.345   6.515   6.747  0.0806 -0.0584 -0.0855
    1PPC    GL166216   6.353   6.902   6.386 -0.0094  0.1103 -0.0844
    1PPC    GL266217   6.251   7.188   6.200 -0.1797 -0.1980 -0.2096
    1PPC    C1B66218   6.070   7.391   5.953  0.0349 -0.1556 -0.2562
    1PPC    C2B66219   5.709   7.190   5.644 -0.0359 -0.0470 -0.3671
    1PPC    C3B66220   5.505   7.492   5.424 -0.1120 -0.1516 -0.2284
    1PPC    C4B66221   5.747   7.768   5.106 -0.0436  0.2868  0.1725
    1PPC    NC366222   5.093  21.302   6.128 -0.1885 -0.0589  0.0436
    1PPC    PO466223   5.477  21.237   6.007 -0.1948  0.0895  0.3928
    1PPC    GL166224   5.639  21.078   5.572  0.1980  0.0984  0.2933
    1PPC    GL266225   5.980  21.045   5.265 -0.0151  0.0227  0.1010
    1PPC    C1B66226   6.184  21.324   4.997  0.1143  0.1930 -0.3919
    1PPC    C2B66227   6.406  21.391   4.654 -0.0935  0.1308  0.1586
    1PPC    C3B66228   6.820  21.242   4.450 -0.0207  0.0049  0.0894
    1PPC    C4B66229   7.146  21.520   4.433  0.3667 -0.1622  0.2646
    1PPC    NC366230  23.820   4.271   6.673 -0.2310  0.1709 -0.1810
    1PPC    PO466231  23.975   4.056   6.395  0.4265 -0.1537  0.1540
    1PPC    GL166232  23.538   4.200   6.216  0.1460 -0.5957 -0.6010
    1PPC    GL266233  23.266   4.410   6.071  0.0898  0.1666 -0.3450
    1PPC    C1B66234  23.133   4.702   5.778 -0.0998 -0.2427 -0.0249
    1PPC    C2B66235  22.822   4.946   5.498  0.3812 -0.2514  0.0073
    1PPC    C3B66236  22.555   5.183   5.187  0.0571 -0.0253  0.0680
    1PPC    C4B66237  22.181   5.130   5.176 -0.0085 -0.1625 -0.1311
    1PPC    NC366238   2.405  18.316   6.142  0.2405  0.0199 -0.2200
    1PPC    PO466239   2.363  18.359   5.680 -0.1042  0.0093  0.1899
    1PPC    GL166240   2.376  18.759   5.497  0.1297 -0.1545  0.1518
    1PPC    GL266241   2.283  18.967   5.274  0.1334 -0.1117 -0.0692
    1PPC    C1B66242   2.363  19.040   4.829 -0.0420  0.1159  0.3017
    1PPC    C2B66243   2.398  19.106   4.429 -0.0389  0.0511 -0.0718
    1PPC    C3B66244   2.472  18.904   4.089  0.0155  0.0723 -0.0168
    1PPC    C4B66245   2.420  18.703   3.739  0.2371  0.2223 -0.3370
    1PPC    NC366246  11.239   7.448   7.793 -0.0714 -0.0250 -0.0353
    1PPC    PO466247  11.132   7.743   7.486 -0.1457  0.1494 -0.2042
    1PPC    GL166248  11.182   7.799   7.061  0.1087  0.1739 -0.1092
    1PPC    GL266249  11.141   8.037   6.854  0.0462  0.2730 -0.2143
    1PPC    C1B66250  11.386   8.187   6.412 -0.0848 -0.1114  0.0197
    1PPC    C2B66251  11.719   8.111   6.256 -0.1979 -0.1190 -0.0807
    1PPC    C3B66252  11.881   7.900   5.895 -0.2590 -0.2837  0.1064
    1PPC    C4B66253  11.645   7.766   5.546  0.0885 -0.1453  0.2072
    1PPC    NC366254   3.101  10.609   7.367  0.2778  0.3383  0.4395
    1PPC    PO466255   2.805  10.394   6.952 -0.2783 -0.0034 -0.2197
    1PPC    GL166256   3.163  10.243   6.736 -0.0932  0.0939 -0.0310
    1PPC    GL266257   3.207  10.231   6.399 -0.4836 -0.1942  0.0156
    1PPC    C1B66258   3.020  10.095   6.080  0.1599  0.1363 -0.1131
    1PPC    C2B66259   2.980   9.886   5.689 -0.1413 -0.2020 -0.0114
    1PPC    C3B66260   3.006   9.565   5.466  0.0547  0.1976 -0.0730
    1PPC    C4B66261   3.043   9.244   5.135 -0.2414  0.2210 -0.0921
    1PPC    NC366262  16.239   2.743   7.455 -0.0835 -0.2318 -0.0058
    1PPC    PO466263  16.012   3.116   7.560 -0.0655  0.0962 -0.0722
    1PPC    GL166264  15.485   3.027   7.438  0.4345  0.1958  0.1164
    1PPC    GL266265  15.258   3.032   7.266  0.5419 -0.0061  0.1615
    1PPC    C1B66266  15.277   3.369   6.839  0.2003  0.0218  0.1050
    1PPC    C2B66267  15.281   3.578   6.466 -0.3225  0.0511  0.2364
    1PPC    C3B66268  15.375   3.462   6.019  0.1243 -0.0696 -0.3242
    1PPC    C4B66269  15.376   3.018   5.844 -0.1330  0.0129  0.1015
    1PPC    NC366270  11.609   1.209   7.936 -0.0030 -0.0649 -0.1823
    1PPC    PO466271  11.762   1.631   7.768  0.0821 -0.0876  0.1236
    1PPC    GL166272  11.762   1.922   7.537  0.1962 -0.1361  0.1388
    1PPC    GL266273  11.624   1.953   7.265 -0.1088 -0.1522  0.0557
    1PPC    C1B66274  11.725   1.679   6.843 -0.1788 -0.2172 -0.0741
    1PPC    C2B66275  12.053   1.612   6.533  0.1613 -0.0300  0.0588
    1PPC    C3B66276  12.096   1.267   6.177 -0.0064  0.0012 -0.0595
    1PPC    C4B66277  11.748   0.870   6.045  0.1078  0.2985 -0.2686
    1PPC    NC366278  22.930  26.381   7.165  0.3372  0.2002 -0.1561
    1PPC    PO466279  23.030  26.497   6.743  0.1789 -0.0313 -0.3398
    1PPC    GL166280  23.275  26.696   6.421 -0.1734 -0.0976  0.3288
    1PPC    GL266281  23.253  26.827   6.152 -0.2667  0.1202 -0.0473
    1PPC    C1B66282  23.306  27.031   5.784 -0.6342  0.1886  0.4763
    1PPC    C2B66283  23.490  27.296   5.536  0.0873  0.3319  0.2082
    1PPC    C3B66284  23.748  27.529   5.307  0.1505 -0.0118  0.0343
    1PPC    C4B66285  23.871  27.623   4.902 -0.0387  0.3695 -0.0512
    1PPC    NC366286   0.431  16.891   6.047  0.0396 -0.3054 -0.1870
    1PPC    PO466287   0.155  16.522   6.278  0.1296 -0.1823  0.1092
    1PPC    GL166288   0.268  16.480   5.807  0.3645 -0.2462  0.0236
    1PPC    GL266289   0.287  16.437   5.491 -0.1558  0.0118  0.0219
    1PPC    C1B66290   0.273  16.630   5.171 -0.1617 -0.0613  0.3317
    1PPC    C2B66291   0.439  16.734   4.868  0.3843 -0.0133 -0.1840
    1PPC    C3B66292   0.512  16.586   4.433 -0.0365 -0.1557 -0.0466
    1PPC    C4B66293   0.427  16.729   4.050 -0.0139  0.0046 -0.0696
    1PPC    NC366294   7.298  26.936   6.727  0.2113  0.1048 -0.0128
    1PPC    PO466295   7.603  26.856   7.035  0.0245  0.0556 -0.4239
    1PPC    GL166296   7.874  27.134   6.937 -0.2225 -0.0075 -0.0196
    1PPC    GL266297   8.095  27.211   6.730 -0.3030 -0.1790  0.0849
    1PPC    C1B66298   8.130  27.481   6.312 -0.1057  0.0059  0.2761
    1PPC    C2B66299   8.273  27.723   6.065  0.0875  0.1443  0.1284
    1PPC    C3B66300   8.449  28.040   5.831  0.0640 -0.3033 -0.0538
    1PPC    C4B66301   8.809  28.277   5.569  0.0934  0.2757 -0.1956
    1PPC    NC366302  14.008  25.098   7.270  0.1023  0.2149 -0.1201
    1PPC    PO466303  14.484  25.191   7.258 -0.1579  0.1564 -0.0629
    1PPC    GL166304  14.280  24.793   6.894  0.1833  0.0773 -0.0402
    1PPC    GL266305  14.260  24.465   6.821  0.0374  0.2320 -0.1230
    1PPC    C1B66306  14.161  24.277   6.297  0.0772  0.1615 -0.0742
    1PPC    C2B66307  13.917  24.221   5.976  0.1021 -0.3585 -0.1648
    1PPC    C3B66308  13.577  23.890   5.964  0.1944 -0.0535 -0.1835
    1PPC    C4B66309  13.451  23.534   5.792 -0.0117  0.1334 -0.0362
    1PPC    NC366310  21.193   6.478   7.054  0.1294 -0.2782  0.1622
    1PPC    PO466311  21.008   6.847   6.920  0.1520 -0.2858  0.0670
    1PPC    GL166312  21.035   7.079   6.581  0.1969 -0.0267  0.2115
    1PPC    GL266313  20.801   7.173   6.457  0.1197 -0.0101  0.1277
    1PPC    C1B66314  20.541   7.477   6.186 -0.1889  0.1943  0.1368
    1PPC    C2B66315  20.281   7.514   5.864 -0.0937 -0.2097  0.1462
    1PPC    C3B66316  20.023   7.228   5.746 -0.0197 -0.1078  0.0701
    1PPC    C4B66317  19.700   7.274   5.627  0.0618  0.0026  0.2579
    1PPC    NC366318   6.286   8.413   6.660 -0.0821  0.2398  0.1766
    1PPC    PO466319   5.835   8.433   6.492 -0.1452  0.1105 -0.0519
    1PPC    GL166320   5.668   8.552   5.980 -0.0175  0.1677  0.1120
    1PPC    GL266321   5.747   8.723   5.845  0.1578  0.0208 -0.0867
    1PPC    C1B66322   5.884   9.117   5.834 -0.0514 -0.4803  0.4115
    1PPC    C2B66323   6.005   9.525   5.652  0.0360  0.1286  0.2325
    1PPC    C3B66324   6.298   9.664   5.331  0.1093  0.1711 -0.1403
    1PPC    C4B66325   6.676   9.797   5.036  0.1673 -0.3634 -0.0262
    1PPC    NC366326  22.788  27.950   6.645  0.0931  0.2228  0.0371
    1PPC    PO466327  22.867  27.467   6.618 -0.1263 -0.0416 -0.0120
    1PPC    GL166328  22.840  27.172   6.306 -0.2035  0.3541  0.0094
    1PPC    GL266329  22.774  26.911   6.029 -0.2249 -0.1439 -0.0447
    1PPC    C1B66330  22.846  26.703   5.552 -0.1862 -0.3283 -0.2517
    1PPC    C2B66331  23.080  26.418   5.338  0.3193 -0.1182  0.2491
    1PPC    C3B66332  23.082  26.045   5.091  0.2094 -0.0834 -0.3063
    1PPC    C4B66333  22.922  25.675   4.985 -0.2052 -0.0918 -0.2174
    1PPC    NC366334  21.465  13.159   7.625 -0.0188 -0.1858  0.1429
    1PPC    PO466335  21.452  13.639   7.537 -0.0385 -0.0933 -0.0340
    1PPC    GL166336  21.446  13.653   7.056  0.1427 -0.3617  0.1015
    1PPC    GL266337  21.472  13.749   6.660  0.2525 -0.3699 -0.2327
    1PPC    C1B66338  21.604  13.879   6.285 -0.3729 -0.1371  0.0026
    1PPC    C2B66339  21.564  13.735   5.890  0.0310 -0.0098 -0.1531
    1PPC    C3B66340  21.923  13.600   5.617 -0.2033  0.2604  0.2074
    1PPC    C4B66341  22.371  13.613   5.255 -0.3869  0.3960  0.0904
    1PPC    NC366342  27.551  13.675   5.874  0.2768 -0.2637 -0.1458
    1PPC    PO466343  27.083  13.539   5.876 -0.1446 -0.3594  0.1821
    1PPC    GL166344  26.879  13.408   5.519  0.0537 -0.1388 -0.3989
    1PPC    GL266345  26.877  13.097   5.332 -0.1059 -0.3685  0.1522
    1PPC    C1B66346  26.845  12.770   5.040  0.1274 -0.3718 -0.1310
    1PPC    C2B66347  26.726  12.545   4.678 -0.0065  0.0179  0.2671
    1PPC    C3B66348  26.700  12.180   4.362 -0.1446  0.1931 -0.4581
    1PPC    C4B66349  26.704  12.114   3.951 -0.1660  0.2066 -0.1506
    1PPC    NC366350  27.593   9.629   6.101  0.1301 -0.1963  0.0283
    1PPC    PO466351  27.980   9.447   6.373  0.0742 -0.2000 -0.0601
    1PPC    GL166352  28.243   9.388   6.033  0.2391  0.3616 -0.2029
    1PPC    GL266353  28.195   9.458   5.670 -0.3821 -0.0000 -0.0345
    1PPC    C1B66354  28.159   9.235   5.296  0.0078 -0.0926  0.0094
    1PPC    C2B66355  28.028   9.061   4.931  0.0782  0.0947 -0.2818
    1PPC    C3B66356  27.739   8.749   4.867 -0.0560  0.0647  0.2298
    1PPC    C4B66357  27.353   8.555   5.038 -0.0137  0.1486 -0.4730
    1PPC    NC366358  22.025  28.595   6.358 -0.3518 -0.1416 -0.0951
    1PPC    PO466359  21.615  28.789   6.189 -0.0431  0.0326  0.1959
    1PPC    GL166360  21.547  29.124   5.874 -0.2699  0.1542 -0.3766
    1PPC    GL266361  21.801  29.292   5.647  0.0534 -0.0154 -0.0824
    1PPC    C1B66362  21.928  29.557   5.563  0.2186  0.3310  0.1429
    1PPC    C2B66363  22.290  29.749   5.336  0.1286 -0.2817 -0.1436
    1PPC    C3B66364  22.203  30.226   5.275  0.0756  0.1491  0.2936
    1PPC    C4B66365  22.222  30.433   4.889  0.2072  0.3285  0.0398
    1PPC    NC366366  21.149   9.828   7.390  0.2561 -0.3172 -0.2646
    1PPC    PO466367  21.177   9.616   6.966 -0.1234 -0.1125  0.0519
    1PPC    GL166368  21.114   9.851   6.637  0.2013  0.0126 -0.0781
    1PPC    GL266369  20.978  10.088   6.387  0.0533 -0.0741  0.0960
    1PPC    C1B66370  21.094  10.460   6.092 -0.1152  0.2146 -0.3287
    1PPC    C2B66371  21.309  10.804   6.269  0.1786  0.0053  0.0367
    1PPC    C3B66372  21.600  10.988   5.999  0.1270 -0.1097  0.1558
    1PPC    C4B66373  21.636  11.378   5.756  0.0880 -0.1842  0.2090
    1PPC    NC366374   4.383  23.494   6.027  0.2396  0.1748  0.0104
    1PPC    PO466375   4.742  23.486   5.832 -0.3711 -0.2576 -0.1413
    1PPC    GL166376   4.833  23.225   5.501  0.0353 -0.1188 -0.0709
    1PPC    GL266377   4.918  23.236   5.115  0.2355  0.0362 -0.3728
    1PPC    C1B66378   4.913  22.888   4.815 -0.2173 -0.1672  0.0991
    1PPC    C2B66379   4.797  22.852   4.363  0.3861 -0.0422  0.0123
    1PPC    C3B66380   4.541  23.026   4.074  0.0859 -0.0432 -0.0023
    1PPC    C4B66381   4.471  23.000   3.543  0.2282  0.0694  0.4461
    1PPC    NC366382   5.478  18.410   6.318  0.1402  0.0436 -0.2152
    1PPC    PO466383   5.535  18.115   5.917 -0.0182 -0.1061 -0.0044
    1PPC    GL166384   5.305  18.152   5.577  0.2638 -0.0854  0.0506
    1PPC    GL266385   5.381  18.244   5.270 -0.0126  0.0540 -0.1305
    1PPC    C1B66386   5.359  18.448   4.894 -0.1415  0.2334  0.2587
    1PPC    C2B66387   5.730  18.553   4.617 -0.1427 -0.3520 -0.3560
    1PPC    C3B66388   5.818  18.878   4.296 -0.0376 -0.1815 -0.0791
    1PPC    C4B66389   5.995  18.890   3.874  0.0430 -0.2716 -0.4749
    1PPC    NC366390   7.397  24.195   6.657 -0.2371  0.3546  0.3631
    1PPC    PO466391   7.513  24.586   6.467 -0.1736  0.3123 -0.3358
    1PPC    GL166392   7.245  24.871   6.157  0.0444 -0.1061 -0.2592
    1PPC    GL266393   7.159  24.815   5.922  0.0813  0.0159 -0.0185
    1PPC    C1B66394   7.216  24.920   5.501  0.3548  0.1239 -0.1807
    1PPC    C2B66395   7.387  25.180   5.182 -0.1848 -0.3948 -0.0884
    1PPC    C3B66396   7.613  25.192   4.714 -0.0411  0.0174 -0.0454
    1PPC    C4B66397   7.759  25.138   4.258  0.0076 -0.0690 -0.0994
    1PPC    NC366398  10.035   8.940   8.262  0.0473  0.5163 -0.0772
    1PPC    PO466399  10.046   9.161   7.866 -0.2019  0.1491  0.0028
    1PPC    GL166400  10.122   8.967   7.528  0.1353 -0.0849  0.1684
    1PPC    GL266401  10.161   8.940   7.207 -0.1091  0.0972  0.1393
    1PPC    C1B66402  10.095   9.024   6.774 -0.0860  0.1278  0.1312
    1PPC    C2B66403   9.910   8.864   6.406 -0.1291  0.0049  0.0662
    1PPC    C3B66404   9.958   8.830   5.976  0.0173 -0.1919  0.0712
    1PPC    C4B66405   9.769   8.626   5.613  0.0226 -0.0014  0.0599
    1PPC    NC366406  24.743  24.800   6.979  0.3450  0.1131 -0.1131
    1PPC    PO466407  24.850  24.521   6.666 -0.1453  0.0290 -0.0320
    1PPC    GL166408  24.782  24.519   6.298  0.1505 -0.1625  0.2909
    1PPC    GL266409  24.611  24.470   6.093  0.0135  0.2578  0.0942
    1PPC    C1B66410  24.551  24.487   5.699 -0.3083  0.0512  0.1420
    1PPC    C2B66411  24.694  24.386   5.353 -0.1277  0.1329 -0.1951
    1PPC    C3B66412  24.527  24.322   4.900  0.2668 -0.2048  0.1729
    1PPC    C4B66413  24.455  23.978   4.591  0.2432 -0.4211  0.0644
    1PPC    NC366414   6.191  12.525   7.049  0.0969 -0.3807  0.0756
    1PPC    PO466415   6.340  12.796   6.685 -0.2686  0.1565 -0.1823
    1PPC    GL166416   6.236  12.972   6.338 -0.3697  0.2792 -0.3881
    1PPC    GL266417   6.116  13.245   6.129 -0.3816  0.0366 -0.0026
    1PPC    C1B66418   6.007  13.317   5.746  0.1226  0.1087  0.1597
    1PPC    C2B66419   6.193  13.432   5.349  0.1131  0.1632  0.0149
    1PPC    C3B66420   6.494  13.734   5.114  0.2013  0.2256 -0.1812
    1PPC    C4B66421   6.468  13.875   4.705 -0.2321 -0.3202 -0.0529
    1PPC    NC366422   9.199  25.459   7.248 -0.1087  0.0392  0.1182
    1PPC    PO466423   9.323  25.513   6.733  0.0258  0.0654  0.0263
    1PPC    GL166424   9.626  25.749   6.320 -0.1698 -0.0944  0.0515
    1PPC    GL266425   9.606  25.740   5.902 -0.1994 -0.1030 -0.0021
    1PPC    C1B66426   9.666  25.536   5.537  0.0340 -0.0571  0.1342
    1PPC    C2B66427   9.792  25.131   5.374  0.0805 -0.0279  0.0341
    1PPC    C3B66428   9.693  24.855   5.078  0.0237  0.0613 -0.0627
    1PPC    C4B66429   9.458  24.961   4.706 -0.0221  0.0334  0.0611
    1PPC    NC366430   4.553  20.316   5.430 -0.2875 -0.1289 -0.1455
    1PPC    PO466431   4.995  20.303   5.695 -0.3338  0.0266  0.0000
    1PPC    GL166432   4.896  19.998   5.354 -0.0511  0.4082  0.1925
    1PPC    GL266433   5.110  19.942   5.038 -0.0997  0.2387 -0.1961
    1PPC    C1B66434   5.036  19.941   4.565 -0.1398 -0.3648 -0.0787
    1PPC    C2B66435   4.861  20.177   4.106 -0.0750  0.1231 -0.0644
    1PPC    C3B66436   4.603  20.429   3.862 -0.0891  0.2695 -0.0651
    1PPC    C4B66437   4.715  20.843   3.947  0.2732  0.3171  0.0415
    1PPC    NC366438  26.745   1.831   6.860 -0.0106 -0.1199  0.2133
    1PPC    PO466439  26.571   1.576   6.549 -0.2750  0.2027 -0.1465
    1PPC    GL166440  26.504   1.595   6.025 -0.1454  0.0933 -0.0279
    1PPC    GL266441  26.476   1.494   5.726  0.0494 -0.1975 -0.0446
    1PPC    C1B66442  26.516   1.605   5.393 -0.1857  0.2155  0.0120
    1PPC    C2B66443  26.614   2.047   5.229  0.0107  0.0534 -0.2298
    1PPC    C3B66444  26.625   2.454   5.178  0.2537  0.0888 -0.0477
    1PPC    C4B66445  26.496   2.874   5.175  0.0785  0.1909  0.0496
    1PPC    NC366446   8.319   7.045   7.359  0.0393 -0.0378  0.1131
    1PPC    PO466447   8.141   7.375   7.196 -0.0974  0.1768 -0.6872
    1PPC    GL166448   8.137   7.471   6.719  0.0162 -0.1977  0.1108
    1PPC    GL266449   8.319   7.602   6.551  0.0625  0.0778 -0.5369
    1PPC    C1B66450   8.359   7.561   6.145  0.1397  0.1377  0.3294
    1PPC    C2B66451   8.653   7.794   5.842  0.0416  0.1001  0.1531
    1PPC    C3B66452   8.443   8.161   5.594 -0.0658 -0.0807 -0.4918
    1PPC    C4B66453   8.093   8.508   5.496 -0.0083  0.0078  0.3310
    1PPC    NC366454  20.213  18.223   8.147 -0.0335  0.0684 -0.2705
    1PPC    PO466455  20.060  18.020   7.809  0.0748  0.0243  0.1003
    1PPC    GL166456  19.963  18.159   7.459  0.0202  0.1559 -0.2987
    1PPC    GL266457  20.154  18.127   7.209 -0.1928 -0.0906 -0.1760
    1PPC    C1B66458  20.229  17.908   6.751 -0.1865 -0.0518  0.0458
    1PPC    C2B66459  20.273  17.919   6.339  0.0310 -0.2020 -0.4466
    1PPC    C3B66460  20.213  17.952   6.003 -0.1739  0.1846 -0.2704
    1PPC    C4B66461  20.125  17.779   5.568  0.0753 -0.0974  0.1265
    1PPC    NC366462  24.313  10.786   7.391 -0.0054 -0.2971 -0.1805
    1PPC    PO466463  24.298  10.615   7.004  0.1218 -0.0148 -0.0625
    1PPC    GL166464  23.832  10.640   6.782  0.0919 -0.2377  0.1311
    1PPC    GL266465  23.715  10.553   6.517 -0.3123  0.1613  0.2149
    1PPC    C1B66466  23.553  10.644   6.134  0.1938  0.1667 -0.0091
    1PPC    C2B66467  23.371  10.516   5.766 -0.2510 -0.1093  0.0587
    1PPC    C3B66468  23.417  10.392   5.332  0.0270 -0.0386  0.0349
    1PPC    C4B66469  23.406  10.616   4.933  0.1781  0.2689 -0.0447
    1PPC    NC366470   5.342   4.938   6.534 -0.2202  0.1254 -0.1756
    1PPC    PO466471   5.459   5.008   6.949 -0.1860  0.0653  0.0472
    1PPC    GL166472   5.883   5.030   6.779  0.0527  0.0575  0.0127
    1PPC    GL266473   5.945   5.081   6.450  0.0286  0.0204  0.1239
    1PPC    C1B66474   5.684   5.261   6.110  0.1376  0.2174 -0.1501
    1PPC    C2B66475   5.673   5.318   5.674  0.0785 -0.1322 -0.1021
    1PPC    C3B66476   5.858   5.416   5.222 -0.0691  0.0713  0.2011
    1PPC    C4B66477   5.898   5.585   4.869 -0.1055 -0.0375 -0.1998
    1PPC    NC366478  14.741   1.209   7.475  0.1351  0.2558  0.0859
    1PPC    PO466479  14.838   1.644   7.418 -0.0842 -0.0564 -0.1735
    1PPC    GL166480  14.698   1.769   7.019 -0.2878  0.0126  0.2055
    1PPC    GL266481  14.556   2.088   6.836  0.2065  0.1381 -0.0146
    1PPC    C1B66482  14.462   2.481   6.701 -0.1569  0.0299 -0.2675
    1PPC    C2B66483  14.587   2.951   6.554  0.1148 -0.2453  0.0945
    1PPC    C3B66484  14.784   3.414   6.491 -0.1968 -0.1755  0.0743
    1PPC    C4B66485  14.820   3.596   6.118 -0.1598 -0.0713 -0.0651
    1PPC    NC366486  13.961  28.678   7.193  0.0206  0.2099 -0.1783
    1PPC    PO466487  13.669  28.978   7.119 -0.1029 -0.3151  0.3147
    1PPC    GL166488  13.716  29.282   6.901  0.3072  0.0997  0.1245
    1PPC    GL266489  13.663  29.696   7.008 -0.3454  0.0341  0.0476
    1PPC    C1B66490  13.934  29.941   6.865  0.4202 -0.0652  0.1777
    1PPC    C2B66491  14.222  30.323   6.641 -0.1371  0.0946 -0.2020
    1PPC    C3B66492  14.193  30.781   6.413  0.3050  0.3231 -0.1630
    1PPC    C4B66493  14.142  31.262   6.299 -0.0839  0.0537 -0.0336
    1PPC    NC366494  21.357  10.846   7.178  0.2407  0.2271  0.1991
    1PPC    PO466495  20.992  10.898   7.449 -0.1475  0.0061  0.0353
    1PPC    GL166496  20.791  11.094   7.232  0.3992  0.0332 -0.0283
    1PPC    GL266497  20.591  11.155   6.994 -0.1422 -0.1317  0.2869
    1PPC    C1B66498  20.391  11.105   6.533 -0.1280  0.1344  0.1078
    1PPC    C2B66499  20.495  11.007   6.091  0.0036  0.0103  0.1414
    1PPC    C3B66500  20.727  10.815   5.756 -0.1199  0.2170  0.5144
    1PPC    C4B66501  20.585  10.403   5.560  0.2034  0.2132 -0.1836
    1PPC    NC366502  24.470   5.589   7.172 -0.1118  0.0929 -0.0402
    1PPC    PO466503  23.956   5.496   7.122  0.3040 -0.2190 -0.2301
    1PPC    GL166504  23.779   5.298   6.690 -0.2111  0.0381 -0.1920
    1PPC    GL266505  23.637   5.158   6.476 -0.2596  0.0918 -0.1451
    1PPC    C1B66506  23.180   5.043   6.231  0.0154  0.0352  0.1374
    1PPC    C2B66507  22.724   4.901   6.011 -0.0178 -0.2163 -0.1309
    1PPC    C3B66508  22.458   4.572   6.014 -0.1279 -0.1801  0.0371
    1PPC    C4B66509  22.253   4.209   6.035  0.0968  0.1290  0.1338
    1PPC    NC366510   4.735   1.229   7.054  0.0432 -0.2386 -0.1636
    1PPC    PO466511   4.748   0.892   6.798 -0.2836  0.2074 -0.0878
    1PPC    GL166512   4.922   0.879   6.432  0.0645  0.1587 -0.1109
    1PPC    GL266513   5.047   1.011   6.252 -0.4345 -0.1466  0.0588
    1PPC    C1B66514   5.192   1.034   5.781  0.1290  0.0625  0.1746
    1PPC    C2B66515   5.020   1.022   5.356  0.0002  0.0817  0.0733
    1PPC    C3B66516   4.772   1.065   4.981  0.0026  0.1753  0.1091
    1PPC    C4B66517   4.513   0.866   4.784 -0.2586 -0.0757  0.4065
    1PPC    NC366518  11.678  27.215   7.127  0.0870  0.0586 -0.2244
    1PPC    PO466519  12.015  26.894   7.057 -0.2964 -0.0463  0.2988
    1PPC    GL166520  12.188  26.815   6.521 -0.1267  0.1296  0.0266
    1PPC    GL266521  12.214  26.856   6.263  0.1377  0.3215  0.0929
    1PPC    C1B66522  12.269  26.662   5.885  0.2466 -0.2168 -0.1659
    1PPC    C2B66523  12.203  26.667   5.394 -0.1418  0.1176 -0.0428
    1PPC    C3B66524  11.814  26.610   5.181  0.2096 -0.0841 -0.0332
    1PPC    C4B66525  11.396  26.667   5.258  0.0570  0.0856  0.0427
    1PPC    NC366526  23.112   7.548   6.836  0.0818  0.0144 -0.1056
    1PPC    PO466527  22.948   7.265   6.579 -0.0635  0.1348  0.0055
    1PPC    GL166528  22.852   7.312   6.162 -0.0327  0.0666  0.3140
    1PPC    GL266529  22.795   7.185   5.902 -0.1266  0.0363  0.1987
    1PPC    C1B66530  22.549   7.017   5.576 -0.1833  0.0293 -0.0775
    1PPC    C2B66531  22.415   6.819   5.225 -0.3087 -0.1268  0.1312
    1PPC    C3B66532  22.267   6.541   4.839  0.2198 -0.0486 -0.1549
    1PPC    C4B66533  22.122   6.188   4.572  0.1854  0.1707 -0.1481
    1PPC    NC366534  21.520  20.153   7.283  0.1801 -0.1192 -0.1040
    1PPC    PO466535  21.084  19.928   7.196 -0.0586 -0.3409  0.2012
    1PPC    GL166536  21.148  19.910   6.765 -0.1506  0.0642  0.0743
    1PPC    GL266537  20.960  20.109   6.445  0.3317 -0.1075 -0.3118
    1PPC    C1B66538  20.971  20.204   6.030 -0.1476  0.1770 -0.1449
    1PPC    C2B66539  20.787  20.093   5.603  0.3567 -0.1349  0.0582
    1PPC    C3B66540  20.405  20.031   5.373  0.0639 -0.1104 -0.1991
    1PPC    C4B66541  20.126  20.036   5.154 -0.0243 -0.2911 -0.0799
    1PPC    NC366542   4.102  16.054   6.203 -0.3562 -0.1576 -0.1365
    1PPC    PO466543   3.886  16.451   6.052  0.1175  0.0589  0.2099
    1PPC    GL166544   4.058  16.149   5.730  0.0745  0.2370 -0.0747
    1PPC    GL266545   4.058  15.897   5.502  0.0639 -0.2433 -0.0195
    1PPC    C1B66546   4.052  15.754   5.138  0.0493  0.0572  0.0141
    1PPC    C2B66547   3.944  15.458   5.009 -0.0528  0.1715 -0.1193
    1PPC    C3B66548   3.637  15.193   5.238 -0.0255 -0.2051 -0.2598
    1PPC    C4B66549   3.302  14.959   5.073  0.1214 -0.2769 -0.1171
    1PPC    NC366550  25.068  13.991   5.966 -0.0248 -0.0400 -0.2638
    1PPC    PO466551  25.415  14.194   5.987  0.1198 -0.1612  0.0121
    1PPC    GL166552  25.220  14.127   5.541  0.0055  0.2605 -0.1382
    1PPC    GL266553  25.031  13.923   5.395  0.1423 -0.0029 -0.0136
    1PPC    C1B66554  24.856  13.939   5.023 -0.2293 -0.0194 -0.0270
    1PPC    C2B66555  24.756  13.866   4.497 -0.0657  0.2949  0.1556
    1PPC    C3B66556  24.814  13.462   4.299  0.0461 -0.3783 -0.1271
    1PPC    C4B66557  24.810  13.122   4.048  0.0575  0.1879 -0.0657
    1PPC    NC366558  17.535   4.478   3.286 -0.1522 -0.1093  0.2686
    1PPC    PO466559  17.824   4.739   3.206 -0.0400 -0.0792 -0.1386
    1PPC    GL166560  17.643   4.809   3.622  0.1705 -0.1733  0.0066
    1PPC    GL266561  17.713   4.791   3.921  0.0087 -0.0861 -0.2887
    1PPC    C1B66562  17.479   4.781   4.385 -0.1055  0.3094 -0.1473
    1PPC    C2B66563  17.613   4.583   4.782 -0.1730 -0.2030  0.1513
    1PPC    C3B66564  17.791   4.753   5.105 -0.0178  0.0502 -0.0349
    1PPC    C4B66565  17.888   4.983   5.379  0.0616 -0.1605 -0.0158
    1PPC    NC366566  23.315  25.588   2.643  0.2965 -0.0945  0.0813
    1PPC    PO466567  23.198  25.468   3.093 -0.1461  0.4800 -0.2904
    1PPC    GL166568  23.168  25.710   3.431 -0.0279  0.1259 -0.1988
    1PPC    GL266569  23.215  25.791   3.716  0.1883 -0.1269 -0.1549
    1PPC    C1B66570  23.247  25.885   4.170  0.2280 -0.0194 -0.0771
    1PPC    C2B66571  23.303  25.683   4.640  0.1822 -0.3718  0.1930
    1PPC    C3B66572  23.294  25.404   4.985  0.2632  0.3222 -0.0508
    1PPC    C4B66573  23.461  25.172   5.386 -0.2090  0.2525 -0.0996
    1PPC    NC366574   4.215  12.027   3.150 -0.0623 -0.1259 -0.0765
    1PPC    PO466575   3.808  12.217   3.163 -0.1925  0.0883 -0.0068
    1PPC    GL166576   4.093  12.304   3.607  0.0282  0.1227  0.2948
    1PPC    GL266577   3.944  12.315   3.842  0.0973 -0.2401  0.0556
    1PPC    C1B66578   3.670  12.575   4.030  0.0199 -0.1734  0.0869
    1PPC    C2B66579   3.411  12.697   4.244 -0.1297  0.1893 -0.2178
    1PPC    C3B66580   2.965  12.775   4.273 -0.1136  0.0189 -0.1358
    1PPC    C4B66581   2.567  12.687   4.466 -0.0817 -0.2316 -0.2387
    1PPC    NC366582   0.408  11.132   2.758  0.1823 -0.1232 -0.3003
    1PPC    PO466583   0.768  11.004   2.393 -0.3283  0.3618  0.0407
    1PPC    GL166584   0.875  10.888   2.795  0.0415 -0.0086 -0.1568
    1PPC    GL266585   0.633  10.763   3.092  0.1581 -0.1765 -0.1712
    1PPC    C1B66586   0.563  10.865   3.586 -0.2420  0.0176  0.0424
    1PPC    C2B66587   0.592  11.227   3.939 -0.3425 -0.0456 -0.0576
    1PPC    C3B66588   0.466  11.371   4.294  0.1123  0.2361 -0.0836
    1PPC    C4B66589   0.364  11.228   4.719  0.0378  0.1355 -0.0091
    1PPC    NC366590  12.856  27.699   3.469 -0.1520 -0.0726  0.0136
    1PPC    PO466591  13.187  27.565   3.740  0.1299  0.2340  0.2821
    1PPC    GL166592  13.183  27.324   4.167 -0.0127  0.0609 -0.2906
    1PPC    GL266593  12.900  27.377   4.384 -0.1327  0.1555 -0.2029
    1PPC    C1B66594  12.779  27.307   4.776  0.2542  0.4337  0.0819
    1PPC    C2B66595  12.781  27.358   5.212  0.1501 -0.0390  0.0001
    1PPC    C3B66596  12.446  27.526   5.491  0.1976  0.0432 -0.0394
    1PPC    C4B66597  12.386  27.909   5.730  0.0402  0.0170  0.3276
    1PPC    NC366598  25.403  14.366   2.431 -0.0492  0.3012  0.3111
    1PPC    PO466599  25.503  13.912   2.622 -0.0300  0.0364 -0.0612
    1PPC    GL166600  25.454  13.650   2.993 -0.1448 -0.1222  0.4911
    1PPC    GL266601  25.536  13.746   3.312  0.1019 -0.0540 -0.3745
    1PPC    C1B66602  25.652  13.603   3.717  0.0296  0.1309 -0.0085
    1PPC    C2B66603  25.935  13.445   4.103 -0.2574 -0.1852  0.0702
    1PPC    C3B66604  26.029  13.484   4.465 -0.1733  0.3761  0.0021
    1PPC    C4B66605  26.036  13.657   4.909 -0.0714 -0.1284 -0.6507
    1PPC    NC366606  27.870  13.375   2.391 -0.0179  0.0124 -0.2817
    1PPC    PO466607  27.599  13.391   2.156 -0.0068  0.3038 -0.2474
    1PPC    GL166608  27.379  13.467   2.476  0.2330  0.2216  0.5829
    1PPC    GL266609  27.377  13.376   2.830 -0.1481  0.2146 -0.0105
    1PPC    C1B66610  27.437  13.412   3.192  0.0039 -0.3371 -0.4085
    1PPC    C2B66611  27.614  13.678   3.448  0.0136  0.0785 -0.3574
    1PPC    C3B66612  27.798  13.878   3.820  0.0981  0.0488 -0.2034
    1PPC    C4B66613  28.015  14.153   4.171  0.0537 -0.1721  0.0715
    1PPC    NC366614  26.184   0.447   3.424 -0.0682 -0.2043 -0.0077
    1PPC    PO466615  26.549   0.678   3.463  0.0296  0.0744  0.0243
    1PPC    GL166616  26.620   0.332   3.675 -0.0827  0.1543 -0.0110
    1PPC    GL266617  26.491   0.279   4.021  0.0203 -0.1007 -0.1575
    1PPC    C1B66618  26.470   0.423   4.447 -0.1993 -0.1210  0.0661
    1PPC    C2B66619  26.822   0.639   4.600 -0.2946  0.0647  0.1477
    1PPC    C3B66620  27.066   0.684   5.062  0.1150  0.1908 -0.3314
    1PPC    C4B66621  27.062   1.092   5.256  0.0231  0.0608  0.0218
    1PPC    NC366622   7.277   3.693   2.573  0.0947  0.0299  0.0417
    1PPC    PO466623   7.433   3.725   3.041 -0.1890  0.0230 -0.2864
    1PPC    GL166624   7.354   3.819   3.417 -0.2407 -0.0826  0.1351
    1PPC    GL266625   7.501   3.948   3.717 -0.0938  0.0975 -0.1153
    1PPC    C1B66626   7.347   3.727   4.084 -0.0870 -0.0570  0.0452
    1PPC    C2B66627   7.299   3.405   4.364 -0.1474 -0.0949  0.1077
    1PPC    C3B66628   7.570   3.228   4.598 -0.0601  0.0355  0.0037
    1PPC    C4B66629   7.616   3.088   4.993  0.3073 -0.2461  0.0407
    1PPC    NC366630   7.159  11.838   3.099  0.1677  0.0328  0.1754
    1PPC    PO466631   7.444  11.510   2.980 -0.3989  0.2903 -0.0597
    1PPC    GL166632   7.459  11.731   3.434  0.0411  0.0144  0.0089
    1PPC    GL266633   7.513  11.609   3.786  0.2964 -0.0299  0.0020
    1PPC    C1B66634   7.633  11.660   4.243  0.1228  0.0479 -0.0221
    1PPC    C2B66635   7.604  11.559   4.663  0.0238 -0.0054  0.1719
    1PPC    C3B66636   7.409  11.470   5.020  0.0881  0.0556  0.4408
    1PPC    C4B66637   7.098  11.420   5.228  0.2384 -0.1080 -0.3989
    1PPC    NC366638   6.510   7.680   3.027  0.3998 -0.1011  0.3239
    1PPC    PO466639   6.593   7.959   3.295 -0.3497 -0.0367  0.4404
    1PPC    GL166640   6.718   8.149   3.670  0.0803 -0.3845  0.0350
    1PPC    GL266641   6.883   8.300   3.943  0.2290 -0.2661 -0.1046
    1PPC    C1B66642   7.107   8.255   4.353  0.0395 -0.0932  0.1530
    1PPC    C2B66643   6.898   8.618   4.595  0.0510 -0.2044  0.0447
    1PPC    C3B66644   6.915   9.003   4.842 -0.2092 -0.0186 -0.0293
    1PPC    C4B66645   7.054   9.376   4.905  0.4778  0.3455  0.0447
    1PPC    NC366646  26.534  27.194   3.505  0.0171  0.4959  0.0749
    1PPC    PO466647  26.961  27.369   3.453  0.1539  0.3455  0.2350
    1PPC    GL166648  27.234  27.440   3.902  0.0430  0.0262  0.0849
    1PPC    GL266649  27.251  27.355   4.183  0.1961  0.2532 -0.1001
    1PPC    C1B66650  27.395  27.112   4.510 -0.0163  0.0571 -0.0212
    1PPC    C2B66651  27.689  26.933   4.697 -0.0333 -0.1229  0.3567
    1PPC    C3B66652  28.035  26.912   4.846  0.0515  0.0315 -0.0342
    1PPC    C4B66653  28.256  26.518   5.036  0.3277  0.1692 -0.0121
    1PPC    NC366654   9.375  21.282   2.026  0.2118 -0.1009 -0.0177
    1PPC    PO466655   9.731  21.302   2.361 -0.1042  0.0985  0.2196
    1PPC    GL166656   9.753  21.529   2.803  0.0527 -0.0512 -0.1944
    1PPC    GL266657   9.607  21.619   3.066 -0.1602 -0.2634 -0.0346
    1PPC    C1B66658   9.325  21.917   3.344 -0.1668  0.0860 -0.0921
    1PPC    C2B66659   9.298  22.234   3.716 -0.1771 -0.0779 -0.2114
    1PPC    C3B66660   9.291  22.667   3.940 -0.0152  0.0316 -0.4130
    1PPC    C4B66661   9.619  22.886   4.183 -0.2177 -0.0666  0.2898
    1PPC    NC366662  23.500  22.825   2.585 -0.2598 -0.3586  0.2417
    1PPC    PO466663  23.203  23.148   2.736 -0.0717  0.1054 -0.1284
    1PPC    GL166664  23.200  23.199   3.271  0.0879  0.1437 -0.0488
    1PPC    GL266665  23.154  23.444   3.543 -0.1337  0.1948  0.1626
    1PPC    C1B66666  23.218  23.591   3.968  0.0176  0.2584 -0.0759
    1PPC    C2B66667  23.097  23.831   4.373 -0.3071  0.1106 -0.1311
    1PPC    C3B66668  22.851  24.125   4.611 -0.0163  0.0686  0.3443
    1PPC    C4B66669  23.007  24.300   5.009 -0.0627  0.1053  0.1354
    1PPC    NC366670   9.391  19.549   2.383  0.1542 -0.1707  0.2345
    1PPC    PO466671   9.874  19.601   2.142  0.0105  0.0482  0.2035
    1PPC    GL166672   9.991  19.724   2.555  0.2350 -0.4267  0.0487
    1PPC    GL266673   9.898  19.896   2.827 -0.2086  0.1717 -0.1427
    1PPC    C1B66674   9.768  20.196   3.121 -0.1057 -0.4339 -0.1951
    1PPC    C2B66675   9.517  20.265   3.403 -0.1879 -0.1202 -0.2444
    1PPC    C3B66676   9.119  20.233   3.503  0.1582 -0.3534 -0.0210
    1PPC    C4B66677   8.884  19.886   3.535 -0.0117 -0.0324 -0.0936
    1PPC    NC366678   9.397  14.411   2.519  0.1106  0.0350  0.2313
    1PPC    PO466679   9.032  14.771   2.655 -0.2281 -0.2172  0.0707
    1PPC    GL166680   8.863  14.534   3.021 -0.3128 -0.3229  0.0909
    1PPC    GL266681   8.984  14.480   3.361  0.1501  0.0588 -0.2243
    1PPC    C1B66682   9.079  14.682   3.784  0.0744 -0.1822 -0.0333
    1PPC    C2B66683   8.937  14.940   4.025 -0.0343 -0.0816 -0.0342
    1PPC    C3B66684   9.126  15.419   4.023  0.0544 -0.2872 -0.4068
    1PPC    C4B66685   9.288  15.540   3.643  0.2108  0.2533  0.2811
    1PPC    NC366686  12.573   5.133   3.495 -0.2314  0.1025 -0.1507
    1PPC    PO466687  12.156   5.359   3.530  0.1414  0.3267 -0.3035
    1PPC    GL166688  12.242   5.690   3.903 -0.0712  0.0283  0.0078
    1PPC    GL266689  12.213   5.780   4.278  0.0384  0.1018 -0.1130
    1PPC    C1B66690  12.477   5.994   4.520  0.1390  0.1684 -0.1067
    1PPC    C2B66691  12.407   5.999   4.909 -0.0309  0.3379  0.2897
    1PPC    C3B66692  12.263   5.722   5.200  0.2244 -0.3818 -0.2065
    1PPC    C4B66693  11.871   5.533   5.315 -0.1371 -0.0816  0.1357
    1PPC    NC366694  26.363   5.047   2.928  0.4646 -0.1050  0.0256
    1PPC    PO466695  26.677   5.330   2.887 -0.0642 -0.1390  0.0409
    1PPC    GL166696  26.630   5.513   3.287 -0.1459  0.0400  0.0010
    1PPC    GL266697  26.803   5.578   3.505 -0.1465  0.0472 -0.0503
    1PPC    C1B66698  27.125   5.747   3.791 -0.1737 -0.0490  0.1255
    1PPC    C2B66699  27.227   6.181   3.989 -0.0100  0.1969 -0.3401
    1PPC    C3B66700  27.412   6.443   4.220  0.0397 -0.3158  0.0462
    1PPC    C4B66701  27.512   6.610   4.596 -0.2877  0.0432 -0.4033
    1PPC    NC366702  22.556   4.799   3.129 -0.2372  0.0774  0.0444
    1PPC    PO466703  23.046   4.860   3.030  0.0028 -0.1896  0.1950
    1PPC    GL166704  23.117   4.980   3.442  0.2305 -0.3385 -0.2602
    1PPC    GL266705  23.004   5.081   3.766  0.0296 -0.0300 -0.2057
    1PPC    C1B66706  22.928   4.899   4.160  0.3358  0.0236  0.3734
    1PPC    C2B66707  22.709   4.709   4.540  0.0351  0.1948  0.1474
    1PPC    C3B66708  22.524   4.215   4.743  0.0785 -0.2839 -0.0457
    1PPC    C4B66709  22.569   3.830   4.659 -0.2916 -0.1488 -0.1943
    1PPC    NC366710   7.169  16.610   2.391  0.1750  0.2489 -0.0924
    1PPC    PO466711   6.981  16.844   2.062  0.0734 -0.2842  0.1866
    1PPC    GL166712   6.875  17.040   2.584  0.0398  0.0477  0.1036
    1PPC    GL266713   7.041  17.054   2.920  0.2293  0.1566 -0.2560
    1PPC    C1B66714   7.000  17.235   3.246 -0.2663 -0.0030  0.0469
    1PPC    C2B66715   6.955  17.450   3.659  0.0704  0.2302  0.1629
    1PPC    C3B66716   6.881  17.681   4.008  0.1796  0.0532 -0.1573
    1PPC    C4B66717   7.046  17.939   4.306 -0.1658 -0.2630  0.1867
    1PPC    NC366718   8.591  14.044   2.705  0.3083  0.4264  0.0646
    1PPC    PO466719   9.019  14.106   2.751 -0.0675  0.0427  0.2123
    1PPC    GL166720   8.888  13.883   3.132 -0.0180 -0.2330  0.2172
    1PPC    GL266721   8.727  13.976   3.373  0.0664  0.1645 -0.2329
    1PPC    C1B66722   8.394  14.367   3.332  0.3610 -0.2100  0.2213
    1PPC    C2B66723   7.885  14.456   3.286  0.3870 -0.2690 -0.0009
    1PPC    C3B66724   7.656  14.447   3.678  0.0541  0.0722 -0.1838
    1PPC    C4B66725   7.462  14.129   4.066  0.0661 -0.1228  0.0710
    1PPC    NC366726   5.966   7.744   2.756  0.1286 -0.0445  0.1165
    1PPC    PO466727   5.569   7.845   3.143  0.0441 -0.2708 -0.2894
    1PPC    GL166728   5.640   7.493   3.450 -0.0385 -0.1929  0.1637
    1PPC    GL266729   5.614   7.452   3.827 -0.4652  0.0651  0.0058
    1PPC    C1B66730   5.897   7.163   4.095 -0.3226 -0.3985  0.0210
    1PPC    C2B66731   6.087   6.876   4.358  0.0964  0.1594 -0.0911
    1PPC    C3B66732   6.472   6.684   4.453  0.0380 -0.3883  0.3379
    1PPC    C4B66733   6.769   6.886   4.095  0.0063 -0.0994 -0.0761
    1PPC    NC366734  24.306  16.685   2.389 -0.1767 -0.0514 -0.0893
    1PPC    PO466735  24.347  16.971   2.770 -0.2361  0.1704  0.0035
    1PPC    GL166736  24.271  16.742   3.178  0.1116 -0.0919  0.0868
    1PPC    GL266737  24.404  16.463   3.424  0.2724  0.0261  0.0925
    1PPC    C1B66738  24.686  16.162   3.749 -0.1506 -0.1457 -0.0709
    1PPC    C2B66739  24.777  15.713   3.588 -0.1166 -0.0604  0.0203
    1PPC    C3B66740  25.073  15.399   3.520 -0.0275 -0.1055 -0.1423
    1PPC    C4B66741  25.452  15.286   3.863  0.3132  0.0276  0.1011
    1PPC    NC366742  24.977  22.227   2.315  0.0969  0.2072 -0.0920
    1PPC    PO466743  25.027  22.572   2.712  0.0766 -0.4029  0.2775
    1PPC    GL166744  24.988  22.599   3.118 -0.2837  0.1989 -0.2493
    1PPC    GL266745  24.722  22.951   3.335  0.2048 -0.0729 -0.1839
    1PPC    C1B66746  24.617  23.262   3.653  0.2908  0.1107  0.1136
    1PPC    C2B66747  24.556  23.192   4.096  0.3496  0.0943  0.0991
    1PPC    C3B66748  24.754  22.891   4.483  0.0264 -0.0398 -0.2702
    1PPC    C4B66749  25.007  22.684   4.722 -0.0284 -0.3653 -0.1428
    1PPC    NC366750  26.331  17.111   1.962  0.0705 -0.0951  0.2383
    1PPC    PO466751  25.922  17.248   1.977  0.2692  0.1404 -0.0971
    1PPC    GL166752  25.857  17.364   2.467 -0.0900 -0.0826  0.4008
    1PPC    GL266753  25.723  17.258   2.821  0.1829  0.1072 -0.1142
    1PPC    C1B66754  25.838  17.321   3.258 -0.0093 -0.1358  0.0462
    1PPC    C2B66755  26.054  17.301   3.695  0.0747  0.2082 -0.2044
    1PPC    C3B66756  26.357  17.138   3.901  0.2201  0.2778  0.1677
    1PPC    C4B66757  26.519  17.015   4.231  0.0669  0.1543 -0.0503
    1PPC    NC366758   5.316  11.584   3.488 -0.1647  0.0177 -0.0930
    1PPC    PO466759   5.407  11.169   3.564  0.0233  0.0037 -0.1017
    1PPC    GL166760   5.439  10.981   3.971 -0.3734 -0.1469 -0.0531
    1PPC    GL266761   5.431  10.733   4.129  0.1249  0.0602  0.1179
    1PPC    C1B66762   5.350  10.528   4.485 -0.0155  0.4573 -0.0295
    1PPC    C2B66763   5.283  10.839   4.709 -0.3095 -0.0876 -0.0645
    1PPC    C3B66764   5.302  11.222   4.746  0.0208 -0.0247 -0.1461
    1PPC    C4B66765   5.291  11.701   4.937 -0.0875 -0.1703  0.0139
    1PPC    NC366766   1.089   6.443   2.922  0.0052  0.0650  0.0798
    1PPC    PO466767   1.005   6.113   2.692 -0.0097  0.0640 -0.0771
    1PPC    GL166768   0.927   5.944   3.125 -0.2394 -0.1589  0.2599
    1PPC    GL266769   0.713   5.913   3.290 -0.1830 -0.0883  0.2977
    1PPC    C1B66770   0.726   5.940   3.721  0.0355  0.1900 -0.0834
    1PPC    C2B66771   1.116   5.853   4.025  0.1479  0.0984 -0.0586
    1PPC    C3B66772   1.212   5.519   3.811 -0.2207 -0.1339  0.1239
    1PPC    C4B66773   1.086   5.102   3.975  0.1294  0.0857 -0.0192
    1PPC    NC366774  15.998  28.540   3.565  0.0355  0.3196  0.0419
    1PPC    PO466775  16.202  28.165   3.678  0.1750  0.1376 -0.1850
    1PPC    GL166776  15.941  28.313   3.982 -0.0990  0.1314 -0.1503
    1PPC    GL266777  15.797  28.579   4.038  0.1496 -0.0697  0.3245
    1PPC    C1B66778  15.813  28.845   4.391 -0.0329  0.0824  0.2450
    1PPC    C2B66779  15.579  28.901   4.813 -0.0863 -0.0603 -0.1766
    1PPC    C3B66780  15.592  28.844   5.283 -0.1246  0.3118  0.0361
    1PPC    C4B66781  15.887  28.857   5.516 -0.1860 -0.1557 -0.1561
    1PPC    NC366782  19.670  21.178   3.186  0.1952 -0.0647  0.4365
    1PPC    PO466783  19.436  20.877   3.392 -0.0897  0.0242 -0.0802
    1PPC    GL166784  19.622  21.140   3.676  0.2554  0.1196  0.0293
    1PPC    GL266785  19.887  21.229   3.756  0.0042 -0.0959 -0.3041
    1PPC    C1B66786  20.067  21.331   4.129 -0.0555 -0.0650 -0.0182
    1PPC    C2B66787  20.364  21.124   4.394 -0.0918  0.2336  0.1661
    1PPC    C3B66788  20.558  21.199   4.804 -0.0795  0.0022 -0.1167
    1PPC    C4B66789  20.775  21.494   4.950  0.0475  0.0292  0.0050
    1PPC    NC366790  16.683  25.648   2.937  0.0083  0.0205  0.0782
    1PPC    PO466791  16.616  25.478   3.349 -0.0711 -0.2819  0.0784
    1PPC    GL166792  16.505  25.685   3.707 -0.1346 -0.2751  0.0630
    1PPC    GL266793  16.462  25.809   3.990 -0.0937  0.0676  0.2022
    1PPC    C1B66794  16.426  25.858   4.352  0.1771 -0.0307 -0.0658
    1PPC    C2B66795  16.285  25.726   4.729  0.0025  0.0216 -0.0997
    1PPC    C3B66796  16.314  25.809   5.171  0.0322 -0.0312 -0.0586
    1PPC    C4B66797  16.308  26.152   5.358 -0.0653  0.1174  0.0467
    1PPC    NC366798  25.082  19.475   2.358  0.0765 -0.1273 -0.2107
    1PPC    PO466799  24.988  19.881   2.540  0.1583 -0.0672 -0.0561
    1PPC    GL166800  24.765  19.570   2.769  0.5645  0.2306  0.1856
    1PPC    GL266801  24.661  19.317   3.004 -0.2217 -0.1600  0.3077
    1PPC    C1B66802  24.555  19.079   3.318  0.1069  0.0494  0.1372
    1PPC    C2B66803  24.592  18.927   3.666 -0.0633  0.0213  0.1934
    1PPC    C3B66804  24.868  18.810   3.948  0.0995  0.0216  0.0876
    1PPC    C4B66805  24.933  18.855   4.320  0.0245 -0.0501  0.0948
    1PPC    NC366806  22.011  23.273   3.033  0.2284 -0.2241  0.2297
    1PPC    PO466807  21.883  22.985   3.360 -0.0271  0.2550 -0.2109
    1PPC    GL166808  21.707  23.013   3.710 -0.3194 -0.0437 -0.1724
    1PPC    GL266809  21.729  22.985   3.985  0.3980 -0.3931  0.1221
    1PPC    C1B66810  21.687  22.725   4.296  0.0865 -0.1377 -0.3277
    1PPC    C2B66811  21.528  22.382   4.512 -0.0144 -0.1359  0.0627
    1PPC    C3B66812  21.636  21.936   4.663 -0.0642  0.1587 -0.0935
    1PPC    C4B66813  21.749  21.499   4.598  0.1591 -0.0099  0.0509
    1PPC    NC366814   2.513  21.934   2.587  0.0463  0.2389 -0.0138
    1PPC    PO466815   2.073  22.034   2.464  0.3503  0.1052 -0.0645
    1PPC    GL166816   2.036  21.856   2.821  0.0401  0.0221 -0.2570
    1PPC    GL266817   1.781  21.749   2.983  0.1037  0.0108  0.1164
    1PPC    C1B66818   1.905  21.616   3.322  0.4040 -0.3132 -0.2310
    1PPC    C2B66819   1.939  21.282   3.520  0.2903  0.1729 -0.2630
    1PPC    C3B66820   1.893  20.900   3.833  0.0899 -0.3690 -0.1381
    1PPC    C4B66821   1.745  20.489   3.804  0.2841 -0.2158  0.1033
    1PPC    NC366822   8.759   0.909   3.521 -0.1981 -0.0050 -0.0491
    1PPC    PO466823   8.198   0.824   3.450 -0.1057 -0.0429  0.0706
    1PPC    GL166824   8.327   1.061   3.823 -0.2308 -0.0818  0.1238
    1PPC    GL266825   8.220   1.166   4.046 -0.0900  0.1954 -0.2405
    1PPC    C1B66826   7.996   1.079   4.401  0.2112 -0.0192 -0.2002
    1PPC    C2B66827   7.756   1.263   4.718 -0.0677  0.1203 -0.0166
    1PPC    C3B66828   7.572   1.623   4.740  0.2019 -0.1449 -0.2895
    1PPC    C4B66829   7.238   1.721   4.613 -0.0901 -0.2100 -0.0949
    1PPC    NC366830  18.604   6.470   3.596  0.2587  0.3684 -0.1571
    1PPC    PO466831  18.257   6.178   3.601  0.0989  0.0284 -0.1643
    1PPC    GL166832  18.224   6.462   3.924  0.1126 -0.1375 -0.0965
    1PPC    GL266833  18.204   6.630   4.272 -0.3243  0.0162 -0.0461
    1PPC    C1B66834  18.063   6.676   4.745  0.0957  0.0296  0.2522
    1PPC    C2B66835  17.996   6.413   4.981 -0.0260 -0.1168  0.2499
    1PPC    C3B66836  18.086   6.248   5.305 -0.0021 -0.2008  0.1963
    1PPC    C4B66837  18.124   6.180   5.713  0.1859  0.2094  0.0730
    1PPC    NC366838  10.508  21.964   2.737 -0.2770  0.3116 -0.0323
    1PPC    PO466839  10.138  22.090   2.691 -0.0651 -0.2226 -0.1221
    1PPC    GL166840  10.154  22.329   3.034 -0.3368  0.2547  0.0443
    1PPC    GL266841  10.108  22.380   3.323  0.0781 -0.0147  0.0813
    1PPC    C1B66842   9.965  22.161   3.735  0.1788 -0.1892 -0.2526
    1PPC    C2B66843   9.613  22.041   4.125 -0.0205 -0.0240 -0.2569
    1PPC    C3B66844   9.326  22.282   4.342 -0.1294  0.1472  0.1155
    1PPC    C4B66845   9.240  22.676   4.554  0.0146  0.2757  0.0186
    1PPC    NC366846  18.907   4.107   3.399  0.0067  0.0201 -0.1164
    1PPC    PO466847  18.502   4.027   3.682  0.2035  0.2410  0.3492
    1PPC    GL166848  18.430   4.433   3.928 -0.3945 -0.2469 -0.0364
    1PPC    GL266849  18.252   4.599   4.047  0.0922  0.3580  0.0716
    1PPC    C1B66850  17.995   4.756   4.396  0.0041  0.0836 -0.2835
    1PPC    C2B66851  18.158   4.885   4.786  0.2442 -0.2170 -0.0942
    1PPC    C3B66852  18.404   4.960   5.173  0.1868  0.1360 -0.1210
    1PPC    C4B66853  18.794   5.164   5.280  0.1934  0.0621  0.0369
    1PPC    NC366854   1.457   2.708   3.053  0.1229 -0.1707  0.1279
    1PPC    PO466855   1.145   2.760   2.978 -0.0950  0.6218  0.1595
    1PPC    GL166856   1.181   2.849   3.481  0.2524 -0.0521  0.1042
    1PPC    GL266857   0.939   2.816   3.564 -0.0090  0.5090 -0.0874
    1PPC    C1B66858   0.643   2.667   3.890  0.1118 -0.1986 -0.2887
    1PPC    C2B66859   0.226   2.468   4.087  0.1555 -0.2510  0.1319
    1PPC    C3B66860   0.217   2.337   4.444  0.1046 -0.1018 -0.2276
    1PPC    C4B66861   0.549   2.510   4.713 -0.3097 -0.0025  0.3109
    1PPC    NC366862  14.293   0.641   3.459  0.2010  0.1271 -0.1149
    1PPC    PO466863  14.512   1.016   3.558  0.0266 -0.4559  0.3622
    1PPC    GL166864  14.330   0.737   4.029  0.0007 -0.6362 -0.3318
    1PPC    GL266865  14.406   0.575   4.290 -0.0055  0.0950 -0.0626
    1PPC    C1B66866  14.495   0.722   4.804  0.0715 -0.0711  0.0821
    1PPC    C2B66867  14.594   1.170   5.019 -0.1039  0.0008 -0.1390
    1PPC    C3B66868  14.495   1.574   5.189  0.0822  0.0525 -0.0190
    1PPC    C4B66869  14.749   1.890   5.344  0.1459 -0.0821 -0.0243
    1PPC    NC366870  26.697   4.395   2.624 -0.3923  0.0669 -0.0210
    1PPC    PO466871  26.321   4.592   2.723 -0.0358 -0.2062  0.0706
    1PPC    GL166872  26.374   4.617   3.218  0.3312 -0.0278  0.1669
    1PPC    GL266873  26.568   4.489   3.566  0.0699 -0.0696  0.1806
    1PPC    C1B66874  26.845   4.788   3.848  0.1963  0.0175  0.0820
    1PPC    C2B66875  27.062   4.827   4.230  0.0974 -0.1427  0.1662
    1PPC    C3B66876  27.472   4.640   4.409 -0.1657  0.0679 -0.1423
    1PPC    C4B66877  27.874   4.628   4.119  0.0738  0.1176 -0.0859
    1PPC    NC366878  15.969  23.928   2.813 -0.0174 -0.1384  0.3455
    1PPC    PO466879  15.536  23.942   2.994  0.1483  0.1115 -0.2443
    1PPC    GL166880  15.525  23.840   3.471 -0.2223  0.0548  0.2102
    1PPC    GL266881  15.250  23.640   3.746  0.0793  0.2450 -0.1882
    1PPC    C1B66882  15.257  23.402   4.172  0.0483 -0.1346 -0.3359
    1PPC    C2B66883  15.305  23.560   4.510 -0.1369 -0.0941 -0.0996
    1PPC    C3B66884  15.494  23.887   4.763 -0.2209  0.3219  0.2158
    1PPC    C4B66885  15.247  24.045   5.124  0.0846 -0.0566  0.1543
    1PPC    NC366886   5.642  26.957   2.660 -0.3088  0.1313 -0.2155
    1PPC    PO466887   5.910  26.613   2.819  0.0421 -0.3877  0.1375
    1PPC    GL166888   5.691  26.320   3.070 -0.0667 -0.5056  0.0383
    1PPC    GL266889   5.492  26.248   3.242  0.2099  0.2009  0.1601
    1PPC    C1B66890   5.469  26.130   3.547 -0.3026 -0.0758  0.1949
    1PPC    C2B66891   5.833  26.028   3.867  0.4108 -0.1393  0.1322
    1PPC    C3B66892   6.200  25.913   3.971 -0.0734  0.1440 -0.0804
    1PPC    C4B66893   6.501  26.045   4.283  0.0718 -0.1713  0.0387
    1PPC    NC366894   0.293  14.219   2.104 -0.2017  0.1204  0.2635
    1PPC    PO466895   0.279  13.913   2.393 -0.3131 -0.1219 -0.3054
    1PPC    GL166896  -0.042  13.808   2.683 -0.2768 -0.3061 -0.0027
    1PPC    GL266897  -0.084  13.913   3.016  0.0576  0.1230  0.1273
    1PPC    C1B66898  -0.111  13.997   3.467 -0.1873  0.0523 -0.0117
    1PPC    C2B66899  -0.116  14.227   3.865  0.1396  0.2097  0.0191
    1PPC    C3B66900  -0.341  14.494   4.181  0.0481 -0.4804  0.0223
    1PPC    C4B66901  -0.594  14.577   4.629  0.6183 -0.0031  0.0821
    1PPC    NC366902   4.504   2.161   2.748  0.0249  0.1902  0.3246
    1PPC    PO466903   4.685   1.806   2.867  0.0718 -0.2012 -0.1925
    1PPC    GL166904   4.757   1.505   3.201  0.1168  0.0756 -0.0305
    1PPC    GL266905   4.864   1.483   3.511 -0.0462  0.4178  0.1975
    1PPC    C1B66906   4.847   1.842   3.822 -0.4291  0.1149  0.2584
    1PPC    C2B66907   4.865   1.888   4.277 -0.0997 -0.0693 -0.1648
    1PPC    C3B66908   4.781   2.129   4.698  0.1882 -0.0612 -0.2447
    1PPC    C4B66909   4.849   2.384   4.949  0.2382 -0.1374 -0.1416
    1PPC    NC366910  26.325  26.323   3.509  0.0438 -0.0104  0.1455
    1PPC    PO466911  26.167  26.710   3.121  0.1845  0.0681 -0.3287
    1PPC    GL166912  26.145  26.812   3.546 -0.0434  0.1300 -0.0062
    1PPC    GL266913  26.085  26.894   3.801 -0.1127  0.2981  0.0567
    1PPC    C1B66914  26.068  26.521   4.196  0.1304 -0.0100  0.1449
    1PPC    C2B66915  26.117  26.399   4.605  0.0409  0.2834 -0.5217
    1PPC    C3B66916  26.316  26.135   4.786  0.7455  0.0795 -0.1316
    1PPC    C4B66917  26.456  25.917   5.136 -0.0814  0.0468 -0.0543
    1PPC    NC366918   3.526  27.337   2.564 -0.0843  0.2018  0.1126
    1PPC    PO466919   3.152  27.061   2.553 -0.1965 -0.2677 -0.1573
    1PPC    GL166920   3.448  26.756   2.892  0.3887 -0.0907  0.1904
    1PPC    GL266921   3.481  26.844   3.236 -0.2973 -0.1126  0.2229
    1PPC    C1B66922   3.557  26.949   3.678 -0.0720  0.0261 -0.1607
    1PPC    C2B66923   3.513  27.247   4.044 -0.0599  0.3705  0.0016
    1PPC    C3B66924   3.758  27.570   4.333 -0.1578 -0.0992  0.0134
    1PPC    C4B66925   3.764  27.892   4.626 -0.1037 -0.0360 -0.1772
    1PPC    NC366926  27.217  15.105   1.975  0.2603  0.0729  0.0168
    1PPC    PO466927  27.551  14.972   2.167  0.0915 -0.1709  0.3549
    1PPC    GL166928  27.441  14.740   2.522  0.0570  0.1849  0.2105
    1PPC    GL266929  27.289  14.850   2.794 -0.0225  0.0743 -0.1862
    1PPC    C1B66930  27.315  14.846   3.254 -0.3502 -0.1562 -0.0727
    1PPC    C2B66931  27.471  15.201   3.498 -0.2674 -0.0048 -0.1576
    1PPC    C3B66932  27.554  15.610   3.578 -0.1793  0.0123  0.2470
    1PPC    C4B66933  27.786  16.034   3.491 -0.0600 -0.0888 -0.0975
    1PPC    NC366934   1.969  27.854   2.340 -0.2649 -0.2145 -0.1917
    1PPC    PO466935   2.358  27.711   2.550 -0.1772  0.0700  0.3339
    1PPC    GL166936   2.374  27.937   2.856 -0.0629  0.1049  0.3152
    1PPC    GL266937   2.614  27.926   3.111  0.0912  0.2420 -0.1782
    1PPC    C1B66938   2.601  27.965   3.617  0.2546 -0.0095 -0.3035
    1PPC    C2B66939   2.614  27.867   4.068 -0.3406  0.2242  0.0418
    1PPC    C3B66940   2.938  28.178   4.353 -0.1117  0.1026 -0.1532
    1PPC    C4B66941   3.329  28.118   4.771 -0.1614  0.1591 -0.0778
    1PPC    NC366942  21.764   1.239   2.186  0.0823 -0.2579  0.2223
    1PPC    PO466943  21.652   0.855   2.328 -0.0609 -0.1305 -0.2014
    1PPC    GL166944  21.449   0.881   2.754  0.1839  0.2465  0.1599
    1PPC    GL266945  21.287   0.749   3.040  0.4772 -0.1057 -0.1641
    1PPC    C1B66946  21.156   0.649   3.408 -0.1024 -0.1378  0.0684
    1PPC    C2B66947  21.154   0.565   3.923 -0.1155  0.1213 -0.0069
    1PPC    C3B66948  21.074   0.283   4.284 -0.2359  0.0190 -0.2822
    1PPC    C4B66949  20.967   0.420   4.702 -0.3440  0.2680  0.0958
    1PPC    NC366950  10.083  20.115   2.150  0.1379 -0.4107 -0.3340
    1PPC    PO466951  10.571  20.212   2.169 -0.2547  0.4038 -0.0882
    1PPC    GL166952  10.296  20.213   2.575  0.2475 -0.0423 -0.1015
    1PPC    GL266953  10.273  20.351   2.923  0.1213  0.2422 -0.4236
    1PPC    C1B66954  10.076  20.547   3.407 -0.0599  0.2967 -0.0281
    1PPC    C2B66955   9.966  20.487   3.821 -0.1976  0.1329 -0.0378
    1PPC    C3B66956   9.994  20.658   4.149  0.2755  0.0400  0.0118
    1PPC    C4B66957  10.087  20.604   4.533  0.0405 -0.2061 -0.3606
    1PPC    NC366958  16.458   3.274   3.542  0.3609  0.0197 -0.0800
    1PPC    PO466959  16.331   3.792   3.722  0.0133 -0.1172  0.0043
    1PPC    GL166960  16.554   3.970   4.054 -0.0846  0.1042 -0.0688
    1PPC    GL266961  16.602   3.828   4.390 -0.0320  0.1373  0.2271
    1PPC    C1B66962  16.715   3.698   4.743  0.0915 -0.1631  0.0340
    1PPC    C2B66963  16.727   3.878   5.185 -0.0275  0.2512  0.2626
    1PPC    C3B66964  16.840   3.833   5.611  0.0965  0.0026  0.1965
    1PPC    C4B66965  16.722   3.617   5.875 -0.1198  0.0761 -0.3937
    1PPC    NC366966  12.955   4.277   3.815 -0.2583 -0.0930 -0.0719
    1PPC    PO466967  12.878   3.831   3.766  0.2480 -0.2212 -0.0889
    1PPC    GL166968  12.905   3.882   4.230  0.0522  0.2180  0.2284
    1PPC    GL266969  12.926   4.074   4.481 -0.2759  0.1286 -0.0595
    1PPC    C1B66970  12.915   3.947   4.907  0.0601  0.1732  0.1034
    1PPC    C2B66971  12.811   3.960   5.363  0.1583 -0.0138  0.2427
    1PPC    C3B66972  12.681   4.217   5.755 -0.1040 -0.1273 -0.5192
    1PPC    C4B66973  12.788   4.524   6.008  0.0253 -0.3360  0.1364
    1PPC    NC366974  15.579  24.666   3.832  0.0900 -0.0448 -0.2812
    1PPC    PO466975  15.126  24.747   3.674 -0.2102 -0.0087 -0.2042
    1PPC    GL166976  15.042  24.740   4.098 -0.0449  0.1937  0.3020
    1PPC    GL266977  15.293  24.557   4.243 -0.3234  0.1482  0.0782
    1PPC    C1B66978  15.506  24.361   4.650 -0.3320 -0.1352  0.0464
    1PPC    C2B66979  15.702  24.305   4.978  0.1032 -0.0874  0.1060
    1PPC    C3B66980  15.832  23.967   5.255 -0.2277  0.4117 -0.0825
    1PPC    C4B66981  15.872  23.741   5.600 -0.0468  0.6382 -0.2844
    1PPC    NC366982   0.882  15.173   2.588 -0.1247 -0.1695  0.1796
    1PPC    PO466983   1.041  14.800   2.380 -0.0642  0.4962 -0.0963
    1PPC    GL166984   1.348  14.959   2.794 -0.0989  0.0398  0.1432
    1PPC    GL266985   1.358  15.018   3.079  0.0478  0.3218  0.0216
    1PPC    C1B66986   1.482  15.111   3.463  0.1500 -0.3437  0.0827
    1PPC    C2B66987   1.507  15.289   3.896  0.0877  0.2052  0.0071
    1PPC    C3B66988   1.703  15.066   4.208  0.2666  0.1917 -0.3508
    1PPC    C4B66989   1.860  14.801   4.590  0.1579  0.1325 -0.1915
    1PPC    NC366990   5.420   5.487   2.494  0.2204  0.1392 -0.2673
    1PPC    PO466991   5.480   5.194   2.832  0.1506  0.3898 -0.0195
    1PPC    GL166992   5.506   5.298   3.210 -0.3485  0.2932  0.0502
    1PPC    GL266993   5.173   5.263   3.383 -0.2094 -0.1193 -0.1292
    1PPC    C1B66994   4.870   5.198   3.781  0.0043  0.4426  0.1876
    1PPC    C2B66995   4.516   5.087   3.840  0.2047 -0.2343 -0.0444
    1PPC    C3B66996   4.157   5.067   3.938  0.3707 -0.0699  0.1207
    1PPC    C4B66997   3.930   5.313   4.379 -0.1901 -0.0318  0.1682
    1PPC    NC366998   9.736  28.194   2.874 -0.2591  0.0175  0.1737
    1PPC    PO466999   9.357  27.915   2.708 -0.1141  0.0835  0.3348
    1PPC    GL167000   9.435  27.887   3.132  0.0586 -0.0573 -0.1244
    1PPC    GL267001   9.451  27.754   3.402  0.0480  0.0387 -0.1289
    1PPC    C1B67002   9.789  27.642   3.726  0.1136  0.1907 -0.0505
    1PPC    C2B67003   9.967  27.243   3.685 -0.2084  0.3185  0.0925
    1PPC    C3B67004   9.706  27.018   3.989  0.0789 -0.2175  0.0738
    1PPC    C4B67005   9.776  27.279   4.253  0.1596 -0.1538  0.0758
    1PPC    NC367006  14.343  21.088   3.378  0.4207  0.1019  0.0197
    1PPC    PO467007  14.182  21.499   3.278  0.0691 -0.2307 -0.0066
    1PPC    GL167008  14.078  21.306   3.703  0.0654  0.0897  0.0771
    1PPC    GL267009  14.025  21.104   4.039 -0.0366 -0.0362 -0.2369
    1PPC    C1B67010  14.034  21.063   4.455  0.2388 -0.1879 -0.0447
    1PPC    C2B67011  14.091  20.996   4.888 -0.1845  0.2266 -0.2291
    1PPC    C3B67012  13.931  21.185   5.212  0.1496 -0.2294 -0.2468
    1PPC    C4B67013  13.711  21.482   5.281 -0.1076 -0.2471  0.0689
    1PPC    NC367014  15.175  22.045   3.034 -0.2243 -0.1086 -0.0184
    1PPC    PO467015  15.652  21.981   3.137  0.2477  0.1561  0.3388
    1PPC    GL167016  15.482  21.915   3.487 -0.3729  0.1096 -0.0137
    1PPC    GL267017  15.248  21.819   3.780 -0.0015 -0.3211  0.1317
    1PPC    C1B67018  15.341  21.724   4.178  0.0950  0.1042 -0.1280
    1PPC    C2B67019  15.326  21.577   4.667  0.3116  0.0938  0.1374
    1PPC    C3B67020  15.297  21.669   5.156 -0.1618 -0.3419  0.0045
    1PPC    C4B67021  15.418  21.338   5.378 -0.1125 -0.0919  0.1169
    1PPC    NC367022   4.370  10.662   2.872  0.2252  0.1296  0.3762
    1PPC    PO467023   4.659  10.505   3.058 -0.1269  0.0003 -0.1802
    1PPC    GL167024   4.630  10.483   3.586  0.4695 -0.0022  0.0624
    1PPC    GL267025   4.633  10.370   3.846  0.0592  0.0716  0.2827
    1PPC    C1B67026   4.446  10.344   4.245  0.2438 -0.5194  0.1688
    1PPC    C2B67027   3.974  10.222   4.442  0.0072  0.0396  0.1015
    1PPC    C3B67028   3.627  10.295   4.574  0.4143 -0.2564  0.0947
    1PPC    C4B67029   3.321  10.033   4.719  0.0875  0.0752 -0.1400
    1PPC    NC367030  21.619  13.270   2.635 -0.3835 -0.2168 -0.0443
    1PPC    PO467031  22.110  13.229   2.687 -0.2180  0.3760  0.0260
    1PPC    GL167032  22.174  13.647   3.045 -0.1687 -0.1704 -0.0459
    1PPC    GL267033  22.109  13.802   3.280  0.3450 -0.1699 -0.0043
    1PPC    C1B67034  22.013  13.730   3.740 -0.0865  0.0570  0.1852
    1PPC    C2B67035  21.887  13.998   4.040 -0.4648  0.2664  0.1241
    1PPC    C3B67036  21.819  14.025   4.463  0.0038  0.1706  0.2076
    1PPC    C4B67037  21.503  13.895   4.835  0.0222  0.3301  0.1690
    1PPC    NC367038  28.115  26.567   2.605 -0.0013 -0.0605  0.0066
    1PPC    PO467039  28.548  26.814   2.899 -0.1146  0.3128 -0.0756
    1PPC    GL167040  28.631  26.965   3.368 -0.1564 -0.0541  0.0840
    1PPC    GL267041  28.589  26.853   3.702 -0.0399 -0.0604  0.0066
    1PPC    C1B67042  28.741  26.728   4.045 -0.0619  0.1580 -0.1460
    1PPC    C2B67043  28.810  26.673   4.455  0.1387  0.0767  0.2142
    1PPC    C3B67044  28.684  26.438   4.779 -0.0876 -0.0461  0.0748
    1PPC    C4B67045  28.657  26.171   5.116  0.1937 -0.5085 -0.1862
    1PPC    NC367046  12.175   2.176   3.972  0.2115 -0.1348  0.0513
    1PPC    PO467047  12.013   1.865   3.782  0.1803  0.1763  0.1163
    1PPC    GL167048  11.718   1.801   4.112  0.1071  0.1898  0.0265
    1PPC    GL267049  11.586   1.731   4.361  0.0041  0.1672  0.1405
    1PPC    C1B67050  11.538   1.780   4.819  0.2779 -0.2481 -0.0790
    1PPC    C2B67051  11.856   1.638   5.117  0.1330 -0.0453  0.4980
    1PPC    C3B67052  12.147   1.315   5.294  0.0816  0.1309  0.0742
    1PPC    C4B67053  12.161   1.012   5.617 -0.1057 -0.0812 -0.0155
    1PPC    NC367054  21.817   1.799   2.118  0.1455 -0.0001  0.0393
    1PPC    PO467055  21.589   1.654   2.456  0.1037  0.0351  0.0746
    1PPC    GL167056  21.496   1.367   2.850 -0.3506 -0.0816  0.0773
    1PPC    GL267057  21.482   1.217   3.250  0.1190 -0.2216 -0.0206
    1PPC    C1B67058  21.524   0.995   3.626 -0.1356 -0.0346 -0.2035
    1PPC    C2B67059  21.560   0.882   4.054 -0.1951  0.0527 -0.3659
    1PPC    C3B67060  21.673   0.951   4.511  0.1937 -0.0888 -0.2829
    1PPC    C4B67061  21.855   1.300   4.738  0.1686  0.0603  0.1573
    1PPC    NC367062  25.948  27.148   3.168 -0.2621  0.2191  0.2865
    1PPC    PO467063  25.662  26.942   3.296  0.0250  0.3299 -0.2087
    1PPC    GL167064  25.642  26.733   3.704 -0.3362  0.1837 -0.0425
    1PPC    GL267065  25.586  26.679   3.974 -0.3738  0.0934  0.0164
    1PPC    C1B67066  25.718  26.756   4.468  0.0634 -0.4647 -0.2165
    1PPC    C2B67067  25.659  26.395   4.813 -0.0746 -0.0897  0.1656
    1PPC    C3B67068  25.404  26.142   4.939 -0.0964 -0.3657  0.0181
    1PPC    C4B67069  25.045  26.076   4.970  0.1588 -0.1193  0.1909
    1PPC    NC367070  19.918  26.296   2.740 -0.0582  0.1556  0.2855
    1PPC    PO467071  20.078  26.400   3.039 -0.0617 -0.2577  0.1642
    1PPC    GL167072  19.978  26.303   3.487  0.0147  0.3159 -0.0227
    1PPC    GL267073  20.008  26.330   3.909  0.3343 -0.0029 -0.0365
    1PPC    C1B67074  20.091  26.071   4.214 -0.1931  0.2989  0.0816
    1PPC    C2B67075  20.386  25.917   4.502  0.0290  0.0941  0.0860
    1PPC    C3B67076  20.641  25.477   4.537  0.1057 -0.0156  0.2427
    1PPC    C4B67077  20.973  25.409   4.772 -0.0169  0.0255 -0.0333
    1PPC    NC367078  28.355   5.568   2.344  0.0502  0.3335  0.0160
    1PPC    PO467079  28.487   5.274   2.639 -0.0861 -0.4428  0.1919
    1PPC    GL167080  28.240   5.427   2.972  0.1333 -0.0152 -0.4196
    1PPC    GL267081  28.212   5.395   3.288 -0.1153  0.0065 -0.1732
    1PPC    C1B67082  28.487   5.665   3.520  0.0141 -0.0974  0.1616
    1PPC    C2B67083  28.811   5.856   3.768 -0.0412 -0.5358  0.2324
    1PPC    C3B67084  29.081   6.121   4.078  0.1408 -0.0877  0.1832
    1PPC    C4B67085  29.336   6.008   4.472 -0.2089  0.1016  0.0139
    1PPC    NC367086  14.271   4.526   3.513 -0.0312 -0.0575 -0.0993
    1PPC    PO467087  14.284   4.879   3.738  0.2771 -0.1732 -0.1249
    1PPC    GL167088  14.221   4.600   4.059  0.0336 -0.2651  0.0229
    1PPC    GL267089  14.153   4.453   4.300 -0.0704  0.2135  0.1297
    1PPC    C1B67090  13.885   4.429   4.662 -0.1701  0.0120  0.0628
    1PPC    C2B67091  13.549   4.463   4.874  0.0712 -0.3430 -0.0244
    1PPC    C3B67092  13.395   4.626   5.136 -0.0693 -0.0860 -0.0004
    1PPC    C4B67093  12.919   4.554   5.325 -0.3763 -0.0023  0.1474
    1PPC    NC367094   0.851   0.188   2.478 -0.1914  0.1656 -0.0375
    1PPC    PO467095   0.956   0.621   2.652  0.0773 -0.3843  0.1433
    1PPC    GL167096   0.915   0.605   3.104  0.0791 -0.0679 -0.3048
    1PPC    GL267097   0.834   0.574   3.516  0.0390  0.3083  0.2308
    1PPC    C1B67098   0.691   0.530   3.962 -0.0398 -0.0171 -0.2797
    1PPC    C2B67099   0.733   0.653   4.364  0.0674  0.0642  0.2542
    1PPC    C3B67100   0.550   0.455   4.759 -0.1644  0.0024 -0.3411
    1PPC    C4B67101   0.482   0.221   5.262 -0.0562  0.0020  0.3154
    1PPC    NC367102  13.701   2.537   3.523  0.0696  0.0593 -0.1050
    1PPC    PO467103  13.331   2.845   3.656  0.1666 -0.5160  0.1743
    1PPC    GL167104  13.608   2.955   4.071  0.0547  0.0169 -0.0817
    1PPC    GL267105  13.580   3.083   4.466 -0.1975  0.0810  0.5690
    1PPC    C1B67106  13.729   3.202   4.864  0.0642 -0.0527 -0.0658
    1PPC    C2B67107  13.629   3.569   5.063  0.0496 -0.0385 -0.0127
    1PPC    C3B67108  13.642   3.454   5.421  0.1650  0.1490  0.0280
    1PPC    C4B67109  13.524   3.117   5.665 -0.0524  0.0007  0.0841
    1PPC    NC367110   8.453  18.863   1.718  0.1247 -0.2602  0.0208
    1PPC    PO467111   8.588  19.167   2.129  0.1439 -0.0251 -0.0003
    1PPC    GL167112   8.506  19.066   2.566  0.0414  0.1373 -0.3587
    1PPC    GL267113   8.240  18.972   2.799 -0.0315 -0.0571  0.1527
    1PPC    C1B67114   7.857  19.040   3.128 -0.0970 -0.0258 -0.1465
    1PPC    C2B67115   7.665  18.862   3.524 -0.1386 -0.0824  0.1933
    1PPC    C3B67116   7.651  19.065   3.832 -0.3772  0.1469  0.1666
    1PPC    C4B67117   7.436  19.309   4.055 -0.0654  0.2354 -0.1998
    1PPC    NC367118  22.754  25.113   3.175 -0.1576  0.0786 -0.1571
    1PPC    PO467119  23.171  24.829   2.939 -0.1937  0.0582  0.0461
    1PPC    GL167120  23.268  24.775   3.349  0.1785 -0.3969 -0.1460
    1PPC    GL267121  23.177  25.074   3.448  0.2650  0.0262  0.1659
    1PPC    C1B67122  23.439  25.324   3.656  0.4088  0.0642 -0.2012
    1PPC    C2B67123  23.657  25.665   4.020  0.0536  0.0469 -0.2405
    1PPC    C3B67124  23.789  25.708   4.498 -0.1457  0.1611 -0.0803
    1PPC    C4B67125  24.033  25.882   4.910  0.0581 -0.0523  0.1757
    1PPC    NC367126  28.545   8.623   2.065 -0.2308 -0.0520 -0.2307
    1PPC    PO467127  28.128   8.488   2.265 -0.0151  0.0731 -0.1350
    1PPC    GL167128  27.797   8.782   2.442  0.0889 -0.0505 -0.0284
    1PPC    GL267129  27.646   9.020   2.591  0.0069  0.0166  0.0354
    1PPC    C1B67130  27.588   9.024   3.000  0.0753 -0.1076  0.1115
    1PPC    C2B67131  27.539   8.908   3.379  0.1049  0.0404 -0.0983
    1PPC    C3B67132  27.722   8.698   3.756  0.0486 -0.0212 -0.0534
    1PPC    C4B67133  27.701   8.233   3.854 -0.1874  0.1765 -0.1088
    1PPC    NC367134   1.743   9.138   2.605  0.1152  0.0077 -0.0356
    1PPC    PO467135   1.700   9.576   2.813 -0.0542 -0.0522  0.0003
    1PPC    GL167136   1.588   9.743   3.198 -0.0167 -0.0439 -0.2696
    1PPC    GL267137   1.563   9.848   3.471  0.0510  0.1371  0.2044
    1PPC    C1B67138   1.614   9.733   3.845  0.0143  0.3271 -0.1256
    1PPC    C2B67139   1.673   9.364   4.164  0.0979  0.0810 -0.2590
    1PPC    C3B67140   1.931   9.346   4.516  0.1408 -0.3347 -0.0028
    1PPC    C4B67141   2.076   9.066   4.857 -0.0333  0.0305  0.0875
    1PPC    NC367142  18.479  20.619   2.627 -0.1255 -0.0241 -0.1205
    1PPC    PO467143  18.496  20.550   3.070 -0.0973  0.3014  0.1894
    1PPC    GL167144  18.705  20.344   3.333 -0.1026  0.0152  0.0621
    1PPC    GL267145  18.914  20.427   3.632  0.0565  0.2952  0.0449
    1PPC    C1B67146  19.093  20.372   4.016 -0.1682  0.2515  0.1212
    1PPC    C2B67147  18.921  20.531   4.428 -0.0083  0.1800  0.1909
    1PPC    C3B67148  18.856  20.880   4.762 -0.4278  0.1398  0.0307
    1PPC    C4B67149  18.844  21.013   5.172 -0.0809 -0.0440  0.0034
    1PPC    NC367150  13.179  24.422   3.188 -0.0243  0.0300 -0.3582
    1PPC    PO467151  12.791  24.592   3.351  0.2854  0.3273 -0.0604
    1PPC    GL167152  12.965  24.742   3.720  0.1943  0.1637 -0.0773
    1PPC    GL267153  12.942  25.030   3.988  0.1215  0.0046  0.3104
    1PPC    C1B67154  12.579  24.933   4.095  0.2281  0.0145 -0.2711
    1PPC    C2B67155  12.502  24.884   4.469  0.4355 -0.1997 -0.3487
    1PPC    C3B67156  12.594  25.096   4.804 -0.2680  0.2476 -0.0577
    1PPC    C4B67157  12.781  25.387   5.191  0.0347  0.1253  0.1320
    1PPC    NC367158   3.662   8.100   2.698 -0.0654 -0.0367 -0.3079
    1PPC    PO467159   3.268   8.291   2.726 -0.0150 -0.2188 -0.2829
    1PPC    GL167160   3.440   8.473   3.159 -0.0900 -0.3076  0.0789
    1PPC    GL267161   3.562   8.537   3.452  0.2461 -0.0161  0.0165
    1PPC    C1B67162   3.748   8.484   3.848  0.0120  0.0098 -0.1197
    1PPC    C2B67163   4.156   8.331   4.012 -0.1348 -0.1539 -0.1510
    1PPC    C3B67164   4.273   8.016   4.327  0.0342  0.3381  0.2802
    1PPC    C4B67165   4.459   7.689   4.565 -0.0557 -0.3204  0.0794
    1PPC    NC367166   8.345   2.412   3.566 -0.1123  0.1166 -0.0700
    1PPC    PO467167   8.029   2.699   3.602 -0.0815 -0.1482 -0.2419
    1PPC    GL167168   7.752   3.018   3.770  0.1654 -0.1780 -0.0114
    1PPC    GL267169   7.452   2.983   3.985 -0.2185 -0.0567 -0.0738
    1PPC    C1B67170   7.137   2.912   4.366  0.0327 -0.0819  0.2871
    1PPC    C2B67171   7.079   3.054   4.820  0.1321  0.0684  0.2407
    1PPC    C3B67172   6.822   3.266   5.055 -0.2926  0.3378  0.1819
    1PPC    C4B67173   6.847   3.568   5.356  0.3080  0.2142  0.0164
    1PPC    NC367174  21.549  20.504   3.162 -0.1705 -0.4642 -0.2023
    1PPC    PO467175  21.226  20.866   3.039 -0.1178 -0.1314 -0.1547
    1PPC    GL167176  20.992  20.994   3.397 -0.1050 -0.1339 -0.3660
    1PPC    GL267177  20.901  21.041   3.745 -0.4404  0.2723  0.3259
    1PPC    C1B67178  20.898  21.167   4.207  0.0827  0.1257 -0.0207
    1PPC    C2B67179  21.028  21.234   4.644 -0.0203  0.1140  0.1574
    1PPC    C3B67180  21.388  21.051   4.849  0.1436  0.1586  0.0638
    1PPC    C4B67181  21.387  20.583   4.780 -0.1746  0.1207 -0.1088
    1PPC    NC367182  23.440   9.967   3.157 -0.3360 -0.2798  0.1639
    1PPC    PO467183  23.444  10.431   3.369 -0.3130  0.1039 -0.0708
    1PPC    GL167184  23.400  10.063   3.663  0.1169 -0.2437  0.2362
    1PPC    GL267185  23.455   9.765   3.840  0.3357 -0.1135 -0.2714
    1PPC    C1B67186  23.539   9.469   4.193 -0.1548 -0.0627  0.4589
    1PPC    C2B67187  23.703   9.263   4.422  0.0064  0.1023 -0.0220
    1PPC    C3B67188  23.967   9.234   4.722  0.0200 -0.1778  0.1131
    1PPC    C4B67189  24.244   8.906   4.900  0.1940  0.0928 -0.0967
    1PPC    NC367190  22.944   6.479   2.655 -0.2256 -0.2637 -0.1341
    1PPC    PO467191  23.125   6.212   3.077 -0.2064 -0.0954 -0.1074
    1PPC    GL167192  23.327   6.574   3.397 -0.1277 -0.0463  0.0849
    1PPC    GL267193  23.200   6.632   3.709 -0.1057  0.2667 -0.0726
    1PPC    C1B67194  23.235   6.922   3.981  0.1629 -0.1293  0.0403
    1PPC    C2B67195  23.357   7.406   4.158 -0.1483 -0.1988  0.0738
    1PPC    C3B67196  23.498   7.836   4.120 -0.1624  0.4246 -0.3149
    1PPC    C4B67197  23.592   8.339   3.998 -0.1133  0.1191 -0.4900
    1PPC    NC367198  15.810   7.684   3.583  0.0480  0.5390 -0.1602
    1PPC    PO467199  16.242   7.594   3.582 -0.2470  0.0306  0.1854
    1PPC    GL167200  16.180   8.005   3.689  0.2192  0.3029 -0.2222
    1PPC    GL267201  16.216   8.188   3.823  0.3024  0.0215 -0.0691
    1PPC    C1B67202  15.925   8.485   4.047  0.0437 -0.1407 -0.0421
    1PPC    C2B67203  15.924   8.818   4.414 -0.2579 -0.1574 -0.0892
    1PPC    C3B67204  16.008   8.817   4.847 -0.2292  0.1010 -0.3693
    1PPC    C4B67205  16.349   8.913   5.077  0.1202 -0.0479  0.3727
    1PPC    NC367206   9.290  25.915   2.184  0.0070 -0.0361 -0.0158
    1PPC    PO467207   9.165  25.740   2.509  0.1639 -0.0092  0.1174
    1PPC    GL167208   9.377  25.426   2.783  0.0904  0.1136 -0.2532
    1PPC    GL267209   9.385  25.379   3.007 -0.1884 -0.2957  0.1158
    1PPC    C1B67210   9.249  25.315   3.324 -0.0173  0.3326  0.4357
    1PPC    C2B67211   9.141  25.396   3.755  0.4563  0.1653  0.2055
    1PPC    C3B67212   9.063  25.359   4.155  0.0122  0.0611  0.2014
    1PPC    C4B67213   9.119  25.063   4.320  0.4347 -0.0930  0.0680
    1PPC    NC367214   1.846  15.320   2.103  0.2296  0.0363 -0.1899
    1PPC    PO467215   1.787  15.110   2.502 -0.0193  0.1914 -0.2999
    1PPC    GL167216   1.759  15.283   2.854  0.3195 -0.0267 -0.0485
    1PPC    GL267217   1.659  15.420   3.111 -0.1524  0.3146  0.0970
    1PPC    C1B67218   1.751  15.562   3.582 -0.0344  0.1358 -0.3436
    1PPC    C2B67219   1.633  15.747   3.979 -0.0540 -0.0083  0.3205
    1PPC    C3B67220   1.467  16.217   4.000 -0.0938 -0.1069 -0.1354
    1PPC    C4B67221   1.582  16.621   3.762  0.0015 -0.3853 -0.3268
    1PPC    NC367222  23.567  28.407   2.003 -0.1862  0.2258 -0.2467
    1PPC    PO467223  23.563  28.212   2.421  0.0034  0.0911 -0.1404
    1PPC    GL167224  23.756  28.398   2.698  0.0492  0.1613  0.0519
    1PPC    GL267225  23.789  28.462   3.019 -0.2069 -0.2972 -0.1845
    1PPC    C1B67226  23.912  28.520   3.478  0.3375  0.0305 -0.0256
    1PPC    C2B67227  23.960  28.561   3.979  0.2474  0.0555  0.0346
    1PPC    C3B67228  23.807  28.330   4.308 -0.0269  0.1655 -0.2154
    1PPC    C4B67229  23.636  28.046   4.565  0.4129  0.1035  0.3173
    1PPC    NC367230   9.084  20.114   1.967  0.2300  0.1822 -0.2281
    1PPC    PO467231   8.620  19.958   2.033 -0.2781 -0.1462  0.1428
    1PPC    GL167232   8.519  20.078   2.489  0.1885  0.1348 -0.0998
    1PPC    GL267233   8.375  20.187   2.851  0.0122 -0.0934  0.0495
    1PPC    C1B67234   8.226  20.239   3.242 -0.2307  0.3082  0.0582
    1PPC    C2B67235   8.163  20.517   3.579  0.1492 -0.6135  0.1213
    1PPC    C3B67236   8.143  20.533   4.008 -0.1890  0.1831 -0.1221
    1PPC    C4B67237   8.238  20.651   4.400 -0.1433 -0.0428 -0.2066
    1PPC    NC367238   1.766  10.171   3.079  0.1355  0.0396  0.0910
    1PPC    PO467239   1.628  10.594   3.051  0.0996  0.0513 -0.1543
    1PPC    GL167240   1.705  10.677   3.421 -0.1014  0.0317  0.0318
    1PPC    GL267241   1.754  10.986   3.524 -0.2582 -0.4092  0.1014
    1PPC    C1B67242   1.842  11.329   3.747 -0.0378  0.1949  0.0408
    1PPC    C2B67243   1.689  11.397   4.224 -0.3489  0.1629  0.0067
    1PPC    C3B67244   1.860  11.564   4.622  0.5529 -0.1139 -0.1103
    1PPC    C4B67245   2.284  11.717   4.632  0.0935  0.1715  0.0758
    1PPC    NC367246  23.536   3.405   2.472  0.4186 -0.1067 -0.0532
    1PPC    PO467247  23.090   3.406   2.482 -0.3679  0.1322 -0.1947
    1PPC    GL167248  23.275   3.247   2.861 -0.1534  0.1181  0.1932
    1PPC    GL267249  23.319   3.107   3.110 -0.1432  0.1102 -0.2167
    1PPC    C1B67250  23.499   3.186   3.603 -0.2618 -0.3083 -0.1254
    1PPC    C2B67251  23.481   2.922   3.870 -0.0613 -0.0096 -0.2015
    1PPC    C3B67252  23.346   2.941   4.279 -0.1916 -0.2186 -0.2361
    1PPC    C4B67253  23.516   2.824   4.632  0.2260  0.0334 -0.0490
    1PPC    NC367254  23.866  11.770   2.361 -0.1313 -0.2252 -0.1061
    1PPC    PO467255  23.557  11.653   2.744  0.2182 -0.0349  0.0695
    1PPC    GL167256  23.590  11.585   3.151  0.3321  0.0355  0.3301
    1PPC    GL267257  23.721  11.544   3.474  0.1538 -0.1764 -0.0309
    1PPC    C1B67258  23.778  11.300   3.985 -0.2515  0.1910 -0.0844
    1PPC    C2B67259  23.913  11.386   4.380 -0.1052 -0.1345 -0.0089
    1PPC    C3B67260  24.089  11.260   4.851 -0.0427  0.1189  0.0855
    1PPC    C4B67261  23.857  11.398   5.216  0.0381  0.0388 -0.2310
    1PPC    NC367262   7.405  26.078   2.020  0.4045  0.0340 -0.1994
    1PPC    PO467263   7.845  25.986   2.140  0.0011  0.0370  0.5023
    1PPC    GL167264   7.948  25.829   2.641  0.4528 -0.0861 -0.2790
    1PPC    GL267265   8.050  25.653   2.910 -0.0025 -0.2299 -0.0618
    1PPC    C1B67266   7.883  25.578   3.422 -0.0534  0.2106  0.1582
    1PPC    C2B67267   7.514  25.800   3.604 -0.2540 -0.1099 -0.2039
    1PPC    C3B67268   7.342  25.763   4.012 -0.2946 -0.1087 -0.2567
    1PPC    C4B67269   7.242  25.409   4.358 -0.0089  0.1134  0.2281
    1PPC    NC367270   8.407  14.374   2.210 -0.0554  0.2937  0.0285
    1PPC    PO467271   7.951  14.532   2.519  0.3003 -0.1856  0.2707
    1PPC    GL167272   7.547  14.523   2.597  0.1823 -0.0630  0.3202
    1PPC    GL267273   7.362  14.752   2.817 -0.3450 -0.0637 -0.0473
    1PPC    C1B67274   7.080  14.729   3.074 -0.1631 -0.2286 -0.3389
    1PPC    C2B67275   7.034  14.605   3.557 -0.1925 -0.0203 -0.3000
    1PPC    C3B67276   7.239  14.621   3.999 -0.1402 -0.0212 -0.0176
    1PPC    C4B67277   7.587  14.642   4.294 -0.2482 -0.3006  0.0284
    1PPC    NC367278   1.941  21.007   2.233  0.3177  0.2577  0.0144
    1PPC    PO467279   1.896  21.379   2.482  0.1774 -0.4043 -0.2714
    1PPC    GL167280   2.007  21.251   2.912  0.0758 -0.3774  0.1056
    1PPC    GL267281   2.202  21.082   3.061  0.0598 -0.1244  0.3719
    1PPC    C1B67282   2.284  20.809   3.376 -0.0277 -0.0242  0.1118
    1PPC    C2B67283   2.178  20.348   3.466 -0.2068 -0.1234 -0.0199
    1PPC    C3B67284   2.069  19.929   3.528  0.1334 -0.2208 -0.3650
    1PPC    C4B67285   1.758  19.663   3.326 -0.0857  0.1715 -0.1960
    1PPC    NC367286  16.068   4.896   3.368 -0.3253  0.3200  0.1247
    1PPC    PO467287  16.119   4.578   3.639 -0.3312  0.3376  0.1404
    1PPC    GL167288  16.152   4.311   3.951  0.1452 -0.1800  0.0221
    1PPC    GL267289  16.304   4.272   4.355 -0.2592 -0.0356 -0.1231
    1PPC    C1B67290  16.363   4.175   4.768 -0.0960  0.0580  0.0053
    1PPC    C2B67291  16.231   3.984   5.176  0.0473  0.0287 -0.0290
    1PPC    C3B67292  16.249   3.660   5.540  0.0764 -0.0033 -0.1494
    1PPC    C4B67293  15.888   3.389   5.591  0.1830 -0.1548 -0.3172
    1PPC    NC367294  23.955   4.123   2.048 -0.1430  0.0320  0.0635
    1PPC    PO467295  23.764   3.895   2.492  0.1721  0.1660  0.0020
    1PPC    GL167296  23.590   3.686   2.890  0.0641  0.0941 -0.0382
    1PPC    GL267297  23.637   3.526   3.137 -0.3366  0.0027  0.1924
    1PPC    C1B67298  23.940   3.724   3.438  0.1061 -0.2586 -0.1980
    1PPC    C2B67299  23.883   3.526   3.908 -0.0341  0.1671  0.1739
    1PPC    C3B67300  24.121   3.599   4.468  0.0912 -0.2428  0.2649
    1PPC    C4B67301  24.115   3.840   4.835 -0.0499 -0.2599 -0.0815
    1PPC    NC367302  26.680  10.427   1.888  0.3028 -0.1197  0.2380
    1PPC    PO467303  26.581  10.616   2.229  0.1777 -0.0898  0.0887
    1PPC    GL167304  26.793  10.986   2.516 -0.0554  0.0218  0.0845
    1PPC    GL267305  26.773  10.956   2.889 -0.1880 -0.0697  0.2992
    1PPC    C1B67306  26.837  11.213   3.235 -0.0024  0.0419  0.1157
    1PPC    C2B67307  26.766  11.440   3.518 -0.1041 -0.1207  0.3030
    1PPC    C3B67308  26.874  11.550   3.885  0.0094 -0.1034  0.1461
    1PPC    C4B67309  26.669  11.565   4.265 -0.1065 -0.2369 -0.0618
    1PPC    NC367310  21.076   5.805   3.565 -0.2973  0.1676 -0.1745
    1PPC    PO467311  21.378   6.209   3.634  0.0496 -0.4186 -0.2998
    1PPC    GL167312  21.461   6.392   3.930 -0.1278 -0.1288  0.1282
    1PPC    GL267313  21.375   6.409   4.109 -0.0022 -0.0984  0.1292
    1PPC    C1B67314  21.148   6.493   4.437  0.2802 -0.0615  0.0747
    1PPC    C2B67315  20.820   6.800   4.541 -0.1992  0.2022 -0.1375
    1PPC    C3B67316  20.758   7.231   4.421  0.1183 -0.1205 -0.0244
    1PPC    C4B67317  20.705   7.673   4.639 -0.0080 -0.3686  0.1219
    1PPC    NC367318   4.081  17.146   2.387  0.2812 -0.0191  0.1514
    1PPC    PO467319   3.893  16.752   2.658 -0.2637 -0.3160 -0.2085
    1PPC    GL167320   3.770  16.662   2.981 -0.0480  0.1622 -0.2163
    1PPC    GL267321   3.941  16.583   3.204  0.0637 -0.2276  0.3667
    1PPC    C1B67322   3.918  16.372   3.600 -0.1484  0.0365  0.3629
    1PPC    C2B67323   3.924  15.911   3.883  0.0062 -0.0106  0.0706
    1PPC    C3B67324   3.710  15.790   4.095  0.1830 -0.1353 -0.1859
    1PPC    C4B67325   3.260  15.954   4.186  0.1310 -0.3721  0.3309
    1PPC    NC367326  15.341  25.359   2.837 -0.1307  0.0429  0.1547
    1PPC    PO467327  15.466  25.525   3.296 -0.1748  0.2959  0.0597
    1PPC    GL167328  15.550  25.640   3.688 -0.0839 -0.0492 -0.1685
    1PPC    GL267329  15.466  25.892   3.811  0.1864 -0.2854 -0.1314
    1PPC    C1B67330  15.583  26.083   4.102  0.1977 -0.0192  0.0712
    1PPC    C2B67331  15.893  25.935   4.427 -0.1987  0.0596  0.0345
    1PPC    C3B67332  16.136  26.180   4.792  0.1283  0.0228 -0.1642
    1PPC    C4B67333  16.023  26.476   5.116  0.2370 -0.0844 -0.2318
    1PPC    NC367334  25.413  11.207   2.226  0.2025 -0.0258 -0.3295
    1PPC    PO467335  24.966  11.377   2.241 -0.0687 -0.0131 -0.0527
    1PPC    GL167336  24.984  11.294   2.785 -0.1097  0.0946  0.5541
    1PPC    GL267337  24.939  11.246   3.122 -0.0223  0.0537  0.1261
    1PPC    C1B67338  25.266  11.022   3.256  0.2551 -0.3509  0.0682
    1PPC    C2B67339  25.340  10.800   3.559  0.1314 -0.0771 -0.0536
    1PPC    C3B67340  25.549  10.773   4.121 -0.0806  0.1512 -0.0812
    1PPC    C4B67341  25.383  10.619   4.503 -0.1395 -0.1190  0.2377
    1PPC    NC367342  26.543   9.947   2.435  0.3283  0.1667 -0.0385
    1PPC    PO467343  26.170   9.530   2.427 -0.1527  0.2136 -0.0647
    1PPC    GL167344  26.187   9.309   2.804 -0.3125  0.1555  0.3016
    1PPC    GL267345  26.043   9.278   3.174 -0.0483  0.2225  0.3262
    1PPC    C1B67346  25.735   9.475   3.457 -0.3494 -0.2071  0.0602
    1PPC    C2B67347  25.893   9.217   3.844 -0.2483  0.2337 -0.1170
    1PPC    C3B67348  25.564   8.901   4.068  0.1723 -0.1671  0.0525
    1PPC    C4B67349  25.317   8.559   3.976  0.0769 -0.3087 -0.0337
    1PPC    NC367350  24.694   1.727   2.803 -0.0083 -0.1099  0.0730
    1PPC    PO467351  24.686   1.499   3.186  0.0885  0.0094  0.0445
    1PPC    GL167352  24.994   1.546   3.427 -0.0542  0.3686 -0.2258
    1PPC    GL267353  25.089   1.638   3.721  0.1926 -0.1764 -0.2485
    1PPC    C1B67354  24.855   1.887   3.923  0.3929 -0.0178 -0.2424
    1PPC    C2B67355  24.602   2.054   4.329  0.0799  0.1263 -0.1821
    1PPC    C3B67356  24.386   2.280   4.580 -0.1645  0.0515 -0.0073
    1PPC    C4B67357  24.032   2.668   4.580 -0.1071  0.3106  0.2897
    1PPC    NC367358  21.044  27.096   2.970 -0.0910 -0.2371 -0.1016
    1PPC    PO467359  20.925  26.866   3.315 -0.0592  0.1191  0.0031
    1PPC    GL167360  21.078  26.638   3.660 -0.0748 -0.2052 -0.2285
    1PPC    GL267361  21.077  26.636   3.919 -0.1323 -0.0299 -0.1444
    1PPC    C1B67362  20.738  26.742   4.121  0.1014  0.0844 -0.2366
    1PPC    C2B67363  20.246  26.643   4.254 -0.0370  0.1015  0.1271
    1PPC    C3B67364  19.829  26.607   4.236 -0.0038 -0.0052  0.3009
    1PPC    C4B67365  19.447  26.330   4.153  0.3902  0.0288  0.0707
    1PPC    NC367366   1.194  20.829   1.992 -0.2869  0.3247  0.4055
    1PPC    PO467367   1.390  20.629   2.246 -0.4695 -0.1461 -0.2693
    1PPC    GL167368   1.069  20.717   2.509  0.5600  0.0787  0.0218
    1PPC    GL267369   0.749  20.669   2.661  0.1863 -0.3181 -0.0712
    1PPC    C1B67370   0.663  20.616   3.060 -0.1115 -0.0738  0.0720
    1PPC    C2B67371   0.897  20.627   3.543  0.0245  0.1622  0.0613
    1PPC    C3B67372   1.330  20.737   3.727 -0.0770  0.3035 -0.1705
    1PPC    C4B67373   1.462  21.161   3.687  0.2949  0.2414 -0.2059
    1PPC    NC367374  19.831  22.792   3.042  0.0305  0.2368  0.0358
    1PPC    PO467375  19.542  23.052   3.310 -0.0248  0.2890  0.0032
    1PPC    GL167376  19.491  22.987   3.758  0.0878 -0.3162  0.0559
    1PPC    GL267377  19.685  22.975   3.991 -0.0606 -0.1894  0.2552
    1PPC    C1B67378  19.572  22.749   4.346  0.0708  0.0182  0.1530
    1PPC    C2B67379  19.488  22.778   4.813 -0.0947 -0.0028 -0.1450
    1PPC    C3B67380  19.240  22.962   5.079 -0.0886  0.2490  0.0210
    1PPC    C4B67381  19.012  23.300   5.199 -0.1005  0.1148  0.1887
    1PPC    NC367382  24.234  18.378   2.157 -0.2302  0.0874  0.3244
    1PPC    PO467383  24.530  18.655   2.242 -0.1392  0.0009  0.1383
    1PPC    GL167384  24.787  18.751   2.605  0.0869 -0.0431  0.5490
    1PPC    GL267385  24.878  18.697   2.937 -0.3307 -0.1694  0.1094
    1PPC    C1B67386  25.006  18.891   3.293 -0.0634  0.0195 -0.0951
    1PPC    C2B67387  25.082  19.187   3.675 -0.1848  0.3890  0.3057
    1PPC    C3B67388  25.010  19.322   4.093 -0.2123 -0.2743 -0.0633
    1PPC    C4B67389  24.925  19.473   4.443 -0.2698  0.0066  0.2464
    1PPC    NC367390  12.240  25.913   3.087 -0.0568  0.0130 -0.1508
    1PPC    PO467391  12.306  26.217   3.320  0.0743 -0.0159  0.1489
    1PPC    GL167392  12.638  26.398   3.545 -0.0260  0.1896  0.0550
    1PPC    GL267393  12.852  26.270   3.706 -0.1142 -0.1086 -0.1583
    1PPC    C1B67394  12.967  26.289   4.110 -0.3161 -0.2777 -0.5297
    1PPC    C2B67395  12.968  26.451   4.565 -0.0694 -0.1183 -0.0253
    1PPC    C3B67396  13.219  26.253   4.916  0.0877 -0.3663  0.0263
    1PPC    C4B67397  13.056  26.344   5.326 -0.1406  0.1071 -0.1965
    1PPC    NC367398  25.665  21.175   2.820 -0.1373  0.3309  0.0184
    1PPC    PO467399  25.954  21.085   3.208  0.0452  0.0587 -0.0836
    1PPC    GL167400  26.090  20.605   3.237  0.0180  0.1577  0.0664
    1PPC    GL267401  26.189  20.210   3.213  0.2520 -0.0813  0.1870
    1PPC    C1B67402  26.563  20.063   3.508 -0.1803 -0.0999  0.1518
    1PPC    C2B67403  26.706  20.208   3.912  0.0717 -0.3129  0.2647
    1PPC    C3B67404  26.690  19.924   4.117 -0.3075  0.0151  0.3321
    1PPC    C4B67405  26.471  19.535   4.358 -0.3411 -0.1313 -0.0839
    1PPC    NC367406   2.637   5.866   2.760  0.1745 -0.1800  0.2378
    1PPC    PO467407   2.481   5.543   3.116  0.0448 -0.1717 -0.2565
    1PPC    GL167408   2.120   5.825   3.377 -0.3028 -0.0022 -0.2450
    1PPC    GL267409   1.993   5.793   3.766 -0.0718  0.1104  0.1949
    1PPC    C1B67410   1.985   5.984   4.160 -0.1712  0.0919  0.2407
    1PPC    C2B67411   2.150   6.135   4.547 -0.1679  0.1691 -0.1135
    1PPC    C3B67412   2.638   5.933   4.812  0.3319 -0.2485 -0.0337
    1PPC    C4B67413   2.709   5.573   4.910  0.0441  0.0005  0.0443
    1PPC    NC367414  13.479   3.550   3.703  0.0650  0.0722  0.0614
    1PPC    PO467415  13.903   3.651   3.818  0.2287 -0.1650 -0.1213
    1PPC    GL167416  13.791   3.552   4.182 -0.0353  0.1711 -0.0203
    1PPC    GL267417  13.595   3.618   4.434  0.2169 -0.0130  0.1576
    1PPC    C1B67418  13.258   3.459   4.616  0.2133 -0.1828 -0.0178
    1PPC    C2B67419  13.211   3.193   4.988  0.2779  0.1073 -0.0497
    1PPC    C3B67420  13.236   2.881   5.314  0.0493  0.0913 -0.0116
    1PPC    C4B67421  13.388   2.580   5.418  0.0868  0.1877  0.1345
    1PPC    NC367422   7.268  20.582   2.469  0.0085  0.2902 -0.1443
    1PPC    PO467423   6.894  20.603   2.055  0.2000  0.0091 -0.1248
    1PPC    GL167424   6.719  20.662   2.467 -0.6029  0.2894 -0.0971
    1PPC    GL267425   6.759  20.573   2.750  0.1128  0.1249 -0.1771
    1PPC    C1B67426   6.891  20.441   3.119 -0.0718  0.1654  0.1798
    1PPC    C2B67427   6.618  20.644   3.503 -0.0416  0.1444 -0.0366
    1PPC    C3B67428   6.512  20.806   3.919 -0.0161 -0.2479  0.1992
    1PPC    C4B67429   6.404  20.974   4.329  0.0130  0.2717 -0.3157
    1PPC    NC367430   5.556  13.091   2.823 -0.0328  0.0183 -0.1583
    1PPC    PO467431   5.986  13.385   2.851 -0.0061  0.3725 -0.2897
    1PPC    GL167432   6.240  13.333   3.217  0.0118  0.0781  0.2962
    1PPC    GL267433   6.500  13.299   3.445  0.1957 -0.3452 -0.1672
    1PPC    C1B67434   6.622  13.328   3.905 -0.2638  0.0689  0.1323
    1PPC    C2B67435   6.568  13.511   4.340 -0.0874 -0.2330  0.0372
    1PPC    C3B67436   6.774  13.476   4.729 -0.2567  0.1862  0.0095
    1PPC    C4B67437   7.151  13.569   5.001 -0.1511  0.0843 -0.1389
    1PPC    NC367438  13.354   4.731   3.071 -0.1265 -0.0405  0.1847
    1PPC    PO467439  13.413   4.470   3.503 -0.0945  0.0855  0.0926
    1PPC    GL167440  13.404   4.494   3.950 -0.2028  0.1832  0.2762
    1PPC    GL267441  13.602   4.417   4.254  0.0139  0.0521  0.3566
    1PPC    C1B67442  13.513   4.098   4.517  0.2962 -0.1932 -0.1721
    1PPC    C2B67443  13.388   4.029   4.963  0.0649  0.1055 -0.2338
    1PPC    C3B67444  13.361   4.005   5.411  0.1973  0.2056  0.1928
    1PPC    C4B67445  13.180   4.139   5.668  0.0683  0.1096 -0.1296
    1PPC    NC367446  17.551   5.404   2.921  0.1525  0.3960 -0.0306
    1PPC    PO467447  17.447   5.191   3.371  0.2344 -0.1625  0.0362
    1PPC    GL167448  17.261   5.195   3.785  0.1888 -0.2253  0.4217
    1PPC    GL267449  17.283   5.336   3.945 -0.0458  0.0712  0.0585
    1PPC    C1B67450  17.508   5.239   4.316  0.1301 -0.2095 -0.2659
    1PPC    C2B67451  17.621   5.079   4.754  0.0883 -0.1556 -0.0696
    1PPC    C3B67452  17.716   5.332   5.110  0.0378  0.2171  0.0401
    1PPC    C4B67453  17.671   5.472   5.585  0.1213 -0.2516  0.0061
    1PPC    NC367454  25.671  19.273   2.670 -0.1422 -0.5807 -0.1121
    1PPC    PO467455  25.969  19.097   2.360  0.2538  0.4703  0.0777
    1PPC    GL167456  26.163  19.162   2.775  0.3546 -0.1113 -0.0500
    1PPC    GL267457  26.297  19.361   2.990  0.0612 -0.2917 -0.1148
    1PPC    C1B67458  26.352  19.609   3.310  0.0823 -0.1146 -0.1158
    1PPC    C2B67459  26.714  19.599   3.583  0.3122 -0.0002 -0.2546
    1PPC    C3B67460  27.066  19.844   3.726 -0.2243 -0.1049 -0.0921
    1PPC    C4B67461  27.211  20.324   3.697 -0.0971  0.2991  0.1501
    1PPC    NC367462  16.154   2.830   4.275 -0.0473 -0.2498 -0.0902
    1PPC    PO467463  16.400   3.145   4.159 -0.1606 -0.1509  0.0289
    1PPC    GL167464  16.588   3.314   4.445 -0.1380 -0.0358 -0.0435
    1PPC    GL267465  16.857   3.306   4.482  0.1091  0.2084 -0.1306
    1PPC    C1B67466  17.258   3.546   4.555 -0.0807  0.1461  0.0004
    1PPC    C2B67467  17.653   3.722   4.616 -0.0421  0.0342  0.0849
    1PPC    C3B67468  17.889   3.666   4.869  0.0312 -0.3567 -0.1301
    1PPC    C4B67469  18.238   3.749   4.854  0.0124  0.4160 -0.0147
    1PPC    NC367470   7.670  23.577   2.030 -0.1262  0.0754  0.1123
    1PPC    PO467471   8.030  23.650   2.397  0.2080 -0.0237  0.0749
    1PPC    GL167472   8.041  23.430   2.780 -0.3064 -0.2182 -0.0603
    1PPC    GL267473   8.075  23.404   3.139  0.1341  0.0822  0.1064
    1PPC    C1B67474   7.960  23.186   3.445  0.3165  0.1924  0.3638
    1PPC    C2B67475   8.040  22.819   3.671  0.1191 -0.0770 -0.0394
    1PPC    C3B67476   8.041  22.500   4.000 -0.0437 -0.0456 -0.3079
    1PPC    C4B67477   7.793  22.340   4.312 -0.0469 -0.1454  0.0151
    1PPC    NC367478   5.175   1.899   2.893  0.3196 -0.0657  0.0281
    1PPC    PO467479   5.394   2.235   2.913  0.2824  0.3253  0.2054
    1PPC    GL167480   5.583   2.194   3.260  0.5669  0.0177 -0.1130
    1PPC    GL267481   5.771   2.036   3.361  0.3897  0.2997 -0.4324
    1PPC    C1B67482   5.709   1.856   3.720  0.0470 -0.0825 -0.1319
    1PPC    C2B67483   5.648   1.552   3.891  0.0088  0.2149  0.2550
    1PPC    C3B67484   5.665   1.217   4.279  0.1177  0.2276 -0.4038
    1PPC    C4B67485   5.418   0.866   4.490 -0.1425  0.0498  0.3088
    1PPC    NC367486   4.781  12.432   2.561 -0.0386  0.2244  0.1077
    1PPC    PO467487   4.708  12.681   2.936  0.1100  0.4603 -0.0782
    1PPC    GL167488   4.728  12.283   3.251 -0.0433  0.0656 -0.2668
    1PPC    GL267489   4.527  12.312   3.437  0.0168  0.0034 -0.1369
    1PPC    C1B67490   4.538  12.215   3.874 -0.0251  0.2796  0.1722
    1PPC    C2B67491   4.798  11.892   3.948  0.0025 -0.0814  0.0427
    1PPC    C3B67492   4.864  11.533   4.125 -0.0956 -0.0292 -0.2191
    1PPC    C4B67493   5.081  11.146   4.284 -0.0515 -0.0030  0.1033
    1PPC    NC367494  17.465   9.941   2.712  0.0525 -0.1054 -0.0073
    1PPC    PO467495  17.097   9.986   2.769  0.0771  0.0331  0.2071
    1PPC    GL167496  17.135   9.993   3.163  0.2309  0.1478 -0.0211
    1PPC    GL267497  17.046   9.827   3.356  0.0703  0.1589  0.0802
    1PPC    C1B67498  17.024   9.851   3.700  0.3184 -0.2076  0.2535
    1PPC    C2B67499  16.954  10.011   4.140  0.1114  0.1974 -0.0685
    1PPC    C3B67500  16.905   9.942   4.594  0.2723 -0.0405 -0.0627
    1PPC    C4B67501  16.918   9.504   4.804 -0.0092 -0.1248 -0.0699
    1PPC    NC367502  15.084   6.329   3.741 -0.2449  0.0881 -0.1246
    1PPC    PO467503  15.259   5.948   3.507 -0.3888  0.0489 -0.0083
    1PPC    GL167504  15.360   5.813   3.980  0.0576 -0.2136 -0.2820
    1PPC    GL267505  15.218   5.776   4.217  0.1989 -0.1035 -0.0519
    1PPC    C1B67506  15.015   5.630   4.515  0.0534 -0.1661 -0.0645
    1PPC    C2B67507  14.890   5.808   4.755 -0.0734  0.1684 -0.2805
    1PPC    C3B67508  14.748   5.860   5.169 -0.1490  0.2775  0.0357
    1PPC    C4B67509  14.278   5.660   5.317  0.3026 -0.1759  0.3082
    1PPC    NC367510   5.063  10.066   2.557 -0.0779 -0.1374  0.1240
    1PPC    PO467511   4.721  10.008   2.812  0.1096 -0.0363 -0.1894
    1PPC    GL167512   4.803   9.988   3.332 -0.1107  0.1437  0.1243
    1PPC    GL267513   4.893  10.002   3.635 -0.0061  0.3413  0.2065
    1PPC    C1B67514   5.099   9.869   3.974 -0.0062  0.0598  0.1821
    1PPC    C2B67515   5.184   9.715   4.408  0.0662  0.0599  0.0280
    1PPC    C3B67516   5.027   9.301   4.516  0.1250 -0.1344  0.0719
    1PPC    C4B67517   5.175   8.891   4.603  0.1363  0.2746 -0.0922
    1PPC    NC367518  27.174   3.554   2.591 -0.1760  0.0192  0.1219
    1PPC    PO467519  27.196   3.413   3.006 -0.1521 -0.0579  0.1184
    1PPC    GL167520  27.193   3.506   3.478 -0.3978 -0.4533  0.0042
    1PPC    GL267521  27.337   3.733   3.689 -0.2984 -0.0278  0.0417
    1PPC    C1B67522  27.618   3.847   3.989  0.0330  0.1365  0.3688
    1PPC    C2B67523  27.719   4.148   4.399  0.0694  0.0824  0.2883
    1PPC    C3B67524  27.963   4.416   4.666 -0.1014  0.0088  0.2184
    1PPC    C4B67525  28.249   4.747   4.723  0.1459 -0.0664  0.1137
    1PPC    NC367526   6.703   9.468   2.952  0.1588  0.3399  0.1857
    1PPC    PO467527   6.485   9.745   3.080 -0.0648  0.0014  0.2017
    1PPC    GL167528   6.879   9.755   3.305 -0.2391 -0.0375 -0.2432
    1PPC    GL267529   7.007   9.888   3.564 -0.0532  0.2669 -0.0015
    1PPC    C1B67530   7.165   9.929   4.036 -0.1878 -0.1127 -0.0604
    1PPC    C2B67531   7.134   9.752   4.493 -0.0222  0.4155 -0.5514
    1PPC    C3B67532   7.168   9.955   4.842 -0.0514  0.3007  0.0333
    1PPC    C4B67533   7.075   9.924   5.317 -0.0157 -0.0671  0.1193
    1PPC    NC367534   0.888   4.636   2.956  0.0475  0.1230  0.0688
    1PPC    PO467535   0.643   4.993   2.779 -0.1461 -0.0948 -0.0358
    1PPC    GL167536   0.553   5.175   3.168 -0.2355  0.2343  0.1636
    1PPC    GL267537   0.394   5.484   3.323 -0.1748  0.0542  0.1053
    1PPC    C1B67538   0.280   5.429   3.754  0.0546  0.0498 -0.1106
    1PPC    C2B67539   0.324   5.180   4.167 -0.0205 -0.1384 -0.1357
    1PPC    C3B67540   0.459   4.974   4.590  0.0518  0.0257  0.2937
    1PPC    C4B67541   0.652   5.105   4.942  0.1944 -0.0368 -0.0482
    1PPC    NC367542  19.521   0.554   2.433 -0.1528  0.1858  0.1693
    1PPC    PO467543  19.713   0.497   2.887  0.3583  0.2093 -0.0309
    1PPC    GL167544  19.971   0.365   3.141 -0.4605  0.0839  0.0173
    1PPC    GL267545  19.999   0.448   3.445 -0.0472  0.4245  0.1992
    1PPC    C1B67546  20.049   0.873   3.583  0.1649 -0.2101  0.3768
    1PPC    C2B67547  20.040   0.850   4.040 -0.0074 -0.2455  0.0691
    1PPC    C3B67548  20.150   0.614   4.421  0.0976  0.1535  0.0530
    1PPC    C4B67549  19.961   0.817   4.825 -0.0504 -0.0644  0.1032
    1PPC    NC367550  17.429   6.156   3.135  0.2392 -0.0365  0.3158
    1PPC    PO467551  17.316   6.198   3.457  0.0896  0.2380  0.2882
    1PPC    GL167552  17.118   6.340   3.691  0.2289 -0.2042 -0.0028
    1PPC    GL267553  16.982   6.244   3.981 -0.0410 -0.0103  0.1289
    1PPC    C1B67554  16.913   5.971   4.377 -0.0365  0.1597  0.2611
    1PPC    C2B67555  17.163   5.883   4.752 -0.2457 -0.3349  0.3333
    1PPC    C3B67556  17.535   5.928   4.992 -0.2324  0.2478 -0.5431
    1PPC    C4B67557  17.936   5.796   5.183  0.0135  0.4738  0.0608
    1PPC    NC367558  25.473  22.635   2.836  0.0935 -0.0339 -0.1370
    1PPC    PO467559  25.651  22.155   3.014  0.2509 -0.1189  0.3749
    1PPC    GL167560  25.872  22.558   3.156 -0.0143  0.1221 -0.0307
    1PPC    GL267561  25.807  22.802   3.460 -0.3300 -0.1447  0.2717
    1PPC    C1B67562  25.957  22.861   3.813 -0.1627 -0.0485 -0.0766
    1PPC    C2B67563  25.919  22.901   4.250 -0.2781 -0.0370  0.0812
    1PPC    C3B67564  25.898  23.147   4.625 -0.1107  0.1183 -0.1539
    1PPC    C4B67565  25.954  23.166   5.037  0.3146  0.0015  0.1659
    1PPC    NC367566  24.990  27.597   2.912 -0.1107  0.3584  0.3794
    1PPC    PO467567  25.119  28.080   2.888 -0.2437  0.2880  0.0499
    1PPC    GL167568  24.779  28.343   3.194  0.2008  0.0516  0.4653
    1PPC    GL267569  24.482  28.341   3.287  0.2272 -0.2567 -0.2296
    1PPC    C1B67570  24.505  28.349   3.734 -0.3124  0.0888 -0.0200
    1PPC    C2B67571  24.362  28.315   4.155  0.0024 -0.1046 -0.1215
    1PPC    C3B67572  24.203  28.497   4.503 -0.1883  0.0051 -0.2024
    1PPC    C4B67573  23.930  28.787   4.614  0.0010  0.2138 -0.0410
    1PPC    NC367574  24.145   6.125   2.065  0.4224  0.1311  0.1372
    1PPC    PO467575  24.338   6.044   2.405  0.0234 -0.1589 -0.1169
    1PPC    GL167576  24.461   6.166   2.830  0.0866  0.3201  0.1763
    1PPC    GL267577  24.667   6.355   2.986  0.4097 -0.0322  0.0407
    1PPC    C1B67578  24.813   6.315   3.334 -0.1792  0.0906  0.0228
    1PPC    C2B67579  24.951   6.447   3.753  0.0996  0.0516  0.3401
    1PPC    C3B67580  24.578   6.471   4.093 -0.1575  0.0200 -0.1518
    1PPC    C4B67581  24.662   6.458   4.502  0.0845  0.0242 -0.0130
    1PPC    NC367582  27.381   9.775   1.882  0.0582 -0.1179  0.0318
    1PPC    PO467583  27.452   9.396   2.212 -0.0006  0.0903 -0.2081
    1PPC    GL167584  27.365   9.424   2.633  0.0635 -0.1069  0.2398
    1PPC    GL267585  27.411   9.757   2.856  0.0771 -0.2564  0.0161
    1PPC    C1B67586  27.590  10.039   3.218  0.0784  0.1280  0.0205
    1PPC    C2B67587  27.616  10.188   3.613  0.0062 -0.1995 -0.1810
    1PPC    C3B67588  27.714  10.350   3.919 -0.2538  0.1102 -0.1376
    1PPC    C4B67589  27.526  10.544   4.371  0.0202 -0.2387  0.0323
    1PPC    NC367590  26.776  26.785   2.661  0.1818  0.0872 -0.1136
    1PPC    PO467591  27.205  26.782   2.969 -0.0281  0.0300  0.0161
    1PPC    GL167592  27.144  26.894   3.465 -0.0530  0.1456  0.0632
    1PPC    GL267593  27.094  26.917   3.759  0.2310  0.1130  0.1073
    1PPC    C1B67594  27.120  26.831   4.112  0.1940 -0.2382 -0.1655
    1PPC    C2B67595  27.452  26.597   4.331 -0.1399 -0.2332 -0.0757
    1PPC    C3B67596  27.698  26.421   4.721  0.3280 -0.1807  0.3569
    1PPC    C4B67597  27.869  26.200   5.001  0.1709  0.1047  0.2133
    1PPC    NC367598  20.980  28.382   2.217  0.3568  0.2607 -0.1072
    1PPC    PO467599  20.651  28.556   2.535 -0.3855  0.0445 -0.0611
    1PPC    GL167600  20.780  28.785   2.857  0.2095 -0.1960  0.0156
    1PPC    GL267601  20.965  28.844   3.096  0.1203  0.1298 -0.2237
    1PPC    C1B67602  21.050  28.905   3.490  0.2807 -0.2470 -0.1929
    1PPC    C2B67603  21.126  28.643   3.917 -0.2435 -0.4250 -0.3681
    1PPC    C3B67604  21.388  28.620   4.289 -0.2676  0.2488  0.0898
    1PPC    C4B67605  21.699  28.690   4.627  0.0259 -0.2915  0.0586
    1PPC    NC367606   3.096  17.688   1.664  0.0120 -0.1334 -0.0397
    1PPC    PO467607   3.097  18.008   1.987 -0.1847 -0.3992 -0.1689
    1PPC    GL167608   3.054  18.297   2.453 -0.1698  0.0859  0.1042
    1PPC    GL267609   2.983  18.179   2.830 -0.0571  0.2131 -0.2361
    1PPC    C1B67610   2.809  18.280   3.318 -0.0419 -0.0696  0.0716
    1PPC    C2B67611   2.577  18.223   3.692  0.2504 -0.1262 -0.1774
    1PPC    C3B67612   2.301  18.259   4.106  0.0498  0.0891 -0.4066
    1PPC    C4B67613   2.110  18.476   4.486 -0.0821 -0.1325  0.3204
    1PPC    NC367614  20.521  27.628   2.737 -0.0906  0.0933 -0.1555
    1PPC    PO467615  20.979  27.592   2.908 -0.2175  0.0210  0.3962
    1PPC    GL167616  20.987  27.326   3.443 -0.1065  0.1388 -0.0041
    1PPC    GL267617  21.050  27.212   3.794 -0.1114 -0.1967  0.0176
    1PPC    C1B67618  21.049  27.498   4.240  0.0393  0.0012  0.2034
    1PPC    C2B67619  21.118  27.541   4.674  0.2753 -0.0148 -0.0386
    1PPC    C3B67620  21.024  27.365   5.084  0.0841  0.0449  0.0383
    1PPC    C4B67621  20.986  27.143   5.537  0.1110  0.0095  0.5107
    1PPC    NC367622  13.388   1.713   3.949  0.0721 -0.1028 -0.0427
    1PPC    PO467623  13.428   2.059   3.816 -0.0795  0.0060 -0.0485
    1PPC    GL167624  13.594   2.062   4.163 -0.0435 -0.2812 -0.0231
    1PPC    GL267625  13.742   2.268   4.416  0.0921 -0.1356 -0.1224
    1PPC    C1B67626  13.975   2.361   4.786 -0.1808  0.1753 -0.1949
    1PPC    C2B67627  13.850   2.362   5.238  0.0967 -0.3751 -0.1630
    1PPC    C3B67628  13.762   2.134   5.664 -0.4745  0.3477  0.1864
    1PPC    C4B67629  13.676   2.273   6.222  0.2649  0.2112 -0.0951
    1PPC    NC367630   1.164  10.504   2.568 -0.2130 -0.0346  0.0267
    1PPC    PO467631   0.750  10.408   2.432 -0.0422 -0.1179  0.1562
    1PPC    GL167632   0.698  10.359   2.854 -0.0212  0.1546 -0.2419
    1PPC    GL267633   0.917  10.414   3.130  0.3155  0.0378  0.0486
    1PPC    C1B67634   0.988  10.652   3.437 -0.2144  0.4018  0.1004
    1PPC    C2B67635   1.238  10.725   3.741  0.0074  0.0295 -0.4168
    1PPC    C3B67636   1.523  10.823   4.124  0.0757  0.0262  0.1347
    1PPC    C4B67637   1.789  10.954   4.400 -0.2316  0.0639  0.5485
    1PPC    NC367638   7.728  22.271   2.265 -0.2302 -0.2210  0.2368
    1PPC    PO467639   7.488  22.230   1.985  0.3388 -0.4358  0.1873
    1PPC    GL167640   7.272  21.947   2.325 -0.0032 -0.2490  0.1356
    1PPC    GL267641   7.166  21.861   2.601 -0.2703  0.1110  0.0247
    1PPC    C1B67642   6.844  22.042   3.016  0.0770 -0.3311 -0.0417
    1PPC    C2B67643   6.832  22.101   3.452 -0.0724  0.1185 -0.0382
    1PPC    C3B67644   6.565  22.091   3.799  0.0710 -0.1135  0.2522
    1PPC    C4B67645   6.052  22.076   3.775 -0.2225 -0.0792 -0.1677
    1PPC    NC367646  23.887   1.723   2.589  0.0003  0.2079  0.0599
    1PPC    PO467647  23.886   1.326   2.842  0.0631 -0.0089 -0.0636
    1PPC    GL167648  23.845   1.163   3.201  0.2408  0.0268 -0.2243
    1PPC    GL267649  23.883   1.136   3.444 -0.2732  0.1137  0.5144
    1PPC    C1B67650  23.744   1.183   3.908  0.0316  0.0263  0.1891
    1PPC    C2B67651  23.516   1.196   4.280 -0.2572  0.0128 -0.3414
    1PPC    C3B67652  23.344   1.545   4.263  0.0146 -0.0341  0.0490
    1PPC    C4B67653  23.131   1.698   4.503 -0.0085  0.0392 -0.3953
    1PPC    NC367654  19.208  25.086   2.983 -0.1058  0.0348  0.1057
    1PPC    PO467655  19.243  24.825   3.298 -0.2668 -0.2462  0.0962
    1PPC    GL167656  19.341  24.920   3.759  0.1218  0.1620  0.0572
    1PPC    GL267657  19.508  25.061   4.069  0.2106  0.0373 -0.1134
    1PPC    C1B67658  19.686  25.155   4.402 -0.2491 -0.1589  0.0441
    1PPC    C2B67659  19.661  25.232   4.875  0.1025  0.2533  0.0154
    1PPC    C3B67660  19.672  25.547   5.191 -0.2095  0.2732  0.1019
    1PPC    C4B67661  19.699  25.636   5.604  0.1827 -0.0358  0.0738
    1PPC    NC367662  10.000   4.192   2.739  0.0054 -0.1625  0.0514
    1PPC    PO467663   9.810   4.415   2.924 -0.2697 -0.1385 -0.0432
    1PPC    GL167664   9.523   4.582   3.286 -0.1981  0.2686  0.0798
    1PPC    GL267665   9.390   4.633   3.600  0.0738  0.2874 -0.0272
    1PPC    C1B67666   9.251   4.851   3.991 -0.2269 -0.1555 -0.1087
    1PPC    C2B67667   9.198   5.223   4.115 -0.1123 -0.0658  0.2573
    1PPC    C3B67668   9.155   5.626   4.366  0.0168 -0.0336  0.1028
    1PPC    C4B67669   9.021   5.722   4.802 -0.0250 -0.0609  0.0871
    1PPC    NC367670  25.194   1.076   3.129  0.0353 -0.2008  0.0525
    1PPC    PO467671  25.350   0.735   3.308 -0.2069  0.0643  0.2927
    1PPC    GL167672  25.250   0.591   3.620  0.0471  0.2097 -0.0356
    1PPC    GL267673  25.328   0.673   3.880 -0.4495 -0.3350  0.2714
    1PPC    C1B67674  25.423   0.826   4.332 -0.2750 -0.3036 -0.0152
    1PPC    C2B67675  25.751   0.812   4.618  0.1364  0.2490 -0.4587
    1PPC    C3B67676  25.828   0.696   4.990  0.1562 -0.2221  0.0517
    1PPC    C4B67677  25.904   0.802   5.452 -0.3165  0.0955  0.0155
    1PPC    NC367678   4.683  23.672   2.348 -0.0711 -0.2531 -0.1209
    1PPC    PO467679   4.277  23.796   2.570 -0.0686 -0.0580  0.0545
    1PPC    GL167680   4.391  24.008   2.873  0.1413 -0.0476 -0.2536
    1PPC    GL267681   4.691  24.217   3.104  0.3763  0.2227  0.0473
    1PPC    C1B67682   4.714  24.059   3.400  0.1386 -0.2801 -0.0053
    1PPC    C2B67683   4.440  23.982   3.693  0.2930 -0.1502 -0.2655
    1PPC    C3B67684   4.394  24.042   4.127 -0.0922 -0.1627  0.0449
    1PPC    C4B67685   4.544  23.747   4.430  0.1686 -0.5987  0.1712
    1PPC    NC367686   3.927  15.818   2.697  0.0534  0.0982  0.0023
    1PPC    PO467687   3.895  15.370   2.775 -0.0437  0.0418  0.1427
    1PPC    GL167688   3.766  15.587   3.141 -0.3588  0.1351 -0.4141
    1PPC    GL267689   3.765  15.710   3.452  0.0997  0.0265 -0.0219
    1PPC    C1B67690   3.956  15.419   3.600 -0.0135 -0.1219  0.0353
    1PPC    C2B67691   4.387  15.351   3.675  0.1808 -0.0260 -0.1473
    1PPC    C3B67692   4.611  15.239   4.117  0.1287 -0.2566 -0.1872
    1PPC    C4B67693   4.750  15.550   4.437  0.2223  0.0203  0.1051
    1PPC    NC367694   8.056  28.215   3.347  0.1069 -0.1191 -0.2957
    1PPC    PO467695   7.574  28.293   3.216 -0.0303 -0.1329  0.2451
    1PPC    GL167696   7.687  27.838   3.472 -0.1062 -0.1107  0.3261
    1PPC    GL267697   7.921  27.792   3.786 -0.2871  0.1112  0.0714
    1PPC    C1B67698   7.859  27.790   4.272 -0.2103  0.0159 -0.1491
    1PPC    C2B67699   7.835  27.929   4.706 -0.1828 -0.3436 -0.0281
    1PPC    C3B67700   7.958  27.807   5.046  0.0217  0.1233  0.1314
    1PPC    C4B67701   8.076  27.373   5.289  0.0412 -0.2195  0.0072
    1PPC    NC367702  17.749  25.743   3.621  0.0307 -0.0248  0.1598
    1PPC    PO467703  17.822  26.155   3.470  0.2504 -0.2576  0.2286
    1PPC    GL167704  18.073  26.055   3.860 -0.3512 -0.1179  0.0225
    1PPC    GL267705  18.364  25.913   3.854  0.1220  0.1145 -0.1851
    1PPC    C1B67706  18.717  25.847   4.131  0.2437 -0.1893  0.2442
    1PPC    C2B67707  18.852  25.470   4.354  0.0523  0.2565 -0.0016
    1PPC    C3B67708  19.229  25.269   4.540 -0.0557  0.1450 -0.0595
    1PPC    C4B67709  19.314  24.874   4.618 -0.4186  0.1757  0.1755
    1PPC    NC367710   1.433  18.348   1.431  0.0359  0.2633  0.2195
    1PPC    PO467711   0.983  18.269   1.695 -0.1003 -0.3015 -0.2470
    1PPC    GL167712   0.973  18.257   2.210 -0.0640  0.3564 -0.1293
    1PPC    GL267713   0.999  18.113   2.551 -0.1682  0.1153 -0.4258
    1PPC    C1B67714   0.656  18.183   2.855 -0.2114  0.2991  0.0198
    1PPC    C2B67715   0.343  18.481   2.965 -0.3332  0.0861 -0.0375
    1PPC    C3B67716   0.300  18.721   3.374  0.1770 -0.0806  0.1540
    1PPC    C4B67717   0.147  18.581   3.700  0.2878 -0.0409 -0.0947
    1PPC    NC367718  21.042   2.688   2.788 -0.1712 -0.1689 -0.1124
    1PPC    PO467719  20.819   2.809   3.141 -0.1192  0.0305  0.1276
    1PPC    GL167720  20.915   2.399   3.156 -0.0418  0.1944  0.0985
    1PPC    GL267721  21.172   2.235   3.272  0.1682  0.1568  0.0832
    1PPC    C1B67722  21.446   2.171   3.686 -0.2059  0.0174 -0.1922
    1PPC    C2B67723  21.456   2.019   4.139  0.0030 -0.1199 -0.3583
    1PPC    C3B67724  21.369   2.090   4.561  0.2849 -0.1340  0.2019
    1PPC    C4B67725  21.232   2.028   4.924 -0.0200 -0.2558 -0.1769
    1PPC    NC367726  25.464   4.501   3.145 -0.2565  0.2094 -0.1759
    1PPC    PO467727  25.917   4.316   3.331  0.2578 -0.2120  0.2983
    1PPC    GL167728  25.914   3.998   3.614  0.1189 -0.2424 -0.0560
    1PPC    GL267729  26.058   3.729   3.786 -0.2683 -0.1547  0.0698
    1PPC    C1B67730  26.331   3.600   4.129  0.0872 -0.0870 -0.2278
    1PPC    C2B67731  26.700   3.268   4.271 -0.1412  0.1285  0.0347
    1PPC    C3B67732  27.106   2.990   4.426 -0.2245  0.1653 -0.0774
    1PPC    C4B67733  27.324   2.741   4.648 -0.2163  0.1396  0.1499
    1PPC    NC367734  22.360  22.669   2.420 -0.0677 -0.0775  0.0935
    1PPC    PO467735  22.368  22.860   2.837  0.2659  0.1758 -0.2348
    1PPC    GL167736  22.389  22.992   3.293 -0.0670 -0.1343  0.0782
    1PPC    GL267737  22.276  22.885   3.603  0.1818 -0.0201  0.1688
    1PPC    C1B67738  22.215  23.032   4.048  0.0514  0.1464 -0.0860
    1PPC    C2B67739  22.156  22.915   4.510  0.0435  0.1148  0.0989
    1PPC    C3B67740  22.037  23.273   4.735 -0.2567  0.0091  0.2562
    1PPC    C4B67741  21.832  23.248   5.046  0.0468 -0.0197 -0.3336
    1PPC    NC367742   3.583  15.432   1.881  0.0040 -0.3816  0.0577
    1PPC    PO467743   3.146  15.350   2.081 -0.0509  0.1610  0.2202
    1PPC    GL167744   3.020  15.359   2.584  0.1095 -0.2909  0.1698
    1PPC    GL267745   2.906  15.449   2.839 -0.2731 -0.0845 -0.0491
    1PPC    C1B67746   2.948  15.692   3.185  0.0335  0.3020 -0.0855
    1PPC    C2B67747   3.242  15.794   3.481 -0.1444 -0.1138  0.0631
    1PPC    C3B67748   3.496  16.130   3.732 -0.0630 -0.3012  0.2497
    1PPC    C4B67749   3.585  16.348   4.156  0.0410 -0.0300  0.0878
    1PPC    NC367750   9.891  25.521   1.926 -0.0539  0.1476  0.3018
    1PPC    PO467751   9.839  25.839   2.314 -0.0993  0.0639  0.0162
    1PPC    GL167752   9.636  25.841   2.659  0.0006  0.0591  0.1231
    1PPC    GL267753   9.690  25.796   3.044 -0.2972  0.2830 -0.0819
    1PPC    C1B67754   9.835  25.733   3.455 -0.0350  0.2308 -0.2685
    1PPC    C2B67755   9.905  25.603   3.781  0.0003 -0.1019 -0.0387
    1PPC    C3B67756   9.882  25.774   4.196  0.0456  0.0635 -0.1249
    1PPC    C4B67757   9.775  25.845   4.626  0.0353 -0.1644  0.0176
    1PPC    NC367758  23.629  19.637   1.980  0.4542 -0.1036  0.2274
    1PPC    PO467759  24.005  19.720   2.097  0.1492  0.1597 -0.4368
    1PPC    GL167760  24.134  19.581   2.525  0.1456 -0.1323 -0.1578
    1PPC    GL267761  24.228  19.362   2.775  0.1464  0.2036 -0.1249
    1PPC    C1B67762  24.356  18.855   2.832  0.0197 -0.2660  0.1782
    1PPC    C2B67763  24.443  18.608   3.168  0.0791  0.0936  0.1124
    1PPC    C3B67764  24.693  18.173   3.316 -0.1430  0.1372 -0.0169
    1PPC    C4B67765  24.890  17.771   3.205  0.1557 -0.0342 -0.3318
    1PPC    NC367766  23.775  15.986   2.569 -0.1109  0.0345 -0.2573
    1PPC    PO467767  24.102  15.788   2.793  0.2439 -0.1851  0.1831
    1PPC    GL167768  23.706  15.853   3.060  0.0925 -0.1230 -0.3170
    1PPC    GL267769  23.726  15.705   3.395  0.1017 -0.1355 -0.0423
    1PPC    C1B67770  23.895  15.514   3.675  0.2286  0.1714 -0.3012
    1PPC    C2B67771  24.017  15.271   3.973 -0.1618  0.1932 -0.1856
    1PPC    C3B67772  24.184  14.905   4.004  0.0297  0.0551 -0.5869
    1PPC    C4B67773  24.609  14.703   4.233  0.1564  0.1199 -0.3940
    1PPC    NC367774  23.805   1.789   3.054  0.0587  0.0427 -0.1096
    1PPC    PO467775  24.240   1.715   3.034  0.0262  0.0899 -0.1123
    1PPC    GL167776  24.162   1.523   3.302 -0.0698  0.2339  0.1062
    1PPC    GL267777  24.092   1.584   3.671 -0.2947 -0.0365  0.0735
    1PPC    C1B67778  23.800   1.608   4.115  0.0252 -0.0612  0.1757
    1PPC    C2B67779  23.766   1.539   4.540 -0.0358 -0.1922  0.1703
    1PPC    C3B67780  23.940   1.800   4.891  0.1206 -0.2939 -0.0227
    1PPC    C4B67781  24.240   1.615   4.788 -0.1694  0.1634  0.4484
    1PPC    NC367782  16.533  27.756   3.676  0.0657 -0.0551  0.2540
    1PPC    PO467783  16.867  27.901   3.503 -0.2289  0.1122  0.0648
    1PPC    GL167784  17.083  27.801   3.847 -0.1002 -0.0080  0.0553
    1PPC    GL267785  17.146  27.694   4.108  0.0160 -0.0613  0.0384
    1PPC    C1B67786  17.367  27.465   4.283  0.1238 -0.0915  0.0050
    1PPC    C2B67787  17.324  27.242   4.646  0.1637  0.3767  0.0406
    1PPC    C3B67788  17.514  27.114   4.879  0.0904  0.0795 -0.0690
    1PPC    C4B67789  17.800  27.065   5.167  0.2191 -0.5208  0.0782
    1PPC    NC367790  25.643  11.975   2.559 -0.0604 -0.0936  0.1921
    1PPC    PO467791  25.158  11.877   2.725 -0.1447 -0.3123  0.0787
    1PPC    GL167792  24.925  11.730   3.057 -0.1613 -0.1202 -0.4326
    1PPC    GL267793  25.062  11.911   3.338 -0.0560  0.0463  0.2783
    1PPC    C1B67794  25.021  11.990   3.755  0.0379  0.1592  0.0609
    1PPC    C2B67795  24.909  12.096   4.166  0.4062 -0.1165 -0.0671
    1PPC    C3B67796  24.563  12.345   4.564  0.1624 -0.0840 -0.1196
    1PPC    C4B67797  24.641  12.510   4.993  0.2720  0.1193  0.1269
    1PPC    NC367798  16.500   7.739   3.204  0.0151 -0.2824  0.0662
    1PPC    PO467799  16.765   7.497   3.582  0.0123 -0.0485  0.1720
    1PPC    GL167800  16.955   7.270   3.832 -0.1087 -0.0703 -0.0973
    1PPC    GL267801  16.923   7.161   4.126  0.2682 -0.2587 -0.1443
    1PPC    C1B67802  16.896   6.971   4.543 -0.0783 -0.2598 -0.0968
    1PPC    C2B67803  17.043   6.634   4.933 -0.1684 -0.1719  0.2192
    1PPC    C3B67804  17.116   6.228   5.164  0.2304 -0.0042  0.1377
    1PPC    C4B67805  17.288   5.945   5.421  0.1088 -0.3178 -0.1061
    1PPC    NC367806  19.448   5.429   3.686  0.0827 -0.3630 -0.3089
    1PPC    PO467807  19.394   4.966   3.577  0.1046  0.0445 -0.0196
    1PPC    GL167808  19.081   4.794   3.721 -0.1602 -0.1183  0.1347
    1PPC    GL267809  18.916   4.500   3.744 -0.0755 -0.0203  0.0629
    1PPC    C1B67810  18.885   4.411   4.136  0.2157  0.0375 -0.0114
    1PPC    C2B67811  18.944   4.326   4.442  0.1713  0.1440 -0.2613
    1PPC    C3B67812  19.218   4.267   4.714 -0.0599 -0.2880 -0.0417
    1PPC    C4B67813  19.553   4.218   5.032  0.0022  0.0776  0.0524
    1PPC    NC367814  11.509  26.876   3.309  0.1067  0.1455  0.3611
    1PPC    PO467815  11.888  26.684   3.388  0.1014  0.0608  0.2170
    1PPC    GL167816  11.715  26.637   3.865 -0.0385  0.3342 -0.0523
    1PPC    GL267817  11.665  26.676   4.219  0.3129  0.0080  0.1569
    1PPC    C1B67818  11.860  26.900   4.552  0.0272 -0.0237  0.1107
    1PPC    C2B67819  11.846  27.100   5.008  0.0149  0.0106  0.0628
    1PPC    C3B67820  11.740  27.024   5.460 -0.2978 -0.1701  0.0774
    1PPC    C4B67821  11.747  26.626   5.693  0.0712 -0.2239 -0.0826
    1PPC    NC367822  20.844   2.099   2.122 -0.0523 -0.1467  0.1486
    1PPC    PO467823  20.935   1.716   2.462 -0.0826 -0.0028  0.2490
    1PPC    GL167824  21.190   1.743   2.773 -0.2443  0.3336 -0.2679
    1PPC    GL267825  21.128   1.742   3.011  0.2013 -0.0270  0.0239
    1PPC    C1B67826  21.494   1.799   3.384 -0.1966 -0.3078  0.3706
    1PPC    C2B67827  21.878   1.868   3.614 -0.2719 -0.1304 -0.2256
    1PPC    C3B67828  22.105   1.911   4.038  0.3153 -0.0412 -0.2432
    1PPC    C4B67829  22.007   1.645   4.424 -0.2967 -0.1159 -0.1027
    1PPC    NC367830  14.348  26.392   3.033 -0.0053 -0.0567  0.3714
    1PPC    PO467831  14.016  26.258   3.264  0.4111  0.1847 -0.1106
    1PPC    GL167832  13.916  26.288   3.597 -0.0676 -0.1213  0.0958
    1PPC    GL267833  13.904  26.102   3.870 -0.1469 -0.4092  0.0294
    1PPC    C1B67834  14.046  25.809   4.058 -0.0671 -0.1060 -0.2502
    1PPC    C2B67835  13.962  25.504   4.513 -0.0509 -0.1519  0.1163
    1PPC    C3B67836  14.031  25.578   4.954  0.2077  0.0372 -0.0340
    1PPC    C4B67837  13.739  25.473   5.321 -0.0291 -0.2555 -0.1021
    1PPC    NC367838  27.258   8.145   1.835  0.1948  0.0009  0.4909
    1PPC    PO467839  27.080   7.880   2.075  0.3567 -0.0490 -0.0764
    1PPC    GL167840  27.048   7.714   2.522 -0.0595 -0.1550 -0.4023
    1PPC    GL267841  27.173   7.721   2.933  0.0843  0.1991  0.3492
    1PPC    C1B67842  27.486   7.592   3.240 -0.1007 -0.1859  0.1796
    1PPC    C2B67843  27.773   7.249   3.442  0.1833  0.0308  0.3599
    1PPC    C3B67844  27.746   7.020   3.859  0.0447 -0.0751  0.2373
    1PPC    C4B67845  27.697   6.948   4.296 -0.1994 -0.6519 -0.3402
    1PPC    NC367846  27.221  21.788   2.243  0.1441 -0.0491 -0.0144
    1PPC    PO467847  26.838  21.749   2.626  0.1480 -0.0173 -0.0505
    1PPC    GL167848  27.019  21.814   3.061 -0.0180 -0.0196  0.1620
    1PPC    GL267849  26.999  21.740   3.373  0.0905 -0.0847 -0.1263
    1PPC    C1B67850  26.713  21.759   3.726 -0.1558 -0.1140  0.1672
    1PPC    C2B67851  26.674  21.725   4.109 -0.0595  0.1529  0.2621
    1PPC    C3B67852  27.009  21.600   4.441 -0.2204  0.1108  0.1200
    1PPC    C4B67853  27.356  21.447   4.345 -0.0082  0.1888 -0.0613
    1PPC    NC367854   9.173   7.549   3.404  0.1218 -0.4724  0.0672
    1PPC    PO467855   8.729   7.388   3.343 -0.4244  0.3236 -0.0785
    1PPC    GL167856   8.969   7.118   3.582  0.0642  0.1371  0.4079
    1PPC    GL267857   9.008   6.963   3.832  0.1393  0.0160 -0.0855
    1PPC    C1B67858   8.944   6.901   4.300  0.1102  0.1978  0.0477
    1PPC    C2B67859   8.976   6.833   4.694 -0.0110  0.1571  0.0065
    1PPC    C3B67860   9.161   6.978   5.035  0.0242  0.0576  0.2411
    1PPC    C4B67861   9.069   7.137   5.443  0.0675 -0.0023  0.0406
    1PPC    NC367862  17.999   1.476   3.558 -0.0909  0.2004  0.0604
    1PPC    PO467863  18.356   1.643   3.323 -0.1216  0.1375  0.2474
    1PPC    GL167864  18.494   1.554   3.690 -0.0055 -0.3844 -0.2068
    1PPC    GL267865  18.653   1.654   3.981 -0.0678  0.2747 -0.1719
    1PPC    C1B67866  18.827   2.018   4.250 -0.0711  0.0332 -0.0852
    1PPC    C2B67867  19.344   2.200   4.125  0.0732  0.0319 -0.1768
    1PPC    C3B67868  19.590   2.525   4.037  0.0067  0.1691  0.4738
    1PPC    C4B67869  19.751   2.980   4.041  0.1294 -0.0912 -0.0725
    1PPC    NC367870  24.374   8.449   3.087 -0.2090 -0.0492 -0.0569
    1PPC    PO467871  24.076   8.789   2.837 -0.0599  0.1893  0.0521
    1PPC    GL167872  24.141   9.044   3.149  0.0116 -0.1944  0.2093
    1PPC    GL267873  24.248   9.145   3.468  0.4062  0.4012 -0.0185
    1PPC    C1B67874  24.373   9.363   3.760  0.0363 -0.1825 -0.2090
    1PPC    C2B67875  24.587   9.297   4.145 -0.1614 -0.0548  0.0839
    1PPC    C3B67876  24.413   8.934   4.362 -0.1288 -0.0258 -0.1795
    1PPC    C4B67877  24.310   8.507   4.506 -0.0056  0.3243  0.3303
    1PPC    NC367878  18.597  24.551   3.425  0.0153  0.1033  0.3761
    1PPC    PO467879  18.301  24.838   3.372 -0.0359  0.0923 -0.0307
    1PPC    GL167880  18.322  24.848   3.790 -0.0270  0.2779  0.0913
    1PPC    GL267881  18.437  24.832   4.075 -0.1245  0.3346 -0.2491
    1PPC    C1B67882  18.678  24.628   4.412 -0.5509  0.1842  0.2294
    1PPC    C2B67883  18.778  24.663   4.861 -0.1858 -0.2127  0.1865
    1PPC    C3B67884  18.641  24.478   5.234 -0.3097  0.1115  0.0709
    1PPC    C4B67885  19.002  24.230   5.400 -0.1766 -0.1381  0.1939
    1PPC    NC367886   5.219  21.806   1.520  0.1206 -0.1513  0.1904
    1PPC    PO467887   4.946  21.985   1.851  0.0448 -0.0485  0.1149
    1PPC    GL167888   4.689  22.005   2.286  0.1231  0.1312 -0.1805
    1PPC    GL267889   4.775  22.091   2.674 -0.1206  0.0190 -0.0519
    1PPC    C1B67890   4.605  21.989   3.087 -0.1315 -0.0231  0.0471
    1PPC    C2B67891   4.377  22.022   3.503 -0.1857 -0.0761 -0.2775
    1PPC    C3B67892   4.577  22.070   3.837 -0.0632 -0.1893  0.1798
    1PPC    C4B67893   4.736  22.180   4.245  0.0795 -0.0571  0.2468
    1PPC    NC367894  25.888  27.649   3.009 -0.2304  0.0386 -0.0132
    1PPC    PO467895  25.574  27.958   3.027 -0.0704  0.0675  0.0144
    1PPC    GL167896  25.645  28.027   3.497 -0.1357  0.0067  0.2849
    1PPC    GL267897  25.778  27.771   3.818  0.0319 -0.0136  0.1833
    1PPC    C1B67898  25.651  27.644   4.192 -0.0430 -0.5128  0.0108
    1PPC    C2B67899  25.917  27.638   4.561  0.0912 -0.0222 -0.0617
    1PPC    C3B67900  26.374  27.847   4.717 -0.1524  0.1112  0.1136
    1PPC    C4B67901  26.542  27.883   5.058  0.0596 -0.3505  0.2975
    1PPC    NC367902   2.935  25.542   2.914 -0.3410  0.1169 -0.0562
    1PPC    PO467903   2.741  25.247   3.165 -0.3936  0.1353  0.0340
    1PPC    GL167904   2.658  24.874   3.264 -0.4432  0.2978 -0.3077
    1PPC    GL267905   2.896  24.782   3.440  0.3036 -0.0898  0.0552
    1PPC    C1B67906   2.811  24.584   3.828 -0.1267 -0.0803  0.0776
    1PPC    C2B67907   2.855  24.212   3.987 -0.0001  0.3783  0.0991
    1PPC    C3B67908   3.122  24.186   4.411 -0.2033  0.0467 -0.1456
    1PPC    C4B67909   3.234  24.572   4.714 -0.1138  0.1211 -0.1283
    1PPC    NC367910   8.453  17.866   2.524 -0.2018 -0.1013 -0.2397
    1PPC    PO467911   8.152  17.559   2.467  0.4417  0.0296 -0.3216
    1PPC    GL167912   7.871  17.453   2.813  0.0536 -0.2431 -0.4002
    1PPC    GL267913   7.831  17.596   3.017  0.1567 -0.1231 -0.0507
    1PPC    C1B67914   7.630  17.526   3.399  0.0537  0.0009 -0.2073
    1PPC    C2B67915   7.450  17.584   3.728  0.1331  0.1963  0.0078
    1PPC    C3B67916   7.328  17.475   4.132  0.0707  0.3871  0.0253
    1PPC    C4B67917   7.368  17.267   4.426 -0.1236 -0.3203 -0.1950
    1PPC    NC367918   1.336  23.870   1.990  0.1205 -0.0682  0.0251
    1PPC    PO467919   1.331  23.749   2.376 -0.1198 -0.0709  0.1818
    1PPC    GL167920   1.440  24.042   2.720 -0.1744  0.0329  0.0338
    1PPC    GL267921   1.522  24.372   3.017 -0.0661  0.1890  0.1680
    1PPC    C1B67922   1.521  24.325   3.532 -0.2476 -0.1995  0.1965
    1PPC    C2B67923   1.496  24.139   3.896  0.1525 -0.0874 -0.1243
    1PPC    C3B67924   1.679  24.022   4.298 -0.3161 -0.0138  0.3588
    1PPC    C4B67925   1.775  23.731   4.652  0.1081 -0.0362  0.0662
    1PPC    NC367926  22.799   1.679   2.031 -0.1352  0.5792  0.0433
    1PPC    PO467927  23.032   1.546   2.358 -0.3207  0.2608 -0.2527
    1PPC    GL167928  22.952   1.454   2.852  0.2421  0.4106  0.0028
    1PPC    GL267929  22.875   1.494   3.192  0.0831  0.1062 -0.3000
    1PPC    C1B67930  22.863   1.439   3.620  0.2118  0.0251  0.0624
    1PPC    C2B67931  22.956   1.309   4.015 -0.1250 -0.1274  0.1304
    1PPC    C3B67932  23.032   1.202   4.439 -0.1229  0.1501  0.4415
    1PPC    C4B67933  23.273   0.865   4.614 -0.2807 -0.0194 -0.1513
    1PPC    NC367934   0.418   0.413   3.244  0.0953  0.0420 -0.4367
    1PPC    PO467935   0.119   0.103   3.382 -0.2603  0.1037 -0.1137
    1PPC    GL167936   0.059  -0.070   3.775 -0.1418 -0.1638  0.0488
    1PPC    GL267937   0.136  -0.157   4.033 -0.1784  0.0538  0.2910
    1PPC    C1B67938   0.139  -0.155   4.498 -0.1535 -0.0799 -0.2204
    1PPC    C2B67939   0.527  -0.092   4.859  0.4721 -0.0066  0.2492
    1PPC    C3B67940   0.892  -0.377   5.046  0.2922 -0.3281  0.1600
    1PPC    C4B67941   0.812  -0.349   5.491 -0.2030 -0.0925 -0.0046
    1PPC    NC367942  27.677  19.466   2.215 -0.0515  0.1021  0.2617
    1PPC    PO467943  27.632  19.187   2.512 -0.0148 -0.0693 -0.0455
    1PPC    GL167944  27.964  19.425   2.666 -0.3364  0.3679  0.4595
    1PPC    GL267945  28.097  19.438   2.983 -0.0494 -0.0092  0.1277
    1PPC    C1B67946  28.342  19.431   3.359  0.0619  0.0613  0.0635
    1PPC    C2B67947  28.559  19.711   3.545 -0.0028  0.1326 -0.0844
    1PPC    C3B67948  28.468  19.989   3.890 -0.0033 -0.0223  0.2732
    1PPC    C4B67949  28.239  20.061   4.210  0.0985 -0.4158 -0.0767
    1PPC    NC367950  12.492  23.117   3.511 -0.0699 -0.1420  0.0778
    1PPC    PO467951  12.497  22.882   3.199  0.0319 -0.0663 -0.0800
    1PPC    GL167952  12.088  22.849   3.376 -0.0702 -0.1197 -0.0163
    1PPC    GL267953  12.092  22.776   3.795  0.5374 -0.2012  0.1503
    1PPC    C1B67954  11.800  22.830   4.147 -0.2872 -0.1363 -0.0370
    1PPC    C2B67955  11.478  22.872   4.370 -0.0640  0.2203 -0.3525
    1PPC    C3B67956  11.320  23.045   4.720 -0.0008  0.0653  0.2576
    1PPC    C4B67957  11.418  23.052   5.185  0.0533  0.1155 -0.0120
    1PPC    NC367958   4.422  28.098   2.654 -0.0955 -0.1442  0.1817
    1PPC    PO467959   4.831  27.928   2.988  0.3146 -0.0294 -0.0788
    1PPC    GL167960   4.781  27.842   3.432  0.2635 -0.1049  0.3630
    1PPC    GL267961   4.676  27.712   3.671 -0.0190 -0.0292 -0.0561
    1PPC    C1B67962   4.647  27.363   3.929 -0.1002  0.0811 -0.0101
    1PPC    C2B67963   4.484  27.355   4.251 -0.1314 -0.1200  0.0171
    1PPC    C3B67964   4.188  27.560   4.510 -0.4199  0.1806  0.1364
    1PPC    C4B67965   4.283  27.768   4.830  0.0641 -0.0853 -0.0212
    1PPC    NC367966  14.096  25.128   2.898  0.0173  0.0841 -0.0295
    1PPC    PO467967  14.180  24.807   3.243  0.1468  0.2158 -0.1581
    1PPC    GL167968  14.305  24.808   3.644  0.1721  0.2429  0.0670
    1PPC    GL267969  14.496  24.852   4.005 -0.0251  0.0701  0.2152
    1PPC    C1B67970  14.658  24.949   4.426  0.0719 -0.1269 -0.0369
    1PPC    C2B67971  14.667  24.832   4.812  0.1245  0.2040  0.1312
    1PPC    C3B67972  14.284  24.786   5.031  0.0210  0.1348 -0.2257
    1PPC    C4B67973  13.971  25.050   5.159 -0.0621  0.0635  0.0119
    1PPC    NC367974  28.439  13.994   1.658  0.0471  0.1365  0.0225
    1PPC    PO467975  28.636  14.407   1.943  0.4988 -0.2329  0.1968
    1PPC    GL167976  28.587  14.321   2.426 -0.3039 -0.4053  0.0519
    1PPC    GL267977  28.529  14.353   2.812 -0.0909 -0.1809  0.0306
    1PPC    C1B67978  28.385  14.398   3.251  0.1370 -0.0314  0.0284
    1PPC    C2B67979  28.149  14.305   3.696  0.2984 -0.1760  0.1392
    1PPC    C3B67980  28.014  14.556   3.825 -0.0220  0.0104  0.1011
    1PPC    C4B67981  27.686  14.817   3.776  0.0048  0.0647  0.0560
    1PPC    NC367982   1.218  14.528   1.949 -0.0813  0.2003 -0.1583
    1PPC    PO467983   1.545  14.139   2.117 -0.0508 -0.0266 -0.0528
    1PPC    GL167984   1.561  14.159   2.562 -0.0151 -0.1649 -0.2571
    1PPC    GL267985   1.634  14.174   2.874 -0.1562 -0.1172 -0.0207
    1PPC    C1B67986   1.702  13.926   3.268 -0.1900 -0.0187 -0.0676
    1PPC    C2B67987   1.640  13.771   3.777  0.1004  0.3510 -0.1597
    1PPC    C3B67988   1.483  13.967   4.267  0.0390  0.0388  0.0371
    1PPC    C4B67989   1.652  13.870   4.668  0.1990 -0.1276  0.3137
    1PPC    NC367990  19.729  19.666   3.368 -0.0561  0.1309 -0.1746
    1PPC    PO467991  20.163  19.616   3.558 -0.4626 -0.1935  0.2322
    1PPC    GL167992  20.512  19.904   3.603  0.0485  0.0614  0.0779
    1PPC    GL267993  20.525  20.142   3.713 -0.1474 -0.0482 -0.0179
    1PPC    C1B67994  20.871  20.226   3.968  0.1366  0.1332  0.1316
    1PPC    C2B67995  20.948  20.294   4.369  0.1332  0.1990  0.0631
    1PPC    C3B67996  21.072  20.188   4.730  0.0179  0.1982 -0.0111
    1PPC    C4B67997  21.122  19.945   4.961  0.1824  0.4757 -0.1092
    1PPC    NC367998   0.306  26.546   2.680 -0.0228  0.2615 -0.2603
    1PPC    PO467999   0.286  26.129   2.841  0.2914  0.1929 -0.1544
    1PPC    GL168000   0.427  25.983   3.310  0.1328 -0.1905  0.1434
    1PPC    GL268001   0.552  26.053   3.470 -0.1684  0.2331  0.0621
    1PPC    C1B68002   0.546  26.052   3.903 -0.1517  0.1295 -0.2598
    1PPC    C2B68003   0.806  25.847   4.148 -0.1442  0.1079  0.2069
    1PPC    C3B68004   0.754  25.768   4.629 -0.1227  0.0261  0.1369
    1PPC    C4B68005   0.786  25.966   4.995 -0.2184 -0.1695 -0.0158
    1PPC    NC368006  21.634   3.368   2.768  0.1076  0.2935 -0.0492
    1PPC    PO468007  21.456   2.977   2.697 -0.1140 -0.1997  0.0184
    1PPC    GL168008  21.384   2.734   3.190 -0.1068 -0.0321  0.1734
    1PPC    GL268009  21.524   2.734   3.468  0.2908 -0.0136 -0.1654
    1PPC    C1B68010  21.786   2.890   3.704  0.0819  0.2509 -0.0326
    1PPC    C2B68011  22.078   2.807   3.945  0.4802  0.0973 -0.0835
    1PPC    C3B68012  22.351   3.061   4.197 -0.0079  0.2660  0.1735
    1PPC    C4B68013  22.574   3.404   4.157 -0.1214  0.0730  0.1245
    1PPC    NC368014   2.099   4.717   3.002 -0.1962 -0.0089 -0.0273
    1PPC    PO468015   2.213   4.232   3.161  0.0262  0.0250  0.3100
    1PPC    GL168016   2.355   4.404   3.422 -0.1832  0.1759 -0.1868
    1PPC    GL268017   2.500   4.330   3.613  0.3489 -0.0804 -0.0836
    1PPC    C1B68018   2.331   4.296   3.953  0.0916 -0.0961 -0.0207
    1PPC    C2B68019   1.974   4.335   4.233  0.1923  0.2180  0.1940
    1PPC    C3B68020   1.963   4.587   4.558  0.2438  0.1044 -0.0573
    1PPC    C4B68021   2.226   4.738   4.823 -0.2048 -0.0233  0.0059
    1PPC    NC368022   5.092   2.683   2.937  0.1010  0.0924 -0.0445
    1PPC    PO468023   4.867   2.313   3.083 -0.2045 -0.1197 -0.1516
    1PPC    GL168024   5.078   2.076   3.344 -0.1483 -0.1630  0.0381
    1PPC    GL268025   5.227   2.058   3.618 -0.0789 -0.1613 -0.2802
    1PPC    C1B68026   5.339   1.911   4.063 -0.1095 -0.1278  0.2180
    1PPC    C2B68027   5.382   1.745   4.428  0.0805  0.1087 -0.1886
    1PPC    C3B68028   5.667   1.703   4.626  0.2452 -0.1328 -0.3052
    1PPC    C4B68029   5.976   1.920   4.877 -0.0858  0.0700  0.0130
    1PPC    NC368030   5.198  21.525   2.106  0.0400 -0.1685 -0.2047
    1PPC    PO468031   5.674  21.746   2.090  0.1231 -0.2024  0.1115
    1PPC    GL168032   5.614  21.958   2.514  0.1273  0.1123 -0.2098
    1PPC    GL268033   5.817  22.178   2.821  0.1651 -0.2245  0.2506
    1PPC    C1B68034   5.999  22.335   3.110 -0.0230  0.0108  0.3754
    1PPC    C2B68035   6.361  22.361   3.326  0.0819  0.0811 -0.2499
    1PPC    C3B68036   6.450  22.570   3.799  0.3197 -0.3093 -0.0195
    1PPC    C4B68037   6.601  22.307   4.236  0.0530  0.1100 -0.0835
    1PPC    NC368038  11.503   5.983   3.534 -0.1303  0.1502  0.3142
    1PPC    PO468039  11.743   6.294   3.425  0.0276  0.0045 -0.0301
    1PPC    GL168040  11.987   6.180   3.781  0.1617  0.0422 -0.2179
    1PPC    GL268041  12.116   6.214   4.041  0.1459  0.0509  0.0637
    1PPC    C1B68042  12.268   6.446   4.390  0.0054  0.0232  0.1290
    1PPC    C2B68043  12.384   6.464   4.797  0.0878 -0.0093 -0.0292
    1PPC    C3B68044  12.434   6.531   5.269 -0.0966 -0.0617  0.0665
    1PPC    C4B68045  12.598   6.671   5.494 -0.0500  0.0462 -0.0079
    1PPC    NC368046  28.056  27.476   2.619 -0.0830 -0.2782 -0.0637
    1PPC    PO468047  28.020  27.088   2.854 -0.0675  0.3124  0.0664
    1PPC    GL168048  27.694  26.925   3.194 -0.2110 -0.4732 -0.3727
    1PPC    GL268049  27.809  26.706   3.550  0.3037 -0.1627  0.0143
    1PPC    C1B68050  27.721  26.548   3.922  0.2304  0.1765  0.0762
    1PPC    C2B68051  27.806  26.264   4.194  0.0931  0.1336 -0.0879
    1PPC    C3B68052  27.984  26.067   4.524 -0.0405  0.2087  0.0694
    1PPC    C4B68053  27.988  25.745   4.793  0.0313  0.1469 -0.1932
    1PPC    NC368054   7.403  11.874   2.585  0.2330  0.0627  0.0936
    1PPC    PO468055   7.137  12.230   2.760  0.1570 -0.3209 -0.0004
    1PPC    GL168056   7.347  12.303   3.219 -0.0385 -0.3839 -0.1533
    1PPC    GL268057   7.391  12.224   3.585 -0.2765 -0.1330  0.1804
    1PPC    C1B68058   7.460  12.263   3.998  0.1417  0.1385 -0.1194
    1PPC    C2B68059   7.294  12.525   4.403  0.0355 -0.0373  0.2762
    1PPC    C3B68060   7.140  12.849   4.533 -0.0028 -0.3707 -0.1175
    1PPC    C4B68061   7.402  13.250   4.592  0.2701 -0.0047  0.0480
    1PPC    NC368062   5.039  17.438   1.575 -0.3859 -0.2024  0.5532
    1PPC    PO468063   4.807  17.720   1.797 -0.0591  0.0494 -0.1171
    1PPC    GL168064   4.902  17.661   2.143  0.0789 -0.0511 -0.1106
    1PPC    GL268065   4.805  17.673   2.457  0.0884 -0.1657  0.0167
    1PPC    C1B68066   4.775  17.793   2.916 -0.3566  0.1442  0.1223
    1PPC    C2B68067   4.667  17.682   3.297 -0.2515 -0.0284 -0.3895
    1PPC    C3B68068   4.336  17.501   3.608  0.1000  0.4266 -0.1584
    1PPC    C4B68069   4.417  17.037   3.808  0.0647  0.4235  0.1876
    1PPC    NC368070  23.304   3.882   2.471  0.1318  0.0863  0.3072
    1PPC    PO468071  23.080   3.787   2.851 -0.1348 -0.0435  0.1747
    1PPC    GL168072  23.149   3.564   3.204  0.0180  0.1032 -0.2597
    1PPC    GL268073  23.276   3.599   3.514  0.2541 -0.1511 -0.0081
    1PPC    C1B68074  23.388   3.477   3.965  0.2509  0.2365  0.0900
    1PPC    C2B68075  23.662   3.323   4.317  0.0575  0.0081  0.0625
    1PPC    C3B68076  23.809   3.240   4.593  0.0004  0.0470 -0.1167
    1PPC    C4B68077  24.077   3.332   4.974 -0.1023  0.1658  0.0051
    1PPC    NC368078   2.637   7.312   3.430  0.0564  0.3032  0.2318
    1PPC    PO468079   2.972   6.980   3.296 -0.0407 -0.3499  0.0067
    1PPC    GL168080   2.606   6.849   3.570  0.4481 -0.0697  0.0946
    1PPC    GL268081   2.389   6.606   3.558  0.3300 -0.1495 -0.1606
    1PPC    C1B68082   2.280   6.150   3.683  0.2267  0.1981  0.0377
    1PPC    C2B68083   2.514   5.722   3.809 -0.2503 -0.0144  0.0451
    1PPC    C3B68084   2.713   5.271   3.997 -0.1148  0.3159  0.0708
    1PPC    C4B68085   3.056   5.096   3.773 -0.1428  0.2068  0.1034
    1PPC    NC368086   0.681   4.781   2.335  0.1044  0.1112  0.0302
    1PPC    PO468087   0.776   4.474   2.525 -0.0932 -0.0076  0.0781
    1PPC    GL168088   0.594   4.208   2.860  0.1870  0.0776 -0.1949
    1PPC    GL268089   0.551   4.199   3.181  0.0982  0.2678  0.2924
    1PPC    C1B68090   0.624   4.126   3.610 -0.1598  0.0397  0.1197
    1PPC    C2B68091   0.313   3.914   3.821 -0.0393 -0.1497 -0.0286
    1PPC    C3B68092   0.228   3.830   4.274 -0.0029  0.0343 -0.2554
    1PPC    C4B68093   0.293   3.884   4.698 -0.0288 -0.0587  0.0333
    1PPC    NC368094   2.096  14.700   2.178 -0.2540  0.1216 -0.1406
    1PPC    PO468095   2.247  14.765   2.601  0.2996  0.3867  0.0012
    1PPC    GL168096   2.160  14.937   3.054  0.0564  0.1942 -0.0088
    1PPC    GL268097   1.842  14.930   3.200  0.0312 -0.1383  0.3808
    1PPC    C1B68098   1.624  14.531   3.325 -0.1061 -0.0768  0.0851
    1PPC    C2B68099   1.547  14.268   3.773  0.0753  0.0553 -0.0045
    1PPC    C3B68100   1.204  13.968   3.766  0.1348  0.0677 -0.1978
    1PPC    C4B68101   0.810  13.846   3.458  0.3236 -0.1743  0.4515
    1PPC    NC368102   3.608   5.199   3.368 -0.0770  0.0824 -0.0278
    1PPC    PO468103   3.727   4.885   3.085  0.1923 -0.0649  0.0730
    1PPC    GL168104   3.656   4.443   3.288  0.1526 -0.0099  0.4302
    1PPC    GL268105   3.386   4.404   3.501  0.1313  0.1019  0.2028
    1PPC    C1B68106   3.204   4.630   3.894 -0.1286  0.0496  0.0338
    1PPC    C2B68107   3.062   4.798   4.380  0.0941  0.1392 -0.1056
    1PPC    C3B68108   2.783   5.150   4.519 -0.0789 -0.2374 -0.0445
    1PPC    C4B68109   2.298   5.113   4.418  0.0944 -0.1526 -0.1582
    1PPC    NC368110   7.642  12.544   2.928  0.0152  0.2943  0.1160
    1PPC    PO468111   7.995  12.301   2.846  0.1013  0.2552  0.0370
    1PPC    GL168112   8.099  12.642   3.040 -0.2732 -0.2694  0.1641
    1PPC    GL268113   8.105  12.816   3.312  0.0046  0.0169  0.0262
    1PPC    C1B68114   8.364  12.816   3.645 -0.1561 -0.0344  0.0086
    1PPC    C2B68115   8.463  12.860   4.065  0.1775  0.1096  0.1538
    1PPC    C3B68116   8.420  12.865   4.501 -0.0794  0.0461  0.0931
    1PPC    C4B68117   8.615  13.008   4.982 -0.3389  0.1194 -0.0179
    1PPC    NC368118   2.787  10.370   2.280 -0.0588  0.2611 -0.0427
    1PPC    PO468119   2.772  10.223   2.740 -0.1622 -0.0430 -0.1101
    1PPC    GL168120   2.604  10.505   3.070 -0.0892 -0.3167 -0.1090
    1PPC    GL268121   2.586  10.736   3.206  0.1596 -0.1714  0.2352
    1PPC    C1B68122   2.292  10.708   3.582  0.0951 -0.0659  0.0056
    1PPC    C2B68123   2.027  10.716   3.979 -0.1130 -0.0371 -0.0635
    1PPC    C3B68124   1.730  10.379   4.223  0.1330 -0.0635 -0.0987
    1PPC    C4B68125   1.479  10.362   3.872  0.2175 -0.2265  0.2405
    1PPC    NC368126  16.539  23.238   2.984 -0.1553  0.1694 -0.1063
    1PPC    PO468127  16.487  23.469   3.270  0.1885  0.3073 -0.0685
    1PPC    GL168128  16.666  23.459   3.746  0.1592  0.0993  0.3197
    1PPC    GL268129  16.700  23.599   4.024 -0.0675  0.0707 -0.0109
    1PPC    C1B68130  16.916  23.533   4.378 -0.0775  0.0885  0.2279
    1PPC    C2B68131  17.022  23.812   4.702 -0.2070 -0.0268 -0.0363
    1PPC    C3B68132  17.314  24.006   4.999  0.1669  0.0324 -0.2841
    1PPC    C4B68133  17.472  23.720   5.359  0.3998 -0.1944  0.3024
    1PPC    NC368134  17.980  26.527   3.839 -0.1948  0.0055  0.1468
    1PPC    PO468135  17.518  26.698   3.738 -0.0978 -0.2350  0.3654
    1PPC    GL168136  17.332  27.090   3.929  0.0659  0.1556  0.3053
    1PPC    GL268137  17.053  27.147   4.125  0.1751  0.0715 -0.2997
    1PPC    C1B68138  16.842  27.230   4.552  0.4243 -0.3164  0.1993
    1PPC    C2B68139  16.934  27.291   5.072 -0.4094 -0.1931 -0.2912
    1PPC    C3B68140  17.078  27.632   5.477 -0.1803  0.0679 -0.1898
    1PPC    C4B68141  16.860  27.940   5.713  0.0076 -0.0399  0.3036
    1PPC    NC368142   8.918  22.167   2.509 -0.0334 -0.3522  0.0946
    1PPC    PO468143   8.405  22.156   2.344  0.0797 -0.0598 -0.2456
    1PPC    GL168144   8.029  22.082   2.611 -0.0553 -0.0226 -0.0835
    1PPC    GL268145   7.835  21.946   2.914 -0.1739 -0.1691 -0.1285
    1PPC    C1B68146   7.826  21.928   3.341 -0.0074 -0.0333  0.3633
    1PPC    C2B68147   7.925  21.892   3.821 -0.1814  0.1757  0.1529
    1PPC    C3B68148   7.884  21.824   4.363  0.3348 -0.1681  0.0648
    1PPC    C4B68149   7.928  21.685   4.773 -0.2605 -0.3588 -0.2107
    1PPC    NC368150  20.537  25.095   2.781  0.0185 -0.1029  0.2398
    1PPC    PO468151  20.899  25.343   3.070 -0.1033 -0.3515 -0.1815
    1PPC    GL168152  20.712  25.278   3.374  0.1500  0.1231  0.0279
    1PPC    GL268153  20.728  25.122   3.734  0.0357  0.1887 -0.0006
    1PPC    C1B68154  20.622  25.124   4.151  0.0869  0.0544  0.1367
    1PPC    C2B68155  20.259  25.096   4.386  0.2244 -0.3954 -0.1014
    1PPC    C3B68156  20.091  25.021   4.679  0.2902 -0.1659 -0.3009
    1PPC    C4B68157  20.226  24.966   5.080  0.0507 -0.0012 -0.0301
    1PPC    NC368158   0.322  22.086   2.747 -0.3038  0.0300  0.0567
    1PPC    PO468159   0.059  21.855   2.409 -0.0837 -0.4226 -0.3601
    1PPC    GL168160   0.092  21.653   2.769  0.1243 -0.0155  0.0630
    1PPC    GL268161   0.255  21.455   2.974 -0.1315  0.0556  0.0839
    1PPC    C1B68162   0.410  21.130   3.182  0.1452 -0.2830 -0.2846
    1PPC    C2B68163   0.656  21.074   3.519  0.0753  0.1036 -0.0697
    1PPC    C3B68164   0.783  21.004   3.963 -0.3435  0.0744  0.2755
    1PPC    C4B68165   0.997  20.648   4.092 -0.1926  0.1854  0.2226
    1PPC    NC368166  15.249   7.812   2.918 -0.0966 -0.0581 -0.1253
    1PPC    PO468167  15.099   7.521   3.334  0.1672 -0.2426 -0.1069
    1PPC    GL168168  15.026   7.618   3.868  0.2497  0.2145 -0.1711
    1PPC    GL268169  15.107   7.626   4.219 -0.1082  0.0099  0.0258
    1PPC    C1B68170  15.091   7.816   4.632  0.0846 -0.2782 -0.3518
    1PPC    C2B68171  15.240   8.212   4.809 -0.0714  0.0470 -0.0871
    1PPC    C3B68172  15.591   8.060   4.493  0.0846 -0.1561 -0.1771
    1PPC    C4B68173  15.931   8.038   4.193 -0.2205  0.5275  0.1314
    1PPC    NC368174  22.690  28.088   2.407  0.2094  0.1982  0.2124
    1PPC    PO468175  22.208  28.314   2.425  0.0923  0.1685  0.1014
    1PPC    GL168176  22.177  28.404   2.842  0.1232 -0.1103 -0.3135
    1PPC    GL268177  22.214  28.255   3.064 -0.2641 -0.3064 -0.1182
    1PPC    C1B68178  22.524  28.189   3.408  0.1121  0.0304  0.1366
    1PPC    C2B68179  22.722  28.276   3.724 -0.1749  0.1888 -0.1397
    1PPC    C3B68180  22.843  28.142   4.191  0.1280  0.4534 -0.2910
    1PPC    C4B68181  23.154  27.936   4.422 -0.1214 -0.0115  0.1580
    1PPC    NC368182   2.885   5.022   2.389  0.0295  0.0544 -0.1091
    1PPC    PO468183   2.958   4.803   2.784 -0.1034  0.0072  0.0006
    1PPC    GL168184   3.014   4.580   3.170 -0.1609  0.1967  0.0868
    1PPC    GL268185   2.893   4.683   3.503  0.2000 -0.0111  0.6579
    1PPC    C1B68186   2.676   4.645   3.907 -0.1387 -0.0240 -0.2440
    1PPC    C2B68187   2.511   4.649   4.355 -0.2122 -0.1283 -0.1434
    1PPC    C3B68188   2.394   4.319   4.626 -0.0448  0.0751 -0.2756
    1PPC    C4B68189   2.308   3.941   4.942 -0.0308  0.4131  0.2306
    1PPC    NC368190  26.267  11.595   2.159  0.0028  0.2907 -0.1299
    1PPC    PO468191  26.634  11.730   2.246  0.1456 -0.0289 -0.3632
    1PPC    GL168192  26.385  11.785   2.658 -0.1864  0.1070  0.1571
    1PPC    GL268193  26.440  11.743   2.908  0.0224  0.0778  0.1097
    1PPC    C1B68194  26.357  11.686   3.264  0.0127  0.0113  0.1717
    1PPC    C2B68195  26.204  11.656   3.703 -0.2232  0.0911 -0.0473
    1PPC    C3B68196  25.808  11.704   3.910  0.0591  0.0024  0.0437
    1PPC    C4B68197  25.432  12.000   4.086 -0.4472 -0.3602 -0.1132
    1PPC    NC368198   2.768  23.052   1.990  0.0237 -0.2782  0.1583
    1PPC    PO468199   2.357  23.039   2.227  0.2227  0.0888  0.0965
    1PPC    GL168200   2.045  23.239   2.439 -0.2571 -0.2005 -0.0686
    1PPC    GL268201   2.088  23.375   2.658  0.2158 -0.2912  0.0290
    1PPC    C1B68202   1.920  23.452   3.063 -0.2379  0.1072 -0.0539
    1PPC    C2B68203   1.584  23.660   3.255 -0.2129  0.0431  0.4023
    1PPC    C3B68204   1.254  23.803   3.587 -0.0864 -0.0579 -0.1288
    1PPC    C4B68205   0.962  24.093   3.727 -0.3192  0.2590  0.3987
    1PPC    NC368206  28.684  20.589   2.142  0.1236 -0.1840 -0.0623
    1PPC    PO468207  29.059  20.805   2.211  0.3635 -0.0424 -0.1314
    1PPC    GL168208  29.143  21.036   2.606  0.2111  0.0233  0.3524
    1PPC    GL268209  29.395  21.214   2.709 -0.2385 -0.0763 -0.1765
    1PPC    C1B68210  29.632  21.306   3.045  0.0418  0.2300  0.1301
    1PPC    C2B68211  29.800  21.274   3.384  0.0232 -0.0994  0.2586
    1PPC    C3B68212  29.771  21.388   3.724 -0.3970  0.6779  0.1966
    1PPC    C4B68213  29.996  21.549   4.145 -0.2158  0.0140 -0.1269
    1PPC    NC368214  19.931   8.570   2.698 -0.1505 -0.4089  0.0673
    1PPC    PO468215  19.785   8.972   2.522 -0.1863 -0.1045 -0.0064
    1PPC    GL168216  19.679   9.002   2.964 -0.3259  0.1434  0.5160
    1PPC    GL268217  19.452   8.912   3.263 -0.0201  0.0644  0.1392
    1PPC    C1B68218  19.509   9.091   3.616 -0.0039  0.1310 -0.0424
    1PPC    C2B68219  19.119   9.056   3.936 -0.0521 -0.0663  0.2637
    1PPC    C3B68220  19.041   8.865   4.248  0.2603 -0.0300 -0.0748
    1PPC    C4B68221  18.823   8.531   4.465  0.0086 -0.1907  0.1403
    1PPC    NC368222  26.106   7.887   2.612  0.0185  0.3779 -0.3008
    1PPC    PO468223  26.041   7.513   2.830 -0.2307  0.2424 -0.2746
    1PPC    GL168224  26.087   7.858   3.166 -0.1547 -0.1839  0.0909
    1PPC    GL268225  25.999   8.060   3.595  0.2187 -0.0123  0.2291
    1PPC    C1B68226  26.185   8.298   3.808 -0.2269  0.1472 -0.1408
    1PPC    C2B68227  26.580   8.448   3.859  0.2587 -0.0876  0.1424
    1PPC    C3B68228  26.769   8.755   3.587 -0.2591 -0.0884  0.0284
    1PPC    C4B68229  27.020   9.136   3.401  0.1491 -0.2584  0.0405
    1PPC    NC368230  25.423   0.296   2.743 -0.2765 -0.1212  0.0221
    1PPC    PO468231  25.364   0.247   3.123  0.0842 -0.0458  0.0161
    1PPC    GL168232  25.208   0.041   3.453  0.1084 -0.0132 -0.1115
    1PPC    GL268233  25.081   0.102   3.646 -0.3945  0.0354 -0.2150
    1PPC    C1B68234  24.833   0.381   3.937  0.0354 -0.0267  0.0068
    1PPC    C2B68235  24.768   0.402   4.319 -0.2832 -0.1650 -0.2880
    1PPC    C3B68236  24.713   0.454   4.640  0.3018 -0.3938 -0.0638
    1PPC    C4B68237  24.626   0.518   5.102  0.0910  0.1212  0.0467
    1PPC    NC368238  26.159  19.585   2.422  0.0463  0.0695  0.1396
    1PPC    PO468239  25.907  19.842   2.463 -0.2743  0.2083  0.1220
    1PPC    GL168240  25.916  19.720   2.933 -0.1245  0.3191  0.3725
    1PPC    GL268241  25.799  19.431   3.166 -0.0238 -0.1118  0.2068
    1PPC    C1B68242  26.019  19.031   3.313  0.1370 -0.1114  0.1818
    1PPC    C2B68243  26.203  18.916   3.693 -0.0290  0.1621 -0.1015
    1PPC    C3B68244  25.988  18.871   4.066 -0.4680 -0.0783  0.3817
    1PPC    C4B68245  25.808  18.900   4.497  0.0887  0.0714 -0.0698
    1PPC    NC368246  25.719  12.000   1.993 -0.0374 -0.0341  0.0173
    1PPC    PO468247  25.775  11.575   2.232 -0.0282 -0.0144 -0.2098
    1PPC    GL168248  25.980  11.570   2.604  0.0864  0.0530 -0.1313
    1PPC    GL268249  26.006  11.547   2.910  0.1159 -0.1740 -0.0327
    1PPC    C1B68250  25.872  11.505   3.325 -0.0844 -0.2537  0.2858
    1PPC    C2B68251  25.622  11.272   3.566 -0.0052  0.0216 -0.2908
    1PPC    C3B68252  25.568  11.254   3.961 -0.1301 -0.1793 -0.1690
    1PPC    C4B68253  25.237  11.531   4.205 -0.0109 -0.1071 -0.0897
    1PPC    NC368254   4.251   6.532   2.973  0.0106 -0.0488  0.0071
    1PPC    PO468255   4.223   6.400   3.379 -0.2161 -0.1488 -0.0149
    1PPC    GL168256   3.983   6.814   3.345 -0.0058 -0.1968 -0.2623
    1PPC    GL268257   3.754   6.965   3.596 -0.1520 -0.3148  0.0694
    1PPC    C1B68258   3.741   7.328   3.868 -0.1928  0.0436 -0.1591
    1PPC    C2B68259   3.469   7.469   4.208 -0.3310 -0.0005  0.5081
    1PPC    C3B68260   3.204   7.307   4.536  0.1548 -0.1047 -0.3673
    1PPC    C4B68261   2.929   7.215   4.870  0.1151  0.0495  0.0141
    1PPC    NC368262  15.745   2.138   3.811  0.2167  0.0336  0.1068
    1PPC    PO468263  15.413   1.834   3.827  0.0001  0.0026 -0.0374
    1PPC    GL168264  15.386   2.119   4.150  0.1898 -0.3583  0.1102
    1PPC    GL268265  15.279   2.136   4.492  0.1503  0.0145  0.0152
    1PPC    C1B68266  15.209   2.306   4.971 -0.0467  0.0526 -0.0118
    1PPC    C2B68267  14.886   2.423   5.364 -0.0779  0.1387  0.0310
    1PPC    C3B68268  14.937   2.589   5.735 -0.0737  0.0295 -0.0292
    1PPC    C4B68269  14.836   2.897   6.105 -0.3060 -0.2879 -0.0118
    1PPC    NC368270  17.210  19.979   2.874  0.0353 -0.0590  0.0211
    1PPC    PO468271  17.276  20.240   3.133 -0.2137 -0.1950  0.2828
    1PPC    GL168272  17.527  20.300   3.469 -0.2834  0.0233  0.1234
    1PPC    GL268273  17.512  20.308   3.736  0.1393  0.1418 -0.0567
    1PPC    C1B68274  17.599  20.470   4.093 -0.0039 -0.1160  0.0534
    1PPC    C2B68275  17.760  20.559   4.566 -0.3200 -0.1023 -0.1779
    1PPC    C3B68276  18.076  20.542   4.813  0.0065 -0.1083 -0.0554
    1PPC    C4B68277  18.494  20.437   4.997  0.1659 -0.0592  0.4122
    1PPC    NC368278   2.417  26.536   2.852  0.1379  0.0338  0.3175
    1PPC    PO468279   2.595  26.227   2.582 -0.0645 -0.3117 -0.1983
    1PPC    GL168280   2.743  26.023   2.893 -0.0432 -0.1548 -0.0303
    1PPC    GL268281   2.769  25.961   3.262 -0.0949 -0.2689 -0.1079
    1PPC    C1B68282   3.039  25.896   3.551 -0.0043 -0.0407 -0.4149
    1PPC    C2B68283   3.219  25.784   3.884  0.1747  0.0873 -0.4035
    1PPC    C3B68284   3.201  25.850   4.268  0.1698  0.2022  0.0334
    1PPC    C4B68285   3.151  25.828   4.735  0.0955  0.1386 -0.0491
    1PPC    NC368286  11.521   4.233   3.208  0.0835 -0.2483  0.0001
    1PPC    PO468287  11.391   4.198   3.684 -0.3017 -0.3588 -0.0890
    1PPC    GL168288  11.045   4.203   4.000  0.0564 -0.0027 -0.3574
    1PPC    GL268289  10.821   4.190   4.182  0.1047  0.2968  0.1553
    1PPC    C1B68290  10.749   4.211   4.657  0.1264  0.3322 -0.0969
    1PPC    C2B68291  10.414   4.241   4.881 -0.0240  0.0034 -0.3064
    1PPC    C3B68292  10.403   4.423   5.323 -0.1127  0.0075 -0.1639
    1PPC    C4B68293  10.516   4.276   5.761  0.2486 -0.0331  0.0222
    1PPC    NC368294  26.438   0.634   2.440 -0.0192 -0.0529  0.1239
    1PPC    PO468295  26.285   0.949   2.757 -0.1623 -0.0336 -0.0467
    1PPC    GL168296  26.229   0.934   3.147  0.0365 -0.1164 -0.0638
    1PPC    GL268297  26.188   1.099   3.428  0.3498  0.0624  0.1456
    1PPC    C1B68298  26.313   1.181   3.920  0.0361 -0.1247  0.3396
    1PPC    C2B68299  26.432   1.460   4.274 -0.0331 -0.1549 -0.0722
    1PPC    C3B68300  26.713   1.542   4.541 -0.0422 -0.0647 -0.0400
    1PPC    C4B68301  27.000   1.839   4.730  0.1665 -0.1718  0.1988
    1PPC    NC368302   5.850  12.790   3.545 -0.0984 -0.0147  0.2468
    1PPC    PO468303   5.368  12.864   3.366 -0.0680 -0.1291  0.1075
    1PPC    GL168304   5.686  13.202   3.345  0.0925  0.1897  0.1314
    1PPC    GL268305   5.733  13.501   3.358  0.0636  0.2287 -0.1923
    1PPC    C1B68306   5.823  13.824   3.624 -0.0749 -0.2425 -0.0077
    1PPC    C2B68307   5.719  14.176   3.993 -0.0772  0.3660  0.0677
    1PPC    C3B68308   5.954  14.265   4.321  0.0588  0.1125  0.0378
    1PPC    C4B68309   6.271  14.339   4.666  0.3192 -0.2553  0.3325
    1PPC    NC368310   5.057   1.201   2.388 -0.0291 -0.0438  0.0727
    1PPC    PO468311   5.185   1.320   2.847  0.1165 -0.2213 -0.0883
    1PPC    GL168312   5.302   1.559   3.225  0.2858  0.0530 -0.0948
    1PPC    GL268313   5.381   1.499   3.543 -0.0840 -0.3113  0.1323
    1PPC    C1B68314   5.125   1.417   3.924 -0.1051 -0.1087 -0.0729
    1PPC    C2B68315   5.033   1.450   4.315 -0.0733 -0.0748  0.1113
    1PPC    C3B68316   5.072   1.213   4.641 -0.2238 -0.1584 -0.0456
    1PPC    C4B68317   5.387   1.145   4.928 -0.0676  0.1620  0.1430
    1PPC    NC368318  24.712  17.380   2.548 -0.2283 -0.3231  0.0595
    1PPC    PO468319  24.655  16.984   2.227  0.0819  0.1431  0.0544
    1PPC    GL168320  24.889  16.912   2.571 -0.0952 -0.2877 -0.3723
    1PPC    GL268321  25.090  17.083   2.693 -0.0757 -0.2144  0.2292
    1PPC    C1B68322  25.249  17.371   2.973  0.0635 -0.1460  0.1456
    1PPC    C2B68323  25.368  17.462   3.418 -0.0379  0.2365 -0.0208
    1PPC    C3B68324  25.132  17.771   3.625  0.0432  0.2190  0.2134
    1PPC    C4B68325  24.794  17.911   3.865 -0.0161  0.1204  0.0554
    1PPC    NC368326   5.759   8.657   2.434 -0.0496 -0.2775  0.0454
    1PPC    PO468327   5.856   8.902   2.884  0.1248 -0.2789  0.1795
    1PPC    GL168328   5.779   9.138   3.168  0.1575 -0.1433  0.0257
    1PPC    GL268329   5.758   9.137   3.474 -0.0600  0.2361  0.2956
    1PPC    C1B68330   5.780   9.114   4.010  0.1349 -0.0694  0.1715
    1PPC    C2B68331   5.537   9.178   4.464 -0.1287 -0.2015  0.0923
    1PPC    C3B68332   5.454   9.104   4.959 -0.1352  0.0739  0.1302
    1PPC    C4B68333   5.659   8.741   5.242 -0.1031  0.1425 -0.1886
    1PPC    NC368334  20.974   3.999   3.150  0.0695 -0.0557  0.2627
    1PPC    PO468335  21.175   4.406   3.041  0.1018 -0.3276  0.0530
    1PPC    GL168336  21.135   4.623   3.321 -0.3226  0.0140  0.1298
    1PPC    GL268337  21.185   4.594   3.596 -0.0263  0.0289  0.0069
    1PPC    C1B68338  21.111   4.384   3.922 -0.0861  0.0716 -0.2782
    1PPC    C2B68339  21.189   4.118   4.244  0.0054 -0.0056 -0.0002
    1PPC    C3B68340  21.422   3.832   4.490 -0.2612  0.1805  0.4448
    1PPC    C4B68341  21.503   3.405   4.325  0.2182  0.0541 -0.2095
    1PPC    NC368342  17.480  22.387   2.895 -0.0171 -0.1808 -0.0252
    1PPC    PO468343  17.266  22.755   3.116  0.1514  0.0278  0.0338
    1PPC    GL168344  16.987  22.488   3.519  0.2524  0.1491  0.2563
    1PPC    GL268345  16.863  22.452   3.814  0.0097 -0.0347  0.0647
    1PPC    C1B68346  16.638  22.421   4.210 -0.2376 -0.0861  0.1308
    1PPC    C2B68347  16.481  22.609   4.717  0.1154 -0.1164  0.1470
    1PPC    C3B68348  16.496  22.798   4.961 -0.2410 -0.1234 -0.2144
    1PPC    C4B68349  16.631  23.221   5.221 -0.0054  0.0349  0.1788
    1PPC    NC368350  16.425   7.131   3.471 -0.0941  0.0509 -0.0328
    1PPC    PO468351  15.953   7.112   3.473 -0.3520  0.0790 -0.0789
    1PPC    GL168352  15.967   7.195   3.947  0.1999  0.2419  0.0979
    1PPC    GL268353  15.918   7.237   4.188  0.2145 -0.0341 -0.1864
    1PPC    C1B68354  15.932   7.171   4.688 -0.0012 -0.0171  0.3592
    1PPC    C2B68355  15.927   7.327   5.141  0.1144  0.2243 -0.1327
    1PPC    C3B68356  16.137   7.418   5.480  0.3260  0.2283  0.0085
    1PPC    C4B68357  16.379   7.461   5.783  0.0044 -0.3401  0.1996
    1PPC    NC368358  25.105  12.596   2.075 -0.0561  0.1741  0.0699
    1PPC    PO468359  25.402  12.295   2.252 -0.0724  0.1097 -0.1168
    1PPC    GL168360  25.807  12.463   2.376  0.0003 -0.1261 -0.1832
    1PPC    GL268361  26.070  12.618   2.557  0.2334  0.0708 -0.0551
    1PPC    C1B68362  25.930  12.855   2.998 -0.0508 -0.2033  0.2887
    1PPC    C2B68363  25.968  13.088   3.373 -0.1659 -0.2235  0.1313
    1PPC    C3B68364  26.054  12.988   3.887 -0.0376 -0.1596  0.2332
    1PPC    C4B68365  26.005  12.521   4.128 -0.0303 -0.1071 -0.3425
    1PPC    NC368366  20.883  26.274   3.158  0.1361  0.0130  0.1799
    1PPC    PO468367  20.468  26.305   3.316 -0.2504  0.1232  0.1096
    1PPC    GL168368  20.368  26.018   3.630  0.1050 -0.0121 -0.0836
    1PPC    GL268369  20.463  26.041   3.894  0.0885  0.1249 -0.1984
    1PPC    C1B68370  20.774  26.281   4.163  0.1696 -0.2658 -0.0928
    1PPC    C2B68371  21.088  26.459   4.391  0.0166  0.0924  0.1892
    1PPC    C3B68372  21.057  26.521   4.763 -0.1168 -0.1452  0.1028
    1PPC    C4B68373  20.784  26.458   5.049  0.2029 -0.0322 -0.1099
    1PPC    NC368374  20.430   3.464   2.637  0.4044 -0.3037  0.1245
    1PPC    PO468375  20.564   3.874   2.841 -0.0177  0.1537 -0.0062
    1PPC    GL168376  20.609   3.759   3.353  0.0120  0.3287 -0.0741
    1PPC    GL268377  20.673   3.626   3.596  0.4561 -0.0942 -0.0173
    1PPC    C1B68378  20.807   3.497   3.950 -0.1942 -0.3165 -0.1226
    1PPC    C2B68379  21.031   3.620   4.347  0.1970  0.0058  0.2861
    1PPC    C3B68380  20.884   3.954   4.666 -0.3446 -0.3386 -0.0902
    1PPC    C4B68381  20.789   3.796   5.119  0.2035 -0.3053  0.0018
    1PPC    NC368382  24.690   2.563   2.799 -0.3714  0.4239 -0.1416
    1PPC    PO468383  24.252   2.582   2.596  0.1732  0.2173  0.0271
    1PPC    GL168384  24.146   2.706   2.984  0.2278 -0.0210  0.0464
    1PPC    GL268385  24.157   2.603   3.243  0.1627 -0.1016  0.1142
    1PPC    C1B68386  24.398   2.798   3.689  0.0484 -0.0725  0.0857
    1PPC    C2B68387  24.412   3.199   4.016  0.0522  0.1033 -0.0320
    1PPC    C3B68388  24.659   3.569   4.233 -0.3127 -0.0479  0.0932
    1PPC    C4B68389  24.533   3.915   4.523  0.1625 -0.1349 -0.1620
    1PPC    NC368390  22.382   7.916   2.626 -0.0128 -0.1614  0.3043
    1PPC    PO468391  22.513   7.965   3.049  0.1380 -0.0537 -0.1842
    1PPC    GL168392  22.946   8.056   3.239 -0.0111  0.0340  0.3707
    1PPC    GL268393  23.093   8.266   3.353 -0.0376 -0.2016  0.2403
    1PPC    C1B68394  23.360   8.547   3.592 -0.3346  0.1068 -0.1106
    1PPC    C2B68395  23.418   8.811   3.955  0.2057  0.2552 -0.1425
    1PPC    C3B68396  23.380   8.721   4.476 -0.0699  0.0487 -0.0657
    1PPC    C4B68397  23.336   8.437   4.808 -0.1331  0.0502 -0.1625
    1PPC    NC368398  12.419  26.882   3.519 -0.0847 -0.1219  0.1900
    1PPC    PO468399  12.926  26.739   3.355 -0.2624  0.1871  0.0347
    1PPC    GL168400  13.102  26.725   3.749 -0.0811 -0.1100 -0.2603
    1PPC    GL268401  13.079  26.847   4.109 -0.1540  0.2008  0.1642
    1PPC    C1B68402  13.213  26.938   4.523  0.0486 -0.0045 -0.1033
    1PPC    C2B68403  13.319  26.753   4.999 -0.1753  0.0703 -0.1213
    1PPC    C3B68404  13.423  26.631   5.389  0.1481 -0.2052  0.0950
    1PPC    C4B68405  13.381  26.550   5.827 -0.0222 -0.1029  0.2615
    1PPC    NC368406  14.021   2.182   3.901  0.0687 -0.0806 -0.0530
    1PPC    PO468407  13.874   1.718   3.830 -0.1354  0.1507 -0.0366
    1PPC    GL168408  13.954   1.732   4.136 -0.3831 -0.1364 -0.0241
    1PPC    GL268409  13.967   1.684   4.430  0.0904  0.2416  0.1166
    1PPC    C1B68410  13.851   1.879   4.797 -0.3160 -0.1059  0.0585
    1PPC    C2B68411  13.822   1.843   5.166 -0.3872  0.0124 -0.1385
    1PPC    C3B68412  14.175   1.842   5.495  0.0685  0.3117 -0.1842
    1PPC    C4B68413  14.414   1.722   5.786  0.1001  0.1065 -0.0637
    1PPC    NC368414   3.244   0.272   2.697  0.0018  0.0633 -0.0057
    1PPC    PO468415   3.187  -0.223   2.653 -0.1099  0.4486 -0.0228
    1PPC    GL168416   3.225  -0.534   2.847 -0.1226  0.2312 -0.2468
    1PPC    GL268417   3.133  -0.812   3.047  0.2511  0.1174 -0.2561
    1PPC    C1B68418   3.136  -1.211   3.481  0.0773 -0.0288 -0.2142
    1PPC    C2B68419   2.979  -1.315   3.928  0.0310 -0.1376 -0.0922
    1PPC    C3B68420   2.883  -1.418   4.386 -0.0050 -0.0839 -0.0337
    1PPC    C4B68421   2.773  -1.905   4.571 -0.0832 -0.0709 -0.0182
    1PPC    NC368422  10.418   6.339   2.369 -0.1089  0.1173  0.1580
    1PPC    PO468423  10.048   6.470   2.678  0.0283  0.0765 -0.0157
    1PPC    GL168424   9.864   6.448   3.176  0.4075  0.2151 -0.0151
    1PPC    GL268425   9.502   6.524   3.307  0.0341  0.0157 -0.0327
    1PPC    C1B68426   9.350   6.681   3.707 -0.0454 -0.2042  0.2004
    1PPC    C2B68427   9.303   6.479   4.073 -0.0927 -0.3415  0.0398
    1PPC    C3B68428   9.371   6.557   4.403  0.1052  0.4796 -0.2268
    1PPC    C4B68429   9.596   6.604   4.765 -0.2121  0.3627  0.2127
    1PPC    NC368430   0.813   3.629   2.041  0.3067  0.0893 -0.1654
    1PPC    PO468431   0.542   3.367   2.270  0.1562  0.0670  0.0963
    1PPC    GL168432   0.428   3.172   2.594  0.1512 -0.0447  0.1834
    1PPC    GL268433   0.490   3.317   2.882  0.1449  0.2881  0.0581
    1PPC    C1B68434   0.579   3.375   3.334  0.0270 -0.1992  0.2370
    1PPC    C2B68435   0.776   3.672   3.713  0.1655 -0.2755  0.0523
    1PPC    C3B68436   1.024   3.555   4.179 -0.0742  0.2106 -0.1164
    1PPC    C4B68437   1.284   3.317   4.412  0.0775  0.0119 -0.2082
    1PPC    NC368438  15.480   3.911   3.590  0.3046 -0.1566  0.1229
    1PPC    PO468439  15.456   3.586   3.866  0.2518  0.0082  0.1188
    1PPC    GL168440  15.742   3.528   4.260  0.2719  0.0664 -0.1959
    1PPC    GL268441  15.641   3.619   4.560  0.0020  0.2374 -0.1549
    1PPC    C1B68442  15.720   3.802   4.976  0.3940 -0.2674 -0.0757
    1PPC    C2B68443  15.793   3.833   5.345  0.0073 -0.0463  0.0534
    1PPC    C3B68444  15.784   3.787   5.836  0.0845  0.0278 -0.2587
    1PPC    C4B68445  15.667   3.811   6.297  0.0915  0.1674  0.3184
    1PPC    NC368446  21.386  23.835   3.407 -0.2223 -0.1816 -0.2124
    1PPC    PO468447  21.636  23.429   3.345  0.0770  0.2357 -0.1096
    1PPC    GL168448  22.051  23.383   3.596  0.0820  0.2132  0.1997
    1PPC    GL268449  22.260  23.464   3.690  0.4607 -0.0400 -0.0818
    1PPC    C1B68450  22.503  23.488   3.976  0.1880  0.2762  0.0449
    1PPC    C2B68451  22.770  23.438   4.372 -0.1203  0.0533  0.0607
    1PPC    C3B68452  22.996  23.537   4.787 -0.0939 -0.1292 -0.0247
    1PPC    C4B68453  23.224  23.762   5.014 -0.0770 -0.2657 -0.1982
    1PPC    NC368454  13.735   6.102   3.778  0.0326 -0.2648  0.1979
    1PPC    PO468455  13.894   5.731   3.689 -0.1438  0.1791  0.0045
    1PPC    GL168456  13.930   5.416   4.098 -0.1847 -0.0330  0.2438
    1PPC    GL268457  13.763   5.339   4.412 -0.0849  0.2626  0.0674
    1PPC    C1B68458  13.742   5.535   4.824  0.3538 -0.0269  0.0708
    1PPC    C2B68459  13.812   5.577   5.223  0.2420  0.1844  0.0174
    1PPC    C3B68460  13.971   5.372   5.556  0.0421 -0.1429  0.1436
    1PPC    C4B68461  14.075   4.866   5.760 -0.0776  0.0401 -0.1912
    1PPC    NC368462  24.791  21.746   3.022 -0.0883  0.1994  0.2306
    1PPC    PO468463  24.421  21.955   3.133  0.0396  0.1195 -0.4148
    1PPC    GL168464  24.526  21.728   3.471 -0.2441  0.0932 -0.2430
    1PPC    GL268465  24.751  21.689   3.727 -0.3498  0.1608  0.0138
    1PPC    C1B68466  25.156  21.890   3.849  0.0706  0.4110  0.0956
    1PPC    C2B68467  25.375  22.220   4.003 -0.0539 -0.2839  0.2371
    1PPC    C3B68468  25.459  22.666   3.815 -0.1716 -0.4276 -0.0851
    1PPC    C4B68469  25.333  22.774   3.482  0.0542 -0.3000 -0.0876
    1PPC    NC368470  23.357   8.297   1.947 -0.0004 -0.1298 -0.0601
    1PPC    PO468471  23.575   8.498   2.304  0.1955 -0.0258 -0.0682
    1PPC    GL168472  23.607   8.717   2.747  0.3986 -0.1691 -0.0652
    1PPC    GL268473  23.552   8.805   3.083 -0.1711 -0.1445  0.0504
    1PPC    C1B68474  23.577   9.051   3.430  0.1372 -0.1154 -0.0349
    1PPC    C2B68475  23.908   9.133   3.802 -0.1551 -0.3712  0.2186
    1PPC    C3B68476  24.107   9.254   4.209 -0.1491  0.0570  0.4637
    1PPC    C4B68477  24.397   9.369   4.656 -0.0387 -0.2440  0.2443
    1PPC    NC368478  24.574  13.753   2.687  0.0667 -0.1494 -0.2914
    1PPC    PO468479  24.629  14.183   2.664 -0.4861 -0.1033 -0.0307
    1PPC    GL168480  25.030  13.994   2.787 -0.1676  0.1776 -0.1907
    1PPC    GL268481  25.116  14.039   3.111 -0.0273 -0.1078  0.0141
    1PPC    C1B68482  25.047  14.143   3.542  0.0974 -0.2566 -0.3322
    1PPC    C2B68483  24.744  14.148   3.897  0.2103 -0.0209 -0.0473
    1PPC    C3B68484  24.464  14.121   4.188  0.0615  0.0453 -0.0687
    1PPC    C4B68485  24.037  13.940   4.360  0.0319 -0.3014  0.6240
    1PPC    NC368486  15.181   1.683   3.387 -0.0831 -0.0759  0.0432
    1PPC    PO468487  14.754   1.600   3.476  0.1217  0.1645 -0.0065
    1PPC    GL168488  14.979   1.615   3.871  0.1564 -0.2629 -0.3072
    1PPC    GL268489  15.027   1.773   4.123 -0.0478  0.0507 -0.1852
    1PPC    C1B68490  14.782   2.036   4.387 -0.0741  0.1592  0.0874
    1PPC    C2B68491  14.788   2.053   4.832 -0.0702 -0.1619  0.0716
    1PPC    C3B68492  15.235   1.857   5.143  0.0592  0.0871 -0.0094
    1PPC    C4B68493  15.639   2.038   5.353  0.3699 -0.1988  0.0618
    1PPC    NC368494  24.618  23.897   3.056  0.2851  0.1246  0.3474
    1PPC    PO468495  25.070  23.867   3.056 -0.3154  0.0391 -0.0378
    1PPC    GL168496  24.871  23.909   3.505 -0.0386  0.1586  0.0148
    1PPC    GL268497  24.526  23.900   3.657  0.0022  0.0647  0.0894
    1PPC    C1B68498  24.053  23.980   3.681 -0.0028  0.0017  0.3113
    1PPC    C2B68499  23.921  24.255   3.963  0.1393  0.1923  0.2689
    1PPC    C3B68500  23.501  24.259   4.152  0.0962 -0.0920  0.0846
    1PPC    C4B68501  23.126  24.408   4.310 -0.0887  0.1525 -0.1582
    1PPC    NC368502  14.684   3.364   3.149 -0.0697  0.0139  0.2279
    1PPC    PO468503  14.315   3.525   3.383  0.0435  0.1696  0.0296
    1PPC    GL168504  14.279   3.285   3.805  0.0535  0.0590  0.0721
    1PPC    GL268505  14.110   3.133   4.136 -0.1519 -0.4372 -0.1966
    1PPC    C1B68506  14.236   3.110   4.504  0.0495 -0.0593  0.0631
    1PPC    C2B68507  14.542   2.996   4.769 -0.3468 -0.2491  0.0100
    1PPC    C3B68508  14.757   3.067   5.209  0.0631  0.3679  0.0784
    1PPC    C4B68509  15.078   2.943   5.431  0.2916  0.1048  0.2261
    1PPC    NC368510   2.085  18.356   1.221  0.1194  0.1264 -0.1261
    1PPC    PO468511   1.901  18.548   1.557 -0.2810  0.2200 -0.0302
    1PPC    GL168512   1.686  18.715   1.847  0.1690  0.0642  0.0299
    1PPC    GL268513   1.573  18.755   2.217  0.2186 -0.1885  0.1078
    1PPC    C1B68514   1.329  18.738   2.557  0.2626  0.2295 -0.2194
    1PPC    C2B68515   0.966  18.649   2.800  0.0258 -0.1654 -0.1711
    1PPC    C3B68516   0.836  18.579   3.285  0.0426 -0.0235  0.1420
    1PPC    C4B68517   0.658  18.524   3.668 -0.1024 -0.1854  0.2793
    1PPC    NC368518   9.041   2.871   3.337 -0.1465  0.3102 -0.4558
    1PPC    PO468519   9.535   2.825   3.559  0.2177  0.1266 -0.1308
    1PPC    GL168520   9.348   2.494   3.827  0.1693 -0.1600  0.0037
    1PPC    GL268521   9.045   2.568   4.136 -0.2616 -0.0493  0.0808
    1PPC    C1B68522   9.079   2.632   4.603  0.1368  0.0683 -0.4270
    1PPC    C2B68523   9.011   2.981   4.846  0.0338 -0.1907 -0.0430
    1PPC    C3B68524   9.019   3.467   4.853 -0.2441  0.0076  0.0574
    1PPC    C4B68525   9.112   3.820   4.731  0.2253 -0.5261 -0.0219
    1PPC    NC368526  25.755  18.598   2.292  0.1283  0.0815  0.3769
    1PPC    PO468527  25.829  18.744   2.710  0.2796 -0.2156 -0.0760
    1PPC    GL168528  26.267  18.687   2.995  0.0894 -0.0037  0.0654
    1PPC    GL268529  26.352  18.576   3.320  0.0985  0.1014 -0.2209
    1PPC    C1B68530  26.610  18.647   3.645 -0.0015  0.2208  0.1742
    1PPC    C2B68531  26.595  18.953   4.102 -0.1383  0.0272 -0.1130
    1PPC    C3B68532  26.373  19.292   3.980  0.1324  0.1672 -0.2872
    1PPC    C4B68533  26.031  19.413   3.664  0.3340 -0.1170 -0.1374
    1PPC    NC368534  18.664   7.283   3.673 -0.0731  0.0061 -0.1093
    1PPC    PO468535  18.395   6.906   3.775  0.1280 -0.0481  0.2439
    1PPC    GL168536  18.275   7.241   3.995  0.0151 -0.1896  0.2420
    1PPC    GL268537  18.460   7.490   4.099  0.2511 -0.0897 -0.3706
    1PPC    C1B68538  18.689   7.785   4.308 -0.1324 -0.2473 -0.1329
    1PPC    C2B68539  18.897   8.024   4.549 -0.0499 -0.0338  0.0017
    1PPC    C3B68540  19.342   7.954   4.698  0.2095 -0.0099 -0.1923
    1PPC    C4B68541  19.683   7.588   4.809  0.0635  0.2533  0.0513
    1PPC    NC368542  21.592   2.523   2.773  0.2758  0.1345 -0.1169
    1PPC    PO468543  21.553   2.076   2.781 -0.1888  0.1306  0.3137
    1PPC    GL168544  21.832   1.762   2.878  0.0853 -0.0067 -0.1258
    1PPC    GL268545  21.857   1.581   3.116 -0.0648  0.2172 -0.0058
    1PPC    C1B68546  21.982   1.370   3.487  0.3203 -0.0731 -0.0298
    1PPC    C2B68547  21.927   1.324   3.945  0.2882 -0.0589  0.0279
    1PPC    C3B68548  22.046   1.135   4.294  0.0669  0.1065 -0.1094
    1PPC    C4B68549  22.302   1.015   4.528 -0.1560  0.3298 -0.1359
    1PPC    NC368550  26.992  13.562   2.198 -0.2797 -0.0224  0.0548
    1PPC    PO468551  26.901  13.636   2.602  0.0839 -0.1285  0.0263
    1PPC    GL168552  27.217  13.959   2.570 -0.0005  0.1319  0.1430
    1PPC    GL268553  27.435  14.257   2.730 -0.0369  0.1440  0.2071
    1PPC    C1B68554  27.625  14.464   2.989 -0.2471  0.0232  0.2462
    1PPC    C2B68555  27.899  14.574   3.247  0.0312  0.2163 -0.2381
    1PPC    C3B68556  28.183  14.895   3.376  0.1053 -0.0033 -0.0710
    1PPC    C4B68557  28.543  15.192   3.523 -0.0585 -0.1797 -0.2869
    1PPC    NC368558  19.774   2.767   2.880 -0.2377 -0.1348 -0.0774
    1PPC    PO468559  19.921   2.396   3.053 -0.0066  0.1814  0.3333
    1PPC    GL168560  20.202   2.254   3.405 -0.0336 -0.0881  0.0323
    1PPC    GL268561  20.550   2.318   3.501 -0.0095  0.2610  0.1141
    1PPC    C1B68562  20.802   2.278   3.912 -0.2569  0.2397 -0.0503
    1PPC    C2B68563  20.988   2.079   4.225  0.1085  0.0829 -0.2395
    1PPC    C3B68564  20.841   2.014   4.618  0.0852 -0.2667 -0.4176
    1PPC    C4B68565  20.821   1.672   4.941  0.2333  0.1144 -0.1312
    1PPC    NC368566  11.263  21.789   3.018 -0.2792 -0.3714 -0.0600
    1PPC    PO468567  11.208  22.245   3.180 -0.5706 -0.1922 -0.1560
    1PPC    GL168568  11.102  22.594   3.346 -0.0896  0.3137 -0.0369
    1PPC    GL268569  11.050  22.755   3.701  0.0529  0.0943  0.1881
    1PPC    C1B68570  11.073  22.680   4.079  0.0636 -0.0665 -0.2277
    1PPC    C2B68571  10.961  22.881   4.456  0.0378 -0.0844  0.0140
    1PPC    C3B68572  10.707  23.033   4.699 -0.1676  0.0672 -0.2220
    1PPC    C4B68573  10.475  23.360   4.813 -0.1282  0.1027 -0.1724
    1PPC    NC368574  15.137  25.873   3.388  0.1157  0.0438 -0.0888
    1PPC    PO468575  14.865  26.219   3.247  0.0602 -0.0135  0.1237
    1PPC    GL168576  14.852  26.119   3.746 -0.0141 -0.2169 -0.2174
    1PPC    GL268577  14.730  26.185   4.006  0.1349 -0.0583 -0.2674
    1PPC    C1B68578  14.911  26.178   4.405 -0.0959 -0.0422  0.2481
    1PPC    C2B68579  14.864  26.012   4.812 -0.2557  0.1696 -0.3791
    1PPC    C3B68580  14.842  25.755   5.203  0.0026  0.1836 -0.0812
    1PPC    C4B68581  15.144  25.606   5.533 -0.1353 -0.0325  0.1914
    1PPC    NC368582  16.372  26.259   3.433 -0.0075  0.2587 -0.1836
    1PPC    PO468583  16.698  26.579   3.494 -0.4397 -0.0030  0.0586
    1PPC    GL168584  16.931  26.722   3.854 -0.1152  0.3018  0.1857
    1PPC    GL268585  17.090  26.513   4.008  0.2510  0.1983  0.1188
    1PPC    C1B68586  17.301  26.274   4.362 -0.2213 -0.0782  0.0952
    1PPC    C2B68587  17.677  26.150   4.398  0.3485 -0.1562 -0.1981
    1PPC    C3B68588  18.125  26.211   4.394 -0.1700  0.1174 -0.3476
    1PPC    C4B68589  18.547  26.381   4.514 -0.0024 -0.1531  0.0301
    1PPC    NC368590   2.510  24.357   3.111 -0.0718 -0.0750 -0.0833
    1PPC    PO468591   2.096  24.511   2.826  0.0791  0.0879  0.1266
    1PPC    GL168592   2.086  24.960   3.014  0.1209  0.0712 -0.4373
    1PPC    GL268593   2.201  25.133   3.333  0.0934 -0.0114  0.3803
    1PPC    C1B68594   1.990  25.309   3.778 -0.0969  0.1956 -0.0488
    1PPC    C2B68595   1.984  25.571   4.162  0.1667 -0.1818 -0.0438
    1PPC    C3B68596   1.880  25.911   4.247 -0.4648  0.0570  0.1498
    1PPC    C4B68597   1.669  26.114   4.537 -0.4646 -0.2336  0.5254
    1PPC    NC368598   6.545  21.606   1.741  0.0497  0.3082 -0.3055
    1PPC    PO468599   6.734  21.788   2.137 -0.2159 -0.0989  0.1643
    1PPC    GL168600   6.363  21.984   2.376  0.2966 -0.4119  0.1384
    1PPC    GL268601   6.106  21.822   2.501 -0.0228 -0.0008 -0.0021
    1PPC    C1B68602   5.985  21.664   2.890 -0.1992  0.1592  0.0794
    1PPC    C2B68603   5.810  21.353   3.315  0.1078 -0.0736  0.0684
    1PPC    C3B68604   5.565  21.451   3.614 -0.0696  0.0657  0.1600
    1PPC    C4B68605   5.516  21.800   3.878 -0.0136 -0.4037 -0.2076
    1PPC    NC368606  19.706  25.625   3.166 -0.4094 -0.0347  0.4391
    1PPC    PO468607  19.751  25.620   3.574  0.1081  0.0949  0.2410
    1PPC    GL168608  19.705  25.784   3.979 -0.3533 -0.0565 -0.0536
    1PPC    GL268609  19.688  25.682   4.283 -0.0352 -0.0599  0.0942
    1PPC    C1B68610  19.587  25.673   4.673  0.0823  0.0609 -0.0223
    1PPC    C2B68611  19.215  25.596   4.993 -0.1943 -0.0236  0.0927
    1PPC    C3B68612  18.826  25.436   4.997  0.0282  0.1420  0.0095
    1PPC    C4B68613  18.362  25.298   4.993 -0.0153 -0.0786  0.1532
    1PPC    NC368614   2.729  10.815   2.488  0.0426 -0.0896  0.2104
    1PPC    PO468615   3.163  10.651   2.458 -0.2288 -0.0259  0.1809
    1PPC    GL168616   3.082  10.611   2.909 -0.0773  0.4179  0.1287
    1PPC    GL268617   3.035  10.605   3.307 -0.2610  0.0136 -0.2264
    1PPC    C1B68618   2.810  10.552   3.647 -0.0691  0.1980 -0.1902
    1PPC    C2B68619   2.590  10.548   3.937 -0.0002 -0.1187 -0.2233
    1PPC    C3B68620   2.450  10.774   4.299 -0.1423 -0.0311  0.0636
    1PPC    C4B68621   2.708  10.950   4.743 -0.0910 -0.3695 -0.1306
    1PPC    NC368622   0.782  10.285   1.866 -0.1060 -0.2445  0.5000
    1PPC    PO468623   1.090  10.130   2.073 -0.0731 -0.0657 -0.3660
    1PPC    GL168624   1.018   9.965   2.573  0.0310 -0.0194  0.1672
    1PPC    GL268625   0.856   9.823   2.824 -0.2780 -0.0710 -0.1234
    1PPC    C1B68626   0.608   9.836   3.174  0.1795  0.1082 -0.2238
    1PPC    C2B68627   0.672  10.180   3.553  0.0001  0.0129 -0.1103
    1PPC    C3B68628   0.897  10.339   3.917 -0.0539  0.3300 -0.0296
    1PPC    C4B68629   1.169  10.459   4.243  0.2014 -0.2291  0.0386
    1PPC    NC368630   4.914   9.532   2.749 -0.0072  0.1653  0.2288
    1PPC    PO468631   5.088   9.728   3.055  0.1672  0.0008  0.1735
    1PPC    GL168632   4.918   9.481   3.297 -0.1038 -0.4567 -0.2145
    1PPC    GL268633   4.829   9.483   3.504 -0.1500 -0.1360 -0.3410
    1PPC    C1B68634   4.806   9.415   3.961  0.0609  0.3913  0.0350
    1PPC    C2B68635   4.743   9.008   4.216  0.0315 -0.0301 -0.0780
    1PPC    C3B68636   4.384   8.933   4.615 -0.2345 -0.2296 -0.0044
    1PPC    C4B68637   4.092   8.896   4.850  0.0048 -0.1423  0.0789
    1PPC    NC368638  28.269   0.318   2.904  0.1156 -0.1342  0.1203
    1PPC    PO468639  27.978   0.475   3.196 -0.1516 -0.2278 -0.1665
    1PPC    GL168640  28.074   0.388   3.622 -0.0195  0.0025 -0.1947
    1PPC    GL268641  28.365   0.300   3.771  0.3185 -0.2142  0.1328
    1PPC    C1B68642  28.582   0.233   4.173 -0.2507 -0.1974  0.0617
    1PPC    C2B68643  28.542   0.582   4.518  0.0890 -0.1134 -0.2701
    1PPC    C3B68644  28.690   1.025   4.832  0.2176 -0.0288 -0.2306
    1PPC    C4B68645  28.592   1.431   4.820  0.2141  0.0440  0.1675
    1PPC    NC368646  12.521   3.451   3.625  0.0446  0.0087 -0.1459
    1PPC    PO468647  12.657   3.443   4.009 -0.0055  0.0739 -0.1022
    1PPC    GL168648  12.668   3.118   4.251  0.0188  0.1954 -0.1855
    1PPC    GL268649  12.865   3.099   4.570 -0.2313  0.0525 -0.0616
    1PPC    C1B68650  12.741   3.009   5.007 -0.3129 -0.2367 -0.1063
    1PPC    C2B68651  12.445   3.002   5.387  0.0027  0.2413  0.1335
    1PPC    C3B68652  12.485   2.735   5.734  0.2080 -0.4620  0.1111
    1PPC    C4B68653  12.489   2.681   6.267 -0.0523 -0.0698  0.1884
    1PPC    NC368654   0.793  17.613   2.135  0.1354  0.4048  0.0498
    1PPC    PO468655   1.086  17.372   1.914 -0.0775 -0.1250 -0.2016
    1PPC    GL168656   0.871  17.152   2.320  0.0208 -0.3432  0.3007
    1PPC    GL268657   0.921  16.969   2.595  0.3356 -0.2345 -0.0024
    1PPC    C1B68658   1.031  17.226   3.016  0.0108 -0.0878 -0.2829
    1PPC    C2B68659   0.783  17.275   3.417 -0.1544 -0.0674  0.2031
    1PPC    C3B68660   0.826  17.466   3.800 -0.0001  0.0474  0.2667
    1PPC    C4B68661   0.722  17.390   4.186  0.1238  0.0640 -0.2820
    1PPC    NC368662  11.674   5.196   3.703  0.0785 -0.2807 -0.1688
    1PPC    PO468663  11.836   4.846   3.973  0.1229  0.2071  0.0472
    1PPC    GL168664  11.758   4.976   4.391  0.0981  0.2125  0.0713
    1PPC    GL268665  11.389   5.051   4.570 -0.1772  0.0585 -0.0371
    1PPC    C1B68666  11.163   5.448   4.768 -0.3561  0.0442 -0.2432
    1PPC    C2B68667  11.114   5.580   5.226 -0.1381  0.2109  0.2103
    1PPC    C3B68668  11.112   5.463   5.649 -0.0666 -0.0165 -0.1884
    1PPC    C4B68669  11.327   5.544   6.043  0.0406  0.0704 -0.0850
    1PPC    NC368670   4.249  26.802   2.192  0.0133  0.0243  0.1049
    1PPC    PO468671   4.224  27.181   2.347 -0.1900 -0.0252 -0.3057
    1PPC    GL168672   3.951  27.131   2.696  0.2776 -0.3375 -0.0675
    1PPC    GL268673   3.819  27.158   2.947 -0.0753  0.3660 -0.0315
    1PPC    C1B68674   3.875  27.206   3.299  0.2059  0.0308  0.0055
    1PPC    C2B68675   3.715  27.428   3.645 -0.2017  0.1565 -0.1042
    1PPC    C3B68676   3.487  27.750   3.856 -0.0333 -0.1202 -0.1595
    1PPC    C4B68677   3.128  27.966   3.937  0.2866 -0.0955 -0.1371
    1PPC    NC368678  19.256  28.534   3.632  0.2059  0.1290  0.2967
    1PPC    PO468679  19.458  28.205   3.355  0.0186  0.3241 -0.0004
    1PPC    GL168680  19.425  27.979   3.637 -0.1499 -0.0719 -0.0696
    1PPC    GL268681  19.465  28.017   3.837  0.4762 -0.3523  0.0077
    1PPC    C1B68682  19.631  28.082   4.187  0.1183  0.0127  0.1085
    1PPC    C2B68683  19.709  28.359   4.537 -0.2495  0.0325 -0.0430
    1PPC    C3B68684  19.747  28.750   4.633 -0.0243 -0.2023  0.1548
    1PPC    C4B68685  19.583  29.117   4.617 -0.2233  0.0711  0.0106
    1PPC    NC368686   0.635  20.096   1.644  0.0283  0.1176  0.3138
    1PPC    PO468687   0.722  20.101   2.032  0.1651  0.1739 -0.0217
    1PPC    GL168688   0.829  20.143   2.507 -0.0809 -0.1007  0.0878
    1PPC    GL268689   0.983  20.243   2.702 -0.0811 -0.6389  0.1443
    1PPC    C1B68690   1.257  20.050   2.905 -0.0199  0.0958 -0.3806
    1PPC    C2B68691   1.747  19.839   2.893  0.2076  0.2635  0.2005
    1PPC    C3B68692   2.154  19.851   3.060  0.0667 -0.0056  0.2351
    1PPC    C4B68693   2.517  19.731   3.289 -0.0669 -0.3876  0.2365
    1PPC    NC368694   8.617   0.380   2.801 -0.2006 -0.1392 -0.2467
    1PPC    PO468695   8.619   0.365   3.343 -0.0372  0.0130 -0.2795
    1PPC    GL168696   8.668   0.138   3.718 -0.1190  0.0893  0.0531
    1PPC    GL268697   8.748   0.111   4.108 -0.0408 -0.1218  0.0045
    1PPC    C1B68698   8.986  -0.057   4.402  0.0180 -0.3403  0.2147
    1PPC    C2B68699   8.779  -0.410   4.588 -0.1623  0.3175  0.0444
    1PPC    C3B68700   8.821  -0.885   4.678  0.1833 -0.1679  0.1735
    1PPC    C4B68701   8.931  -1.311   4.558  0.1297  0.0493 -0.0218
    1PPC    NC368702  27.500  14.321   2.135  0.3740  0.0814 -0.1863
    1PPC    PO468703  27.118  14.616   2.104  0.1510 -0.0553  0.0314
    1PPC    GL168704  26.988  14.468   2.517 -0.1104 -0.1147  0.1886
    1PPC    GL268705  26.960  14.406   2.803  0.0718  0.0690  0.2051
    1PPC    C1B68706  27.211  14.356   3.190  0.0111  0.3586 -0.0858
    1PPC    C2B68707  27.407  14.324   3.553 -0.0644  0.0962 -0.2333
    1PPC    C3B68708  27.581  14.331   3.987  0.0181  0.1679  0.0423
    1PPC    C4B68709  27.548  14.594   4.281 -0.0729 -0.1063  0.0436
    1PPC    NC368710  16.713   4.163   3.632  0.1138  0.0504  0.3298
    1PPC    PO468711  17.027   3.860   3.682  0.2851 -0.0571 -0.3038
    1PPC    GL168712  17.333   4.145   3.726  0.0054 -0.0296 -0.3344
    1PPC    GL268713  17.377   4.310   3.989 -0.1479 -0.1076 -0.1170
    1PPC    C1B68714  17.346   4.124   4.380  0.0180  0.2687 -0.3219
    1PPC    C2B68715  17.301   4.108   4.718 -0.2830  0.2919  0.2892
    1PPC    C3B68716  17.619   4.019   5.010 -0.1341 -0.2101 -0.1864
    1PPC    C4B68717  17.889   4.269   5.181  0.1730 -0.3225  0.0184
    1PPC    NC368718  27.103  20.516   2.849 -0.0299  0.1254 -0.4957
    1PPC    PO468719  27.453  20.288   2.645  0.3872  0.2412  0.2765
    1PPC    GL168720  27.720  20.370   2.947  0.5333  0.3866  0.0890
    1PPC    GL268721  27.931  20.308   3.172 -0.1221  0.0311  0.0522
    1PPC    C1B68722  28.371  20.252   3.414  0.0838 -0.1344  0.3198
    1PPC    C2B68723  28.792  20.189   3.494 -0.4110  0.0110 -0.0874
    1PPC    C3B68724  29.204  20.161   3.379 -0.0652  0.1448  0.0891
    1PPC    C4B68725  29.484  19.925   3.040 -0.0926  0.2110  0.3432
    1PPC    NC368726  17.547  26.182   3.018  0.4203  0.1161  0.3417
    1PPC    PO468727  17.348  25.967   3.372 -0.4498  0.1144 -0.2268
    1PPC    GL168728  17.151  25.630   3.394 -0.0941 -0.2171 -0.1554
    1PPC    GL268729  17.158  25.449   3.657 -0.1062  0.0927  0.0607
    1PPC    C1B68730  17.347  25.563   4.118  0.0775 -0.0807  0.3109
    1PPC    C2B68731  17.311  25.782   4.523 -0.2017  0.0224 -0.3814
    1PPC    C3B68732  17.146  25.700   4.884  0.1877 -0.2941 -0.0589
    1PPC    C4B68733  16.962  25.479   5.150  0.0840 -0.0128 -0.2375
    1PPC    NC368734  23.003  26.370   2.326  0.1211  0.1685  0.1824
    1PPC    PO468735  22.915  26.475   2.780 -0.2057 -0.2696  0.0091
    1PPC    GL168736  22.937  26.550   3.150  0.0974  0.0143 -0.0966
    1PPC    GL268737  23.042  26.303   3.300  0.3314  0.0286 -0.1467
    1PPC    C1B68738  23.015  26.246   3.672  0.0601  0.2168 -0.0241
    1PPC    C2B68739  23.313  26.367   4.066  0.1766 -0.4465  0.0332
    1PPC    C3B68740  23.094  26.631   4.415 -0.3955  0.1776 -0.1027
    1PPC    C4B68741  22.829  26.439   4.824  0.1050  0.1572  0.0267
    1PPC    NC368742  24.442  12.879   1.609  0.1719  0.0120 -0.3566
    1PPC    PO468743  24.627  12.917   2.011  0.0278 -0.1626 -0.3621
    1PPC    GL168744  24.812  12.825   2.440  0.0036 -0.0243 -0.0238
    1PPC    GL268745  24.755  12.729   2.701 -0.0009 -0.3533  0.0301
    1PPC    C1B68746  24.701  12.587   3.119  0.0544  0.1514 -0.1587
    1PPC    C2B68747  24.980  12.387   3.473 -0.1144  0.2969  0.1239
    1PPC    C3B68748  25.427  12.213   3.565  0.3975 -0.0158 -0.1029
    1PPC    C4B68749  25.854  12.184   3.804  0.0565  0.0226  0.1662
    1PPC    NC368750   4.760  15.689   2.469  0.0152 -0.1331 -0.1644
    1PPC    PO468751   4.393  15.433   2.318 -0.0778 -0.0271  0.1315
    1PPC    GL168752   4.380  15.615   2.795  0.0727 -0.0719 -0.3347
    1PPC    GL268753   4.298  15.592   2.999  0.1245  0.3310 -0.0824
    1PPC    C1B68754   4.293  15.729   3.410 -0.4972  0.0112 -0.1769
    1PPC    C2B68755   4.358  16.151   3.725  0.0570 -0.1204  0.1932
    1PPC    C3B68756   4.734  16.321   3.920  0.1533 -0.0597  0.0383
    1PPC    C4B68757   5.080  16.438   4.102 -0.0472  0.1675 -0.1117
    1PPC    NC368758   1.437   6.031   2.944 -0.4309  0.3433  0.2032
    1PPC    PO468759   1.798   6.128   3.149 -0.1824 -0.3200 -0.1218
    1PPC    GL168760   1.822   6.306   3.561 -0.0970 -0.0893  0.0733
    1PPC    GL268761   1.676   6.252   3.851 -0.0926 -0.5593 -0.1673
    1PPC    C1B68762   1.324   6.256   4.217  0.2310  0.0762 -0.0535
    1PPC    C2B68763   1.176   6.206   4.650  0.2668 -0.1279  0.0525
    1PPC    C3B68764   0.967   6.485   5.007 -0.0741 -0.1022  0.0841
    1PPC    C4B68765   0.852   6.542   5.394  0.0287 -0.1635 -0.0389
    1PPC    NC368766  15.137  22.966   3.311 -0.0309 -0.0058 -0.0333
    1PPC    PO468767  15.022  22.641   3.644  0.2189  0.1168 -0.1603
    1PPC    GL168768  15.060  22.431   3.953  0.1754 -0.0721  0.0404
    1PPC    GL268769  15.211  22.352   4.228  0.1121  0.1854 -0.0459
    1PPC    C1B68770  15.227  22.036   4.647 -0.0352  0.0867  0.3741
    1PPC    C2B68771  15.561  21.976   4.938 -0.0739 -0.2869  0.1911
    1PPC    C3B68772  15.791  22.107   5.291  0.2153 -0.1927  0.2836
    1PPC    C4B68773  15.900  22.281   5.775  0.3084 -0.4158 -0.2836
    1PPC    NC368774  20.714  25.755   3.337 -0.0265  0.4426 -0.1606
    1PPC    PO468775  20.793  25.661   3.739  0.3677 -0.0228 -0.2592
    1PPC    GL168776  20.461  25.527   3.961  0.0153 -0.0528 -0.1556
    1PPC    GL268777  20.114  25.466   4.077  0.1146 -0.1719  0.0614
    1PPC    C1B68778  20.077  25.546   4.553 -0.0375 -0.2595 -0.4118
    1PPC    C2B68779  20.384  25.626   4.970  0.1783 -0.0909  0.4376
    1PPC    C3B68780  20.184  25.564   5.371 -0.0308 -0.0747  0.1015
    1PPC    C4B68781  19.989  25.123   5.555 -0.1177  0.0784 -0.5369
    1PPC    NC368782  26.104   8.682   2.147  0.0345 -0.0263 -0.4065
    1PPC    PO468783  26.048   8.559   2.634  0.1417 -0.2412 -0.1396
    1PPC    GL168784  26.233   8.842   2.982  0.2184 -0.2835 -0.4120
    1PPC    GL268785  26.406   9.012   3.313  0.2722 -0.0779 -0.2088
    1PPC    C1B68786  26.410   9.160   3.751  0.0599 -0.0958 -0.0504
    1PPC    C2B68787  26.625   9.019   4.113  0.1025 -0.1985  0.2603
    1PPC    C3B68788  26.777   8.725   4.293 -0.0921  0.1145 -0.2810
    1PPC    C4B68789  26.942   8.349   4.287  0.0959 -0.0026  0.0022
    1PPC    NC368790   3.330  23.802   2.163  0.1485  0.0612 -0.1100
    1PPC    PO468791   3.360  24.089   2.477 -0.3117 -0.1055 -0.1199
    1PPC    GL168792   3.290  24.079   2.960  0.1299 -0.2088 -0.1530
    1PPC    GL268793   3.453  24.170   3.167 -0.2593 -0.1453 -0.0236
    1PPC    C1B68794   3.664  24.194   3.574  0.3073  0.0938  0.1704
    1PPC    C2B68795   3.461  24.055   3.952 -0.3323  0.0384 -0.0199
    1PPC    C3B68796   3.177  23.733   4.240 -0.0825 -0.1590  0.6314
    1PPC    C4B68797   2.717  23.857   4.289 -0.4456 -0.0014  0.1699
    1PPC    NC368798  24.162   4.843   2.725 -0.1003 -0.2101 -0.0697
    1PPC    PO468799  23.877   4.643   3.091 -0.0675  0.1650 -0.2520
    1PPC    GL168800  24.134   4.599   3.410 -0.1304  0.1955  0.0768
    1PPC    GL268801  24.276   4.539   3.678  0.2118  0.0556  0.2791
    1PPC    C1B68802  24.694   4.545   3.695  0.0711 -0.1898 -0.0274
    1PPC    C2B68803  25.045   4.234   3.858 -0.1231  0.0820  0.3184
    1PPC    C3B68804  25.433   4.261   4.143  0.2611 -0.1678 -0.0369
    1PPC    C4B68805  25.309   4.222   4.573  0.3074  0.2299 -0.1417
    1PPC    NC368806  27.465  27.375   3.467 -0.1578 -0.2127  0.0203
    1PPC    PO468807  27.921  27.378   3.511 -0.0218  0.5160 -0.0716
    1PPC    GL168808  28.079  27.066   3.880 -0.1786 -0.1165  0.0847
    1PPC    GL268809  28.329  27.019   4.106  0.2455 -0.0087  0.2671
    1PPC    C1B68810  28.466  27.050   4.521 -0.1361  0.0437  0.0323
    1PPC    C2B68811  28.751  27.032   4.802  0.1458 -0.2513  0.0851
    1PPC    C3B68812  29.098  26.880   4.846  0.0352  0.4615  0.3142
    1PPC    C4B68813  29.395  26.985   4.530  0.1086 -0.0357  0.2648
    1PPC    NC368814  19.710  13.935   2.432  0.0922 -0.0177 -0.1023
    1PPC    PO468815  19.725  13.690   2.754 -0.2468  0.0638 -0.2200
    1PPC    GL168816  20.020  13.536   3.147  0.3501 -0.2312  0.2094
    1PPC    GL268817  20.021  13.512   3.411 -0.0689 -0.0764  0.1398
    1PPC    C1B68818  19.987  13.663   3.783  0.2168 -0.1535 -0.1269
    1PPC    C2B68819  19.955  13.722   4.199  0.0071 -0.2216  0.1087
    1PPC    C3B68820  20.139  13.656   4.635 -0.1286  0.1003  0.3065
    1PPC    C4B68821  20.503  13.648   4.833  0.0461 -0.0479 -0.0248
    1PPC    NC368822   3.175   1.422   2.763 -0.1753 -0.3133 -0.1877
    1PPC    PO468823   2.860   1.377   3.139 -0.1914 -0.1022 -0.2357
    1PPC    GL168824   2.894   1.316   3.516  0.0809  0.1520  0.0005
    1PPC    GL268825   2.987   1.120   3.800 -0.0253  0.0398  0.4252
    1PPC    C1B68826   3.089   1.037   4.241 -0.2934 -0.0588  0.1144
    1PPC    C2B68827   3.023   0.872   4.649  0.0303  0.0812 -0.0369
    1PPC    C3B68828   3.074   0.486   4.740  0.1030 -0.2487 -0.3641
    1PPC    C4B68829   2.737   0.210   4.773  0.4263  0.0591  0.0430
    1PPC    NC368830  26.182   8.211   1.944 -0.2738 -0.2314 -0.0223
    1PPC    PO468831  26.220   7.790   2.138 -0.0087  0.2603 -0.1282
    1PPC    GL168832  26.596   7.911   2.472  0.0844 -0.0745 -0.1712
    1PPC    GL268833  26.785   8.046   2.708 -0.2872  0.0607 -0.2253
    1PPC    C1B68834  26.751   8.008   3.094  0.1468  0.1946 -0.1156
    1PPC    C2B68835  26.906   8.241   3.456  0.0655  0.3520 -0.1361
    1PPC    C3B68836  27.205   8.511   3.679 -0.3004  0.2690  0.0539
    1PPC    C4B68837  27.173   8.902   3.848  0.3796  0.3590 -0.0201
    1PPC    NC368838  17.665   2.243   3.479  0.1632 -0.0315 -0.0185
    1PPC    PO468839  17.386   2.311   3.828 -0.0998 -0.0032 -0.0316
    1PPC    GL168840  17.801   2.245   4.023 -0.0484 -0.0720 -0.1633
    1PPC    GL268841  17.961   1.946   4.223  0.3550 -0.0325  0.2662
    1PPC    C1B68842  17.970   1.676   4.636 -0.2288 -0.0588 -0.0538
    1PPC    C2B68843  18.008   1.297   4.909  0.2483 -0.3318 -0.0606
    1PPC    C3B68844  17.856   1.213   5.282  0.0466 -0.0533 -0.0272
    1PPC    C4B68845  17.679   0.740   5.280 -0.2473  0.0857  0.3897
    1PPC    NC368846  24.467  16.402   2.873  0.0257 -0.2523  0.0668
    1PPC    PO468847  24.217  16.187   2.511  0.0389 -0.0566 -0.2735
    1PPC    GL168848  24.036  16.247   2.929  0.0442 -0.1823  0.0648
    1PPC    GL268849  23.914  16.334   3.250  0.1916 -0.2271 -0.0665
    1PPC    C1B68850  23.951  16.638   3.592  0.2566  0.0604 -0.4715
    1PPC    C2B68851  23.769  16.709   3.996  0.2360 -0.0478 -0.3776
    1PPC    C3B68852  23.801  16.650   4.385 -0.2069 -0.0781  0.1066
    1PPC    C4B68853  23.611  16.536   4.751  0.4052 -0.2122 -0.1563
    1PPC    NC368854   0.009   6.141   2.848  0.2327 -0.1717  0.1971
    1PPC    PO468855  -0.389   5.939   2.678  0.2204 -0.3992  0.2683
    1PPC    GL168856  -0.521   6.030   3.164 -0.0541 -0.1911 -0.1424
    1PPC    GL268857  -0.652   5.935   3.490  0.4015  0.2498  0.0261
    1PPC    C1B68858  -0.681   5.657   3.802 -0.1129 -0.0717 -0.0422
    1PPC    C2B68859  -0.814   5.642   4.204 -0.2018  0.2550 -0.5901
    1PPC    C3B68860  -1.117   5.503   4.623 -0.0768  0.0465  0.1773
    1PPC    C4B68861  -1.462   5.273   4.786  0.2523  0.0316  0.2437
    1PPC    NC368862  21.464  10.055   2.839  0.3227 -0.0934 -0.0215
    1PPC    PO468863  21.677   9.827   3.168 -0.1325  0.4109  0.0423
    1PPC    GL168864  21.974   9.892   3.367 -0.1394 -0.0205 -0.4308
    1PPC    GL268865  22.083  10.156   3.589 -0.2273 -0.1122 -0.0132
    1PPC    C1B68866  22.154  10.165   4.061  0.0674  0.0046  0.0119
    1PPC    C2B68867  21.973   9.960   4.483  0.2007  0.0650  0.1956
    1PPC    C3B68868  21.887   9.614   4.765  0.3614  0.0818  0.1217
    1PPC    C4B68869  21.646   9.291   4.922  0.2772  0.1934 -0.1723
    1PPC    NC368870  14.351   2.129   3.154 -0.0814  0.2905 -0.0623
    1PPC    PO468871  14.374   2.011   3.561  0.2872  0.2337  0.1240
    1PPC    GL168872  14.478   1.787   3.939 -0.1969  0.1680 -0.3095
    1PPC    GL268873  14.441   1.652   4.206 -0.0334 -0.1924 -0.2432
    1PPC    C1B68874  14.378   1.785   4.621  0.0091 -0.0516  0.2593
    1PPC    C2B68875  14.275   2.044   5.020 -0.1220 -0.0336  0.0956
    1PPC    C3B68876  14.266   2.288   5.425  0.0967 -0.0393  0.4849
    1PPC    C4B68877  14.200   2.214   5.882  0.0828  0.1504  0.2652
    1PPC    NC368878  12.872  22.549   3.335 -0.1754 -0.3225  0.1735
    1PPC    PO468879  12.828  22.086   3.221  0.1040 -0.1136 -0.4705
    1PPC    GL168880  12.758  22.137   3.590  0.0247 -0.1041  0.0644
    1PPC    GL268881  12.584  22.123   3.887  0.1414  0.2942 -0.1963
    1PPC    C1B68882  12.499  21.904   4.349 -0.0454 -0.1209  0.0197
    1PPC    C2B68883  12.046  21.837   4.425  0.0419  0.1209 -0.1562
    1PPC    C3B68884  11.898  22.212   4.442  0.0468 -0.1518  0.0410
    1PPC    C4B68885  11.500  22.391   4.312 -0.0603  0.1582  0.2290
    1PPC    NC368886  24.227  19.226   2.221  0.2255  0.1399  0.0030
    1PPC    PO468887  23.703  19.178   2.188 -0.0523  0.1374 -0.0662
    1PPC    GL168888  23.817  19.273   2.550  0.0451 -0.0376 -0.1106
    1PPC    GL268889  23.791  19.090   2.839  0.3866  0.1287  0.0473
    1PPC    C1B68890  23.998  19.046   3.225  0.1923 -0.0540  0.2130
    1PPC    C2B68891  23.949  19.040   3.599  0.3931 -0.1101 -0.1843
    1PPC    C3B68892  24.190  18.966   3.992 -0.1575 -0.0037  0.1425
    1PPC    C4B68893  24.453  18.660   4.193  0.0355 -0.2447  0.1255
    1PPC    NC368894   4.282  25.663   2.237  0.0164 -0.1854 -0.0450
    1PPC    PO468895   4.188  25.810   2.551  0.0842  0.1276  0.2812
    1PPC    GL168896   4.409  25.854   3.032  0.1205 -0.1594 -0.2487
    1PPC    GL268897   4.553  25.727   3.268 -0.1021 -0.1439 -0.3816
    1PPC    C1B68898   4.448  25.891   3.659 -0.0493 -0.1786  0.2336
    1PPC    C2B68899   4.499  26.319   3.806 -0.0576 -0.0489 -0.3186
    1PPC    C3B68900   4.632  26.367   4.280 -0.0779  0.2130  0.0931
    1PPC    C4B68901   4.649  26.584   4.648  0.0755 -0.0488  0.2732
    1PPC    NC368902  14.674   7.899   3.227  0.1047  0.3154 -0.1167
    1PPC    PO468903  14.990   8.144   3.126  0.0153  0.1157  0.0511
    1PPC    GL168904  14.872   8.290   3.600 -0.2764  0.1535 -0.1566
    1PPC    GL268905  15.058   8.313   3.833  0.1912 -0.3189  0.0070
    1PPC    C1B68906  15.126   8.327   4.329  0.1530 -0.1388 -0.0072
    1PPC    C2B68907  14.932   8.665   4.648  0.0424 -0.1993  0.1849
    1PPC    C3B68908  14.941   8.598   5.047 -0.0785 -0.1136 -0.2795
    1PPC    C4B68909  14.736   8.918   5.250  0.1298  0.4259  0.2208
    1PPC    NC368910  11.345  27.175   2.802  0.0518 -0.0141 -0.1174
    1PPC    PO468911  11.481  27.348   3.198 -0.1764 -0.3121  0.0319
    1PPC    GL168912  11.310  27.330   3.634 -0.1126  0.1448 -0.1028
    1PPC    GL268913  11.280  26.983   3.722  0.3588  0.1252 -0.1667
    1PPC    C1B68914  11.246  26.710   3.958 -0.0178  0.5528  0.2624
    1PPC    C2B68915  11.091  26.553   4.334  0.3571  0.1862  0.1232
    1PPC    C3B68916  10.879  26.635   4.692 -0.1882 -0.0333 -0.1885
    1PPC    C4B68917  10.868  26.720   5.058 -0.3610  0.2257 -0.0266
    1PPC    NC368918  25.688   1.117   3.189 -0.2810 -0.1804  0.1107
    1PPC    PO468919  25.568   1.554   3.233  0.1185 -0.0056 -0.0282
    1PPC    GL168920  25.861   1.443   3.503  0.1221  0.0611  0.1158
    1PPC    GL268921  25.864   1.423   3.775  0.0153 -0.0240  0.1488
    1PPC    C1B68922  25.706   1.120   4.039 -0.1486  0.3927  0.1276
    1PPC    C2B68923  25.844   0.673   4.129 -0.0328 -0.0439 -0.2356
    1PPC    C3B68924  25.970   0.367   4.467  0.0847 -0.3590 -0.1800
    1PPC    C4B68925  25.662   0.293   4.789 -0.0295 -0.2303  0.3357
    1PPC    NC368926  20.928  13.365   1.944  0.1350 -0.1277  0.0499
    1PPC    PO468927  21.062  13.322   2.412  0.3747 -0.1702 -0.0488
    1PPC    GL168928  21.179  13.370   2.792  0.1823 -0.0420 -0.2210
    1PPC    GL268929  21.427  13.469   3.024  0.0488 -0.3187 -0.3908
    1PPC    C1B68930  21.523  13.182   3.420  0.3912  0.0361 -0.1468
    1PPC    C2B68931  21.827  13.252   3.654  0.1779 -0.2014 -0.0892
    1PPC    C3B68932  22.208  13.275   3.911  0.0542  0.3149  0.1292
    1PPC    C4B68933  22.526  13.126   3.905 -0.1683  0.1121 -0.0664
    1PPC    NC368934  25.353  25.362   2.354  0.0831 -0.1218 -0.2892
    1PPC    PO468935  25.230  25.217   2.726 -0.0003 -0.0855 -0.0041
    1PPC    GL168936  25.155  24.841   2.942 -0.0412  0.0279  0.1331
    1PPC    GL268937  25.116  24.703   3.289 -0.1745  0.3096  0.0575
    1PPC    C1B68938  25.145  24.752   3.788 -0.1170  0.0609  0.0036
    1PPC    C2B68939  25.003  24.749   4.299 -0.0018  0.0817 -0.2489
    1PPC    C3B68940  24.747  24.880   4.697  0.0905  0.1099 -0.2645
    1PPC    C4B68941  24.801  24.830   5.065 -0.1276 -0.1850 -0.1673
    1PPC    NC368942  12.170   4.402   3.978  0.0491  0.1302 -0.3230
    1PPC    PO468943  12.571   4.578   4.046 -0.0156  0.2596  0.1661
    1PPC    GL168944  12.679   4.837   4.414 -0.0732  0.2839 -0.0010
    1PPC    GL268945  12.901   5.089   4.638 -0.0018  0.1351  0.1235
    1PPC    C1B68946  12.967   4.996   5.054 -0.0436  0.1015 -0.2846
    1PPC    C2B68947  13.128   5.237   5.458 -0.2018  0.0576 -0.1249
    1PPC    C3B68948  13.012   5.752   5.561 -0.2001  0.4021 -0.1193
    1PPC    C4B68949  12.976   5.933   5.957  0.1385  0.2492  0.0333
    1PPC    NC368950  15.944   5.861   2.720  0.0499 -0.0155  0.0027
    1PPC    PO468951  16.039   5.785   3.148  0.0285  0.0651  0.0275
    1PPC    GL168952  16.046   5.485   3.551 -0.1024  0.0010  0.2075
    1PPC    GL268953  16.081   5.509   3.856 -0.4585 -0.4620  0.1239
    1PPC    C1B68954  16.283   5.688   4.259 -0.2068  0.1024  0.3033
    1PPC    C2B68955  16.611   5.712   4.604  0.0218  0.2159 -0.1141
    1PPC    C3B68956  16.558   5.755   5.006 -0.0259 -0.1381  0.0719
    1PPC    C4B68957  16.681   5.875   5.482  0.1334 -0.1152 -0.0732
    1PPC    NC368958   3.525   5.877   3.142 -0.0618 -0.1589  0.2370
    1PPC    PO468959   3.297   6.066   3.266  0.0712 -0.0752 -0.0838
    1PPC    GL168960   3.028   5.894   3.610 -0.2207  0.1651 -0.0402
    1PPC    GL268961   3.074   5.605   3.897  0.1630 -0.2423  0.0819
    1PPC    C1B68962   3.210   5.316   4.251  0.0865  0.0159 -0.0980
    1PPC    C2B68963   3.174   5.276   4.790 -0.0392 -0.1235 -0.0710
    1PPC    C3B68964   3.034   4.961   5.062 -0.2039  0.0867 -0.0094
    1PPC    C4B68965   3.171   4.877   5.449  0.1179  0.0710 -0.2015
    1PPC    NC368966  26.471  12.287   2.630  0.2715 -0.1261  0.2584
    1PPC    PO468967  26.112  12.076   2.395  0.0057 -0.4113  0.0397
    1PPC    GL168968  26.051  12.086   2.828 -0.0973 -0.0229 -0.2692
    1PPC    GL268969  26.200  12.349   3.025 -0.1261 -0.0392 -0.1080
    1PPC    C1B68970  26.109  12.586   3.440  0.2203 -0.2077  0.0654
    1PPC    C2B68971  25.738  12.663   3.651 -0.1939 -0.0142 -0.1040
    1PPC    C3B68972  25.480  12.501   4.033 -0.2470  0.2173 -0.1420
    1PPC    C4B68973  25.481  12.420   4.376 -0.0090  0.1545  0.1323
    1PPC    NC368974   8.616   3.564   2.912 -0.2303  0.0509 -0.0941
    1PPC    PO468975   8.824   3.331   3.403 -0.0182 -0.3019  0.1715
    1PPC    GL168976   8.622   3.264   3.797  0.1738  0.1999 -0.0173
    1PPC    GL268977   8.329   3.198   3.980 -0.0621  0.1858 -0.2776
    1PPC    C1B68978   8.306   2.909   4.391  0.0080  0.1500 -0.1896
    1PPC    C2B68979   8.538   2.986   4.755 -0.1773  0.0686  0.1137
    1PPC    C3B68980   8.643   3.337   5.126 -0.3253 -0.0502 -0.2412
    1PPC    C4B68981   8.846   3.670   5.342  0.3547 -0.5309 -0.2103
    1PPC    NC368982   8.611   4.382   3.248 -0.0137  0.3992 -0.1123
    1PPC    PO468983   8.667   4.036   3.015  0.1017 -0.2166  0.3313
    1PPC    GL168984   8.721   3.947   3.492  0.1246  0.1112 -0.3578
    1PPC    GL268985   8.679   3.806   3.742  0.4762  0.1093  0.2618
    1PPC    C1B68986   8.647   3.994   4.106  0.1715 -0.1268 -0.1185
    1PPC    C2B68987   8.714   3.933   4.463  0.0782 -0.0785  0.0314
    1PPC    C3B68988   8.654   3.891   4.858  0.2377 -0.2529  0.0465
    1PPC    C4B68989   8.509   4.064   5.294  0.1152 -0.2486 -0.0008
    1PPC    NC368990  28.179  24.310   2.653  0.2235 -0.0864 -0.1533
    1PPC    PO468991  28.243  24.737   2.892  0.2526  0.0746 -0.1725
    1PPC    GL168992  28.116  24.956   3.217  0.1145  0.0004  0.4481
    1PPC    GL268993  27.902  25.137   3.396 -0.4392 -0.1260  0.0656
    1PPC    C1B68994  27.799  25.594   3.606  0.0166 -0.5090  0.0264
    1PPC    C2B68995  27.636  25.750   3.978  0.1492  0.0222  0.0248
    1PPC    C3B68996  27.646  25.725   4.341  0.0145 -0.2598  0.0780
    1PPC    C4B68997  27.645  25.413   4.628 -0.0873  0.2436 -0.0858
    1PPC    NC368998   7.453   9.133   3.179  0.0556  0.1409  0.0680
    1PPC    PO468999   6.988   9.194   3.226  0.1505 -0.3653 -0.0685
    1PPC    GL169000   7.023   9.414   3.691 -0.1536  0.0344  0.0437
    1PPC    GL269001   7.243   9.420   3.912  0.2710  0.1749  0.0430
    1PPC    C1B69002   7.489   9.501   4.238  0.1317  0.2841  0.4132
    1PPC    C2B69003   7.517   9.431   4.700  0.3237 -0.1524 -0.1924
    1PPC    C3B69004   7.453   9.606   5.095  0.0774 -0.0095  0.0528
    1PPC    C4B69005   7.401   9.519   5.517  0.0093 -0.2626 -0.0940
    1PPC    NC369006  19.031  22.983   3.513 -0.1605  0.4090  0.0044
    1PPC    PO469007  19.199  23.326   3.503 -0.0419 -0.2610  0.0728
    1PPC    GL169008  19.319  23.509   3.879  0.2369  0.3722 -0.1687
    1PPC    GL269009  19.403  23.464   4.161  0.1718  0.0362  0.1358
    1PPC    C1B69010  19.228  23.232   4.505  0.3573 -0.2189 -0.1898
    1PPC    C2B69011  19.075  22.834   4.516  0.0188  0.2981  0.1355
    1PPC    C3B69012  18.989  22.497   4.905 -0.0069  0.1465 -0.1255
    1PPC    C4B69013  19.120  22.139   5.203 -0.1559 -0.0807  0.1943
    1PPC    NC369014   7.623  16.580   1.704 -0.1729  0.0022  0.0446
    1PPC    PO469015   7.707  16.176   1.926 -0.0020  0.1184  0.0136
    1PPC    GL169016   7.506  16.158   2.417  0.1690 -0.1678  0.1287
    1PPC    GL269017   7.219  16.181   2.658  0.0737  0.0350 -0.1044
    1PPC    C1B69018   7.045  16.064   3.084 -0.1360  0.1302  0.1155
    1PPC    C2B69019   6.916  16.191   3.521  0.2594 -0.0261  0.1648
    1PPC    C3B69020   7.011  16.364   4.041  0.0941 -0.2008 -0.0380
    1PPC    C4B69021   6.929  16.758   4.343  0.2969  0.1290 -0.0516
    1PPC    NC369022   7.356  24.749   2.073  0.1454  0.2956  0.2130
    1PPC    PO469023   7.032  24.449   2.117 -0.1963  0.0311  0.0607
    1PPC    GL169024   6.815  24.238   2.395  0.1157 -0.1092  0.1668
    1PPC    GL269025   6.750  24.142   2.809  0.2519  0.0579  0.0566
    1PPC    C1B69026   6.680  23.930   3.133  0.2144  0.1879 -0.1479
    1PPC    C2B69027   6.631  23.729   3.455 -0.0789  0.2809  0.0798
    1PPC    C3B69028   6.411  23.484   3.765  0.3171  0.2068 -0.0772
    1PPC    C4B69029   5.936  23.461   3.905  0.0672 -0.3692 -0.0894
    1PPC    NC369030  25.382  10.297   2.453 -0.2496 -0.1819  0.1471
    1PPC    PO469031  25.276  10.492   2.747 -0.1054 -0.0677 -0.0180
    1PPC    GL169032  25.037  10.568   3.183  0.0677  0.1893 -0.1897
    1PPC    GL269033  24.882  10.415   3.365  0.0026 -0.1370 -0.0167
    1PPC    C1B69034  24.912  10.107   3.611  0.1765  0.2051 -0.0882
    1PPC    C2B69035  24.456   9.938   3.736  0.0052  0.1952  0.2473
    1PPC    C3B69036  24.051  10.114   3.973 -0.4929  0.0088 -0.0318
    1PPC    C4B69037  23.968  10.489   4.031  0.2960  0.0836  0.0721
    1PPC    NC369038   1.426   7.125   1.961 -0.2069 -0.1454 -0.1279
    1PPC    PO469039   1.390   7.461   2.232  0.3456  0.1406 -0.5340
    1PPC    GL169040   1.207   7.715   2.653 -0.0607  0.0289  0.2154
    1PPC    GL269041   1.009   7.709   2.879  0.3214  0.2825 -0.1386
    1PPC    C1B69042   0.852   7.647   3.337  0.0629 -0.0134 -0.0273
    1PPC    C2B69043   0.743   7.584   3.753 -0.2190  0.1292  0.0371
    1PPC    C3B69044   0.680   7.322   4.096  0.1327 -0.1218 -0.2691
    1PPC    C4B69045   0.891   7.040   4.329 -0.0132  0.2036 -0.0992
    1PPC    NC369046  27.264   1.556   2.584 -0.0030  0.3623 -0.1106
    1PPC    PO469047  27.055   1.322   2.875  0.2768 -0.4110  0.0422
    1PPC    GL169048  27.319   1.711   3.131  0.0188 -0.0977  0.1147
    1PPC    GL269049  27.381   1.847   3.425 -0.0742 -0.0466 -0.4564
    1PPC    C1B69050  27.588   1.779   3.833 -0.0272 -0.2808  0.2182
    1PPC    C2B69051  27.320   1.570   4.060 -0.0664  0.1191  0.1054
    1PPC    C3B69052  27.314   1.550   4.474  0.2865 -0.0559  0.2244
    1PPC    C4B69053  27.421   1.648   4.908 -0.0980 -0.1339 -0.0012
    1PPC    NC369054  21.777   7.076   2.369  0.0881 -0.5194  0.0691
    1PPC    PO469055  21.948   7.346   2.735  0.0983 -0.0656  0.1150
    1PPC    GL169056  22.119   7.561   3.138  0.1779  0.0000 -0.3348
    1PPC    GL269057  21.964   7.692   3.365 -0.1355  0.1394 -0.1889
    1PPC    C1B69058  21.892   7.919   3.852 -0.0395  0.2059 -0.1442
    1PPC    C2B69059  21.773   8.146   4.242 -0.1621 -0.1260 -0.1634
    1PPC    C3B69060  21.728   8.678   4.417  0.0935  0.2875  0.0021
    1PPC    C4B69061  21.767   9.035   4.483  0.1890  0.3893 -0.1420
    1PPC    NC369062   8.181   8.615   3.190  0.4702 -0.3061 -0.1483
    1PPC    PO469063   7.850   8.971   3.369 -0.0118  0.0016 -0.0007
    1PPC    GL169064   7.758   8.615   3.746  0.2390  0.0378 -0.0066
    1PPC    GL269065   7.729   8.534   4.114  0.0199  0.3943  0.2266
    1PPC    C1B69066   7.611   8.686   4.498 -0.0070  0.0425  0.1693
    1PPC    C2B69067   7.423   8.965   4.747 -0.3884 -0.0154 -0.0444
    1PPC    C3B69068   7.531   9.001   5.085 -0.4685  0.1492 -0.1245
    1PPC    C4B69069   7.880   9.156   5.322  0.1812 -0.2287  0.0831
    1PPC    NC369070   3.206  26.336   2.550 -0.2057 -0.2696  0.0376
    1PPC    PO469071   3.149  25.942   2.656  0.2021 -0.2111  0.3046
    1PPC    GL169072   3.289  25.888   3.088 -0.0661  0.0524  0.0898
    1PPC    GL269073   3.530  25.761   3.261  0.1632 -0.0392  0.2138
    1PPC    C1B69074   3.696  25.902   3.625 -0.0545 -0.0265  0.1586
    1PPC    C2B69075   3.560  26.132   3.947 -0.2750 -0.1757  0.0419
    1PPC    C3B69076   3.625  26.397   4.150 -0.0675  0.0833  0.0106
    1PPC    C4B69077   3.628  26.784   4.222  0.4730 -0.0808 -0.0098
    1PPC    NC369078  26.836   1.884   2.819 -0.0827  0.1644  0.1542
    1PPC    PO469079  27.004   2.110   3.229  0.0272  0.3151  0.0669
    1PPC    GL169080  26.717   2.106   3.487 -0.4281 -0.2914 -0.1985
    1PPC    GL269081  26.441   2.165   3.558  0.1160  0.1964 -0.0338
    1PPC    C1B69082  26.068   2.305   3.774  0.3273 -0.0142  0.2047
    1PPC    C2B69083  25.610   2.205   3.989  0.1506 -0.3631 -0.1805
    1PPC    C3B69084  25.212   2.366   4.166  0.0475 -0.3163  0.1796
    1PPC    C4B69085  24.805   2.405   4.060 -0.0695  0.0307  0.1326
    1PPC    NC369086   3.763  12.334   2.664  0.3915 -0.1885  0.0994
    1PPC    PO469087   3.381  12.718   2.746  0.0098  0.0461  0.0989
    1PPC    GL169088   3.439  12.535   3.016  0.4161 -0.1881 -0.1950
    1PPC    GL269089   3.428  12.507   3.303  0.1914  0.3179  0.0520
    1PPC    C1B69090   3.384  12.224   3.668  0.2398 -0.1729  0.1056
    1PPC    C2B69091   3.500  12.118   4.061 -0.0683  0.2782  0.4006
    1PPC    C3B69092   3.509  12.196   4.429  0.0234 -0.0059 -0.1335
    1PPC    C4B69093   3.656  11.917   4.719 -0.4024  0.1386 -0.2064
    1PPC    NC369094  21.280  19.552   3.356 -0.0976 -0.0072  0.2197
    1PPC    PO469095  21.356  20.044   3.354 -0.1981 -0.3820  0.1200
    1PPC    GL169096  21.391  20.238   3.691 -0.1366 -0.0023  0.2107
    1PPC    GL269097  21.534  20.250   3.902  0.0740  0.2662 -0.1475
    1PPC    C1B69098  21.507  20.213   4.302 -0.0105  0.1411 -0.3396
    1PPC    C2B69099  21.528  20.044   4.685 -0.3239  0.1628 -0.1918
    1PPC    C3B69100  21.598  20.151   5.055  0.4762  0.0392 -0.1666
    1PPC    C4B69101  21.655  20.211   5.482 -0.0556  0.1636 -0.0844
    1PPC    NC369102  10.611   5.278   3.110 -0.2974 -0.2119  0.0064
    1PPC    PO469103  11.030   5.404   3.112  0.2449  0.0573  0.0976
    1PPC    GL169104  10.943   5.818   3.370  0.0224  0.1480 -0.2005
    1PPC    GL269105  10.984   5.928   3.654  0.3251 -0.2107 -0.0268
    1PPC    C1B69106  10.918   6.163   3.975  0.2702  0.1841  0.0929
    1PPC    C2B69107  10.849   6.290   4.367 -0.0096  0.0159  0.0302
    1PPC    C3B69108  11.140   6.461   4.639 -0.0206 -0.0927  0.0978
    1PPC    C4B69109  11.506   6.376   4.995 -0.0733 -0.1241  0.0700
    1PPC    NC369110   1.467  12.673   2.432 -0.2500 -0.1075 -0.0407
    1PPC    PO469111   0.994  12.525   2.557  0.1028  0.1430  0.3341
    1PPC    GL169112   0.868  12.157   2.765 -0.0410 -0.0499 -0.0940
    1PPC    GL269113   0.694  11.940   2.816  0.1742 -0.0802  0.0287
    1PPC    C1B69114   0.639  11.853   3.267 -0.0516  0.1239  0.1138
    1PPC    C2B69115   0.412  12.128   3.576  0.3137 -0.2594  0.1917
    1PPC    C3B69116   0.197  12.603   3.623 -0.0164  0.1042 -0.0449
    1PPC    C4B69117   0.340  12.977   3.768  0.1387  0.2294 -0.3504
    1PPC    NC369118  20.925   6.839   3.218 -0.1528  0.2829 -0.0180
    1PPC    PO469119  20.666   6.881   3.493  0.1039  0.1061 -0.1772
    1PPC    GL169120  20.847   7.151   3.826 -0.0225  0.1304 -0.1577
    1PPC    GL269121  21.129   7.399   3.933 -0.3818  0.1483  0.0593
    1PPC    C1B69122  21.503   7.704   4.091  0.0335  0.1884 -0.1085
    1PPC    C2B69123  21.488   7.864   4.555 -0.0537  0.1175 -0.0312
    1PPC    C3B69124  21.652   8.232   4.722  0.0402  0.2784  0.2510
    1PPC    C4B69125  21.906   8.643   4.932 -0.3921 -0.2611  0.0476
    1PPC    NC369126   4.747   3.471   2.057 -0.1394 -0.0790 -0.1765
    1PPC    PO469127   4.859   3.462   2.577  0.2566  0.1783 -0.2183
    1PPC    GL169128   4.827   3.115   2.895 -0.0491 -0.0024 -0.1709
    1PPC    GL269129   4.630   2.791   3.130 -0.2995  0.0498  0.0215
    1PPC    C1B69130   4.366   2.742   3.542  0.0665  0.2121 -0.1949
    1PPC    C2B69131   4.170   2.389   3.689 -0.0140  0.1415 -0.0166
    1PPC    C3B69132   4.309   1.926   3.898 -0.0060  0.2059 -0.1261
    1PPC    C4B69133   4.605   1.466   4.030 -0.3766  0.0409  0.3216
    1PPC    NC369134  24.791  23.274   2.321  0.0165  0.0182 -0.0529
    1PPC    PO469135  24.459  23.564   2.617  0.1410 -0.0532 -0.0648
    1PPC    GL169136  24.501  23.385   3.085 -0.0920 -0.3335 -0.0109
    1PPC    GL269137  24.367  23.534   3.302  0.0662 -0.2395  0.1313
    1PPC    C1B69138  24.192  23.483   3.788 -0.0854 -0.0095  0.0515
    1PPC    C2B69139  24.011  23.291   4.175  0.0076  0.0081  0.0954
    1PPC    C3B69140  23.797  23.178   4.592 -0.1803 -0.0668  0.1126
    1PPC    C4B69141  23.976  23.125   5.000  0.2354  0.0010 -0.2166
    1PPC    NC369142  26.438  24.247   2.962 -0.1505  0.0473 -0.2447
    1PPC    PO469143  26.065  24.257   3.212  0.1981 -0.0400  0.0980
    1PPC    GL169144  25.773  24.436   3.463 -0.1714  0.0614  0.0234
    1PPC    GL269145  25.671  24.642   3.707 -0.2952  0.1716 -0.0090
    1PPC    C1B69146  25.423  24.499   4.124  0.2872 -0.0171 -0.2918
    1PPC    C2B69147  25.276  24.386   4.546  0.0673 -0.0832  0.0820
    1PPC    C3B69148  25.057  24.461   4.888  0.2028  0.1364 -0.3249
    1PPC    C4B69149  25.179  24.554   5.321 -0.1667 -0.0335 -0.0792
    1PPC    NC369150   0.904   9.432   2.004  0.1531 -0.0200  0.1012
    1PPC    PO469151   1.029   9.029   2.176  0.1259  0.1150 -0.0700
    1PPC    GL169152   1.283   9.303   2.502 -0.0919 -0.0524 -0.2689
    1PPC    GL269153   1.217   9.520   2.750 -0.0389 -0.0516 -0.1733
    1PPC    C1B69154   1.124   9.565   3.221 -0.1143  0.0446  0.0465
    1PPC    C2B69155   0.997   9.841   3.493 -0.0534  0.2787  0.0595
    1PPC    C3B69156   0.978   9.820   4.027 -0.2610 -0.1062  0.0490
    1PPC    C4B69157   1.305   9.676   4.254 -0.1877  0.0888 -0.0261
    1PPC    NC369158  24.630  25.677   2.871  0.1242 -0.2319  0.2655
    1PPC    PO469159  25.044  25.748   2.943  0.2847  0.0074  0.2294
    1PPC    GL169160  25.426  25.891   3.141 -0.0424 -0.0839  0.5435
    1PPC    GL269161  25.481  26.069   3.493  0.0393 -0.0042 -0.0494
    1PPC    C1B69162  25.783  26.260   3.819  0.1172  0.1415 -0.3766
    1PPC    C2B69163  25.745  26.165   4.300  0.2289  0.1211  0.0121
    1PPC    C3B69164  25.867  25.908   4.563  0.0646  0.1317  0.1722
    1PPC    C4B69165  26.000  25.726   4.916 -0.1441 -0.0663  0.2042
    1PPC    NC369166   0.843   2.942   2.625 -0.1812  0.0842 -0.0159
    1PPC    PO469167   0.675   2.417   2.816  0.0075 -0.0346 -0.1258
    1PPC    GL169168   0.322   2.445   3.102  0.2019 -0.3148  0.0651
    1PPC    GL269169   0.236   2.656   3.386 -0.3825  0.4953  0.1861
    1PPC    C1B69170   0.459   3.010   3.642  0.1806 -0.2317  0.0957
    1PPC    C2B69171   0.509   3.384   4.004 -0.0815  0.0022  0.1834
    1PPC    C3B69172   0.622   3.530   4.465  0.0054  0.1581 -0.0240
    1PPC    C4B69173   0.815   3.271   4.692 -0.2727 -0.1919 -0.2012
    1PPC    NC369174  20.107  19.938   3.156  0.0833 -0.0038  0.0577
    1PPC    PO469175  19.733  20.147   3.206  0.2543  0.0250 -0.0909
    1PPC    GL169176  19.797  20.112   3.618  0.2906  0.0569 -0.0435
    1PPC    GL269177  20.069  19.961   3.847 -0.2678 -0.0688 -0.1502
    1PPC    C1B69178  20.433  20.203   4.189 -0.1047 -0.0805  0.2637
    1PPC    C2B69179  20.552  20.126   4.627 -0.0770 -0.2722  0.3717
    1PPC    C3B69180  20.674  19.765   4.880  0.0898  0.1482  0.2463
    1PPC    C4B69181  20.635  19.301   4.972  0.1154  0.1993  0.2528
    1PPC    NC369182   3.027  15.827   2.402 -0.3004  0.1098  0.2549
    1PPC    PO469183   3.518  16.024   2.476  0.0559  0.2068  0.2250
    1PPC    GL169184   3.543  16.228   2.818 -0.0796 -0.1965  0.0524
    1PPC    GL269185   3.496  16.216   3.205 -0.1324  0.0194  0.2119
    1PPC    C1B69186   3.101  16.256   3.388 -0.1914  0.0563 -0.1439
    1PPC    C2B69187   2.782  16.051   3.518  0.1460  0.1729 -0.2275
    1PPC    C3B69188   2.517  16.033   3.910  0.2175  0.1354 -0.1456
    1PPC    C4B69189   2.173  15.834   4.305  0.3451  0.0758 -0.1007
    1PPC    NC369190  11.059   3.280   3.902 -0.1243  0.1560 -0.0255
    1PPC    PO469191  10.808   3.655   3.861  0.4217  0.0485 -0.1957
    1PPC    GL169192  10.938   3.687   4.228  0.1740  0.0840 -0.0800
    1PPC    GL269193  11.028   3.815   4.576  0.1171 -0.0740  0.0457
    1PPC    C1B69194  11.007   3.836   4.969  0.1552 -0.1419  0.1768
    1PPC    C2B69195  10.999   3.610   5.307 -0.0853 -0.1174 -0.2341
    1PPC    C3B69196  11.109   3.413   5.620  0.1625  0.0116 -0.2641
    1PPC    C4B69197  11.292   3.198   5.996 -0.2008  0.0477  0.3548
    1PPC    NC369198   7.736   7.290   2.840 -0.1632 -0.3166 -0.2366
    1PPC    PO469199   7.691   7.171   3.255  0.1067  0.2143  0.2707
    1PPC    GL169200   7.344   7.127   3.507  0.2018 -0.0041 -0.3193
    1PPC    GL269201   7.137   7.082   3.728 -0.1832 -0.1762  0.1455
    1PPC    C1B69202   7.375   7.333   4.020  0.0178 -0.0922  0.1105
    1PPC    C2B69203   7.825   7.173   4.196 -0.2162  0.1754  0.0577
    1PPC    C3B69204   8.289   7.080   4.149 -0.0110  0.2489 -0.1160
    1PPC    C4B69205   8.659   7.337   4.033  0.0741  0.1033  0.3110
    1PPC    NC369206  12.878  23.851   2.454 -0.3908 -0.1306 -0.2345
    1PPC    PO469207  13.264  23.984   2.812  0.1246  0.2557 -0.1157
    1PPC    GL169208  13.409  23.827   3.227  0.3274 -0.0629  0.0413
    1PPC    GL269209  13.394  23.953   3.478 -0.1442 -0.0972  0.2985
    1PPC    C1B69210  13.242  23.849   3.928  0.0719  0.0647 -0.0523
    1PPC    C2B69211  13.138  23.506   4.232 -0.0546 -0.2457  0.0858
    1PPC    C3B69212  12.978  23.301   4.654 -0.1606  0.0322  0.0482
    1PPC    C4B69213  12.654  23.174   4.979 -0.0393 -0.1984  0.2202
    1PPC    NC369214  25.455  27.137   2.371  0.1454  0.2461 -0.0889
    1PPC    PO469215  25.096  27.185   2.597  0.1454 -0.1570 -0.3380
    1PPC    GL169216  24.967  27.131   3.034  0.1353 -0.1340 -0.1654
    1PPC    GL269217  24.701  27.098   3.325 -0.2505  0.1326  0.1015
    1PPC    C1B69218  24.427  27.291   3.638 -0.1952 -0.1712  0.0100
    1PPC    C2B69219  24.231  27.372   4.023 -0.3261 -0.2895  0.2519
    1PPC    C3B69220  24.004  27.096   4.340 -0.1234  0.2463 -0.3519
    1PPC    C4B69221  23.731  27.060   4.699 -0.2115  0.0440 -0.2018
    1PPC    NC369222  24.234  20.511   2.562  0.0402  0.0633 -0.0804
    1PPC    PO469223  24.155  20.128   2.690  0.0418  0.0718  0.2241
    1PPC    GL169224  23.909  19.816   2.893 -0.2350 -0.0446 -0.0485
    1PPC    GL269225  23.829  19.752   3.169  0.1681  0.1758 -0.0372
    1PPC    C1B69226  23.808  19.607   3.667 -0.3165 -0.0779  0.2218
    1PPC    C2B69227  23.818  19.355   3.996  0.4739  0.2030  0.0021
    1PPC    C3B69228  23.898  19.166   4.390  0.0817  0.2038 -0.0571
    1PPC    C4B69229  24.061  19.247   4.870 -0.0751 -0.3957  0.1941
    1PPC    NC369230  10.027  22.509   2.464 -0.0347 -0.1587  0.0970
    1PPC    PO469231   9.778  22.268   2.195 -0.0529 -0.0510  0.1113
    1PPC    GL169232   9.627  22.160   2.565  0.2494  0.0397 -0.1650
    1PPC    GL269233   9.616  22.025   2.713 -0.1246 -0.3043  0.1734
    1PPC    C1B69234   9.658  22.150   3.117 -0.0445  0.1245  0.2673
    1PPC    C2B69235   9.651  22.439   3.410  0.0939  0.0432 -0.0369
    1PPC    C3B69236   9.734  22.613   3.718 -0.1434  0.2568 -0.1706
    1PPC    C4B69237  10.097  22.606   4.050  0.0942 -0.1092 -0.3848
    1PPC    NC369238  20.454   0.331   2.532 -0.0554  0.4797  0.1160
    1PPC    PO469239  20.346   0.538   2.850  0.1429  0.0415  0.3656
    1PPC    GL169240  20.477   0.297   3.233 -0.0558 -0.4271 -0.0564
    1PPC    GL269241  20.497   0.165   3.510  0.2750 -0.0637  0.2956
    1PPC    C1B69242  20.711   0.270   3.880 -0.0076 -0.0192  0.0661
    1PPC    C2B69243  20.639   0.548   4.340 -0.1950 -0.3653  0.3556
    1PPC    C3B69244  20.759   0.859   4.664  0.1010  0.0401 -0.0174
    1PPC    C4B69245  20.556   1.193   4.854  0.0089  0.1855  0.2698
    1PPC    NC369246  17.171   6.583   3.199 -0.2119  0.0826  0.0722
    1PPC    PO469247  16.758   6.629   3.316 -0.1048  0.0180 -0.2406
    1PPC    GL169248  16.803   6.799   3.741 -0.0187  0.0289 -0.1539
    1PPC    GL269249  16.732   6.685   4.099  0.2646 -0.1136  0.0761
    1PPC    C1B69250  16.837   6.492   4.485 -0.0751  0.1790  0.3527
    1PPC    C2B69251  16.761   6.256   4.813 -0.0642  0.1977 -0.0402
    1PPC    C3B69252  16.624   6.317   5.251 -0.0732  0.1829 -0.1790
    1PPC    C4B69253  16.244   6.604   5.444 -0.1391  0.2455 -0.0369
    1PPC    NC369254   2.033  13.783   1.861 -0.0805  0.3589 -0.0086
    1PPC    PO469255   2.380  13.890   2.276 -0.0183 -0.0166  0.1655
    1PPC    GL169256   2.230  13.871   2.640 -0.1219  0.3187  0.0534
    1PPC    GL269257   2.378  13.830   2.965  0.0916  0.1980 -0.1856
    1PPC    C1B69258   2.193  13.720   3.385  0.1962 -0.1291  0.2696
    1PPC    C2B69259   2.164  13.618   3.913 -0.0750 -0.0182  0.1204
    1PPC    C3B69260   2.074  13.721   4.362  0.1382 -0.1162 -0.2697
    1PPC    C4B69261   2.334  13.521   4.496 -0.0987 -0.1533 -0.0274
    1PPC    NC369262  24.927   6.782   2.060  0.0866  0.0926  0.0115
    1PPC    PO469263  24.595   6.915   2.272  0.0104 -0.1700 -0.1310
    1PPC    GL169264  24.913   6.964   2.537 -0.2125  0.0059  0.2143
    1PPC    GL269265  25.107   6.749   2.735  0.1600  0.0029 -0.0958
    1PPC    C1B69266  25.092   6.730   3.179  0.1168  0.0221 -0.2217
    1PPC    C2B69267  25.184   6.919   3.493  0.0477  0.1562  0.0779
    1PPC    C3B69268  25.421   6.925   3.900 -0.2073 -0.0993  0.0241
    1PPC    C4B69269  25.885   6.761   3.855 -0.0654  0.1964  0.1441
    1PPC    NC369270   4.935  11.467   2.823  0.0447 -0.1242 -0.0513
    1PPC    PO469271   4.946  11.779   3.219  0.0908  0.2552  0.0195
    1PPC    GL169272   4.637  11.818   3.484 -0.3325  0.0699  0.2059
    1PPC    GL269273   4.327  11.857   3.616  0.3753  0.2575  0.2318
    1PPC    C1B69274   4.089  11.863   3.995 -0.3569  0.0286  0.1279
    1PPC    C2B69275   3.818  11.601   4.292 -0.0122  0.1623  0.0889
    1PPC    C3B69276   3.738  11.333   4.813  0.3505  0.0822 -0.1762
    1PPC    C4B69277   3.872  11.416   5.266  0.0196 -0.2275 -0.1913
    1PPC    NC369278   6.356  28.655   3.588 -0.3095 -0.2136 -0.0361
    1PPC    PO469279   6.632  29.010   3.725 -0.2796  0.1976  0.0597
    1PPC    GL169280   6.227  28.954   3.974  0.2109  0.1620  0.3350
    1PPC    GL269281   5.969  29.008   4.143 -0.3103  0.2515 -0.4253
    1PPC    C1B69282   5.841  29.214   4.512 -0.0832 -0.0827 -0.2904
    1PPC    C2B69283   5.568  29.122   4.846 -0.0243  0.2655  0.2549
    1PPC    C3B69284   5.391  29.389   5.120 -0.0360 -0.0431  0.1842
    1PPC    C4B69285   5.184  29.292   5.461  0.0096  0.1893 -0.3292
    1PPC    NC369286   7.969  21.444   2.206 -0.2720 -0.1715  0.1144
    1PPC    PO469287   7.669  21.054   2.443  0.1912  0.2698  0.0959
    1PPC    GL169288   7.770  20.703   2.704  0.1721  0.0432  0.0094
    1PPC    GL269289   7.709  20.476   2.823 -0.0493  0.2174  0.0876
    1PPC    C1B69290   7.359  20.280   3.142  0.2522 -0.2510  0.0726
    1PPC    C2B69291   7.279  20.296   3.417 -0.1034  0.1149  0.0065
    1PPC    C3B69292   6.951  20.246   3.603  0.3493  0.2218 -0.1576
    1PPC    C4B69293   6.812  20.369   3.976 -0.1491 -0.1491  0.1514
    1PPC    NC369294   7.793   4.473   3.505  0.3716  0.0233 -0.1194
    1PPC    PO469295   8.116   4.380   3.205 -0.2086 -0.1732 -0.1519
    1PPC    GL169296   8.256   4.102   3.390 -0.0058  0.3302 -0.0051
    1PPC    GL269297   8.270   4.068   3.723 -0.0421 -0.0513  0.1035
    1PPC    C1B69298   7.938   3.975   4.052  0.0905  0.0395 -0.0987
    1PPC    C2B69299   7.742   3.645   4.365 -0.0691  0.3951  0.1328
    1PPC    C3B69300   7.762   3.656   4.765 -0.2315 -0.1025 -0.0250
    1PPC    C4B69301   7.802   3.578   5.153 -0.0866 -0.1309 -0.4248
    1PPC    NC369302  21.556  28.661   2.811 -0.2889 -0.0903 -0.1518
    1PPC    PO469303  21.618  28.353   3.089  0.3352 -0.3730  0.3400
    1PPC    GL169304  21.667  28.562   3.519 -0.2823  0.0794 -0.0152
    1PPC    GL269305  21.902  28.323   3.630  0.0698  0.0209 -0.1973
    1PPC    C1B69306  22.235  28.066   3.750  0.1203 -0.4641  0.0760
    1PPC    C2B69307  22.324  28.020   4.157  0.1020 -0.1062 -0.0602
    1PPC    C3B69308  22.267  27.817   4.570 -0.2582  0.2278 -0.0503
    1PPC    C4B69309  22.289  27.930   5.055 -0.1525 -0.2696  0.1797
    1PPC    NC369310   4.250   5.500   2.681  0.1001  0.0342  0.0395
    1PPC    PO469311   4.596   5.250   2.821 -0.1372  0.0910  0.4549
    1PPC    GL169312   4.331   5.414   3.216  0.1247  0.0091 -0.0484
    1PPC    GL269313   4.096   5.476   3.558 -0.0529 -0.1654 -0.1150
    1PPC    C1B69314   4.169   5.588   4.005 -0.2269 -0.0934 -0.0483
    1PPC    C2B69315   4.442   5.363   4.301  0.0251 -0.3033  0.2540
    1PPC    C3B69316   4.441   5.095   4.662 -0.0179 -0.1567 -0.3276
    1PPC    C4B69317   4.042   4.921   4.992 -0.2846  0.1214 -0.0930
    1PPC    NC369318   6.512   4.731   2.850 -0.0760 -0.0225 -0.1636
    1PPC    PO469319   6.756   4.688   3.106 -0.0479 -0.1508 -0.1033
    1PPC    GL169320   6.630   4.309   3.302  0.1650 -0.1208 -0.0953
    1PPC    GL269321   6.542   4.199   3.645  0.1344 -0.2129  0.1554
    1PPC    C1B69322   6.443   3.861   3.991  0.0143 -0.1320  0.1444
    1PPC    C2B69323   6.810   3.692   4.212 -0.3258  0.0468  0.1614
    1PPC    C3B69324   6.898   3.544   4.632  0.0207  0.3309  0.0904
    1PPC    C4B69325   7.011   3.982   4.916  0.2750  0.0109 -0.0815
    1PPC    NC369326  17.095   4.875   3.301  0.3432  0.0629  0.0597
    1PPC    PO469327  17.030   4.445   3.371  0.1903  0.0449 -0.0159
    1PPC    GL169328  17.158   4.656   3.756 -0.3385  0.1036 -0.2103
    1PPC    GL269329  17.058   4.781   4.077  0.0124 -0.0036 -0.0081
    1PPC    C1B69330  17.026   4.560   4.506  0.2247  0.0573 -0.0273
    1PPC    C2B69331  17.191   4.831   4.947 -0.0034 -0.0562 -0.0864
    1PPC    C3B69332  17.378   4.986   5.302 -0.3895 -0.0024  0.1125
    1PPC    C4B69333  17.537   4.931   5.690  0.0067 -0.1187  0.0042
    1PPC    NC369334  28.718  17.263   1.504 -0.1625 -0.1633 -0.0900
    1PPC    PO469335  28.776  17.102   1.932 -0.2449 -0.1232  0.1006
    1PPC    GL169336  28.874  17.184   2.311  0.0647 -0.0413 -0.1855
    1PPC    GL269337  29.078  17.017   2.528 -0.0064 -0.0084 -0.0834
    1PPC    C1B69338  29.228  17.087   2.974 -0.2775  0.0290  0.0266
    1PPC    C2B69339  29.339  16.815   3.284 -0.2493  0.0032  0.3206
    1PPC    C3B69340  29.460  16.781   3.620 -0.2010 -0.0760  0.0622
    1PPC    C4B69341  29.652  16.740   4.073  0.3726 -0.0496 -0.3880
    1PPC    NC369342  20.660   9.339   2.962 -0.1962 -0.1808  0.2025
    1PPC    PO469343  20.825   9.470   3.278  0.2439  0.0117  0.2802
    1PPC    GL169344  21.100   9.537   3.628  0.0911 -0.0761  0.0655
    1PPC    GL269345  21.247   9.720   3.948 -0.0617  0.1045 -0.1548
    1PPC    C1B69346  21.096   9.971   4.243  0.0686 -0.2154 -0.0681
    1PPC    C2B69347  20.940  10.027   4.640 -0.0324  0.1088 -0.0428
    1PPC    C3B69348  20.736   9.845   4.891 -0.0452  0.0924 -0.0902
    1PPC    C4B69349  20.374   9.787   5.022 -0.1254  0.0765  0.0545
    1PPC    NC369350   5.487  27.188   3.415  0.0251 -0.0002  0.0649
    1PPC    PO469351   5.188  27.141   3.080 -0.2887 -0.1951  0.2365
    1PPC    GL169352   4.839  27.392   3.210 -0.1984 -0.1014 -0.0485
    1PPC    GL269353   4.529  27.336   3.378 -0.0686 -0.0797 -0.0458
    1PPC    C1B69354   4.175  27.293   3.744  0.1935 -0.1923 -0.0585
    1PPC    C2B69355   4.008  27.199   4.079 -0.3256 -0.2434  0.1438
    1PPC    C3B69356   4.084  26.938   4.426  0.3238 -0.0857 -0.0874
    1PPC    C4B69357   4.164  26.786   4.800 -0.2340  0.3680 -0.1505
    1PPC    NC369358   7.634  21.756   2.022  0.1843 -0.4413 -0.0340
    1PPC    PO469359   7.673  21.748   2.472  0.0582  0.3151 -0.3205
    1PPC    GL169360   7.814  21.444   2.725  0.2367 -0.1388  0.0813
    1PPC    GL269361   7.725  21.167   2.902 -0.1595  0.0267 -0.0965
    1PPC    C1B69362   7.761  21.057   3.357  0.1331  0.1289  0.2032
    1PPC    C2B69363   7.873  20.888   3.762 -0.3208 -0.0964 -0.1794
    1PPC    C3B69364   7.622  20.599   3.967 -0.0316 -0.2637 -0.0763
    1PPC    C4B69365   7.336  20.333   3.985 -0.2159 -0.0821  0.0217
    1PPC    NC369366  19.857  25.167   3.750 -0.2375  0.0325 -0.1410
    1PPC    PO469367  20.244  25.020   3.517  0.0110  0.1907 -0.0790
    1PPC    GL169368  20.174  24.866   3.883  0.1565  0.3238  0.0633
    1PPC    GL269369  19.996  24.805   4.081 -0.1168  0.3138  0.0014
    1PPC    C1B69370  19.866  24.625   4.479  0.1161 -0.1330  0.0256
    1PPC    C2B69371  19.728  24.739   4.960  0.0665 -0.0393  0.0563
    1PPC    C3B69372  19.579  24.985   5.347  0.0358 -0.2462 -0.1603
    1PPC    C4B69373  19.467  25.167   5.778  0.0743 -0.3256 -0.0096
    1PPC    NC369374  17.390   3.544   3.596 -0.0890  0.3518  0.0941
    1PPC    PO469375  17.513   3.103   3.469  0.1615  0.3813 -0.0108
    1PPC    GL169376  17.682   3.160   3.800  0.1265  0.2387 -0.2513
    1PPC    GL269377  17.744   3.234   4.057  0.1508 -0.4683 -0.3823
    1PPC    C1B69378  17.907   3.239   4.449 -0.3301 -0.0807  0.1839
    1PPC    C2B69379  18.325   3.261   4.657  0.4483  0.2232 -0.1210
    1PPC    C3B69380  18.186   3.261   5.036  0.2794  0.1429 -0.1184
    1PPC    C4B69381  17.928   2.991   5.212 -0.1096  0.1329  0.0460
    1PPC    NC369382  20.766  20.745   2.938 -0.1043  0.1232  0.5312
    1PPC    PO469383  20.367  20.665   2.949  0.0977  0.0310  0.0169
    1PPC    GL169384  20.518  20.678   3.355 -0.3012  0.1059  0.0355
    1PPC    GL269385  20.592  20.623   3.711 -0.0298 -0.1871 -0.2495
    1PPC    C1B69386  20.697  20.672   4.165 -0.1931  0.0369 -0.1001
    1PPC    C2B69387  20.801  20.809   4.582 -0.0396 -0.4229 -0.1047
    1PPC    C3B69388  20.966  20.804   4.983  0.0368  0.1312  0.1324
    1PPC    C4B69389  21.094  21.148   5.203 -0.0283  0.2643 -0.0027
    1PPC    NC369390   6.887  11.436   2.932 -0.0022  0.1756  0.2205
    1PPC    PO469391   7.049  11.412   3.383 -0.3294 -0.1299  0.1411
    1PPC    GL169392   7.231  11.157   3.681  0.1401  0.1065 -0.0285
    1PPC    GL269393   7.182  10.965   3.863  0.0540  0.1647 -0.0117
    1PPC    C1B69394   7.271  10.710   4.267  0.1084 -0.3497  0.1121
    1PPC    C2B69395   7.410  10.801   4.639 -0.2593 -0.1674  0.0614
    1PPC    C3B69396   7.367  10.961   4.951 -0.1155 -0.2840  0.0323
    1PPC    C4B69397   7.377  11.018   5.387  0.0065  0.0685  0.4813
    1PPC    NC369398   6.131  18.197   1.375  0.0475  0.0184 -0.2849
    1PPC    PO469399   6.101  18.352   1.826  0.3083 -0.0853 -0.3080
    1PPC    GL169400   5.945  18.551   2.228  0.1263 -0.0501  0.4747
    1PPC    GL269401   5.787  18.561   2.554  0.0866 -0.0430  0.1617
    1PPC    C1B69402   5.676  18.701   2.946  0.3502  0.1341 -0.2952
    1PPC    C2B69403   5.477  19.007   3.003 -0.0368  0.0041  0.1306
    1PPC    C3B69404   5.753  19.292   3.306  0.1142 -0.0690 -0.2571
    1PPC    C4B69405   5.866  19.386   3.695 -0.0294 -0.1350 -0.0304
    1PPC    NC369406  13.559   1.127   3.390  0.2443  0.1735 -0.1749
    1PPC    PO469407  13.540   1.301   3.734  0.2769  0.1327 -0.0226
    1PPC    GL169408  13.637   1.149   4.118  0.0470  0.1685 -0.1099
    1PPC    GL269409  13.634   1.294   4.355  0.1084 -0.2398  0.0782
    1PPC    C1B69410  13.656   1.340   4.806 -0.0377 -0.0314 -0.1118
    1PPC    C2B69411  13.498   1.220   5.096  0.2278 -0.0117 -0.1065
    1PPC    C3B69412  13.635   1.121   5.590 -0.2233 -0.0117  0.2018
    1PPC    C4B69413  13.738   1.097   5.993 -0.2017 -0.0000 -0.0013
    1PPC    NC369414   5.017  10.762   2.883 -0.2041  0.1282  0.1538
    1PPC    PO469415   4.644  11.087   2.875 -0.1139  0.2459  0.2406
    1PPC    GL169416   4.590  11.341   3.257 -0.2458 -0.2379 -0.1340
    1PPC    GL269417   4.302  11.384   3.492 -0.0731  0.0412  0.1273
    1PPC    C1B69418   4.323  11.386   3.986 -0.0824 -0.1949 -0.1308
    1PPC    C2B69419   4.542  11.174   4.406  0.1812  0.2238 -0.2591
    1PPC    C3B69420   4.815  11.087   4.696  0.1004  0.0936 -0.0339
    1PPC    C4B69421   5.039  11.069   5.147 -0.0786 -0.0478  0.1483
    1PPC    NC369422  25.636  16.584   2.208  0.2554 -0.0529 -0.2252
    1PPC    PO469423  25.301  16.615   2.544  0.1099 -0.3100 -0.1403
    1PPC    GL169424  25.365  16.691   2.958 -0.0715  0.0677  0.0405
    1PPC    GL269425  25.289  16.851   3.199  0.2642  0.0100  0.1764
    1PPC    C1B69426  25.361  17.035   3.612  0.1045  0.1195 -0.0843
    1PPC    C2B69427  25.500  17.457   3.960  0.1217 -0.0251 -0.1635
    1PPC    C3B69428  25.362  17.604   4.365  0.0842  0.1782  0.1336
    1PPC    C4B69429  25.495  17.798   4.664 -0.1041  0.2374 -0.1454
    1PPC    NC369430  10.722   1.678   3.811  0.0635  0.3142 -0.2268
    1PPC    PO469431  10.840   1.215   3.786  0.0439  0.1616 -0.0630
    1PPC    GL169432  11.061   1.035   4.080  0.1246  0.1629  0.1540
    1PPC    GL269433  11.260   1.247   4.359 -0.2822  0.1385  0.1050
    1PPC    C1B69434  11.484   1.242   4.780  0.1956 -0.0611 -0.6010
    1PPC    C2B69435  11.582   1.156   5.210 -0.3212 -0.4049  0.1491
    1PPC    C3B69436  11.715   1.282   5.624  0.3973 -0.0096  0.2740
    1PPC    C4B69437  12.133   1.554   5.762  0.1606  0.0866 -0.1341
    1PPC    NC369438   4.470   7.894   2.898  0.0069  0.1137 -0.2474
    1PPC    PO469439   4.886   8.261   2.829  0.0703 -0.2118 -0.2232
    1PPC    GL169440   4.819   8.516   3.217  0.0100 -0.1440  0.0349
    1PPC    GL269441   4.721   8.573   3.452 -0.1409 -0.0256 -0.0528
    1PPC    C1B69442   4.570   8.694   3.817  0.0988 -0.0125  0.1749
    1PPC    C2B69443   4.150   8.902   3.945  0.0094 -0.0582 -0.3783
    1PPC    C3B69444   3.825   9.083   4.078  0.0869  0.0398 -0.0058
    1PPC    C4B69445   3.678   9.154   4.559 -0.1900 -0.0094  0.0676
    1PPC    NC369446  23.013   2.071   2.700 -0.3514 -0.2108  0.1208
    1PPC    PO469447  22.604   1.814   2.507  0.1241  0.3062 -0.2124
    1PPC    GL169448  22.348   1.757   2.862 -0.1819  0.0950  0.0198
    1PPC    GL269449  22.378   1.471   3.000  0.1000 -0.2637  0.0159
    1PPC    C1B69450  22.462   1.238   3.290  0.0069 -0.4377  0.0992
    1PPC    C2B69451  22.378   1.083   3.672  0.3402 -0.2458 -0.1732
    1PPC    C3B69452  22.501   0.896   4.001 -0.0433 -0.1034 -0.2337
    1PPC    C4B69453  22.727   0.465   3.989 -0.0931 -0.0755 -0.2002
    1PPC    NC369454   7.488   2.587   2.988 -0.0029  0.2816  0.3559
    1PPC    PO469455   7.678   2.924   3.221 -0.0028  0.1493 -0.2714
    1PPC    GL169456   7.569   3.327   3.391  0.0305  0.1846 -0.0301
    1PPC    GL269457   7.387   3.415   3.684 -0.0932 -0.0508  0.0125
    1PPC    C1B69458   7.047   3.205   3.990 -0.0039  0.1140 -0.1085
    1PPC    C2B69459   6.681   3.255   4.341  0.0710 -0.0375  0.1904
    1PPC    C3B69460   6.496   3.115   4.696  0.0671 -0.0851  0.1902
    1PPC    C4B69461   6.426   2.907   5.052  0.0484 -0.0742 -0.0412
    1PPC    NC369462  23.720  17.272   2.854 -0.1363  0.1243 -0.3761
    1PPC    PO469463  23.849  17.014   2.526 -0.1403 -0.1023 -0.2624
    1PPC    GL169464  23.850  16.784   2.912  0.1413  0.1033  0.0595
    1PPC    GL269465  23.611  16.806   3.111  0.1780 -0.0238 -0.1131
    1PPC    C1B69466  23.422  16.584   3.387 -0.0274 -0.0247 -0.0422
    1PPC    C2B69467  23.521  16.378   3.732  0.1226 -0.1408  0.1271
    1PPC    C3B69468  23.652  16.219   4.110  0.0035 -0.0286 -0.2248
    1PPC    C4B69469  23.509  16.077   4.521  0.1345  0.1019  0.2255
    1PPC    NC369470   8.926  18.644   2.473 -0.1396 -0.4346 -0.2865
    1PPC    PO469471   8.552  18.364   2.345  0.1875 -0.1306 -0.0479
    1PPC    GL169472   8.145  18.257   2.714  0.1030  0.0123 -0.2592
    1PPC    GL269473   8.029  18.059   2.964 -0.1065  0.1323 -0.1928
    1PPC    C1B69474   7.673  17.975   3.262 -0.0244 -0.2982  0.0183
    1PPC    C2B69475   7.580  18.131   3.627 -0.1470  0.1155  0.0706
    1PPC    C3B69476   7.552  18.461   3.871 -0.1644  0.1486  0.2046
    1PPC    C4B69477   7.236  18.775   4.027 -0.2534  0.1230 -0.0046
    1PPC    NC369478  26.418  24.711   2.419 -0.2145 -0.0404  0.1425
    1PPC    PO469479  26.592  24.692   2.784  0.3191  0.0172  0.2917
    1PPC    GL169480  26.730  24.666   3.267  0.0021  0.1625  0.2288
    1PPC    GL269481  26.798  24.623   3.614  0.3225 -0.2839 -0.1296
    1PPC    C1B69482  26.710  24.793   4.063 -0.1189 -0.0511  0.2466
    1PPC    C2B69483  26.763  24.776   4.512  0.0008  0.0088 -0.2411
    1PPC    C3B69484  26.491  24.632   4.900  0.2278 -0.0391  0.0847
    1PPC    C4B69485  26.340  24.875   5.204 -0.1978  0.0700  0.1124
    1PPC    NC369486  15.003  28.565   3.260 -0.1730 -0.2387  0.1442
    1PPC    PO469487  14.684  28.811   3.528 -0.3970  0.0229 -0.0138
    1PPC    GL169488  14.661  28.508   3.824  0.3376  0.1395  0.0900
    1PPC    GL269489  14.766  28.573   4.051 -0.1356 -0.1643  0.0675
    1PPC    C1B69490  14.936  28.444   4.497 -0.1681  0.1080 -0.2146
    1PPC    C2B69491  15.173  28.581   4.862 -0.1404  0.3508  0.0814
    1PPC    C3B69492  15.046  28.811   5.248 -0.0361  0.2438 -0.0903
    1PPC    C4B69493  15.008  28.892   5.659  0.0816 -0.1431 -0.1110
    1PPC    NC369494   1.819   5.582   3.112  0.0345  0.0618  0.1309
    1PPC    PO469495   1.357   5.562   3.064  0.0505 -0.0056  0.0041
    1PPC    GL169496   1.460   5.759   3.449  0.0820  0.1876  0.2054
    1PPC    GL269497   1.229   5.992   3.532  0.1801  0.3484  0.1313
    1PPC    C1B69498   1.226   6.308   3.705  0.0669 -0.1905  0.1250
    1PPC    C2B69499   1.459   6.680   3.959  0.2345  0.0281 -0.1268
    1PPC    C3B69500   1.603   6.942   4.383 -0.0979  0.0833  0.2497
    1PPC    C4B69501   1.733   7.188   4.824  0.0307 -0.1272 -0.2752
    1PPC    NC369502   3.965  13.097   2.040  0.3452 -0.2046 -0.2326
    1PPC    PO469503   3.854  12.721   2.294 -0.0854  0.0530  0.2775
    1PPC    GL169504   3.856  12.833   2.729  0.0155  0.3378  0.0735
    1PPC    GL269505   3.815  12.870   3.103  0.0721 -0.3534  0.1940
    1PPC    C1B69506   3.822  12.756   3.514 -0.0333 -0.0981  0.1521
    1PPC    C2B69507   4.005  12.972   3.922  0.0760 -0.0280 -0.0061
    1PPC    C3B69508   3.822  13.224   4.263  0.1678 -0.0911  0.1383
    1PPC    C4B69509   3.643  13.616   4.105  0.1334 -0.2092 -0.0672
    1PPC    NC369510  28.513  25.202   2.339 -0.1028 -0.0426  0.0836
    1PPC    PO469511  28.379  25.197   2.743  0.2383 -0.0229  0.0001
    1PPC    GL169512  28.652  25.056   3.094  0.2543 -0.2632 -0.0509
    1PPC    GL269513  28.591  24.904   3.517  0.1524  0.0211  0.2372
    1PPC    C1B69514  28.419  24.929   3.993  0.0665 -0.2758 -0.0597
    1PPC    C2B69515  28.457  25.151   4.323  0.1999  0.0111  0.2876
    1PPC    C3B69516  28.550  25.570   4.465 -0.0109 -0.0668 -0.2637
    1PPC    C4B69517  28.483  25.951   4.675 -0.1520 -0.2561  0.0923
    1PPC    NC369518   8.769  28.278   2.886 -0.1032  0.1293 -0.3690
    1PPC    PO469519   8.630  28.132   3.311 -0.1344 -0.2574  0.0764
    1PPC    GL169520   8.584  28.422   3.579 -0.0591  0.1583 -0.0985
    1PPC    GL269521   8.554  28.403   3.959  0.2641 -0.1499  0.2224
    1PPC    C1B69522   8.218  28.097   4.268  0.4078 -0.0473  0.0140
    1PPC    C2B69523   8.306  28.048   4.716 -0.0063 -0.1108  0.0944
    1PPC    C3B69524   8.634  28.160   5.031  0.1144 -0.2847 -0.0400
    1PPC    C4B69525   8.924  27.943   5.226 -0.0293 -0.0634 -0.0786
    1PPC    NC369526  18.736  19.809   2.753  0.2062  0.0062 -0.2158
    1PPC    PO469527  18.766  19.575   3.093  0.2373 -0.2067  0.0846
    1PPC    GL169528  18.828  19.827   3.517 -0.4594 -0.0889 -0.1230
    1PPC    GL269529  19.018  19.919   3.751 -0.1629 -0.2010 -0.0788
    1PPC    C1B69530  19.456  19.997   4.046  0.0913  0.1533 -0.1877
    1PPC    C2B69531  19.893  20.099   4.291 -0.0838  0.0948 -0.1472
    1PPC    C3B69532  20.230  19.774   4.421 -0.2093  0.0644 -0.1894
    1PPC    C4B69533  20.353  19.303   4.512 -0.2604 -0.1063 -0.0438
    1PPC    NC369534   5.809  19.201   1.398  0.0042  0.0188 -0.3374
    1PPC    PO469535   5.823  18.956   1.815  0.1369  0.1037  0.2968
    1PPC    GL169536   5.817  19.098   2.203  0.0708 -0.1731 -0.2732
    1PPC    GL269537   5.718  19.094   2.553  0.1319  0.1491  0.1120
    1PPC    C1B69538   5.588  19.488   2.821  0.0792  0.0948  0.0325
    1PPC    C2B69539   5.377  19.509   3.124  0.1690  0.0739 -0.0707
    1PPC    C3B69540   5.453  19.685   3.470 -0.4502 -0.1460 -0.1797
    1PPC    C4B69541   5.489  20.037   3.778  0.0178  0.0994 -0.2472
    1PPC    NC369542   1.309   7.261   2.856  0.2407 -0.0500  0.1360
    1PPC    PO469543   1.483   6.782   2.926 -0.0147  0.0418 -0.0114
    1PPC    GL169544   1.151   6.858   3.169 -0.1286 -0.1106 -0.5716
    1PPC    GL269545   1.020   6.777   3.373 -0.1077 -0.0245  0.0188
    1PPC    C1B69546   0.939   6.686   3.849  0.2533  0.1877  0.1684
    1PPC    C2B69547   0.824   6.443   4.187 -0.1222  0.0045  0.1342
    1PPC    C3B69548   0.750   6.699   4.641  0.0476  0.0367  0.0676
    1PPC    C4B69549   0.772   7.046   4.856 -0.3048 -0.2443 -0.0175
    1PPC    NC369550  27.449   6.234   2.639  0.0923 -0.0564 -0.0104
    1PPC    PO469551  27.341   5.833   2.811  0.1885 -0.0765 -0.1172
    1PPC    GL169552  27.022   5.725   3.010 -0.0230 -0.0313 -0.1093
    1PPC    GL269553  26.964   5.976   3.342  0.2182 -0.1911  0.2841
    1PPC    C1B69554  27.133   6.356   3.469  0.2916 -0.0835 -0.0746
    1PPC    C2B69555  27.563   6.475   3.688  0.1029  0.2035 -0.0046
    1PPC    C3B69556  27.975   6.637   3.458  0.1627 -0.3397 -0.2205
    1PPC    C4B69557  28.149   6.899   3.127  0.1517 -0.1067  0.0705
    1PPC    NC369558   5.233  12.442   3.171  0.0601  0.2433 -0.1757
    1PPC    PO469559   5.425  12.019   3.331  0.2065 -0.3348 -0.0258
    1PPC    GL169560   5.118  12.093   3.516 -0.0749 -0.3307 -0.0847
    1PPC    GL269561   4.962  12.295   3.658  0.1586 -0.0324 -0.0397
    1PPC    C1B69562   5.070  12.499   4.037  0.0614  0.0649  0.0295
    1PPC    C2B69563   4.914  12.733   4.342  0.0791  0.0194  0.0192
    1PPC    C3B69564   4.607  12.792   4.553  0.2303  0.0073  0.0663
    1PPC    C4B69565   4.327  12.765   4.824  0.0157 -0.2230  0.1142
    1PPC    NC369566   2.318  23.451   1.865 -0.1254  0.0604 -0.2683
    1PPC    PO469567   2.430  23.557   2.334  0.2137 -0.0175  0.3582
    1PPC    GL169568   2.602  23.363   2.692 -0.0366  0.2606 -0.1081
    1PPC    GL269569   2.372  23.057   2.836  0.0019  0.1452  0.2956
    1PPC    C1B69570   2.500  22.879   3.294 -0.2250  0.4005  0.1176
    1PPC    C2B69571   2.524  22.608   3.641  0.1120 -0.1444  0.1579
    1PPC    C3B69572   2.433  22.630   4.025 -0.0180  0.0806 -0.0637
    1PPC    C4B69573   2.761  22.869   4.310  0.2496 -0.0663 -0.1798
    1PPC    NC369574   2.835  18.480   1.982 -0.0918 -0.0360 -0.1516
    1PPC    PO469575   2.871  18.770   2.280 -0.0874  0.2160 -0.1104
    1PPC    GL169576   3.245  18.933   2.476  0.0233  0.0568 -0.0572
    1PPC    GL269577   3.197  18.694   2.737  0.0426 -0.1182 -0.3064
    1PPC    C1B69578   3.136  18.738   3.173  0.0390 -0.1498  0.3216
    1PPC    C2B69579   3.229  18.920   3.573  0.0355 -0.1590 -0.0985
    1PPC    C3B69580   3.252  18.831   4.030  0.0112  0.0271 -0.1432
    1PPC    C4B69581   3.542  18.724   4.242  0.0744 -0.1219  0.0769
    1PPC    NC369582  13.696  23.696   2.784  0.1741  0.0057  0.0028
    1PPC    PO469583  13.749  23.310   3.038 -0.0917  0.3933 -0.0539
    1PPC    GL169584  13.799  23.492   3.373 -0.0110  0.0900  0.0496
    1PPC    GL269585  13.952  23.433   3.666  0.1199 -0.3013  0.0519
    1PPC    C1B69586  14.041  23.428   4.134  0.0457  0.1078 -0.1688
    1PPC    C2B69587  13.874  23.418   4.594  0.1396 -0.1788 -0.0128
    1PPC    C3B69588  13.907  23.097   4.870  0.1007  0.0026  0.1358
    1PPC    C4B69589  13.843  22.816   5.232  0.0123 -0.0693  0.0741
    1PPC    NC369590  23.159   1.093   2.549  0.1599 -0.0038 -0.2446
    1PPC    PO469591  22.881   0.896   2.824  0.0269  0.1330 -0.1273
    1PPC    GL169592  22.940   0.995   3.269  0.0064  0.1603 -0.3892
    1PPC    GL269593  22.910   0.859   3.589 -0.1301 -0.1917  0.0214
    1PPC    C1B69594  23.059   0.839   4.038 -0.0658 -0.0885  0.1243
    1PPC    C2B69595  22.836   0.750   4.441 -0.2479  0.2271  0.0165
    1PPC    C3B69596  22.712   0.812   4.826 -0.1001  0.0562  0.3106
    1PPC    C4B69597  22.450   0.579   5.043  0.0792  0.3359  0.0697
    1PPC    NC369598  18.225   3.789   3.315 -0.0517 -0.1495 -0.2616
    1PPC    PO469599  17.993   3.495   3.548  0.0628  0.1263 -0.1722
    1PPC    GL169600  18.060   3.841   3.859  0.1679  0.3157 -0.0404
    1PPC    GL269601  18.190   3.997   4.086 -0.0853  0.1036 -0.0598
    1PPC    C1B69602  18.440   4.273   4.385  0.1205 -0.0363  0.0432
    1PPC    C2B69603  18.743   4.192   4.890 -0.0082  0.0971  0.0983
    1PPC    C3B69604  19.076   4.107   5.152  0.3134  0.0560  0.0106
    1PPC    C4B69605  19.313   3.980   5.538  0.0172 -0.0166 -0.4197
    1PPC    NC369606   9.030   5.550   3.578  0.0045 -0.0948 -0.2309
    1PPC    PO469607   9.430   5.535   3.331 -0.3353  0.3909 -0.2688
    1PPC    GL169608   9.672   5.530   3.633  0.2309  0.1590 -0.0535
    1PPC    GL269609   9.530   5.517   3.865 -0.0379  0.3325 -0.1878
    1PPC    C1B69610   9.603   5.444   4.263  0.2761 -0.1650 -0.2488
    1PPC    C2B69611   9.512   5.456   4.691 -0.5401  0.0360 -0.0935
    1PPC    C3B69612   9.121   5.228   5.092 -0.2505 -0.2474 -0.0994
    1PPC    C4B69613   8.778   5.118   5.347 -0.2149 -0.0979 -0.2966
    1PPC    NC369614   9.620   1.205   3.052  0.2833  0.0764  0.1606
    1PPC    PO469615   9.642   1.011   3.444  0.0830 -0.0938 -0.0886
    1PPC    GL169616   9.880   1.074   3.869 -0.1603 -0.2761  0.1191
    1PPC    GL269617  10.054   0.973   4.185  0.1105  0.2239 -0.2516
    1PPC    C1B69618   9.983   0.879   4.601  0.0633 -0.0602 -0.2068
    1PPC    C2B69619  10.010   0.853   5.072 -0.1218  0.1252 -0.1347
    1PPC    C3B69620   9.887   0.651   5.531  0.2120  0.1774  0.1481
    1PPC    C4B69621   9.693   0.459   5.761  0.1582  0.0620  0.1740
    1PPC    NC369622  21.118   9.091   3.407  0.0213  0.1676  0.1136
    1PPC    PO469623  20.905   8.903   2.991 -0.3667 -0.0201 -0.1590
    1PPC    GL169624  20.898   8.658   3.365  0.0187 -0.0076 -0.1019
    1PPC    GL269625  20.724   8.594   3.753  0.0192  0.0201 -0.1017
    1PPC    C1B69626  20.484   8.698   4.121  0.0857  0.0196  0.0584
    1PPC    C2B69627  20.509   9.025   4.254 -0.1478  0.1027 -0.1450
    1PPC    C3B69628  20.239   9.359   4.242 -0.3451 -0.1301 -0.0563
    1PPC    C4B69629  19.837   9.583   4.271  0.3777 -0.5442  0.2425
    1PPC    NC369630   2.187  25.900   2.633  0.0536  0.3988  0.0297
    1PPC    PO469631   2.276  26.118   3.093 -0.0197 -0.0677  0.1620
    1PPC    GL169632   2.153  26.216   3.483  0.0463 -0.2423 -0.0062
    1PPC    GL269633   2.096  26.052   3.768  0.1710  0.2157  0.1224
    1PPC    C1B69634   2.381  25.964   4.132 -0.0614 -0.1755  0.2661
    1PPC    C2B69635   2.589  25.605   4.376 -0.0358  0.0127  0.2000
    1PPC    C3B69636   2.227  25.244   4.442  0.1568  0.1037  0.0602
    1PPC    C4B69637   1.757  25.078   4.236  0.0520 -0.2246 -0.3571
    1PPC    NC369638  21.438   4.202   3.330  0.0210  0.0863 -0.1614
    1PPC    PO469639  21.941   4.211   3.303  0.1632  0.0423  0.2016
    1PPC    GL169640  21.713   3.800   3.432  0.1288  0.1417  0.2177
    1PPC    GL269641  21.733   3.653   3.702  0.3263  0.2715 -0.3500
    1PPC    C1B69642  21.828   3.828   4.181  0.0069  0.3029  0.1546
    1PPC    C2B69643  22.130   3.532   4.383 -0.0595 -0.0949  0.0066
    1PPC    C3B69644  22.465   3.399   4.609 -0.1252  0.2400  0.0414
    1PPC    C4B69645  22.917   3.213   4.493  0.2283  0.0046 -0.0676
    1PPC    NC369646  22.503  27.090   2.528  0.1810  0.0098  0.0845
    1PPC    PO469647  22.816  27.032   2.902  0.0277 -0.0110 -0.1545
    1PPC    GL169648  22.759  27.053   3.382 -0.1847 -0.1486  0.1650
    1PPC    GL269649  22.807  27.223   3.655  0.0590  0.0001  0.2364
    1PPC    C1B69650  22.590  27.381   4.074 -0.3079  0.3626 -0.0900
    1PPC    C2B69651  22.735  27.600   4.429  0.2556  0.1909 -0.2069
    1PPC    C3B69652  22.943  27.694   4.828  0.3905  0.0869  0.1276
    1PPC    C4B69653  23.389  27.802   4.973  0.1850  0.2458 -0.0865
    1PPC    NC369654  26.886  20.012   2.729 -0.2324 -0.1662  0.0528
    1PPC    PO469655  26.548  20.282   2.539 -0.0854  0.2668  0.2145
    1PPC    GL169656  26.547  20.364   2.916 -0.1301 -0.0633 -0.1750
    1PPC    GL269657  26.595  20.595   3.162 -0.0448 -0.0393 -0.2384
    1PPC    C1B69658  26.489  20.601   3.602 -0.1735 -0.0601 -0.0741
    1PPC    C2B69659  26.505  20.672   4.013 -0.2041 -0.1333 -0.0757
    1PPC    C3B69660  26.527  20.321   4.383 -0.0801 -0.1249 -0.2303
    1PPC    C4B69661  26.264  19.952   4.440  0.0279 -0.1648  0.0222
    1PPC    NC369662   1.655  11.987   2.110  0.0647  0.0871 -0.1575
    1PPC    PO469663   1.253  11.707   2.286  0.1271 -0.2853  0.0605
    1PPC    GL169664   1.203  11.757   2.793 -0.0360  0.2337 -0.2132
    1PPC    GL269665   1.375  11.736   3.122 -0.0147  0.0792 -0.0034
    1PPC    C1B69666   1.595  11.823   3.520  0.1168 -0.3736 -0.0955
    1PPC    C2B69667   1.741  11.798   3.919  0.0446  0.3093 -0.0189
    1PPC    C3B69668   1.652  11.879   4.226 -0.3570 -0.0041 -0.1097
    1PPC    C4B69669   1.358  11.757   4.474  0.2580 -0.2199  0.1273
    1PPC    NC369670  18.152   4.542   2.748  0.1126  0.0653 -0.1090
    1PPC    PO469671  18.048   4.224   3.050 -0.1050 -0.2092 -0.2115
    1PPC    GL169672  18.022   4.357   3.568 -0.1585 -0.1444 -0.0382
    1PPC    GL269673  17.861   4.289   3.858 -0.1537 -0.0504 -0.1853
    1PPC    C1B69674  17.756   4.341   4.273 -0.2668  0.1834  0.2455
    1PPC    C2B69675  17.949   4.179   4.589 -0.0270  0.2434  0.1301
    1PPC    C3B69676  18.156   4.369   4.807  0.1497 -0.1734  0.2097
    1PPC    C4B69677  18.300   4.501   5.190 -0.0152  0.0734 -0.1364
    1PPC    NC369678  17.555  27.166   3.370  0.1822 -0.0186  0.1953
    1PPC    PO469679  17.820  27.527   3.243  0.2709  0.3543 -0.1180
    1PPC    GL169680  17.809  27.522   3.705 -0.0122  0.0483 -0.3795
    1PPC    GL269681  17.768  27.728   3.925  0.1329 -0.0450  0.1259
    1PPC    C1B69682  17.762  27.967   4.332 -0.1205  0.1646 -0.2270
    1PPC    C2B69683  18.132  28.245   4.491 -0.2520 -0.0032  0.0402
    1PPC    C3B69684  18.402  28.379   4.775 -0.0510  0.5322  0.1852
    1PPC    C4B69685  18.754  28.231   4.994  0.2084 -0.0113 -0.0177
    1PPC    NC369686   2.952   7.293   2.929 -0.0401  0.1998 -0.0063
    1PPC    PO469687   2.711   7.672   3.054 -0.1219  0.2259  0.0861
    1PPC    GL169688   2.300   7.802   3.398  0.0942  0.2084  0.0430
    1PPC    GL269689   2.080   7.982   3.580 -0.1383 -0.2327 -0.1472
    1PPC    C1B69690   2.263   8.276   3.779  0.0475  0.0257  0.0172
    1PPC    C2B69691   2.363   8.710   4.021  0.0525  0.2524  0.3409
    1PPC    C3B69692   2.606   9.102   3.935  0.0550  0.0489  0.2321
    1PPC    C4B69693   2.747   9.548   4.018 -0.1049 -0.0405 -0.2238
    1PPC    NC369694   2.426  28.263   2.407 -0.1892  0.0405  0.1824
    1PPC    PO469695   2.260  28.510   2.734 -0.0503  0.0067  0.1175
    1PPC    GL169696   2.225  28.844   3.052 -0.3547 -0.1189  0.1147
    1PPC    GL269697   2.195  28.778   3.418  0.0475 -0.0233  0.1661
    1PPC    C1B69698   2.089  28.810   3.954 -0.2880  0.4157 -0.1803
    1PPC    C2B69699   2.005  28.911   4.479 -0.1507  0.0596 -0.1106
    1PPC    C3B69700   2.216  29.032   4.930  0.4092  0.2428  0.2300
    1PPC    C4B69701   2.345  29.039   5.367  0.1754  0.2945 -0.3357
    1PPC    NC369702   2.097  11.352   2.582  0.3061  0.1075  0.3277
    1PPC    PO469703   2.328  11.009   2.672  0.0304 -0.4946 -0.1973
    1PPC    GL169704   2.311  11.251   3.125 -0.2093 -0.1236  0.1298
    1PPC    GL269705   2.241  11.180   3.354 -0.1396 -0.2110  0.0431
    1PPC    C1B69706   2.304  11.150   3.898  0.1329 -0.2790 -0.3232
    1PPC    C2B69707   2.199  11.270   4.299  0.1491  0.5495 -0.0331
    1PPC    C3B69708   2.194  11.201   4.772 -0.1196 -0.2945 -0.0524
    1PPC    C4B69709   2.042  11.426   5.157 -0.0831  0.0391  0.0979
    1PPC    NC369710  27.875  15.386   2.021 -0.1092  0.1562  0.1312
    1PPC    PO469711  27.452  15.628   2.123  0.4507  0.2291  0.2139
    1PPC    GL169712  27.609  15.802   2.436  0.2184 -0.1196 -0.0921
    1PPC    GL269713  27.641  15.906   2.738  0.4309  0.0422  0.1606
    1PPC    C1B69714  27.417  15.871   3.105 -0.2952  0.3053  0.0281
    1PPC    C2B69715  27.217  15.944   3.418  0.1348 -0.2461  0.1639
    1PPC    C3B69716  26.912  15.699   3.514  0.0624 -0.0884 -0.1231
    1PPC    C4B69717  26.713  15.243   3.556  0.4762 -0.1948  0.1245
    1PPC    NC369718   3.121  12.683   2.343 -0.0286  0.2075 -0.1519
    1PPC    PO469719   2.720  12.703   2.553  0.2076 -0.0143 -0.1040
    1PPC    GL169720   2.927  12.527   2.818 -0.2491  0.0876  0.0327
    1PPC    GL269721   2.904  12.337   3.093  0.1869  0.1109  0.2759
    1PPC    C1B69722   2.797  12.367   3.682  0.2246  0.1466  0.0172
    1PPC    C2B69723   2.441  12.448   3.984 -0.1530  0.0302  0.0609
    1PPC    C3B69724   2.139  12.668   4.206  0.4105  0.1852 -0.1087
    1PPC    C4B69725   1.839  12.543   4.526  0.0044 -0.2402 -0.1134
    1PPC    NC369726  14.669  27.694   2.751 -0.0900  0.0594  0.0532
    1PPC    PO469727  14.579  27.721   3.261  0.1362  0.1807  0.0028
    1PPC    GL169728  14.241  27.711   3.523 -0.0815 -0.5432 -0.0380
    1PPC    GL269729  14.149  27.586   3.781 -0.2747  0.0738 -0.2383
    1PPC    C1B69730  13.944  27.363   4.164 -0.1918  0.2907  0.0994
    1PPC    C2B69731  13.605  27.069   4.241  0.0950  0.4089  0.0381
    1PPC    C3B69732  13.469  26.553   4.237 -0.0484  0.3846  0.0575
    1PPC    C4B69733  13.416  26.169   4.395  0.1228 -0.3279  0.0297
    1PPC    NC369734  27.637   4.392   2.376 -0.3776 -0.2178  0.0431
    1PPC    PO469735  27.244   4.277   2.499  0.1099 -0.3122  0.0301
    1PPC    GL169736  27.259   4.382   2.928 -0.0266  0.1358 -0.0487
    1PPC    GL269737  27.295   4.548   3.117 -0.0782 -0.0015 -0.0134
    1PPC    C1B69738  27.369   4.780   3.422 -0.0823  0.0883  0.1511
    1PPC    C2B69739  27.463   4.885   3.933 -0.0166  0.1833  0.3528
    1PPC    C3B69740  27.535   5.189   4.247 -0.1138  0.1581 -0.1650
    1PPC    C4B69741  27.454   5.791   4.263 -0.0385 -0.1972 -0.2908
    1PPC    NC369742  25.888   3.329   2.585 -0.3316  0.1146  0.3223
    1PPC    PO469743  25.771   3.386   3.022  0.0375 -0.0766  0.3785
    1PPC    GL169744  25.644   3.523   3.410 -0.2735  0.1200 -0.4586
    1PPC    GL269745  25.691   3.372   3.612 -0.0239 -0.2971 -0.1901
    1PPC    C1B69746  25.450   3.310   3.961 -0.2286 -0.1452 -0.1506
    1PPC    C2B69747  25.370   3.614   4.301 -0.2049 -0.0939 -0.0410
    1PPC    C3B69748  25.537   3.734   4.716 -0.2526  0.0049  0.3988
    1PPC    C4B69749  25.675   3.595   5.080  0.1448 -0.0324 -0.1669
    1PPC    NC369750  10.238   6.176   3.078  0.0797  0.1516  0.0309
    1PPC    PO469751  10.434   5.804   3.279  0.0474 -0.1578  0.3117
    1PPC    GL169752  10.499   5.786   3.744  0.1367  0.2725  0.0778
    1PPC    GL269753  10.452   5.594   4.044 -0.2930  0.1346 -0.2316
    1PPC    C1B69754  10.477   5.347   4.492 -0.0763  0.1760 -0.1817
    1PPC    C2B69755  10.417   5.279   4.847 -0.1617  0.0982 -0.1621
    1PPC    C3B69756  10.188   5.325   5.316 -0.1626  0.2778 -0.0636
    1PPC    C4B69757   9.927   5.205   5.772 -0.2958  0.3364 -0.1513
    1PPC    NC369758  20.174   6.961   3.279  0.0659 -0.0809  0.0795
    1PPC    PO469759  20.117   6.764   3.689 -0.1848  0.0167 -0.2224
    1PPC    GL169760  19.975   6.320   3.664  0.2419  0.1483 -0.1103
    1PPC    GL269761  20.066   6.100   3.850 -0.0656  0.0494  0.2491
    1PPC    C1B69762  20.189   6.025   4.261  0.2044  0.2828 -0.2140
    1PPC    C2B69763  20.437   5.937   4.658 -0.0033 -0.0910  0.1225
    1PPC    C3B69764  20.841   6.024   4.766  0.0655 -0.1231 -0.1034
    1PPC    C4B69765  21.270   5.763   4.901 -0.0319 -0.3295 -0.1154
    1PPC    NC369766  25.023  20.830   2.379 -0.0976  0.2733 -0.2167
    1PPC    PO469767  25.307  20.853   2.688  0.0327 -0.0293  0.1746
    1PPC    GL169768  25.120  20.828   3.123  0.0097 -0.4263 -0.2037
    1PPC    GL269769  25.103  20.745   3.528  0.0135 -0.1097  0.0960
    1PPC    C1B69770  25.270  20.839   3.905 -0.0721  0.0088 -0.0273
    1PPC    C2B69771  25.657  20.832   4.220 -0.0466  0.1930  0.0555
    1PPC    C3B69772  26.068  20.632   4.305  0.0103  0.0747 -0.2249
    1PPC    C4B69773  25.809  20.259   4.541 -0.2000 -0.2976  0.1814
    1PPC    NC369774  25.447  28.194   2.500  0.2702 -0.0469 -0.1962
    1PPC    PO469775  25.638  28.427   2.883  0.0163 -0.3634  0.0314
    1PPC    GL169776  25.366  28.339   3.232 -0.0760  0.0768  0.0332
    1PPC    GL269777  25.149  28.270   3.528 -0.1783 -0.0796  0.2601
    1PPC    C1B69778  24.935  28.397   3.886 -0.0982 -0.0349 -0.1243
    1PPC    C2B69779  24.871  28.644   4.127  0.3724  0.1743  0.1544
    1PPC    C3B69780  24.764  28.687   4.532  0.2510  0.6655 -0.0270
    1PPC    C4B69781  24.875  28.483   4.853  0.3213 -0.2961 -0.2665
    1PPC    NC369782  20.283   2.762   3.266  0.0460 -0.4194 -0.0551
    1PPC    PO469783  20.387   2.906   2.764 -0.2620 -0.0532 -0.1681
    1PPC    GL169784  20.526   3.222   3.008 -0.1720  0.2768  0.1217
    1PPC    GL269785  20.480   3.216   3.319  0.0243  0.1451 -0.1675
    1PPC    C1B69786  20.379   3.254   3.834 -0.2716  0.0192 -0.0044
    1PPC    C2B69787  20.195   2.990   4.194  0.2321 -0.1772 -0.0583
    1PPC    C3B69788  20.253   2.952   4.690 -0.1044  0.1854 -0.1497
    1PPC    C4B69789  20.355   3.104   5.096  0.1158 -0.0235  0.4401
    1PPC    NC369790  24.938  26.147   3.291  0.1493 -0.2742  0.0279
    1PPC    PO469791  24.496  26.024   3.181 -0.2035 -0.1011 -0.1335
    1PPC    GL169792  24.383  26.379   3.265 -0.4143 -0.2212 -0.2233
    1PPC    GL269793  24.250  26.581   3.465 -0.0717 -0.0788 -0.1572
    1PPC    C1B69794  24.060  26.911   3.696 -0.0182  0.0164  0.3081
    1PPC    C2B69795  23.681  27.102   3.896 -0.2178  0.1265 -0.1680
    1PPC    C3B69796  23.383  27.301   4.184  0.0730 -0.1444  0.0892
    1PPC    C4B69797  23.398  27.566   4.515  0.0088  0.0401  0.2071
    1PPC    NC369798  22.020  22.444   3.192 -0.0889  0.5542 -0.0595
    1PPC    PO469799  22.277  22.136   3.184  0.0316  0.0341 -0.1543
    1PPC    GL169800  22.597  22.000   3.459  0.2976 -0.3876 -0.0467
    1PPC    GL269801  22.600  21.918   3.787 -0.2061  0.2011  0.0986
    1PPC    C1B69802  22.633  22.166   4.127  0.1343  0.0841  0.0557
    1PPC    C2B69803  22.687  22.023   4.574  0.0527 -0.0629  0.0778
    1PPC    C3B69804  22.548  21.896   4.975 -0.3857 -0.1619  0.0362
    1PPC    C4B69805  22.564  21.726   5.313 -0.2736  0.1929  0.3975
    1PPC    NC369806   8.937  26.506   2.593  0.3932  0.1364  0.1159
    1PPC    PO469807   8.776  26.082   2.436 -0.1259  0.0918  0.0069
    1PPC    GL169808   9.001  26.080   2.907 -0.1336  0.0897  0.2158
    1PPC    GL269809   9.232  25.926   2.990 -0.0412  0.0780  0.3642
    1PPC    C1B69810   9.302  25.798   3.410  0.3804 -0.0118  0.0903
    1PPC    C2B69811   9.388  25.847   3.848  0.0193 -0.0087  0.0783
    1PPC    C3B69812   9.418  25.619   4.296  0.1604  0.2428  0.1222
    1PPC    C4B69813   9.219  25.418   4.665 -0.0978 -0.0443  0.0858
    1PPC    NC369814  28.034  22.303   2.675  0.1679 -0.2900  0.0545
    1PPC    PO469815  27.673  22.386   2.977  0.0974  0.1233 -0.2313
    1PPC    GL169816  27.727  22.273   3.513 -0.3965  0.2054  0.0734
    1PPC    GL269817  27.562  22.032   3.772 -0.0514  0.2439  0.2470
    1PPC    C1B69818  27.653  21.884   4.253  0.0580 -0.0862  0.1045
    1PPC    C2B69819  27.843  22.052   4.627 -0.0423  0.2064 -0.1942
    1PPC    C3B69820  27.865  22.283   5.012 -0.2198 -0.0746  0.0947
    1PPC    C4B69821  27.651  22.504   5.318  0.3670 -0.3539 -0.0962
    1PPC    NC369822   7.038   3.392   3.251 -0.1949 -0.0485  0.0301
    1PPC    PO469823   6.842   3.003   3.099  0.1285  0.1117 -0.2100
    1PPC    GL169824   6.717   2.937   3.597 -0.1378  0.0273  0.3667
    1PPC    GL269825   6.550   2.859   3.821  0.2046 -0.1162  0.0063
    1PPC    C1B69826   6.591   2.790   4.235 -0.2580 -0.0070  0.1507
    1PPC    C2B69827   6.673   2.641   4.653  0.3664  0.0980 -0.0889
    1PPC    C3B69828   6.914   2.562   4.942 -0.2930 -0.2319 -0.1788
    1PPC    C4B69829   7.162   2.402   5.171  0.1200 -0.1178 -0.2584
    1PPC    NC369830  23.793   9.894   2.492  0.1569 -0.0465  0.3116
    1PPC    PO469831  23.630   9.614   2.750  0.0398 -0.2123  0.1374
    1PPC    GL169832  23.740   9.494   3.125  0.0436  0.2129  0.1034
    1PPC    GL269833  23.777   9.543   3.511  0.4448  0.3890  0.0385
    1PPC    C1B69834  23.943   9.634   3.903 -0.0460  0.0706  0.1196
    1PPC    C2B69835  23.876   9.784   4.372 -0.0852 -0.2526  0.0319
    1PPC    C3B69836  24.030  10.195   4.504  0.1133  0.0041  0.2013
    1PPC    C4B69837  24.368  10.575   4.283  0.2396 -0.0131 -0.1282
    1PPC    NC369838  25.429   1.984   2.967  0.3232  0.1118  0.1616
    1PPC    PO469839  25.081   2.061   2.733  0.0027  0.1448 -0.3505
    1PPC    GL169840  24.977   2.030   3.168  0.2327 -0.0728 -0.1915
    1PPC    GL269841  25.126   2.162   3.488  0.0032 -0.0344 -0.0948
    1PPC    C1B69842  25.343   2.558   3.680  0.1535  0.1025  0.2011
    1PPC    C2B69843  25.521   2.779   4.037  0.2123  0.0361  0.6089
    1PPC    C3B69844  25.829   3.000   4.165  0.0722 -0.3331  0.1617
    1PPC    C4B69845  25.873   3.503   4.222 -0.0894  0.1516 -0.1557
    1PPC    NC369846   7.024  10.401   2.881  0.1000  0.0909 -0.0885
    1PPC    PO469847   6.974  10.610   3.239 -0.2067 -0.1533 -0.0437
    1PPC    GL169848   7.162  10.466   3.676 -0.2182 -0.2478 -0.1781
    1PPC    GL269849   7.113  10.415   3.895 -0.0682 -0.2657 -0.3806
    1PPC    C1B69850   7.046  10.288   4.344 -0.0818  0.0754 -0.2807
    1PPC    C2B69851   6.926  10.429   4.820 -0.1021  0.2185 -0.3603
    1PPC    C3B69852   7.264  10.389   5.216  0.0752 -0.0560 -0.2672
    1PPC    C4B69853   7.521  10.493   5.581  0.2187  0.0041 -0.0379
    1PPC    NC369854  24.365  13.695   2.212  0.2407  0.2017 -0.1811
    1PPC    PO469855  24.182  13.474   2.607  0.0973  0.0898  0.1970
    1PPC    GL169856  24.445  13.110   2.810 -0.0928 -0.2191 -0.0191
    1PPC    GL269857  24.619  13.099   3.003 -0.1211  0.0031  0.0169
    1PPC    C1B69858  25.008  13.032   3.231  0.1194  0.0069  0.0329
    1PPC    C2B69859  25.336  12.751   3.254 -0.1264  0.0184 -0.4524
    1PPC    C3B69860  25.714  12.415   3.158  0.2663 -0.0922  0.2583
    1PPC    C4B69861  25.959  12.064   3.335  0.1831  0.2883  0.0690
    1PPC    NC369862   3.376  19.624   1.816 -0.1670  0.2772  0.1207
    1PPC    PO469863   3.396  19.445   2.275 -0.1347 -0.0838  0.2314
    1PPC    GL169864   3.791  19.368   2.485  0.0935 -0.3485 -0.0784
    1PPC    GL269865   4.011  19.438   2.564  0.0713 -0.0444  0.3692
    1PPC    C1B69866   4.283  19.631   2.885  0.1285  0.3426  0.2928
    1PPC    C2B69867   4.475  19.725   3.199  0.0879  0.2289  0.2267
    1PPC    C3B69868   4.841  19.409   3.425  0.2566  0.1300 -0.0011
    1PPC    C4B69869   5.222  19.107   3.423 -0.1388 -0.1416  0.1052
    1PPC    NC369870   9.150  15.242   2.692  0.4517 -0.2478 -0.1392
    1PPC    PO469871   8.867  15.562   2.558 -0.0880  0.3595  0.3809
    1PPC    GL169872   9.010  15.651   2.939  0.0082 -0.1296  0.1002
    1PPC    GL269873   9.184  15.418   3.185 -0.2159  0.1894 -0.0957
    1PPC    C1B69874   8.847  15.241   3.520  0.1856  0.1553  0.1803
    1PPC    C2B69875   8.644  14.783   3.595  0.2161  0.1344 -0.0119
    1PPC    C3B69876   8.674  14.315   3.757 -0.0926  0.0532  0.1519
    1PPC    C4B69877   8.446  14.199   4.083 -0.0453  0.2819  0.0469
    1PPC    NC369878  25.459   2.176   2.477 -0.1238 -0.0817 -0.2376
    1PPC    PO469879  25.599   2.552   2.648 -0.0746 -0.1936  0.2919
    1PPC    GL169880  25.711   2.464   3.108  0.0824  0.1478 -0.0343
    1PPC    GL269881  25.745   2.505   3.393 -0.2965  0.2678 -0.1702
    1PPC    C1B69882  25.907   2.756   3.701 -0.0909  0.2085 -0.0480
    1PPC    C2B69883  26.147   2.609   4.104  0.1231 -0.2703  0.1354
    1PPC    C3B69884  26.295   2.968   4.324  0.2159  0.0779  0.0162
    1PPC    C4B69885  26.256   3.301   4.629 -0.0159  0.2139 -0.1624
    1PPC    NC369886   1.515   0.831   2.639  0.0554  0.0033  0.0187
    1PPC    PO469887   1.718   1.285   2.835  0.2170 -0.1643  0.2271
    1PPC    GL169888   1.605   0.847   3.135 -0.0316 -0.2832  0.0519
    1PPC    GL269889   1.669   0.623   3.401 -0.1936  0.0189  0.0131
    1PPC    C1B69890   1.327   0.543   3.716  0.0834 -0.0657 -0.0976
    1PPC    C2B69891   1.199   0.587   4.160 -0.1289 -0.1782 -0.1478
    1PPC    C3B69892   1.136   0.578   4.638  0.1605 -0.1955 -0.1843
    1PPC    C4B69893   1.334   0.857   5.007  0.3511  0.0011 -0.0865
    1PPC    NC369894  24.001  11.473   2.834  0.0498 -0.0995  0.1752
    1PPC    PO469895  24.282  11.784   2.714  0.0205  0.3567  0.2394
    1PPC    GL169896  24.209  11.712   3.136 -0.1170 -0.2289 -0.2376
    1PPC    GL269897  24.425  11.742   3.311 -0.2017  0.2720  0.2256
    1PPC    C1B69898  24.618  12.108   3.457 -0.1144  0.0034 -0.4584
    1PPC    C2B69899  24.477  12.263   3.899 -0.2811 -0.3335  0.0215
    1PPC    C3B69900  24.397  12.645   4.078  0.0119  0.0487 -0.0976
    1PPC    C4B69901  24.148  12.717   4.520  0.1652 -0.1812 -0.1117
    1PPC    NC369902  21.587   4.149   2.889 -0.2955  0.1725 -0.2204
    1PPC    PO469903  21.404   3.757   2.958  0.0336 -0.2249 -0.1816
    1PPC    GL169904  21.212   3.610   3.335  0.1266  0.3046  0.1223
    1PPC    GL269905  21.085   3.899   3.621 -0.2910  0.1431  0.1401
    1PPC    C1B69906  20.797   3.997   3.947  0.1104 -0.2316  0.0702
    1PPC    C2B69907  20.505   3.815   4.260  0.0131 -0.1757 -0.0702
    1PPC    C3B69908  20.293   3.906   4.600 -0.1864  0.3482 -0.1234
    1PPC    C4B69909  19.982   4.024   4.894 -0.1234  0.1263 -0.3209
    1PPC    NC369910  22.176  14.992   1.656 -0.0223  0.2922 -0.1972
    1PPC    PO469911  22.161  15.215   2.055  0.1895 -0.2724 -0.1029
    1PPC    GL169912  22.178  15.468   2.493 -0.0263 -0.0788  0.0577
    1PPC    GL269913  22.408  15.472   2.736  0.2781  0.1595  0.3020
    1PPC    C1B69914  22.478  15.329   3.158 -0.0202  0.1147  0.2526
    1PPC    C2B69915  22.850  15.422   3.338  0.0194 -0.1801  0.1941
    1PPC    C3B69916  23.271  15.547   3.544 -0.1641  0.0892  0.0423
    1PPC    C4B69917  23.373  15.896   3.864  0.0741  0.3250  0.1684
    1PPC    NC369918  28.008  16.009   2.094  0.3297 -0.1225  0.3269
    1PPC    PO469919  28.081  16.090   2.486  0.3882  0.2950  0.1208
    1PPC    GL169920  28.319  16.437   2.728  0.0695  0.3647  0.2189
    1PPC    GL269921  28.397  16.660   2.945 -0.1176  0.3089  0.0312
    1PPC    C1B69922  28.493  16.615   3.340 -0.0229 -0.0365  0.1350
    1PPC    C2B69923  28.431  16.296   3.709  0.0400 -0.0461  0.0772
    1PPC    C3B69924  28.134  16.096   3.802  0.2472  0.1987 -0.0343
    1PPC    C4B69925  27.891  15.702   3.914  0.1467 -0.0994  0.0265
    1PPC    NC369926  18.129   8.277   3.044 -0.1725 -0.0842 -0.0322
    1PPC    PO469927  18.522   7.997   3.183  0.1188 -0.1642  0.2930
    1PPC    GL169928  18.328   8.194   3.522 -0.1064  0.1123 -0.2875
    1PPC    GL269929  18.398   8.319   3.833 -0.1195 -0.1755  0.3541
    1PPC    C1B69930  18.405   8.535   4.181 -0.1248  0.1472 -0.0236
    1PPC    C2B69931  18.388   8.829   4.546  0.0534 -0.1758 -0.2536
    1PPC    C3B69932  18.240   9.262   4.653 -0.1215  0.3155 -0.0458
    1PPC    C4B69933  18.270   9.720   4.686  0.1939  0.0940  0.0378
    1PPC    NC369934  21.926  27.025   3.177 -0.1871 -0.1797  0.0423
    1PPC    PO469935  21.859  27.386   3.327 -0.0648  0.5267  0.3274
    1PPC    GL169936  21.489  27.469   3.633 -0.1680 -0.0403 -0.0881
    1PPC    GL269937  21.306  27.655   3.852 -0.0805  0.4171  0.3896
    1PPC    C1B69938  21.155  27.903   4.010 -0.0678 -0.1675 -0.0335
    1PPC    C2B69939  21.053  28.238   4.228  0.1305 -0.4743 -0.1997
    1PPC    C3B69940  20.941  28.610   4.616 -0.3684  0.1755 -0.0066
    1PPC    C4B69941  21.187  28.736   4.744 -0.0341 -0.1940 -0.0438
    1PPC    NC369942  26.650  12.728   1.912  0.0980  0.0039  0.3162
    1PPC    PO469943  26.578  12.738   2.341 -0.2462 -0.0900  0.1702
    1PPC    GL169944  26.704  12.731   2.772 -0.0554  0.1220 -0.3693
    1PPC    GL269945  26.663  12.544   3.102  0.1045  0.0164 -0.2114
    1PPC    C1B69946  26.560  12.419   3.517  0.2244  0.2116 -0.0348
    1PPC    C2B69947  26.319  12.110   3.682  0.0439 -0.0634 -0.0155
    1PPC    C3B69948  26.283  11.945   4.115 -0.0179  0.2218 -0.1469
    1PPC    C4B69949  25.888  12.023   4.321 -0.2031  0.2746  0.0597
    1PPC    NC369950   1.697  25.966   2.380  0.1112  0.2326 -0.1428
    1PPC    PO469951   1.753  25.619   2.658  0.0977 -0.1823  0.4080
    1PPC    GL169952   1.836  25.697   3.051  0.0170 -0.1455  0.1496
    1PPC    GL269953   1.986  25.685   3.452  0.1579  0.2594  0.1557
    1PPC    C1B69954   2.446  25.673   3.618 -0.0203  0.2613  0.0223
    1PPC    C2B69955   2.601  25.236   3.951 -0.1027  0.2403 -0.4414
    1PPC    C3B69956   2.759  25.078   4.375 -0.0556 -0.3291  0.2125
    1PPC    C4B69957   2.876  24.917   4.770  0.0696 -0.2062 -0.0906
    1PPC    NC369958   5.513  19.979   2.264 -0.0949 -0.1253 -0.0181
    1PPC    PO469959   5.182  20.178   2.419  0.1442 -0.1722 -0.3863
    1PPC    GL169960   5.360  20.563   2.634  0.1548  0.0529  0.0522
    1PPC    GL269961   5.274  20.756   2.874  0.2446 -0.3317 -0.0400
    1PPC    C1B69962   5.161  20.778   3.348 -0.6160  0.2381  0.1410
    1PPC    C2B69963   5.183  21.075   3.762 -0.0799  0.0921 -0.1046
    1PPC    C3B69964   5.457  21.357   4.118 -0.1939 -0.0450  0.0467
    1PPC    C4B69965   5.566  21.675   4.380  0.0419 -0.1040 -0.1169
    1PPC    NC369966   4.430  20.602   2.048 -0.0283  0.2407  0.1051
    1PPC    PO469967   4.736  20.377   1.861  0.0851  0.0171 -0.0594
    1PPC    GL169968   4.671  20.215   2.290  0.0521 -0.0082  0.0432
    1PPC    GL269969   4.661  20.111   2.541  0.2426  0.1597 -0.0375
    1PPC    C1B69970   4.595  20.108   2.945 -0.4746  0.2320  0.1650
    1PPC    C2B69971   4.611  20.176   3.330  0.3943 -0.2743 -0.0150
    1PPC    C3B69972   4.263  20.340   3.533  0.3702 -0.0770 -0.0838
    1PPC    C4B69973   4.090  20.798   3.499  0.1590  0.1238 -0.2426
    1PPC    NC369974  25.315  15.506   2.312 -0.4711 -0.0204  0.1884
    1PPC    PO469975  25.612  15.856   2.415 -0.1846  0.0295 -0.0889
    1PPC    GL169976  25.689  15.532   2.769  0.2120 -0.1723 -0.1192
    1PPC    GL269977  25.739  15.220   2.867  0.1627 -0.0872 -0.3414
    1PPC    C1B69978  26.015  14.909   3.048 -0.1420 -0.5205 -0.2571
    1PPC    C2B69979  26.133  14.892   3.439  0.1286 -0.0236  0.1971
    1PPC    C3B69980  26.331  14.957   3.789 -0.0005  0.1114 -0.0450
    1PPC    C4B69981  26.705  14.974   4.068  0.2602 -0.3124 -0.0611
    1PPC    NC369982  22.931  20.655   3.371 -0.1320  0.1618 -0.1607
    1PPC    PO469983  22.678  21.048   3.476 -0.1523  0.1524  0.1175
    1PPC    GL169984  22.990  21.187   3.810 -0.2849 -0.1268 -0.2541
    1PPC    GL269985  23.131  21.138   4.115 -0.0911 -0.0513  0.2385
    1PPC    C1B69986  23.380  21.003   4.480 -0.1984 -0.0893 -0.1436
    1PPC    C2B69987  23.611  20.833   4.778  0.0781 -0.1987 -0.1357
    1PPC    C3B69988  23.591  20.604   5.154  0.1207 -0.0451 -0.1037
    1PPC    C4B69989  23.729  20.226   5.224 -0.4570 -0.0323 -0.1642
    1PPC    NC369990  20.364   1.347   2.426 -0.0236  0.0918  0.0681
    1PPC    PO469991  20.696   1.085   2.576 -0.1339 -0.0083  0.4307
    1PPC    GL169992  20.949   1.178   2.882 -0.0436  0.1235 -0.1897
    1PPC    GL269993  20.947   1.350   3.257  0.3084  0.0725 -0.1741
    1PPC    C1B69994  21.091   1.258   3.676 -0.0826 -0.1087  0.1829
    1PPC    C2B69995  21.144   1.091   4.014  0.2691 -0.1403  0.1821
    1PPC    C3B69996  21.169   0.804   4.383  0.2375 -0.0316 -0.0996
    1PPC    C4B69997  21.415   0.647   4.786  0.3054 -0.0950  0.0695
    1PPC    NC369998  22.396  13.728   2.623 -0.3221  0.1121 -0.0584
    1PPC    PO469999  22.625  13.842   2.957 -0.2417  0.1273  0.2051
    1PPC    GL170000  23.029  13.647   3.150 -0.2220 -0.0572  0.2048
    1PPC    GL270001  23.342  13.677   3.132  0.1441  0.4722 -0.3315
    1PPC    C1B70002  23.466  13.755   3.528 -0.0555  0.3847  0.2508
    1PPC    C2B70003  23.628  13.758   3.998  0.1307 -0.1590  0.0103
    1PPC    C3B70004  23.675  13.573   4.427 -0.2463 -0.1253 -0.2379
    1PPC    C4B70005  23.931  13.358   4.700  0.0233 -0.2625  0.0163
    1PPC    NC370006  17.263  22.967   3.527  0.1976 -0.4451 -0.2736
    1PPC    PO470007  17.530  23.304   3.663 -0.4826  0.0747  0.0952
    1PPC    GL170008  17.686  23.334   4.040  0.2907 -0.1523 -0.0547
    1PPC    GL270009  17.865  23.564   4.255  0.0108  0.1074 -0.1791
    1PPC    C1B70010  18.153  23.924   4.422  0.0365  0.0689  0.2668
    1PPC    C2B70011  18.360  24.151   4.808 -0.2972  0.5137  0.1198
    1PPC    C3B70012  18.202  24.293   5.210  0.1254  0.3085  0.1731
    1PPC    C4B70013  18.160  24.439   5.480  0.0657 -0.0382  0.1513
    1PPC    NC370014  18.045   2.975   3.505  0.2604  0.2447  0.1178
    1PPC    PO470015  18.522   2.841   3.352  0.1572 -0.2905  0.0927
    1PPC    GL170016  18.680   2.627   3.557 -0.0240 -0.5337 -0.1551
    1PPC    GL270017  18.676   2.639   3.865 -0.1956  0.3759  0.1625
    1PPC    C1B70018  18.856   2.521   4.288  0.2268  0.2027 -0.1096
    1PPC    C2B70019  19.038   2.311   4.554 -0.0113  0.2281  0.0532
    1PPC    C3B70020  19.261   2.222   4.861  0.1886 -0.0333 -0.3591
    1PPC    C4B70021  19.543   2.357   5.281 -0.2173  0.1161  0.2475
    1PPC    NC370022  17.127  24.271   2.723 -0.2730  0.0244 -0.1683
    1PPC    PO470023  16.957  24.054   2.996 -0.1263  0.3398  0.1296
    1PPC    GL170024  16.789  23.905   3.430 -0.1853  0.1276 -0.1345
    1PPC    GL270025  16.913  24.007   3.793 -0.3878  0.1163 -0.1625
    1PPC    C1B70026  16.939  24.051   4.261  0.0149 -0.3358 -0.2000
    1PPC    C2B70027  16.904  24.320   4.593 -0.3092 -0.0748 -0.1361
    1PPC    C3B70028  16.788  24.231   5.116 -0.2111  0.2323 -0.0239
    1PPC    C4B70029  16.623  24.148   5.511 -0.1571 -0.2408 -0.1025
    1PPC    NC370030  17.584   0.293   3.241 -0.0131  0.2093 -0.1048
    1PPC    PO470031  17.240   0.152   3.506 -0.0620 -0.5453  0.0797
    1PPC    GL170032  17.280   0.401   3.932 -0.2502 -0.0322  0.3719
    1PPC    GL270033  17.072   0.499   4.279 -0.2474 -0.3797  0.2807
    1PPC    C1B70034  17.162   0.697   4.735  0.1318 -0.0353 -0.2335
    1PPC    C2B70035  17.033   0.619   5.132  0.0399  0.0381 -0.0502
    1PPC    C3B70036  16.843   0.653   5.437 -0.1320  0.0737 -0.1494
    1PPC    C4B70037  16.716   1.011   5.727  0.0455 -0.0458  0.3235
    1PPC    NC370038  18.357  25.599   2.915 -0.0029  0.0996  0.1745
    1PPC    PO470039  18.724  25.728   3.238  0.1855  0.1148 -0.0653
    1PPC    GL170040  18.727  26.001   3.555 -0.0497  0.0086  0.1878
    1PPC    GL270041  18.988  26.143   3.780 -0.2232 -0.2305  0.0618
    1PPC    C1B70042  18.942  26.285   4.224  0.0017  0.0033  0.2292
    1PPC    C2B70043  19.138  26.612   4.390 -0.0491 -0.5353 -0.1090
    1PPC    C3B70044  19.189  27.060   4.533  0.2457 -0.1550 -0.1732
    1PPC    C4B70045  19.248  27.420   4.498  0.2352 -0.2521 -0.0574
    1PPC    NC370046  27.165  22.659   2.929 -0.0909 -0.0896 -0.1845
    1PPC    PO470047  27.374  23.049   2.762  0.1989  0.0110 -0.1390
    1PPC    GL170048  27.545  22.919   3.184 -0.1707  0.1580  0.1034
    1PPC    GL270049  27.493  22.667   3.339  0.0983 -0.1492  0.2292
    1PPC    C1B70050  27.537  22.604   3.798 -0.0753  0.2679  0.1606
    1PPC    C2B70051  27.356  22.400   4.227 -0.1701 -0.0487  0.0196
    1PPC    C3B70052  27.421  22.503   4.592  0.3197 -0.1577 -0.1785
    1PPC    C4B70053  27.666  22.842   4.838  0.0120  0.4132  0.0295
    1PPC    NC370054  24.407   3.526   2.242  0.0956  0.1085  0.0836
    1PPC    PO470055  23.975   3.490   2.295 -0.1714 -0.3330 -0.2241
    1PPC    GL170056  24.020   3.508   2.727 -0.1473 -0.4772  0.3429
    1PPC    GL270057  24.146   3.376   3.062  0.0060  0.1362  0.1508
    1PPC    C1B70058  24.163   3.210   3.432  0.2087 -0.0300  0.1257
    1PPC    C2B70059  23.969   3.010   3.702 -0.2010  0.1363  0.1302
    1PPC    C3B70060  23.945   2.935   4.152  0.0845 -0.1281 -0.0058
    1PPC    C4B70061  23.685   2.494   4.261  0.0680 -0.0299  0.3489
    1PPC    NC370062  23.803  26.170   2.751  0.0956  0.0580  0.1089
    1PPC    PO470063  23.563  25.920   2.956 -0.2168  0.0817  0.0895
    1PPC    GL170064  23.488  26.124   3.406  0.0847 -0.1496  0.0576
    1PPC    GL270065  23.622  26.142   3.709  0.1202 -0.2146  0.1844
    1PPC    C1B70066  23.708  26.126   4.174  0.0058 -0.0584  0.0792
    1PPC    C2B70067  23.953  26.192   4.427 -0.0855  0.0271 -0.1393
    1PPC    C3B70068  24.195  26.632   4.370  0.2266  0.3713  0.0681
    1PPC    C4B70069  24.255  26.889   4.718  0.1324  0.0449 -0.1967
    1PPC    NC370070   6.513  27.257   3.412  0.2652 -0.0671  0.0786
    1PPC    PO470071   6.034  27.347   3.463  0.2214  0.3190  0.0025
    1PPC    GL170072   6.121  27.689   3.742  0.2988  0.3827  0.0123
    1PPC    GL270073   5.980  27.840   4.016 -0.0981  0.2872  0.1453
    1PPC    C1B70074   5.965  27.728   4.384  0.1581  0.1747  0.0787
    1PPC    C2B70075   5.858  27.791   4.778 -0.2139  0.3737  0.1761
    1PPC    C3B70076   5.642  28.073   5.121 -0.0443 -0.2312  0.1014
    1PPC    C4B70077   5.512  28.016   5.546 -0.1490  0.2578 -0.0300
    1PPC    NC370078  12.483   0.357   3.448  0.3097  0.0664 -0.0168
    1PPC    PO470079  12.882   0.134   3.398 -0.1864  0.3438  0.1730
    1PPC    GL170080  12.783   0.046   3.814  0.1818 -0.0382 -0.2127
    1PPC    GL270081  12.670  -0.046   4.085 -0.1761  0.1401  0.4655
    1PPC    C1B70082  12.713  -0.103   4.492  0.2948 -0.1131  0.3122
    1PPC    C2B70083  12.968  -0.130   4.877 -0.1318  0.1922  0.0795
    1PPC    C3B70084  13.086   0.193   5.311  0.0038  0.2070  0.0831
    1PPC    C4B70085  13.238   0.427   5.655  0.0323 -0.0478 -0.1352
    1PPC    NC370086   5.100  17.021   2.352  0.1566 -0.1012 -0.1023
    1PPC    PO470087   4.631  17.190   2.449  0.3356 -0.1921 -0.0297
    1PPC    GL170088   4.332  17.025   2.816  0.3777 -0.2889  0.0626
    1PPC    GL270089   4.239  16.955   3.091  0.0510 -0.1096  0.0262
    1PPC    C1B70090   4.115  17.060   3.420 -0.1710 -0.1709 -0.1016
    1PPC    C2B70091   3.932  17.115   3.788 -0.1227  0.4676  0.0492
    1PPC    C3B70092   3.542  17.278   3.800 -0.2491  0.3730 -0.1058
    1PPC    C4B70093   3.394  17.500   3.557 -0.1726  0.1427 -0.0749
    1PPC    NC370094  18.207   8.917   2.289 -0.0035  0.0055 -0.0536
    1PPC    PO470095  17.814   8.839   2.176 -0.1294  0.2554  0.0345
    1PPC    GL170096  17.472   9.010   2.517 -0.0528 -0.1948  0.0758
    1PPC    GL270097  17.500   9.036   2.912 -0.2871  0.1424  0.0694
    1PPC    C1B70098  17.711   9.228   3.203 -0.1176  0.1264 -0.2601
    1PPC    C2B70099  18.127   9.470   3.168  0.2370  0.0392 -0.0292
    1PPC    C3B70100  18.485   9.782   3.186  0.0162 -0.0842  0.0117
    1PPC    C4B70101  18.746   9.950   2.831 -0.0968 -0.1420 -0.0381
    1PPC    NC370102   7.493  25.593   2.734  0.1474 -0.1242 -0.1518
    1PPC    PO470103   7.129  25.862   2.862  0.0377 -0.2930  0.1000
    1PPC    GL170104   7.078  25.926   3.253  0.0505  0.0231 -0.0896
    1PPC    GL270105   7.005  25.926   3.588  0.0383 -0.2781  0.1881
    1PPC    C1B70106   6.856  25.888   4.002 -0.1883 -0.4538 -0.1410
    1PPC    C2B70107   6.906  25.714   4.427 -0.3719 -0.1917  0.1299
    1PPC    C3B70108   7.000  25.622   4.970  0.1297  0.0079 -0.0723
    1PPC    C4B70109   7.180  25.819   5.260  0.2755 -0.1892  0.0347
    1PPC    NC370110  22.346  18.472   1.856 -0.0451 -0.1539  0.1670
    1PPC    PO470111  22.337  18.173   2.224  0.1946  0.0106 -0.1171
    1PPC    GL170112  22.583  18.213   2.672  0.1427 -0.1220 -0.0250
    1PPC    GL270113  22.758  18.254   3.039  0.1946 -0.3427  0.0939
    1PPC    C1B70114  23.043  18.195   3.433  0.2603 -0.3771  0.0912
    1PPC    C2B70115  23.268  18.126   3.794  0.3841  0.0855 -0.1527
    1PPC    C3B70116  23.499  18.343   4.112  0.2675  0.1977  0.1481
    1PPC    C4B70117  23.682  18.568   4.506 -0.2106  0.2554  0.2311
    1PPC    NC370118   2.165  16.766   2.239 -0.2011  0.2490  0.0717
    1PPC    PO470119   2.248  16.297   2.164  0.0110 -0.2143  0.3016
    1PPC    GL170120   2.170  16.434   2.629  0.0382  0.0877 -0.1864
    1PPC    GL270121   2.129  16.388   2.950  0.4978 -0.0344 -0.1073
    1PPC    C1B70122   2.262  16.402   3.379 -0.1542  0.1003 -0.0952
    1PPC    C2B70123   2.608  16.524   3.720 -0.1736  0.1261  0.0205
    1PPC    C3B70124   2.753  16.807   4.046  0.2387  0.2295 -0.3051
    1PPC    C4B70125   3.096  16.984   4.349 -0.0417 -0.2383  0.0916
    1PPC    NC370126  23.447  10.454   2.763  0.0684 -0.2113  0.1971
    1PPC    PO470127  23.845  10.220   2.912 -0.2554 -0.0231  0.0848
    1PPC    GL170128  24.219  10.340   3.134 -0.0760  0.0998  0.1529
    1PPC    GL270129  24.338  10.332   3.476 -0.1455 -0.2869  0.0510
    1PPC    C1B70130  24.535  10.418   3.822 -0.0994 -0.1299  0.1470
    1PPC    C2B70131  24.679  10.232   4.133  0.0258  0.1130  0.0097
    1PPC    C3B70132  24.542  10.174   4.581 -0.2062  0.0401 -0.0960
    1PPC    C4B70133  24.305  10.314   4.915 -0.3968 -0.0951  0.1363
    1PPC    NC370134  12.626   2.528   3.557 -0.2242 -0.0473  0.2579
    1PPC    PO470135  12.386   2.634   3.914  0.1849 -0.1198 -0.4568
    1PPC    GL170136  12.538   2.512   4.289 -0.3246  0.0411  0.1442
    1PPC    GL270137  12.711   2.616   4.540  0.2265  0.0987  0.0041
    1PPC    C1B70138  13.031   2.611   4.877 -0.0217  0.0439 -0.0611
    1PPC    C2B70139  12.949   2.155   4.884 -0.1842 -0.2344 -0.0926
    1PPC    C3B70140  12.753   1.892   5.199  0.1911  0.0755 -0.0430
    1PPC    C4B70141  12.446   1.771   5.450 -0.1668  0.1030 -0.1872
    1PPC    NC370142   8.433  10.912   3.143 -0.0367  0.0995  0.0836
    1PPC    PO470143   8.008  10.999   3.209 -0.0036 -0.2678 -0.0665
    1PPC    GL170144   8.023  11.016   3.648 -0.1777  0.0903 -0.0104
    1PPC    GL270145   7.735  11.123   3.815  0.1778  0.3694  0.0866
    1PPC    C1B70146   7.502  11.088   4.220  0.0456 -0.2933 -0.0935
    1PPC    C2B70147   7.160  11.389   4.139 -0.3681  0.0663  0.2075
    1PPC    C3B70148   7.071  11.752   4.360 -0.2895 -0.2309  0.3281
    1PPC    C4B70149   7.269  11.983   4.724  0.2152 -0.1093  0.1567
    1PPC    NC370150  22.688  22.368   2.267 -0.0445 -0.0920  0.0902
    1PPC    PO470151  22.625  22.391   2.710 -0.1053  0.2140  0.2532
    1PPC    GL170152  22.640  22.511   3.157 -0.2443  0.1303 -0.1718
    1PPC    GL270153  22.555  22.517   3.433 -0.3092  0.2086 -0.0653
    1PPC    C1B70154  22.555  22.551   3.816  0.0026 -0.4010  0.2936
    1PPC    C2B70155  22.540  22.633   4.233 -0.3546  0.0125  0.0914
    1PPC    C3B70156  22.580  22.496   4.667 -0.1858 -0.1719  0.2262
    1PPC    C4B70157  22.546  22.716   5.007 -0.1394 -0.0555 -0.0078
    1PPC    NC370158  26.224   2.485   2.628 -0.0449  0.1401  0.0062
    1PPC    PO470159  26.371   2.754   3.009  0.0313  0.0200 -0.0420
    1PPC    GL170160  26.338   2.651   3.366 -0.0503 -0.2968 -0.0883
    1PPC    GL270161  26.425   2.735   3.618  0.0582  0.1215 -0.0866
    1PPC    C1B70162  26.566   2.454   3.956  0.0773  0.0146  0.0308
    1PPC    C2B70163  26.548   2.533   4.364  0.0826  0.1724 -0.0818
    1PPC    C3B70164  26.405   2.629   4.734 -0.2255  0.0233  0.4237
    1PPC    C4B70165  26.168   2.376   5.052  0.1198  0.1492 -0.0944
    1PPC    NC370166  13.662   4.051   3.678 -0.0143  0.1266  0.0417
    1PPC    PO470167  13.893   4.328   3.834  0.2532  0.0238 -0.0017
    1PPC    GL170168  13.911   4.020   4.085 -0.2777  0.0690 -0.3182
    1PPC    GL270169  13.956   3.983   4.443  0.1592 -0.0570  0.3528
    1PPC    C1B70170  13.941   3.932   4.860  0.3867 -0.3499  0.1389
    1PPC    C2B70171  14.019   4.265   5.211  0.5210 -0.0499  0.1598
    1PPC    C3B70172  14.092   4.756   5.239 -0.3436  0.4962 -0.2574
    1PPC    C4B70173  14.069   5.181   5.097  0.0912 -0.1345  0.0251
    1PPC    NC370174   6.916  25.098   2.304  0.0099 -0.0138  0.1606
    1PPC    PO470175   7.411  25.136   2.347  0.0041  0.0393  0.0146
    1PPC    GL170176   7.515  25.037   2.766  0.2548  0.1156  0.1346
    1PPC    GL270177   7.308  24.973   3.014 -0.2793 -0.4756 -0.0061
    1PPC    C1B70178   7.201  24.887   3.418 -0.1815 -0.1047  0.0634
    1PPC    C2B70179   7.254  25.315   3.790 -0.0160  0.0349  0.1601
    1PPC    C3B70180   7.659  25.449   3.892 -0.1315 -0.1285 -0.0175
    1PPC    C4B70181   8.122  25.402   3.976 -0.5434  0.0240  0.0736
    1PPC    NC370182   0.204  24.233   3.222 -0.1301  0.0388  0.0703
    1PPC    PO470183   0.650  23.925   3.113  0.0361  0.3543  0.1598
    1PPC    GL170184   0.711  24.311   3.329 -0.0468 -0.0423  0.0932
    1PPC    GL270185   0.970  24.508   3.493 -0.1774  0.0731 -0.1359
    1PPC    C1B70186   1.185  24.597   3.783  0.4285 -0.2157 -0.5527
    1PPC    C2B70187   1.144  24.961   4.005 -0.1961  0.2982 -0.3288
    1PPC    C3B70188   1.279  25.269   4.345 -0.1656  0.1489 -0.2205
    1PPC    C4B70189   1.238  25.706   4.387 -0.1211  0.1228 -0.2666
    1PPC    NC370190  10.520  20.779   2.366 -0.0252 -0.0722 -0.0150
    1PPC    PO470191  10.560  21.139   2.655  0.1445 -0.0047  0.3326
    1PPC    GL170192  10.556  21.327   3.061 -0.0490 -0.0231 -0.0377
    1PPC    GL270193  10.483  21.417   3.407 -0.0548 -0.1097 -0.3410
    1PPC    C1B70194  10.504  21.251   3.836 -0.0183  0.0165 -0.0651
    1PPC    C2B70195  10.456  20.933   4.107 -0.0370  0.2275  0.5577
    1PPC    C3B70196  10.478  20.452   4.148 -0.1659  0.0969  0.1268
    1PPC    C4B70197  10.305  20.148   4.411  0.0489  0.0223 -0.2041
    1PPC    NC370198  13.620   7.420   3.647 -0.2299  0.0847 -0.0197
    1PPC    PO470199  13.851   7.156   3.893 -0.1143 -0.0645  0.1034
    1PPC    GL170200  14.355   7.434   4.026 -0.3354  0.1906  0.1674
    1PPC    GL270201  14.652   7.356   4.228 -0.1392 -0.0050 -0.2149
    1PPC    C1B70202  14.927   7.346   4.533  0.1148  0.0928 -0.1806
    1PPC    C2B70203  14.909   7.518   4.972  0.0850 -0.0229 -0.2081
    1PPC    C3B70204  15.211   7.870   5.145  0.1139 -0.1023  0.2353
    1PPC    C4B70205  15.151   8.317   5.381  0.0896 -0.2038  0.1463
  28.72206  28.72206   9.96202
