INSANE! Membrane UpperLeaflet>DPPC:DIPC:CHOL=20.0:65.0:15.0 LowerLeaflet>DPPC:DIPC:CHOL=20.0:65.0:15.0
72637
    1DPPC   NC3    1   3.503  19.189   6.483  0.1268 -0.2279 -0.1348
    1DPPC   PO4    2   3.247  19.457   6.619 -0.0704  0.0545 -0.1433
    1DPPC   GL1    3   3.058  19.375   6.304  0.0458 -0.0328  0.0906
    1DPPC   GL2    4   2.738  19.271   6.391 -0.1267  0.1562 -0.0082
    1DPPC   C1A    5   2.982  19.407   5.867  0.3775 -0.0534 -0.2144
    1DPPC   C2A    6   2.934  19.406   5.482  0.1037 -0.1064  0.1856
    1DPPC   C3A    7   3.098  19.584   5.116  0.1305  0.0227  0.2304
    1DPPC   C4A    8   3.251  19.845   4.815 -0.0894 -0.0039 -0.0154
    1DPPC   C1B    9   2.486  19.349   6.099 -0.1075  0.0458  0.2140
    1DPPC   C2B   10   2.405  19.517   5.633  0.0959  0.2601  0.3533
    1DPPC   C3B   11   2.565  19.602   5.245  0.0268 -0.0584 -0.1234
    1DPPC   C4B   12   2.411  19.507   4.794  0.0405  0.4095 -0.1411
    1DPPC   NC3   13   1.370  21.466   7.068  0.2060  0.2381  0.0259
    1DPPC   PO4   14   0.914  21.429   6.961  0.2437  0.1572 -0.0033
    1DPPC   GL1   15   0.952  21.505   6.544 -0.0410  0.1984 -0.0479
    1DPPC   GL2   16   0.956  21.206   6.352 -0.1723 -0.1256 -0.0077
    1DPPC   C1A   17   1.054  21.666   6.122  0.2229 -0.2058  0.2375
    1DPPC   C2A   18   1.260  21.783   5.681  0.0311  0.0894  0.0536
    1DPPC   C3A   19   1.336  21.797   5.236  0.1024  0.0513  0.1963
    1DPPC   C4A   20   1.272  21.833   4.932 -0.0918 -0.1631  0.0059
    1DPPC   C1B   21   1.120  20.979   6.016 -0.2171  0.2815 -0.0654
    1DPPC   C2B   22   1.244  21.045   5.584  0.0518  0.2782 -0.0875
    1DPPC   C3B   23   1.355  21.278   5.206 -0.4426 -0.3758 -0.0463
    1DPPC   C4B   24   1.676  21.384   4.901 -0.0666  0.1576 -0.0607
    1DPPC   NC3   25  29.098   9.155   6.698  0.0730  0.2483  0.2603
    1DPPC   PO4   26  29.295   9.576   6.509 -0.2707 -0.0833 -0.2241
    1DPPC   GL1   27  29.369   9.562   6.055 -0.0519 -0.0638  0.0527
    1DPPC   GL2   28  29.672   9.606   5.966  0.1330 -0.0013  0.0521
    1DPPC   C1A   29  29.156   9.685   5.707  0.1941  0.2211 -0.2690
    1DPPC   C2A   30  29.167   9.692   5.318  0.2081 -0.1813  0.5181
    1DPPC   C3A   31  29.383   9.792   4.986  0.1332 -0.0487  0.2383
    1DPPC   C4A   32  29.694   9.835   4.597 -0.0168  0.1136  0.0608
    1DPPC   C1B   33  29.734   9.503   5.566  0.4348 -0.2982  0.1150
    1DPPC   C2B   34  29.849   9.594   5.063  0.1635  0.0422 -0.3547
    1DPPC   C3B   35  29.929   9.387   4.702 -0.2262 -0.0361  0.0716
    1DPPC   C4B   36  29.990   9.031   4.503 -0.0122  0.0384 -0.0337
    1DPPC   NC3   37   6.051  13.817   7.167  0.1182  0.1039  0.1541
    1DPPC   PO4   38   6.422  13.644   7.015  0.1187 -0.4065  0.1655
    1DPPC   GL1   39   6.485  13.571   6.596  0.4451 -0.1217 -0.1122
    1DPPC   GL2   40   6.408  13.287   6.708  0.0246  0.2060  0.0659
    1DPPC   C1A   41   6.623  13.612   6.140 -0.1816 -0.0336  0.0935
    1DPPC   C2A   42   6.758  13.635   5.714 -0.0355  0.5775 -0.0159
    1DPPC   C3A   43   6.947  13.771   5.334 -0.0999 -0.2859 -0.0543
    1DPPC   C4A   44   6.951  14.114   5.076  0.0045 -0.0077 -0.0336
    1DPPC   C1B   45   6.526  13.167   6.310  0.1625 -0.3339 -0.2171
    1DPPC   C2B   46   6.633  13.128   5.937  0.0754 -0.0029  0.0002
    1DPPC   C3B   47   6.659  13.193   5.530  0.0753 -0.3817  0.3889
    1DPPC   C4B   48   6.623  13.465   5.055 -0.0624 -0.0470  0.0963
    1DPPC   NC3   49   5.836  14.694   7.029  0.1476  0.0714  0.0527
    1DPPC   PO4   50   5.644  14.237   7.164 -0.1886  0.0615  0.1926
    1DPPC   GL1   51   5.730  14.381   6.677  0.1150  0.1037 -0.3689
    1DPPC   GL2   52   5.407  14.188   6.594 -0.0435 -0.1714  0.2762
    1DPPC   C1A   53   5.906  14.300   6.344 -0.1036  0.3579  0.0220
    1DPPC   C2A   54   5.895  14.332   5.876  0.0300 -0.0550  0.1053
    1DPPC   C3A   55   5.763  14.499   5.462 -0.1350  0.0729  0.2820
    1DPPC   C4A   56   5.739  14.673   4.999  0.2937  0.1964 -0.1119
    1DPPC   C1B   57   5.470  14.143   6.130 -0.2679 -0.2193  0.0926
    1DPPC   C2B   58   5.435  14.182   5.612  0.0078  0.1620 -0.0915
    1DPPC   C3B   59   5.642  14.072   5.269 -0.0941  0.0853  0.0120
    1DPPC   C4B   60   5.649  14.138   4.788 -0.0828 -0.0291 -0.1650
    1DPPC   NC3   61   4.963  21.166   6.941  0.0048 -0.0275 -0.5183
    1DPPC   PO4   62   5.162  20.799   6.803  0.0743  0.2517  0.0320
    1DPPC   GL1   63   5.244  20.561   6.432  0.2330  0.2182  0.1011
    1DPPC   GL2   64   5.555  20.346   6.388 -0.0185  0.2644 -0.0625
    1DPPC   C1A   65   5.220  20.796   6.088  0.0734 -0.1306  0.0185
    1DPPC   C2A   66   5.244  20.799   5.603  0.1424 -0.1929 -0.3177
    1DPPC   C3A   67   5.194  20.583   5.178 -0.0089 -0.1427  0.1717
    1DPPC   C4A   68   5.419  20.250   4.908 -0.1410 -0.2060 -0.0463
    1DPPC   C1B   69   5.607  20.018   6.049  0.1174 -0.3790  0.1678
    1DPPC   C2B   70   5.568  19.930   5.607  0.1090 -0.1077 -0.2806
    1DPPC   C3B   71   5.433  19.865   5.199  0.2776  0.0180 -0.0999
    1DPPC   C4B   72   5.105  19.805   4.956 -0.1729  0.1785 -0.1497
    1DPPC   NC3   73   1.583  17.823   6.719 -0.1048 -0.1346  0.1434
    1DPPC   PO4   74   1.357  18.009   6.348  0.1342  0.1867  0.3312
    1DPPC   GL1   75   1.328  18.316   5.971  0.1993  0.0549 -0.0351
    1DPPC   GL2   76   0.933  18.524   5.961 -0.0098  0.0115  0.1123
    1DPPC   C1A   77   1.458  18.567   5.592 -0.0886  0.1391 -0.1708
    1DPPC   C2A   78   1.466  18.611   5.181  0.0726  0.2296  0.0112
    1DPPC   C3A   79   1.400  18.431   4.888 -0.0032 -0.2822  0.1159
    1DPPC   C4A   80   1.346  18.469   4.365 -0.1528 -0.2021  0.1054
    1DPPC   C1B   81   0.919  18.626   5.523  0.0362  0.1996 -0.1432
    1DPPC   C2B   82   0.983  18.612   5.098  0.3257  0.0982 -0.2617
    1DPPC   C3B   83   0.976  18.521   4.705 -0.5349  0.0388  0.2720
    1DPPC   C4B   84   0.847  18.716   4.381  0.2407 -0.1495  0.1036
    1DPPC   NC3   85   0.616  20.379   6.712 -0.1346 -0.0186  0.0702
    1DPPC   PO4   86   0.260  20.709   6.771  0.1638 -0.1685 -0.0249
    1DPPC   GL1   87   0.335  20.739   6.329 -0.0981  0.0889 -0.1139
    1DPPC   GL2   88   0.691  20.718   6.272 -0.2277  0.0396 -0.2201
    1DPPC   C1A   89   0.324  20.690   5.894 -0.2911 -0.1333  0.0510
    1DPPC   C2A   90   0.442  20.460   5.540 -0.1616  0.1908  0.1909
    1DPPC   C3A   91   0.456  20.660   5.193  0.2862  0.3115  0.0481
    1DPPC   C4A   92   0.440  20.760   4.729 -0.1068 -0.0926 -0.0697
    1DPPC   C1B   93   0.808  20.563   5.938  0.0534  0.3279  0.0182
    1DPPC   C2B   94   0.744  20.867   5.603 -0.4804  0.2816 -0.0435
    1DPPC   C3B   95   0.885  20.966   5.241  0.1095 -0.0390  0.1027
    1DPPC   C4B   96   0.864  20.957   4.764 -0.1489  0.0170  0.1955
    1DPPC   NC3   97   3.291  26.586   6.965  0.0398  0.0253  0.0242
    1DPPC   PO4   98   3.097  26.578   6.603  0.0279 -0.2933  0.1299
    1DPPC   GL1   99   3.190  26.636   6.106  0.1271  0.0453 -0.1956
    1DPPC   GL2  100   3.001  26.846   5.913 -0.1302 -0.2725 -0.2053
    1DPPC   C1A  101   3.005  26.385   5.824 -0.0548 -0.4526 -0.0307
    1DPPC   C2A  102   2.715  26.372   5.505 -0.2608 -0.3675 -0.5635
    1DPPC   C3A  103   2.759  26.491   5.157  0.1079 -0.0804 -0.0626
    1DPPC   C4A  104   2.886  26.786   4.919 -0.1331  0.1797  0.1549
    1DPPC   C1B  105   2.565  26.640   5.944  0.3328 -0.2378 -0.1741
    1DPPC   C2B  106   2.228  26.371   5.784 -0.1164  0.0701  0.0848
    1DPPC   C3B  107   1.825  26.301   5.742  0.0759  0.1298 -0.2062
    1DPPC   C4B  108   1.413  26.443   5.588 -0.1745  0.1799 -0.3828
    1DPPC   NC3  109  25.929  19.887   6.089  0.0494 -0.1760  0.0889
    1DPPC   PO4  110  26.216  19.948   5.678 -0.2714  0.0244  0.0943
    1DPPC   GL1  111  26.390  19.752   5.400  0.0088 -0.1040  0.2617
    1DPPC   GL2  112  26.434  19.473   5.324  0.2956 -0.4097 -0.0155
    1DPPC   C1A  113  26.558  19.713   4.871  0.0276 -0.1363 -0.1515
    1DPPC   C2A  114  26.764  19.540   4.409 -0.0642  0.1983 -0.1438
    1DPPC   C3A  115  26.756  19.491   4.003  0.0019  0.2368  0.2777
    1DPPC   C4A  116  26.629  19.218   3.689  0.0151 -0.0242  0.2670
    1DPPC   C1B  117  26.727  19.256   5.124  0.0567  0.0953 -0.1686
    1DPPC   C2B  118  27.048  19.114   4.829  0.0524  0.2059 -0.0386
    1DPPC   C3B  119  27.129  19.230   4.390  0.0773 -0.2521 -0.0688
    1DPPC   C4B  120  27.396  19.491   4.148 -0.4027 -0.1662  0.0687
    1DPPC   NC3  121  29.297  18.545   6.476 -0.2279 -0.0968  0.1041
    1DPPC   PO4  122  29.087  18.899   6.180 -0.1869 -0.1069  0.3038
    1DPPC   GL1  123  29.214  19.067   5.731  0.0683 -0.1103 -0.3359
    1DPPC   GL2  124  29.404  18.833   5.594  0.0818 -0.4351  0.1670
    1DPPC   C1A  125  29.195  19.073   5.261  0.0088  0.2782 -0.1344
    1DPPC   C2A  126  29.294  19.070   4.778  0.1314 -0.0293  0.0837
    1DPPC   C3A  127  29.073  19.340   4.459 -0.0765 -0.1556  0.1417
    1DPPC   C4A  128  28.953  19.696   4.239  0.0865  0.1083  0.1211
    1DPPC   C1B  129  29.462  18.614   5.223  0.2299  0.0897 -0.2251
    1DPPC   C2B  130  29.479  18.591   4.745  0.0677  0.4289 -0.1718
    1DPPC   C3B  131  29.541  18.697   4.374  0.1325  0.1895  0.0307
    1DPPC   C4B  132  29.686  18.477   3.904  0.0407 -0.1183 -0.5162
    1DPPC   NC3  133  12.838  15.932   6.551  0.2213 -0.0145  0.2200
    1DPPC   PO4  134  12.437  15.737   6.364 -0.0458  0.0286 -0.0758
    1DPPC   GL1  135  12.018  15.701   6.082 -0.1528 -0.2363  0.0072
    1DPPC   GL2  136  11.908  15.448   6.028 -0.1832 -0.0343  0.3049
    1DPPC   C1A  137  12.021  15.754   5.577 -0.4015 -0.0785 -0.3174
    1DPPC   C2A  138  12.097  15.552   5.161  0.0239 -0.0599 -0.2047
    1DPPC   C3A  139  12.484  15.627   4.882 -0.0862 -0.0277  0.1065
    1DPPC   C4A  140  12.746  15.982   4.757  0.1861 -0.4737  0.1130
    1DPPC   C1B  141  11.864  15.259   5.631 -0.0253 -0.2606  0.2036
    1DPPC   C2B  142  11.681  15.273   5.186 -0.0965  0.1471  0.2863
    1DPPC   C3B  143  11.667  15.172   4.709 -0.2874 -0.0184  0.0551
    1DPPC   C4B  144  11.655  15.255   4.332  0.1046  0.3633  0.0449
    1DPPC   NC3  145   2.879   1.147   6.690  0.0618  0.0900  0.0382
    1DPPC   PO4  146   2.487   1.462   6.858 -0.0473  0.0500  0.3112
    1DPPC   GL1  147   2.481   1.269   6.447 -0.0517 -0.1159 -0.2622
    1DPPC   GL2  148   2.218   1.098   6.438 -0.1392 -0.0130  0.1100
    1DPPC   C1A  149   2.584   1.260   6.044 -0.0700 -0.0381  0.0552
    1DPPC   C2A  150   2.493   1.396   5.708  0.2330 -0.0589  0.1663
    1DPPC   C3A  151   2.312   1.327   5.368 -0.2824 -0.0067  0.0212
    1DPPC   C4A  152   2.398   0.985   5.196 -0.0505 -0.4726  0.4231
    1DPPC   C1B  153   1.970   1.326   6.082 -0.0477 -0.2260 -0.3179
    1DPPC   C2B  154   1.920   1.231   5.622  0.0516  0.0838 -0.0170
    1DPPC   C3B  155   1.661   1.299   5.284  0.0276  0.0033  0.1758
    1DPPC   C4B  156   1.359   1.614   4.928 -0.1317 -0.1505 -0.3119
    1DPPC   NC3  157  25.743  18.322   5.905  0.4563 -0.2050 -0.0097
    1DPPC   PO4  158  25.699  17.915   5.708 -0.0954  0.1222 -0.3019
    1DPPC   GL1  159  25.820  17.788   5.275  0.0607 -0.1839 -0.2649
    1DPPC   GL2  160  26.093  17.817   5.153  0.0115  0.1443 -0.2532
    1DPPC   C1A  161  25.804  17.537   4.816  0.1590  0.0179 -0.0157
    1DPPC   C2A  162  25.937  17.519   4.339  0.2097 -0.2185  0.2313
    1DPPC   C3A  163  26.072  17.642   3.889 -0.1172  0.0704 -0.1004
    1DPPC   C4A  164  26.214  17.888   3.696  0.0822  0.0154 -0.1139
    1DPPC   C1B  165  26.131  17.931   4.832  0.1601 -0.3198 -0.0972
    1DPPC   C2B  166  26.277  17.859   4.461  0.1178  0.2267  0.0977
    1DPPC   C3B  167  26.482  17.951   4.154 -0.0023 -0.0369 -0.1284
    1DPPC   C4B  168  26.648  18.184   3.850  0.2576 -0.0328 -0.0828
    1DPPC   NC3  169  10.568  14.899   7.067  0.3513  0.1113  0.2993
    1DPPC   PO4  170  10.129  15.146   6.919 -0.0068 -0.0585  0.0538
    1DPPC   GL1  171  10.110  15.081   6.515  0.1622  0.0745 -0.1162
    1DPPC   GL2  172  10.143  14.747   6.343 -0.0368 -0.1793 -0.0490
    1DPPC   C1A  173   9.810  15.102   6.095 -0.1681 -0.1698  0.0647
    1DPPC   C2A  174   9.755  15.081   5.675 -0.4090 -0.1034 -0.1611
    1DPPC   C3A  175   9.899  14.996   5.334  0.4728  0.2172 -0.0489
    1DPPC   C4A  176   9.878  15.160   4.934  0.2402  0.2134 -0.2159
    1DPPC   C1B  177  10.209  14.825   5.905  0.3107  0.0308 -0.0146
    1DPPC   C2B  178  10.292  14.766   5.405  0.0857 -0.4757 -0.3490
    1DPPC   C3B  179  10.136  14.660   4.963  0.3930  0.1758  0.1536
    1DPPC   C4B  180  10.027  14.814   4.561 -0.1577  0.1694 -0.1138
    1DPPC   NC3  181   5.983  17.579   7.182 -0.0382 -0.1482 -0.1047
    1DPPC   PO4  182   5.687  17.411   7.105 -0.2478  0.2311  0.3803
    1DPPC   GL1  183   5.666  17.323   6.640  0.2690 -0.0495  0.2127
    1DPPC   GL2  184   5.954  17.137   6.489  0.1464 -0.0093 -0.0808
    1DPPC   C1A  185   5.582  17.544   6.229  0.1907 -0.3634 -0.3500
    1DPPC   C2A  186   5.658  17.502   5.834  0.2776  0.1427  0.0046
    1DPPC   C3A  187   5.795  17.625   5.580 -0.2037 -0.0053  0.2015
    1DPPC   C4A  188   5.790  17.668   5.153  0.1089 -0.3321  0.3007
    1DPPC   C1B  189   5.977  17.226   6.072  0.2320  0.0259 -0.0980
    1DPPC   C2B  190   6.113  17.244   5.677 -0.0760  0.0174  0.1669
    1DPPC   C3B  191   6.088  17.290   5.290 -0.0872 -0.1497  0.3795
    1DPPC   C4B  192   6.252  17.403   4.847  0.1436 -0.0869  0.1966
    1DPPC   NC3  193  26.112  20.576   5.744  0.0209 -0.0070  0.0579
    1DPPC   PO4  194  26.483  20.983   5.823  0.0049  0.4379  0.2986
    1DPPC   GL1  195  26.659  20.779   5.412 -0.3081  0.2078 -0.0143
    1DPPC   GL2  196  26.948  20.598   5.373  0.0045 -0.0355 -0.1476
    1DPPC   C1A  197  26.761  20.689   4.886  0.0142  0.1627 -0.1435
    1DPPC   C2A  198  26.882  20.686   4.455  0.1873 -0.2914  0.0464
    1DPPC   C3A  199  26.847  20.457   4.116  0.0980 -0.1482 -0.0766
    1DPPC   C4A  200  26.736  20.237   3.756 -0.0689 -0.0644 -0.1942
    1DPPC   C1B  201  27.114  20.305   5.010  0.0392  0.1049 -0.1428
    1DPPC   C2B  202  27.019  20.186   4.629 -0.0516 -0.2304  0.0442
    1DPPC   C3B  203  26.655  20.020   4.460  0.2341  0.0670 -0.1335
    1DPPC   C4B  204  26.528  19.910   4.071 -0.0692  0.1404  0.0846
    1DPPC   NC3  205  10.436  20.449   6.931  0.2253 -0.1898  0.1590
    1DPPC   PO4  206  10.598  20.611   6.592 -0.0413  0.1830 -0.1216
    1DPPC   GL1  207  10.434  20.591   6.123 -0.0623 -0.2423  0.1895
    1DPPC   GL2  208  10.121  20.717   6.214 -0.1403 -0.0161  0.1814
    1DPPC   C1A  209  10.402  20.742   5.676 -0.3749  0.1241 -0.2355
    1DPPC   C2A  210  10.482  21.033   5.277  0.0306  0.0783 -0.4657
    1DPPC   C3A  211  10.553  21.057   4.756 -0.0416 -0.0860 -0.0298
    1DPPC   C4A  212  10.235  21.141   4.413  0.2603 -0.2319 -0.1563
    1DPPC   C1B  213   9.872  20.827   5.911 -0.1428 -0.2760  0.1368
    1DPPC   C2B  214   9.991  20.848   5.468  0.1644  0.1583  0.1476
    1DPPC   C3B  215   9.745  20.771   5.036 -0.2669  0.1424 -0.2624
    1DPPC   C4B  216   9.457  20.834   4.819  0.2976  0.1722 -0.1921
    1DPPC   NC3  217   4.427  17.883   6.669 -0.2903  0.1519 -0.0315
    1DPPC   PO4  218   4.778  17.608   6.759  0.0510  0.0919  0.0598
    1DPPC   GL1  219   4.735  17.616   6.340 -0.0710  0.2079  0.1538
    1DPPC   GL2  220   4.422  17.828   6.186  0.1970 -0.3724  0.2685
    1DPPC   C1A  221   4.658  17.536   5.896  0.0094 -0.4073 -0.0763
    1DPPC   C2A  222   4.728  17.739   5.572 -0.1811  0.1856  0.1219
    1DPPC   C3A  223   4.857  17.694   5.121  0.1532 -0.3836 -0.0143
    1DPPC   C4A  224   4.985  17.739   4.719 -0.0035  0.2176  0.4467
    1DPPC   C1B  225   4.361  18.001   5.787 -0.1972 -0.0528 -0.0038
    1DPPC   C2B  226   4.359  18.099   5.464  0.5790  0.2022 -0.2325
    1DPPC   C3B  227   4.493  18.031   5.000  0.0296  0.2098 -0.1700
    1DPPC   C4B  228   4.300  18.179   4.569  0.0249 -0.0510 -0.2519
    1DPPC   NC3  229   7.888  14.405   7.702 -0.0453  0.0604  0.0713
    1DPPC   PO4  230   7.538  14.160   7.428  0.1967 -0.1623  0.0125
    1DPPC   GL1  231   7.580  14.136   6.940  0.0511  0.1625  0.3594
    1DPPC   GL2  232   7.664  14.417   6.795 -0.0702 -0.1666  0.0456
    1DPPC   C1A  233   7.520  13.902   6.551  0.0885  0.1192 -0.3007
    1DPPC   C2A  234   7.491  13.910   6.168 -0.1183 -0.0621  0.1227
    1DPPC   C3A  235   7.478  13.900   5.785 -0.2097  0.0060  0.0213
    1DPPC   C4A  236   7.441  13.795   5.420 -0.1513 -0.1464 -0.0723
    1DPPC   C1B  237   7.587  14.399   6.386  0.0893  0.0745  0.0758
    1DPPC   C2B  238   7.582  14.445   5.974  0.2876 -0.0328  0.1447
    1DPPC   C3B  239   7.544  14.363   5.598 -0.1266  0.0764  0.1206
    1DPPC   C4B  240   7.324  14.375   5.235 -0.0767  0.1096  0.0842
    1DPPC   NC3  241  26.201  14.637   5.865  0.1001 -0.0753  0.3391
    1DPPC   PO4  242  25.976  15.057   5.609  0.1727  0.2984  0.0422
    1DPPC   GL1  243  25.826  14.842   5.212 -0.1683 -0.0671 -0.1248
    1DPPC   GL2  244  25.667  14.697   5.371  0.1118 -0.1475  0.1056
    1DPPC   C1A  245  25.815  14.833   4.811  0.0260 -0.1889  0.0445
    1DPPC   C2A  246  25.968  14.843   4.451 -0.3272 -0.1068 -0.0592
    1DPPC   C3A  247  26.118  14.832   4.107  0.0594 -0.4195  0.3392
    1DPPC   C4A  248  26.031  14.881   3.657 -0.2642  0.1889  0.1085
    1DPPC   C1B  249  25.562  14.436   5.074 -0.1031  0.2364 -0.2461
    1DPPC   C2B  250  25.676  14.378   4.655 -0.1052 -0.0183 -0.1918
    1DPPC   C3B  251  25.761  14.414   4.284  0.0950  0.1802 -0.3028
    1DPPC   C4B  252  25.945  14.404   3.798  0.0258  0.2004 -0.2152
    1DPPC   NC3  253   5.370  20.344   6.849  0.1877  0.1436  0.1723
    1DPPC   PO4  254   4.941  20.326   6.903  0.0858 -0.2667 -0.0260
    1DPPC   GL1  255   4.718  20.582   6.608  0.1126  0.0690 -0.3067
    1DPPC   GL2  256   4.508  20.784   6.739  0.0751 -0.0111 -0.1658
    1DPPC   C1A  257   4.766  20.628   6.089  0.0368 -0.0879  0.3296
    1DPPC   C2A  258   4.762  20.463   5.656 -0.0553 -0.0712 -0.0890
    1DPPC   C3A  259   4.716  20.728   5.291 -0.1679 -0.1459 -0.0780
    1DPPC   C4A  260   4.532  20.759   4.964 -0.2659  0.2590 -0.1674
    1DPPC   C1B  261   4.369  20.830   6.293 -0.3711 -0.0893  0.0717
    1DPPC   C2B  262   4.415  20.984   5.863  0.2207  0.1727 -0.2878
    1DPPC   C3B  263   4.309  20.916   5.561  0.0291  0.1907  0.0288
    1DPPC   C4B  264   3.978  20.941   5.206 -0.0238 -0.1355 -0.2407
    1DPPC   NC3  265  26.822  20.637   6.186 -0.1988  0.2234 -0.3670
    1DPPC   PO4  266  26.603  20.447   5.805 -0.3082 -0.0001  0.2143
    1DPPC   GL1  267  26.565  20.256   5.394 -0.0821  0.0925 -0.2175
    1DPPC   GL2  268  26.318  20.470   5.290  0.3933 -0.2185 -0.1204
    1DPPC   C1A  269  26.558  20.215   4.946  0.0372 -0.1577 -0.2767
    1DPPC   C2A  270  26.320  20.400   4.685  0.0143 -0.2086 -0.0985
    1DPPC   C3A  271  26.417  20.728   4.473 -0.1468 -0.0748 -0.1634
    1DPPC   C4A  272  26.520  20.878   3.995  0.3087 -0.1407 -0.0391
    1DPPC   C1B  273  26.131  20.712   5.045 -0.1163  0.1514  0.1335
    1DPPC   C2B  274  25.995  20.827   4.666  0.0598 -0.2356  0.0770
    1DPPC   C3B  275  25.972  20.870   4.177  0.1223 -0.1197  0.1550
    1DPPC   C4B  276  26.003  21.035   3.737  0.3754 -0.1728  0.3129
    1DPPC   NC3  277  27.628  21.628   6.237 -0.1224  0.0804  0.1312
    1DPPC   PO4  278  27.406  21.220   6.010 -0.0359  0.0104  0.0464
    1DPPC   GL1  279  27.383  21.336   5.634 -0.0232  0.0688 -0.1494
    1DPPC   GL2  280  27.197  21.574   5.497  0.0389  0.2321  0.0311
    1DPPC   C1A  281  27.552  21.209   5.179 -0.1443  0.0888 -0.1539
    1DPPC   C2A  282  27.676  21.078   4.824 -0.4407  0.0906 -0.0802
    1DPPC   C3A  283  27.802  21.101   4.428 -0.2075 -0.1541  0.0745
    1DPPC   C4A  284  27.639  21.245   4.007 -0.2220 -0.1889  0.4412
    1DPPC   C1B  285  27.377  21.616   5.055 -0.2975 -0.0871  0.1040
    1DPPC   C2B  286  27.632  21.523   4.606 -0.0762 -0.0123 -0.3690
    1DPPC   C3B  287  28.018  21.591   4.393  0.2253 -0.2270 -0.0126
    1DPPC   C4B  288  28.411  21.764   4.247  0.1086  0.2641  0.0818
    1DPPC   NC3  289  24.804  18.072   5.452  0.0027  0.0918  0.2125
    1DPPC   PO4  290  24.894  17.829   5.221 -0.2291  0.2126  0.1229
    1DPPC   GL1  291  24.821  17.685   4.928 -0.0729  0.5065 -0.0959
    1DPPC   GL2  292  24.883  17.439   4.823 -0.0142  0.2054 -0.2230
    1DPPC   C1A  293  24.630  17.896   4.574  0.1084 -0.0356  0.4039
    1DPPC   C2A  294  24.644  18.320   4.443  0.0635  0.1216 -0.1692
    1DPPC   C3A  295  24.478  18.657   4.301 -0.1421 -0.0782  0.3808
    1DPPC   C4A  296  24.282  18.914   3.944  0.1005 -0.1758  0.3751
    1DPPC   C1B  297  24.839  17.502   4.408 -0.0003 -0.3763 -0.4461
    1DPPC   C2B  298  25.013  17.561   4.070  0.0649 -0.0929 -0.0856
    1DPPC   C3B  299  24.956  17.704   3.680 -0.0806 -0.0619  0.1085
    1DPPC   C4B  300  25.184  17.949   3.338 -0.2442  0.2297 -0.0062
    1DPPC   NC3  301   2.714  20.231   6.740 -0.2818 -0.3633  0.3488
    1DPPC   PO4  302   2.321  20.551   6.876  0.1015 -0.0030 -0.0428
    1DPPC   GL1  303   2.260  20.316   6.416  0.1117 -0.0486 -0.2365
    1DPPC   GL2  304   2.581  20.188   6.261 -0.2971 -0.2306 -0.1468
    1DPPC   C1A  305   2.199  20.610   6.114  0.2111 -0.0456 -0.0850
    1DPPC   C2A  306   2.207  20.523   5.687  0.0412 -0.1303  0.0957
    1DPPC   C3A  307   2.259  20.825   5.319  0.0178  0.2517  0.1811
    1DPPC   C4A  308   2.458  21.080   4.931  0.2927  0.1998  0.2003
    1DPPC   C1B  309   2.698  20.371   5.928 -0.0640  0.1625  0.1841
    1DPPC   C2B  310   2.637  20.443   5.553 -0.1146 -0.1071 -0.2602
    1DPPC   C3B  311   2.628  20.517   5.060 -0.1763 -0.3022 -0.2129
    1DPPC   C4B  312   2.621  20.261   4.667  0.2280 -0.1495  0.0973
    1DPPC   NC3  313  29.728  12.969   6.400 -0.0683 -0.1834  0.1736
    1DPPC   PO4  314  29.813  13.401   6.622  0.0007  0.2836  0.0566
    1DPPC   GL1  315  29.894  13.543   6.235 -0.0654  0.0878  0.1311
    1DPPC   GL2  316  30.092  13.263   6.213  0.0469  0.2129 -0.2228
    1DPPC   C1A  317  29.805  13.630   5.763  0.0038 -0.0952  0.1891
    1DPPC   C2A  318  29.804  13.598   5.300 -0.1519  0.4643  0.0236
    1DPPC   C3A  319  29.810  13.332   5.038 -0.1866  0.2862  0.1763
    1DPPC   C4A  320  29.901  12.891   5.085 -0.0037  0.0108 -0.1434
    1DPPC   C1B  321  30.222  13.383   5.771 -0.1743  0.1575 -0.0492
    1DPPC   C2B  322  30.217  13.309   5.287  0.3630  0.2197  0.0800
    1DPPC   C3B  323  30.293  13.234   4.811 -0.1818 -0.2116  0.1176
    1DPPC   C4B  324  30.491  13.519   4.540  0.4032  0.2310 -0.1387
    1DPPC   NC3  325  27.809  14.476   6.649 -0.2239 -0.0673  0.0433
    1DPPC   PO4  326  27.476  14.443   6.324  0.0191  0.1515 -0.2945
    1DPPC   GL1  327  27.634  14.291   5.964 -0.0512 -0.1346  0.1937
    1DPPC   GL2  328  27.523  14.113   5.813 -0.0971  0.0486 -0.2035
    1DPPC   C1A  329  27.982  14.312   5.566 -0.0164  0.1437 -0.0324
    1DPPC   C2A  330  28.040  14.279   5.233  0.0104  0.1615  0.0548
    1DPPC   C3A  331  28.098  14.149   4.863  0.3310 -0.1632  0.3001
    1DPPC   C4A  332  28.064  14.150   4.481 -0.1896  0.1282 -0.0767
    1DPPC   C1B  333  27.554  14.001   5.375 -0.0604 -0.1955 -0.2176
    1DPPC   C2B  334  27.559  14.009   5.031  0.1799 -0.0252  0.0414
    1DPPC   C3B  335  27.446  13.845   4.702 -0.0260 -0.1186  0.0626
    1DPPC   C4B  336  27.380  13.576   4.406 -0.2408  0.1893 -0.1149
    1DPPC   NC3  337   9.699  12.676   7.409  0.2661 -0.1060  0.3390
    1DPPC   PO4  338   9.295  12.543   7.363 -0.4281  0.2493 -0.2609
    1DPPC   GL1  339   9.096  12.561   6.987 -0.1292  0.1311 -0.2435
    1DPPC   GL2  340   8.936  12.235   6.837 -0.1572  0.1557  0.1317
    1DPPC   C1A  341   9.201  12.890   6.584  0.3277  0.0615  0.4560
    1DPPC   C2A  342   9.097  12.847   6.192  0.0619 -0.2250 -0.0305
    1DPPC   C3A  343   9.109  12.569   5.773  0.0682 -0.1699  0.3470
    1DPPC   C4A  344   9.426  12.274   5.534  0.2468 -0.2265  0.2534
    1DPPC   C1B  345   8.821  12.156   6.367 -0.1088 -0.1390 -0.0009
    1DPPC   C2B  346   8.689  12.355   6.081  0.2870 -0.5539 -0.1335
    1DPPC   C3B  347   8.508  12.287   5.722  0.0520 -0.0410  0.0918
    1DPPC   C4B  348   8.327  12.182   5.315  0.2296  0.0341 -0.1171
    1DPPC   NC3  349  28.016  13.672   6.255  0.2091  0.0810 -0.0404
    1DPPC   PO4  350  27.967  14.170   6.313 -0.1228  0.0089 -0.1893
    1DPPC   GL1  351  28.052  13.949   5.869  0.0748 -0.0894  0.0236
    1DPPC   GL2  352  27.823  13.722   5.805  0.0379 -0.0931 -0.1976
    1DPPC   C1A  353  28.354  13.871   5.530 -0.0121 -0.3549  0.0072
    1DPPC   C2A  354  28.386  13.774   5.100  0.1366  0.1986 -0.0949
    1DPPC   C3A  355  28.399  13.590   4.694 -0.1384  0.0358  0.2242
    1DPPC   C4A  356  28.619  13.469   4.371 -0.1140 -0.0791  0.1431
    1DPPC   C1B  357  27.959  13.684   5.331 -0.0624  0.0711 -0.1564
    1DPPC   C2B  358  27.938  13.708   4.860  0.2203  0.2317 -0.0314
    1DPPC   C3B  359  27.925  13.695   4.439  0.0509  0.1362 -0.1920
    1DPPC   C4B  360  27.655  13.923   4.117 -0.0260 -0.1665 -0.0862
    1DPPC   NC3  361   1.338  14.161   6.616  0.0745  0.1984 -0.0351
    1DPPC   PO4  362   1.121  13.777   6.758 -0.0881  0.0816 -0.0742
    1DPPC   GL1  363   1.150  13.724   6.309 -0.0463 -0.0731 -0.0657
    1DPPC   GL2  364   1.139  13.931   6.206  0.1692 -0.1542  0.1823
    1DPPC   C1A  365   0.955  13.560   5.899  0.0166  0.0920 -0.1709
    1DPPC   C2A  366   0.973  13.446   5.483 -0.2126 -0.1726  0.2246
    1DPPC   C3A  367   0.999  13.163   5.076 -0.1058  0.1530  0.0398
    1DPPC   C4A  368   0.830  12.978   4.566  0.0508  0.0727 -0.3496
    1DPPC   C1B  369   1.319  14.218   5.951  0.1562 -0.1192  0.1948
    1DPPC   C2B  370   1.411  14.226   5.604 -0.1147 -0.0569  0.1891
    1DPPC   C3B  371   1.641  14.078   5.233  0.1041  0.2114  0.0735
    1DPPC   C4B  372   1.516  14.118   4.840 -0.4155  0.0352 -0.0528
    1DPPC   NC3  373   3.875  12.217   7.243 -0.0725 -0.1754  0.0835
    1DPPC   PO4  374   3.543  12.515   7.192 -0.2641  0.0081 -0.0677
    1DPPC   GL1  375   3.591  12.417   6.758 -0.2017  0.0095  0.1827
    1DPPC   GL2  376   3.334  12.161   6.698  0.0352 -0.1058  0.1651
    1DPPC   C1A  377   3.796  12.517   6.441 -0.1306 -0.0240  0.0334
    1DPPC   C2A  378   3.865  12.364   6.017  0.1179  0.0316  0.0313
    1DPPC   C3A  379   3.811  12.257   5.563  0.2643 -0.0424 -0.0729
    1DPPC   C4A  380   3.863  12.087   5.095  0.0449  0.0085 -0.4130
    1DPPC   C1B  381   3.443  12.060   6.289 -0.2517  0.2451  0.1768
    1DPPC   C2B  382   3.546  12.023   5.900 -0.2902 -0.2046  0.1846
    1DPPC   C3B  383   3.429  12.062   5.390 -0.0535  0.0645 -0.1152
    1DPPC   C4B  384   3.294  12.347   4.965 -0.2500  0.1164  0.0533
    1DPPC   NC3  385  24.504  20.674   6.264 -0.2397  0.2408  0.2746
    1DPPC   PO4  386  25.041  20.769   6.139 -0.0435  0.3135 -0.2098
    1DPPC   GL1  387  25.139  20.835   5.705  0.1172 -0.1004 -0.3674
    1DPPC   GL2  388  25.260  20.606   5.502  0.1831 -0.1793  0.1894
    1DPPC   C1A  389  25.006  21.120   5.276 -0.1689  0.1066  0.1051
    1DPPC   C2A  390  25.044  21.092   4.845  0.2361 -0.0511  0.2688
    1DPPC   C3A  391  25.059  21.058   4.454  0.2629 -0.0874  0.2524
    1DPPC   C4A  392  25.200  21.237   4.213 -0.0493 -0.2111  0.0827
    1DPPC   C1B  393  25.181  20.576   5.083  0.0866 -0.1430 -0.0623
    1DPPC   C2B  394  25.231  20.473   4.644 -0.5158  0.1560 -0.0141
    1DPPC   C3B  395  25.015  20.565   4.274 -0.0554 -0.1790  0.1735
    1DPPC   C4B  396  25.007  20.928   3.913 -0.0003 -0.0352 -0.0653
    1DPPC   NC3  397   5.593  13.335   6.874  0.1292  0.1121  0.0852
    1DPPC   PO4  398   5.629  13.628   7.001  0.1899 -0.0481 -0.3383
    1DPPC   GL1  399   5.692  13.830   6.666 -0.0536  0.1341  0.0889
    1DPPC   GL2  400   5.990  13.627   6.641  0.1098  0.2515  0.0635
    1DPPC   C1A  401   5.787  13.798   6.238 -0.0655 -0.0282  0.2622
    1DPPC   C2A  402   5.797  13.867   5.746 -0.2821  0.1843  0.0179
    1DPPC   C3A  403   6.066  14.122   5.445  0.0876 -0.0365  0.1223
    1DPPC   C4A  404   6.056  14.275   5.083 -0.2121  0.3952  0.0755
    1DPPC   C1B  405   6.157  13.486   6.246  0.0025  0.2873 -0.3279
    1DPPC   C2B  406   6.194  13.478   5.832  0.0310 -0.1911 -0.2578
    1DPPC   C3B  407   6.248  13.602   5.434  0.0819  0.0005 -0.0160
    1DPPC   C4B  408   6.174  13.300   5.076  0.0400  0.1512 -0.0317
    1DPPC   NC3  409  23.056  16.416   5.419  0.1099  0.2610  0.1437
    1DPPC   PO4  410  23.424  16.645   5.307  0.3218  0.0630 -0.0411
    1DPPC   GL1  411  23.611  16.757   5.065  0.0452  0.2428  0.0973
    1DPPC   GL2  412  23.528  16.445   4.864 -0.4310  0.2272  0.2746
    1DPPC   C1A  413  23.412  16.993   4.679 -0.2135 -0.4360  0.1742
    1DPPC   C2A  414  23.400  17.213   4.330 -0.3496 -0.0819 -0.0066
    1DPPC   C3A  415  23.514  17.197   3.900  0.2460 -0.2807  0.2202
    1DPPC   C4A  416  23.481  17.148   3.532 -0.0087  0.0505  0.2894
    1DPPC   C1B  417  23.274  16.453   4.620  0.1722 -0.1053 -0.1578
    1DPPC   C2B  418  22.910  16.563   4.490 -0.0327 -0.0007 -0.1022
    1DPPC   C3B  419  22.949  16.757   4.083  0.2397  0.3473  0.0820
    1DPPC   C4B  420  23.123  16.846   3.660  0.2372  0.1698  0.0756
    1DPPC   NC3  421   2.105  19.031   6.516 -0.0093  0.1052 -0.0527
    1DPPC   PO4  422   2.484  18.919   6.824  0.2100 -0.2772  0.1919
    1DPPC   GL1  423   2.545  18.798   6.446 -0.1821  0.2041  0.1703
    1DPPC   GL2  424   2.562  18.851   6.062  0.0229 -0.0281 -0.0215
    1DPPC   C1A  425   2.966  18.645   6.326 -0.0985 -0.0869 -0.1151
    1DPPC   C2A  426   2.997  18.512   5.921  0.1688 -0.4630 -0.1478
    1DPPC   C3A  427   2.961  18.542   5.491 -0.2739 -0.1015  0.0008
    1DPPC   C4A  428   3.167  18.526   5.048 -0.1064 -0.1844  0.1737
    1DPPC   C1B  429   2.624  18.943   5.627 -0.1837  0.1166 -0.0244
    1DPPC   C2B  430   2.803  18.947   5.218 -0.0802 -0.0325  0.1775
    1DPPC   C3B  431   2.925  19.132   4.847 -0.3601 -0.1062 -0.1828
    1DPPC   C4B  432   2.914  19.524   4.660 -0.1584  0.4048 -0.0211
    1DPPC   NC3  433   5.468  12.778   7.419 -0.0412 -0.1221 -0.1725
    1DPPC   PO4  434   5.760  12.875   7.104  0.1156 -0.0960  0.0371
    1DPPC   GL1  435   5.721  12.648   6.799 -0.0056 -0.1022 -0.0779
    1DPPC   GL2  436   5.535  12.816   6.514 -0.0506 -0.2113  0.0371
    1DPPC   C1A  437   5.660  12.278   6.636 -0.3455  0.0710  0.2743
    1DPPC   C2A  438   5.693  12.086   6.236  0.0346  0.0643  0.0031
    1DPPC   C3A  439   5.753  12.257   5.865  0.2295  0.2230 -0.0282
    1DPPC   C4A  440   5.799  12.143   5.458  0.0858  0.1542 -0.2450
    1DPPC   C1B  441   5.489  12.570   6.198  0.3449  0.1977  0.1731
    1DPPC   C2B  442   5.553  12.678   5.825  0.0640 -0.3170 -0.2109
    1DPPC   C3B  443   5.702  12.671   5.453 -0.1498  0.0859 -0.1572
    1DPPC   C4B  444   5.753  12.506   5.014  0.2862  0.1861 -0.0154
    1DPPC   NC3  445   4.456  21.157   7.488 -0.0254  0.0077  0.1518
    1DPPC   PO4  446   4.488  21.218   6.964  0.1255  0.1482 -0.1063
    1DPPC   GL1  447   4.402  21.255   6.582  0.0382 -0.1419 -0.0266
    1DPPC   GL2  448   4.638  21.549   6.480 -0.4313  0.1024  0.0342
    1DPPC   C1A  449   4.296  21.372   6.183  0.1215  0.0913 -0.0010
    1DPPC   C2A  450   4.467  21.559   5.816  0.2349 -0.0364 -0.0474
    1DPPC   C3A  451   4.496  21.413   5.401  0.2089  0.3817  0.0582
    1DPPC   C4A  452   4.325  21.285   5.021  0.2133  0.7846  0.1927
    1DPPC   C1B  453   4.941  21.710   6.235 -0.2578  0.0579 -0.0817
    1DPPC   C2B  454   5.079  21.767   5.796  0.1636  0.1476  0.3558
    1DPPC   C3B  455   4.981  21.819   5.376 -0.0543  0.1099  0.1713
    1DPPC   C4B  456   4.768  21.560   4.945 -0.2197 -0.0326  0.1655
    1DPPC   NC3  457   6.672  21.476   6.983 -0.0379 -0.0377 -0.0427
    1DPPC   PO4  458   7.127  21.528   6.756  0.1174 -0.0003  0.0742
    1DPPC   GL1  459   6.956  21.710   6.251 -0.0387  0.0915 -0.0545
    1DPPC   GL2  460   7.158  21.931   6.090 -0.1439 -0.0971 -0.1875
    1DPPC   C1A  461   6.722  21.662   5.914 -0.0921  0.1998  0.2530
    1DPPC   C2A  462   6.766  21.694   5.390  0.3605 -0.0836 -0.2521
    1DPPC   C3A  463   6.610  21.760   4.931 -0.1370  0.0005 -0.2743
    1DPPC   C4A  464   6.222  21.940   4.733  0.0621  0.1666 -0.3127
    1DPPC   C1B  465   6.928  22.175   5.891 -0.0722  0.1418  0.0895
    1DPPC   C2B  466   6.723  22.180   5.514 -0.1227  0.1722  0.0871
    1DPPC   C3B  467   6.729  22.260   5.070 -0.2943  0.0642 -0.0992
    1DPPC   C4B  468   6.615  22.272   4.647 -0.1711  0.1260  0.0063
    1DPPC   NC3  469  29.019  14.995   6.245  0.2385  0.1062  0.1372
    1DPPC   PO4  470  28.696  15.274   6.307  0.3036 -0.1415 -0.1373
    1DPPC   GL1  471  28.617  15.472   5.959  0.0425  0.2609  0.0649
    1DPPC   GL2  472  28.865  15.330   5.854  0.0675 -0.0571 -0.0903
    1DPPC   C1A  473  28.569  15.742   5.488 -0.0330  0.3675 -0.0101
    1DPPC   C2A  474  28.733  15.745   5.045  0.4055 -0.0638  0.0712
    1DPPC   C3A  475  28.738  15.606   4.601  0.0297 -0.0303  0.2430
    1DPPC   C4A  476  28.860  15.821   4.242  0.0092  0.2173 -0.2014
    1DPPC   C1B  477  28.873  15.362   5.381  0.3722  0.1900 -0.2538
    1DPPC   C2B  478  28.903  15.235   4.971  0.2734  0.2175 -0.2241
    1DPPC   C3B  479  28.786  15.094   4.503  0.0545 -0.0489 -0.0221
    1DPPC   C4B  480  28.498  15.349   4.117 -0.1815 -0.0013  0.0622
    1DPPC   NC3  481   1.350  17.430   6.494  0.0055 -0.1371  0.1222
    1DPPC   PO4  482   0.947  17.345   6.523 -0.1970  0.1214 -0.0823
    1DPPC   GL1  483   0.883  17.519   6.036 -0.0364  0.0636 -0.0178
    1DPPC   GL2  484   0.551  17.484   5.876  0.1554  0.0326  0.0856
    1DPPC   C1A  485   1.168  17.714   5.727  0.2216  0.1233 -0.0310
    1DPPC   C2A  486   1.307  17.709   5.337 -0.2944  0.1435 -0.1140
    1DPPC   C3A  487   1.422  17.855   4.936 -0.3998  0.0291 -0.0247
    1DPPC   C4A  488   1.440  17.922   4.534 -0.0976  0.0455  0.1345
    1DPPC   C1B  489   0.800  17.511   5.486  0.0034 -0.1365 -0.0304
    1DPPC   C2B  490   0.844  17.579   5.063  0.0182  0.3524  0.0769
    1DPPC   C3B  491   0.671  17.546   4.676  0.1918 -0.1087  0.0584
    1DPPC   C4B  492   0.525  17.554   4.319  0.1652 -0.2174 -0.1530
    1DPPC   NC3  493   9.387  18.150   6.720  0.0219  0.1646  0.0525
    1DPPC   PO4  494   9.056  18.449   6.719  0.1352  0.0104  0.2983
    1DPPC   GL1  495   8.985  18.446   6.223 -0.2025 -0.0644 -0.1065
    1DPPC   GL2  496   8.688  18.601   6.119 -0.0547 -0.3088  0.0174
    1DPPC   C1A  497   9.121  18.381   5.796  0.0772 -0.0281 -0.2623
    1DPPC   C2A  498   9.422  18.398   5.481  0.1726 -0.0486  0.4680
    1DPPC   C3A  499   9.217  18.254   5.120  0.0423  0.0886 -0.1194
    1DPPC   C4A  500   9.286  18.201   4.688 -0.1254  0.1250  0.1141
    1DPPC   C1B  501   8.560  18.523   5.710 -0.1047  0.3062  0.1896
    1DPPC   C2B  502   8.823  18.491   5.346 -0.1533  0.1569  0.0679
    1DPPC   C3B  503   8.954  18.617   4.904  0.4850 -0.1706 -0.1201
    1DPPC   C4B  504   9.084  18.927   4.584 -0.1101  0.1658 -0.1389
    1DPPC   NC3  505  12.611  13.763   7.073 -0.1395 -0.1632  0.1270
    1DPPC   PO4  506  13.055  13.894   6.960 -0.1365 -0.1742 -0.1940
    1DPPC   GL1  507  13.110  13.962   6.491  0.1396  0.0020 -0.0154
    1DPPC   GL2  508  13.104  14.157   6.328  0.0463 -0.1067  0.0051
    1DPPC   C1A  509  13.296  13.783   6.091  0.0989  0.1476  0.1001
    1DPPC   C2A  510  13.230  13.764   5.626 -0.1100 -0.4635  0.1901
    1DPPC   C3A  511  13.225  13.850   5.145 -0.1075  0.0211 -0.0187
    1DPPC   C4A  512  13.385  13.968   4.709  0.1813  0.0393 -0.1019
    1DPPC   C1B  513  13.066  14.193   5.888  0.3135  0.0016  0.5276
    1DPPC   C2B  514  12.766  14.477   5.601  0.4095  0.1124  0.1171
    1DPPC   C3B  515  12.575  14.769   5.330  0.2031 -0.0426  0.1581
    1DPPC   C4B  516  12.432  14.755   4.862  0.5541 -0.5026 -0.2544
    1DPPC   NC3  517  29.794  19.345   6.747  0.1072  0.2066  0.0387
    1DPPC   PO4  518  29.926  19.301   6.311 -0.2885 -0.1139  0.0566
    1DPPC   GL1  519  30.153  19.427   6.025 -0.1433 -0.0723 -0.1685
    1DPPC   GL2  520  30.155  19.723   5.954  0.0031 -0.3379  0.0408
    1DPPC   C1A  521  30.238  19.416   5.570  0.0541  0.1005  0.0553
    1DPPC   C2A  522  30.422  19.383   5.153  0.0778  0.0688 -0.0489
    1DPPC   C3A  523  30.651  19.494   4.814  0.0916  0.1302 -0.2175
    1DPPC   C4A  524  30.856  19.461   4.397 -0.2323 -0.3795  0.1615
    1DPPC   C1B  525  30.285  19.941   5.565 -0.2296 -0.1284 -0.2664
    1DPPC   C2B  526  30.279  20.057   5.118  0.3320 -0.0525 -0.1901
    1DPPC   C3B  527  30.363  20.073   4.716 -0.0426  0.1403  0.1361
    1DPPC   C4B  528  30.271  20.194   4.276  0.1316  0.0963 -0.0840
    1DPPC   NC3  529  21.189  17.122   5.922 -0.2438 -0.0124 -0.1401
    1DPPC   PO4  530  20.844  17.294   5.677  0.2097 -0.0350 -0.2022
    1DPPC   GL1  531  20.586  17.337   5.353  0.2797  0.2212 -0.3315
    1DPPC   GL2  532  20.449  17.572   5.457 -0.2706  0.1742  0.1749
    1DPPC   C1A  533  20.444  17.220   4.932 -0.1313 -0.3232  0.0363
    1DPPC   C2A  534  20.322  17.198   4.458  0.1856  0.0149 -0.0083
    1DPPC   C3A  535  20.150  17.130   4.027  0.1546 -0.0469  0.1203
    1DPPC   C4A  536  19.863  16.733   3.945  0.2862 -0.0452 -0.0330
    1DPPC   C1B  537  20.405  17.734   4.991  0.1250 -0.5118 -0.2234
    1DPPC   C2B  538  20.347  18.101   4.786  0.0053 -0.1217 -0.1163
    1DPPC   C3B  539  20.270  18.504   4.706  0.1376 -0.1400  0.2248
    1DPPC   C4B  540  20.248  18.797   4.900  0.1053  0.0531 -0.1081
    1DPPC   NC3  541   7.124  11.012   6.989  0.1100  0.0306 -0.2248
    1DPPC   PO4  542   7.432  10.748   6.882  0.0534 -0.0108 -0.1604
    1DPPC   GL1  543   7.557  10.792   6.484 -0.0401 -0.0874  0.0326
    1DPPC   GL2  544   7.693  10.534   6.218 -0.2660  0.0526 -0.1151
    1DPPC   C1A  545   7.363  10.860   6.008 -0.0820 -0.2750 -0.2055
    1DPPC   C2A  546   7.220  10.976   5.649  0.0520  0.1258  0.0629
    1DPPC   C3A  547   7.049  11.022   5.266  0.1633  0.0645 -0.0715
    1DPPC   C4A  548   6.928  11.178   4.925  0.0964  0.2447  0.1718
    1DPPC   C1B  549   7.856  10.806   5.915 -0.3331 -0.0404  0.1129
    1DPPC   C2B  550   7.774  10.954   5.456  0.0502 -0.0893 -0.3724
    1DPPC   C3B  551   7.545  10.799   5.118  0.0909  0.2533  0.0800
    1DPPC   C4B  552   7.468  10.416   4.995 -0.1459  0.1243  0.0683
    1DPPC   NC3  553   1.228  22.772   7.275 -0.1231 -0.0190  0.0501
    1DPPC   PO4  554   1.166  22.541   6.940 -0.0452 -0.2333 -0.0267
    1DPPC   GL1  555   1.306  22.448   6.566  0.1414 -0.1439 -0.0134
    1DPPC   GL2  556   1.535  22.211   6.575 -0.1787  0.1147 -0.0001
    1DPPC   C1A  557   1.454  22.602   6.131  0.4099  0.1207  0.2214
    1DPPC   C2A  558   1.526  22.684   5.664 -0.0222  0.0956  0.0899
    1DPPC   C3A  559   1.533  22.838   5.293 -0.0917  0.2682  0.1091
    1DPPC   C4A  560   1.233  22.957   4.965 -0.0275  0.0938 -0.1206
    1DPPC   C1B  561   1.527  21.936   6.292  0.1858  0.3101  0.1721
    1DPPC   C2B  562   1.622  22.109   5.844  0.1380 -0.0615 -0.2201
    1DPPC   C3B  563   1.494  22.255   5.417  0.1443 -0.0935 -0.2132
    1DPPC   C4B  564   1.646  22.410   5.053 -0.1089  0.1919 -0.2760
    1DPPC   NC3  565   4.378  15.524   6.790  0.0645 -0.3331  0.0280
    1DPPC   PO4  566   4.833  15.541   6.925  0.1530 -0.1164  0.0079
    1DPPC   GL1  567   4.896  15.311   6.478 -0.1670 -0.0619 -0.3777
    1DPPC   GL2  568   4.898  15.003   6.420  0.1973 -0.0870 -0.0150
    1DPPC   C1A  569   5.015  15.397   6.112  0.2327 -0.2358  0.2969
    1DPPC   C2A  570   5.002  15.279   5.781  0.2046  0.1684 -0.2022
    1DPPC   C3A  571   5.167  15.146   5.382  0.1030 -0.1359 -0.0958
    1DPPC   C4A  572   5.132  15.012   4.959 -0.0843 -0.2897 -0.3253
    1DPPC   C1B  573   5.092  14.863   6.006  0.1220  0.4027 -0.1575
    1DPPC   C2B  574   4.872  14.805   5.615 -0.2232  0.0190  0.4256
    1DPPC   C3B  575   4.837  14.701   5.257 -0.2486  0.1129  0.0177
    1DPPC   C4B  576   4.721  14.609   4.836  0.1938 -0.0041 -0.0846
    1DPPC   NC3  577   9.882  15.695   6.853  0.0957 -0.0730  0.0694
    1DPPC   PO4  578  10.293  15.782   6.896 -0.0793  0.0639  0.3560
    1DPPC   GL1  579  10.141  15.988   6.472 -0.1763  0.1260 -0.0853
    1DPPC   GL2  580  10.106  16.266   6.224 -0.0243  0.3063 -0.2802
    1DPPC   C1A  581  10.031  15.831   6.130 -0.0293  0.4318 -0.1612
    1DPPC   C2A  582   9.829  15.606   5.768  0.1547  0.0814 -0.0666
    1DPPC   C3A  583   9.922  15.491   5.375 -0.0679  0.3749 -0.0543
    1DPPC   C4A  584  10.081  15.650   4.988 -0.1902 -0.2107 -0.0201
    1DPPC   C1B  585   9.906  16.232   5.785 -0.1887 -0.3154 -0.0333
    1DPPC   C2B  586   9.929  16.138   5.268 -0.0579 -0.1587  0.1975
    1DPPC   C3B  587  10.282  16.081   5.067  0.1195  0.0104 -0.0630
    1DPPC   C4B  588  10.601  16.234   4.792 -0.2039 -0.0227 -0.0436
    1DPPC   NC3  589  27.629   2.120   7.550 -0.1851  0.3131  0.2751
    1DPPC   PO4  590  27.704   2.236   7.070  0.2236  0.0493  0.4275
    1DPPC   GL1  591  27.905   2.197   6.663 -0.0925 -0.1499  0.0418
    1DPPC   GL2  592  27.631   2.065   6.391 -0.2223  0.1067 -0.2469
    1DPPC   C1A  593  28.246   2.235   6.390 -0.0351 -0.0012  0.2894
    1DPPC   C2A  594  28.469   2.255   6.154  0.2572 -0.0452  0.1611
    1DPPC   C3A  595  28.396   2.152   5.659  0.0493  0.0164 -0.0741
    1DPPC   C4A  596  28.345   2.255   5.272 -0.1000  0.3292  0.1201
    1DPPC   C1B  597  27.950   2.028   6.056 -0.2408  0.2447  0.0579
    1DPPC   C2B  598  27.903   2.026   5.600 -0.0863 -0.1293 -0.0823
    1DPPC   C3B  599  27.855   2.223   5.214 -0.0039  0.0305  0.2205
    1DPPC   C4B  600  28.081   2.415   4.857  0.1336  0.0021 -0.3015
    1DPPC   NC3  601   7.480  14.709   7.210 -0.0576  0.3263  0.0432
    1DPPC   PO4  602   7.848  14.731   7.314  0.0560 -0.1676  0.0645
    1DPPC   GL1  603   7.834  14.873   6.919 -0.1667  0.0857 -0.2001
    1DPPC   GL2  604   7.596  14.989   6.776 -0.3813  0.0103  0.1078
    1DPPC   C1A  605   8.022  14.702   6.581  0.1889  0.1778 -0.0674
    1DPPC   C2A  606   8.054  14.597   6.118  0.1511  0.0013  0.0483
    1DPPC   C3A  607   8.072  14.547   5.706 -0.3023 -0.1516 -0.0856
    1DPPC   C4A  608   8.100  14.538   5.234 -0.0510 -0.0928 -0.0073
    1DPPC   C1B  609   7.757  15.032   6.372  0.2172 -0.1970  0.2401
    1DPPC   C2B  610   7.754  15.003   5.862 -0.1073  0.2398 -0.1156
    1DPPC   C3B  611   7.748  14.825   5.500 -0.0995 -0.0468  0.0720
    1DPPC   C4B  612   7.596  14.732   4.978  0.0198 -0.1078 -0.0326
    1DPPC   NC3  613   8.848  17.399   7.278  0.0333  0.0408 -0.0143
    1DPPC   PO4  614   9.244  17.269   7.109  0.1064 -0.0661  0.0185
    1DPPC   GL1  615   9.227  17.130   6.652 -0.0495 -0.1792 -0.1952
    1DPPC   GL2  616   8.903  17.160   6.501  0.3228  0.0330  0.0504
    1DPPC   C1A  617   9.382  17.114   6.325 -0.0520 -0.0047 -0.0388
    1DPPC   C2A  618   9.281  17.053   5.971 -0.2971  0.4311 -0.4513
    1DPPC   C3A  619   9.350  17.093   5.549 -0.1404  0.0730  0.0187
    1DPPC   C4A  620   9.545  16.946   5.257  0.0826  0.3139 -0.4648
    1DPPC   C1B  621   8.781  17.096   6.031 -0.1069 -0.0230  0.0496
    1DPPC   C2B  622   8.723  17.175   5.647 -0.1098  0.1803  0.1978
    1DPPC   C3B  623   8.515  17.256   5.220  0.0474  0.1413  0.0614
    1DPPC   C4B  624   8.611  16.997   4.873 -0.2800  0.0649  0.3179
    1DPPC   NC3  625  28.575  25.033   6.280 -0.2677 -0.0058  0.1382
    1DPPC   PO4  626  28.540  24.658   6.246  0.0949  0.0130  0.3950
    1DPPC   GL1  627  28.440  24.491   5.846  0.2149 -0.0774 -0.3086
    1DPPC   GL2  628  28.654  24.426   5.696  0.1247 -0.1338 -0.0236
    1DPPC   C1A  629  28.267  24.595   5.435  0.0992  0.0690  0.2407
    1DPPC   C2A  630  27.995  24.668   5.083 -0.1688 -0.1725 -0.0719
    1DPPC   C3A  631  27.770  24.883   4.912 -0.1764  0.1416  0.3827
    1DPPC   C4A  632  27.487  25.034   4.648 -0.2530 -0.2838 -0.1084
    1DPPC   C1B  633  28.789  24.332   5.292 -0.1391  0.5750 -0.2086
    1DPPC   C2B  634  29.082  24.327   5.071  0.0985  0.0232 -0.1209
    1DPPC   C3B  635  29.003  24.594   4.735  0.2045  0.1245 -0.0262
    1DPPC   C4B  636  28.852  24.995   4.614  0.0908 -0.1025 -0.2116
    1DPPC   NC3  637   3.047  17.100   6.388  0.0497  0.2331 -0.0080
    1DPPC   PO4  638   2.980  16.706   6.539 -0.1592  0.6708  0.1378
    1DPPC   GL1  639   3.236  16.604   6.102  0.3171  0.0300  0.0965
    1DPPC   GL2  640   3.424  16.286   6.065  0.0879  0.0599 -0.1110
    1DPPC   C1A  641   3.378  16.657   5.614 -0.3751  0.0789 -0.1577
    1DPPC   C2A  642   3.446  16.713   5.236  0.0620 -0.0284 -0.0057
    1DPPC   C3A  643   3.568  16.935   4.911  0.1881 -0.0986  0.2103
    1DPPC   C4A  644   3.650  17.123   4.543 -0.1758 -0.0560  0.0966
    1DPPC   C1B  645   3.637  16.217   5.695 -0.1077  0.2257  0.2982
    1DPPC   C2B  646   3.645  16.106   5.249 -0.1775 -0.1105 -0.0138
    1DPPC   C3B  647   3.659  16.035   4.737  0.0740  0.5118 -0.1207
    1DPPC   C4B  648   3.267  16.153   4.476 -0.0797 -0.0459 -0.0364
    1DPPC   NC3  649  27.552  16.789   5.823  0.0822 -0.1987  0.0212
    1DPPC   PO4  650  27.742  17.244   5.817 -0.0914  0.1530 -0.2387
    1DPPC   GL1  651  27.923  16.916   5.539  0.0890 -0.3167 -0.1439
    1DPPC   GL2  652  27.712  16.832   5.338  0.0777  0.1253 -0.3906
    1DPPC   C1A  653  28.201  16.692   5.301 -0.3612  0.0813  0.0285
    1DPPC   C2A  654  28.377  16.696   4.899 -0.1763 -0.3153 -0.0068
    1DPPC   C3A  655  28.476  16.650   4.493  0.1569 -0.1194  0.0637
    1DPPC   C4A  656  28.621  16.863   4.152  0.2896 -0.2547  0.0445
    1DPPC   C1B  657  27.908  16.883   4.989 -0.0917  0.0573 -0.1375
    1DPPC   C2B  658  27.891  16.830   4.556  0.1579 -0.0276 -0.0358
    1DPPC   C3B  659  28.006  16.825   4.167 -0.1628 -0.0976 -0.2362
    1DPPC   C4B  660  28.245  16.497   3.997 -0.0230 -0.2430 -0.1007
    1DPPC   NC3  661  16.437  25.459   6.996 -0.1622  0.2013 -0.0493
    1DPPC   PO4  662  16.462  25.058   6.770 -0.0873 -0.0850  0.2175
    1DPPC   GL1  663  16.560  24.979   6.228 -0.1537  0.2316 -0.0008
    1DPPC   GL2  664  16.629  24.704   5.989 -0.1181 -0.0142  0.2474
    1DPPC   C1A  665  16.810  25.256   5.891  0.1489 -0.4350 -0.1723
    1DPPC   C2A  666  16.860  25.406   5.514 -0.0961  0.1263  0.0920
    1DPPC   C3A  667  16.817  25.593   5.106  0.0844  0.1519 -0.1977
    1DPPC   C4A  668  16.653  25.556   4.740  0.0210  0.2525  0.1101
    1DPPC   C1B  669  16.963  24.772   5.732  0.0337  0.2768  0.1399
    1DPPC   C2B  670  17.409  24.855   5.675  0.3001  0.1267  0.0274
    1DPPC   C3B  671  17.752  25.158   5.819 -0.0564 -0.0183 -0.3431
    1DPPC   C4B  672  18.097  25.218   5.742  0.0160 -0.3163 -0.0663
    1DPPC   NC3  673  26.300  18.956   6.187 -0.2232  0.0286  0.0614
    1DPPC   PO4  674  26.253  18.600   5.824 -0.0687  0.0399  0.1406
    1DPPC   GL1  675  26.318  18.547   5.391 -0.2366  0.3919  0.2940
    1DPPC   GL2  676  26.504  18.720   5.326  0.1694 -0.0289  0.0536
    1DPPC   C1A  677  26.091  18.548   4.967 -0.1645 -0.0440 -0.0040
    1DPPC   C2A  678  25.941  18.405   4.595  0.0700 -0.0897 -0.1163
    1DPPC   C3A  679  25.932  18.611   4.340 -0.0242  0.0722 -0.0330
    1DPPC   C4A  680  26.177  18.844   4.415 -0.0555  0.0665 -0.0461
    1DPPC   C1B  681  26.416  18.891   4.954  0.1382  0.2259 -0.1940
    1DPPC   C2B  682  26.643  19.028   4.632 -0.1392  0.0263  0.0139
    1DPPC   C3B  683  26.623  18.957   4.122 -0.2135 -0.0237 -0.1492
    1DPPC   C4B  684  26.287  18.887   3.901  0.0741 -0.2511 -0.0223
    1DPPC   NC3  685   3.655  20.967   7.232  0.1110  0.2053  0.1397
    1DPPC   PO4  686   3.284  20.980   7.116  0.2369  0.1116  0.0892
    1DPPC   GL1  687   3.347  20.913   6.730  0.0009  0.1341  0.1500
    1DPPC   GL2  688   3.595  20.722   6.731 -0.2309 -0.1955 -0.0303
    1DPPC   C1A  689   3.325  21.024   6.262 -0.1798 -0.3693  0.3835
    1DPPC   C2A  690   3.352  21.002   5.896 -0.1476  0.0274  0.3049
    1DPPC   C3A  691   3.517  21.308   5.659 -0.1052 -0.0868  0.3051
    1DPPC   C4A  692   3.346  21.434   5.255  0.0077  0.0544 -0.1673
    1DPPC   C1B  693   3.841  20.901   6.456  0.0327 -0.2312  0.1729
    1DPPC   C2B  694   3.954  20.877   6.010  0.1862  0.1014 -0.2256
    1DPPC   C3B  695   3.766  20.895   5.622 -0.1633  0.3367 -0.0678
    1DPPC   C4B  696   3.455  20.884   5.405 -0.0574 -0.2517  0.1645
    1DPPC   NC3  697   2.393   9.387   6.582 -0.3110 -0.0962  0.0389
    1DPPC   PO4  698   2.892   9.476   6.499 -0.0136 -0.1527 -0.0340
    1DPPC   GL1  699   3.124   9.667   6.085 -0.0923 -0.1822 -0.2008
    1DPPC   GL2  700   3.398   9.493   6.120 -0.1160  0.0916 -0.1628
    1DPPC   C1A  701   3.076   9.770   5.640  0.3283 -0.1522 -0.2478
    1DPPC   C2A  702   3.208   9.860   5.185 -0.2593 -0.0680  0.0046
    1DPPC   C3A  703   2.934   9.831   4.770  0.2505 -0.0038 -0.0135
    1DPPC   C4A  704   2.637   9.826   4.435  0.1063  0.0619  0.0609
    1DPPC   C1B  705   3.523   9.582   5.610  0.0060  0.3270 -0.0783
    1DPPC   C2B  706   3.693   9.657   5.162 -0.0206  0.0374 -0.1469
    1DPPC   C3B  707   3.986   9.628   4.853 -0.0613  0.1585 -0.0327
    1DPPC   C4B  708   4.096   9.519   4.476 -0.0177 -0.0527 -0.1497
    1DPPC   NC3  709   6.301  11.907   7.305  0.2600 -0.1035  0.2625
    1DPPC   PO4  710   6.399  12.277   7.227 -0.2287  0.0586  0.0716
    1DPPC   GL1  711   6.453  12.361   6.759 -0.2525 -0.1300 -0.1003
    1DPPC   GL2  712   6.181  12.491   6.634 -0.0319  0.1859 -0.2269
    1DPPC   C1A  713   6.500  12.083   6.357 -0.2374 -0.0854 -0.0564
    1DPPC   C2A  714   6.575  12.110   5.928 -0.2745 -0.1655 -0.1215
    1DPPC   C3A  715   6.657  12.212   5.540  0.3947 -0.0109 -0.0061
    1DPPC   C4A  716   6.850  12.045   5.193 -0.0017 -0.0985  0.0922
    1DPPC   C1B  717   6.073  12.417   6.279 -0.0281 -0.0024 -0.0539
    1DPPC   C2B  718   6.208  12.429   5.986  0.0854  0.1113 -0.5697
    1DPPC   C3B  719   6.195  12.491   5.560  0.4210  0.2279  0.4754
    1DPPC   C4B  720   6.178  12.218   5.159  0.1287  0.1738 -0.1314
    1DPPC   NC3  721  24.896  14.898   6.060 -0.1034 -0.1245 -0.0400
    1DPPC   PO4  722  24.793  14.674   5.598  0.0225  0.1100 -0.1764
    1DPPC   GL1  723  24.914  14.651   5.246 -0.1439 -0.3907  0.0292
    1DPPC   GL2  724  24.600  14.456   5.136 -0.1155 -0.1449  0.0243
    1DPPC   C1A  725  25.073  14.412   4.974 -0.2686  0.0102 -0.1267
    1DPPC   C2A  726  25.129  14.376   4.670 -0.3387 -0.0607  0.2162
    1DPPC   C3A  727  25.264  14.370   4.316 -0.0470 -0.1252  0.1041
    1DPPC   C4A  728  25.395  14.379   3.871 -0.2592  0.1730  0.0616
    1DPPC   C1B  729  24.517  14.519   4.659 -0.0241 -0.2027 -0.0856
    1DPPC   C2B  730  24.452  14.483   4.246 -0.2884  0.0432 -0.3655
    1DPPC   C3B  731  24.497  14.399   3.845 -0.4028 -0.4305  0.0311
    1DPPC   C4B  732  24.618  13.964   3.668 -0.3227 -0.2210 -0.1909
    1DPPC   NC3  733   0.832  11.451   6.818 -0.0080 -0.1698 -0.0913
    1DPPC   PO4  734   1.023  11.116   6.750  0.0497 -0.2883  0.2248
    1DPPC   GL1  735   1.109  11.259   6.356 -0.1827 -0.0086 -0.0945
    1DPPC   GL2  736   1.473  11.306   6.265 -0.2568  0.0760 -0.1902
    1DPPC   C1A  737   0.961  11.441   5.939 -0.0843 -0.3830 -0.1388
    1DPPC   C2A  738   0.930  11.387   5.577 -0.0257 -0.2119  0.0777
    1DPPC   C3A  739   0.984  11.108   5.220 -0.1168  0.1374  0.0095
    1DPPC   C4A  740   0.863  11.402   4.957  0.0238 -0.0936 -0.0804
    1DPPC   C1B  741   1.432  11.320   5.878 -0.0590  0.0443 -0.1937
    1DPPC   C2B  742   1.389  11.299   5.446 -0.1861 -0.1436 -0.0050
    1DPPC   C3B  743   1.364  11.384   5.023 -0.1743  0.1853 -0.3046
    1DPPC   C4B  744   1.234  11.097   4.707  0.0084  0.1625 -0.3185
    1DPPC   NC3  745   3.055  18.566   7.233 -0.0351 -0.1460  0.0090
    1DPPC   PO4  746   3.393  18.692   6.840  0.1677 -0.2517  0.0372
    1DPPC   GL1  747   3.497  18.604   6.422 -0.0439  0.1709 -0.0944
    1DPPC   GL2  748   3.885  18.708   6.350 -0.0827  0.2288  0.2286
    1DPPC   C1A  749   3.441  18.428   6.015 -0.0327 -0.2674  0.0463
    1DPPC   C2A  750   3.566  18.455   5.594  0.3694 -0.2086  0.2652
    1DPPC   C3A  751   3.591  18.412   5.205  0.0093 -0.2096  0.0419
    1DPPC   C4A  752   3.662  18.590   4.774 -0.1267 -0.0572  0.0513
    1DPPC   C1B  753   3.769  18.798   5.974  0.4843  0.3646  0.2859
    1DPPC   C2B  754   3.835  18.950   5.535 -0.0355 -0.1455 -0.2146
    1DPPC   C3B  755   3.871  19.050   5.053  0.2023 -0.4889  0.0618
    1DPPC   C4B  756   3.737  19.090   4.620  0.0865 -0.0061 -0.1620
    1DPPC   NC3  757   6.208  15.607   7.207  0.1626 -0.0749 -0.1200
    1DPPC   PO4  758   6.313  16.053   7.186 -0.1408 -0.2598  0.2273
    1DPPC   GL1  759   6.486  16.074   6.762  0.1033  0.0869 -0.1468
    1DPPC   GL2  760   6.588  15.883   6.561  0.2723  0.1699 -0.0556
    1DPPC   C1A  761   6.458  16.350   6.441 -0.0545  0.1443  0.1122
    1DPPC   C2A  762   6.485  16.358   6.042 -0.2836  0.0694  0.1372
    1DPPC   C3A  763   6.538  16.336   5.663 -0.0725  0.0688 -0.0456
    1DPPC   C4A  764   6.497  16.310   5.190  0.1885 -0.1662  0.0968
    1DPPC   C1B  765   6.692  15.857   6.154 -0.1057 -0.0262 -0.0775
    1DPPC   C2B  766   6.715  15.869   5.705  0.3264 -0.3750  0.0604
    1DPPC   C3B  767   6.775  15.783   5.199  0.0346 -0.1606 -0.1102
    1DPPC   C4B  768   6.755  15.826   4.767 -0.1065  0.0832  0.1382
    1DPPC   NC3  769   5.221  16.686   6.963 -0.0616 -0.2387  0.1239
    1DPPC   PO4  770   5.665  16.839   6.914 -0.0394 -0.0252  0.0304
    1DPPC   GL1  771   5.845  16.647   6.614  0.0048 -0.0427  0.1877
    1DPPC   GL2  772   6.154  16.660   6.696  0.0929  0.2810  0.0580
    1DPPC   C1A  773   6.009  16.453   6.176 -0.2257  0.2044  0.0777
    1DPPC   C2A  774   6.069  16.349   5.671  0.2497 -0.0411  0.0015
    1DPPC   C3A  775   6.000  16.365   5.320 -0.0230  0.3520 -0.1317
    1DPPC   C4A  776   6.061  16.349   4.986 -0.0120  0.0720 -0.2539
    1DPPC   C1B  777   6.381  16.821   6.274  0.0418 -0.0809 -0.1704
    1DPPC   C2B  778   6.233  16.812   5.860 -0.0115  0.2408  0.0278
    1DPPC   C3B  779   6.327  16.846   5.498 -0.3459 -0.0734 -0.3594
    1DPPC   C4B  780   6.374  16.801   5.009 -0.0611 -0.0795 -0.0604
    1DPPC   NC3  781   8.620  10.938   6.949 -0.0271 -0.0505  0.1637
    1DPPC   PO4  782   8.620  11.295   7.195  0.0105  0.0190  0.1092
    1DPPC   GL1  783   8.469  11.534   6.919  0.0743 -0.0410  0.0993
    1DPPC   GL2  784   8.302  11.387   6.762  0.0697  0.0182  0.0365
    1DPPC   C1A  785   8.560  11.768   6.471 -0.2367 -0.1743 -0.0996
    1DPPC   C2A  786   8.697  11.786   6.092  0.2704  0.1955 -0.2352
    1DPPC   C3A  787   8.924  11.915   5.660 -0.0851  0.1885 -0.0886
    1DPPC   C4A  788   8.925  12.250   5.358 -0.1245  0.0036 -0.2902
    1DPPC   C1B  789   8.528  11.348   6.337 -0.1488 -0.1711  0.0701
    1DPPC   C2B  790   8.619  11.281   5.937 -0.1381  0.2587  0.0102
    1DPPC   C3B  791   8.768  11.407   5.596 -0.3533 -0.1286  0.2506
    1DPPC   C4B  792   9.012  11.273   5.233  0.0689 -0.3533 -0.0943
    1DPPC   NC3  793   5.455  19.810   7.107  0.0400  0.0368 -0.4334
    1DPPC   PO4  794   5.589  19.937   6.697 -0.2680  0.1382 -0.3823
    1DPPC   GL1  795   5.278  19.854   6.414 -0.0799 -0.0757 -0.1243
    1DPPC   GL2  796   4.939  20.138   6.410 -0.2560  0.3704  0.0136
    1DPPC   C1A  797   5.034  19.804   6.010 -0.2682  0.1892  0.2201
    1DPPC   C2A  798   5.067  19.888   5.578 -0.0584  0.2348  0.2072
    1DPPC   C3A  799   5.041  20.160   5.266  0.1326 -0.0846  0.1999
    1DPPC   C4A  800   4.922  20.258   4.818 -0.0681 -0.1836  0.2187
    1DPPC   C1B  801   5.117  20.313   6.001  0.1044 -0.0044 -0.1872
    1DPPC   C2B  802   5.547  20.438   5.802  0.0262  0.0374  0.0182
    1DPPC   C3B  803   5.614  20.438   5.361  0.0115 -0.2107 -0.1755
    1DPPC   C4B  804   5.746  20.717   4.984  0.7570  0.0683  0.2173
    1DPPC   NC3  805   2.140  19.648   7.156  0.0748  0.0224 -0.2353
    1DPPC   PO4  806   2.301  19.393   6.782  0.1799 -0.0897 -0.0774
    1DPPC   GL1  807   2.137  19.640   6.343  0.0946  0.2353 -0.1964
    1DPPC   GL2  808   1.969  19.885   6.331  0.0336 -0.3496  0.0006
    1DPPC   C1A  809   2.333  19.896   5.971  0.2211 -0.1223  0.1507
    1DPPC   C2A  810   2.295  20.076   5.609  0.1590  0.0220  0.0897
    1DPPC   C3A  811   2.334  20.004   5.231  0.0556 -0.1158 -0.1613
    1DPPC   C4A  812   2.163  19.937   4.808 -0.3418  0.3030  0.3269
    1DPPC   C1B  813   1.856  20.182   6.023 -0.2428  0.1903  0.0792
    1DPPC   C2B  814   1.744  20.355   5.671  0.2176  0.1836  0.0401
    1DPPC   C3B  815   1.822  20.435   5.317  0.2109  0.1675 -0.1872
    1DPPC   C4B  816   2.085  20.451   4.993 -0.0546 -0.3049 -0.3483
    1DPPC   NC3  817   1.707  17.171   6.303  0.1785  0.1705 -0.0356
    1DPPC   PO4  818   2.176  17.124   6.468  0.0194 -0.0591 -0.1906
    1DPPC   GL1  819   2.156  17.214   6.005 -0.1424 -0.0853  0.0392
    1DPPC   GL2  820   1.967  17.469   5.971 -0.0185 -0.0881  0.1013
    1DPPC   C1A  821   2.528  17.180   5.733  0.0417 -0.2729  0.2063
    1DPPC   C2A  822   2.625  17.121   5.385 -0.2101 -0.0367 -0.0267
    1DPPC   C3A  823   2.696  17.147   5.003  0.1802  0.0683 -0.2099
    1DPPC   C4A  824   2.591  16.944   4.626 -0.0178 -0.0572  0.3834
    1DPPC   C1B  825   1.755  17.528   5.554 -0.1205 -0.2982 -0.2556
    1DPPC   C2B  826   1.768  17.550   5.185 -0.2401  0.1227 -0.0385
    1DPPC   C3B  827   1.841  17.565   4.851  0.2557 -0.4314  0.0291
    1DPPC   C4B  828   1.960  17.594   4.426  0.1965  0.2937 -0.0913
    1DPPC   NC3  829  29.702  21.029   6.692  0.1003 -0.1720 -0.2281
    1DPPC   PO4  830  29.797  21.435   6.702  0.0023  0.1183 -0.1449
    1DPPC   GL1  831  29.779  21.395   6.278  0.0097 -0.0721  0.0289
    1DPPC   GL2  832  29.791  21.136   6.212 -0.5862  0.2628  0.0056
    1DPPC   C1A  833  29.938  21.604   5.892 -0.0213  0.0046 -0.2328
    1DPPC   C2A  834  30.039  21.660   5.491 -0.0741  0.0742  0.0291
    1DPPC   C3A  835  30.363  21.861   5.165  0.1165 -0.1445 -0.2230
    1DPPC   C4A  836  30.286  22.133   4.755 -0.0134 -0.0239 -0.1878
    1DPPC   C1B  837  29.953  21.118   5.815 -0.0539  0.3363  0.0378
    1DPPC   C2B  838  30.110  21.062   5.431  0.1541  0.2670  0.1962
    1DPPC   C3B  839  30.226  21.200   5.065 -0.4350 -0.0651  0.0056
    1DPPC   C4B  840  30.262  21.511   4.682  0.0934 -0.1274  0.1812
    1DPPC   NC3  841   1.528  11.050   6.648 -0.5116 -0.0119 -0.0975
    1DPPC   PO4  842   1.611  10.559   6.544  0.1994  0.2178 -0.4115
    1DPPC   GL1  843   1.485  10.342   6.211 -0.2689 -0.0958  0.2752
    1DPPC   GL2  844   1.756  10.326   6.071 -0.0776 -0.1965  0.0741
    1DPPC   C1A  845   1.127  10.482   5.929  0.1397 -0.0994 -0.2418
    1DPPC   C2A  846   1.132  10.404   5.579  0.1802 -0.0773  0.0997
    1DPPC   C3A  847   1.334  10.344   5.140 -0.1998  0.2011  0.2719
    1DPPC   C4A  848   1.330  10.120   4.783  0.0213 -0.4269  0.0435
    1DPPC   C1B  849   1.605  10.306   5.662  0.3447 -0.2521 -0.0080
    1DPPC   C2B  850   1.797  10.221   5.317  0.1085 -0.1855  0.2339
    1DPPC   C3B  851   1.719   9.914   5.010  0.0232 -0.0009  0.2097
    1DPPC   C4B  852   1.874   9.516   4.689  0.2980  0.1329  0.0766
    1DPPC   NC3  853   0.908  16.790   6.570  0.0993 -0.1159  0.2224
    1DPPC   PO4  854   0.742  16.408   6.683 -0.0790  0.0298 -0.0566
    1DPPC   GL1  855   0.814  16.527   6.168  0.1034  0.3030 -0.0200
    1DPPC   GL2  856   0.764  16.771   6.083  0.3489 -0.1466 -0.1391
    1DPPC   C1A  857   1.018  16.373   5.867  0.0326 -0.0130 -0.0073
    1DPPC   C2A  858   0.930  16.527   5.361 -0.5233 -0.0342 -0.1828
    1DPPC   C3A  859   0.996  16.479   4.923 -0.0010  0.0798  0.0227
    1DPPC   C4A  860   1.024  16.266   4.543 -0.0296 -0.0503 -0.1140
    1DPPC   C1B  861   0.831  17.070   5.741 -0.0847  0.2492 -0.2384
    1DPPC   C2B  862   0.854  17.032   5.357  0.0782 -0.1330 -0.0894
    1DPPC   C3B  863   0.853  17.062   4.939  0.0525  0.0276 -0.3172
    1DPPC   C4B  864   0.948  17.119   4.560 -0.0033 -0.2669 -0.1358
    1DPPC   NC3  865  26.830  17.488   5.936 -0.4262 -0.0094  0.1100
    1DPPC   PO4  866  27.232  17.240   5.848 -0.0340 -0.2316  0.1711
    1DPPC   GL1  867  27.018  17.346   5.522 -0.0070 -0.1310 -0.1731
    1DPPC   GL2  868  26.997  17.613   5.455  0.0783  0.1114 -0.0571
    1DPPC   C1A  869  26.831  17.112   5.214 -0.1914  0.0640 -0.1381
    1DPPC   C2A  870  26.883  17.159   4.776  0.3578  0.2721 -0.1336
    1DPPC   C3A  871  26.914  17.121   4.389  0.1950  0.0576 -0.0804
    1DPPC   C4A  872  26.988  17.176   3.999 -0.0727 -0.1619 -0.0633
    1DPPC   C1B  873  27.133  17.656   5.087  0.0370  0.2181 -0.1489
    1DPPC   C2B  874  27.271  17.546   4.765  0.3359  0.1308 -0.3689
    1DPPC   C3B  875  27.344  17.371   4.359 -0.2077  0.1605 -0.3641
    1DPPC   C4B  876  27.442  17.403   3.938 -0.0491  0.0320 -0.1344
    1DPPC   NC3  877   5.815  16.024   7.268 -0.2286  0.1728 -0.0664
    1DPPC   PO4  878   5.777  15.674   6.969 -0.3493  0.1902 -0.1428
    1DPPC   GL1  879   6.083  15.711   6.684 -0.3693  0.2613 -0.0833
    1DPPC   GL2  880   6.391  15.446   6.647  0.0170 -0.0654  0.1845
    1DPPC   C1A  881   6.099  15.964   6.336 -0.0159 -0.1133  0.2531
    1DPPC   C2A  882   6.253  15.903   5.936 -0.0359  0.0119 -0.0462
    1DPPC   C3A  883   6.294  15.944   5.475 -0.0404 -0.1932  0.2529
    1DPPC   C4A  884   6.306  15.796   5.031 -0.1452 -0.1275 -0.1507
    1DPPC   C1B  885   6.400  15.412   6.162  0.1588  0.2167 -0.0230
    1DPPC   C2B  886   6.379  15.435   5.726  0.0005  0.0021  0.0949
    1DPPC   C3B  887   6.455  15.379   5.355  0.1386 -0.2357 -0.0243
    1DPPC   C4B  888   6.550  15.354   4.876 -0.1018  0.2213  0.3480
    1DPPC   NC3  889  29.213  16.771   6.647 -0.0307 -0.1275 -0.1040
    1DPPC   PO4  890  29.251  16.652   6.293 -0.1262  0.0963 -0.1242
    1DPPC   GL1  891  29.388  16.779   5.915  0.0376  0.2947 -0.1908
    1DPPC   GL2  892  29.720  16.669   5.853  0.3413 -0.1085  0.3013
    1DPPC   C1A  893  29.214  16.808   5.542 -0.0774  0.0503 -0.1774
    1DPPC   C2A  894  29.265  16.706   5.140  0.0579  0.0065  0.1152
    1DPPC   C3A  895  29.367  16.623   4.768  0.0473 -0.4499 -0.0444
    1DPPC   C4A  896  29.509  16.344   4.450 -0.2759 -0.0522 -0.0483
    1DPPC   C1B  897  29.719  16.724   5.442 -0.1240 -0.0946  0.2151
    1DPPC   C2B  898  29.801  16.686   5.014 -0.0885  0.2727  0.1067
    1DPPC   C3B  899  29.973  16.479   4.705 -0.0260  0.1772 -0.2630
    1DPPC   C4B  900  30.053  16.474   4.289 -0.1011 -0.1169 -0.0941
    1DPPC   NC3  901   8.818  28.636   7.276 -0.1156 -0.0696  0.0905
    1DPPC   PO4  902   9.190  28.666   7.282  0.1932  0.0333  0.3209
    1DPPC   GL1  903   9.111  28.686   6.840 -0.0395 -0.0862 -0.0692
    1DPPC   GL2  904   9.294  28.454   6.645  0.1133 -0.2493 -0.0637
    1DPPC   C1A  905   8.884  28.825   6.454  0.0668  0.1832 -0.1605
    1DPPC   C2A  906   8.822  28.813   5.922 -0.0923  0.0215 -0.2154
    1DPPC   C3A  907   8.659  28.527   5.682  0.0451  0.1699 -0.1911
    1DPPC   C4A  908   8.827  28.290   5.285 -0.1154  0.0655  0.0381
    1DPPC   C1B  909   9.719  28.574   6.386  0.0545 -0.0393  0.0289
    1DPPC   C2B  910   9.965  28.535   6.067  0.5584  0.1732  0.0213
    1DPPC   C3B  911  10.300  28.463   5.987 -0.2517 -0.2732  0.0062
    1DPPC   C4B  912  10.588  28.633   6.066  0.0231 -0.0013  0.0520
    1DPPC   NC3  913  26.915  15.309   5.699 -0.0598 -0.1877  0.0624
    1DPPC   PO4  914  26.608  14.903   5.711  0.1158  0.1087  0.0184
    1DPPC   GL1  915  26.580  14.640   5.429  0.0656 -0.2270  0.1401
    1DPPC   GL2  916  26.388  14.884   5.269 -0.0520 -0.0996 -0.1440
    1DPPC   C1A  917  26.631  14.296   5.129  0.1692  0.0264  0.2442
    1DPPC   C2A  918  26.645  14.362   4.674 -0.2207 -0.0890  0.1897
    1DPPC   C3A  919  26.729  14.279   4.303  0.1738 -0.1140 -0.1617
    1DPPC   C4A  920  26.902  14.193   3.876  0.1217 -0.0318  0.4056
    1DPPC   C1B  921  26.386  14.812   4.795  0.1355 -0.1169  0.1018
    1DPPC   C2B  922  26.551  14.798   4.389 -0.1804  0.1308 -0.0204
    1DPPC   C3B  923  26.912  14.665   3.998 -0.1407  0.1849  0.1938
    1DPPC   C4B  924  26.973  14.678   3.568  0.3222  0.0912 -0.0575
    1DPPC   NC3  925  24.870   1.300   7.040  0.3507 -0.2042 -0.1646
    1DPPC   PO4  926  24.899   0.839   6.872 -0.2912  0.1103  0.0117
    1DPPC   GL1  927  25.094   0.825   6.475 -0.1548  0.0153  0.0136
    1DPPC   GL2  928  24.778   0.971   6.336 -0.0244 -0.5010  0.0053
    1DPPC   C1A  929  25.418   1.087   6.364 -0.0669 -0.1665  0.1027
    1DPPC   C2A  930  25.835   1.143   6.311 -0.3854  0.0060 -0.0437
    1DPPC   C3A  931  26.148   1.272   6.051 -0.2229 -0.3084 -0.0736
    1DPPC   C4A  932  26.483   1.413   5.863 -0.1671  0.0856 -0.0521
    1DPPC   C1B  933  24.667   1.295   5.991  0.2672 -0.3316 -0.2514
    1DPPC   C2B  934  24.715   1.409   5.556 -0.0416 -0.0765 -0.2526
    1DPPC   C3B  935  24.918   1.763   5.342  0.0606  0.0465  0.1515
    1DPPC   C4B  936  24.840   2.014   5.017 -0.1414 -0.1667  0.2314
    1DPPC   NC3  937   8.692  18.603   7.000  0.1283  0.3004 -0.2840
    1DPPC   PO4  938   8.551  18.265   6.696 -0.2149 -0.0178  0.0005
    1DPPC   GL1  939   8.546  18.165   6.333  0.2444 -0.0404  0.1379
    1DPPC   GL2  940   8.260  18.346   6.221 -0.0256  0.0651 -0.2882
    1DPPC   C1A  941   8.408  18.076   5.871  0.1571 -0.0449 -0.2785
    1DPPC   C2A  942   8.491  18.091   5.431  0.2241 -0.1987  0.0026
    1DPPC   C3A  943   8.422  18.504   5.087  0.0382  0.0600 -0.2414
    1DPPC   C4A  944   8.479  18.862   4.787  0.0613  0.0272  0.1622
    1DPPC   C1B  945   7.863  18.428   5.984 -0.1033  0.0518 -0.2148
    1DPPC   C2B  946   7.597  18.376   5.681  0.1171 -0.0804  0.1349
    1DPPC   C3B  947   7.541  18.198   5.286 -0.0290  0.2529 -0.0365
    1DPPC   C4B  948   7.575  18.025   4.824  0.0790 -0.1155 -0.0391
    1DPPC   NC3  949   6.886  17.174   6.926 -0.3959 -0.0446  0.2328
    1DPPC   PO4  950   6.515  17.371   7.073 -0.0561 -0.0510  0.1203
    1DPPC   GL1  951   6.817  17.637   6.760 -0.0551 -0.0183  0.0798
    1DPPC   GL2  952   6.812  17.929   6.782 -0.3587 -0.1744  0.1114
    1DPPC   C1A  953   7.025  17.660   6.325 -0.2001 -0.0216  0.2177
    1DPPC   C2A  954   7.176  17.657   5.900 -0.1294 -0.0964  0.1258
    1DPPC   C3A  955   7.487  17.783   5.613  0.0761 -0.1854 -0.0068
    1DPPC   C4A  956   7.670  17.748   5.267  0.0311  0.3769 -0.0915
    1DPPC   C1B  957   6.592  17.959   6.381  0.0139  0.0865  0.0781
    1DPPC   C2B  958   6.662  17.857   5.974  0.1000  0.3409 -0.2199
    1DPPC   C3B  959   6.753  17.928   5.569 -0.0975  0.0966  0.0741
    1DPPC   C4B  960   7.124  17.991   5.160 -0.0605  0.0656 -0.2324
    1DPPC   NC3  961   2.036  12.430   7.025  0.2045 -0.1224 -0.1800
    1DPPC   PO4  962   1.748  12.451   6.636  0.0609 -0.0218  0.1883
    1DPPC   GL1  963   1.462  12.436   6.318  0.2455  0.1795  0.1353
    1DPPC   GL2  964   1.192  12.675   6.222 -0.0526 -0.0352  0.1701
    1DPPC   C1A  965   1.517  12.141   5.937  0.0355  0.2443  0.1217
    1DPPC   C2A  966   1.506  12.178   5.424  0.1761  0.2838  0.1725
    1DPPC   C3A  967   1.399  12.287   5.113  0.0602  0.0506  0.0898
    1DPPC   C4A  968   1.389  12.342   4.646 -0.3397 -0.1614 -0.0461
    1DPPC   C1B  969   1.492  12.682   5.826 -0.1090  0.2566 -0.2099
    1DPPC   C2B  970   1.644  12.709   5.451  0.0191 -0.1875 -0.0980
    1DPPC   C3B  971   1.681  12.712   4.950 -0.0069  0.2716  0.0484
    1DPPC   C4B  972   1.892  12.711   4.608  0.0551 -0.3753  0.1732
    1DPPC   NC3  973   4.220  10.787   7.027  0.2408  0.0517  0.0241
    1DPPC   PO4  974   3.843  10.974   6.963  0.0036 -0.2684  0.2363
    1DPPC   GL1  975   3.828  10.994   6.528  0.0924 -0.0330  0.0273
    1DPPC   GL2  976   3.725  10.651   6.276 -0.0372  0.0890  0.0949
    1DPPC   C1A  977   4.029  11.176   6.086  0.2132  0.0714 -0.0761
    1DPPC   C2A  978   4.120  11.189   5.679  0.1913 -0.3916  0.2762
    1DPPC   C3A  979   4.203  11.477   5.315  0.2626 -0.0784 -0.1296
    1DPPC   C4A  980   4.431  11.569   4.993  0.1820  0.0220  0.1470
    1DPPC   C1B  981   3.825  10.644   5.879 -0.3881  0.0378  0.2041
    1DPPC   C2B  982   3.940  10.771   5.477  0.0474  0.2944 -0.2414
    1DPPC   C3B  983   4.235  10.982   5.211  0.1539  0.2108  0.0807
    1DPPC   C4B  984   4.158  11.176   4.887  0.1809  0.0656  0.2615
    1DPPC   NC3  985  25.515  16.828   5.765 -0.1196  0.1999  0.0098
    1DPPC   PO4  986  25.812  16.607   5.698 -0.3421 -0.1623 -0.1288
    1DPPC   GL1  987  25.812  16.839   5.312 -0.1950  0.0527 -0.0791
    1DPPC   GL2  988  26.028  16.691   5.160 -0.3439 -0.1706  0.0431
    1DPPC   C1A  989  25.651  16.944   4.963  0.1460 -0.0413 -0.0223
    1DPPC   C2A  990  25.748  17.112   4.521 -0.0459 -0.1468  0.0733
    1DPPC   C3A  991  25.729  17.108   4.089 -0.0530 -0.0288  0.0643
    1DPPC   C4A  992  25.703  16.829   3.770  0.2314 -0.2654 -0.0330
    1DPPC   C1B  993  26.002  16.718   4.696  0.1646  0.0229 -0.1347
    1DPPC   C2B  994  26.047  16.763   4.283  0.0416 -0.0842  0.3155
    1DPPC   C3B  995  26.160  17.162   3.920 -0.1385 -0.3180 -0.2609
    1DPPC   C4B  996  26.422  17.268   3.592 -0.0762 -0.0514  0.2732
    1DPPC   NC3  997   4.483  14.768   7.318 -0.1962 -0.3296  0.0631
    1DPPC   PO4  998   4.609  15.021   6.910 -0.0132  0.2347 -0.0249
    1DPPC   GL1  999   4.411  15.086   6.596  0.4270 -0.2843 -0.0301
    1DPPC   GL2 1000   4.379  14.811   6.490  0.1911  0.0513 -0.1642
    1DPPC   C1A 1001   4.555  15.235   6.144 -0.0386 -0.1657 -0.0494
    1DPPC   C2A 1002   4.536  15.156   5.729  0.2593  0.1926 -0.1873
    1DPPC   C3A 1003   4.614  15.178   5.255  0.0527  0.1887 -0.1109
    1DPPC   C4A 1004   4.675  15.161   4.803 -0.0706  0.1993 -0.0553
    1DPPC   C1B 1005   4.541  14.688   6.105 -0.0433  0.0365  0.0903
    1DPPC   C2B 1006   4.435  14.540   5.626  0.0430  0.0944 -0.0556
    1DPPC   C3B 1007   4.339  14.514   5.191 -0.0624  0.1998  0.3613
    1DPPC   C4B 1008   4.328  14.280   4.819  0.1837  0.1483  0.0592
    1DPPC   NC3 1009   1.906  13.181   6.756 -0.3305  0.0545  0.3201
    1DPPC   PO4 1010   2.122  12.821   6.712  0.0520  0.6148  0.0162
    1DPPC   GL1 1011   2.159  12.749   6.332  0.0314 -0.3170 -0.0321
    1DPPC   GL2 1012   1.885  12.593   6.129  0.1420  0.1811  0.3328
    1DPPC   C1A 1013   2.389  12.532   6.048 -0.1761  0.0064 -0.1059
    1DPPC   C2A 1014   2.532  12.509   5.700 -0.1704 -0.0846 -0.0296
    1DPPC   C3A 1015   2.554  12.476   5.291 -0.1371  0.0514  0.0797
    1DPPC   C4A 1016   2.701  12.385   4.883 -0.3301 -0.0827 -0.1194
    1DPPC   C1B 1017   2.019  12.757   5.784  0.1616 -0.2299 -0.3582
    1DPPC   C2B 1018   2.158  12.737   5.407 -0.0430 -0.0234  0.2305
    1DPPC   C3B 1019   2.364  12.828   4.976  0.1103  0.1405  0.2842
    1DPPC   C4B 1020   2.293  13.099   4.627 -0.3421  0.2612 -0.0383
    1DPPC   NC3 1021  10.749  10.929   7.204 -0.1060  0.2273  0.0574
    1DPPC   PO4 1022  11.035  11.168   7.113 -0.1538  0.0309 -0.0600
    1DPPC   GL1 1023  10.963  11.363   6.639 -0.3776 -0.1906 -0.0580
    1DPPC   GL2 1024  10.795  11.172   6.456  0.2389  0.1443  0.0402
    1DPPC   C1A 1025  11.111  11.561   6.287 -0.2546  0.1650  0.0412
    1DPPC   C2A 1026  11.278  11.812   5.912 -0.1701 -0.1389  0.0965
    1DPPC   C3A 1027  11.334  12.089   5.535  0.1967 -0.0026 -0.0431
    1DPPC   C4A 1028  11.359  11.663   5.367  0.1879 -0.0242 -0.1786
    1DPPC   C1B 1029  10.855  11.125   6.104  0.2414 -0.0761 -0.1078
    1DPPC   C2B 1030  10.853  11.047   5.624  0.1893  0.0800  0.0909
    1DPPC   C3B 1031  10.918  10.838   5.305  0.0904 -0.0900 -0.2533
    1DPPC   C4B 1032  11.067  10.978   4.916 -0.3157  0.1222  0.1492
    1DPPC   NC3 1033   1.242  18.567   6.401 -0.0710  0.1224 -0.2941
    1DPPC   PO4 1034   0.919  18.856   6.362  0.3110  0.0222  0.2779
    1DPPC   GL1 1035   1.172  19.102   6.102 -0.1752  0.2150 -0.0646
    1DPPC   GL2 1036   1.295  18.908   5.910 -0.1730 -0.0808  0.2533
    1DPPC   C1A 1037   1.316  19.443   5.880  0.0344 -0.2857 -0.2795
    1DPPC   C2A 1038   1.507  19.500   5.485  0.1878 -0.0783  0.1011
    1DPPC   C3A 1039   1.504  19.461   5.019 -0.1686  0.0970 -0.0067
    1DPPC   C4A 1040   1.356  19.706   4.687 -0.0114 -0.0637  0.2101
    1DPPC   C1B 1041   1.585  19.043   5.615  0.0654  0.1865 -0.0111
    1DPPC   C2B 1042   1.747  19.034   5.142 -0.1163 -0.0476  0.0744
    1DPPC   C3B 1043   1.758  18.782   4.781 -0.2190 -0.0050  0.1262
    1DPPC   C4B 1044   1.823  18.623   4.441  0.1377  0.1397 -0.1512
    1DPPC   NC3 1045  29.512  10.058   6.527  0.0045 -0.2318  0.0299
    1DPPC   PO4 1046  29.033  10.110   6.619 -0.0601 -0.1170 -0.4075
    1DPPC   GL1 1047  29.216  10.320   6.255  0.0636  0.0392  0.2024
    1DPPC   GL2 1048  29.105  10.625   6.119  0.1990 -0.1413  0.1516
    1DPPC   C1A 1049  29.261  10.154   5.917  0.0185  0.2783 -0.2170
    1DPPC   C2A 1050  29.252  10.149   5.458  0.0399 -0.2041  0.0958
    1DPPC   C3A 1051  29.325  10.306   5.052  0.1429  0.1069 -0.1509
    1DPPC   C4A 1052  29.189  10.191   4.666  0.0071  0.1835 -0.0191
    1DPPC   C1B 1053  29.030  10.634   5.629  0.0225  0.1130 -0.4102
    1DPPC   C2B 1054  29.037  10.727   5.278  0.0280 -0.0788  0.3044
    1DPPC   C3B 1055  29.172  10.916   4.891 -0.0424 -0.1525  0.1781
    1DPPC   C4B 1056  29.308  10.668   4.540 -0.1050  0.0101 -0.0930
    1DPPC   NC3 1057   3.600  19.347   7.006  0.1346  0.0596  0.1822
    1DPPC   PO4 1058   3.726  19.608   6.782  0.1184  0.4833 -0.3309
    1DPPC   GL1 1059   3.551  19.713   6.355  0.0964 -0.0035  0.0463
    1DPPC   GL2 1060   3.498  19.520   6.106 -0.0973  0.0126  0.2050
    1DPPC   C1A 1061   3.542  20.042   6.021  0.0350  0.1506 -0.0354
    1DPPC   C2A 1062   3.426  20.130   5.613 -0.1604  0.0131  0.1331
    1DPPC   C3A 1063   3.305  20.267   5.188 -0.1777 -0.1648 -0.0290
    1DPPC   C4A 1064   3.075  20.332   4.812 -0.0574  0.1267 -0.1960
    1DPPC   C1B 1065   3.459  19.632   5.671  0.0220  0.1354 -0.3216
    1DPPC   C2B 1066   3.600  19.691   5.288  0.1381  0.2320  0.1973
    1DPPC   C3B 1067   3.543  19.454   4.945 -0.1738 -0.0884  0.1427
    1DPPC   C4B 1068   3.385  19.477   4.567 -0.1554  0.2537  0.0212
    1DPPC   NC3 1069   5.447  11.857   7.166 -0.5102 -0.1499 -0.0650
    1DPPC   PO4 1070   5.907  11.698   7.039  0.2350 -0.0209  0.1401
    1DPPC   GL1 1071   6.147  11.559   6.687 -0.2051 -0.0192  0.0495
    1DPPC   GL2 1072   6.084  11.918   6.584 -0.1817  0.1887  0.1473
    1DPPC   C1A 1073   6.310  11.560   6.331 -0.5012 -0.0706  0.1480
    1DPPC   C2A 1074   6.430  11.427   5.888 -0.2405  0.2906  0.1133
    1DPPC   C3A 1075   6.247  11.396   5.507 -0.0179 -0.2476  0.1930
    1DPPC   C4A 1076   5.971  11.660   5.335  0.1253  0.0470 -0.2734
    1DPPC   C1B 1077   6.109  11.878   6.066  0.2233  0.0745  0.0260
    1DPPC   C2B 1078   6.197  11.888   5.735 -0.1786 -0.2948  0.1538
    1DPPC   C3B 1079   6.437  11.842   5.341 -0.0436 -0.2662  0.0556
    1DPPC   C4B 1080   6.865  11.615   5.126  0.2686 -0.3340  0.2814
    1DPPC   NC3 1081   3.154   9.024   6.240 -0.0754 -0.1009  0.1771
    1DPPC   PO4 1082   2.907   8.628   6.342 -0.2433 -0.0221  0.0040
    1DPPC   GL1 1083   3.060   8.450   5.950 -0.1141 -0.1744 -0.0609
    1DPPC   GL2 1084   3.315   8.690   5.829  0.0486 -0.3336  0.0848
    1DPPC   C1A 1085   2.897   8.439   5.700 -0.0137  0.0804  0.5834
    1DPPC   C2A 1086   2.876   8.406   5.244 -0.0013  0.2301 -0.0781
    1DPPC   C3A 1087   2.892   8.473   4.824  0.2310 -0.0324 -0.0765
    1DPPC   C4A 1088   2.933   8.666   4.416  0.0530 -0.0204  0.2440
    1DPPC   C1B 1089   3.254   8.698   5.440 -0.2809 -0.1296  0.1476
    1DPPC   C2B 1090   3.304   8.637   5.111  0.4074 -0.4791 -0.1853
    1DPPC   C3B 1091   3.362   8.608   4.719  0.0359 -0.0917  0.1129
    1DPPC   C4B 1092   3.479   8.812   4.271 -0.2480 -0.0981  0.0637
    1DPPC   NC3 1093  16.411  28.737   6.538 -0.3530 -0.1869 -0.0762
    1DPPC   PO4 1094  16.059  28.602   6.460 -0.0371  0.1274 -0.1842
    1DPPC   GL1 1095  15.820  28.577   6.044  0.0361 -0.2719  0.1089
    1DPPC   GL2 1096  15.507  28.457   5.893  0.1715  0.0238 -0.0879
    1DPPC   C1A 1097  15.814  28.705   5.615  0.0595 -0.1200 -0.2092
    1DPPC   C2A 1098  15.886  29.120   5.380 -0.1263  0.0271 -0.0250
    1DPPC   C3A 1099  16.168  29.290   4.973  0.2846  0.1002 -0.1548
    1DPPC   C4A 1100  16.113  29.474   4.624 -0.0086 -0.2903 -0.1283
    1DPPC   C1B 1101  15.288  28.468   5.434 -0.0856 -0.2538 -0.0080
    1DPPC   C2B 1102  15.110  28.681   5.055  0.0577  0.1833 -0.1393
    1DPPC   C3B 1103  14.962  28.947   4.745 -0.0744 -0.3686 -0.0337
    1DPPC   C4B 1104  14.481  29.126   4.780 -0.3546 -0.0732 -0.2672
    1DPPC   NC3 1105   0.078  19.796   6.357 -0.0957 -0.1061 -0.1201
    1DPPC   PO4 1106  -0.306  19.577   6.407  0.3299 -0.0685 -0.1816
    1DPPC   GL1 1107  -0.178  19.551   5.974 -0.0437 -0.2779  0.1586
    1DPPC   GL2 1108  -0.112  19.800   5.838 -0.1233 -0.3761  0.0548
    1DPPC   C1A 1109  -0.409  19.508   5.551 -0.3365 -0.0426 -0.0862
    1DPPC   C2A 1110  -0.365  19.460   5.104 -0.2124 -0.2008  0.0931
    1DPPC   C3A 1111  -0.106  19.479   4.719 -0.1216 -0.0902  0.1036
    1DPPC   C4A 1112  -0.063  19.198   4.325 -0.2418 -0.0329  0.1195
    1DPPC   C1B 1113   0.018  19.799   5.475 -0.2127  0.0652  0.1227
    1DPPC   C2B 1114   0.103  19.720   5.094 -0.5331 -0.0721  0.2692
    1DPPC   C3B 1115   0.362  19.600   4.774 -0.4094 -0.1027  0.1077
    1DPPC   C4B 1116   0.571  19.700   4.395  0.3077  0.0902  0.0231
    1DPPC   NC3 1117  28.632  22.225   6.384 -0.0237  0.2299 -0.0913
    1DPPC   PO4 1118  28.379  22.380   6.058 -0.0342 -0.1788  0.0184
    1DPPC   GL1 1119  28.336  22.228   5.681 -0.2842  0.0769 -0.3779
    1DPPC   GL2 1120  28.206  21.918   5.553 -0.2790  0.2505  0.2815
    1DPPC   C1A 1121  28.301  22.409   5.216  0.0785  0.0571  0.0153
    1DPPC   C2A 1122  28.458  22.260   4.733  0.1412  0.1798 -0.0449
    1DPPC   C3A 1123  28.415  22.582   4.314 -0.0588 -0.1643 -0.0262
    1DPPC   C4A 1124  28.602  22.852   4.133 -0.0001  0.0057  0.2789
    1DPPC   C1B 1125  28.436  21.866   5.144  0.0428  0.0067 -0.0043
    1DPPC   C2B 1126  28.601  21.725   4.822 -0.0374 -0.0526 -0.2630
    1DPPC   C3B 1127  28.825  21.686   4.438 -0.0600 -0.0339 -0.0414
    1DPPC   C4B 1128  28.926  21.455   4.030 -0.1323  0.2963 -0.2241
    1DPPC   NC3 1129  21.732  14.003   5.917  0.0435 -0.1492  0.0975
    1DPPC   PO4 1130  22.135  13.730   5.731 -0.1419  0.0242  0.4686
    1DPPC   GL1 1131  21.877  13.925   5.370 -0.2726 -0.1862  0.0668
    1DPPC   GL2 1132  21.898  14.252   5.402  0.0869  0.2885 -0.1561
    1DPPC   C1A 1133  21.952  14.042   4.858 -0.1056  0.0429 -0.2292
    1DPPC   C2A 1134  21.949  14.197   4.328 -0.0523  0.2430 -0.1035
    1DPPC   C3A 1135  21.951  14.496   3.987 -0.0626  0.0014 -0.1513
    1DPPC   C4A 1136  22.194  14.817   3.874 -0.0835  0.1554  0.0253
    1DPPC   C1B 1137  21.657  14.422   5.005  0.0235  0.2667 -0.1014
    1DPPC   C2B 1138  21.459  14.501   4.708 -0.1588  0.0510  0.1742
    1DPPC   C3B 1139  21.516  14.408   4.191 -0.1627  0.3169 -0.3707
    1DPPC   C4B 1140  21.647  14.118   3.833 -0.3031 -0.0705  0.2155
    1DPPC   NC3 1141   2.684   9.891   6.909  0.2918  0.0977 -0.0908
    1DPPC   PO4 1142   2.378   9.864   6.635  0.0780 -0.0868  0.0894
    1DPPC   GL1 1143   2.580   9.840   6.241 -0.1641 -0.1044  0.1593
    1DPPC   GL2 1144   2.545   9.514   6.064 -0.2597 -0.0944 -0.1238
    1DPPC   C1A 1145   2.691  10.009   5.911  0.4454 -0.1850 -0.1130
    1DPPC   C2A 1146   2.662  10.049   5.439 -0.1540 -0.0963 -0.0295
    1DPPC   C3A 1147   2.625  10.120   4.996 -0.1597  0.0727  0.0189
    1DPPC   C4A 1148   2.723  10.261   4.582 -0.3055  0.0713  0.1698
    1DPPC   C1B 1149   2.729   9.462   5.707  0.1418  0.0029  0.1547
    1DPPC   C2B 1150   2.756   9.557   5.307 -0.0547 -0.2153  0.1080
    1DPPC   C3B 1151   2.646   9.468   4.939  0.3283 -0.1262  0.1979
    1DPPC   C4B 1152   2.352   9.384   4.570 -0.2628 -0.0888 -0.1555
    1DPPC   NC3 1153  27.987   5.317   6.410  0.1822  0.0383  0.1458
    1DPPC   PO4 1154  27.675   4.929   6.415  0.1999 -0.1635 -0.0922
    1DPPC   GL1 1155  27.807   4.936   6.006  0.0427  0.0095  0.1310
    1DPPC   GL2 1156  27.808   5.299   5.931  0.1243 -0.1907 -0.0640
    1DPPC   C1A 1157  27.523   4.874   5.634  0.0035  0.2456  0.1416
    1DPPC   C2A 1158  27.487   4.946   5.208  0.0286  0.3664  0.0469
    1DPPC   C3A 1159  27.646   5.240   4.870  0.1459 -0.1373  0.3587
    1DPPC   C4A 1160  27.764   5.095   4.449  0.2771 -0.1082 -0.1138
    1DPPC   C1B 1161  27.831   5.264   5.456  0.1965 -0.1445 -0.2007
    1DPPC   C2B 1162  28.056   4.938   5.184  0.1784 -0.0179  0.0665
    1DPPC   C3B 1163  27.936   4.724   4.725  0.0156 -0.3395  0.0737
    1DPPC   C4B 1164  27.974   4.448   4.396  0.1098 -0.1693  0.0002
    1DPPC   NC3 1165  28.908  16.343   6.182  0.2544 -0.0428 -0.1948
    1DPPC   PO4 1166  28.758  15.904   6.332 -0.1696 -0.0451  0.2057
    1DPPC   GL1 1167  28.923  15.912   5.912  0.4151 -0.0408  0.2290
    1DPPC   GL2 1168  29.203  15.778   5.810  0.1284 -0.0094 -0.1584
    1DPPC   C1A 1169  28.825  16.146   5.555 -0.0579  0.1190 -0.0604
    1DPPC   C2A 1170  28.972  16.228   5.167  0.2151  0.4175 -0.5414
    1DPPC   C3A 1171  29.063  16.111   4.857 -0.0951 -0.0193  0.2535
    1DPPC   C4A 1172  29.358  15.927   4.550  0.3627  0.1981  0.0751
    1DPPC   C1B 1173  29.151  15.758   5.365  0.1069  0.0128  0.2460
    1DPPC   C2B 1174  29.256  15.637   4.946  0.2290 -0.2375 -0.2434
    1DPPC   C3B 1175  29.200  15.432   4.585  0.0685  0.3117 -0.0366
    1DPPC   C4B 1176  29.370  15.219   4.262 -0.0170 -0.0187 -0.3189
    1DPPC   NC3 1177   7.189  11.558   7.516  0.3537 -0.3885  0.0356
    1DPPC   PO4 1178   7.110  11.526   7.031  0.4040 -0.0408 -0.6512
    1DPPC   GL1 1179   7.161  11.696   6.568  0.0869 -0.1116  0.0666
    1DPPC   GL2 1180   6.851  11.739   6.547 -0.3205 -0.1340 -0.3688
    1DPPC   C1A 1181   7.308  11.696   6.160  0.1581  0.2444  0.1190
    1DPPC   C2A 1182   7.279  11.615   5.808  0.3846 -0.0379 -0.1098
    1DPPC   C3A 1183   7.461  11.450   5.465  0.0965  0.2685  0.1455
    1DPPC   C4A 1184   7.391  11.391   5.029  0.2614 -0.2058  0.1148
    1DPPC   C1B 1185   6.794  11.739   6.135 -0.0094  0.3030  0.3271
    1DPPC   C2B 1186   6.780  11.685   5.655  0.0177  0.0489  0.1143
    1DPPC   C3B 1187   6.745  11.266   5.549 -0.0775 -0.0183 -0.0842
    1DPPC   C4B 1188   6.798  10.860   5.840 -0.1237 -0.1830 -0.0412
    1DPPC   NC3 1189   6.843  12.466   7.179 -0.3786 -0.2170  0.1937
    1DPPC   PO4 1190   7.317  12.515   7.112 -0.0452  0.2626 -0.2873
    1DPPC   GL1 1191   7.480  12.446   6.709 -0.3429  0.0536 -0.1633
    1DPPC   GL2 1192   7.795  12.295   6.727 -0.0978  0.2357  0.0842
    1DPPC   C1A 1193   7.487  12.465   6.297 -0.0796  0.0546 -0.2223
    1DPPC   C2A 1194   7.501  12.546   5.821  0.0799  0.3244 -0.0955
    1DPPC   C3A 1195   7.512  12.525   5.442 -0.0715  0.0578 -0.1064
    1DPPC   C4A 1196   7.120  12.465   5.161 -0.1210  0.0271  0.2734
    1DPPC   C1B 1197   7.667  12.014   6.418 -0.2984 -0.1024  0.0040
    1DPPC   C2B 1198   7.683  11.986   6.041  0.0843  0.0322  0.1203
    1DPPC   C3B 1199   7.804  12.041   5.559  0.1232 -0.2658 -0.0627
    1DPPC   C4B 1200   7.834  12.246   5.206  0.3023  0.0732 -0.0575
    1DPPC   NC3 1201   3.455  12.880   6.847 -0.1378  0.0806  0.1048
    1DPPC   PO4 1202   3.840  12.932   6.894 -0.0809 -0.0493  0.1026
    1DPPC   GL1 1203   3.813  13.045   6.541 -0.0965 -0.0021  0.1359
    1DPPC   GL2 1204   4.112  13.248   6.517 -0.0584 -0.1503  0.0636
    1DPPC   C1A 1205   3.747  12.989   6.192 -0.0559  0.3715  0.0572
    1DPPC   C2A 1206   3.955  12.891   5.936 -0.0963 -0.1082  0.1202
    1DPPC   C3A 1207   4.026  12.700   5.566 -0.2605 -0.1015  0.2587
    1DPPC   C4A 1208   4.147  12.482   5.223 -0.4181 -0.0007  0.1670
    1DPPC   C1B 1209   4.347  12.983   6.263  0.0004 -0.0067 -0.0492
    1DPPC   C2B 1210   4.489  12.908   5.822 -0.2373  0.3211 -0.0377
    1DPPC   C3B 1211   4.569  12.765   5.325 -0.0132  0.0067  0.0850
    1DPPC   C4B 1212   4.627  12.464   4.939 -0.0484 -0.3504 -0.0947
    1DPPC   NC3 1213  25.859  16.251   5.329 -0.1674  0.1321  0.2555
    1DPPC   PO4 1214  25.430  16.445   5.276 -0.2277 -0.1918 -0.0257
    1DPPC   GL1 1215  25.508  16.254   4.904  0.2914  0.1677 -0.1200
    1DPPC   GL2 1216  25.723  16.280   4.858 -0.2895  0.4350 -0.2894
    1DPPC   C1A 1217  25.302  16.192   4.509  0.1693  0.3461  0.2565
    1DPPC   C2A 1218  25.246  15.988   4.248 -0.2769  0.2109  0.1462
    1DPPC   C3A 1219  25.191  16.107   3.949 -0.0903  0.1835 -0.0046
    1DPPC   C4A 1220  25.239  15.953   3.556 -0.1210 -0.2041 -0.0423
    1DPPC   C1B 1221  25.795  16.346   4.448 -0.0748  0.1638 -0.2054
    1DPPC   C2B 1222  25.921  16.323   4.085 -0.2450  0.4419 -0.1898
    1DPPC   C3B 1223  26.110  16.215   3.579 -0.1213  0.2338 -0.0181
    1DPPC   C4B 1224  26.180  16.356   3.174 -0.1446 -0.1111 -0.0268
    1DPPC   NC3 1225   0.550  17.515   6.869  0.0239 -0.0137  0.2645
    1DPPC   PO4 1226   0.595  17.727   6.402 -0.4123  0.4968  0.2410
    1DPPC   GL1 1227   0.334  17.874   6.099  0.1508 -0.0555 -0.3404
    1DPPC   GL2 1228   0.368  18.124   6.078 -0.2545 -0.1186 -0.1481
    1DPPC   C1A 1229   0.394  17.897   5.675 -0.2987  0.0327 -0.1554
    1DPPC   C2A 1230   0.419  17.787   5.309  0.1232 -0.0838  0.1871
    1DPPC   C3A 1231   0.468  17.938   4.959  0.0360  0.2429 -0.0253
    1DPPC   C4A 1232   0.320  17.908   4.590  0.3444 -0.3028  0.1830
    1DPPC   C1B 1233   0.446  18.384   5.704 -0.1038 -0.1648  0.0157
    1DPPC   C2B 1234   0.479  18.336   5.296 -0.1635 -0.2005  0.1427
    1DPPC   C3B 1235   0.518  18.397   4.760  0.0255  0.1455 -0.0137
    1DPPC   C4B 1236   0.470  18.319   4.336  0.1238 -0.0339 -0.0628
    1DPPC   NC3 1237  10.524  13.004   7.022  0.2925  0.1387 -0.0709
    1DPPC   PO4 1238  10.874  12.731   6.878 -0.1314  0.2853 -0.2468
    1DPPC   GL1 1239  10.542  12.737   6.550  0.0236 -0.1055 -0.0138
    1DPPC   GL2 1240  10.276  12.844   6.650  0.0317 -0.2251 -0.0656
    1DPPC   C1A 1241  10.305  12.952   6.178  0.3667 -0.3869  0.0369
    1DPPC   C2A 1242  10.581  13.042   5.778 -0.1490  0.4815 -0.0737
    1DPPC   C3A 1243  10.466  13.114   5.292 -0.0185  0.0850  0.1264
    1DPPC   C4A 1244  10.268  13.436   4.971  0.1278  0.0887 -0.0137
    1DPPC   C1B 1245  10.042  12.571   6.449  0.1594 -0.0052  0.0687
    1DPPC   C2B 1246  10.043  12.409   5.961  0.1724  0.0699 -0.2609
    1DPPC   C3B 1247   9.942  12.166   5.640  0.2042  0.5620 -0.2451
    1DPPC   C4B 1248   9.848  11.969   5.346 -0.1898 -0.0293 -0.0133
    1DPPC   NC3 1249   0.252  16.350   6.748 -0.0065 -0.1441 -0.1648
    1DPPC   PO4 1250   0.344  16.683   6.399 -0.2338 -0.4219  0.0356
    1DPPC   GL1 1251   0.385  16.455   5.915  0.0321  0.2259  0.1630
    1DPPC   GL2 1252   0.537  16.211   5.873 -0.0808  0.2833 -0.0386
    1DPPC   C1A 1253   0.519  16.673   5.625 -0.1291  0.1475 -0.1587
    1DPPC   C2A 1254   0.494  16.682   5.107 -0.1345  0.2750  0.1018
    1DPPC   C3A 1255   0.593  16.679   4.663  0.0681 -0.2412 -0.0089
    1DPPC   C4A 1256   0.769  16.693   4.330  0.0090 -0.1037 -0.2826
    1DPPC   C1B 1257   0.660  16.124   5.467  0.2670 -0.0999  0.1150
    1DPPC   C2B 1258   0.785  15.954   5.002 -0.2910 -0.3484 -0.0820
    1DPPC   C3B 1259   1.072  15.812   4.675 -0.1754 -0.0350 -0.0051
    1DPPC   C4B 1260   0.888  15.804   4.281  0.2209 -0.3059 -0.0610
    1DPPC   NC3 1261   0.456  11.365   7.350  0.0243  0.1826  0.2080
    1DPPC   PO4 1262   0.391  11.660   6.948  0.0489 -0.0012  0.2635
    1DPPC   GL1 1263   0.323  11.569   6.491 -0.0461  0.0025 -0.0178
    1DPPC   GL2 1264   0.597  11.500   6.403  0.1418  0.0175  0.1017
    1DPPC   C1A 1265   0.155  11.766   6.122 -0.1407  0.1240  0.2986
    1DPPC   C2A 1266   0.042  11.542   5.703 -0.0988  0.2085 -0.2379
    1DPPC   C3A 1267   0.107  11.528   5.309  0.0060 -0.2814 -0.1754
    1DPPC   C4A 1268   0.376  11.534   4.962 -0.0601  0.0003  0.0532
    1DPPC   C1B 1269   0.446  11.435   6.004 -0.2303  0.1075  0.0516
    1DPPC   C2B 1270   0.501  11.287   5.491 -0.2382 -0.1958  0.0959
    1DPPC   C3B 1271   0.525  11.031   5.050 -0.1983 -0.1107  0.2791
    1DPPC   C4B 1272   0.751  11.006   4.692 -0.0603 -0.2122  0.0119
    1DPPC   NC3 1273   0.813  21.983   7.099  0.0735 -0.0239  0.1514
    1DPPC   PO4 1274   0.515  22.168   6.867  0.3057  0.0056  0.3888
    1DPPC   GL1 1275   0.703  21.991   6.551  0.0138 -0.1040 -0.1926
    1DPPC   GL2 1276   0.930  22.113   6.384 -0.1288  0.0661  0.2277
    1DPPC   C1A 1277   0.543  21.814   6.126  0.1207 -0.1582 -0.1394
    1DPPC   C2A 1278   0.732  21.917   5.729 -0.0349 -0.2349 -0.0712
    1DPPC   C3A 1279   0.980  22.061   5.338  0.1924 -0.0491 -0.2929
    1DPPC   C4A 1280   0.986  22.226   4.936  0.3329 -0.0448  0.2306
    1DPPC   C1B 1281   1.106  22.148   6.023 -0.0930  0.0915  0.0365
    1DPPC   C2B 1282   1.086  22.459   5.680  0.0429  0.2149  0.0649
    1DPPC   C3B 1283   1.083  22.583   5.247 -0.0601 -0.2102  0.0836
    1DPPC   C4B 1284   0.642  22.530   5.081 -0.0601  0.0933 -0.1323
    1DPPC   NC3 1285   2.607  13.418   7.118 -0.0160  0.3082 -0.0641
    1DPPC   PO4 1286   2.414  13.378   6.714 -0.1776  0.0664  0.1238
    1DPPC   GL1 1287   2.212  13.703   6.453  0.3658 -0.3441 -0.2435
    1DPPC   GL2 1288   2.193  13.994   6.351  0.0146  0.0445 -0.0322
    1DPPC   C1A 1289   2.085  13.615   5.999 -0.0533 -0.0395  0.2999
    1DPPC   C2A 1290   2.151  13.580   5.620  0.1329 -0.1806  0.2422
    1DPPC   C3A 1291   2.032  13.767   5.248 -0.2503 -0.1174  0.0300
    1DPPC   C4A 1292   1.932  13.867   4.781 -0.1306 -0.2975  0.0261
    1DPPC   C1B 1293   2.446  13.956   6.015 -0.0653 -0.4767  0.0249
    1DPPC   C2B 1294   2.473  13.960   5.475 -0.0836 -0.0372 -0.1708
    1DPPC   C3B 1295   2.494  13.872   5.134  0.1245 -0.0165  0.0004
    1DPPC   C4B 1296   2.507  13.423   4.971 -0.1060  0.1035 -0.0808
    1DPPC   NC3 1297  28.999  17.591   6.547  0.3978  0.0035  0.1107
    1DPPC   PO4 1298  29.198  18.006   6.487 -0.1869 -0.0175 -0.0278
    1DPPC   GL1 1299  29.250  18.011   5.972 -0.3602 -0.0103 -0.1100
    1DPPC   GL2 1300  29.015  18.148   5.734 -0.1710 -0.2245  0.0370
    1DPPC   C1A 1301  29.307  17.705   5.535 -0.0361  0.2888  0.2314
    1DPPC   C2A 1302  29.407  17.569   5.136  0.2173 -0.0317 -0.3401
    1DPPC   C3A 1303  29.350  17.457   4.736 -0.0298 -0.3842  0.1120
    1DPPC   C4A 1304  29.329  17.429   4.308  0.1401 -0.0768  0.0985
    1DPPC   C1B 1305  29.020  18.034   5.320 -0.1592 -0.0705 -0.0115
    1DPPC   C2B 1306  29.124  17.952   4.925 -0.1420  0.0465 -0.2342
    1DPPC   C3B 1307  29.154  17.977   4.548 -0.0663  0.2779  0.4028
    1DPPC   C4B 1308  29.381  18.239   4.287 -0.1059 -0.0315 -0.1351
    1DPPC   NC3 1309   3.668  21.524   7.531 -0.0931 -0.1953  0.1404
    1DPPC   PO4 1310   3.603  21.490   7.053 -0.0686  0.1582 -0.2074
    1DPPC   GL1 1311   3.533  21.357   6.591 -0.0793 -0.2666 -0.1874
    1DPPC   GL2 1312   3.275  21.490   6.451 -0.0365 -0.1899  0.0111
    1DPPC   C1A 1313   3.730  21.321   6.200 -0.0663  0.0361  0.2410
    1DPPC   C2A 1314   4.010  21.335   5.786  0.0404 -0.1002  0.0323
    1DPPC   C3A 1315   3.928  21.459   5.329  0.1406  0.0431  0.1014
    1DPPC   C4A 1316   3.932  21.850   5.024  0.1784 -0.1313 -0.0611
    1DPPC   C1B 1317   3.316  21.653   6.124  0.0464  0.1557  0.2205
    1DPPC   C2B 1318   3.406  21.751   5.756  0.1802 -0.1309  0.1615
    1DPPC   C3B 1319   3.645  21.817   5.421  0.2328  0.1036  0.3837
    1DPPC   C4B 1320   3.425  22.062   5.188 -0.0345 -0.1874  0.0177
    1DPPC   NC3 1321  15.550  21.988   6.450 -0.4430  0.1852 -0.3223
    1DPPC   PO4 1322  15.474  22.360   6.666 -0.2447 -0.0044  0.3390
    1DPPC   GL1 1323  15.512  22.504   6.264  0.2145 -0.1139 -0.2125
    1DPPC   GL2 1324  15.651  22.859   6.150 -0.0570 -0.0621  0.0905
    1DPPC   C1A 1325  15.287  22.558   5.885 -0.3576 -0.1053 -0.0438
    1DPPC   C2A 1326  15.102  22.547   5.374  0.0250  0.0178  0.0607
    1DPPC   C3A 1327  14.955  22.252   5.056  0.0416  0.1538  0.0957
    1DPPC   C4A 1328  14.822  21.973   4.776 -0.0641  0.0135 -0.1058
    1DPPC   C1B 1329  15.150  22.958   6.146  0.1806 -0.0671 -0.1465
    1DPPC   C2B 1330  14.837  22.714   5.960  0.0255 -0.1312  0.0687
    1DPPC   C3B 1331  14.670  22.448   5.720 -0.2561  0.1499  0.2555
    1DPPC   C4B 1332  14.316  22.140   5.848  0.0434  0.1099  0.0782
    1DPPC   NC3 1333   1.112  13.275   6.668  0.2084 -0.3997  0.0643
    1DPPC   PO4 1334   1.459  13.411   6.873  0.2185  0.2099  0.2006
    1DPPC   GL1 1335   1.503  13.421   6.406 -0.1578 -0.0210  0.0027
    1DPPC   GL2 1336   1.796  13.355   6.297  0.0653 -0.0502  0.1517
    1DPPC   C1A 1337   1.303  13.216   6.024  0.0951  0.0285  0.1473
    1DPPC   C2A 1338   1.396  13.133   5.612  0.0391 -0.1101 -0.2030
    1DPPC   C3A 1339   1.454  13.152   5.232  0.0490 -0.0461  0.0626
    1DPPC   C4A 1340   1.439  13.150   4.780 -0.0747 -0.0571 -0.2604
    1DPPC   C1B 1341   1.815  13.214   5.900  0.1832 -0.1185 -0.0075
    1DPPC   C2B 1342   1.903  13.125   5.470 -0.0595  0.1830  0.0089
    1DPPC   C3B 1343   2.090  13.223   5.112 -0.0303  0.2130  0.1875
    1DPPC   C4B 1344   1.876  13.353   4.801 -0.1592  0.1773  0.1599
    1DPPC   NC3 1345  29.630  14.930   6.735  0.1147 -0.1289  0.4532
    1DPPC   PO4 1346  29.521  15.184   6.347 -0.0137 -0.2278  0.2737
    1DPPC   GL1 1347  29.810  14.992   6.168  0.3042 -0.0290 -0.3282
    1DPPC   GL2 1348  30.179  15.026   6.196  0.0337 -0.0403 -0.2203
    1DPPC   C1A 1349  29.920  14.822   5.668 -0.1127  0.2427 -0.1942
    1DPPC   C2A 1350  30.031  14.754   5.253 -0.1227  0.0692 -0.1372
    1DPPC   C3A 1351  29.978  14.589   4.868  0.2468 -0.1754 -0.0863
    1DPPC   C4A 1352  30.168  14.611   4.484  0.2052 -0.0585 -0.2658
    1DPPC   C1B 1353  30.346  15.199   5.880  0.3083 -0.3481 -0.2006
    1DPPC   C2B 1354  30.371  14.999   5.476 -0.0814  0.0217  0.0520
    1DPPC   C3B 1355  30.501  14.977   5.085 -0.2273  0.1720  0.1839
    1DPPC   C4B 1356  30.589  14.710   4.782 -0.1741 -0.1128  0.0706
    1DPPC   NC3 1357   4.828  13.120   6.991 -0.3167 -0.0848 -0.1934
    1DPPC   PO4 1358   4.835  12.732   6.981 -0.0660 -0.2798  0.0087
    1DPPC   GL1 1359   4.596  12.699   6.602  0.2289  0.3677 -0.1219
    1DPPC   GL2 1360   4.729  13.048   6.513 -0.1666  0.4324  0.2697
    1DPPC   C1A 1361   4.405  12.498   6.180  0.3183 -0.1328 -0.1127
    1DPPC   C2A 1362   4.404  12.334   5.874 -0.0936 -0.0212  0.0688
    1DPPC   C3A 1363   4.752  12.233   5.427  0.2002 -0.2746 -0.1414
    1DPPC   C4A 1364   4.935  12.012   5.115  0.3147 -0.0070  0.2840
    1DPPC   C1B 1365   4.792  13.240   6.119 -0.3418  0.1350 -0.1101
    1DPPC   C2B 1366   4.867  13.224   5.733  0.0503  0.2712  0.0211
    1DPPC   C3B 1367   4.952  13.104   5.314 -0.0092 -0.0088 -0.2392
    1DPPC   C4B 1368   4.924  13.002   4.944 -0.4380 -0.0654 -0.0317
    1DPPC   NC3 1369  21.354  15.631   5.514 -0.0402 -0.2203 -0.0940
    1DPPC   PO4 1370  21.740  15.847   5.665 -0.1056  0.2147 -0.1821
    1DPPC   GL1 1371  21.806  16.172   5.273  0.0852  0.0030  0.0614
    1DPPC   GL2 1372  21.717  15.920   5.014 -0.1781  0.1974  0.3116
    1DPPC   C1A 1373  21.732  16.344   4.857 -0.3583 -0.1654  0.1708
    1DPPC   C2A 1374  21.414  16.662   4.501 -0.1478  0.1612 -0.1645
    1DPPC   C3A 1375  21.103  16.452   4.194  0.1369 -0.2153 -0.2394
    1DPPC   C4A 1376  20.687  16.345   4.237 -0.2608  0.1782  0.1850
    1DPPC   C1B 1377  21.813  15.960   4.527 -0.4080  0.1094 -0.0262
    1DPPC   C2B 1378  21.419  16.024   4.132  0.0026  0.2200  0.2651
    1DPPC   C3B 1379  21.516  16.244   3.732  0.0792 -0.2804 -0.1430
    1DPPC   C4B 1380  21.608  16.197   3.281  0.0511 -0.0789 -0.0812
    1DPPC   NC3 1381  28.324  15.629   6.405  0.0260  0.0305 -0.0607
    1DPPC   PO4 1382  28.055  15.630   6.066  0.0427  0.0818 -0.2724
    1DPPC   GL1 1383  27.736  15.642   5.745 -0.0359  0.3941  0.2767
    1DPPC   GL2 1384  28.037  15.822   5.610  0.1085 -0.3698 -0.1654
    1DPPC   C1A 1385  27.693  15.605   5.376  0.0266 -0.0137 -0.0091
    1DPPC   C2A 1386  27.879  15.569   4.980 -0.1295  0.1427  0.1044
    1DPPC   C3A 1387  27.881  15.585   4.489 -0.2067  0.1441  0.2907
    1DPPC   C4A 1388  27.746  15.554   4.038 -0.0222  0.0823  0.0616
    1DPPC   C1B 1389  28.155  15.878   5.226  0.0167  0.2924 -0.0798
    1DPPC   C2B 1390  28.286  15.790   4.735  0.0402  0.2932  0.0815
    1DPPC   C3B 1391  28.350  15.785   4.295 -0.2692 -0.0778  0.2546
    1DPPC   C4B 1392  28.239  15.810   3.844 -0.0775  0.3093  0.0302
    1DPPC   NC3 1393   8.394  19.666   6.716  0.0754  0.0974  0.1850
    1DPPC   PO4 1394   7.927  19.965   6.712 -0.0233 -0.2336  0.0316
    1DPPC   GL1 1395   7.902  19.586   6.453  0.0595 -0.0387 -0.2214
    1DPPC   GL2 1396   7.578  19.486   6.479 -0.1038 -0.0383 -0.1581
    1DPPC   C1A 1397   7.827  19.434   5.967 -0.1665  0.0655 -0.3020
    1DPPC   C2A 1398   8.059  19.173   5.669  0.3225  0.0395 -0.1356
    1DPPC   C3A 1399   7.881  18.991   5.264  0.0263 -0.0386  0.1003
    1DPPC   C4A 1400   7.633  19.166   5.010 -0.1324  0.0142  0.1955
    1DPPC   C1B 1401   7.401  19.599   6.103  0.0248  0.0601  0.0361
    1DPPC   C2B 1402   7.356  19.635   5.617 -0.1119  0.1970  0.0010
    1DPPC   C3B 1403   7.828  19.517   5.432  0.0434  0.0982 -0.1273
    1DPPC   C4B 1404   8.045  19.422   5.250  0.0455 -0.1103 -0.3425
    1DPPC   NC3 1405  11.185   4.715   7.132 -0.2859  0.2481 -0.3507
    1DPPC   PO4 1406  11.515   5.031   6.952  0.1272 -0.0783 -0.2130
    1DPPC   GL1 1407  11.567   5.473   6.691 -0.2051  0.0733  0.0274
    1DPPC   GL2 1408  11.546   5.803   6.712 -0.0109  0.1271  0.1104
    1DPPC   C1A 1409  11.616   5.613   6.203 -0.0749 -0.0387  0.0637
    1DPPC   C2A 1410  11.297   5.713   5.833 -0.1437 -0.0659 -0.1313
    1DPPC   C3A 1411  11.301   5.795   5.340  0.1767 -0.0489  0.1282
    1DPPC   C4A 1412  11.434   5.625   4.944 -0.4047 -0.3460  0.3190
    1DPPC   C1B 1413  11.287   5.947   6.347  0.0407 -0.0683  0.0008
    1DPPC   C2B 1414  11.359   6.244   5.877  0.2051  0.2207 -0.1239
    1DPPC   C3B 1415  11.522   6.296   5.377  0.0881 -0.0814 -0.1598
    1DPPC   C4B 1416  11.349   6.151   5.002  0.1140 -0.3233 -0.0277
    1DPPC   NC3 1417   4.126  20.231   7.475  0.1525 -0.1265 -0.1096
    1DPPC   PO4 1418   4.444  20.261   7.058 -0.0477 -0.0168 -0.0781
    1DPPC   GL1 1419   4.243  20.330   6.709 -0.2313  0.1740 -0.1943
    1DPPC   GL2 1420   4.069  20.518   6.704  0.1918 -0.1512 -0.0255
    1DPPC   C1A 1421   4.485  20.180   6.285 -0.0374  0.2897  0.2404
    1DPPC   C2A 1422   4.610  19.939   5.896  0.0588  0.1568  0.0034
    1DPPC   C3A 1423   4.517  19.952   5.537 -0.1852  0.0438  0.2228
    1DPPC   C4A 1424   4.524  20.018   5.060 -0.1849  0.1311  0.0693
    1DPPC   C1B 1425   3.997  20.453   6.255 -0.0791 -0.0718  0.0173
    1DPPC   C2B 1426   4.252  20.494   5.833 -0.1170  0.2666  0.0313
    1DPPC   C3B 1427   4.287  20.363   5.345  0.0971 -0.0176  0.0573
    1DPPC   C4B 1428   4.214  20.418   4.972 -0.2540  0.0395  0.2798
    1DPPC   NC3 1429   1.865  12.012   6.781 -0.1469  0.3481  0.1205
    1DPPC   PO4 1430   1.959  11.544   6.929  0.0434 -0.0831 -0.0386
    1DPPC   GL1 1431   1.861  11.563   6.484  0.0093  0.0844 -0.0357
    1DPPC   GL2 1432   1.958  11.218   6.434 -0.1410  0.0387 -0.0218
    1DPPC   C1A 1433   1.732  11.655   6.038  0.2091  0.1820 -0.1270
    1DPPC   C2A 1434   1.695  11.696   5.514  0.2285 -0.0266  0.0196
    1DPPC   C3A 1435   1.744  11.830   5.122 -0.1233  0.0907 -0.2644
    1DPPC   C4A 1436   1.894  11.758   4.655 -0.0920  0.3347  0.2164
    1DPPC   C1B 1437   1.948  11.165   5.996  0.1301  0.1981 -0.2499
    1DPPC   C2B 1438   1.878  11.256   5.635  0.4540 -0.0989  0.0131
    1DPPC   C3B 1439   1.809  11.293   5.218  0.0967 -0.0332 -0.0554
    1DPPC   C4B 1440   1.731  11.244   4.657  0.2038 -0.0381 -0.1104
    1DPPC   NC3 1441  27.514  13.467   6.184  0.2065  0.1116 -0.0117
    1DPPC   PO4 1442  27.726  13.239   6.382  0.2444 -0.2557  0.3227
    1DPPC   GL1 1443  28.074  13.148   6.074 -0.0723  0.1095  0.0412
    1DPPC   GL2 1444  27.835  13.138   5.827 -0.0066 -0.0254 -0.1534
    1DPPC   C1A 1445  28.157  12.774   5.707  0.1036 -0.1076 -0.1547
    1DPPC   C2A 1446  28.156  12.682   5.355  0.1355  0.2070 -0.4400
    1DPPC   C3A 1447  27.827  12.767   5.080  0.0739 -0.1482 -0.1924
    1DPPC   C4A 1448  27.533  12.979   5.073  0.3167 -0.0697  0.2568
    1DPPC   C1B 1449  27.952  13.179   5.336 -0.2214  0.0625  0.4188
    1DPPC   C2B 1450  28.064  13.227   4.967 -0.0512  0.1262 -0.1585
    1DPPC   C3B 1451  27.816  13.068   4.605  0.2691  0.0879 -0.1516
    1DPPC   C4B 1452  27.714  13.209   4.130  0.2787 -0.0395  0.0291
    1DPPC   NC3 1453   9.660  15.178   6.841  0.5327 -0.0755 -0.0798
    1DPPC   PO4 1454   9.229  14.848   6.865 -0.1944  0.2344  0.0205
    1DPPC   GL1 1455   8.865  14.920   6.606 -0.2569 -0.1392  0.2898
    1DPPC   GL2 1456   8.595  14.834   6.805  0.1047 -0.0042  0.0614
    1DPPC   C1A 1457   8.831  14.839   6.047  0.1568  0.3079  0.2312
    1DPPC   C2A 1458   8.811  14.746   5.563 -0.0058 -0.2923 -0.0752
    1DPPC   C3A 1459   8.671  14.644   5.198  0.0593  0.3266 -0.1042
    1DPPC   C4A 1460   8.503  14.735   4.702 -0.0307 -0.1407 -0.0806
    1DPPC   C1B 1461   8.427  14.730   6.365 -0.0102 -0.1480 -0.0601
    1DPPC   C2B 1462   8.533  14.471   5.924  0.0785 -0.3600 -0.0430
    1DPPC   C3B 1463   8.472  14.294   5.507  0.0006 -0.2530  0.3952
    1DPPC   C4B 1464   8.439  14.145   5.071  0.0474  0.3401 -0.0171
    1DPPC   NC3 1465   5.456  22.234   7.022  0.0564  0.0598 -0.1900
    1DPPC   PO4 1466   5.106  22.106   7.042 -0.0737 -0.0944  0.2016
    1DPPC   GL1 1467   5.001  22.079   6.560  0.1507  0.1235  0.0335
    1DPPC   GL2 1468   5.270  22.061   6.540 -0.1105  0.0310 -0.3640
    1DPPC   C1A 1469   4.767  22.166   6.151  0.0014  0.2454  0.1938
    1DPPC   C2A 1470   4.809  22.133   5.648  0.0441  0.1279 -0.1745
    1DPPC   C3A 1471   5.127  22.311   5.294 -0.1617 -0.0620 -0.0998
    1DPPC   C4A 1472   5.543  22.389   5.197 -0.2007 -0.1518  0.2965
    1DPPC   C1B 1473   5.247  22.157   6.129 -0.0208  0.0078  0.1479
    1DPPC   C2B 1474   5.304  22.233   5.737  0.0918  0.1901 -0.0309
    1DPPC   C3B 1475   5.343  22.611   5.603 -0.0307 -0.1869 -0.0160
    1DPPC   C4B 1476   5.520  22.987   5.340 -0.0337  0.2869  0.0967
    1DPPC   NC3 1477  15.133  23.691   6.993 -0.0669  0.0334 -0.2586
    1DPPC   PO4 1478  15.160  23.290   6.761 -0.1474  0.0181  0.0854
    1DPPC   GL1 1479  15.050  23.537   6.456 -0.1971  0.0904 -0.1485
    1DPPC   GL2 1480  14.850  23.387   6.268  0.0243 -0.0850  0.0059
    1DPPC   C1A 1481  15.174  23.644   5.987 -0.3452  0.3318 -0.0352
    1DPPC   C2A 1482  15.465  23.565   5.576  0.0382  0.0713  0.0544
    1DPPC   C3A 1483  15.735  23.336   5.291  0.0760  0.0084 -0.3734
    1DPPC   C4A 1484  15.866  23.470   4.931  0.1128  0.3882 -0.0368
    1DPPC   C1B 1485  14.903  23.254   5.777  0.0993  0.0349 -0.0072
    1DPPC   C2B 1486  14.749  22.900   5.457  0.0869  0.3999 -0.2102
    1DPPC   C3B 1487  14.718  22.679   5.098 -0.2004 -0.0346  0.2461
    1DPPC   C4B 1488  14.759  22.526   4.730 -0.0439  0.0437  0.2727
    1DPPC   NC3 1489  12.348  26.873   6.106 -0.0907 -0.3490 -0.2646
    1DPPC   PO4 1490  12.088  27.278   6.257  0.1516  0.3331 -0.0927
    1DPPC   GL1 1491  12.151  27.438   5.933 -0.3014 -0.1498 -0.0201
    1DPPC   GL2 1492  12.122  27.150   5.742 -0.3828 -0.0538 -0.1719
    1DPPC   C1A 1493  12.410  27.684   5.717 -0.1346 -0.1034  0.2552
    1DPPC   C2A 1494  12.544  28.095   5.542 -0.1974  0.1353  0.0333
    1DPPC   C3A 1495  12.989  28.106   5.393  0.2781  0.3669 -0.0414
    1DPPC   C4A 1496  13.391  28.055   5.469 -0.1094 -0.0512  0.3494
    1DPPC   C1B 1497  12.028  27.479   5.460  0.1646  0.1342 -0.3247
    1DPPC   C2B 1498  11.913  27.456   5.116 -0.0688  0.0204 -0.1959
    1DPPC   C3B 1499  11.557  27.334   4.943  0.1923  0.0066 -0.1987
    1DPPC   C4B 1500  11.134  27.203   4.986  0.1492 -0.1186 -0.2041
    1DPPC   NC3 1501  26.365  16.436   6.191  0.2169 -0.1398 -0.0778
    1DPPC   PO4 1502  26.749  16.463   5.892 -0.1860 -0.1763  0.0195
    1DPPC   GL1 1503  27.139  16.553   5.612  0.0430  0.1710 -0.1699
    1DPPC   GL2 1504  27.202  16.867   5.502 -0.1376 -0.1437 -0.0929
    1DPPC   C1A 1505  27.319  16.493   5.203 -0.1999  0.0246  0.1077
    1DPPC   C2A 1506  27.453  16.524   4.781  0.1388 -0.4331  0.0280
    1DPPC   C3A 1507  27.539  16.425   4.360 -0.3004  0.2303 -0.1340
    1DPPC   C4A 1508  27.376  16.434   3.972 -0.0349  0.3015  0.0652
    1DPPC   C1B 1509  27.324  17.017   5.008  0.2270  0.1076  0.0884
    1DPPC   C2B 1510  27.441  16.976   4.595  0.1177 -0.3741 -0.1524
    1DPPC   C3B 1511  27.467  16.894   4.169  0.0762 -0.0128 -0.2035
    1DPPC   C4B 1512  27.278  16.892   3.784  0.3466 -0.2541  0.4180
    1DPPC   NC3 1513  28.971  19.429   6.494  0.1070 -0.0564 -0.0198
    1DPPC   PO4 1514  28.626  19.664   6.438 -0.1270 -0.0837 -0.4334
    1DPPC   GL1 1515  28.742  19.681   5.995 -0.1441 -0.3561 -0.1527
    1DPPC   GL2 1516  28.529  19.696   5.756  0.1152  0.1474 -0.0785
    1DPPC   C1A 1517  28.901  19.454   5.505 -0.2400  0.1782 -0.0616
    1DPPC   C2A 1518  28.944  19.476   5.038 -0.1738  0.3944  0.0293
    1DPPC   C3A 1519  28.811  19.666   4.703  0.0246  0.1458 -0.0095
    1DPPC   C4A 1520  28.333  19.619   4.622  0.0982  0.1706 -0.0584
    1DPPC   C1B 1521  28.679  19.834   5.412  0.0672  0.2811 -0.1641
    1DPPC   C2B 1522  28.596  20.030   5.035 -0.0541 -0.2703 -0.2181
    1DPPC   C3B 1523  28.803  20.150   4.699 -0.0524  0.0877  0.5013
    1DPPC   C4B 1524  28.885  20.406   4.394  0.3225  0.2582  0.0769
    1DPPC   NC3 1525  28.691  13.928   6.952  0.2616 -0.1998 -0.0762
    1DPPC   PO4 1526  28.762  14.037   6.575 -0.1457 -0.0861  0.1178
    1DPPC   GL1 1527  28.925  13.990   6.052 -0.0713 -0.0312 -0.1791
    1DPPC   GL2 1528  28.772  13.777   5.776  0.1564 -0.1177 -0.2342
    1DPPC   C1A 1529  29.060  14.247   5.773 -0.1775  0.1995  0.1785
    1DPPC   C2A 1530  29.194  14.218   5.425 -0.1334  0.0789 -0.1944
    1DPPC   C3A 1531  29.174  14.158   5.038 -0.0080 -0.0561  0.0988
    1DPPC   C4A 1532  29.092  14.333   4.681  0.2350  0.1349  0.2581
    1DPPC   C1B 1533  28.812  13.798   5.297  0.0488  0.1352 -0.3339
    1DPPC   C2B 1534  28.911  13.716   4.956 -0.3906  0.1134  0.0943
    1DPPC   C3B 1535  28.860  13.263   4.790 -0.1781 -0.0750  0.3757
    1DPPC   C4B 1536  28.505  13.084   4.659 -0.0045 -0.0122 -0.0334
    1DPPC   NC3 1537   4.741  11.325   7.137  0.2428 -0.1212  0.0154
    1DPPC   PO4 1538   5.115  11.466   7.131  0.2942  0.0959  0.1376
    1DPPC   GL1 1539   5.102  11.605   6.722 -0.0715  0.0591  0.0942
    1DPPC   GL2 1540   4.805  11.371   6.644 -0.1309  0.1158 -0.1860
    1DPPC   C1A 1541   5.311  11.412   6.280 -0.0579  0.2798  0.2456
    1DPPC   C2A 1542   5.505  11.112   6.033 -0.0172 -0.0853 -0.0197
    1DPPC   C3A 1543   5.919  11.074   5.801  0.0254  0.0470 -0.2146
    1DPPC   C4A 1544   6.299  10.927   5.718 -0.0225  0.0042 -0.0883
    1DPPC   C1B 1545   4.541  11.297   6.328 -0.0820  0.0115  0.1448
    1DPPC   C2B 1546   4.537  11.387   5.828  0.1308  0.2695 -0.1014
    1DPPC   C3B 1547   4.705  11.204   5.410 -0.4243  0.1640  0.1459
    1DPPC   C4B 1548   4.741  11.172   4.958  0.1513  0.0178  0.3128
    1DPPC   NC3 1549  14.282  23.063   7.114  0.1659 -0.1319 -0.0832
    1DPPC   PO4 1550  14.127  23.055   6.630 -0.2736 -0.3015  0.0993
    1DPPC   GL1 1551  14.284  22.948   6.251 -0.1385 -0.3304 -0.1399
    1DPPC   GL2 1552  13.921  22.998   6.145 -0.0741  0.0026  0.1036
    1DPPC   C1A 1553  14.353  22.802   5.770  0.3771  0.0564 -0.2559
    1DPPC   C2A 1554  14.315  22.640   5.361  0.1305  0.0260 -0.0017
    1DPPC   C3A 1555  14.234  22.685   4.954 -0.2108  0.1716  0.1365
    1DPPC   C4A 1556  14.211  22.482   4.513 -0.2690 -0.0994 -0.1016
    1DPPC   C1B 1557  13.934  23.080   5.689  0.0002  0.1622  0.1376
    1DPPC   C2B 1558  13.835  22.722   5.309 -0.0960 -0.1077 -0.2630
    1DPPC   C3B 1559  13.754  22.855   4.952 -0.0588  0.0347  0.0339
    1DPPC   C4B 1560  13.795  22.977   4.477  0.2097  0.1804 -0.2149
    1DPPC   NC3 1561  29.445  20.091   7.043 -0.1460 -0.1270 -0.1840
    1DPPC   PO4 1562  29.455  20.132   6.636  0.0638  0.0129 -0.2460
    1DPPC   GL1 1563  29.571  20.197   6.132 -0.0637  0.2203 -0.2966
    1DPPC   GL2 1564  29.283  20.335   5.998  0.3139  0.1202 -0.0583
    1DPPC   C1A 1565  29.840  20.333   5.735 -0.0563  0.1711  0.1421
    1DPPC   C2A 1566  29.852  20.333   5.289  0.2264  0.0958 -0.1573
    1DPPC   C3A 1567  29.818  20.361   4.809 -0.1815  0.1130  0.2915
    1DPPC   C4A 1568  29.769  20.461   4.350 -0.2142  0.1972 -0.2620
    1DPPC   C1B 1569  29.355  20.430   5.591  0.1356 -0.2647 -0.4725
    1DPPC   C2B 1570  29.411  20.507   5.103 -0.0578  0.1619  0.2415
    1DPPC   C3B 1571  29.328  20.329   4.702  0.0046 -0.1008 -0.0664
    1DPPC   C4B 1572  29.230  20.078   4.377  0.0077 -0.2686 -0.1097
    1DPPC   NC3 1573   1.027  12.302   6.539 -0.1069  0.2322 -0.0869
    1DPPC   PO4 1574   0.990  11.797   6.520 -0.1162 -0.1756 -0.1919
    1DPPC   GL1 1575   1.103  11.907   6.111 -0.0390 -0.2888  0.1581
    1DPPC   GL2 1576   1.056  12.236   6.073 -0.0912 -0.0630  0.3727
    1DPPC   C1A 1577   1.219  11.806   5.666  0.3809 -0.0651  0.2435
    1DPPC   C2A 1578   1.197  11.835   5.232 -0.0376 -0.2284  0.2735
    1DPPC   C3A 1579   1.249  11.839   4.740 -0.0080  0.0714  0.0163
    1DPPC   C4A 1580   1.022  11.840   4.285  0.0169 -0.0809  0.0404
    1DPPC   C1B 1581   1.083  12.301   5.648 -0.0425 -0.1784  0.0594
    1DPPC   C2B 1582   0.891  12.290   5.227 -0.1610  0.0644  0.2063
    1DPPC   C3B 1583   0.821  12.403   4.819  0.0408 -0.3697 -0.0184
    1DPPC   C4B 1584   0.759  12.543   4.405  0.2176 -0.1137 -0.1890
    1DPPC   NC3 1585  24.297  14.681   5.453 -0.3195  0.1537 -0.3375
    1DPPC   PO4 1586  24.500  14.956   5.129  0.3096 -0.0034  0.0290
    1DPPC   GL1 1587  24.784  14.895   4.847  0.0867 -0.2872 -0.2467
    1DPPC   GL2 1588  24.875  15.181   4.702 -0.0141 -0.0845  0.0951
    1DPPC   C1A 1589  24.902  14.776   4.382  0.0516  0.2082  0.0959
    1DPPC   C2A 1590  24.938  14.752   3.923 -0.0117  0.3447 -0.0952
    1DPPC   C3A 1591  24.631  14.820   3.523 -0.2569  0.0402 -0.2542
    1DPPC   C4A 1592  24.534  14.740   3.130  0.0733  0.0654 -0.4085
    1DPPC   C1B 1593  24.892  15.299   4.276  0.0612 -0.0103 -0.1437
    1DPPC   C2B 1594  24.906  15.256   3.847  0.0221  0.2092  0.0737
    1DPPC   C3B 1595  24.852  15.251   3.411  0.0065 -0.0192 -0.1888
    1DPPC   C4B 1596  24.924  15.543   3.087  0.1754  0.0161 -0.2254
    1DPPC   NC3 1597  25.563   4.419   6.887 -0.0866 -0.1448 -0.0773
    1DPPC   PO4 1598  25.315   4.261   6.651 -0.0981 -0.3439  0.1444
    1DPPC   GL1 1599  25.301   3.970   6.384 -0.2156  0.1962 -0.2122
    1DPPC   GL2 1600  25.168   3.628   6.352  0.2262 -0.0518  0.0178
    1DPPC   C1A 1601  25.283   3.895   5.924  0.0466  0.0784  0.0042
    1DPPC   C2A 1602  25.469   3.692   5.591  0.0524 -0.2589  0.0746
    1DPPC   C3A 1603  25.682   3.359   5.406  0.0461 -0.1761  0.2698
    1DPPC   C4A 1604  25.636   3.183   5.137  0.3315 -0.0230  0.0392
    1DPPC   C1B 1605  25.069   3.492   6.007  0.0047 -0.2685  0.3156
    1DPPC   C2B 1606  24.692   3.590   5.809  0.3434 -0.3064 -0.2499
    1DPPC   C3B 1607  24.288   3.704   5.785  0.0480  0.0424 -0.0429
    1DPPC   C4B 1608  23.973   3.893   5.768  0.0704 -0.1731 -0.2699
    1DPPC   NC3 1609   0.470  15.609   6.752 -0.0626  0.5852  0.1738
    1DPPC   PO4 1610   0.156  15.277   6.652 -0.0838  0.2230 -0.1172
    1DPPC   GL1 1611   0.234  15.493   6.246 -0.2797 -0.0313  0.3631
    1DPPC   GL2 1612   0.528  15.566   6.211 -0.0081 -0.0148  0.0582
    1DPPC   C1A 1613   0.074  15.329   5.853 -0.1445  0.0955  0.1105
    1DPPC   C2A 1614   0.144  15.298   5.464  0.2300  0.0351  0.2023
    1DPPC   C3A 1615   0.308  15.243   5.072  0.0649  0.4202  0.2883
    1DPPC   C4A 1616   0.356  15.090   4.597 -0.0403 -0.2724  0.0785
    1DPPC   C1B 1617   0.419  15.691   5.803  0.3053  0.0553 -0.1341
    1DPPC   C2B 1618   0.378  15.709   5.345 -0.3409 -0.1475  0.0285
    1DPPC   C3B 1619   0.374  15.698   4.949  0.2879  0.0732  0.0502
    1DPPC   C4B 1620   0.453  15.590   4.531  0.0451 -0.1909  0.0988
    1DPPC   NC3 1621   1.035  15.003   6.951 -0.1466 -0.0825  0.4137
    1DPPC   PO4 1622   1.168  15.266   6.624  0.2386  0.1657  0.0793
    1DPPC   GL1 1623   1.167  14.926   6.279 -0.0285 -0.0568 -0.2060
    1DPPC   GL2 1624   1.159  14.570   6.315  0.0610  0.1641  0.2359
    1DPPC   C1A 1625   1.403  14.811   5.949  0.1620 -0.0143 -0.0993
    1DPPC   C2A 1626   1.607  14.693   5.459  0.0197  0.0268  0.0838
    1DPPC   C3A 1627   1.672  14.591   5.017 -0.1931  0.2711 -0.3108
    1DPPC   C4A 1628   1.564  14.517   4.525  0.0315 -0.2952 -0.0440
    1DPPC   C1B 1629   0.941  14.693   5.913 -0.1552 -0.0169  0.0257
    1DPPC   C2B 1630   0.996  14.557   5.579 -0.0311  0.0772 -0.4246
    1DPPC   C3B 1631   1.174  14.506   5.235  0.2994 -0.1820 -0.0906
    1DPPC   C4B 1632   1.111  14.348   4.916  0.0079 -0.0303  0.0317
    1DPPC   NC3 1633  24.917  15.186   5.248 -0.2760 -0.2788  0.0836
    1DPPC   PO4 1634  24.713  15.578   5.084  0.3200  0.0865  0.1100
    1DPPC   GL1 1635  24.650  15.645   4.627 -0.0670  0.0708 -0.0765
    1DPPC   GL2 1636  24.838  15.800   4.474 -0.0560  0.0480 -0.3222
    1DPPC   C1A 1637  24.440  15.611   4.281 -0.3093  0.1355  0.0549
    1DPPC   C2A 1638  24.377  15.625   3.938  0.0423 -0.0356 -0.0036
    1DPPC   C3A 1639  23.999  15.487   3.828  0.1348  0.1218 -0.1027
    1DPPC   C4A 1640  23.862  15.046   3.868 -0.1137 -0.0411 -0.0202
    1DPPC   C1B 1641  24.862  15.726   4.028 -0.0234 -0.0078 -0.1905
    1DPPC   C2B 1642  24.822  15.659   3.609  0.0049  0.0119  0.2122
    1DPPC   C3B 1643  24.464  15.655   3.381 -0.1458  0.0494  0.0775
    1DPPC   C4B 1644  24.053  15.562   3.284  0.0640 -0.0293  0.1847
    1DPPC   NC3 1645  28.827  23.150   6.383 -0.1645 -0.0036  0.0628
    1DPPC   PO4 1646  28.902  22.693   6.329  0.0180  0.0960 -0.1074
    1DPPC   GL1 1647  28.854  22.571   5.991  0.2578 -0.1510 -0.3914
    1DPPC   GL2 1648  28.650  22.699   5.765  0.0105  0.0421 -0.4077
    1DPPC   C1A 1649  29.070  22.499   5.586  0.1340 -0.0367  0.2064
    1DPPC   C2A 1650  29.154  22.513   5.215 -0.0661 -0.0856  0.1510
    1DPPC   C3A 1651  29.336  22.610   4.862 -0.2631  0.4242 -0.0786
    1DPPC   C4A 1652  29.361  22.491   4.456  0.0370 -0.0441 -0.0496
    1DPPC   C1B 1653  28.685  22.692   5.353  0.2154  0.0296 -0.2576
    1DPPC   C2B 1654  28.760  22.685   4.952 -0.0326  0.1493 -0.1589
    1DPPC   C3B 1655  28.897  22.585   4.633  0.1000 -0.2280 -0.0115
    1DPPC   C4B 1656  28.944  22.552   4.240 -0.2074  0.0829  0.3702
    1DPPC   NC3 1657  29.681  18.072   6.313  0.2216  0.0482 -0.1445
    1DPPC   PO4 1658  29.772  18.473   6.251  0.0889  0.3243  0.1479
    1DPPC   GL1 1659  29.840  18.666   5.870  0.2052 -0.5142  0.0709
    1DPPC   GL2 1660  30.052  18.923   5.899  0.0482 -0.0465 -0.3311
    1DPPC   C1A 1661  29.888  18.652   5.459 -0.0844  0.1042  0.0556
    1DPPC   C2A 1662  29.921  18.538   4.972 -0.0711 -0.0173 -0.1526
    1DPPC   C3A 1663  29.802  18.304   4.515 -0.2214 -0.0908 -0.3029
    1DPPC   C4A 1664  29.893  18.098   4.135  0.3062 -0.0291 -0.1589
    1DPPC   C1B 1665  30.265  18.936   5.449  0.1351  0.2429  0.1819
    1DPPC   C2B 1666  30.354  18.818   5.088 -0.0819 -0.0917  0.0072
    1DPPC   C3B 1667  30.528  18.976   4.813 -0.0238  0.1061  0.1324
    1DPPC   C4B 1668  30.430  19.184   4.472 -0.0538 -0.0338 -0.1053
    1DPPC   NC3 1669   7.524  19.749   6.925  0.1567  0.1739 -0.0881
    1DPPC   PO4 1670   7.543  20.278   6.826  0.3082  0.4292  0.0321
    1DPPC   GL1 1671   7.441  20.262   6.426 -0.1247 -0.0133  0.0995
    1DPPC   GL2 1672   7.634  20.052   6.269 -0.2640  0.0020 -0.1003
    1DPPC   C1A 1673   7.122  20.207   6.170 -0.0724 -0.1065 -0.4136
    1DPPC   C2A 1674   7.077  20.072   5.735  0.4152  0.1928  0.0921
    1DPPC   C3A 1675   7.069  20.092   5.331 -0.1154 -0.2237 -0.0099
    1DPPC   C4A 1676   6.798  20.283   5.021 -0.0998  0.1328 -0.1227
    1DPPC   C1B 1677   7.733  19.904   5.797  0.0708 -0.0241 -0.0156
    1DPPC   C2B 1678   8.033  19.969   5.452 -0.0637 -0.2493  0.4007
    1DPPC   C3B 1679   8.016  19.869   5.055 -0.2847 -0.0612 -0.2719
    1DPPC   C4B 1680   7.685  20.058   4.733 -0.5403 -0.1017  0.0713
    1DPPC   NC3 1681   7.835  13.673   7.124  0.3277 -0.1498  0.2711
    1DPPC   PO4 1682   8.327  13.587   7.000  0.1065  0.0110  0.0911
    1DPPC   GL1 1683   8.353  13.470   6.632 -0.0160  0.1541 -0.2008
    1DPPC   GL2 1684   8.419  13.153   6.515  0.0831 -0.2435 -0.0334
    1DPPC   C1A 1685   8.313  13.646   6.265  0.2237 -0.2367  0.2867
    1DPPC   C2A 1686   8.298  13.611   5.831  0.0288  0.2059  0.3720
    1DPPC   C3A 1687   8.339  13.665   5.447  0.1652  0.3421 -0.0862
    1DPPC   C4A 1688   8.271  13.548   5.111 -0.0799  0.1163 -0.0578
    1DPPC   C1B 1689   8.069  13.160   6.279 -0.0689  0.3434 -0.2075
    1DPPC   C2B 1690   8.105  13.127   5.786 -0.2426 -0.0299  0.0678
    1DPPC   C3B 1691   8.293  13.022   5.444  0.3094  0.0640  0.0452
    1DPPC   C4B 1692   8.573  13.095   5.074 -0.1162 -0.1410 -0.1863
    1DPPC   NC3 1693   8.686   9.988   7.139  0.3331 -0.0885  0.1348
    1DPPC   PO4 1694   8.663   9.863   6.711  0.1472  0.0145 -0.0164
    1DPPC   GL1 1695   8.492   9.914   6.274  0.0540  0.0885  0.1120
    1DPPC   GL2 1696   8.207   9.707   6.416  0.2717  0.0938  0.0776
    1DPPC   C1A 1697   8.520   9.977   5.733 -0.0052 -0.0612  0.0469
    1DPPC   C2A 1698   8.213  10.119   5.570 -0.0446  0.0612  0.2077
    1DPPC   C3A 1699   8.213  10.610   5.589 -0.0618  0.0836 -0.0354
    1DPPC   C4A 1700   8.178  11.122   5.755  0.2165 -0.1534  0.1864
    1DPPC   C1B 1701   8.044   9.796   5.993  0.0462  0.0402 -0.0361
    1DPPC   C2B 1702   8.123   9.589   5.514 -0.2521 -0.1668 -0.2713
    1DPPC   C3B 1703   8.293   9.384   5.176 -0.1003 -0.0120 -0.0200
    1DPPC   C4B 1704   7.992   9.347   4.856 -0.1000 -0.1225  0.0988
    1DPPC   NC3 1705  12.002  15.744   6.629  0.0562 -0.1276 -0.0968
    1DPPC   PO4 1706  12.222  15.301   6.625  0.1397 -0.2274 -0.0153
    1DPPC   GL1 1707  12.490  15.123   6.336  0.1585  0.2635  0.0367
    1DPPC   GL2 1708  12.724  15.347   6.251  0.3057  0.0982  0.0626
    1DPPC   C1A 1709  12.307  15.185   5.875 -0.0781  0.0291 -0.1976
    1DPPC   C2A 1710  12.480  15.344   5.519 -0.0913  0.0130  0.1120
    1DPPC   C3A 1711  12.729  15.196   5.136 -0.1386  0.1943 -0.0664
    1DPPC   C4A 1712  12.991  14.857   5.026 -0.0665  0.0317 -0.1357
    1DPPC   C1B 1713  12.984  15.467   5.896 -0.3555  0.1428  0.0622
    1DPPC   C2B 1714  12.936  15.510   5.504  0.0718  0.0094  0.0515
    1DPPC   C3B 1715  13.048  15.822   5.122  0.0193 -0.1370 -0.0573
    1DPPC   C4B 1716  13.270  15.907   4.707  0.1703 -0.1776  0.1395
    1DPPC   NC3 1717   8.384  15.689   7.323 -0.0863 -0.0522  0.0700
    1DPPC   PO4 1718   8.303  15.719   6.894 -0.0549 -0.1763  0.3214
    1DPPC   GL1 1719   8.437  15.603   6.573  0.0545  0.1618  0.1341
    1DPPC   GL2 1720   8.675  15.381   6.548  0.1110 -0.1130  0.0385
    1DPPC   C1A 1721   8.545  15.677   6.136 -0.0643 -0.1156  0.1699
    1DPPC   C2A 1722   8.515  15.621   5.689 -0.1276  0.1303  0.1039
    1DPPC   C3A 1723   8.383  15.606   5.250  0.1150 -0.2725 -0.0083
    1DPPC   C4A 1724   8.307  15.387   4.855 -0.0190  0.0435  0.1834
    1DPPC   C1B 1725   8.923  15.313   6.155 -0.0294 -0.0593 -0.0424
    1DPPC   C2B 1726   8.935  15.288   5.674  0.0415  0.0108  0.3797
    1DPPC   C3B 1727   8.783  15.206   5.342  0.3907  0.2022  0.1602
    1DPPC   C4B 1728   8.762  15.130   4.863  0.1109 -0.3855 -0.1171
    1DPPC   NC3 1729   2.715   8.569   6.891  0.4299 -0.0380 -0.1458
    1DPPC   PO4 1730   2.357   8.519   6.564 -0.1052  0.0831  0.1888
    1DPPC   GL1 1731   2.378   8.780   6.122 -0.3202  0.0981 -0.0944
    1DPPC   GL2 1732   2.318   9.038   6.159  0.1308  0.0543  0.0784
    1DPPC   C1A 1733   2.378   8.620   5.791 -0.2047 -0.1131  0.0469
    1DPPC   C2A 1734   2.412   8.407   5.402 -0.0511 -0.0109  0.1318
    1DPPC   C3A 1735   2.475   8.173   5.127 -0.1956  0.2657  0.0937
    1DPPC   C4A 1736   2.767   8.027   4.827 -0.0753 -0.0569  0.0892
    1DPPC   C1B 1737   2.290   9.186   5.727 -0.1340  0.1305  0.0016
    1DPPC   C2B 1738   2.296   9.219   5.206  0.0737 -0.2194 -0.1199
    1DPPC   C3B 1739   1.993   9.141   4.966 -0.1818  0.0707 -0.2171
    1DPPC   C4B 1740   1.946   8.931   4.525 -0.1514  0.0915  0.0879
    1DPPC   NC3 1741  12.068  18.823   6.611 -0.1733 -0.2320 -0.1496
    1DPPC   PO4 1742  12.131  19.285   6.532  0.1578  0.3104  0.2100
    1DPPC   GL1 1743  12.299  19.136   6.223 -0.1004 -0.1781  0.3457
    1DPPC   GL2 1744  12.069  19.221   5.943  0.1002  0.1833  0.0368
    1DPPC   C1A 1745  12.527  19.112   5.769  0.2263  0.0223 -0.3035
    1DPPC   C2A 1746  12.627  19.149   5.235  0.2120 -0.0810 -0.0200
    1DPPC   C3A 1747  12.553  19.240   4.797  0.0288  0.0279 -0.1787
    1DPPC   C4A 1748  12.473  19.053   4.344  0.0855 -0.1124 -0.1334
    1DPPC   C1B 1749  12.052  18.888   5.620 -0.2116  0.1641  0.1833
    1DPPC   C2B 1750  12.155  19.003   5.135  0.0851 -0.0103  0.1189
    1DPPC   C3B 1751  12.096  19.439   4.963  0.1414  0.1443 -0.0171
    1DPPC   C4B 1752  12.096  19.909   4.847 -0.0430  0.0921  0.3411
    1DPPC   NC3 1753   0.973  13.984   7.288  0.1212  0.1087 -0.1557
    1DPPC   PO4 1754   0.690  14.166   6.917  0.2597  0.0237  0.0798
    1DPPC   GL1 1755   0.788  14.126   6.522 -0.1435  0.1910  0.1804
    1DPPC   GL2 1756   0.511  14.352   6.379 -0.0716  0.2630 -0.0801
    1DPPC   C1A 1757   0.647  13.883   6.236 -0.1529  0.3854  0.0981
    1DPPC   C2A 1758   0.491  13.900   5.841 -0.0055 -0.0868  0.2717
    1DPPC   C3A 1759   0.457  13.838   5.423  0.1440  0.1533  0.2320
    1DPPC   C4A 1760   0.584  13.671   5.011  0.0867  0.1610  0.1627
    1DPPC   C1B 1761   0.805  14.230   5.964 -0.0333  0.1732 -0.1155
    1DPPC   C2B 1762   0.908  14.063   5.635  0.0842 -0.1505  0.0986
    1DPPC   C3B 1763   1.024  14.005   5.257  0.3770  0.1295  0.1049
    1DPPC   C4B 1764   0.910  13.920   4.724 -0.3275 -0.0061 -0.1603
    1DPPC   NC3 1765   0.669   9.722   7.001 -0.2207 -0.0154 -0.2086
    1DPPC   PO4 1766   0.275   9.915   6.715  0.1976 -0.1342 -0.1916
    1DPPC   GL1 1767   0.423  10.040   6.288 -0.1150 -0.1832 -0.0552
    1DPPC   GL2 1768   0.364   9.724   6.010 -0.0135  0.0231 -0.2810
    1DPPC   C1A 1769   0.590  10.165   5.900  0.1639 -0.0618 -0.1810
    1DPPC   C2A 1770   0.560  10.192   5.445 -0.1894 -0.0656 -0.0866
    1DPPC   C3A 1771   0.556  10.095   5.131 -0.0645 -0.0765  0.0988
    1DPPC   C4A 1772   0.822  10.230   4.777 -0.2673  0.1016  0.2553
    1DPPC   C1B 1773   0.411   9.717   5.617  0.0430  0.1786  0.0254
    1DPPC   C2B 1774   0.594   9.606   5.323  0.1912 -0.1082 -0.0648
    1DPPC   C3B 1775   0.602   9.476   4.950  0.0823 -0.2551  0.0050
    1DPPC   C4B 1776   0.598   9.316   4.556 -0.2408 -0.0779 -0.0846
    1DPPC   NC3 1777  25.940  15.537   5.661  0.0792 -0.1815  0.0537
    1DPPC   PO4 1778  25.724  15.729   5.413 -0.1418  0.0243  0.1332
    1DPPC   GL1 1779  25.753  15.725   5.102 -0.1675 -0.0333  0.2690
    1DPPC   GL2 1780  26.019  15.894   4.938 -0.0942 -0.1112  0.0852
    1DPPC   C1A 1781  25.631  15.760   4.703 -0.0344  0.2568  0.2538
    1DPPC   C2A 1782  25.708  15.769   4.278  0.1836 -0.4538 -0.2679
    1DPPC   C3A 1783  25.622  15.889   3.890 -0.0053 -0.2281 -0.1707
    1DPPC   C4A 1784  25.754  15.860   3.505 -0.4040  0.0340 -0.0772
    1DPPC   C1B 1785  26.124  15.948   4.493  0.1854  0.0164  0.1601
    1DPPC   C2B 1786  26.137  15.837   4.042 -0.2766 -0.0536 -0.1003
    1DPPC   C3B 1787  26.250  15.516   3.760  0.0741 -0.0014  0.1720
    1DPPC   C4B 1788  26.324  15.278   3.369 -0.2642  0.0525  0.0870
    1DPPC   NC3 1789   7.699  18.295   7.138  0.0263 -0.0463 -0.2405
    1DPPC   PO4 1790   7.810  17.942   6.867 -0.2486 -0.0031  0.1771
    1DPPC   GL1 1791   7.934  17.953   6.414  0.1004  0.0776  0.2049
    1DPPC   GL2 1792   8.111  17.775   6.462  0.1848 -0.0242 -0.1395
    1DPPC   C1A 1793   7.885  17.918   5.935  0.2432  0.2552 -0.0873
    1DPPC   C2A 1794   7.981  18.056   5.624 -0.0269  0.1231  0.1375
    1DPPC   C3A 1795   8.040  18.013   5.092 -0.0199 -0.0279  0.0353
    1DPPC   C4A 1796   8.018  18.308   4.735  0.0287  0.3358  0.0105
    1DPPC   C1B 1797   7.934  17.468   6.136 -0.1613  0.0013  0.0367
    1DPPC   C2B 1798   7.836  17.358   5.730 -0.0140  0.1332  0.1523
    1DPPC   C3B 1799   7.626  17.224   5.331  0.1910  0.0448  0.0133
    1DPPC   C4B 1800   7.233  17.133   5.075  0.4067 -0.0406  0.0348
    1DPPC   NC3 1801   6.301  22.218   6.760  0.4021  0.1592 -0.2043
    1DPPC   PO4 1802   5.870  22.059   6.721 -0.0264  0.0147 -0.0271
    1DPPC   GL1 1803   5.956  22.258   6.341 -0.1735 -0.1761  0.0090
    1DPPC   GL2 1804   6.151  22.536   6.236 -0.1910  0.2003 -0.0279
    1DPPC   C1A 1805   5.735  22.348   5.951  0.1060  0.2939  0.3779
    1DPPC   C2A 1806   5.841  22.595   5.590  0.0828  0.0121  0.1077
    1DPPC   C3A 1807   5.978  22.727   5.304 -0.1272 -0.0917  0.1761
    1DPPC   C4A 1808   6.115  23.007   4.974  0.3132  0.1215  0.1448
    1DPPC   C1B 1809   6.536  22.576   6.025  0.0359 -0.0422  0.0788
    1DPPC   C2B 1810   6.802  22.687   5.711  0.1633  0.1525  0.0084
    1DPPC   C3B 1811   6.901  22.625   5.290  0.0477 -0.4128 -0.1310
    1DPPC   C4B 1812   6.889  22.715   4.867  0.1669 -0.1744 -0.3864
    1DPPC   NC3 1813   2.593  16.380   6.484  0.1145  0.1096 -0.0554
    1DPPC   PO4 1814   2.616  15.996   6.548  0.0745  0.0587  0.0308
    1DPPC   GL1 1815   2.735  16.063   6.104  0.1227 -0.0130  0.4718
    1DPPC   GL2 1816   2.569  16.353   6.010  0.3385 -0.1246 -0.0324
    1DPPC   C1A 1817   3.039  16.247   5.802 -0.2481  0.2498 -0.0017
    1DPPC   C2A 1818   3.182  16.271   5.386 -0.1641 -0.3224  0.0133
    1DPPC   C3A 1819   3.357  16.333   4.937  0.3761 -0.1181  0.2251
    1DPPC   C4A 1820   3.438  16.663   4.513 -0.1189 -0.3628  0.1207
    1DPPC   C1B 1821   2.608  16.312   5.583  0.0495 -0.0744  0.2937
    1DPPC   C2B 1822   2.745  16.164   5.184 -0.3344 -0.0937 -0.0375
    1DPPC   C3B 1823   2.878  16.292   4.807 -0.1884  0.1601 -0.0790
    1DPPC   C4B 1824   2.943  16.565   4.419  0.1044  0.0104 -0.0334
    1DPPC   NC3 1825  13.091  17.983   6.823  0.0721  0.1236 -0.3407
    1DPPC   PO4 1826  12.675  18.025   6.702 -0.1680  0.1821  0.3313
    1DPPC   GL1 1827  12.711  18.263   6.318  0.0600 -0.0250 -0.3914
    1DPPC   GL2 1828  12.536  18.124   6.042 -0.0531  0.2883 -0.0667
    1DPPC   C1A 1829  12.893  18.541   5.980  0.1316  0.1973  0.0338
    1DPPC   C2A 1830  12.957  18.745   5.629  0.2975  0.1016  0.2999
    1DPPC   C3A 1831  13.002  18.725   5.234  0.2832 -0.0079  0.0652
    1DPPC   C4A 1832  13.380  18.777   5.108  0.2483 -0.0496 -0.0351
    1DPPC   C1B 1833  12.539  18.052   5.602  0.0439  0.0432 -0.1678
    1DPPC   C2B 1834  12.833  17.794   5.343 -0.0477 -0.1071  0.0905
    1DPPC   C3B 1835  13.162  17.910   5.042 -0.1231  0.0544  0.2919
    1DPPC   C4B 1836  13.617  17.842   4.820 -0.2290 -0.0796  0.1887
    1DPPC   NC3 1837  28.136  16.480   6.653  0.1588  0.0500 -0.1608
    1DPPC   PO4 1838  28.333  16.477   6.179  0.1684  0.0257  0.0914
    1DPPC   GL1 1839  28.313  16.478   5.789  0.0331  0.1781 -0.0914
    1DPPC   GL2 1840  28.610  16.538   5.757 -0.1299  0.2137 -0.0735
    1DPPC   C1A 1841  28.359  16.245   5.453 -0.4177  0.1114 -0.0500
    1DPPC   C2A 1842  28.496  16.207   5.016 -0.1484  0.0637  0.2107
    1DPPC   C3A 1843  28.606  16.170   4.609 -0.2427  0.1570  0.2420
    1DPPC   C4A 1844  28.547  16.181   4.171 -0.1218 -0.0231 -0.0874
    1DPPC   C1B 1845  28.727  16.681   5.382 -0.0997  0.0343 -0.0347
    1DPPC   C2B 1846  28.890  16.607   4.894  0.0905 -0.2124  0.1971
    1DPPC   C3B 1847  28.981  16.436   4.442  0.1739  0.2727 -0.0472
    1DPPC   C4B 1848  29.122  16.265   4.085  0.2557 -0.0193  0.0589
    1DPPC   NC3 1849   8.026  18.369   6.695  0.0860 -0.2911 -0.1404
    1DPPC   PO4 1850   8.102  18.681   6.882 -0.0915  0.1460 -0.0073
    1DPPC   GL1 1851   8.083  18.781   6.450 -0.0170 -0.0198 -0.5375
    1DPPC   GL2 1852   7.870  19.038   6.413 -0.0070 -0.1933  0.0387
    1DPPC   C1A 1853   8.211  18.831   6.033  0.0203  0.1115  0.0513
    1DPPC   C2A 1854   8.061  18.662   5.596 -0.3497  0.0426 -0.1278
    1DPPC   C3A 1855   7.912  18.508   5.185 -0.3700  0.2461  0.0031
    1DPPC   C4A 1856   7.947  18.797   4.814 -0.0690 -0.2625  0.0830
    1DPPC   C1B 1857   7.726  18.919   5.956 -0.0143 -0.0170  0.0505
    1DPPC   C2B 1858   7.585  19.090   5.648 -0.1629  0.0057  0.4056
    1DPPC   C3B 1859   7.292  19.217   5.310 -0.0795  0.0899 -0.1906
    1DPPC   C4B 1860   7.143  19.225   4.904  0.1614  0.2644 -0.1604
    1DPPC   NC3 1861   5.184  13.897   6.982 -0.1060  0.0362 -0.2093
    1DPPC   PO4 1862   5.028  13.518   6.766 -0.0191  0.2876  0.0243
    1DPPC   GL1 1863   5.218  13.203   6.412  0.1346 -0.1731 -0.1657
    1DPPC   GL2 1864   5.614  13.305   6.347  0.3052 -0.0199  0.4738
    1DPPC   C1A 1865   5.304  13.017   6.091 -0.2100 -0.0875  0.0358
    1DPPC   C2A 1866   5.348  13.063   5.604 -0.3357  0.2970 -0.1029
    1DPPC   C3A 1867   5.512  13.139   5.254  0.0416  0.1539  0.0827
    1DPPC   C4A 1868   5.726  13.015   4.996 -0.0982 -0.3377 -0.1124
    1DPPC   C1B 1869   5.697  13.392   5.972 -0.0559 -0.1186  0.4060
    1DPPC   C2B 1870   5.755  13.376   5.603  0.0971 -0.0324  0.0181
    1DPPC   C3B 1871   5.756  13.606   5.280 -0.3194 -0.2117  0.0274
    1DPPC   C4B 1872   5.975  13.775   5.049 -0.0467 -0.0353 -0.0261
    1DPPC   NC3 1873  23.151   9.593   6.555 -0.0182 -0.1429 -0.0388
    1DPPC   PO4 1874  22.801   9.370   6.787 -0.0630 -0.1865 -0.0271
    1DPPC   GL1 1875  22.638   9.297   6.444 -0.0634  0.0995  0.0989
    1DPPC   GL2 1876  22.687   9.689   6.356  0.2947  0.1867  0.3340
    1DPPC   C1A 1877  22.604   8.991   6.052  0.1779 -0.0438  0.1749
    1DPPC   C2A 1878  22.635   8.918   5.633  0.0064  0.1281 -0.0228
    1DPPC   C3A 1879  22.608   8.938   5.206 -0.0324 -0.3534  0.1572
    1DPPC   C4A 1880  22.284   8.867   4.875  0.1203 -0.0501 -0.4940
    1DPPC   C1B 1881  22.654   9.777   5.887 -0.0617  0.2686  0.1334
    1DPPC   C2B 1882  22.859   9.750   5.393 -0.0649 -0.0656 -0.0831
    1DPPC   C3B 1883  22.921   9.852   4.935 -0.1880 -0.0882  0.3533
    1DPPC   C4B 1884  22.933  10.194   4.576 -0.1250 -0.1916 -0.3163
    1DPPC   NC3 1885   3.109  21.407   6.952 -0.2066 -0.1404 -0.0889
    1DPPC   PO4 1886   3.118  21.772   7.233  0.2211  0.1636 -0.0416
    1DPPC   GL1 1887   3.348  21.906   6.806  0.0596 -0.4195 -0.1614
    1DPPC   GL2 1888   3.769  21.979   6.725  0.0321 -0.0632 -0.2125
    1DPPC   C1A 1889   3.339  22.117   6.383 -0.0128  0.0763 -0.0098
    1DPPC   C2A 1890   3.580  22.071   6.042  0.2576 -0.0828 -0.0649
    1DPPC   C3A 1891   3.905  21.916   5.840  0.1977  0.1345 -0.1633
    1DPPC   C4A 1892   4.259  21.832   5.475  0.2538 -0.0895 -0.3420
    1DPPC   C1B 1893   3.931  21.786   6.350  0.0246  0.1202 -0.2364
    1DPPC   C2B 1894   4.289  21.850   6.158  0.1809 -0.0395 -0.1234
    1DPPC   C3B 1895   4.326  22.157   5.816  0.0292 -0.2122 -0.0729
    1DPPC   C4B 1896   4.420  22.294   5.374  0.0910  0.2644  0.1650
    1DPPC   NC3 1897  10.210  18.435   6.775 -0.1370  0.1485  0.0893
    1DPPC   PO4 1898   9.961  18.093   6.668 -0.1329 -0.2050 -0.2155
    1DPPC   GL1 1899   9.616  17.887   6.375 -0.2427  0.2542 -0.1134
    1DPPC   GL2 1900   9.541  17.551   6.480 -0.1196 -0.2236  0.1190
    1DPPC   C1A 1901   9.377  18.043   6.003  0.1018  0.0883 -0.2893
    1DPPC   C2A 1902   9.365  17.883   5.550  0.0033 -0.1495 -0.0362
    1DPPC   C3A 1903   9.630  17.977   5.247 -0.1285  0.4413  0.0104
    1DPPC   C4A 1904   9.744  18.391   5.107 -0.1041  0.1463 -0.0251
    1DPPC   C1B 1905   9.624  17.477   6.001 -0.1674  0.1371  0.2479
    1DPPC   C2B 1906   9.651  17.523   5.630  0.0238 -0.0362  0.0870
    1DPPC   C3B 1907   9.571  17.452   5.230 -0.0107  0.0831 -0.0617
    1DPPC   C4B 1908   9.808  17.608   4.975  0.0333  0.1856 -0.0187
    1DPPC   NC3 1909   6.754  19.758   6.625  0.2519 -0.2045  0.1268
    1DPPC   PO4 1910   6.463  20.043   6.758  0.0847  0.2391  0.0744
    1DPPC   GL1 1911   6.661  20.297   6.344  0.0211  0.1002 -0.2082
    1DPPC   GL2 1912   6.644  20.682   6.400  0.1057  0.0483  0.1675
    1DPPC   C1A 1913   6.564  20.415   5.938 -0.1386  0.1143 -0.3508
    1DPPC   C2A 1914   6.640  20.463   5.535 -0.0952  0.0418 -0.2111
    1DPPC   C3A 1915   6.601  20.774   5.278 -0.2721 -0.0311  0.0404
    1DPPC   C4A 1916   6.885  20.800   4.881  0.1593 -0.1072  0.0484
    1DPPC   C1B 1917   6.304  20.827   6.070  0.2393 -0.0867  0.4897
    1DPPC   C2B 1918   6.328  20.964   5.731  0.2330  0.1038  0.1811
    1DPPC   C3B 1919   6.345  21.359   5.617  0.0757 -0.2446 -0.2455
    1DPPC   C4B 1920   6.270  21.749   5.584 -0.1972  0.3054  0.1821
    1DPPC   NC3 1921   7.805  12.723   7.133 -0.2253  0.0348 -0.0280
    1DPPC   PO4 1922   8.188  12.500   7.071  0.2163 -0.2463  0.1410
    1DPPC   GL1 1923   8.393  12.347   6.626 -0.3503  0.1411 -0.1075
    1DPPC   GL2 1924   8.235  12.171   6.480 -0.0318  0.0144  0.1686
    1DPPC   C1A 1925   8.643  12.623   6.459  0.1760 -0.0032  0.2894
    1DPPC   C2A 1926   8.537  12.835   6.045  0.2221 -0.0652  0.1337
    1DPPC   C3A 1927   8.730  12.810   5.592  0.1227 -0.2659 -0.1211
    1DPPC   C4A 1928   8.661  12.640   5.230  0.0321  0.0677 -0.5311
    1DPPC   C1B 1929   8.262  12.029   6.118 -0.2714 -0.1079 -0.1290
    1DPPC   C2B 1930   8.433  11.780   5.711 -0.3117 -0.2413 -0.0242
    1DPPC   C3B 1931   8.179  11.544   5.394  0.1831  0.0708  0.4515
    1DPPC   C4B 1932   7.802  11.722   5.195  0.0228 -0.0677 -0.0031
    1DPPC   NC3 1933  21.710   9.293   6.498  0.1668 -0.0306 -0.0310
    1DPPC   PO4 1934  21.735   8.893   6.343  0.1116 -0.2860  0.1103
    1DPPC   GL1 1935  21.702   8.916   5.984 -0.2770  0.1419 -0.1758
    1DPPC   GL2 1936  21.857   9.276   5.912  0.0132  0.2839 -0.2589
    1DPPC   C1A 1937  21.517   8.839   5.562 -0.0076 -0.2153  0.1237
    1DPPC   C2A 1938  21.512   8.699   5.115  0.0633  0.0972  0.1654
    1DPPC   C3A 1939  21.893   8.498   4.874  0.1540  0.0990 -0.0105
    1DPPC   C4A 1940  22.075   8.168   4.753 -0.1084  0.0195 -0.0599
    1DPPC   C1B 1941  22.268   9.247   5.854 -0.1538 -0.0825  0.2178
    1DPPC   C2B 1942  22.458   9.314   5.476  0.3214 -0.2192 -0.1207
    1DPPC   C3B 1943  22.549   9.432   5.034  0.2157 -0.1788 -0.1768
    1DPPC   C4B 1944  22.791   9.445   4.684 -0.2305  0.1486  0.0005
    1DPPC   NC3 1945   3.734  18.239   6.631  0.0177  0.1716  0.0988
    1DPPC   PO4 1946   3.983  17.909   6.464 -0.0036  0.1187  0.1382
    1DPPC   GL1 1947   3.966  18.043   6.071 -0.0674  0.3668 -0.1817
    1DPPC   GL2 1948   3.951  18.286   6.060 -0.2543 -0.2482 -0.3536
    1DPPC   C1A 1949   3.700  17.969   5.821 -0.1018  0.0983  0.0156
    1DPPC   C2A 1950   3.843  18.050   5.401 -0.0763 -0.1756 -0.2070
    1DPPC   C3A 1951   3.989  18.126   4.977  0.0610 -0.4359  0.4055
    1DPPC   C4A 1952   3.752  18.130   4.526  0.4240 -0.0940  0.0007
    1DPPC   C1B 1953   4.053  18.393   5.697 -0.2122  0.2912  0.1506
    1DPPC   C2B 1954   4.081  18.531   5.278  0.0422  0.0442 -0.0372
    1DPPC   C3B 1955   4.198  18.590   4.837  0.1409 -0.2446 -0.0421
    1DPPC   C4B 1956   4.034  18.564   4.380 -0.0619  0.0686  0.1721
    1DPPC   NC3 1957   3.591  11.318   7.246 -0.0446 -0.0770 -0.1453
    1DPPC   PO4 1958   3.400  11.201   6.886  0.2365 -0.2602  0.3499
    1DPPC   GL1 1959   3.395  11.272   6.522 -0.1311  0.4065  0.0913
    1DPPC   GL2 1960   3.612  11.519   6.345  0.1499 -0.2817 -0.0623
    1DPPC   C1A 1961   3.457  11.087   6.081  0.0391 -0.0198 -0.1064
    1DPPC   C2A 1962   3.585  11.110   5.677 -0.2747 -0.0046 -0.4808
    1DPPC   C3A 1963   3.643  11.165   5.274  0.0033 -0.1633 -0.2870
    1DPPC   C4A 1964   3.424  11.159   4.826 -0.4476  0.2361 -0.2897
    1DPPC   C1B 1965   3.711  11.556   5.926  0.1721  0.0879  0.2931
    1DPPC   C2B 1966   3.743  11.604   5.473  0.2428 -0.1246  0.0109
    1DPPC   C3B 1967   3.810  11.543   4.973  0.1021 -0.0017 -0.0373
    1DPPC   C4B 1968   4.151  11.787   4.718  0.0404  0.1098 -0.1011
    1DPPC   NC3 1969  24.571  10.821   5.612 -0.0755  0.0930 -0.1393
    1DPPC   PO4 1970  24.836  11.090   5.627 -0.3994 -0.0010 -0.1676
    1DPPC   GL1 1971  25.119  11.032   5.440  0.0560  0.0206 -0.0299
    1DPPC   GL2 1972  25.018  10.793   5.292  0.1738 -0.0867  0.4391
    1DPPC   C1A 1973  25.452  10.787   5.176 -0.2686 -0.0254  0.2468
    1DPPC   C2A 1974  25.824  10.834   4.982 -0.0765  0.1033  0.2000
    1DPPC   C3A 1975  25.967  11.039   4.664 -0.1068 -0.1372  0.1948
    1DPPC   C4A 1976  26.278  11.271   4.319 -0.3672  0.0904  0.1241
    1DPPC   C1B 1977  25.027  10.774   4.900 -0.0389  0.1077  0.2199
    1DPPC   C2B 1978  25.147  10.672   4.508 -0.0871 -0.2026 -0.3629
    1DPPC   C3B 1979  25.093  10.763   3.941  0.4513 -0.2639 -0.2093
    1DPPC   C4B 1980  24.779  11.078   4.011  0.1565  0.0244 -0.2285
    1DPPC   NC3 1981   3.474  16.507   6.544  0.0244  0.2540  0.0067
    1DPPC   PO4 1982   3.491  16.951   6.528 -0.3020  0.0104 -0.1482
    1DPPC   GL1 1983   3.551  17.027   6.173 -0.0096 -0.4445 -0.0261
    1DPPC   GL2 1984   3.960  17.040   6.198  0.0921 -0.2458  0.0331
    1DPPC   C1A 1985   3.709  17.092   5.791  0.1218  0.0872 -0.0297
    1DPPC   C2A 1986   3.746  17.130   5.332  0.2949 -0.0064  0.3446
    1DPPC   C3A 1987   3.956  17.245   4.929 -0.2440 -0.0303  0.0578
    1DPPC   C4A 1988   4.166  17.203   4.549  0.1973  0.2838  0.5036
    1DPPC   C1B 1989   4.274  17.131   5.933 -0.0650  0.1801  0.0343
    1DPPC   C2B 1990   4.279  16.974   5.511  0.0064  0.0492  0.1783
    1DPPC   C3B 1991   4.350  17.089   5.061  0.0354 -0.0365 -0.1309
    1DPPC   C4B 1992   4.492  16.851   4.823  0.0929 -0.1348  0.0317
    1DPPC   NC3 1993  25.445  23.251   5.966  0.1652 -0.1768 -0.1211
    1DPPC   PO4 1994  25.357  23.543   6.323 -0.0399 -0.1963  0.0449
    1DPPC   GL1 1995  25.506  23.802   6.037  0.0931  0.1354  0.3742
    1DPPC   GL2 1996  25.368  24.161   6.062 -0.1485 -0.0441 -0.0356
    1DPPC   C1A 1997  25.481  23.990   5.636  0.0839 -0.0608  0.0406
    1DPPC   C2A 1998  25.015  24.111   5.490 -0.3276 -0.1782 -0.2900
    1DPPC   C3A 1999  24.842  24.140   5.124 -0.1699  0.1895  0.0271
    1DPPC   C4A 2000  24.609  24.135   4.769  0.1814  0.1881 -0.0948
    1DPPC   C1B 2001  25.271  24.460   5.818  0.0915 -0.1721 -0.0889
    1DPPC   C2B 2002  25.450  24.705   5.466  0.2968  0.3842  0.0433
    1DPPC   C3B 2003  25.487  24.898   4.981  0.2987 -0.0462 -0.2261
    1DPPC   C4B 2004  25.336  25.238   4.848  0.1497 -0.1751 -0.1675
    1DPPC   NC3 2005  24.133  16.859   5.126 -0.1180 -0.1568 -0.0975
    1DPPC   PO4 2006  24.494  17.231   4.986  0.0415  0.1348  0.1400
    1DPPC   GL1 2007  24.398  17.436   4.633 -0.0548 -0.1409  0.3713
    1DPPC   GL2 2008  24.125  17.658   4.677  0.0288  0.0032 -0.4569
    1DPPC   C1A 2009  24.203  17.455   4.202 -0.4308  0.0023 -0.0370
    1DPPC   C2A 2010  24.547  17.240   3.888  0.2244 -0.1133 -0.0219
    1DPPC   C3A 2011  24.688  17.320   3.482 -0.3578 -0.2449  0.3528
    1DPPC   C4A 2012  24.743  17.695   3.181 -0.1943 -0.0873 -0.1516
    1DPPC   C1B 2013  24.156  17.946   4.304 -0.2965  0.0687 -0.1713
    1DPPC   C2B 2014  24.269  18.300   4.105  0.1486  0.1018 -0.1397
    1DPPC   C3B 2015  24.313  18.467   3.673  0.0829  0.0712 -0.0056
    1DPPC   C4B 2016  24.414  18.543   3.369  0.3919 -0.0444  0.3456
    1DPPC   NC3 2017   5.766  18.769   7.120  0.1036 -0.0262 -0.2000
    1DPPC   PO4 2018   5.499  18.310   7.043  0.3019 -0.2257  0.1440
    1DPPC   GL1 2019   5.778  18.351   6.666 -0.1135 -0.1639  0.0416
    1DPPC   GL2 2020   6.136  18.283   6.733  0.1373 -0.0113  0.0158
    1DPPC   C1A 2021   5.717  18.105   6.248  0.0550  0.1809  0.0627
    1DPPC   C2A 2022   5.724  18.049   5.852  0.1446  0.2586  0.4088
    1DPPC   C3A 2023   5.872  18.084   5.385  0.0892 -0.3369  0.2991
    1DPPC   C4A 2024   6.164  18.077   5.050  0.2083 -0.0823 -0.3793
    1DPPC   C1B 2025   6.177  18.302   6.357 -0.2195 -0.2058 -0.0055
    1DPPC   C2B 2026   6.359  18.404   5.939 -0.2933  0.2282 -0.3795
    1DPPC   C3B 2027   6.436  18.318   5.509 -0.2216  0.0356  0.0213
    1DPPC   C4B 2028   6.736  18.231   5.088  0.2041  0.0438  0.1319
    1DPPC   NC3 2029   1.522  20.659   6.842  0.2064  0.2617 -0.1240
    1DPPC   PO4 2030   1.687  21.056   6.924  0.0388 -0.1570  0.1071
    1DPPC   GL1 2031   1.887  21.311   6.598  0.0210  0.0064 -0.0398
    1DPPC   GL2 2032   2.082  21.201   6.477  0.3997 -0.1270 -0.1516
    1DPPC   C1A 2033   1.997  21.654   6.364 -0.1532 -0.1399  0.2775
    1DPPC   C2A 2034   2.055  21.738   6.014  0.3071 -0.0581 -0.0890
    1DPPC   C3A 2035   2.073  21.953   5.650  0.0266 -0.0589 -0.2230
    1DPPC   C4A 2036   2.022  22.309   5.385 -0.2392 -0.1838 -0.0066
    1DPPC   C1B 2037   2.144  21.184   6.096  0.3418  0.0315  0.0756
    1DPPC   C2B 2038   2.239  21.248   5.657 -0.0795  0.0581  0.1054
    1DPPC   C3B 2039   2.282  21.335   5.342 -0.0103 -0.4181  0.1670
    1DPPC   C4B 2040   2.214  21.501   4.903 -0.2052 -0.0186  0.1043
    1DPPC   NC3 2041   1.555   9.303   6.654 -0.0549  0.0845  0.0649
    1DPPC   PO4 2042   2.007   9.114   6.589 -0.2461  0.3783  0.0483
    1DPPC   GL1 2043   1.950   9.376   6.258 -0.0173 -0.0307 -0.0171
    1DPPC   GL2 2044   2.063   9.695   6.294 -0.0148 -0.0896  0.2480
    1DPPC   C1A 2045   1.790   9.388   5.947 -0.1499 -0.0745 -0.2622
    1DPPC   C2A 2046   1.392   9.472   5.830  0.0194  0.0431 -0.0226
    1DPPC   C3A 2047   0.950   9.438   5.869  0.0375  0.0605  0.0262
    1DPPC   C4A 2048   0.689   9.207   6.217 -0.1602  0.1004  0.2728
    1DPPC   C1B 2049   2.113   9.769   5.882 -0.2593 -0.0777 -0.0504
    1DPPC   C2B 2050   2.304   9.673   5.502 -0.0732  0.2440  0.2360
    1DPPC   C3B 2051   2.189   9.702   5.089  0.1652 -0.1748  0.1376
    1DPPC   C4B 2052   2.232   9.845   4.798 -0.0866 -0.0856 -0.3172
    1DPPC   NC3 2053  26.117  17.629   5.733  0.0937 -0.1024  0.0528
    1DPPC   PO4 2054  26.442  17.300   5.751  0.1777  0.1070 -0.0547
    1DPPC   GL1 2055  26.390  17.025   5.429 -0.1052 -0.0624 -0.0082
    1DPPC   GL2 2056  26.567  16.733   5.354  0.0264 -0.0224  0.0294
    1DPPC   C1A 2057  26.444  16.853   4.918  0.0734  0.1188 -0.1543
    1DPPC   C2A 2058  26.548  16.788   4.478 -0.2695 -0.0710 -0.0620
    1DPPC   C3A 2059  26.494  16.884   4.134 -0.3564 -0.0133 -0.1498
    1DPPC   C4A 2060  26.287  16.741   3.679  0.1669  0.2840 -0.1570
    1DPPC   C1B 2061  26.852  16.586   5.218  0.1981  0.0445 -0.0340
    1DPPC   C2B 2062  26.922  16.666   4.826  0.0527 -0.0993  0.1046
    1DPPC   C3B 2063  27.043  16.649   4.453 -0.0691 -0.0447  0.0280
    1DPPC   C4B 2064  26.956  16.701   4.084  0.0926 -0.1570  0.1434
    1DPPC   NC3 2065   2.099  16.887   6.882  0.0628 -0.1058 -0.2680
    1DPPC   PO4 2066   2.281  16.593   6.734 -0.2810 -0.3073 -0.0804
    1DPPC   GL1 2067   2.333  16.726   6.265 -0.1024 -0.2194 -0.0521
    1DPPC   GL2 2068   2.672  16.846   6.158  0.0353 -0.1513 -0.1649
    1DPPC   C1A 2069   2.309  16.748   5.815 -0.1121 -0.0749 -0.2347
    1DPPC   C2A 2070   2.355  16.684   5.318  0.0535  0.2369 -0.2973
    1DPPC   C3A 2071   2.205  16.694   4.959  0.1657 -0.0183  0.0418
    1DPPC   C4A 2072   2.086  16.584   4.497 -0.1240  0.3967  0.1027
    1DPPC   C1B 2073   2.818  16.731   5.727  0.1217 -0.0284 -0.1105
    1DPPC   C2B 2074   2.866  16.710   5.248  0.1373  0.2267 -0.1365
    1DPPC   C3B 2075   3.097  16.753   4.886 -0.1246 -0.2336 -0.2929
    1DPPC   C4B 2076   3.168  17.095   4.576  0.0431 -0.0641  0.1720
    1DPPC   NC3 2077   6.585  15.264   7.338  0.1098 -0.0284  0.2197
    1DPPC   PO4 2078   6.690  15.593   7.040 -0.1042 -0.1560 -0.1701
    1DPPC   GL1 2079   6.831  15.301   6.804 -0.3964  0.1350 -0.0124
    1DPPC   GL2 2080   6.694  15.047   6.891  0.0872  0.0002  0.1168
    1DPPC   C1A 2081   6.879  15.293   6.360  0.0192  0.2922 -0.1923
    1DPPC   C2A 2082   6.856  15.326   5.888  0.0812  0.0308  0.1174
    1DPPC   C3A 2083   6.952  15.367   5.528  0.0310  0.1217  0.3463
    1DPPC   C4A 2084   6.980  15.319   5.108  0.1185 -0.0838 -0.0680
    1DPPC   C1B 2085   6.531  14.940   6.426  0.3413  0.1333  0.2410
    1DPPC   C2B 2086   6.593  14.935   5.998  0.1969 -0.1068  0.0320
    1DPPC   C3B 2087   6.676  14.902   5.641  0.1565 -0.2230 -0.1128
    1DPPC   C4B 2088   6.677  14.932   5.190  0.1159  0.0212 -0.1729
    1DPPC   NC3 2089   6.054  21.878   7.311 -0.1869 -0.0645  0.1035
    1DPPC   PO4 2090   6.211  21.680   6.895  0.0057  0.1754  0.0664
    1DPPC   GL1 2091   6.293  21.755   6.538  0.0160 -0.4232  0.1469
    1DPPC   GL2 2092   6.513  21.496   6.459  0.1186  0.0552 -0.0118
    1DPPC   C1A 2093   6.271  21.853   6.091  0.0674  0.0944  0.1092
    1DPPC   C2A 2094   6.228  22.208   5.827 -0.2203 -0.0222  0.0565
    1DPPC   C3A 2095   6.369  22.564   5.495  0.0778 -0.2686 -0.2230
    1DPPC   C4A 2096   6.406  22.656   5.052  0.1574  0.2089 -0.0216
    1DPPC   C1B 2097   6.267  21.354   6.145 -0.1024 -0.1254  0.2670
    1DPPC   C2B 2098   5.889  21.320   5.884 -0.1518 -0.1381  0.1366
    1DPPC   C3B 2099   5.869  21.399   5.483 -0.1747 -0.0471  0.1975
    1DPPC   C4B 2100   5.931  21.745   5.169 -0.1570  0.0550 -0.1859
    1DPPC   NC3 2101   5.207  15.934   6.855 -0.1269  0.1473  0.0087
    1DPPC   PO4 2102   5.516  16.284   6.845 -0.1356 -0.0982  0.1991
    1DPPC   GL1 2103   5.612  16.131   6.391  0.0566  0.1123  0.1086
    1DPPC   GL2 2104   5.631  15.837   6.508 -0.0267  0.1233  0.1355
    1DPPC   C1A 2105   5.766  16.048   5.944  0.1919  0.0935 -0.2294
    1DPPC   C2A 2106   5.757  15.982   5.539  0.0388  0.3708 -0.0325
    1DPPC   C3A 2107   5.590  15.945   5.138 -0.0183 -0.0421 -0.0002
    1DPPC   C4A 2108   5.550  15.770   4.734  0.0648  0.0467 -0.0510
    1DPPC   C1B 2109   5.785  15.589   6.221  0.1196  0.1586  0.3606
    1DPPC   C2B 2110   5.866  15.589   5.802  0.0151  0.0823  0.1190
    1DPPC   C3B 2111   6.010  15.538   5.368  0.2149 -0.2010 -0.1115
    1DPPC   C4B 2112   6.109  15.377   4.975  0.1618  0.0064 -0.0345
    1DPPC   NC3 2113   2.980  17.944   6.541 -0.1297 -0.0914 -0.0901
    1DPPC   PO4 2114   2.631  17.836   6.295  0.0858 -0.0121  0.2255
    1DPPC   GL1 2115   2.598  17.855   5.898  0.4139 -0.1087  0.0059
    1DPPC   GL2 2116   2.454  17.690   5.866 -0.1177  0.4120  0.1015
    1DPPC   C1A 2117   2.713  18.099   5.620 -0.0254  0.0546  0.0221
    1DPPC   C2A 2118   2.812  18.129   5.156 -0.0991 -0.4700  0.0727
    1DPPC   C3A 2119   2.847  18.026   4.667 -0.1858 -0.1802  0.4117
    1DPPC   C4A 2120   2.946  18.027   4.253 -0.1770  0.0963  0.0368
    1DPPC   C1B 2121   2.248  17.481   5.488  0.3117  0.1741 -0.0794
    1DPPC   C2B 2122   2.307  17.474   5.109 -0.0097  0.1519  0.0558
    1DPPC   C3B 2123   2.290  17.319   4.727  0.0515  0.1194  0.0082
    1DPPC   C4B 2124   2.181  17.043   4.318  0.1599 -0.0282  0.0450
    1DPPC   NC3 2125  24.456  16.005   4.874 -0.1139 -0.0329  0.0328
    1DPPC   PO4 2126  24.058  16.034   5.025  0.1725  0.2138  0.1220
    1DPPC   GL1 2127  23.762  16.033   4.791  0.2125  0.1745  0.1639
    1DPPC   GL2 2128  23.600  15.664   4.823  0.2113  0.0206  0.0692
    1DPPC   C1A 2129  23.814  16.266   4.386 -0.1267  0.2020  0.3010
    1DPPC   C2A 2130  23.967  16.452   4.005  0.0273  0.0106 -0.0138
    1DPPC   C3A 2131  24.147  16.491   3.581 -0.0017  0.0614  0.2358
    1DPPC   C4A 2132  24.471  16.531   3.233 -0.2227  0.0403 -0.0499
    1DPPC   C1B 2133  23.569  15.674   4.335 -0.0124 -0.0909 -0.1436
    1DPPC   C2B 2134  23.832  15.906   4.029 -0.3145 -0.0835 -0.0304
    1DPPC   C3B 2135  24.032  15.947   3.621 -0.1053  0.2238 -0.0427
    1DPPC   C4B 2136  24.228  16.108   3.278 -0.0016 -0.0025  0.0350
    1DPPC   NC3 2137   8.895  14.991   7.232  0.1343  0.2824 -0.2599
    1DPPC   PO4 2138   8.751  14.523   7.137 -0.2062 -0.1301  0.2330
    1DPPC   GL1 2139   8.825  14.330   6.732 -0.1300  0.4719  0.0935
    1DPPC   GL2 2140   8.492  14.324   6.650  0.0202  0.0520 -0.0428
    1DPPC   C1A 2141   8.946  14.477   6.346 -0.0716 -0.1237  0.1265
    1DPPC   C2A 2142   9.056  14.403   5.916 -0.0451  0.0943 -0.2839
    1DPPC   C3A 2143   9.064  14.324   5.555  0.2461  0.0541  0.0951
    1DPPC   C4A 2144   9.347  14.221   5.268  0.3439 -0.1167 -0.2782
    1DPPC   C1B 2145   8.651  14.054   6.291 -0.1655 -0.1550 -0.2316
    1DPPC   C2B 2146   8.616  13.929   5.804 -0.0076  0.2188 -0.2959
    1DPPC   C3B 2147   8.766  13.971   5.356  0.0283  0.0190 -0.1821
    1DPPC   C4B 2148   8.996  13.958   5.041 -0.2363 -0.3081  0.0909
    1DPPC   NC3 2149  27.651  14.793   5.956 -0.0416  0.0581  0.1409
    1DPPC   PO4 2150  27.538  15.226   6.018 -0.3172 -0.2181  0.0314
    1DPPC   GL1 2151  27.865  15.151   5.602 -0.1187 -0.0191  0.1996
    1DPPC   GL2 2152  28.100  14.909   5.643 -0.2325 -0.1651  0.0263
    1DPPC   C1A 2153  27.792  15.118   5.165  0.2386 -0.0225 -0.3055
    1DPPC   C2A 2154  27.760  15.016   4.754 -0.0563  0.0675 -0.1456
    1DPPC   C3A 2155  27.777  14.769   4.387  0.1212  0.0473  0.2807
    1DPPC   C4A 2156  27.779  14.421   4.115 -0.1425 -0.0438 -0.2244
    1DPPC   C1B 2157  28.183  14.726   5.270 -0.0171  0.0647 -0.3428
    1DPPC   C2B 2158  28.146  14.634   4.815 -0.0447 -0.0713 -0.2993
    1DPPC   C3B 2159  28.308  14.549   4.318 -0.1944 -0.0877 -0.0149
    1DPPC   C4B 2160  28.554  14.834   4.111  0.0842 -0.0339  0.0512
    1DPPC   NC3 2161   2.797   8.167   6.563  0.0437 -0.2300  0.2264
    1DPPC   PO4 2162   2.481   7.933   6.435  0.2555 -0.1099  0.0806
    1DPPC   GL1 2163   2.248   7.787   6.070 -0.0540 -0.1159 -0.0817
    1DPPC   GL2 2164   1.930   7.790   6.135  0.1749  0.2319 -0.2510
    1DPPC   C1A 2165   2.210   7.568   5.719 -0.0510 -0.0775 -0.0444
    1DPPC   C2A 2166   2.042   7.394   5.423  0.2793 -0.3279  0.1589
    1DPPC   C3A 2167   1.837   7.570   5.066  0.0646  0.0570  0.0616
    1DPPC   C4A 2168   1.675   7.783   4.782 -0.0617 -0.0937 -0.1856
    1DPPC   C1B 2169   1.771   7.753   5.669 -0.1418  0.1071  0.3431
    1DPPC   C2B 2170   1.538   7.882   5.377  0.0592  0.2168  0.2613
    1DPPC   C3B 2171   1.363   8.141   5.002 -0.2182 -0.2605  0.1681
    1DPPC   C4B 2172   1.636   8.337   4.602  0.0805  0.1445 -0.0157
    1DPPC   NC3 2173  13.616  15.029   6.737  0.0738 -0.0314 -0.3097
    1DPPC   PO4 2174  13.260  14.822   6.867  0.0756 -0.0102  0.1368
    1DPPC   GL1 2175  13.279  14.766   6.420  0.1334 -0.1728 -0.0216
    1DPPC   GL2 2176  13.301  15.163   6.343 -0.1509  0.3902 -0.0107
    1DPPC   C1A 2177  13.359  14.551   6.110 -0.0761  0.0172  0.2260
    1DPPC   C2A 2178  13.190  14.619   5.765 -0.1396 -0.1545  0.3350
    1DPPC   C3A 2179  13.235  14.553   5.382 -0.0290  0.2159  0.0402
    1DPPC   C4A 2180  13.383  14.344   5.017  0.0277  0.0528 -0.2467
    1DPPC   C1B 2181  13.276  15.064   5.945 -0.0210 -0.1116 -0.1803
    1DPPC   C2B 2182  13.209  15.099   5.451 -0.0798  0.0058  0.0900
    1DPPC   C3B 2183  13.223  15.293   5.107  0.0135  0.0198  0.4193
    1DPPC   C4B 2184  12.946  15.491   4.748 -0.0026  0.2687  0.2728
    1DPPC   NC3 2185  29.668  11.693   6.957  0.0065 -0.0472 -0.1732
    1DPPC   PO4 2186  29.189  11.755   6.797 -0.4084  0.0885  0.0976
    1DPPC   GL1 2187  29.481  11.680   6.441 -0.0440 -0.0187 -0.0402
    1DPPC   GL2 2188  29.607  11.458   6.455  0.3698 -0.4265  0.0905
    1DPPC   C1A 2189  29.454  11.611   6.030  0.0655 -0.0043  0.1983
    1DPPC   C2A 2190  29.435  11.788   5.619 -0.1564 -0.2890 -0.1133
    1DPPC   C3A 2191  29.391  11.987   5.176 -0.0727 -0.1864  0.2528
    1DPPC   C4A 2192  29.456  11.998   4.672  0.0454 -0.0914 -0.0771
    1DPPC   C1B 2193  29.848  11.237   6.159 -0.0457 -0.0567  0.0393
    1DPPC   C2B 2194  29.912  10.978   5.794  0.0390  0.1310  0.1882
    1DPPC   C3B 2195  29.899  10.984   5.341 -0.0432  0.1887  0.0617
    1DPPC   C4B 2196  29.863  11.127   4.958  0.0145  0.2058  0.1682
    1DPPC   NC3 2197  27.090  14.268   6.050 -0.2831  0.2106  0.2525
    1DPPC   PO4 2198  27.103  14.600   5.748  0.1455  0.0011  0.1081
    1DPPC   GL1 2199  27.081  14.579   5.375 -0.2204  0.1505 -0.2250
    1DPPC   GL2 2200  26.936  14.970   5.309  0.2383 -0.2860  0.0977
    1DPPC   C1A 2201  26.967  14.623   4.988 -0.1277 -0.4202 -0.1512
    1DPPC   C2A 2202  26.982  14.672   4.568 -0.0456 -0.0106  0.0787
    1DPPC   C3A 2203  27.292  14.724   4.285  0.1460  0.0633  0.0517
    1DPPC   C4A 2204  27.377  14.643   3.827  0.0289 -0.3666  0.0381
    1DPPC   C1B 2205  27.305  15.011   4.997  0.1024  0.0979  0.2394
    1DPPC   C2B 2206  27.262  15.065   4.668  0.3033  0.2940 -0.0642
    1DPPC   C3B 2207  27.532  15.224   4.324  0.1628  0.5711 -0.0473
    1DPPC   C4B 2208  27.561  15.083   3.984 -0.3144  0.0599 -0.0078
    1DPPC   NC3 2209   3.647  15.765   6.541 -0.0032 -0.2085  0.1482
    1DPPC   PO4 2210   3.742  16.110   6.366  0.1142 -0.0663  0.0869
    1DPPC   GL1 2211   3.891  15.932   6.009  0.0652 -0.0165  0.0263
    1DPPC   GL2 2212   4.008  15.709   6.158  0.1726 -0.0116  0.0650
    1DPPC   C1A 2213   4.025  15.938   5.508  0.4141 -0.0982 -0.1389
    1DPPC   C2A 2214   4.070  15.985   5.076  0.1062  0.1695 -0.3525
    1DPPC   C3A 2215   4.143  16.191   4.692  0.0887  0.3587  0.1167
    1DPPC   C4A 2216   4.252  16.327   4.270 -0.0406  0.3215  0.1463
    1DPPC   C1B 2217   4.287  15.602   5.769  0.0804  0.0697 -0.1394
    1DPPC   C2B 2218   4.316  15.612   5.301 -0.1280 -0.0193  0.0164
    1DPPC   C3B 2219   4.280  15.581   4.900  0.0219  0.1375  0.0123
    1DPPC   C4B 2220   3.970  15.613   4.534  0.2545 -0.0239  0.0852
    1DPPC   NC3 2221   9.593  13.562   7.102  0.3408  0.1543 -0.0090
    1DPPC   PO4 2222   9.189  13.332   7.050 -0.3164  0.0068 -0.2209
    1DPPC   GL1 2223   9.146  13.432   6.711 -0.0700 -0.0499 -0.1412
    1DPPC   GL2 2224   9.454  13.446   6.620  0.0073 -0.1430  0.1593
    1DPPC   C1A 2225   8.836  13.389   6.419 -0.1817  0.1152 -0.1043
    1DPPC   C2A 2226   8.741  13.431   6.027  0.0312 -0.1978 -0.1167
    1DPPC   C3A 2227   8.727  13.404   5.603  0.0149 -0.2793 -0.1299
    1DPPC   C4A 2228   8.810  13.491   5.253 -0.2862  0.1906  0.0376
    1DPPC   C1B 2229   9.303  13.312   6.202  0.0512  0.1359  0.1050
    1DPPC   C2B 2230   9.148  13.208   5.768  0.0975  0.0272 -0.1974
    1DPPC   C3B 2231   9.103  13.019   5.432  0.3304  0.1509  0.2091
    1DPPC   C4B 2232   9.208  12.644   5.179 -0.0565 -0.0539  0.0037
    1DPPC   NC3 2233   0.093  17.222   6.703 -0.0343 -0.1335  0.3624
    1DPPC   PO4 2234   0.081  17.536   6.388 -0.2068  0.3596  0.1260
    1DPPC   GL1 2235  -0.052  17.547   5.904  0.1183 -0.2527 -0.0774
    1DPPC   GL2 2236  -0.207  17.333   5.847  0.0172  0.0784 -0.0775
    1DPPC   C1A 2237  -0.023  17.569   5.459 -0.4877  0.0948  0.1130
    1DPPC   C2A 2238   0.035  17.557   4.946  0.0488  0.1159  0.0547
    1DPPC   C3A 2239   0.062  17.430   4.540 -0.2271  0.0494  0.0627
    1DPPC   C4A 2240   0.019  17.358   4.109  0.1830 -0.0128 -0.0934
    1DPPC   C1B 2241  -0.339  17.173   5.417  0.1405  0.0209  0.1743
    1DPPC   C2B 2242  -0.229  17.108   5.038  0.1884 -0.0770  0.3465
    1DPPC   C3B 2243  -0.195  16.995   4.623 -0.0560  0.1499 -0.2794
    1DPPC   C4B 2244  -0.128  16.803   4.155  0.0443  0.0569 -0.1251
    1DPPC   NC3 2245  29.643  13.881   6.657  0.3275  0.1480 -0.1550
    1DPPC   PO4 2246  29.435  13.819   6.308 -0.0145 -0.0290 -0.1286
    1DPPC   GL1 2247  29.320  13.757   5.962 -0.0817 -0.0217  0.0235
    1DPPC   GL2 2248  29.199  13.415   6.043 -0.0669 -0.2615 -0.0363
    1DPPC   C1A 2249  29.308  13.765   5.516 -0.2318 -0.0648  0.1293
    1DPPC   C2A 2250  29.372  13.680   5.094 -0.1033 -0.1192  0.1614
    1DPPC   C3A 2251  29.413  13.799   4.702 -0.3012 -0.1322  0.0772
    1DPPC   C4A 2252  29.681  13.862   4.383  0.0543 -0.2165 -0.1562
    1DPPC   C1B 2253  29.003  13.350   5.652 -0.0777  0.4724 -0.3036
    1DPPC   C2B 2254  29.076  13.339   5.202  0.1540 -0.2744 -0.1807
    1DPPC   C3B 2255  29.374  13.182   4.882  0.3401  0.0503  0.0203
    1DPPC   C4B 2256  29.734  12.999   4.625 -0.2331 -0.1948 -0.0701
    1DPPC   NC3 2257  26.723  19.931   5.704  0.1863 -0.0801 -0.0321
    1DPPC   PO4 2258  27.186  19.836   5.905  0.1500 -0.3386 -0.2689
    1DPPC   GL1 2259  27.137  19.917   5.471  0.3136  0.0045  0.4542
    1DPPC   GL2 2260  26.991  19.664   5.209  0.2096 -0.1321  0.0525
    1DPPC   C1A 2261  27.417  19.892   5.096  0.4578  0.0937  0.2014
    1DPPC   C2A 2262  27.631  20.237   4.893  0.1393  0.0793  0.0960
    1DPPC   C3A 2263  27.837  20.471   4.547 -0.2676  0.2845  0.0090
    1DPPC   C4A 2264  27.736  20.692   4.212 -0.2148 -0.3596 -0.1127
    1DPPC   C1B 2265  27.018  19.649   4.797 -0.1682  0.0106 -0.2130
    1DPPC   C2B 2266  27.359  19.850   4.611 -0.1630 -0.1249 -0.0087
    1DPPC   C3B 2267  27.601  19.926   4.307  0.1878 -0.1479  0.0845
    1DPPC   C4B 2268  27.903  20.162   4.153 -0.0271 -0.0685 -0.1151
    1DPPC   NC3 2269   7.773  16.002   6.889  0.1050 -0.2607  0.1985
    1DPPC   PO4 2270   7.824  15.750   7.086 -0.0901 -0.3264 -0.0298
    1DPPC   GL1 2271   7.471  15.541   6.912 -0.0257  0.0189 -0.0308
    1DPPC   GL2 2272   7.122  15.821   6.767 -0.2430 -0.2747 -0.2632
    1DPPC   C1A 2273   7.439  15.385   6.531 -0.0492  0.2489  0.1561
    1DPPC   C2A 2274   7.463  15.371   6.145  0.2483 -0.1996  0.0711
    1DPPC   C3A 2275   7.379  15.305   5.783 -0.2830 -0.1777  0.0467
    1DPPC   C4A 2276   7.475  15.245   5.479 -0.1416 -0.1741  0.0033
    1DPPC   C1B 2277   7.144  15.749   6.315 -0.0312  0.0812 -0.2198
    1DPPC   C2B 2278   7.149  15.735   5.806 -0.1299 -0.0873 -0.1183
    1DPPC   C3B 2279   7.310  15.762   5.275  0.0243 -0.1538 -0.1914
    1DPPC   C4B 2280   7.341  15.617   4.840 -0.0192  0.1163  0.3396
    1DPPC   NC3 2281  27.034  16.080   5.826  0.3908 -0.2868 -0.0270
    1DPPC   PO4 2282  26.834  15.754   5.581 -0.1879 -0.2347  0.0547
    1DPPC   GL1 2283  26.635  15.650   5.227 -0.1992 -0.1980 -0.2912
    1DPPC   GL2 2284  26.676  15.358   5.171  0.0680  0.0120  0.0629
    1DPPC   C1A 2285  26.603  15.691   4.819 -0.0915  0.3388  0.0582
    1DPPC   C2A 2286  26.609  15.865   4.415  0.0750  0.2375 -0.1124
    1DPPC   C3A 2287  26.610  15.797   3.921 -0.2185  0.3914  0.0781
    1DPPC   C4A 2288  26.740  15.477   3.653  0.2778 -0.0090 -0.0737
    1DPPC   C1B 2289  26.769  15.117   4.852 -0.0773  0.3316 -0.0052
    1DPPC   C2B 2290  26.823  15.187   4.492  0.1155  0.2694 -0.0001
    1DPPC   C3B 2291  27.009  15.098   4.178 -0.3302  0.0286 -0.3585
    1DPPC   C4B 2292  27.117  15.128   3.698  0.0422  0.0437 -0.0147
    1DPPC   NC3 2293  25.872  17.149   5.727 -0.1430 -0.0057 -0.1526
    1DPPC   PO4 2294  25.515  17.339   5.481 -0.2134 -0.0227 -0.1397
    1DPPC   GL1 2295  25.371  17.427   5.082  0.0766  0.0151 -0.4309
    1DPPC   GL2 2296  25.375  17.745   5.140  0.2512  0.1440  0.1736
    1DPPC   C1A 2297  25.384  17.515   4.708  0.1948 -0.1171 -0.1040
    1DPPC   C2A 2298  25.438  17.508   4.316 -0.0657  0.0806  0.0330
    1DPPC   C3A 2299  25.543  17.525   3.914 -0.0724  0.2886 -0.0060
    1DPPC   C4A 2300  25.761  17.275   3.599 -0.0319 -0.0645 -0.0675
    1DPPC   C1B 2301  25.635  17.974   4.866 -0.0208  0.0077  0.2369
    1DPPC   C2B 2302  25.749  17.945   4.377 -0.0539 -0.1227 -0.0052
    1DPPC   C3B 2303  25.719  18.028   3.869  0.1100  0.2072 -0.2390
    1DPPC   C4B 2304  25.675  18.238   3.458 -0.1963 -0.0734  0.0040
    1DPPC   NC3 2305   6.137  20.895   7.047 -0.2919 -0.2658 -0.1528
    1DPPC   PO4 2306   5.708  20.740   6.884  0.0028  0.2664  0.1814
    1DPPC   GL1 2307   5.613  20.931   6.541 -0.2044 -0.0813  0.0838
    1DPPC   GL2 2308   5.408  21.200   6.605 -0.3838  0.0367  0.0968
    1DPPC   C1A 2309   5.766  20.919   6.106  0.0741 -0.1744 -0.0577
    1DPPC   C2A 2310   5.837  20.880   5.591  0.1637  0.0422 -0.1515
    1DPPC   C3A 2311   6.075  20.929   5.253 -0.1570  0.1137  0.1723
    1DPPC   C4A 2312   6.261  20.873   4.928 -0.1579  0.1517 -0.4004
    1DPPC   C1B 2313   5.342  21.315   6.221  0.1982 -0.1330  0.2290
    1DPPC   C2B 2314   5.423  21.251   5.785  0.1484 -0.1471 -0.1353
    1DPPC   C3B 2315   5.404  21.479   5.359  0.4002 -0.1178  0.4344
    1DPPC   C4B 2316   5.462  21.918   5.251  0.1692 -0.2614 -0.0008
    1DPPC   NC3 2317   3.348   7.752   6.247 -0.2456 -0.1144  0.0342
    1DPPC   PO4 2318   3.208   8.096   6.244 -0.0925 -0.1807  0.1124
    1DPPC   GL1 2319   2.975   7.944   5.899  0.1558  0.2332 -0.0919
    1DPPC   GL2 2320   2.729   7.703   5.847 -0.1079  0.0285  0.0205
    1DPPC   C1A 2321   2.824   7.981   5.456 -0.0837  0.0597 -0.1609
    1DPPC   C2A 2322   2.492   7.692   5.217  0.1147  0.0481  0.1067
    1DPPC   C3A 2323   2.316   7.722   4.946  0.1303 -0.0590  0.0959
    1DPPC   C4A 2324   2.391   7.788   4.515 -0.3523 -0.2085 -0.0646
    1DPPC   C1B 2325   2.438   8.033   5.720  0.1990 -0.1161 -0.3678
    1DPPC   C2B 2326   2.141   7.994   5.405  0.0270  0.0119  0.0203
    1DPPC   C3B 2327   1.944   8.083   5.028 -0.0711  0.2544  0.0323
    1DPPC   C4B 2328   2.019   8.070   4.572 -0.0912 -0.0995 -0.0150
    1DPPC   NC3 2329   5.023  19.768   6.849 -0.0424  0.0053  0.1891
    1DPPC   PO4 2330   5.331  19.373   6.707 -0.2099 -0.2283 -0.0575
    1DPPC   GL1 2331   5.214  19.372   6.272 -0.0503  0.2176 -0.1127
    1DPPC   GL2 2332   5.339  19.076   6.223 -0.0143 -0.1814  0.1710
    1DPPC   C1A 2333   5.399  19.507   5.920 -0.3026  0.2593  0.4507
    1DPPC   C2A 2334   5.697  19.464   5.452 -0.0328  0.1860  0.1312
    1DPPC   C3A 2335   5.738  19.455   5.097 -0.1481  0.0563  0.1592
    1DPPC   C4A 2336   5.738  19.403   4.641 -0.1477  0.3713  0.0184
    1DPPC   C1B 2337   5.371  18.836   5.902 -0.3161  0.0580  0.3631
    1DPPC   C2B 2338   5.512  18.988   5.566 -0.0272  0.0335  0.2681
    1DPPC   C3B 2339   5.606  18.905   5.180 -0.0880  0.0400  0.2869
    1DPPC   C4B 2340   5.962  18.936   4.841 -0.1516  0.0152  0.1133
    1DPPC   NC3 2341  10.179  17.023   6.920 -0.1754 -0.1548  0.1963
    1DPPC   PO4 2342  10.555  17.319   6.776 -0.1284  0.1721  0.3765
    1DPPC   GL1 2343  10.383  17.330   6.497 -0.2800 -0.1163  0.3474
    1DPPC   GL2 2344  10.171  17.052   6.448 -0.2350  0.1164 -0.3229
    1DPPC   C1A 2345  10.414  17.207   6.093 -0.1801  0.5089 -0.4689
    1DPPC   C2A 2346  10.250  16.902   5.897  0.1560 -0.1432 -0.2120
    1DPPC   C3A 2347  10.084  16.716   5.599  0.1858  0.0060  0.1823
    1DPPC   C4A 2348   9.977  16.637   5.289  0.0900 -0.0680 -0.1604
    1DPPC   C1B 2349   9.881  17.141   6.180  0.0822 -0.0116 -0.1674
    1DPPC   C2B 2350   9.777  17.038   5.803  0.0022  0.0090 -0.2293
    1DPPC   C3B 2351   9.984  17.186   5.482  0.1537 -0.0765  0.2365
    1DPPC   C4B 2352  10.000  17.075   5.018  0.2210 -0.0191 -0.2071
    1DPPC   NC3 2353   1.678  14.387   6.937  0.0622  0.0919 -0.4827
    1DPPC   PO4 2354   1.532  14.721   6.672 -0.0295  0.2214 -0.2413
    1DPPC   GL1 2355   1.732  14.892   6.333 -0.1496 -0.5239  0.2987
    1DPPC   GL2 2356   2.127  14.814   6.424  0.1076  0.2593 -0.1876
    1DPPC   C1A 2357   1.979  14.823   5.915  0.2484 -0.1481  0.1500
    1DPPC   C2A 2358   2.148  14.774   5.567 -0.0001 -0.1034  0.0785
    1DPPC   C3A 2359   2.115  14.841   5.190 -0.3970 -0.0065 -0.3381
    1DPPC   C4A 2360   1.746  15.060   4.979 -0.0486  0.0828  0.0629
    1DPPC   C1B 2361   2.355  14.493   6.123 -0.3754 -0.3093  0.1215
    1DPPC   C2B 2362   2.554  14.384   5.706  0.0148  0.2060 -0.2614
    1DPPC   C3B 2363   2.634  14.349   5.250 -0.2125  0.2497  0.2477
    1DPPC   C4B 2364   2.624  14.249   4.816  0.0717  0.2305  0.0926
    1DPPC   NC3 2365   0.758  13.134   6.977  0.1673 -0.3027 -0.1658
    1DPPC   PO4 2366   0.802  12.780   6.669  0.2046  0.2551 -0.2013
    1DPPC   GL1 2367   0.604  12.535   6.298  0.1895  0.1740 -0.0599
    1DPPC   GL2 2368   0.324  12.749   6.242 -0.1451 -0.1522  0.2745
    1DPPC   C1A 2369   0.652  12.500   5.911 -0.0034 -0.1490 -0.0462
    1DPPC   C2A 2370   0.532  12.351   5.626 -0.0084  0.0029  0.1912
    1DPPC   C3A 2371   0.394  12.324   5.191  0.0466 -0.1074  0.0102
    1DPPC   C4A 2372   0.340  12.281   4.834  0.4509 -0.3137 -0.3355
    1DPPC   C1B 2373   0.267  12.922   5.863  0.0908  0.0952  0.0106
    1DPPC   C2B 2374   0.410  12.833   5.516 -0.1121 -0.0871 -0.2260
    1DPPC   C3B 2375   0.637  12.745   5.082  0.3142  0.0439  0.2539
    1DPPC   C4B 2376   0.406  12.775   4.686 -0.3308  0.2749  0.1018
    1DPPC   NC3 2377   4.478  17.192   6.861 -0.0709  0.0224 -0.0966
    1DPPC   PO4 2378   4.419  16.830   6.626  0.0693 -0.2247  0.3271
    1DPPC   GL1 2379   4.443  16.617   6.265  0.1021 -0.1094  0.1735
    1DPPC   GL2 2380   4.303  16.310   6.250 -0.0855 -0.0247  0.0972
    1DPPC   C1A 2381   4.503  16.635   5.880  0.2137 -0.0966  0.0342
    1DPPC   C2A 2382   4.658  16.623   5.476  0.0554 -0.0290  0.3895
    1DPPC   C3A 2383   4.824  16.763   5.135  0.2931 -0.1990 -0.2370
    1DPPC   C4A 2384   5.004  16.838   4.697 -0.0021  0.2471 -0.0124
    1DPPC   C1B 2385   4.324  16.084   5.857  0.0682 -0.0983 -0.0114
    1DPPC   C2B 2386   4.477  16.179   5.443  0.2236  0.0974  0.1296
    1DPPC   C3B 2387   4.466  16.369   5.059  0.1166 -0.1507 -0.0499
    1DPPC   C4B 2388   4.732  16.394   4.733 -0.1852 -0.0804  0.1543
    1DPPC   NC3 2389  25.573  10.274   5.739  0.4069 -0.1818 -0.1296
    1DPPC   PO4 2390  25.872  10.610   5.659  0.2176  0.1887  0.1958
    1DPPC   GL1 2391  26.138  10.714   5.371 -0.0540 -0.2778 -0.0397
    1DPPC   GL2 2392  26.399  10.562   5.443 -0.1049  0.4733 -0.3049
    1DPPC   C1A 2393  26.319  10.932   5.003  0.0771 -0.0473 -0.0044
    1DPPC   C2A 2394  26.494  11.285   4.816  0.2736  0.1229  0.1789
    1DPPC   C3A 2395  26.716  11.677   4.687 -0.0311 -0.0802 -0.5218
    1DPPC   C4A 2396  27.098  12.025   4.487 -0.0857 -0.0474 -0.2714
    1DPPC   C1B 2397  26.773  10.678   5.247  0.0631 -0.2018 -0.1850
    1DPPC   C2B 2398  26.949  10.946   4.950 -0.2007 -0.1166  0.0782
    1DPPC   C3B 2399  26.773  10.958   4.550 -0.0967 -0.0757  0.1320
    1DPPC   C4B 2400  26.837  11.248   4.297  0.0306 -0.4547 -0.0203
    1DPPC   NC3 2401   3.162  20.081   7.330  0.1670 -0.0188  0.2230
    1DPPC   PO4 2402   3.208  20.429   6.986 -0.2312 -0.0621 -0.3007
    1DPPC   GL1 2403   3.309  20.362   6.572 -0.1968 -0.1247  0.0308
    1DPPC   GL2 2404   3.094  20.576   6.449 -0.0951 -0.0716 -0.1900
    1DPPC   C1A 2405   3.538  20.577   6.283 -0.1837 -0.0188  0.0663
    1DPPC   C2A 2406   3.664  20.489   5.830  0.1104  0.0187 -0.1510
    1DPPC   C3A 2407   3.768  20.461   5.393  0.3005  0.0671  0.1373
    1DPPC   C4A 2408   3.681  20.605   4.992  0.1242  0.0763 -0.1478
    1DPPC   C1B 2409   3.136  20.481   6.032  0.0208  0.0814 -0.0741
    1DPPC   C2B 2410   3.148  20.570   5.607 -0.2883 -0.0634 -0.3402
    1DPPC   C3B 2411   3.079  20.705   5.174 -0.0037  0.0671  0.1996
    1DPPC   C4B 2412   3.324  20.873   4.831 -0.0869 -0.1747 -0.1465
    1DPPC   NC3 2413   8.769  20.483   6.660 -0.1491  0.0151 -0.3988
    1DPPC   PO4 2414   8.414  20.186   6.663  0.1601  0.1193 -0.2831
    1DPPC   GL1 2415   8.683  20.261   6.177  0.1995  0.0752  0.1216
    1DPPC   GL2 2416   8.435  20.491   5.999  0.0469  0.0387  0.2598
    1DPPC   C1A 2417   9.066  20.258   5.889 -0.0243  0.1585  0.0577
    1DPPC   C2A 2418   9.128  20.103   5.419 -0.1035  0.0890 -0.1290
    1DPPC   C3A 2419   9.197  19.943   5.024 -0.0174  0.3075  0.1595
    1DPPC   C4A 2420   9.602  19.870   4.727 -0.2214  0.0825  0.3750
    1DPPC   C1B 2421   8.684  20.242   5.617 -0.2075  0.1403 -0.0998
    1DPPC   C2B 2422   8.489  20.028   5.286 -0.1439 -0.0488 -0.0727
    1DPPC   C3B 2423   8.386  20.081   4.784 -0.2280 -0.2318  0.0618
    1DPPC   C4B 2424   8.283  20.133   4.482  0.0203 -0.0572  0.1005
    1DPPC   NC3 2425   0.003   9.295   7.197 -0.0516 -0.1515 -0.0878
    1DPPC   PO4 2426   0.225   9.394   6.787 -0.0503 -0.3345 -0.0402
    1DPPC   GL1 2427   0.270   9.023   6.426 -0.0470  0.0290 -0.2142
    1DPPC   GL2 2428   0.027   9.181   6.301 -0.1579  0.0128  0.1747
    1DPPC   C1A 2429   0.436   8.816   6.015  0.1624 -0.1251 -0.2058
    1DPPC   C2A 2430   0.685   9.060   5.677 -0.2239 -0.2992  0.1768
    1DPPC   C3A 2431   0.805   9.079   5.242  0.1560 -0.2543 -0.1475
    1DPPC   C4A 2432   1.006   9.169   4.819  0.1207 -0.2598  0.1742
    1DPPC   C1B 2433   0.218   9.251   5.896 -0.1985 -0.0613  0.1175
    1DPPC   C2B 2434   0.271   9.215   5.389  0.0216  0.1079  0.0132
    1DPPC   C3B 2435   0.349   9.038   4.986  0.0758  0.2119 -0.1610
    1DPPC   C4B 2436   0.661   8.812   4.809  0.1633  0.1734  0.1411
    1DPPC   NC3 2437   4.601  12.231   6.864  0.1723 -0.2065  0.0917
    1DPPC   PO4 2438   4.681  11.818   6.855  0.1039 -0.4878  0.0607
    1DPPC   GL1 2439   4.671  11.846   6.437 -0.0332  0.0324 -0.3977
    1DPPC   GL2 2440   4.621  12.070   6.276  0.0941  0.0897 -0.1851
    1DPPC   C1A 2441   4.882  11.613   6.096 -0.1610  0.1048 -0.2327
    1DPPC   C2A 2442   5.103  11.486   5.755  0.0642  0.0115 -0.0855
    1DPPC   C3A 2443   5.435  11.215   5.548 -0.0447  0.1876 -0.2751
    1DPPC   C4A 2444   5.860  11.089   5.307  0.3937 -0.2886 -0.3578
    1DPPC   C1B 2445   4.726  11.937   5.816 -0.2605 -0.1310  0.2008
    1DPPC   C2B 2446   4.708  11.673   5.453  0.0199 -0.1174 -0.2167
    1DPPC   C3B 2447   5.032  11.483   5.235 -0.1488  0.0904 -0.1336
    1DPPC   C4B 2448   5.072  11.487   4.810 -0.1871 -0.2198 -0.1792
    1DPPC   NC3 2449  27.682  18.845   6.401  0.4824 -0.3291 -0.0521
    1DPPC   PO4 2450  28.091  19.104   6.290  0.1731  0.1229  0.1094
    1DPPC   GL1 2451  28.145  19.092   5.814  0.0972 -0.3506  0.3501
    1DPPC   GL2 2452  28.062  19.320   5.614  0.0818 -0.0522 -0.1904
    1DPPC   C1A 2453  28.521  19.158   5.613  0.0705 -0.1304  0.1314
    1DPPC   C2A 2454  28.657  19.145   5.244  0.2251  0.1491  0.1553
    1DPPC   C3A 2455  28.733  19.137   4.768  0.1154 -0.1009 -0.4098
    1DPPC   C4A 2456  28.637  19.202   4.260  0.1393  0.0196 -0.1204
    1DPPC   C1B 2457  27.945  19.073   5.285 -0.1443 -0.2022 -0.1397
    1DPPC   C2B 2458  27.900  18.826   4.885 -0.4070  0.0917 -0.2373
    1DPPC   C3B 2459  27.969  18.655   4.468  0.1912  0.1092 -0.3353
    1DPPC   C4B 2460  28.016  18.523   4.041 -0.1320  0.1382  0.0359
    1DPPC   NC3 2461  16.113   2.662   6.578  0.0569 -0.1264  0.2664
    1DPPC   PO4 2462  15.769   2.631   6.300 -0.1032  0.1207 -0.0172
    1DPPC   GL1 2463  15.758   2.675   5.915  0.1322  0.1495  0.0757
    1DPPC   GL2 2464  15.381   2.819   6.049 -0.1220  0.0097 -0.0273
    1DPPC   C1A 2465  15.598   2.827   5.423 -0.3621  0.0553 -0.1044
    1DPPC   C2A 2466  15.415   2.894   4.943  0.0015 -0.1713  0.0762
    1DPPC   C3A 2467  15.361   2.660   4.655  0.0243  0.0553  0.0322
    1DPPC   C4A 2468  14.956   2.449   4.598  0.0935  0.0485 -0.3755
    1DPPC   C1B 2469  15.300   3.188   5.686 -0.1703  0.0268 -0.0041
    1DPPC   C2B 2470  15.195   3.259   5.215  0.0871  0.1320  0.4226
    1DPPC   C3B 2471  14.968   3.071   4.805 -0.2192  0.1857 -0.1357
    1DPPC   C4B 2472  14.855   2.900   4.324  0.0655  0.3789 -0.1068
    1DPPC   NC3 2473  27.931  16.130   5.990  0.1749 -0.1322 -0.2126
    1DPPC   PO4 2474  27.521  16.161   5.856 -0.0427 -0.0019 -0.3765
    1DPPC   GL1 2475  27.454  16.005   5.480  0.1844  0.1699 -0.1687
    1DPPC   GL2 2476  27.159  16.051   5.330  0.0563  0.0790 -0.1678
    1DPPC   C1A 2477  27.493  15.972   5.033  0.1213 -0.4038  0.0903
    1DPPC   C2A 2478  27.588  15.964   4.621 -0.0290 -0.6109  0.0068
    1DPPC   C3A 2479  27.426  15.974   4.184  0.1347 -0.0394  0.0436
    1DPPC   C4A 2480  27.643  16.052   3.835 -0.1511 -0.2508 -0.0118
    1DPPC   C1B 2481  26.978  16.055   4.918 -0.2060 -0.2458 -0.0394
    1DPPC   C2B 2482  27.090  16.211   4.639 -0.0309 -0.0528  0.3228
    1DPPC   C3B 2483  26.979  16.223   4.211  0.0442 -0.2475 -0.1314
    1DPPC   C4B 2484  27.100  16.035   3.839  0.0266  0.2706 -0.0889
    1DPPC   NC3 2485   4.959  16.457   7.455 -0.2965 -0.1287 -0.3726
    1DPPC   PO4 2486   4.987  16.296   7.050 -0.1434 -0.1220 -0.0471
    1DPPC   GL1 2487   5.063  16.361   6.609 -0.1066  0.0604 -0.1893
    1DPPC   GL2 2488   4.912  16.609   6.498 -0.0471  0.1459  0.0433
    1DPPC   C1A 2489   5.250  16.396   6.185  0.1629  0.1257  0.1532
    1DPPC   C2A 2490   5.389  16.316   5.832 -0.0060  0.1099  0.0825
    1DPPC   C3A 2491   5.461  16.377   5.432  0.2474 -0.2294 -0.4038
    1DPPC   C4A 2492   5.441  16.383   5.004 -0.2904  0.1486 -0.0312
    1DPPC   C1B 2493   4.979  16.752   6.019 -0.1123 -0.1540 -0.0171
    1DPPC   C2B 2494   5.149  16.747   5.604  0.2388 -0.1246 -0.2001
    1DPPC   C3B 2495   5.263  16.924   5.213 -0.2572  0.3416  0.1908
    1DPPC   C4B 2496   5.258  17.328   5.056  0.2075  0.0371 -0.0962
    1DPPC   NC3 2497   0.820   8.624   6.764  0.1047  0.1170 -0.0670
    1DPPC   PO4 2498   1.156   8.951   6.610  0.0205 -0.2505  0.2022
    1DPPC   GL1 2499   1.108   9.016   6.147 -0.4145  0.0915  0.4384
    1DPPC   GL2 2500   0.914   8.708   6.124 -0.1001  0.3069 -0.3458
    1DPPC   C1A 2501   1.197   9.000   5.628 -0.2902 -0.2143 -0.1566
    1DPPC   C2A 2502   1.166   8.652   5.283 -0.2900  0.2520 -0.0640
    1DPPC   C3A 2503   0.933   8.396   5.105  0.0583  0.0786  0.1010
    1DPPC   C4A 2504   0.860   8.103   4.900 -0.1781 -0.2706  0.2330
    1DPPC   C1B 2505   0.860   8.589   5.660  0.2675  0.3133  0.0279
    1DPPC   C2B 2506   0.547   8.653   5.304 -0.1653  0.2232  0.1827
    1DPPC   C3B 2507   0.395   8.384   4.999 -0.0326  0.1077 -0.1442
    1DPPC   C4B 2508   0.279   8.129   4.810 -0.1944  0.2797 -0.0066
    1DPPC   NC3 2509  20.433   5.723   6.976 -0.0147  0.1802 -0.0715
    1DPPC   PO4 2510  20.359   5.362   7.294  0.2128  0.1797  0.0695
    1DPPC   GL1 2511  20.361   5.242   6.794 -0.0799  0.0612  0.4439
    1DPPC   GL2 2512  20.567   5.023   6.673  0.2214 -0.1179 -0.1365
    1DPPC   C1A 2513  20.302   5.501   6.352 -0.5296  0.2762  0.2757
    1DPPC   C2A 2514  20.350   5.641   5.927 -0.1086 -0.1213  0.1406
    1DPPC   C3A 2515  20.520   5.945   5.693  0.0173  0.2945  0.1123
    1DPPC   C4A 2516  20.610   5.725   5.217 -0.2454  0.3439  0.0981
    1DPPC   C1B 2517  20.487   4.868   6.194 -0.1359  0.4846  0.2730
    1DPPC   C2B 2518  20.263   4.586   5.892 -0.0812 -0.0736  0.2809
    1DPPC   C3B 2519  20.041   4.411   5.440 -0.0274 -0.2744  0.1771
    1DPPC   C4B 2520  20.036   4.393   5.030 -0.0401 -0.0640  0.0869
    1DPPC   NC3 2521   6.132  19.851   7.132  0.1583 -0.0993 -0.0351
    1DPPC   PO4 2522   6.377  19.507   7.025 -0.1638  0.1478  0.1026
    1DPPC   GL1 2523   6.236  19.552   6.605  0.2038 -0.1225  0.3264
    1DPPC   GL2 2524   6.081  19.807   6.520  0.1684 -0.0715 -0.1161
    1DPPC   C1A 2525   6.239  19.370   6.212 -0.1539 -0.1852 -0.3470
    1DPPC   C2A 2526   6.275  19.396   5.776 -0.1243  0.0292  0.3029
    1DPPC   C3A 2527   6.239  19.491   5.266 -0.1562 -0.0251  0.3511
    1DPPC   C4A 2528   6.168  19.551   4.861  0.1419  0.1758  0.1322
    1DPPC   C1B 2529   6.341  19.861   6.147  0.2320 -0.3358 -0.1352
    1DPPC   C2B 2530   6.559  19.920   5.808  0.1224 -0.2812 -0.1564
    1DPPC   C3B 2531   6.489  19.967   5.342  0.0779  0.0393  0.0173
    1DPPC   C4B 2532   6.425  19.981   4.906 -0.0678 -0.0272  0.0725
    1DPPC   NC3 2533  28.133  17.348   6.136 -0.0430 -0.0608  0.5330
    1DPPC   PO4 2534  28.631  17.415   6.184  0.0068  0.2400  0.0283
    1DPPC   GL1 2535  28.451  17.638   5.828 -0.4515 -0.0577  0.2450
    1DPPC   GL2 2536  28.625  17.777   5.577  0.1394 -0.1356  0.3385
    1DPPC   C1A 2537  28.293  17.392   5.380  0.1399  0.0778 -0.0637
    1DPPC   C2A 2538  28.337  17.197   5.008 -0.0612  0.0567 -0.1421
    1DPPC   C3A 2539  28.418  17.174   4.550 -0.1134  0.0171  0.0940
    1DPPC   C4A 2540  28.310  17.245   4.141 -0.2478  0.0013  0.1732
    1DPPC   C1B 2541  28.634  17.655   5.101  0.0511  0.0494 -0.2603
    1DPPC   C2B 2542  28.699  17.630   4.759 -0.0491  0.1422  0.1128
    1DPPC   C3B 2543  28.832  17.492   4.462 -0.5417  0.1615  0.1592
    1DPPC   C4B 2544  28.898  17.313   4.078 -0.1710 -0.2377 -0.0718
    1DPPC   NC3 2545   1.389  19.797   6.760 -0.2021 -0.1649  0.2038
    1DPPC   PO4 2546   1.772  19.800   6.776  0.2404  0.0810 -0.4091
    1DPPC   GL1 2547   1.587  19.559   6.366  0.4510 -0.0200  0.0890
    1DPPC   GL2 2548   1.177  19.651   6.342  0.1020 -0.2068 -0.0781
    1DPPC   C1A 2549   1.794  19.667   5.911 -0.0892 -0.0231 -0.0210
    1DPPC   C2A 2550   1.963  19.754   5.465  0.1584 -0.3536  0.0239
    1DPPC   C3A 2551   1.986  19.555   5.216 -0.2136 -0.0142  0.0110
    1DPPC   C4A 2552   1.944  19.371   4.805  0.0687 -0.4204  0.0129
    1DPPC   C1B 2553   1.404  19.986   6.050  0.1636 -0.0637  0.1456
    1DPPC   C2B 2554   1.411  19.966   5.626 -0.2285  0.0271  0.2786
    1DPPC   C3B 2555   1.589  19.902   5.183 -0.0088 -0.1274 -0.0290
    1DPPC   C4B 2556   1.723  20.050   4.819 -0.0984  0.0685 -0.0935
    1DPPC   NC3 2557  25.946  21.949   5.696  0.1156  0.1119  0.2505
    1DPPC   PO4 2558  26.343  22.078   5.677  0.0821  0.0910  0.0498
    1DPPC   GL1 2559  26.614  22.225   5.393 -0.1838 -0.2419 -0.1588
    1DPPC   GL2 2560  26.381  22.464   5.286  0.0808  0.2526  0.2094
    1DPPC   C1A 2561  26.660  22.090   4.975 -0.1287 -0.2211  0.0464
    1DPPC   C2A 2562  26.849  22.190   4.610 -0.0324 -0.1649 -0.3698
    1DPPC   C3A 2563  26.978  22.165   4.218  0.0598  0.0554 -0.1661
    1DPPC   C4A 2564  27.186  21.976   3.796  0.1375 -0.0324  0.2246
    1DPPC   C1B 2565  26.111  22.155   5.063 -0.0359 -0.2664 -0.0449
    1DPPC   C2B 2566  26.275  22.216   4.651 -0.0662 -0.3689 -0.0342
    1DPPC   C3B 2567  26.443  22.285   4.232 -0.2799 -0.1021 -0.0109
    1DPPC   C4B 2568  26.387  22.692   3.950 -0.2101  0.0895  0.0321
    1DPPC   NC3 2569  26.278  13.679   5.980 -0.1906 -0.4603  0.0980
    1DPPC   PO4 2570  26.207  14.128   5.977  0.2097  0.1016  0.0369
    1DPPC   GL1 2571  26.225  14.147   5.546  0.1045 -0.0382  0.1514
    1DPPC   GL2 2572  26.125  14.437   5.363 -0.2323  0.1837 -0.0334
    1DPPC   C1A 2573  26.270  13.979   5.249  0.3234 -0.1289 -0.0757
    1DPPC   C2A 2574  26.414  13.958   4.843  0.2547  0.3327  0.1776
    1DPPC   C3A 2575  26.445  13.910   4.404 -0.0858 -0.0840 -0.1508
    1DPPC   C4A 2576  26.465  13.973   4.020 -0.0602  0.1499  0.1286
    1DPPC   C1B 2577  26.142  14.384   4.940 -0.1343  0.2060  0.1592
    1DPPC   C2B 2578  26.199  14.402   4.568 -0.0076 -0.0155  0.4735
    1DPPC   C3B 2579  26.254  14.390   4.153 -0.1799  0.0709  0.0069
    1DPPC   C4B 2580  26.492  14.450   3.755  0.0469  0.1186 -0.1003
    1DPPC   NC3 2581   2.214  21.042   6.948 -0.0782  0.1457 -0.0849
    1DPPC   PO4 2582   2.177  21.494   7.057  0.0953  0.1523 -0.1866
    1DPPC   GL1 2583   2.252  21.845   6.761 -0.0290 -0.0145  0.0495
    1DPPC   GL2 2584   2.033  22.154   6.733  0.2453 -0.1947 -0.3271
    1DPPC   C1A 2585   2.377  21.950   6.432 -0.1950 -0.2351  0.1636
    1DPPC   C2A 2586   2.429  22.104   6.024 -0.1775 -0.2432 -0.2723
    1DPPC   C3A 2587   2.496  22.483   5.787 -0.0269  0.0595 -0.1285
    1DPPC   C4A 2588   2.470  22.729   5.452 -0.1397  0.0087  0.2507
    1DPPC   C1B 2589   1.942  22.195   6.234 -0.4050  0.0786 -0.0930
    1DPPC   C2B 2590   1.947  22.531   5.886  0.1830  0.0234  0.1859
    1DPPC   C3B 2591   1.969  22.831   5.611 -0.0880 -0.1182 -0.0668
    1DPPC   C4B 2592   2.016  23.033   5.221 -0.1390 -0.1547  0.1279
    1DPPC   NC3 2593   2.329  15.614   6.671 -0.2044  0.0928  0.4377
    1DPPC   PO4 2594   2.400  15.156   6.628  0.1359  0.5826 -0.1966
    1DPPC   GL1 2595   2.606  15.004   6.261 -0.1139  0.1157 -0.0830
    1DPPC   GL2 2596   2.882  15.119   6.202 -0.1852  0.2690 -0.0879
    1DPPC   C1A 2597   2.520  14.907   5.866 -0.1699  0.2482 -0.1305
    1DPPC   C2A 2598   2.597  14.826   5.388 -0.1078 -0.1069 -0.0576
    1DPPC   C3A 2599   2.570  14.743   4.966 -0.0500 -0.0786 -0.1914
    1DPPC   C4A 2600   2.734  14.864   4.574 -0.1163 -0.1369 -0.0296
    1DPPC   C1B 2601   2.882  15.141   5.718  0.2724 -0.2405  0.3034
    1DPPC   C2B 2602   2.923  15.281   5.348 -0.2170 -0.0886 -0.0054
    1DPPC   C3B 2603   2.919  15.092   5.064  0.0899  0.0934  0.0768
    1DPPC   C4B 2604   3.151  15.232   4.669 -0.1979  0.0186  0.0267
    1DPPC   NC3 2605   2.916  20.916   7.458  0.1076  0.0532 -0.2914
    1DPPC   PO4 2606   2.676  21.252   7.162  0.1964  0.1844  0.0287
    1DPPC   GL1 2607   2.577  21.369   6.753 -0.2762 -0.3972  0.0340
    1DPPC   GL2 2608   2.874  21.192   6.588  0.0752 -0.0891  0.0091
    1DPPC   C1A 2609   2.493  21.466   6.351 -0.0374 -0.0979  0.3694
    1DPPC   C2A 2610   2.494  21.581   5.955  0.1499 -0.2192 -0.2111
    1DPPC   C3A 2611   2.602  21.779   5.569  0.1959  0.0325  0.1078
    1DPPC   C4A 2612   2.520  22.121   5.364 -0.0801  0.2606 -0.1458
    1DPPC   C1B 2613   2.905  21.296   6.165 -0.1927 -0.1045 -0.0965
    1DPPC   C2B 2614   2.925  21.454   5.699  0.1718 -0.2004 -0.0636
    1DPPC   C3B 2615   3.040  21.797   5.373 -0.1087 -0.2112  0.5135
    1DPPC   C4B 2616   2.831  21.919   4.997 -0.0300 -0.0252  0.1148
    1DPPC   NC3 2617  26.945  21.486   5.923  0.0732  0.0323 -0.3670
    1DPPC   PO4 2618  26.557  21.593   5.900  0.3876  0.1905  0.0838
    1DPPC   GL1 2619  26.265  21.445   5.606  0.0369  0.0901  0.0533
    1DPPC   GL2 2620  26.122  21.654   5.389  0.0937 -0.1417 -0.2362
    1DPPC   C1A 2621  26.438  21.260   5.245 -0.2616  0.2829  0.0087
    1DPPC   C2A 2622  26.383  21.102   4.861  0.0482 -0.2776 -0.0112
    1DPPC   C3A 2623  26.494  21.232   4.534 -0.0283 -0.1032  0.0675
    1DPPC   C4A 2624  26.754  21.290   4.146  0.1202  0.2634 -0.1295
    1DPPC   C1B 2625  26.318  21.690   5.010 -0.0850 -0.4750  0.2133
    1DPPC   C2B 2626  26.412  21.763   4.629  0.0078  0.0624  0.3247
    1DPPC   C3B 2627  26.392  21.785   4.255 -0.1563  0.0071 -0.1452
    1DPPC   C4B 2628  26.689  21.751   3.889  0.0953 -0.1572 -0.0718
    1DPPC   NC3 2629   7.101  20.624   6.616  0.2986 -0.1340  0.0225
    1DPPC   PO4 2630   6.980  20.959   6.696 -0.0032 -0.0483 -0.1007
    1DPPC   GL1 2631   6.961  21.199   6.395  0.1854 -0.1994  0.1094
    1DPPC   GL2 2632   7.264  21.303   6.220  0.0618  0.2263 -0.0975
    1DPPC   C1A 2633   6.724  21.137   5.969 -0.1343  0.1359  0.3017
    1DPPC   C2A 2634   6.745  21.177   5.501 -0.0056  0.0332 -0.4241
    1DPPC   C3A 2635   6.541  21.251   5.176 -0.0708  0.0142 -0.1034
    1DPPC   C4A 2636   6.232  21.407   5.000  0.1525  0.0077 -0.0387
    1DPPC   C1B 2637   7.371  21.185   5.859  0.2436 -0.0917 -0.0934
    1DPPC   C2B 2638   7.581  20.891   5.622 -0.1720 -0.1205 -0.3686
    1DPPC   C3B 2639   7.614  20.909   5.225 -0.0365 -0.1946  0.0451
    1DPPC   C4B 2640   7.596  21.212   4.889  0.1079 -0.0060  0.0472
    1DPPC   NC3 2641   3.145  14.160   6.790 -0.2410  0.3967 -0.0061
    1DPPC   PO4 2642   3.346  13.796   6.897 -0.0742  0.4443 -0.1921
    1DPPC   GL1 2643   3.327  13.839   6.403  0.1579 -0.1788 -0.0715
    1DPPC   GL2 2644   3.033  13.973   6.315 -0.1855 -0.0784  0.1114
    1DPPC   C1A 2645   3.346  13.743   5.920 -0.4943  0.1596  0.0266
    1DPPC   C2A 2646   3.327  13.622   5.471 -0.1575 -0.0966  0.1684
    1DPPC   C3A 2647   3.375  13.704   5.022  0.0286 -0.0112 -0.0768
    1DPPC   C4A 2648   3.651  13.793   4.653  0.0618 -0.0715  0.1854
    1DPPC   C1B 2649   2.904  14.050   5.865  0.2350 -0.0601 -0.2407
    1DPPC   C2B 2650   2.976  14.088   5.493  0.1107  0.0026 -0.0427
    1DPPC   C3B 2651   2.963  13.985   5.142  0.1238  0.3032 -0.0385
    1DPPC   C4B 2652   3.047  14.007   4.801 -0.0755 -0.2491  0.1072
    1DPPC   NC3 2653  26.907  22.228   6.483 -0.1202 -0.1125 -0.2096
    1DPPC   PO4 2654  27.157  21.861   6.301 -0.3370  0.1111 -0.0373
    1DPPC   GL1 2655  27.371  21.844   5.900  0.0918 -0.1192 -0.1571
    1DPPC   GL2 2656  27.338  22.053   5.683 -0.1144  0.2767  0.1601
    1DPPC   C1A 2657  27.702  21.715   5.603  0.1278  0.3128 -0.0530
    1DPPC   C2A 2658  27.956  21.389   5.393  0.0969 -0.1749 -0.2424
    1DPPC   C3A 2659  28.124  21.338   5.047  0.1417 -0.3311  0.0006
    1DPPC   C4A 2660  28.321  21.399   4.646 -0.1657  0.0740 -0.0231
    1DPPC   C1B 2661  27.590  22.144   5.354  0.0126 -0.1818  0.2775
    1DPPC   C2B 2662  27.874  21.838   5.098 -0.2674 -0.0284 -0.2996
    1DPPC   C3B 2663  28.117  21.843   4.760  0.0359  0.0081  0.2085
    1DPPC   C4B 2664  28.065  22.154   4.459 -0.2113 -0.0361  0.0587
    1DPPC   NC3 2665   0.550  11.995   6.595  0.2877  0.0033  0.0257
    1DPPC   PO4 2666   0.156  12.055   6.692  0.3294 -0.0078  0.1455
    1DPPC   GL1 2667   0.103  12.263   6.299 -0.0018  0.1406 -0.0084
    1DPPC   GL2 2668  -0.114  12.471   6.295  0.3820  0.1487  0.0812
    1DPPC   C1A 2669   0.117  12.179   5.868 -0.1657 -0.0065 -0.0831
    1DPPC   C2A 2670   0.039  12.018   5.509 -0.0480 -0.0216 -0.1649
    1DPPC   C3A 2671   0.033  11.930   5.002  0.0589 -0.0634 -0.0663
    1DPPC   C4A 2672  -0.023  11.595   4.605 -0.0669  0.1654 -0.1568
    1DPPC   C1B 2673  -0.154  12.594   5.885  0.0087 -0.3434 -0.2282
    1DPPC   C2B 2674   0.057  12.542   5.475  0.1954 -0.2120  0.1565
    1DPPC   C3B 2675  -0.162  12.431   4.999  0.0831  0.0068 -0.0274
    1DPPC   C4B 2676  -0.452  12.735   4.738 -0.2648  0.0330 -0.0475
    1DPPC   NC3 2677   5.193  18.043   6.649 -0.1638  0.4499  0.4547
    1DPPC   PO4 2678   4.886  18.237   6.510 -0.0586 -0.4116 -0.3290
    1DPPC   GL1 2679   4.725  18.230   6.236 -0.2710  0.0302 -0.2402
    1DPPC   GL2 2680   4.543  18.465   6.092 -0.1529 -0.0346 -0.0934
    1DPPC   C1A 2681   4.874  18.158   5.799 -0.0427 -0.3468  0.1565
    1DPPC   C2A 2682   4.868  18.155   5.392  0.0719  0.3716  0.0598
    1DPPC   C3A 2683   4.964  18.231   5.010 -0.0715  0.3892  0.2995
    1DPPC   C4A 2684   5.220  18.547   4.766  0.1042 -0.0009  0.1607
    1DPPC   C1B 2685   4.513  18.516   5.651 -0.0041  0.1231 -0.2721
    1DPPC   C2B 2686   4.543  18.533   5.173 -0.0299  0.1148 -0.1176
    1DPPC   C3B 2687   4.698  18.484   4.682  0.2564  0.0192  0.0049
    1DPPC   C4B 2688   4.895  18.135   4.468 -0.0928  0.2503  0.0572
    1DPPC   NC3 2689   8.201  16.989   6.980 -0.1860  0.1230  0.0643
    1DPPC   PO4 2690   8.526  17.357   6.881 -0.2487  0.1706 -0.4571
    1DPPC   GL1 2691   8.206  17.228   6.492 -0.1112 -0.1155  0.1129
    1DPPC   GL2 2692   7.863  17.057   6.514 -0.1054  0.0539 -0.2279
    1DPPC   C1A 2693   8.211  16.998   6.064 -0.2025  0.0542  0.1965
    1DPPC   C2A 2694   8.180  17.006   5.587  0.1198  0.1600 -0.3202
    1DPPC   C3A 2695   8.061  17.009   5.158 -0.3844 -0.0233  0.0052
    1DPPC   C4A 2696   8.137  16.834   4.827  0.1737 -0.0888 -0.3444
    1DPPC   C1B 2697   7.706  17.011   6.099 -0.0786  0.1491 -0.2251
    1DPPC   C2B 2698   7.695  16.879   5.664 -0.1498 -0.1373 -0.1117
    1DPPC   C3B 2699   7.951  16.603   5.404  0.0424  0.0494 -0.0902
    1DPPC   C4B 2700   8.109  16.411   5.049  0.2858 -0.0106  0.3062
    1DPPC   NC3 2701  24.418  17.668   5.156  0.2916 -0.2037  0.0107
    1DPPC   PO4 2702  23.980  17.429   5.168 -0.1710 -0.1248  0.1398
    1DPPC   GL1 2703  23.703  17.252   5.003 -0.0642  0.2715  0.1060
    1DPPC   GL2 2704  23.421  17.396   4.935  0.2725 -0.2942  0.1760
    1DPPC   C1A 2705  23.913  17.198   4.517  0.3281 -0.0259  0.0292
    1DPPC   C2A 2706  24.029  16.944   4.199 -0.3862  0.3582  0.1702
    1DPPC   C3A 2707  23.999  16.949   3.725 -0.2260 -0.0253  0.1937
    1DPPC   C4A 2708  24.294  16.975   3.406  0.1367  0.2411 -0.1016
    1DPPC   C1B 2709  23.549  17.607   4.561  0.1736  0.0618 -0.0379
    1DPPC   C2B 2710  23.740  17.722   4.207 -0.0568 -0.0580  0.0640
    1DPPC   C3B 2711  23.922  17.474   3.816 -0.3275 -0.2507 -0.2176
    1DPPC   C4B 2712  24.216  17.498   3.588  0.3212 -0.1172 -0.0156
    1DPPC   NC3 2713   8.407  13.065   7.352  0.1497  0.1615  0.2032
    1DPPC   PO4 2714   8.014  13.243   7.282 -0.1029  0.0677 -0.0770
    1DPPC   GL1 2715   7.802  13.222   6.808  0.1812  0.1584 -0.0703
    1DPPC   GL2 2716   7.604  13.443   6.679  0.1181 -0.2364  0.0601
    1DPPC   C1A 2717   7.621  13.004   6.469  0.4669  0.0526 -0.0603
    1DPPC   C2A 2718   7.597  13.000   6.133  0.3688  0.1229  0.0387
    1DPPC   C3A 2719   7.615  12.989   5.726 -0.0353  0.0173 -0.0773
    1DPPC   C4A 2720   7.538  12.991   5.191  0.2307  0.0259 -0.0733
    1DPPC   C1B 2721   7.755  13.525   6.316 -0.1899  0.4458  0.2395
    1DPPC   C2B 2722   7.787  13.504   5.897 -0.1078 -0.0797 -0.3518
    1DPPC   C3B 2723   7.754  13.396   5.446  0.0047 -0.0315 -0.0135
    1DPPC   C4B 2724   7.606  13.611   4.947  0.1790 -0.1075 -0.0378
    1DPPC   NC3 2725   9.176  11.355   7.160  0.1431 -0.1586  0.2122
    1DPPC   PO4 2726   9.413  10.930   6.972 -0.0934 -0.2860 -0.0234
    1DPPC   GL1 2727   9.508  10.943   6.537  0.2481 -0.1995 -0.0519
    1DPPC   GL2 2728   9.699  10.737   6.421  0.1132 -0.0565  0.0745
    1DPPC   C1A 2729   9.711  11.220   6.333 -0.0209 -0.3323  0.2548
    1DPPC   C2A 2730   9.762  11.329   5.873 -0.0305  0.2073 -0.2045
    1DPPC   C3A 2731   9.884  11.403   5.440  0.0098  0.0170 -0.1563
    1DPPC   C4A 2732  10.080  11.440   4.922 -0.1625  0.1233  0.0980
    1DPPC   C1B 2733   9.876  10.857   6.059  0.3120  0.1422 -0.1776
    1DPPC   C2B 2734   9.925  10.906   5.659 -0.4691 -0.1933 -0.0695
    1DPPC   C3B 2735  10.008  10.973   5.167 -0.1191  0.0351 -0.0652
    1DPPC   C4B 2736   9.601  11.310   5.015 -0.1078  0.3985  0.0613
    1DPPC   NC3 2737   7.966  20.913   6.634 -0.0240 -0.0572  0.0283
    1DPPC   PO4 2738   8.362  20.682   6.429 -0.2713  0.2229 -0.1316
    1DPPC   GL1 2739   8.039  20.727   6.099 -0.0236  0.1401 -0.1721
    1DPPC   GL2 2740   7.720  20.820   6.171 -0.0472  0.1176 -0.1561
    1DPPC   C1A 2741   7.980  20.458   5.646  0.5021 -0.0724  0.0134
    1DPPC   C2A 2742   7.747  20.358   5.162  0.0521 -0.1064  0.1187
    1DPPC   C3A 2743   7.837  20.569   4.814 -0.1436 -0.0670 -0.0477
    1DPPC   C4A 2744   8.149  20.567   4.652  0.0924  0.0313 -0.0498
    1DPPC   C1B 2745   7.527  20.484   5.987  0.4000  0.2287 -0.1212
    1DPPC   C2B 2746   7.472  20.261   5.575 -0.0656  0.0165  0.1845
    1DPPC   C3B 2747   7.593  19.916   5.299 -0.1400 -0.0026  0.2314
    1DPPC   C4B 2748   7.465  19.622   5.103  0.2986  0.1294  0.0638
    1DPPC   NC3 2749  14.469  15.027   6.414 -0.0964  0.0712  0.0737
    1DPPC   PO4 2750  14.059  15.037   6.530  0.3179  0.1083 -0.4142
    1DPPC   GL1 2751  14.118  15.199   6.121  0.2260 -0.3026  0.0308
    1DPPC   GL2 2752  13.830  15.327   6.142  0.2338  0.2581  0.1238
    1DPPC   C1A 2753  14.070  15.157   5.653 -0.1532  0.0294 -0.0568
    1DPPC   C2A 2754  14.101  15.125   5.246  0.1480  0.0655 -0.1619
    1DPPC   C3A 2755  14.049  14.762   4.977  0.0227  0.3817 -0.1399
    1DPPC   C4A 2756  14.199  14.353   4.832 -0.0620 -0.0555 -0.0098
    1DPPC   C1B 2757  13.628  15.395   5.780 -0.0974 -0.2301 -0.0072
    1DPPC   C2B 2758  13.639  15.412   5.327  0.0424  0.1386  0.0669
    1DPPC   C3B 2759  13.582  15.521   4.920 -0.1339 -0.1693 -0.0258
    1DPPC   C4B 2760  13.729  15.660   4.526 -0.2686  0.3352  0.0101
    1DPPC   NC3 2761  25.283  15.981   5.313  0.0657  0.0672  0.3702
    1DPPC   PO4 2762  25.168  15.562   5.374  0.1205  0.3199  0.1444
    1DPPC   GL1 2763  25.292  15.425   4.999  0.0369  0.2401 -0.1256
    1DPPC   GL2 2764  25.620  15.310   4.863 -0.0898 -0.0535  0.1644
    1DPPC   C1A 2765  25.244  15.525   4.508  0.0599  0.3521  0.2489
    1DPPC   C2A 2766  25.355  15.527   4.042  0.0102 -0.1065 -0.3194
    1DPPC   C3A 2767  25.367  15.526   3.709 -0.0925 -0.2068  0.1982
    1DPPC   C4A 2768  25.397  15.334   3.359  0.1893 -0.0676 -0.2892
    1DPPC   C1B 2769  25.737  15.301   4.441 -0.0312  0.2771  0.2960
    1DPPC   C2B 2770  25.853  15.337   3.984 -0.2019  0.1122 -0.2316
    1DPPC   C3B 2771  25.826  15.360   3.506  0.0565 -0.1975  0.1724
    1DPPC   C4B 2772  25.989  15.569   3.181 -0.1851 -0.3771 -0.0207
    1DPPC   NC3 2773   1.619  15.191   6.766  0.0989 -0.0953 -0.1685
    1DPPC   PO4 2774   1.807  15.620   6.616  0.0573 -0.1255 -0.0451
    1DPPC   GL1 2775   1.847  15.762   6.228  0.2563  0.1261 -0.3256
    1DPPC   GL2 2776   2.223  15.835   6.211  0.1548  0.0735  0.1391
    1DPPC   C1A 2777   1.897  15.810   5.686 -0.1407 -0.2584 -0.0240
    1DPPC   C2A 2778   1.835  15.970   5.295 -0.0874 -0.1392  0.2506
    1DPPC   C3A 2779   1.829  16.021   4.866 -0.1840 -0.3441 -0.0674
    1DPPC   C4A 2780   2.041  15.991   4.532  0.0885  0.1986 -0.0383
    1DPPC   C1B 2781   2.423  15.877   5.796 -0.1868 -0.1220  0.0842
    1DPPC   C2B 2782   2.295  15.946   5.379 -0.0152  0.2411  0.0035
    1DPPC   C3B 2783   2.273  16.174   4.982  0.1500  0.0960 -0.1558
    1DPPC   C4B 2784   2.407  16.248   4.681  0.1269 -0.1195  0.3676
    1DPPC   NC3 2785  28.608  10.743   6.303 -0.2569  0.0951  0.0528
    1DPPC   PO4 2786  28.642  10.359   6.147 -0.2932 -0.0919  0.1062
    1DPPC   GL1 2787  28.468  10.452   5.823 -0.1504  0.0107 -0.0949
    1DPPC   GL2 2788  28.261  10.292   5.671  0.1192 -0.0298  0.1719
    1DPPC   C1A 2789  28.521  10.697   5.493  0.0517  0.0065 -0.1258
    1DPPC   C2A 2790  28.504  10.901   5.121  0.1190  0.1194 -0.0307
    1DPPC   C3A 2791  28.514  10.913   4.683  0.2609  0.3600 -0.0170
    1DPPC   C4A 2792  28.308  10.686   4.320  0.0143 -0.1066  0.1273
    1DPPC   C1B 2793  28.226  10.355   5.283  0.0472  0.1091 -0.0195
    1DPPC   C2B 2794  28.245  10.415   4.885  0.1660  0.1959 -0.2195
    1DPPC   C3B 2795  28.283  10.266   4.513  0.1339  0.1990  0.2290
    1DPPC   C4B 2796  28.139   9.977   4.221 -0.0423  0.1750  0.1799
    1DPPC   NC3 2797   9.225  16.080   7.233  0.1071  0.0264  0.2377
    1DPPC   PO4 2798   9.386  15.722   7.009 -0.1836 -0.1457  0.4935
    1DPPC   GL1 2799   9.467  15.703   6.594 -0.0626  0.0647 -0.0394
    1DPPC   GL2 2800   9.720  15.465   6.368  0.0603  0.0719 -0.0970
    1DPPC   C1A 2801   9.569  16.001   6.296 -0.0846  0.0807 -0.2725
    1DPPC   C2A 2802   9.538  15.964   5.970 -0.0065 -0.0491  0.1356
    1DPPC   C3A 2803   9.521  15.920   5.518  0.0896  0.0649 -0.0361
    1DPPC   C4A 2804   9.546  15.679   5.119 -0.0311 -0.1163  0.1331
    1DPPC   C1B 2805   9.426  15.462   6.028  0.0536 -0.0967 -0.0091
    1DPPC   C2B 2806   9.395  15.444   5.587  0.2541  0.0169 -0.0610
    1DPPC   C3B 2807   9.409  15.202   5.204 -0.3197 -0.1490  0.2483
    1DPPC   C4B 2808   9.364  15.123   4.836  0.2033  0.2362  0.1643
    1DPPC   NC3 2809  27.228  19.320   6.021 -0.0109  0.4109 -0.0583
    1DPPC   PO4 2810  27.180  18.946   6.265  0.0699  0.1367  0.2790
    1DPPC   GL1 2811  27.178  18.869   5.736  0.2013 -0.3092  0.0806
    1DPPC   GL2 2812  26.917  18.920   5.503  0.4374  0.2154 -0.1199
    1DPPC   C1A 2813  27.443  18.859   5.442 -0.1366 -0.2121  0.1702
    1DPPC   C2A 2814  27.426  18.885   5.032 -0.3024  0.2452  0.2725
    1DPPC   C3A 2815  27.454  18.873   4.649  0.0048 -0.1633 -0.1657
    1DPPC   C4A 2816  27.684  19.006   4.269  0.1375  0.0833 -0.1691
    1DPPC   C1B 2817  26.935  18.635   5.117  0.2320 -0.0315  0.2324
    1DPPC   C2B 2818  27.077  18.596   4.737  0.3528 -0.0441 -0.0241
    1DPPC   C3B 2819  26.996  18.700   4.388  0.3606  0.1117  0.1490
    1DPPC   C4B 2820  27.108  18.920   4.010 -0.2078  0.0058 -0.3828
    1DPPC   NC3 2821   3.911  14.799   6.689 -0.3067 -0.0561  0.1965
    1DPPC   PO4 2822   3.449  15.046   6.649  0.2655 -0.3431  0.1133
    1DPPC   GL1 2823   3.397  15.107   6.252 -0.0488  0.0166 -0.0367
    1DPPC   GL2 2824   3.575  15.455   6.102 -0.1477  0.1131 -0.2081
    1DPPC   C1A 2825   3.432  15.117   5.765 -0.1450  0.1757  0.2832
    1DPPC   C2A 2826   3.483  15.120   5.393 -0.1634  0.1896  0.2901
    1DPPC   C3A 2827   3.439  15.049   5.009 -0.2937  0.2284 -0.0258
    1DPPC   C4A 2828   3.818  15.139   4.659 -0.1914 -0.4906 -0.0342
    1DPPC   C1B 2829   3.768  15.464   5.718 -0.1159  0.1300  0.0234
    1DPPC   C2B 2830   3.778  15.524   5.271 -0.0752 -0.1241  0.1518
    1DPPC   C3B 2831   3.696  15.560   4.936 -0.0750  0.1859  0.3864
    1DPPC   C4B 2832   3.433  15.607   4.525  0.0276 -0.4531 -0.0593
    1DPPC   NC3 2833  26.990  20.852   5.834  0.0575  0.0534  0.3010
    1DPPC   PO4 2834  27.369  20.692   5.912  0.0708  0.1533 -0.1661
    1DPPC   GL1 2835  27.357  20.867   5.484 -0.1173 -0.1886 -0.1736
    1DPPC   GL2 2836  27.647  20.744   5.510  0.0047  0.0054  0.2237
    1DPPC   C1A 2837  27.308  20.744   5.113  0.0654 -0.1188  0.2160
    1DPPC   C2A 2838  27.328  20.608   4.647 -0.1722 -0.0999  0.1333
    1DPPC   C3A 2839  27.277  20.365   4.291 -0.0116  0.2722 -0.2641
    1DPPC   C4A 2840  27.131  19.942   4.158 -0.0076  0.0453 -0.2876
    1DPPC   C1B 2841  27.885  20.660   5.060  0.0469  0.0743  0.0986
    1DPPC   C2B 2842  28.155  20.867   4.748 -0.0570  0.1306  0.0417
    1DPPC   C3B 2843  28.258  20.762   4.304 -0.0582  0.0677  0.3750
    1DPPC   C4B 2844  28.571  20.673   3.972  0.0416  0.0350 -0.0608
    1DPPC   NC3 2845   2.915  11.420   6.785 -0.0266 -0.1987  0.0143
    1DPPC   PO4 2846   2.907  11.016   6.666 -0.3292 -0.0504  0.0028
    1DPPC   GL1 2847   2.555  10.998   6.382  0.0745 -0.2950 -0.1007
    1DPPC   GL2 2848   2.479  11.261   6.556 -0.1678  0.3897 -0.1486
    1DPPC   C1A 2849   2.409  11.042   5.971 -0.0077 -0.1754  0.0878
    1DPPC   C2A 2850   2.382  11.101   5.640 -0.1434 -0.0430  0.0514
    1DPPC   C3A 2851   2.366  11.094   5.238 -0.1320 -0.1999  0.0441
    1DPPC   C4A 2852   2.520  11.138   4.781 -0.2581 -0.1614  0.0883
    1DPPC   C1B 2853   2.353  11.458   6.219  0.0723 -0.0206 -0.3050
    1DPPC   C2B 2854   2.255  11.577   5.870  0.1011  0.1545  0.3864
    1DPPC   C3B 2855   2.188  11.573   5.399  0.3414 -0.1799  0.1072
    1DPPC   C4B 2856   2.190  11.526   4.943 -0.2175 -0.1721 -0.1161
    1DPPC   NC3 2857   4.055   9.475   6.888 -0.0287  0.0492 -0.1745
    1DPPC   PO4 2858   3.973   9.521   6.421 -0.3116 -0.0065 -0.1107
    1DPPC   GL1 2859   3.904   9.612   6.027 -0.1604 -0.1524  0.3317
    1DPPC   GL2 2860   3.866   9.346   5.849 -0.1318 -0.2820 -0.0893
    1DPPC   C1A 2861   4.002   9.865   5.555  0.0151 -0.0167 -0.3095
    1DPPC   C2A 2862   4.235   9.894   5.176 -0.2879  0.1746  0.0245
    1DPPC   C3A 2863   4.148  10.043   4.635  0.1384 -0.2995 -0.1573
    1DPPC   C4A 2864   4.038  10.383   4.339  0.1630 -0.1395 -0.0945
    1DPPC   C1B 2865   4.075   9.387   5.507 -0.2181  0.1722 -0.1201
    1DPPC   C2B 2866   4.193   9.319   5.156  0.1492 -0.0199  0.1528
    1DPPC   C3B 2867   4.391   9.249   4.771  0.2343 -0.0233  0.1670
    1DPPC   C4B 2868   4.542   9.354   4.386  0.2685  0.0284 -0.1106
    1DPPC   NC3 2869   5.105  10.555   6.831 -0.1107  0.0646  0.2403
    1DPPC   PO4 2870   4.711  10.844   6.921 -0.1835 -0.5550  0.1067
    1DPPC   GL1 2871   4.749  10.835   6.509 -0.3330 -0.1190  0.1274
    1DPPC   GL2 2872   4.800  10.614   6.382 -0.0259  0.0864  0.2376
    1DPPC   C1A 2873   4.973  11.018   6.235 -0.0619 -0.3040  0.2773
    1DPPC   C2A 2874   5.104  10.979   5.795 -0.0844  0.1267  0.0196
    1DPPC   C3A 2875   5.082  10.886   5.382 -0.0744  0.0938 -0.1504
    1DPPC   C4A 2876   5.275  10.926   5.033 -0.0278 -0.2481 -0.0085
    1DPPC   C1B 2877   4.938  10.561   5.989  0.2926 -0.0559  0.0952
    1DPPC   C2B 2878   4.995  10.447   5.609 -0.0625  0.0343 -0.0126
    1DPPC   C3B 2879   5.177  10.376   5.221  0.0674 -0.0277  0.1557
    1DPPC   C4B 2880   5.232  10.412   4.800 -0.0703  0.2478 -0.2824
    1DPPC   NC3 2881   1.623  18.722   6.792 -0.3736 -0.2986  0.0227
    1DPPC   PO4 2882   1.661  18.852   6.355  0.0223  0.2503 -0.4186
    1DPPC   GL1 2883   1.769  18.708   5.952  0.0036 -0.2650 -0.2097
    1DPPC   GL2 2884   2.096  18.651   6.079  0.0097 -0.0698  0.2173
    1DPPC   C1A 2885   1.954  18.567   5.576  0.2443  0.2675  0.0309
    1DPPC   C2A 2886   2.029  18.523   5.139 -0.3888 -0.1052 -0.3216
    1DPPC   C3A 2887   2.202  18.558   4.709 -0.1198 -0.0623  0.1044
    1DPPC   C4A 2888   2.511  18.311   4.461 -0.0809 -0.0398 -0.0053
    1DPPC   C1B 2889   2.448  18.491   5.793 -0.2021  0.1784  0.3509
    1DPPC   C2B 2890   2.516  18.478   5.326  0.0705  0.1165  0.0097
    1DPPC   C3B 2891   2.671  18.575   4.915 -0.2800  0.0339 -0.2636
    1DPPC   C4B 2892   2.856  18.703   4.621  0.0426  0.1943  0.2019
    1DPPC   NC3 2893  24.783  16.193   5.338  0.0267  0.3894  0.0928
    1DPPC   PO4 2894  24.392  16.408   5.198 -0.1409 -0.8042 -0.3307
    1DPPC   GL1 2895  24.151  16.513   4.761  0.3659  0.2762 -0.0846
    1DPPC   GL2 2896  24.291  16.598   4.399 -0.0466  0.0357 -0.0143
    1DPPC   C1A 2897  23.788  16.730   4.539 -0.0294  0.1204 -0.0525
    1DPPC   C2A 2898  23.527  16.734   4.093 -0.2950 -0.0779  0.0370
    1DPPC   C3A 2899  23.554  16.412   3.677  0.0611  0.1182 -0.1130
    1DPPC   C4A 2900  23.323  16.093   3.432  0.1485  0.0173  0.2480
    1DPPC   C1B 2901  24.468  16.667   3.996  0.1413 -0.0628  0.0507
    1DPPC   C2B 2902  24.708  16.792   3.617 -0.1898 -0.0176 -0.1308
    1DPPC   C3B 2903  24.971  16.901   3.250  0.1272 -0.4195  0.0605
    1DPPC   C4B 2904  25.184  17.029   2.868 -0.0378 -0.2654 -0.0858
    1DPPC   NC3 2905   3.914  10.086   7.400 -0.2608 -0.2307 -0.2273
    1DPPC   PO4 2906   4.191  10.166   7.002 -0.0418  0.0310 -0.1265
    1DPPC   GL1 2907   4.208  10.161   6.506  0.2854  0.0323 -0.2037
    1DPPC   GL2 2908   3.918   9.974   6.294 -0.0238 -0.0320 -0.0794
    1DPPC   C1A 2909   4.555  10.239   6.218 -0.1393 -0.2567 -0.1143
    1DPPC   C2A 2910   4.627  10.177   5.778  0.3224  0.0434 -0.0849
    1DPPC   C3A 2911   4.664  10.181   5.316 -0.1250  0.1978  0.2156
    1DPPC   C4A 2912   4.853  10.072   4.890 -0.0610 -0.2433 -0.2035
    1DPPC   C1B 2913   4.121  10.187   5.944  0.0069 -0.3246 -0.0057
    1DPPC   C2B 2914   4.191  10.295   5.531 -0.1304 -0.2067 -0.0880
    1DPPC   C3B 2915   4.212  10.382   5.203 -0.1206 -0.1575  0.4817
    1DPPC   C4B 2916   4.011  10.563   4.848 -0.1198  0.3584  0.0726
    1DPPC   NC3 2917   8.392  22.591   6.869 -0.1316  0.0697 -0.0938
    1DPPC   PO4 2918   8.608  22.770   6.579  0.0601  0.4468 -0.2909
    1DPPC   GL1 2919   8.815  22.780   6.143 -0.0902  0.0795  0.1290
    1DPPC   GL2 2920   8.470  22.718   6.036 -0.2294  0.1292  0.0072
    1DPPC   C1A 2921   8.989  22.870   5.729  0.3551 -0.0551 -0.0203
    1DPPC   C2A 2922   8.751  22.695   5.331  0.2427 -0.1738 -0.1530
    1DPPC   C3A 2923   8.448  22.541   4.997  0.2213  0.0241  0.1822
    1DPPC   C4A 2924   7.936  22.576   4.888 -0.0414 -0.0270 -0.2463
    1DPPC   C1B 2925   8.490  22.441   5.715  0.0350  0.1195  0.3989
    1DPPC   C2B 2926   8.375  22.225   5.372  0.1503 -0.1845  0.0608
    1DPPC   C3B 2927   8.174  22.089   5.066 -0.4086 -0.1988  0.1476
    1DPPC   C4B 2928   8.318  21.859   4.659  0.0751 -0.0747  0.1947
    1DPPC   NC3 2929  28.253  15.177   6.056 -0.1377  0.0774  0.2232
    1DPPC   PO4 2930  28.504  14.790   6.113 -0.2574  0.1587 -0.0482
    1DPPC   GL1 2931  28.585  14.907   5.770 -0.1996  0.1738 -0.1786
    1DPPC   GL2 2932  28.935  14.793   5.671 -0.1546 -0.2708  0.0397
    1DPPC   C1A 2933  28.599  14.944   5.384 -0.2646 -0.2184 -0.1919
    1DPPC   C2A 2934  28.605  14.814   4.945 -0.1457  0.1519  0.0171
    1DPPC   C3A 2935  28.709  14.620   4.583 -0.1994  0.1928 -0.1744
    1DPPC   C4A 2936  28.827  14.377   4.182 -0.0034 -0.0926 -0.0377
    1DPPC   C1B 2937  29.009  14.758   5.192 -0.1185  0.0444  0.0191
    1DPPC   C2B 2938  29.190  14.809   4.742 -0.0012  0.3977 -0.2035
    1DPPC   C3B 2939  29.114  14.786   4.265 -0.0379  0.2967 -0.2045
    1DPPC   C4B 2940  28.952  14.757   3.847  0.1573 -0.0624 -0.0731
    1DPPC   NC3 2941   2.598  14.686   6.673 -0.2145  0.0172  0.0021
    1DPPC   PO4 2942   3.079  14.655   6.806 -0.1515  0.0786  0.1645
    1DPPC   GL1 2943   3.309  14.572   6.422  0.2420  0.0353 -0.1514
    1DPPC   GL2 2944   3.591  14.589   6.331  0.1694 -0.0787  0.1376
    1DPPC   C1A 2945   3.340  14.286   6.061 -0.2849  0.1031  0.0404
    1DPPC   C2A 2946   3.510  14.193   5.670 -0.0170  0.3074 -0.0466
    1DPPC   C3A 2947   3.462  14.160   5.199 -0.0230  0.0132  0.0439
    1DPPC   C4A 2948   3.467  14.352   4.811 -0.0137  0.0702 -0.0373
    1DPPC   C1B 2949   3.613  14.666   5.893  0.0022  0.2521 -0.0303
    1DPPC   C2B 2950   3.641  14.697   5.434  0.0038  0.1714  0.0372
    1DPPC   C3B 2951   3.870  14.637   5.126  0.3141  0.0855 -0.0574
    1DPPC   C4B 2952   3.843  14.602   4.632 -0.3382 -0.0658  0.1483
    1DPPC   NC3 2953   3.437   9.837   6.467 -0.1514 -0.0290  0.2497
    1DPPC   PO4 2954   3.324  10.282   6.682  0.0462  0.0271  0.2977
    1DPPC   GL1 2955   3.319  10.364   6.255  0.1757  0.1906  0.1636
    1DPPC   GL2 2956   3.101  10.188   6.083  0.1966 -0.0728 -0.3092
    1DPPC   C1A 2957   3.311  10.608   5.878 -0.0203  0.1571 -0.1709
    1DPPC   C2A 2958   3.492  10.670   5.476  0.1968 -0.3036 -0.0420
    1DPPC   C3A 2959   3.550  10.691   5.023 -0.0532  0.2278  0.1043
    1DPPC   C4A 2960   3.500  10.680   4.558  0.0755 -0.0034  0.1008
    1DPPC   C1B 2961   3.061  10.285   5.556 -0.1184  0.0559 -0.0163
    1DPPC   C2B 2962   3.131  10.438   5.206 -0.0956  0.1321 -0.0998
    1DPPC   C3B 2963   3.253  10.220   4.783  0.2308  0.2238 -0.0371
    1DPPC   C4B 2964   3.153  10.130   4.407 -0.0987  0.0301 -0.1418
    1DPPC   NC3 2965  29.334  22.862   6.532  0.2366  0.1006 -0.0695
    1DPPC   PO4 2966  29.286  23.321   6.606  0.0729  0.3357  0.2427
    1DPPC   GL1 2967  29.290  23.466   6.245  0.1024  0.2171  0.0615
    1DPPC   GL2 2968  29.147  23.520   6.005  0.3342 -0.1082  0.0827
    1DPPC   C1A 2969  29.640  23.213   5.969  0.1126 -0.1830  0.0624
    1DPPC   C2A 2970  30.028  23.092   5.736 -0.1875 -0.1241 -0.1528
    1DPPC   C3A 2971  30.113  22.642   5.613 -0.2159 -0.2655 -0.2810
    1DPPC   C4A 2972  30.343  22.328   5.515 -0.2231  0.2307  0.0357
    1DPPC   C1B 2973  29.411  23.508   5.630  0.1739  0.3951 -0.3037
    1DPPC   C2B 2974  29.356  23.453   5.190  0.0925 -0.2554  0.0769
    1DPPC   C3B 2975  29.203  23.439   4.778 -0.0454  0.1292 -0.1774
    1DPPC   C4B 2976  29.329  23.756   4.441 -0.1877  0.0528  0.0197
    1DPPC   NC3 2977  24.139   7.356   7.303 -0.1567 -0.0213  0.0901
    1DPPC   PO4 2978  24.077   7.006   7.048 -0.0676 -0.0347  0.2534
    1DPPC   GL1 2979  23.990   6.605   6.728  0.2354  0.1177 -0.1927
    1DPPC   GL2 2980  23.983   6.726   6.363  0.2886 -0.0415 -0.0271
    1DPPC   C1A 2981  23.730   6.337   6.458  0.0925 -0.1846 -0.2121
    1DPPC   C2A 2982  23.460   6.078   6.060 -0.0955  0.0617  0.2581
    1DPPC   C3A 2983  23.373   5.922   5.739  0.2079 -0.1490  0.1061
    1DPPC   C4A 2984  23.141   5.951   5.386  0.1037  0.1620  0.2008
    1DPPC   C1B 2985  24.207   6.387   6.158  0.1639 -0.1366 -0.0057
    1DPPC   C2B 2986  23.957   5.990   6.033  0.2012 -0.2540 -0.1237
    1DPPC   C3B 2987  23.853   5.763   5.579  0.1018 -0.0133 -0.1774
    1DPPC   C4B 2988  23.841   5.641   5.210 -0.1961  0.2350  0.0140
    1DPPC   NC3 2989  25.930  19.007   5.747  0.0178 -0.3515  0.5859
    1DPPC   PO4 2990  25.561  19.223   5.518 -0.1470  0.1031  0.1204
    1DPPC   GL1 2991  25.708  19.581   5.307  0.0212  0.1150  0.0843
    1DPPC   GL2 2992  25.840  19.901   5.288 -0.2485 -0.0789  0.2344
    1DPPC   C1A 2993  25.700  19.533   4.890 -0.0891 -0.1032 -0.2104
    1DPPC   C2A 2994  25.684  19.731   4.562 -0.0587  0.2098 -0.0439
    1DPPC   C3A 2995  25.728  19.513   4.180  0.0397 -0.0900 -0.1393
    1DPPC   C4A 2996  25.823  19.102   4.006  0.0120  0.1764  0.0704
    1DPPC   C1B 2997  26.077  19.845   4.960 -0.2443  0.0817 -0.1788
    1DPPC   C2B 2998  26.246  19.896   4.596  0.1282  0.1744 -0.1121
    1DPPC   C3B 2999  26.102  19.840   4.260  0.0206  0.1520 -0.0492
    1DPPC   C4B 3000  25.808  19.791   3.801 -0.0662 -0.0317 -0.2299
    1DPPC   NC3 3001  25.465  21.152   6.006 -0.2455  0.2757 -0.2313
    1DPPC   PO4 3002  25.717  21.515   5.855 -0.0619 -0.1200 -0.0864
    1DPPC   GL1 3003  25.619  21.377   5.472 -0.4806 -0.0023  0.0663
    1DPPC   GL2 3004  25.484  21.050   5.475  0.4638  0.0990 -0.1304
    1DPPC   C1A 3005  25.389  21.458   5.147  0.0054  0.0223 -0.2750
    1DPPC   C2A 3006  25.496  21.375   4.736 -0.1541 -0.0791 -0.0805
    1DPPC   C3A 3007  25.421  21.624   4.436  0.2479 -0.1928 -0.2531
    1DPPC   C4A 3008  25.452  21.785   3.998  0.1398  0.1109 -0.0489
    1DPPC   C1B 3009  25.505  20.975   5.099 -0.3103  0.2865  0.0752
    1DPPC   C2B 3010  25.495  20.849   4.726 -0.1729  0.0182 -0.2743
    1DPPC   C3B 3011  25.456  20.766   4.257  0.0498 -0.1542 -0.4235
    1DPPC   C4B 3012  25.567  20.416   3.860 -0.2710 -0.1416  0.3334
    1DPPC   NC3 3013  25.217  18.808   5.379 -0.2360  0.1474  0.0438
    1DPPC   PO4 3014  25.519  18.712   5.714 -0.0862  0.0734  0.2387
    1DPPC   GL1 3015  25.727  18.703   5.329  0.2161  0.0243  0.0818
    1DPPC   GL2 3016  25.779  18.440   5.374 -0.1558  0.1009 -0.1362
    1DPPC   C1A 3017  25.726  18.891   4.846  0.0320  0.0793 -0.3512
    1DPPC   C2A 3018  25.621  19.091   4.487 -0.0266  0.1327 -0.3010
    1DPPC   C3A 3019  25.307  19.103   4.156  0.0053  0.3151 -0.1018
    1DPPC   C4A 3020  25.289  18.897   3.731 -0.0795 -0.0198  0.2252
    1DPPC   C1B 3021  25.599  18.415   4.995  0.3481  0.0426  0.2502
    1DPPC   C2B 3022  25.479  18.545   4.582  0.0195 -0.2255  0.0667
    1DPPC   C3B 3023  25.449  18.561   4.143  0.0186  0.0942  0.0224
    1DPPC   C4B 3024  25.758  18.573   3.817 -0.2175 -0.0946 -0.1749
    1DPPC   NC3 3025  29.039  20.461   6.522 -0.2095 -0.1305 -0.1030
    1DPPC   PO4 3026  29.168  20.905   6.604 -0.0946 -0.3185 -0.1496
    1DPPC   GL1 3027  29.228  20.773   6.221  0.1029 -0.0086  0.0080
    1DPPC   GL2 3028  29.011  20.836   5.990  0.2246 -0.1532 -0.0525
    1DPPC   C1A 3029  29.604  20.731   5.898 -0.3017  0.0567 -0.1797
    1DPPC   C2A 3030  29.695  20.789   5.438  0.1497  0.0152 -0.0671
    1DPPC   C3A 3031  29.810  20.883   5.054 -0.4229 -0.0464 -0.0042
    1DPPC   C4A 3032  29.898  21.164   4.706 -0.0083 -0.0102  0.0800
    1DPPC   C1B 3033  28.973  20.817   5.578  0.0778  0.0570  0.0551
    1DPPC   C2B 3034  29.210  20.960   5.199 -0.1119 -0.1018 -0.3134
    1DPPC   C3B 3035  29.401  21.149   4.846 -0.0894  0.0587  0.0095
    1DPPC   C4B 3036  29.591  21.566   4.639 -0.3515  0.1532  0.1859
    1DPPC   NC3 3037  25.544  14.080   6.176 -0.1653 -0.0432  0.2791
    1DPPC   PO4 3038  25.273  13.897   5.793 -0.1615  0.2459 -0.2232
    1DPPC   GL1 3039  25.482  13.976   5.311 -0.0827 -0.2688  0.0882
    1DPPC   GL2 3040  25.791  14.052   5.207 -0.1388  0.0378  0.0757
    1DPPC   C1A 3041  25.369  13.877   4.928 -0.0903 -0.1618  0.2598
    1DPPC   C2A 3042  25.407  13.961   4.483 -0.1665  0.2589 -0.2137
    1DPPC   C3A 3043  25.602  13.985   4.112  0.2249 -0.1386  0.1435
    1DPPC   C4A 3044  25.655  14.010   3.687 -0.0793 -0.0150  0.2362
    1DPPC   C1B 3045  25.891  13.970   4.841  0.0372  0.0523 -0.1877
    1DPPC   C2B 3046  25.972  13.958   4.475 -0.2517 -0.0189 -0.1527
    1DPPC   C3B 3047  26.019  13.716   4.122  0.1384  0.0257 -0.0693
    1DPPC   C4B 3048  26.157  13.559   3.705 -0.0463 -0.0821  0.1572
    1DPPC   NC3 3049   3.771  14.004   7.005  0.0345 -0.0893  0.0327
    1DPPC   PO4 3050   3.559  14.408   6.931  0.1895  0.2859 -0.0838
    1DPPC   GL1 3051   3.661  14.146   6.574  0.1420 -0.2395 -0.3926
    1DPPC   GL2 3052   4.013  14.294   6.577  0.1680  0.0302  0.1463
    1DPPC   C1A 3053   3.774  14.082   6.201  0.2301  0.0863  0.3636
    1DPPC   C2A 3054   3.892  13.884   5.788  0.3330  0.4325  0.0384
    1DPPC   C3A 3055   3.859  13.739   5.381  0.2779 -0.3269  0.2037
    1DPPC   C4A 3056   3.865  13.582   5.018  0.3436  0.0325  0.1939
    1DPPC   C1B 3057   4.124  14.459   6.126 -0.2027  0.1052 -0.1136
    1DPPC   C2B 3058   3.963  14.346   5.748  0.3700  0.1859  0.1851
    1DPPC   C3B 3059   3.946  14.225   5.359 -0.0398  0.3008 -0.2192
    1DPPC   C4B 3060   3.888  14.112   4.930 -0.3325 -0.0252  0.2382
    1DPPC   NC3 3061   8.687  16.102   7.219 -0.1269  0.1231 -0.2451
    1DPPC   PO4 3062   8.835  15.771   6.901  0.1402 -0.0696 -0.2025
    1DPPC   GL1 3063   8.914  15.921   6.497 -0.0811 -0.0266 -0.2218
    1DPPC   GL2 3064   9.067  15.722   6.287  0.0961  0.0099  0.1474
    1DPPC   C1A 3065   8.662  16.276   6.302 -0.1231  0.3551 -0.0233
    1DPPC   C2A 3066   8.543  16.642   5.991 -0.1288  0.0089 -0.1145
    1DPPC   C3A 3067   8.451  16.576   5.625 -0.0672  0.1167 -0.3107
    1DPPC   C4A 3068   8.483  16.729   5.274  0.3449 -0.1189  0.1115
    1DPPC   C1B 3069   9.053  15.788   5.822 -0.0974  0.0715 -0.1401
    1DPPC   C2B 3070   8.926  15.737   5.400 -0.1248  0.2612 -0.0562
    1DPPC   C3B 3071   9.095  15.545   4.987  0.0229 -0.3794 -0.0155
    1DPPC   C4B 3072   9.275  15.708   4.648  0.0994 -0.0911 -0.0592
    1DPPC   NC3 3073   4.361  18.814   6.453  0.0005  0.1210  0.1199
    1DPPC   PO4 3074   4.651  18.708   6.580 -0.0507 -0.1666 -0.3090
    1DPPC   GL1 3075   5.037  18.657   6.274  0.0290  0.1886  0.2086
    1DPPC   GL2 3076   5.350  18.525   6.440  0.5496 -0.1481  0.1564
    1DPPC   C1A 3077   4.934  18.680   5.807 -0.3257 -0.1953  0.0312
    1DPPC   C2A 3078   5.045  18.706   5.419 -0.0008  0.2695  0.2282
    1DPPC   C3A 3079   4.923  18.820   5.052  0.0757  0.0879  0.1415
    1DPPC   C4A 3080   4.912  18.931   4.656 -0.4313  0.1590 -0.0078
    1DPPC   C1B 3081   5.300  18.368   6.014  0.1744  0.0128 -0.2548
    1DPPC   C2B 3082   5.360  18.382   5.678 -0.2244 -0.2839  0.0679
    1DPPC   C3B 3083   5.395  18.416   5.248 -0.0949  0.0448  0.1307
    1DPPC   C4B 3084   5.669  18.309   5.007  0.0293  0.0756  0.3542
    1DPPC   NC3 3085   0.722  20.940   6.733  0.1184 -0.1899 -0.0829
    1DPPC   PO4 3086   1.044  20.646   6.594  0.1497  0.2436 -0.0933
    1DPPC   GL1 3087   1.107  20.354   6.412  0.2025  0.1378  0.1665
    1DPPC   GL2 3088   1.055  20.116   6.417 -0.1711 -0.1026  0.0874
    1DPPC   C1A 3089   1.294  20.483   5.997  0.0525 -0.0346  0.0166
    1DPPC   C2A 3090   1.290  20.582   5.587  0.2252 -0.0074 -0.2077
    1DPPC   C3A 3091   1.462  20.760   5.257  0.1767  0.1524  0.0635
    1DPPC   C4A 3092   1.359  20.857   4.918 -0.2031  0.0459  0.3892
    1DPPC   C1B 3093   0.931  20.064   6.027  0.2793 -0.1556  0.2876
    1DPPC   C2B 3094   0.939  20.204   5.591 -0.0412 -0.0147  0.1758
    1DPPC   C3B 3095   0.899  20.416   5.222  0.0426  0.0816  0.0379
    1DPPC   C4B 3096   0.852  20.488   4.821  0.0787  0.1446  0.0455
    1DPPC   NC3 3097   2.943  10.384   6.922  0.0009  0.0585 -0.0270
    1DPPC   PO4 3098   2.487  10.345   6.901 -0.1299  0.1334 -0.3885
    1DPPC   GL1 3099   2.312  10.489   6.479 -0.2138 -0.0844 -0.2106
    1DPPC   GL2 3100   2.016  10.725   6.414 -0.0594  0.0829  0.0418
    1DPPC   C1A 3101   2.213  10.195   6.120 -0.0348 -0.2425  0.0385
    1DPPC   C2A 3102   2.150  10.237   5.682  0.2291  0.2711  0.1146
    1DPPC   C3A 3103   2.265  10.382   5.343 -0.1453 -0.2250 -0.0281
    1DPPC   C4A 3104   2.054  10.329   4.892  0.0608 -0.3410  0.2503
    1DPPC   C1B 3105   2.092  10.669   5.971  0.1144  0.3415 -0.2212
    1DPPC   C2B 3106   2.042  10.758   5.575  0.0944 -0.0720  0.2013
    1DPPC   C3B 3107   1.971  10.720   5.200 -0.0750 -0.2366  0.0096
    1DPPC   C4B 3108   2.079  10.832   4.831 -0.1340  0.2853 -0.1287
    1DPPC   NC3 3109   3.032  12.088   7.139 -0.1875  0.0065 -0.0980
    1DPPC   PO4 3110   2.924  11.938   6.852 -0.1544 -0.1490  0.2876
    1DPPC   GL1 3111   3.012  11.786   6.430  0.0085 -0.1410  0.0562
    1DPPC   GL2 3112   2.749  11.739   6.393  0.0227 -0.2000  0.0361
    1DPPC   C1A 3113   3.218  11.642   6.070  0.1907  0.0527  0.0781
    1DPPC   C2A 3114   3.278  11.541   5.692  0.2148  0.1497  0.1697
    1DPPC   C3A 3115   3.238  11.532   5.243  0.1936 -0.1235  0.0323
    1DPPC   C4A 3116   3.452  11.852   4.896 -0.0609  0.4172 -0.1992
    1DPPC   C1B 3117   2.550  11.924   6.114 -0.0303 -0.2520  0.0373
    1DPPC   C2B 3118   2.507  11.969   5.702  0.0980 -0.1577 -0.1983
    1DPPC   C3B 3119   2.479  11.947   5.204 -0.0183  0.0236 -0.4467
    1DPPC   C4B 3120   2.310  12.037   4.741  0.0096 -0.0027 -0.0607
    1DPPC   NC3 3121  28.812  11.452   6.844  0.0770  0.1016 -0.1813
    1DPPC   PO4 3122  28.628  11.171   6.520 -0.1223 -0.2764 -0.0069
    1DPPC   GL1 3123  28.833  11.167   6.026 -0.1331  0.1769  0.1127
    1DPPC   GL2 3124  28.488  11.008   5.874  0.2146  0.0746 -0.0008
    1DPPC   C1A 3125  28.871  11.156   5.541 -0.5637  0.1777  0.2448
    1DPPC   C2A 3126  28.873  11.223   5.149 -0.1287 -0.2414 -0.1621
    1DPPC   C3A 3127  28.663  11.383   4.848 -0.0154  0.1342  0.1541
    1DPPC   C4A 3128  28.221  11.478   4.844  0.1385  0.0320 -0.0032
    1DPPC   C1B 3129  28.294  11.173   5.453 -0.0966 -0.1007  0.3736
    1DPPC   C2B 3130  27.932  11.314   5.253  0.2068  0.2805  0.0887
    1DPPC   C3B 3131  27.666  11.538   4.947  0.0039  0.2135 -0.1833
    1DPPC   C4B 3132  27.467  11.909   4.878  0.0149  0.0721 -0.0117
    1DPPC   NC3 3133  23.789   2.669   7.647 -0.0330  0.0326 -0.2418
    1DPPC   PO4 3134  23.870   2.483   7.314  0.1167  0.0965  0.1190
    1DPPC   GL1 3135  23.796   2.802   7.048 -0.1884 -0.0965  0.1971
    1DPPC   GL2 3136  23.590   2.715   6.840  0.0958  0.1520  0.0096
    1DPPC   C1A 3137  23.601   3.194   6.661  0.4170  0.1317  0.1511
    1DPPC   C2A 3138  23.501   3.583   6.587  0.0032 -0.0604 -0.0559
    1DPPC   C3A 3139  23.551   3.961   6.324 -0.0627 -0.3793  0.4414
    1DPPC   C4A 3140  23.232   4.269   6.133 -0.2478  0.0276 -0.0165
    1DPPC   C1B 3141  23.320   2.879   6.420 -0.2739  0.0854  0.2134
    1DPPC   C2B 3142  23.346   2.799   6.006 -0.2940  0.0493  0.5800
    1DPPC   C3B 3143  23.304   3.155   5.661 -0.2168  0.1406 -0.1373
    1DPPC   C4B 3144  22.921   3.431   5.768  0.1744  0.2162 -0.0662
    1DPPC   NC3 3145   6.505  23.420   7.200 -0.4377  0.0435  0.1688
    1DPPC   PO4 3146   6.458  23.065   6.950  0.0927 -0.0836  0.0332
    1DPPC   GL1 3147   6.604  23.201   6.474  0.2083 -0.2182  0.3280
    1DPPC   GL2 3148   6.364  23.460   6.345 -0.0998 -0.1520 -0.0536
    1DPPC   C1A 3149   6.655  23.063   6.128 -0.1451 -0.1594  0.0069
    1DPPC   C2A 3150   6.852  23.170   5.709 -0.1309 -0.1174  0.0303
    1DPPC   C3A 3151   7.156  23.188   5.366  0.1406  0.1775  0.0392
    1DPPC   C4A 3152   7.420  23.464   5.154 -0.1063 -0.1017 -0.0821
    1DPPC   C1B 3153   6.530  23.520   5.933 -0.3377 -0.1327  0.0775
    1DPPC   C2B 3154   6.611  23.543   5.471 -0.1441 -0.2995 -0.2147
    1DPPC   C3B 3155   6.407  23.607   5.043 -0.1439 -0.0499 -0.0576
    1DPPC   C4B 3156   6.172  23.621   4.734  0.1333  0.1169  0.2831
    1DPPC   NC3 3157  28.404  20.039   6.251  0.4412 -0.1225  0.3741
    1DPPC   PO4 3158  28.170  19.986   6.042 -0.0177 -0.1914 -0.0041
    1DPPC   GL1 3159  28.088  19.793   5.580 -0.1983 -0.2030  0.1113
    1DPPC   GL2 3160  27.854  19.749   5.391 -0.0414  0.0010 -0.0355
    1DPPC   C1A 3161  28.328  19.515   5.226 -0.1528 -0.1696 -0.2333
    1DPPC   C2A 3162  28.221  19.234   4.885 -0.1068  0.1917 -0.2408
    1DPPC   C3A 3163  28.203  19.062   4.526  0.2998 -0.1826  0.1253
    1DPPC   C4A 3164  28.116  19.048   4.088 -0.2816  0.0135 -0.3509
    1DPPC   C1B 3165  27.950  19.870   4.993  0.2738  0.0084  0.0013
    1DPPC   C2B 3166  27.989  19.970   4.628 -0.2591  0.0058 -0.1170
    1DPPC   C3B 3167  28.265  20.279   4.435 -0.1633 -0.0752 -0.0473
    1DPPC   C4B 3168  28.447  19.888   4.235  0.1338  0.0993 -0.1341
    1DPPC   NC3 3169   5.844  10.465   7.117  0.2840  0.1290 -0.2808
    1DPPC   PO4 3170   5.623  10.716   6.866 -0.0213  0.3103  0.1806
    1DPPC   GL1 3171   5.697  10.676   6.542 -0.3584  0.2946 -0.3980
    1DPPC   GL2 3172   5.750  10.299   6.320  0.1561 -0.0915 -0.4178
    1DPPC   C1A 3173   5.875  10.877   6.273 -0.1333  0.1224  0.0276
    1DPPC   C2A 3174   6.189  11.056   6.216  0.0117 -0.2612  0.0740
    1DPPC   C3A 3175   6.538  11.087   6.244 -0.2439  0.2239  0.0569
    1DPPC   C4A 3176   6.960  11.243   6.113  0.2055  0.0758 -0.2190
    1DPPC   C1B 3177   5.787  10.192   5.851 -0.1066  0.2017  0.0781
    1DPPC   C2B 3178   6.177  10.091   5.580 -0.0211  0.3780 -0.2053
    1DPPC   C3B 3179   6.449   9.844   5.858  0.3597  0.1542  0.2809
    1DPPC   C4B 3180   6.916   9.948   6.041  0.0097 -0.2985 -0.1758
    1DPPC   NC3 3181  12.404  18.446   6.866  0.0461  0.0762 -0.1952
    1DPPC   PO4 3182  12.217  18.325   6.384 -0.0587 -0.2031 -0.0996
    1DPPC   GL1 3183  12.032  18.234   6.094 -0.1190  0.0218 -0.0585
    1DPPC   GL2 3184  11.873  17.923   6.040  0.1808 -0.1415 -0.0678
    1DPPC   C1A 3185  11.986  18.381   5.750  0.0291 -0.1270  0.0909
    1DPPC   C2A 3186  11.834  18.514   5.326  0.1048  0.3042 -0.0462
    1DPPC   C3A 3187  11.673  18.835   5.280  0.2459 -0.1026 -0.1021
    1DPPC   C4A 3188  11.677  19.058   4.981  0.0118 -0.1056 -0.1056
    1DPPC   C1B 3189  12.129  17.818   5.751  0.2120 -0.1712 -0.0271
    1DPPC   C2B 3190  12.104  18.012   5.285  0.0966 -0.3636 -0.1970
    1DPPC   C3B 3191  11.974  18.207   4.927  0.3847  0.0222  0.0463
    1DPPC   C4B 3192  11.791  18.598   4.763  0.1818  0.1110  0.1219
    1DPPC   NC3 3193   3.735  17.460   6.425  0.0032  0.1405 -0.4042
    1DPPC   PO4 3194   3.332  17.564   6.511  0.1052  0.0062  0.1155
    1DPPC   GL1 3195   3.124  17.516   6.115  0.2243 -0.0217  0.1283
    1DPPC   GL2 3196   3.391  17.515   5.942 -0.2303 -0.3164  0.1775
    1DPPC   C1A 3197   2.903  17.455   5.749 -0.3107 -0.0055 -0.0226
    1DPPC   C2A 3198   2.746  17.632   5.392  0.0735  0.1083 -0.2353
    1DPPC   C3A 3199   2.732  17.680   4.969  0.0872  0.2533  0.5061
    1DPPC   C4A 3200   2.790  17.488   4.548  0.1338 -0.1927  0.0036
    1DPPC   C1B 3201   3.593  17.575   5.561 -0.0196 -0.0063 -0.0391
    1DPPC   C2B 3202   3.740  17.691   5.071 -0.4359  0.0018  0.1565
    1DPPC   C3B 3203   3.778  17.612   4.599  0.2290  0.1072  0.0752
    1DPPC   C4B 3204   4.146  17.696   4.256 -0.1665 -0.0065  0.0817
    1DPPC   NC3 3205   6.841  13.500   7.206  0.0658  0.1187  0.5337
    1DPPC   PO4 3206   6.605  13.038   7.189  0.2083  0.0180 -0.0298
    1DPPC   GL1 3207   6.669  12.824   6.785 -0.2272  0.0257  0.0467
    1DPPC   GL2 3208   6.974  12.763   6.820  0.0471 -0.3853  0.0899
    1DPPC   C1A 3209   6.568  12.698   6.349  0.4449  0.3618  0.0938
    1DPPC   C2A 3210   6.597  12.665   5.883 -0.0250 -0.2832 -0.2857
    1DPPC   C3A 3211   6.683  12.735   5.404 -0.0083 -0.2211  0.1204
    1DPPC   C4A 3212   6.596  12.511   5.087  0.1389 -0.2163  0.0446
    1DPPC   C1B 3213   7.035  12.827   6.427  0.1710 -0.0364  0.4362
    1DPPC   C2B 3214   7.074  12.825   5.910 -0.4009  0.2253  0.0256
    1DPPC   C3B 3215   7.150  12.918   5.460  0.0791  0.0385  0.1748
    1DPPC   C4B 3216   6.987  13.018   5.120  0.3014  0.0541  0.2115
    1DPPC   NC3 3217   5.130  15.134   6.939  0.3213  0.1672 -0.3118
    1DPPC   PO4 3218   5.632  15.121   7.016 -0.2360  0.1887 -0.1024
    1DPPC   GL1 3219   5.555  14.857   6.645  0.0835  0.1548  0.0110
    1DPPC   GL2 3220   5.316  14.751   6.504 -0.2186  0.1088  0.0518
    1DPPC   C1A 3221   5.431  15.140   6.257 -0.1165 -0.0024  0.0717
    1DPPC   C2A 3222   5.462  15.185   5.868 -0.2879 -0.1112 -0.0696
    1DPPC   C3A 3223   5.597  15.129   5.511 -0.0088  0.0493 -0.2011
    1DPPC   C4A 3224   5.567  15.347   5.131  0.1627 -0.0028  0.0550
    1DPPC   C1B 3225   5.491  14.591   6.154 -0.1020 -0.1090  0.1809
    1DPPC   C2B 3226   5.445  14.683   5.774 -0.0192  0.0927 -0.5570
    1DPPC   C3B 3227   5.330  14.691   5.359 -0.2861 -0.1250 -0.1218
    1DPPC   C4B 3228   5.283  14.334   5.101 -0.1583  0.1547  0.1697
    1DPPC   NC3 3229   9.366  14.374   6.737  0.0807  0.1194  0.0916
    1DPPC   PO4 3230   9.719  14.710   6.677  0.0006 -0.2977 -0.0653
    1DPPC   GL1 3231   9.639  14.531   6.183 -0.1394  0.1193 -0.0248
    1DPPC   GL2 3232   9.477  14.193   6.208  0.2074 -0.2059  0.1561
    1DPPC   C1A 3233   9.837  14.576   5.711 -0.1664 -0.3448  0.3735
    1DPPC   C2A 3234   9.869  14.363   5.333  0.1775  0.1474  0.0745
    1DPPC   C3A 3235   9.742  14.302   4.976 -0.2871  0.1364 -0.1928
    1DPPC   C4A 3236   9.623  14.651   4.787 -0.0234  0.0771  0.0658
    1DPPC   C1B 3237   9.546  14.236   5.762 -0.1157 -0.1596 -0.3032
    1DPPC   C2B 3238   9.668  13.921   5.515 -0.0385  0.1331  0.2933
    1DPPC   C3B 3239   9.950  13.900   5.208 -0.0527  0.3152 -0.1876
    1DPPC   C4B 3240  10.256  14.159   5.046  0.1191 -0.0796 -0.1526
    1DPPC   NC3 3241  26.906  17.906   6.423  0.3233  0.0255 -0.2641
    1DPPC   PO4 3242  26.996  17.973   6.009  0.0019  0.1607 -0.2976
    1DPPC   GL1 3243  27.102  18.093   5.587  0.0052  0.0825  0.0439
    1DPPC   GL2 3244  27.248  18.400   5.605 -0.2374 -0.1542 -0.0329
    1DPPC   C1A 3245  26.993  18.097   5.204  0.2665 -0.1526  0.2375
    1DPPC   C2A 3246  27.134  18.034   4.801 -0.2109 -0.2707  0.2317
    1DPPC   C3A 3247  27.176  18.200   4.434  0.1367 -0.0024 -0.2472
    1DPPC   C4A 3248  27.137  18.366   4.023  0.0395  0.0994  0.1115
    1DPPC   C1B 3249  27.399  18.428   5.071 -0.0172  0.2905 -0.1460
    1DPPC   C2B 3250  27.552  18.390   4.694  0.0103  0.0881 -0.1318
    1DPPC   C3B 3251  27.522  18.574   4.241 -0.0153  0.1328  0.0913
    1DPPC   C4B 3252  27.584  18.598   3.833 -0.0476 -0.1107 -0.0338
    1DPPC   NC3 3253   5.157  18.922   6.661  0.2313 -0.0160  0.1784
    1DPPC   PO4 3254   5.633  19.011   6.746  0.1288  0.0125 -0.1540
    1DPPC   GL1 3255   5.748  19.273   6.425 -0.0632 -0.1498  0.0440
    1DPPC   GL2 3256   5.659  19.593   6.325 -0.0321 -0.0382  0.0719
    1DPPC   C1A 3257   5.806  19.192   5.899  0.2190 -0.0593 -0.1985
    1DPPC   C2A 3258   6.061  19.114   5.472  0.3001  0.0472 -0.1604
    1DPPC   C3A 3259   6.409  19.030   5.078  0.3098  0.1691  0.2154
    1DPPC   C4A 3260   6.615  18.906   4.767  0.0550 -0.2580 -0.0083
    1DPPC   C1B 3261   5.926  19.676   5.996 -0.0893  0.1107  0.1333
    1DPPC   C2B 3262   6.062  19.796   5.625 -0.0282 -0.0128 -0.1234
    1DPPC   C3B 3263   5.978  19.903   5.220  0.2135 -0.2606 -0.4966
    1DPPC   C4B 3264   5.855  19.899   4.837 -0.0763 -0.1744  0.0110
    1DPPC   NC3 3265   3.124  12.945   7.241 -0.3614 -0.2875  0.0436
    1DPPC   PO4 3266   3.007  13.196   6.951  0.2416 -0.3714  0.1073
    1DPPC   GL1 3267   2.899  13.123   6.498 -0.1993  0.0217  0.0250
    1DPPC   GL2 3268   2.688  12.775   6.387  0.0044  0.1788 -0.1627
    1DPPC   C1A 3269   3.186  13.262   6.171 -0.0614  0.0568 -0.0482
    1DPPC   C2A 3270   3.215  13.206   5.854 -0.2069  0.0934 -0.0657
    1DPPC   C3A 3271   3.254  13.119   5.430  0.0525 -0.3502  0.2450
    1DPPC   C4A 3272   3.440  13.208   5.031 -0.1766 -0.1636 -0.2154
    1DPPC   C1B 3273   2.866  12.763   6.070  0.2468 -0.2604  0.0662
    1DPPC   C2B 3274   2.969  12.705   5.693  0.2344 -0.3606  0.0530
    1DPPC   C3B 3275   3.099  12.633   5.299 -0.1828 -0.3342 -0.0163
    1DPPC   C4B 3276   3.214  12.813   4.958 -0.1459 -0.1146 -0.2862
    1DPPC   NC3 3277  29.619  15.616   6.510 -0.0762 -0.2706 -0.2165
    1DPPC   PO4 3278  29.853  16.007   6.466 -0.0990 -0.3773  0.1050
    1DPPC   GL1 3279  29.852  15.943   6.100  0.3124  0.0606 -0.0530
    1DPPC   GL2 3280  29.645  15.697   5.996 -0.2935 -0.0261  0.0715
    1DPPC   C1A 3281  29.911  16.100   5.671 -0.0168  0.0057  0.0538
    1DPPC   C2A 3282  30.011  16.318   5.437  0.3050 -0.1552  0.0769
    1DPPC   C3A 3283  30.176  16.201   5.005 -0.0161 -0.4167  0.1703
    1DPPC   C4A 3284  30.342  16.115   4.561 -0.1229 -0.0755  0.2615
    1DPPC   C1B 3285  29.655  15.661   5.556  0.1333 -0.1033  0.3428
    1DPPC   C2B 3286  29.733  15.599   5.132  0.0536 -0.1341 -0.0086
    1DPPC   C3B 3287  29.723  15.483   4.666  0.0814  0.0222  0.1404
    1DPPC   C4B 3288  29.839  15.464   4.215 -0.1204 -0.1733 -0.1991
    1DPPC   NC3 3289  28.383   8.381   6.262 -0.2630 -0.0908  0.2674
    1DPPC   PO4 3290  28.670   8.090   6.231 -0.0472  0.0263 -0.1117
    1DPPC   GL1 3291  28.539   8.059   5.876  0.0229 -0.0737  0.0109
    1DPPC   GL2 3292  28.696   7.818   5.760  0.0813  0.0067  0.1607
    1DPPC   C1A 3293  28.269   7.778   5.529 -0.0288  0.1003  0.1317
    1DPPC   C2A 3294  28.194   7.726   5.060 -0.1385 -0.1260  0.1816
    1DPPC   C3A 3295  28.307   7.993   4.750  0.1719  0.2579  0.1950
    1DPPC   C4A 3296  28.263   8.484   4.800 -0.3487  0.2173 -0.0508
    1DPPC   C1B 3297  28.758   7.758   5.333  0.1523 -0.2880  0.4376
    1DPPC   C2B 3298  28.723   7.756   4.914 -0.0297 -0.2695 -0.0363
    1DPPC   C3B 3299  28.473   7.406   4.740  0.3166  0.6325  0.2331
    1DPPC   C4B 3300  28.137   7.509   4.563  0.0796 -0.0295 -0.1067
    1DPPC   NC3 3301   0.224  14.236   6.769  0.0481  0.4217 -0.2039
    1DPPC   PO4 3302  -0.163  14.390   6.804  0.0538  0.2131 -0.1703
    1DPPC   GL1 3303  -0.014  14.482   6.363 -0.0158 -0.2565 -0.0470
    1DPPC   GL2 3304  -0.390  14.633   6.283  0.1401 -0.0257  0.0549
    1DPPC   C1A 3305   0.231  14.452   6.033  0.1233  0.2687 -0.0136
    1DPPC   C2A 3306   0.463  14.449   5.726 -0.2094 -0.0407  0.0400
    1DPPC   C3A 3307   0.588  14.360   5.449 -0.1290  0.2276  0.1265
    1DPPC   C4A 3308   0.620  14.203   5.118 -0.0262  0.0588 -0.3048
    1DPPC   C1B 3309  -0.240  14.660   5.930  0.0379 -0.1162  0.1285
    1DPPC   C2B 3310  -0.398  14.625   5.530 -0.1337 -0.2240 -0.0017
    1DPPC   C3B 3311  -0.295  14.513   5.086 -0.0808  0.0890  0.2335
    1DPPC   C4B 3312  -0.218  14.307   4.761 -0.0349 -0.0695 -0.2130
    1DPPC   NC3 3313   6.475   9.960   7.109 -0.0740  0.2173  0.0180
    1DPPC   PO4 3314   6.493  10.039   6.682  0.0578  0.0945  0.2617
    1DPPC   GL1 3315   6.394  10.124   6.329  0.1967 -0.1339  0.0241
    1DPPC   GL2 3316   6.135  10.076   6.158 -0.2708 -0.2928  0.1433
    1DPPC   C1A 3317   6.689  10.368   5.978  0.3023 -0.3420  0.0343
    1DPPC   C2A 3318   6.555  10.443   5.568 -0.0856  0.1509 -0.1469
    1DPPC   C3A 3319   6.587  10.858   5.286  0.2319 -0.1548 -0.0703
    1DPPC   C4A 3320   6.384  11.205   5.105 -0.2501  0.0503  0.1194
    1DPPC   C1B 3321   6.187  10.526   5.884 -0.0313  0.1909  0.1075
    1DPPC   C2B 3322   6.125  10.510   5.305 -0.2118  0.2128 -0.1402
    1DPPC   C3B 3323   6.137  10.409   4.848 -0.2135  0.1397 -0.1382
    1DPPC   C4B 3324   6.184  10.572   4.501  0.0323  0.2005 -0.3523
    1DPPC   NC3 3325  28.503  18.788   6.226 -0.0359  0.2951  0.0408
    1DPPC   PO4 3326  28.476  18.323   6.418  0.3351 -0.1543  0.0442
    1DPPC   GL1 3327  28.485  18.316   5.903 -0.1590 -0.1236  0.0610
    1DPPC   GL2 3328  28.146  18.236   5.776 -0.1178 -0.1045 -0.1783
    1DPPC   C1A 3329  28.601  18.243   5.418 -0.0561  0.1521  0.3803
    1DPPC   C2A 3330  28.612  18.214   4.965 -0.0339 -0.1734 -0.0304
    1DPPC   C3A 3331  28.634  18.083   4.520  0.0362  0.1006 -0.1368
    1DPPC   C4A 3332  28.847  18.249   4.232 -0.0030 -0.0731  0.1956
    1DPPC   C1B 3333  28.331  18.649   5.611 -0.0538  0.0577 -0.0549
    1DPPC   C2B 3334  28.325  18.814   5.172  0.2672 -0.3030 -0.0946
    1DPPC   C3B 3335  28.476  18.669   4.781  0.0699  0.2157  0.2237
    1DPPC   C4B 3336  28.466  18.647   4.330 -0.0735 -0.1465 -0.0588
    1DPPC   NC3 3337   4.626  10.092   7.297 -0.1056  0.2315  0.0932
    1DPPC   PO4 3338   4.952  10.068   6.973 -0.1269 -0.0351 -0.5527
    1DPPC   GL1 3339   4.940  10.059   6.501 -0.0755 -0.0413 -0.2009
    1DPPC   GL2 3340   5.254   9.971   6.277  0.0722  0.0133  0.1388
    1DPPC   C1A 3341   4.878   9.846   6.029  0.1299  0.0805 -0.2091
    1DPPC   C2A 3342   5.010   9.906   5.647 -0.0133 -0.3436 -0.4082
    1DPPC   C3A 3343   5.128   9.854   5.211 -0.2134 -0.0415 -0.1347
    1DPPC   C4A 3344   5.399   9.910   4.962 -0.0842  0.2470  0.0508
    1DPPC   C1B 3345   5.276  10.185   5.974 -0.0208 -0.0103  0.3783
    1DPPC   C2B 3346   5.437  10.136   5.537 -0.1750 -0.0244  0.1278
    1DPPC   C3B 3347   5.779  10.196   5.179  0.0837  0.1504  0.0887
    1DPPC   C4B 3348   6.124   9.963   4.999  0.1008 -0.2561 -0.2582
    1DPPC   NC3 3349   4.319  13.980   6.830  0.1215  0.2325 -0.1013
    1DPPC   PO4 3350   4.766  14.210   7.003  0.1619  0.2255  0.1741
    1DPPC   GL1 3351   4.801  14.053   6.650 -0.1784 -0.0873  0.2471
    1DPPC   GL2 3352   4.491  14.301   6.470 -0.0522  0.0476  0.1152
    1DPPC   C1A 3353   4.833  13.819   6.185  0.3336 -0.0896 -0.0235
    1DPPC   C2A 3354   4.705  13.745   5.744  0.2226  0.1498 -0.0309
    1DPPC   C3A 3355   4.805  13.657   5.295  0.0220 -0.1954  0.1066
    1DPPC   C4A 3356   4.877  13.473   4.932  0.1825 -0.2753  0.2327
    1DPPC   C1B 3357   4.489  14.129   6.040 -0.0917 -0.0161 -0.1313
    1DPPC   C2B 3358   4.345  14.072   5.526  0.1838  0.4569  0.0825
    1DPPC   C3B 3359   4.347  13.906   5.181  0.0230 -0.2122  0.0761
    1DPPC   C4B 3360   4.229  13.760   4.804 -0.0454  0.0606 -0.4594
    1DPPC   NC3 3361  14.725  23.839   6.679  0.0136  0.1930 -0.2716
    1DPPC   PO4 3362  14.700  24.288   6.751  0.0012 -0.2487  0.2144
    1DPPC   GL1 3363  14.883  24.227   6.308 -0.1892 -0.0143 -0.0582
    1DPPC   GL2 3364  14.842  23.908   6.226 -0.4732 -0.0327  0.2412
    1DPPC   C1A 3365  14.854  24.386   5.926  0.0358  0.1425  0.0879
    1DPPC   C2A 3366  14.667  24.291   5.458 -0.1921 -0.2944 -0.0466
    1DPPC   C3A 3367  14.548  24.215   5.027 -0.0384 -0.2050 -0.1613
    1DPPC   C4A 3368  14.455  24.133   4.630 -0.1879 -0.1146 -0.0800
    1DPPC   C1B 3369  14.759  23.839   5.853  0.1338  0.0361 -0.2737
    1DPPC   C2B 3370  14.954  23.610   5.476 -0.2131 -0.3725  0.0197
    1DPPC   C3B 3371  15.200  23.530   5.164  0.0278  0.0047 -0.1045
    1DPPC   C4B 3372  15.395  23.340   4.942 -0.0055 -0.2796 -0.0892
    1DPPC   NC3 3373  28.587  20.801   6.297  0.1690 -0.4827 -0.2692
    1DPPC   PO4 3374  28.762  20.404   6.108 -0.1508 -0.0327  0.1155
    1DPPC   GL1 3375  28.776  20.213   5.809  0.1350  0.0369  0.0042
    1DPPC   GL2 3376  28.409  20.309   5.731  0.1092  0.0774 -0.0103
    1DPPC   C1A 3377  28.903  20.374   5.398 -0.0381 -0.3042  0.0787
    1DPPC   C2A 3378  28.907  20.620   5.064  0.1969 -0.0337  0.1666
    1DPPC   C3A 3379  29.086  20.780   4.754 -0.0407 -0.2107 -0.1792
    1DPPC   C4A 3380  29.440  20.788   4.512  0.2213 -0.0850 -0.0178
    1DPPC   C1B 3381  28.477  20.463   5.313  0.1860  0.0469 -0.0389
    1DPPC   C2B 3382  28.445  20.498   4.908 -0.4554  0.0896 -0.1041
    1DPPC   C3B 3383  28.645  20.819   4.614 -0.0897  0.1200  0.0339
    1DPPC   C4B 3384  28.637  21.092   4.264 -0.1761 -0.4650 -0.2048
    1DPPC   NC3 3385   5.950  14.499   7.546 -0.1230  0.3614 -0.2773
    1DPPC   PO4 3386   6.271  14.745   7.277 -0.0717 -0.1845 -0.1325
    1DPPC   GL1 3387   6.346  14.652   6.830 -0.1403 -0.0490  0.3121
    1DPPC   GL2 3388   6.084  14.729   6.590 -0.1593  0.0621 -0.0589
    1DPPC   C1A 3389   6.640  14.417   6.589 -0.1363  0.0611 -0.0544
    1DPPC   C2A 3390   6.764  14.436   6.253  0.0151  0.2809 -0.1489
    1DPPC   C3A 3391   6.805  14.420   5.845 -0.1080  0.1275  0.1670
    1DPPC   C4A 3392   7.112  14.133   5.609 -0.1302 -0.1726 -0.1674
    1DPPC   C1B 3393   6.227  14.617   6.185 -0.0917 -0.0359  0.1037
    1DPPC   C2B 3394   6.311  14.506   5.732  0.0183  0.0450 -0.2215
    1DPPC   C3B 3395   6.357  14.579   5.384 -0.3194  0.3512  0.1279
    1DPPC   C4B 3396   6.562  14.489   5.002 -0.0766 -0.0128 -0.0274
    1DPPC   NC3 3397   5.243   9.755   6.748 -0.3946 -0.2125 -0.1179
    1DPPC   PO4 3398   5.582   9.757   6.536 -0.1749 -0.1094  0.1546
    1DPPC   GL1 3399   5.690   9.739   6.106  0.1256  0.1469  0.0967
    1DPPC   GL2 3400   5.305   9.560   5.967  0.0799  0.1184  0.0904
    1DPPC   C1A 3401   5.974   9.710   5.744 -0.1286  0.1328 -0.2924
    1DPPC   C2A 3402   6.304   9.657   5.414  0.0267  0.0316 -0.2042
    1DPPC   C3A 3403   6.407   9.577   4.994  0.1520  0.4447  0.0523
    1DPPC   C4A 3404   6.266   9.413   4.635  0.0603  0.0726 -0.3451
    1DPPC   C1B 3405   5.418   9.667   5.630  0.3342  0.0891 -0.0030
    1DPPC   C2B 3406   5.658   9.688   5.310 -0.4384  0.0944  0.0351
    1DPPC   C3B 3407   5.916   9.499   4.981 -0.1525  0.2327  0.1524
    1DPPC   C4B 3408   6.111   9.120   4.966  0.0430 -0.1111  0.0578
    1DPPC   NC3 3409   9.383  16.930   7.443 -0.2084  0.1595  0.2700
    1DPPC   PO4 3410   9.421  16.736   7.001 -0.1897 -0.3236  0.2552
    1DPPC   GL1 3411   9.231  16.652   6.552 -0.0625 -0.0920  0.1505
    1DPPC   GL2 3412   9.218  16.342   6.434 -0.2536  0.1420 -0.0308
    1DPPC   C1A 3413   9.006  16.707   6.181  0.7369  0.0511 -0.0013
    1DPPC   C2A 3414   8.979  16.698   5.768 -0.0312  0.1372 -0.3391
    1DPPC   C3A 3415   8.955  16.806   5.351  0.2213 -0.0350 -0.0070
    1DPPC   C4A 3416   9.162  16.661   4.950  0.1826  0.0312  0.1259
    1DPPC   C1B 3417   9.088  16.239   6.073 -0.1426  0.0230  0.3764
    1DPPC   C2B 3418   8.866  16.239   5.590  0.0367  0.1443  0.1002
    1DPPC   C3B 3419   8.780  16.313   5.248  0.0183  0.1042  0.0213
    1DPPC   C4B 3420   8.807  15.943   4.932 -0.2484 -0.1165  0.1559
    1DPPC   NC3 3421   5.302  17.181   7.009 -0.0203 -0.2050  0.1716
    1DPPC   PO4 3422   4.923  17.048   6.807  0.3296 -0.0411  0.0971
    1DPPC   GL1 3423   4.891  17.135   6.450 -0.0924  0.0923  0.3449
    1DPPC   GL2 3424   4.645  17.130   6.236  0.0058  0.2843  0.0924
    1DPPC   C1A 3425   5.115  17.282   6.078  0.0834 -0.0335 -0.1324
    1DPPC   C2A 3426   5.231  17.235   5.644  0.1949  0.3520  0.1705
    1DPPC   C3A 3427   5.631  17.254   5.320 -0.1031 -0.1904  0.1002
    1DPPC   C4A 3428   5.678  17.315   4.871 -0.0371 -0.3410  0.1119
    1DPPC   C1B 3429   4.751  17.068   5.731 -0.0193  0.0698 -0.1486
    1DPPC   C2B 3430   4.769  17.250   5.360 -0.1859  0.1679  0.1278
    1DPPC   C3B 3431   4.782  17.290   4.867 -0.2471 -0.1548 -0.0534
    1DPPC   C4B 3432   5.167  17.299   4.532  0.1460  0.1292  0.1050
    1DPPC   NC3 3433   2.258  17.584   6.432  0.2229 -0.0231  0.1315
    1DPPC   PO4 3434   1.877  17.742   6.351 -0.1280 -0.0277 -0.1078
    1DPPC   GL1 3435   1.562  17.716   5.966  0.0268 -0.2445  0.2609
    1DPPC   GL2 3436   1.492  17.363   5.928  0.0427  0.1285 -0.7564
    1DPPC   C1A 3437   1.547  18.053   5.613 -0.1241  0.1103  0.5243
    1DPPC   C2A 3438   1.679  18.149   5.226  0.0467 -0.2161 -0.2545
    1DPPC   C3A 3439   1.835  18.044   4.798  0.0900 -0.0911 -0.3556
    1DPPC   C4A 3440   2.019  18.185   4.425  0.0166  0.2411  0.0706
    1DPPC   C1B 3441   1.320  17.213   5.534  0.0437 -0.1217  0.2125
    1DPPC   C2B 3442   1.334  17.270   5.071  0.2519  0.2029 -0.1508
    1DPPC   C3B 3443   1.337  17.445   4.629 -0.0376  0.0329 -0.0379
    1DPPC   C4B 3444   1.073  17.507   4.368  0.1066  0.2003 -0.2618
    1DPPC   NC3 3445  29.534  10.862   6.880  0.1565 -0.0633 -0.0523
    1DPPC   PO4 3446  29.658  10.520   6.546  0.1026 -0.0293 -0.0910
    1DPPC   GL1 3447  29.730  10.685   6.174  0.0295 -0.0714  0.1556
    1DPPC   GL2 3448  30.132  10.608   6.125 -0.2359 -0.3587  0.2894
    1DPPC   C1A 3449  29.548  10.573   5.779  0.1577 -0.2116 -0.0741
    1DPPC   C2A 3450  29.575  10.597   5.408  0.3793 -0.0453 -0.4269
    1DPPC   C3A 3451  29.566  10.745   5.043 -0.1180  0.2029 -0.4472
    1DPPC   C4A 3452  29.772  10.771   4.586 -0.0108 -0.2979 -0.2513
    1DPPC   C1B 3453  30.093  10.508   5.693  0.0495 -0.2711 -0.2745
    1DPPC   C2B 3454  30.091  10.563   5.222 -0.2271  0.2997  0.0544
    1DPPC   C3B 3455  30.231  10.588   4.845  0.0371  0.1939 -0.1716
    1DPPC   C4B 3456  30.248  10.295   4.506  0.0937 -0.1864  0.0615
    1DPPC   NC3 3457  12.158  12.134   7.229  0.0127 -0.0966  0.4047
    1DPPC   PO4 3458  12.410  12.360   6.894 -0.0531 -0.1734 -0.3548
    1DPPC   GL1 3459  12.350  12.211   6.470  0.1958  0.0861 -0.0687
    1DPPC   GL2 3460  12.643  12.377   6.307  0.1427  0.0027 -0.0866
    1DPPC   C1A 3461  12.148  12.006   6.164  0.1159 -0.0619 -0.2730
    1DPPC   C2A 3462  11.951  11.685   5.976  0.0217  0.2714 -0.2100
    1DPPC   C3A 3463  11.730  11.509   5.788  0.0889 -0.2165 -0.0456
    1DPPC   C4A 3464  11.799  11.333   5.484  0.1857 -0.0865 -0.0702
    1DPPC   C1B 3465  12.406  12.555   6.031  0.2783  0.2755 -0.2729
    1DPPC   C2B 3466  12.396  12.891   5.777  0.1425 -0.0391 -0.0161
    1DPPC   C3B 3467  12.448  13.102   5.404  0.1364 -0.0630  0.0492
    1DPPC   C4B 3468  12.538  13.440   4.994  0.2497  0.2505  0.1345
    1DPPC   NC3 3469  21.747  24.246   6.048  0.0068  0.1192  0.0440
    1DPPC   PO4 3470  22.095  23.824   6.178  0.0287 -0.2596 -0.1227
    1DPPC   GL1 3471  21.987  23.891   5.752  0.3114 -0.2028  0.1738
    1DPPC   GL2 3472  22.010  23.672   5.559  0.0624 -0.1942  0.1745
    1DPPC   C1A 3473  22.110  24.241   5.467 -0.1794  0.2744  0.1715
    1DPPC   C2A 3474  22.213  24.305   5.086 -0.0095  0.0591 -0.0022
    1DPPC   C3A 3475  22.360  24.352   4.638 -0.0996  0.1102 -0.0226
    1DPPC   C4A 3476  22.525  24.237   4.271  0.0766  0.1415 -0.0708
    1DPPC   C1B 3477  22.152  23.594   5.152 -0.0840 -0.0437 -0.0108
    1DPPC   C2B 3478  21.982  23.437   4.802  0.2046  0.1084 -0.1154
    1DPPC   C3B 3479  21.680  23.479   4.553  0.1157 -0.1404 -0.0592
    1DPPC   C4B 3480  21.452  23.837   4.367  0.1380  0.2158  0.1532
    1DPPC   NC3 3481   1.596  16.139   6.598  0.0725  0.0163  0.1167
    1DPPC   PO4 3482   1.393  16.520   6.496  0.0667 -0.1345  0.0628
    1DPPC   GL1 3483   1.488  16.431   6.040  0.0239 -0.0906 -0.2131
    1DPPC   GL2 3484   1.525  16.164   6.085 -0.1423  0.2019  0.1056
    1DPPC   C1A 3485   1.390  16.656   5.633  0.2684  0.0683 -0.1791
    1DPPC   C2A 3486   1.334  16.782   5.230 -0.1568 -0.0653 -0.2025
    1DPPC   C3A 3487   1.376  16.929   4.783 -0.0523  0.1212 -0.1081
    1DPPC   C4A 3488   1.305  16.827   4.378  0.0372  0.0315 -0.0729
    1DPPC   C1B 3489   1.412  16.147   5.627  0.3081 -0.1361  0.0295
    1DPPC   C2B 3490   1.294  16.169   5.283 -0.2906 -0.2833  0.1394
    1DPPC   C3B 3491   1.341  16.167   4.905 -0.0225  0.0955  0.0922
    1DPPC   C4B 3492   1.479  16.339   4.470 -0.0794  0.0456  0.2098
    1DPPC   NC3 3493   6.999  16.783   7.604  0.2615  0.0053  0.0690
    1DPPC   PO4 3494   7.050  16.767   7.167 -0.0847  0.0034  0.6361
    1DPPC   GL1 3495   7.169  16.701   6.752  0.1627  0.2365  0.0889
    1DPPC   GL2 3496   6.863  16.805   6.585 -0.2639 -0.0588  0.1861
    1DPPC   C1A 3497   7.279  16.746   6.318 -0.1852  0.1088  0.1248
    1DPPC   C2A 3498   7.274  16.763   5.842  0.1882 -0.1172 -0.0413
    1DPPC   C3A 3499   7.256  16.789   5.386 -0.0633  0.2076  0.2626
    1DPPC   C4A 3500   7.622  16.737   5.054  0.0649 -0.0775 -0.2262
    1DPPC   C1B 3501   6.850  16.823   6.106 -0.1678  0.0042  0.0793
    1DPPC   C2B 3502   6.753  16.809   5.759 -0.0284 -0.1748  0.3473
    1DPPC   C3B 3503   6.811  16.655   5.336 -0.2243 -0.0478  0.3291
    1DPPC   C4B 3504   6.926  16.729   4.881  0.2046  0.2522  0.0575
    1DPPC   NC3 3505   0.570  16.058   6.352  0.1126  0.1353  0.0963
    1DPPC   PO4 3506   0.858  15.739   6.545  0.1136 -0.0800  0.1534
    1DPPC   GL1 3507   1.337  15.660   6.312 -0.0861 -0.1751 -0.0129
    1DPPC   GL2 3508   1.517  15.353   6.288  0.3271 -0.2746  0.0101
    1DPPC   C1A 3509   1.468  15.650   5.868 -0.2379  0.1107  0.0990
    1DPPC   C2A 3510   1.388  15.689   5.404 -0.0711  0.0345  0.0509
    1DPPC   C3A 3511   1.430  15.651   5.013  0.3522  0.3192 -0.2457
    1DPPC   C4A 3512   1.652  15.544   4.717  0.0776 -0.0037 -0.1015
    1DPPC   C1B 3513   1.637  15.211   5.936 -0.0629  0.1783 -0.0885
    1DPPC   C2B 3514   1.775  15.188   5.490  0.3512  0.1993  0.3539
    1DPPC   C3B 3515   1.875  15.508   5.158  0.1034 -0.1420 -0.1443
    1DPPC   C4B 3516   2.158  15.656   4.889 -0.1654 -0.2348  0.4123
    1DPPC   NC3 3517   7.206  19.010   6.848 -0.2261 -0.3624  0.1496
    1DPPC   PO4 3518   7.142  19.401   6.769 -0.0543 -0.1539  0.2096
    1DPPC   GL1 3519   7.128  19.204   6.339 -0.0140 -0.4036  0.1816
    1DPPC   GL2 3520   7.386  18.969   6.279 -0.1303 -0.0265 -0.2674
    1DPPC   C1A 3521   7.169  19.155   5.867 -0.1467 -0.0934 -0.0434
    1DPPC   C2A 3522   6.871  19.033   5.598 -0.1167  0.3294  0.3836
    1DPPC   C3A 3523   6.777  18.750   5.249 -0.3836 -0.0289  0.1431
    1DPPC   C4A 3524   7.071  18.570   4.872  0.1300 -0.1568  0.1423
    1DPPC   C1B 3525   7.288  18.641   6.006  0.0303 -0.0277 -0.3138
    1DPPC   C2B 3526   7.257  18.730   5.630  0.1742  0.0706  0.1903
    1DPPC   C3B 3527   7.450  18.698   5.231  0.0477 -0.3562 -0.0365
    1DPPC   C4B 3528   7.569  18.490   4.830 -0.1009 -0.0970 -0.2639
    1DPPC   NC3 3529   4.296  19.442   6.812  0.0931  0.2711 -0.4127
    1DPPC   PO4 3530   3.931  19.065   6.696 -0.0820  0.1070  0.2823
    1DPPC   GL1 3531   3.998  19.224   6.355 -0.1613  0.0729 -0.0397
    1DPPC   GL2 3532   4.299  19.273   6.350 -0.1217 -0.1286  0.2539
    1DPPC   C1A 3533   3.939  19.351   5.874 -0.0992  0.2802 -0.2396
    1DPPC   C2A 3534   4.045  19.398   5.471  0.0474 -0.2232  0.1077
    1DPPC   C3A 3535   4.077  19.530   5.030  0.1386  0.3289  0.2766
    1DPPC   C4A 3536   4.164  19.823   4.745 -0.3454  0.1397  0.2449
    1DPPC   C1B 3537   4.426  19.485   6.058  0.0782 -0.1199  0.0891
    1DPPC   C2B 3538   4.526  19.491   5.617  0.5270 -0.1578 -0.1497
    1DPPC   C3B 3539   4.726  19.591   5.262 -0.0007  0.1898 -0.0149
    1DPPC   C4B 3540   4.607  19.593   4.843 -0.1641 -0.2147 -0.1562
    1DPPC   NC3 3541  24.364  18.927   5.004 -0.0372  0.0958 -0.3546
    1DPPC   PO4 3542  24.822  19.037   5.197 -0.0307  0.5475  0.1568
    1DPPC   GL1 3543  25.164  18.915   4.866  0.4817 -0.0447  0.1085
    1DPPC   GL2 3544  25.308  19.145   4.939 -0.1439 -0.0426  0.3093
    1DPPC   C1A 3545  25.039  18.705   4.396  0.0434  0.3063  0.1464
    1DPPC   C2A 3546  24.990  18.453   4.100 -0.2090 -0.2434 -0.1110
    1DPPC   C3A 3547  24.771  18.608   3.760 -0.1518 -0.0460  0.0352
    1DPPC   C4A 3548  24.556  18.944   3.479  0.0846 -0.1002  0.0578
    1DPPC   C1B 3549  25.184  19.447   4.564  0.1254 -0.0843 -0.0687
    1DPPC   C2B 3550  25.230  19.610   4.111 -0.4373 -0.1893  0.1600
    1DPPC   C3B 3551  25.327  19.520   3.711  0.0589 -0.2174 -0.1240
    1DPPC   C4B 3552  25.693  19.352   3.566 -0.0686 -0.0614  0.0798
    1DPPC   NC3 3553   8.630  17.791   6.757  0.0508  0.3058 -0.1305
    1DPPC   PO4 3554   9.091  17.696   6.993  0.0995 -0.0290  0.2241
    1DPPC   GL1 3555   9.077  17.686   6.590  0.0488 -0.1419 -0.1666
    1DPPC   GL2 3556   9.040  17.961   6.388 -0.1791 -0.0250 -0.0998
    1DPPC   C1A 3557   9.035  17.540   6.148 -0.1613  0.1024  0.1239
    1DPPC   C2A 3558   9.087  17.526   5.802 -0.2459 -0.0873  0.0560
    1DPPC   C3A 3559   9.056  17.432   5.375 -0.0137  0.0289  0.0173
    1DPPC   C4A 3560   9.064  17.181   5.076  0.0462  0.0424 -0.1492
    1DPPC   C1B 3561   8.859  17.974   6.020  0.1923  0.0054 -0.0241
    1DPPC   C2B 3562   8.906  17.938   5.613  0.2505 -0.0406 -0.0889
    1DPPC   C3B 3563   8.915  17.870   5.169  0.2123  0.0402 -0.0660
    1DPPC   C4B 3564   8.459  17.758   4.933 -0.3399  0.0525 -0.2219
    1DPPC   NC3 3565  28.007  18.182   6.232  0.2494 -0.0985 -0.1464
    1DPPC   PO4 3566  27.622  18.152   5.882  0.2679  0.1976  0.3087
    1DPPC   GL1 3567  27.682  18.047   5.498 -0.0366  0.0933  0.1123
    1DPPC   GL2 3568  27.539  17.885   5.324  0.0911 -0.2910  0.1430
    1DPPC   C1A 3569  28.047  17.846   5.252 -0.0517  0.1231 -0.1302
    1DPPC   C2A 3570  28.206  17.694   4.870  0.0324  0.1778 -0.2665
    1DPPC   C3A 3571  28.278  17.618   4.449  0.1280 -0.3131  0.1138
    1DPPC   C4A 3572  28.525  17.653   4.063 -0.2659 -0.0306 -0.1261
    1DPPC   C1B 3573  27.678  17.926   4.918 -0.0940 -0.1036 -0.0013
    1DPPC   C2B 3574  27.553  17.857   4.529  0.2156  0.0914  0.1668
    1DPPC   C3B 3575  27.575  18.079   4.113 -0.0211 -0.2527  0.0425
    1DPPC   C4B 3576  27.433  18.135   3.696 -0.0049  0.0900  0.0441
    1DPPC   NC3 3577   8.190  17.727   7.006 -0.1325 -0.2187  0.1591
    1DPPC   PO4 3578   7.899  17.415   6.890  0.0651 -0.0991 -0.1424
    1DPPC   GL1 3579   7.647  17.509   6.568 -0.1363  0.2151 -0.4376
    1DPPC   GL2 3580   7.245  17.416   6.657 -0.0293 -0.0465 -0.2148
    1DPPC   C1A 3581   7.548  17.691   6.213 -0.0278  0.3092 -0.2385
    1DPPC   C2A 3582   7.445  18.067   6.176  0.1473  0.0491 -0.3825
    1DPPC   C3A 3583   7.159  18.154   5.756  0.0859 -0.0381 -0.0146
    1DPPC   C4A 3584   7.034  18.361   5.451  0.0241 -0.2413  0.1749
    1DPPC   C1B 3585   7.257  17.229   6.163 -0.2060  0.0384 -0.1081
    1DPPC   C2B 3586   7.228  17.197   5.692 -0.1122 -0.3372 -0.1644
    1DPPC   C3B 3587   7.100  17.543   5.368  0.0510 -0.1598  0.0773
    1DPPC   C4B 3588   6.799  17.612   5.097 -0.4690  0.0648  0.1371
    1DPPC   NC3 3589  25.243  28.358   7.440 -0.4285 -0.0837  0.1692
    1DPPC   PO4 3590  25.451  28.360   7.021 -0.2729 -0.1362 -0.2974
    1DPPC   GL1 3591  25.495  28.258   6.615  0.3375  0.0720 -0.0408
    1DPPC   GL2 3592  25.310  28.036   6.481  0.0521  0.4120  0.0096
    1DPPC   C1A 3593  25.679  28.360   6.209 -0.0209  0.2059 -0.0066
    1DPPC   C2A 3594  25.574  28.505   5.844 -0.0588  0.0914 -0.0074
    1DPPC   C3A 3595  25.607  28.380   5.458 -0.0008 -0.1845 -0.0340
    1DPPC   C4A 3596  25.914  28.407   5.092  0.1059  0.0641  0.3426
    1DPPC   C1B 3597  25.220  28.206   6.034  0.0860  0.2710 -0.0170
    1DPPC   C2B 3598  25.167  28.098   5.598  0.2644 -0.0212  0.1447
    1DPPC   C3B 3599  25.061  27.826   5.228 -0.1078  0.0472 -0.0980
    1DPPC   C4B 3600  25.112  27.461   4.856  0.0720 -0.0233 -0.1083
    1DPPC   NC3 3601   4.445  16.356   6.692  0.2052 -0.2252  0.3010
    1DPPC   PO4 3602   4.167  15.949   6.685 -0.1728  0.2849  0.0715
    1DPPC   GL1 3603   4.440  15.813   6.384 -0.0467  0.0586  0.0973
    1DPPC   GL2 3604   4.781  16.021   6.537  0.1831 -0.0957 -0.2394
    1DPPC   C1A 3605   4.711  15.776   5.963 -0.2914 -0.0652  0.2832
    1DPPC   C2A 3606   4.731  15.763   5.526 -0.2708  0.3256  0.3343
    1DPPC   C3A 3607   4.666  15.916   5.047 -0.0471 -0.2947 -0.0239
    1DPPC   C4A 3608   4.522  15.935   4.679 -0.1240  0.1087  0.0401
    1DPPC   C1B 3609   4.767  16.282   6.150  0.3414 -0.3678 -0.0177
    1DPPC   C2B 3610   4.899  16.277   5.762  0.1822  0.3497  0.1332
    1DPPC   C3B 3611   4.947  16.247   5.249 -0.1760 -0.1316 -0.1008
    1DPPC   C4B 3612   5.145  16.103   4.740  0.1576  0.2348  0.2667
    1DPPC   NC3 3613  27.819   8.744   6.520  0.1541 -0.0598 -0.0009
    1DPPC   PO4 3614  27.898   8.473   6.130  0.2591 -0.2711 -0.0741
    1DPPC   GL1 3615  27.913   8.371   5.740  0.1195 -0.0786 -0.1648
    1DPPC   GL2 3616  28.052   8.086   5.793  0.2999 -0.0609  0.0350
    1DPPC   C1A 3617  28.033   8.526   5.367  0.0894  0.2166 -0.0987
    1DPPC   C2A 3618  28.090   8.777   5.146 -0.0308  0.1633  0.3496
    1DPPC   C3A 3619  28.006   8.935   4.795 -0.1856 -0.0753 -0.1830
    1DPPC   C4A 3620  27.891   9.135   4.550  0.1395 -0.2262 -0.3546
    1DPPC   C1B 3621  27.907   8.048   5.315 -0.0643 -0.0490 -0.1072
    1DPPC   C2B 3622  27.720   8.124   4.907  0.0523 -0.1567  0.1569
    1DPPC   C3B 3623  27.781   8.487   4.627 -0.0032  0.0922 -0.3131
    1DPPC   C4B 3624  27.787   8.725   4.307  0.3499  0.2156  0.0903
    1DPPC   NC3 3625  24.932  17.012   4.920  0.3340 -0.1436 -0.0842
    1DPPC   PO4 3626  24.995  16.476   5.005 -0.1519  0.1452 -0.0666
    1DPPC   GL1 3627  25.229  16.608   4.684  0.0205 -0.1854 -0.0961
    1DPPC   GL2 3628  24.983  16.648   4.525  0.0632  0.0782  0.5075
    1DPPC   C1A 3629  25.455  16.679   4.525  0.2510 -0.1649 -0.0402
    1DPPC   C2A 3630  25.484  16.584   4.145 -0.0432 -0.0070 -0.1568
    1DPPC   C3A 3631  25.586  16.309   3.678  0.0756 -0.1894  0.1297
    1DPPC   C4A 3632  25.696  16.253   3.221  0.0486 -0.0903  0.0157
    1DPPC   C1B 3633  24.969  16.578   4.061 -0.1423  0.3638 -0.0831
    1DPPC   C2B 3634  25.114  16.485   3.607  0.2419 -0.0710 -0.1364
    1DPPC   C3B 3635  25.440  16.675   3.346  0.1075  0.2062 -0.2275
    1DPPC   C4B 3636  25.841  16.774   3.271  0.2352  0.0685 -0.1066
    1DPPC   NC3 3637  10.170  12.127   7.176  0.3128  0.2198 -0.1887
    1DPPC   PO4 3638  10.442  11.849   6.951  0.1532  0.5121 -0.3438
    1DPPC   GL1 3639  10.263  12.158   6.627  0.0317 -0.3043  0.2674
    1DPPC   GL2 3640  10.210  11.855   6.450  0.5873  0.2672 -0.1472
    1DPPC   C1A 3641  10.524  12.279   6.210 -0.0151  0.0519 -0.0748
    1DPPC   C2A 3642  10.581  12.546   5.951 -0.2310 -0.1915 -0.0186
    1DPPC   C3A 3643  10.327  12.610   5.537 -0.0723  0.1298 -0.1659
    1DPPC   C4A 3644  10.045  12.683   5.172  0.0692  0.2784 -0.0403
    1DPPC   C1B 3645  10.101  11.952   6.068 -0.3700 -0.1199  0.0625
    1DPPC   C2B 3646  10.063  11.736   5.795 -0.0439 -0.2112  0.1026
    1DPPC   C3B 3647  10.270  11.716   5.411 -0.1029  0.1898 -0.0674
    1DPPC   C4B 3648  10.518  11.732   5.060  0.1096  0.1164 -0.1970
    1DIPC   NC3 3649  22.487  17.757   5.357  0.5584  0.1567  0.0060
    1DIPC   PO4 3650  22.816  18.006   5.298  0.1028 -0.2952  0.1742
    1DIPC   GL1 3651  22.613  17.771   4.871 -0.2870 -0.0549  0.2094
    1DIPC   GL2 3652  22.156  17.729   4.975 -0.0664  0.1774  0.0824
    1DIPC   C1A 3653  22.680  17.777   4.313 -0.1535  0.1641 -0.5829
    1DIPC   D2A 3654  22.735  17.797   3.872  0.0010  0.0339  0.1752
    1DIPC   D3A 3655  22.863  18.236   3.827 -0.2999 -0.2010 -0.2955
    1DIPC   C4A 3656  23.154  18.370   3.464  0.2357  0.0844 -0.0238
    1DIPC   C1B 3657  22.300  17.966   4.540 -0.0779 -0.1522 -0.0738
    1DIPC   D2B 3658  22.258  18.191   4.123  0.0862  0.2025  0.0076
    1DIPC   D3B 3659  22.650  18.313   4.288 -0.2857  0.1145 -0.0383
    1DIPC   C4B 3660  22.691  18.559   4.704  0.0192  0.0009 -0.0407
    1DIPC   NC3 3661  21.021  25.554   6.698 -0.1941 -0.0867 -0.0904
    1DIPC   PO4 3662  20.721  25.711   6.426  0.0671  0.0888 -0.0338
    1DIPC   GL1 3663  20.906  25.421   6.122 -0.2461 -0.1587 -0.0959
    1DIPC   GL2 3664  21.297  25.392   5.983  0.4527  0.0346  0.1571
    1DIPC   C1A 3665  20.875  25.335   5.792  0.1058  0.1460 -0.1038
    1DIPC   D2A 3666  21.084  25.334   5.411 -0.0590 -0.2243  0.0649
    1DIPC   D3A 3667  21.456  25.481   5.405  0.3455 -0.0002  0.0117
    1DIPC   C4A 3668  21.684  25.723   5.773  0.0418 -0.1882  0.1109
    1DIPC   C1B 3669  21.072  25.745   5.660 -0.2005  0.1214  0.0977
    1DIPC   D2B 3670  20.772  25.739   5.343 -0.0886 -0.0631 -0.3218
    1DIPC   D3B 3671  20.723  25.404   5.059  0.3131  0.0271  0.1269
    1DIPC   C4B 3672  20.547  25.484   4.727 -0.0598  0.3406 -0.1703
    1DIPC   NC3 3673   4.012  23.355   7.181 -0.4138  0.0531 -0.0663
    1DIPC   PO4 3674   4.547  23.289   7.153  0.0759  0.1332 -0.0268
    1DIPC   GL1 3675   4.558  23.262   6.702  0.1915 -0.1286 -0.2367
    1DIPC   GL2 3676   4.158  23.326   6.697  0.1317 -0.0244 -0.1261
    1DIPC   C1A 3677   4.388  23.332   6.268  0.0367 -0.0277 -0.0729
    1DIPC   D2A 3678   4.173  23.466   5.884 -0.0461  0.2207  0.1265
    1DIPC   D3A 3679   4.470  23.224   5.700  0.0899 -0.0520 -0.0494
    1DIPC   C4A 3680   4.283  22.836   5.402  0.1841  0.0971 -0.2570
    1DIPC   C1B 3681   3.866  23.390   6.375  0.1257 -0.0506  0.0594
    1DIPC   D2B 3682   3.742  23.389   6.051  0.1814  0.0972 -0.1535
    1DIPC   D3B 3683   3.543  23.265   5.629 -0.1192  0.2054 -0.0872
    1DIPC   C4B 3684   3.350  23.165   5.184 -0.0681  0.3027  0.0951
    1DIPC   NC3 3685   9.561  28.680   7.663 -0.2477 -0.2485 -0.0007
    1DIPC   PO4 3686   9.797  28.966   7.287  0.4280 -0.1206 -0.0775
    1DIPC   GL1 3687   9.936  29.136   6.851 -0.1266  0.0261  0.0141
    1DIPC   GL2 3688   9.976  29.513   6.876 -0.1048 -0.0731  0.1262
    1DIPC   C1A 3689   9.725  29.094   6.446 -0.0183  0.0805  0.0676
    1DIPC   D2A 3690   9.665  29.118   6.026  0.1428  0.1441  0.0466
    1DIPC   D3A 3691   9.666  28.818   5.694  0.2710 -0.1376 -0.1724
    1DIPC   C4A 3692   9.663  28.381   5.663  0.1908  0.1769  0.0632
    1DIPC   C1B 3693  10.298  29.841   6.701  0.3289 -0.2051 -0.3014
    1DIPC   D2B 3694  10.646  29.847   6.689 -0.0645 -0.1040 -0.1749
    1DIPC   D3B 3695  10.507  30.261   6.795  0.0148  0.0305  0.3086
    1DIPC   C4B 3696  10.390  30.508   6.423 -0.2013 -0.1701  0.0836
    1DIPC   NC3 3697  18.061  16.888   6.835 -0.2158 -0.2751 -0.1988
    1DIPC   PO4 3698  17.839  16.649   6.585  0.0815 -0.1416  0.1653
    1DIPC   GL1 3699  17.904  16.545   6.146 -0.3554 -0.3265  0.1808
    1DIPC   GL2 3700  17.570  16.477   6.084  0.1603  0.0114  0.1099
    1DIPC   C1A 3701  17.987  16.413   5.704  0.2492  0.3578  0.0586
    1DIPC   D2A 3702  17.968  16.233   5.254 -0.0533  0.0482  0.0114
    1DIPC   D3A 3703  18.397  16.141   5.011 -0.1373  0.1139  0.2383
    1DIPC   C4A 3704  18.375  15.979   4.625  0.0882  0.2407 -0.0036
    1DIPC   C1B 3705  17.741  16.909   5.798 -0.1744 -0.0047 -0.0985
    1DIPC   D2B 3706  17.774  17.375   5.857 -0.1923 -0.0340  0.0032
    1DIPC   D3B 3707  17.642  17.589   5.433  0.0528 -0.0461  0.1023
    1DIPC   C4B 3708  17.542  17.360   5.015 -0.0529  0.0629  0.0900
    1DIPC   NC3 3709  29.014   7.787   6.535 -0.2604 -0.3012 -0.1160
    1DIPC   PO4 3710  29.483   7.935   6.683  0.2376 -0.1143 -0.0823
    1DIPC   GL1 3711  29.468   7.896   6.220 -0.1501 -0.0641 -0.0055
    1DIPC   GL2 3712  29.129   8.030   6.092 -0.3390  0.4155 -0.2317
    1DIPC   C1A 3713  29.532   8.207   5.785 -0.1402 -0.1239 -0.0985
    1DIPC   D2A 3714  29.539   8.276   5.402  0.0386  0.1428 -0.1254
    1DIPC   D3A 3715  29.670   8.089   5.075 -0.0608  0.2089 -0.2398
    1DIPC   C4A 3716  29.848   7.695   4.971  0.2836 -0.0730  0.2446
    1DIPC   C1B 3717  29.206   7.804   5.737 -0.2831  0.0578  0.1510
    1DIPC   D2B 3718  29.341   7.598   5.348 -0.2540  0.0374  0.0189
    1DIPC   D3B 3719  29.266   7.656   4.858  0.0672 -0.2159 -0.1032
    1DIPC   C4B 3720  29.522   7.519   4.561  0.0818 -0.3096  0.0835
    1DIPC   NC3 3721  13.527  20.994   6.534  0.2120  0.1410  0.3969
    1DIPC   PO4 3722  13.892  20.882   6.187  0.0321 -0.0508 -0.0200
    1DIPC   GL1 3723  13.864  20.927   5.793  0.0611 -0.2472  0.0371
    1DIPC   GL2 3724  14.117  21.170   5.740 -0.0922 -0.0853  0.1462
    1DIPC   C1A 3725  13.895  20.681   5.311  0.0012  0.2795  0.1941
    1DIPC   D2A 3726  13.784  20.477   5.053 -0.1732  0.1762  0.1130
    1DIPC   D3A 3727  14.002  20.122   5.097 -0.1046 -0.0378 -0.1811
    1DIPC   C4A 3728  13.739  19.697   4.974 -0.0743  0.0110 -0.2003
    1DIPC   C1B 3729  13.873  21.185   5.355  0.2256 -0.1194 -0.1848
    1DIPC   D2B 3730  13.793  21.192   4.786  0.1133 -0.1751 -0.0596
    1DIPC   D3B 3731  13.740  20.787   4.600  0.1091  0.1560  0.0562
    1DIPC   C4B 3732  13.727  20.565   4.270 -0.2631  0.0564 -0.0608
    1DIPC   NC3 3733   9.681  20.081   6.606 -0.2889 -0.2366  0.0336
    1DIPC   PO4 3734   9.317  19.895   6.699 -0.0469 -0.4168  0.0442
    1DIPC   GL1 3735   9.289  19.790   6.202 -0.0380  0.1421 -0.1145
    1DIPC   GL2 3736   9.298  19.484   6.048  0.2472  0.0463  0.0771
    1DIPC   C1A 3737   9.431  19.865   5.828  0.3665 -0.0937 -0.0853
    1DIPC   D2A 3738   9.539  19.736   5.391 -0.1219 -0.1879 -0.3418
    1DIPC   D3A 3739   9.274  19.438   5.164  0.0202  0.0554 -0.0936
    1DIPC   C4A 3740   9.379  19.272   4.744 -0.1639  0.3994 -0.0444
    1DIPC   C1B 3741   9.405  19.324   5.667 -0.0962 -0.1661  0.1137
    1DIPC   D2B 3742   9.635  19.082   5.274  0.2560 -0.0436 -0.2064
    1DIPC   D3B 3743   9.390  18.857   5.131  0.1528  0.1555 -0.0102
    1DIPC   C4B 3744   9.484  18.687   4.798  0.0308 -0.1353 -0.0109
    1DIPC   NC3 3745  12.456  22.851   6.157 -0.0369 -0.0375 -0.0604
    1DIPC   PO4 3746  12.651  23.291   6.214  0.1626 -0.0045 -0.0732
    1DIPC   GL1 3747  12.725  23.443   5.777 -0.2309 -0.2229  0.0971
    1DIPC   GL2 3748  12.747  23.185   5.538  0.1846 -0.0293  0.0003
    1DIPC   C1A 3749  12.478  23.727   5.554 -0.1004  0.0523 -0.0045
    1DIPC   D2A 3750  12.105  23.918   5.374  0.1117  0.0321  0.2669
    1DIPC   D3A 3751  12.330  24.001   4.944  0.0558 -0.1034  0.0970
    1DIPC   C4A 3752  12.176  23.709   4.662 -0.0947 -0.0050  0.2828
    1DIPC   C1B 3753  12.460  23.235   5.253 -0.0472  0.0109 -0.2371
    1DIPC   D2B 3754  12.079  23.419   5.259 -0.1090  0.2308 -0.0567
    1DIPC   D3B 3755  12.099  23.022   5.070 -0.1070  0.2026 -0.1949
    1DIPC   C4B 3756  11.831  22.725   5.140 -0.0732  0.2146 -0.0060
    1DIPC   NC3 3757  21.896   0.085   7.426 -0.1555  0.1013  0.0507
    1DIPC   PO4 3758  21.676  -0.292   7.246 -0.0044  0.0105  0.1547
    1DIPC   GL1 3759  21.639  -0.003   6.890  0.3135  0.0767  0.0407
    1DIPC   GL2 3760  21.934   0.145   6.815  0.1704 -0.0361 -0.2006
    1DIPC   C1A 3761  21.649  -0.210   6.442  0.2556  0.1065  0.2254
    1DIPC   D2A 3762  21.710  -0.015   6.053  0.0237  0.1849  0.0810
    1DIPC   D3A 3763  21.746  -0.419   5.963 -0.3678 -0.4770 -0.0306
    1DIPC   C4A 3764  21.959  -0.892   5.889 -0.1776 -0.5900  0.2005
    1DIPC   C1B 3765  21.972   0.237   6.374 -0.1035 -0.0925 -0.1448
    1DIPC   D2B 3766  22.066   0.392   5.987  0.0456 -0.4558  0.3028
    1DIPC   D3B 3767  21.932   0.048   5.668 -0.0189  0.1424 -0.2864
    1DIPC   C4B 3768  22.073  -0.404   5.634  0.0829 -0.1797  0.1589
    1DIPC   NC3 3769  15.040  16.158   6.543  0.1103 -0.1035 -0.0850
    1DIPC   PO4 3770  14.643  16.346   6.612 -0.2158 -0.0651 -0.5322
    1DIPC   GL1 3771  14.724  16.104   6.150  0.0799  0.2985 -0.1691
    1DIPC   GL2 3772  14.997  16.216   5.999  0.0596  0.0539  0.1254
    1DIPC   C1A 3773  14.862  15.735   5.779  0.1666 -0.2940 -0.0722
    1DIPC   D2A 3774  14.967  15.411   5.570 -0.0722 -0.1215 -0.0417
    1DIPC   D3A 3775  14.930  15.777   5.195  0.0001  0.0884  0.0702
    1DIPC   C4A 3776  14.810  16.141   5.418  0.1322 -0.1533 -0.1178
    1DIPC   C1B 3777  15.175  16.545   5.834 -0.1044  0.3662 -0.2134
    1DIPC   D2B 3778  15.471  16.443   5.522  0.1353  0.0188 -0.0170
    1DIPC   D3B 3779  15.341  16.434   5.112  0.0133  0.1601 -0.3079
    1DIPC   C4B 3780  15.288  16.802   4.844 -0.1087  0.1339 -0.1230
    1DIPC   NC3 3781  14.491  11.432   7.256 -0.2075 -0.0469  0.1662
    1DIPC   PO4 3782  14.273  11.073   7.135 -0.1242 -0.0413  0.0033
    1DIPC   GL1 3783  14.472  11.087   6.774 -0.0344 -0.0196 -0.2212
    1DIPC   GL2 3784  14.656  11.328   6.782  0.2533 -0.0138  0.1111
    1DIPC   C1A 3785  14.628  11.016   6.346  0.2123 -0.3326 -0.0490
    1DIPC   D2A 3786  14.591  11.101   5.916 -0.1709 -0.0260 -0.0968
    1DIPC   D3A 3787  14.476  10.761   5.761 -0.2705  0.0783  0.2401
    1DIPC   C4A 3788  14.881  10.536   5.885 -0.2193  0.2682  0.0704
    1DIPC   C1B 3789  14.378  11.425   6.456  0.0998 -0.1579  0.1122
    1DIPC   D2B 3790  14.346  11.770   6.183  0.2675 -0.0495  0.1565
    1DIPC   D3B 3791  14.198  11.569   5.912  0.1271 -0.0273  0.2020
    1DIPC   C4B 3792  14.344  11.354   5.567  0.1395 -0.0488  0.2577
    1DIPC   NC3 3793   1.276   5.194   6.966  0.0807 -0.0225 -0.0971
    1DIPC   PO4 3794   1.223   5.498   6.542 -0.3408  0.2847  0.2774
    1DIPC   GL1 3795   1.217   5.574   6.100  0.0993 -0.3202  0.2234
    1DIPC   GL2 3796   1.494   5.403   6.013 -0.0614 -0.1562  0.0134
    1DIPC   C1A 3797   1.309   5.830   5.726  0.2398 -0.2347  0.0584
    1DIPC   D2A 3798   1.429   5.925   5.306 -0.1686 -0.1778  0.2354
    1DIPC   D3A 3799   1.789   5.840   5.327 -0.1072 -0.1556  0.0386
    1DIPC   C4A 3800   2.227   5.862   5.135  0.0023  0.2293 -0.0019
    1DIPC   C1B 3801   1.551   5.416   5.537 -0.1798  0.0812 -0.1831
    1DIPC   D2B 3802   1.494   5.337   5.204 -0.0424  0.1016  0.0462
    1DIPC   D3B 3803   1.028   5.073   5.185 -0.1997  0.1607 -0.1846
    1DIPC   C4B 3804   0.745   5.269   4.898  0.0675 -0.0754 -0.1551
    1DIPC   NC3 3805  18.695  12.878   6.019  0.0613  0.0081 -0.0219
    1DIPC   PO4 3806  18.281  13.071   5.730  0.1161  0.2085  0.2271
    1DIPC   GL1 3807  18.138  12.906   5.382 -0.1389  0.1683  0.1714
    1DIPC   GL2 3808  18.099  12.545   5.447  0.0684  0.0498 -0.0476
    1DIPC   C1A 3809  18.155  12.750   4.945 -0.2209 -0.2448  0.1054
    1DIPC   D2A 3810  18.152  12.682   4.483 -0.3977 -0.2413  0.0693
    1DIPC   D3A 3811  17.804  12.526   4.715 -0.1154  0.3185 -0.1214
    1DIPC   C4A 3812  17.442  12.299   4.465 -0.2081  0.4054  0.2587
    1DIPC   C1B 3813  17.693  12.693   5.284  0.1887  0.0448  0.2598
    1DIPC   D2B 3814  17.348  12.778   5.552 -0.0234  0.0562 -0.0606
    1DIPC   D3B 3815  16.946  12.602   5.382 -0.5360 -0.1332  0.0871
    1DIPC   C4B 3816  16.643  12.533   5.061  0.2562  0.1356 -0.0479
    1DIPC   NC3 3817  28.647  27.822   6.702  0.2011 -0.1278  0.0660
    1DIPC   PO4 3818  28.352  28.042   6.894  0.0161  0.2042  0.1676
    1DIPC   GL1 3819  28.514  28.287   6.611  0.1763  0.0729  0.1672
    1DIPC   GL2 3820  28.761  28.400   6.430  0.1876 -0.0256 -0.0829
    1DIPC   C1A 3821  28.283  28.508   6.258  0.1376  0.2946 -0.2984
    1DIPC   D2A 3822  28.087  28.257   6.048 -0.1295  0.1574  0.3621
    1DIPC   D3A 3823  28.373  27.984   6.255 -0.2124 -0.0608  0.1997
    1DIPC   C4A 3824  28.363  27.536   6.085  0.2034  0.1877 -0.1180
    1DIPC   C1B 3825  28.943  28.370   6.056  0.0535  0.2090  0.1143
    1DIPC   D2B 3826  29.010  28.026   5.722  0.0317 -0.0096  0.1276
    1DIPC   D3B 3827  28.730  28.170   5.349 -0.3037 -0.0856 -0.0793
    1DIPC   C4B 3828  28.397  27.919   5.211  0.2696  0.2409 -0.2169
    1DIPC   NC3 3829  11.654  28.811   6.955 -0.2627  0.0513 -0.0125
    1DIPC   PO4 3830  11.875  28.818   6.556  0.0880  0.2141 -0.2336
    1DIPC   GL1 3831  11.732  28.486   6.199 -0.1149 -0.3374 -0.1065
    1DIPC   GL2 3832  11.650  28.163   6.214 -0.1548 -0.1543  0.0905
    1DIPC   C1A 3833  11.648  28.683   5.708  0.1600 -0.0083 -0.2115
    1DIPC   D2A 3834  11.845  29.083   5.545 -0.2552 -0.3048 -0.2120
    1DIPC   D3A 3835  11.500  28.949   5.292  0.0232 -0.1725 -0.0307
    1DIPC   C4A 3836  11.136  29.101   5.353  0.1032  0.2062 -0.1174
    1DIPC   C1B 3837  11.434  28.244   5.874  0.0034 -0.0303 -0.0696
    1DIPC   D2B 3838  11.414  28.086   5.490  0.0092  0.1623 -0.1834
    1DIPC   D3B 3839  11.552  28.391   5.227 -0.2701  0.0999  0.0193
    1DIPC   C4B 3840  11.940  28.700   5.141 -0.2701  0.2304  0.1539
    1DIPC   NC3 3841  28.517  10.013   6.541  0.0160  0.0414 -0.2166
    1DIPC   PO4 3842  28.433   9.753   6.255 -0.1873  0.1159 -0.1953
    1DIPC   GL1 3843  28.653   9.460   6.016  0.0004  0.0029 -0.2046
    1DIPC   GL2 3844  28.867   9.286   6.116  0.1533 -0.2005 -0.1211
    1DIPC   C1A 3845  28.777   9.434   5.601  0.1811  0.0553 -0.3628
    1DIPC   D2A 3846  28.583   9.473   5.224 -0.0857  0.0612 -0.0110
    1DIPC   D3A 3847  28.122   9.320   5.170 -0.0949  0.2984 -0.1355
    1DIPC   C4A 3848  27.852   9.480   4.872  0.2067  0.1760  0.3000
    1DIPC   C1B 3849  28.700   8.972   5.854  0.0894 -0.3801  0.0081
    1DIPC   D2B 3850  28.886   8.904   5.445  0.0478 -0.0646  0.1027
    1DIPC   D3B 3851  28.975   9.214   5.190 -0.2890 -0.0540  0.0947
    1DIPC   C4B 3852  29.403   9.315   5.167 -0.1569 -0.1864 -0.0948
    1DIPC   NC3 3853  13.357  12.637   6.777 -0.4741  0.2985  0.0937
    1DIPC   PO4 3854  13.487  13.102   6.720  0.1035  0.2929  0.3430
    1DIPC   GL1 3855  13.572  12.936   6.416 -0.1385  0.1908  0.0242
    1DIPC   GL2 3856  13.843  12.808   6.509 -0.1688 -0.1350  0.3633
    1DIPC   C1A 3857  13.386  12.992   6.027  0.0406  0.3326  0.0512
    1DIPC   D2A 3858  13.461  12.580   5.965 -0.3428  0.0149  0.0865
    1DIPC   D3A 3859  13.419  12.680   5.576  0.1085  0.1495  0.2553
    1DIPC   C4A 3860  13.227  12.388   5.281  0.0015  0.0107  0.2530
    1DIPC   C1B 3861  13.842  12.925   6.051 -0.2665  0.2822  0.0126
    1DIPC   D2B 3862  13.962  12.684   5.725  0.5387 -0.3334 -0.1223
    1DIPC   D3B 3863  13.778  12.339   5.437  0.0188  0.0351 -0.3210
    1DIPC   C4B 3864  13.612  12.034   5.604 -0.3091 -0.0624 -0.0945
    1DIPC   NC3 3865   9.620  10.443   6.867 -0.2337 -0.0415 -0.0364
    1DIPC   PO4 3866   9.683   9.980   6.839  0.0562 -0.4725 -0.0514
    1DIPC   GL1 3867   9.665  10.135   6.435  0.2358 -0.0761  0.1767
    1DIPC   GL2 3868   9.364  10.036   6.412  0.1107 -0.1302 -0.2159
    1DIPC   C1A 3869   9.779  10.377   6.121 -0.0243 -0.0128 -0.1092
    1DIPC   D2A 3870   9.557  10.617   5.848  0.1617  0.2741  0.0216
    1DIPC   D3A 3871   9.393  10.993   5.997  0.0274 -0.2714  0.2849
    1DIPC   C4A 3872   9.095  11.081   5.737  0.2799  0.0998 -0.1387
    1DIPC   C1B 3873   9.407   9.996   5.918 -0.0610  0.2101  0.0887
    1DIPC   D2B 3874   9.587  10.191   5.609  0.2611 -0.1858  0.0648
    1DIPC   D3B 3875   9.559  10.629   5.357 -0.0736 -0.0576 -0.0511
    1DIPC   C4B 3876   9.449  11.053   5.454 -0.2542  0.1876 -0.0576
    1DIPC   NC3 3877  16.419   3.680   7.584  0.0946 -0.0313  0.3395
    1DIPC   PO4 3878  16.590   3.920   7.233  0.0467 -0.4651 -0.2161
    1DIPC   GL1 3879  16.599   3.824   6.830 -0.1766 -0.0394 -0.3336
    1DIPC   GL2 3880  16.806   3.719   6.545  0.3920  0.2627  0.0182
    1DIPC   C1A 3881  16.383   3.991   6.501  0.0051 -0.2502 -0.3521
    1DIPC   D2A 3882  16.187   4.284   6.314  0.0515 -0.2072 -0.0301
    1DIPC   D3A 3883  16.390   4.477   6.086 -0.2904 -0.1452  0.3019
    1DIPC   C4A 3884  16.483   4.802   6.235  0.2459 -0.0602  0.0042
    1DIPC   C1B 3885  16.916   3.777   6.123  0.0032  0.0367 -0.1635
    1DIPC   D2B 3886  16.796   3.719   5.692 -0.0990  0.0524 -0.3047
    1DIPC   D3B 3887  16.961   4.016   5.659 -0.0805 -0.0814  0.1549
    1DIPC   C4B 3888  17.367   4.047   5.905 -0.1540  0.4995 -0.0606
    1DIPC   NC3 3889   1.647   8.835   6.781 -0.0070  0.0736 -0.1514
    1DIPC   PO4 3890   1.828   8.491   6.664 -0.0506 -0.1467 -0.0925
    1DIPC   GL1 3891   1.911   8.743   6.320 -0.2171 -0.0386 -0.0256
    1DIPC   GL2 3892   1.650   9.016   6.255  0.1568  0.0434 -0.1114
    1DIPC   C1A 3893   1.934   8.858   5.885 -0.0446 -0.3317  0.1042
    1DIPC   D2A 3894   1.684   9.009   5.517 -0.0642 -0.0934  0.2072
    1DIPC   D3A 3895   1.442   9.113   5.193  0.0315  0.2154 -0.0612
    1DIPC   C4A 3896   1.187   9.425   5.332 -0.3094  0.1738  0.1126
    1DIPC   C1B 3897   1.452   8.684   5.917  0.2522 -0.0141 -0.1784
    1DIPC   D2B 3898   1.212   8.380   5.934  0.0541 -0.1145 -0.0238
    1DIPC   D3B 3899   1.071   8.156   5.536 -0.0442  0.1420  0.1828
    1DIPC   C4B 3900   0.712   8.162   5.433  0.1837 -0.0544  0.1513
    1DIPC   NC3 3901  22.774   8.790   6.849 -0.2591 -0.1583 -0.0372
    1DIPC   PO4 3902  23.061   8.557   6.678 -0.2087  0.0392 -0.0546
    1DIPC   GL1 3903  22.903   8.587   6.342  0.1387  0.1950  0.0924
    1DIPC   GL2 3904  22.562   8.621   6.391  0.2421  0.2076  0.1410
    1DIPC   C1A 3905  23.072   8.582   5.983 -0.2921  0.1839 -0.0252
    1DIPC   D2A 3906  23.190   8.824   5.725  0.0056  0.0733 -0.2296
    1DIPC   D3A 3907  23.542   8.873   5.803  0.2087  0.1968  0.0764
    1DIPC   C4A 3908  23.527   9.246   6.063  0.2660  0.0071 -0.0454
    1DIPC   C1B 3909  22.565   8.484   5.924  0.0323  0.0571  0.2703
    1DIPC   D2B 3910  22.630   8.241   5.590  0.0988  0.1216 -0.1041
    1DIPC   D3B 3911  22.884   8.483   5.396 -0.1225 -0.2544  0.0639
    1DIPC   C4B 3912  23.155   8.675   5.130 -0.1073 -0.0086  0.0263
    1DIPC   NC3 3913   9.946   1.391   7.256 -0.2322  0.0890  0.0973
    1DIPC   PO4 3914   9.621   1.068   7.252 -0.1653  0.0792 -0.1500
    1DIPC   GL1 3915   9.750   1.205   6.854  0.2938 -0.0520 -0.0333
    1DIPC   GL2 3916   9.741   1.548   6.788 -0.0319 -0.2851  0.2002
    1DIPC   C1A 3917   9.703   1.188   6.301  0.2258  0.1522 -0.2322
    1DIPC   D2A 3918   9.521   1.069   5.921  0.1442 -0.0716 -0.0093
    1DIPC   D3A 3919   9.508   0.679   6.081 -0.2298  0.0368  0.2337
    1DIPC   C4A 3920   9.525   0.317   5.927 -0.0243  0.0920  0.2226
    1DIPC   C1B 3921  10.084   1.559   6.633  0.2350  0.0156  0.1244
    1DIPC   D2B 3922  10.457   1.446   6.431  0.1257 -0.2410  0.3633
    1DIPC   D3B 3923  10.259   1.181   6.112  0.0224  0.0817 -0.0574
    1DIPC   C4B 3924  10.010   0.884   5.931 -0.2844 -0.2305  0.1905
    1DIPC   NC3 3925   3.473  22.737   7.159  0.0927  0.2258 -0.0561
    1DIPC   PO4 3926   3.484  23.194   7.177  0.2004 -0.1657 -0.0627
    1DIPC   GL1 3927   3.650  23.199   6.779 -0.0187  0.0092 -0.0482
    1DIPC   GL2 3928   3.800  22.869   6.814  0.3577 -0.0402 -0.0360
    1DIPC   C1A 3929   3.476  22.933   6.339 -0.1037 -0.0889  0.1469
    1DIPC   D2A 3930   3.199  22.935   6.143  0.1591  0.0529  0.0886
    1DIPC   D3A 3931   3.249  22.899   5.644  0.4862  0.2487 -0.3536
    1DIPC   C4A 3932   2.919  22.867   5.317 -0.1122  0.0143  0.1259
    1DIPC   C1B 3933   4.017  22.760   6.438  0.0751  0.1486 -0.0495
    1DIPC   D2B 3934   4.156  22.984   6.052  0.1623 -0.1929 -0.2078
    1DIPC   D3B 3935   3.972  22.990   5.773  0.1246 -0.0690 -0.2894
    1DIPC   C4B 3936   3.667  22.731   5.440 -0.0540 -0.2769  0.0746
    1DIPC   NC3 3937  14.720   2.490   6.624 -0.4363  0.0034  0.1098
    1DIPC   PO4 3938  14.849   2.045   6.444  0.0506 -0.2332  0.2696
    1DIPC   GL1 3939  15.199   1.974   6.230  0.2026 -0.5737  0.0513
    1DIPC   GL2 3940  15.380   2.313   5.929  0.0386 -0.0821  0.1107
    1DIPC   C1A 3941  15.254   1.758   5.792  0.0571 -0.0967 -0.0543
    1DIPC   D2A 3942  15.144   1.550   5.473 -0.2366  0.4054 -0.3311
    1DIPC   D3A 3943  15.531   1.314   5.406  0.1057 -0.0842  0.0999
    1DIPC   C4A 3944  15.703   0.964   5.410 -0.2399  0.1262  0.2564
    1DIPC   C1B 3945  15.156   2.539   5.759 -0.1780  0.1281 -0.0720
    1DIPC   D2B 3946  14.718   2.658   5.644  0.2858  0.1269  0.4428
    1DIPC   D3B 3947  15.029   2.705   5.302  0.1623 -0.0851 -0.0015
    1DIPC   C4B 3948  15.187   2.348   5.116  0.2145  0.0427 -0.1282
    1DIPC   NC3 3949  15.732  29.197   6.203  0.2047 -0.0222 -0.1044
    1DIPC   PO4 3950  16.188  29.166   6.517 -0.0545  0.0014  0.2723
    1DIPC   GL1 3951  16.206  29.469   6.121 -0.2180 -0.0717  0.0714
    1DIPC   GL2 3952  16.124  29.318   5.756  0.0344  0.2548 -0.3184
    1DIPC   C1A 3953  16.561  29.654   5.907 -0.1128 -0.0955  0.0466
    1DIPC   D2A 3954  16.680  30.058   5.732 -0.2827 -0.0339  0.0209
    1DIPC   D3A 3955  16.346  30.242   5.451 -0.1846 -0.5437  0.2158
    1DIPC   C4A 3956  16.270  30.767   5.238  0.0650  0.0268 -0.0863
    1DIPC   C1B 3957  16.271  29.444   5.442 -0.1484  0.1221 -0.0762
    1DIPC   D2B 3958  16.666  29.492   5.246 -0.0780  0.0624  0.1567
    1DIPC   D3B 3959  16.641  29.453   4.739 -0.1620 -0.1685  0.1633
    1DIPC   C4B 3960  16.454  29.014   4.655  0.2544 -0.2998 -0.0884
    1DIPC   NC3 3961  20.665   1.191   6.772 -0.0413 -0.0221  0.0608
    1DIPC   PO4 3962  20.250   1.381   6.785 -0.3452  0.0396  0.1642
    1DIPC   GL1 3963  20.057   1.386   6.437 -0.0339 -0.1546  0.1048
    1DIPC   GL2 3964  19.679   1.414   6.327 -0.0130  0.0980 -0.1725
    1DIPC   C1A 3965  19.971   1.063   6.118  0.1048 -0.2083 -0.1433
    1DIPC   D2A 3966  19.978   1.012   5.688  0.0880 -0.1255 -0.2371
    1DIPC   D3A 3967  19.728   1.402   5.658 -0.0132 -0.1400 -0.0270
    1DIPC   C4A 3968  19.822   1.660   5.361 -0.2817  0.0751  0.1683
    1DIPC   C1B 3969  19.416   1.574   6.018 -0.2035 -0.0383  0.3824
    1DIPC   D2B 3970  19.283   1.644   5.631  0.1938 -0.1016  0.2406
    1DIPC   D3B 3971  18.984   1.428   5.573 -0.1824  0.1544  0.1233
    1DIPC   C4B 3972  18.677   1.437   5.704 -0.1890 -0.0598  0.0165
    1DIPC   NC3 3973  24.931  10.365   6.284  0.0181  0.1157 -0.2664
    1DIPC   PO4 3974  25.174  10.166   6.003  0.0390 -0.0964 -0.0448
    1DIPC   GL1 3975  25.056  10.079   5.700  0.1762 -0.0261  0.0310
    1DIPC   GL2 3976  25.145  10.381   5.456 -0.1049 -0.1320  0.1113
    1DIPC   C1A 3977  25.125   9.851   5.332  0.2576 -0.0561  0.3035
    1DIPC   D2A 3978  25.424   9.846   4.957 -0.3280 -0.1217  0.2815
    1DIPC   D3A 3979  25.407   9.734   4.638 -0.1491  0.0449 -0.5356
    1DIPC   C4A 3980  25.559   9.782   4.236  0.1160  0.3957 -0.1853
    1DIPC   C1B 3981  25.121  10.270   4.954  0.2290 -0.0201  0.0750
    1DIPC   D2B 3982  25.220  10.119   4.482  0.0731 -0.1744 -0.0842
    1DIPC   D3B 3983  24.872   9.809   4.596  0.0103 -0.2102  0.0041
    1DIPC   C4B 3984  24.702  10.005   5.018 -0.2456  0.3498  0.1065
    1DIPC   NC3 3985  26.456   3.164   7.011  0.1547  0.1503  0.3096
    1DIPC   PO4 3986  26.553   3.550   6.887  0.1093  0.0857  0.1368
    1DIPC   GL1 3987  26.484   3.464   6.511  0.0523 -0.0877 -0.2838
    1DIPC   GL2 3988  26.788   3.249   6.378 -0.1050  0.0407  0.0674
    1DIPC   C1A 3989  26.277   3.274   6.112 -0.1162 -0.0619 -0.1087
    1DIPC   D2A 3990  26.435   3.112   5.842 -0.0571 -0.2197 -0.0552
    1DIPC   D3A 3991  26.595   3.024   5.401  0.2272  0.0279 -0.0585
    1DIPC   C4A 3992  26.395   2.991   4.978  0.0398  0.1491 -0.0364
    1DIPC   C1B 3993  27.065   3.106   6.074  0.1512 -0.0864  0.1655
    1DIPC   D2B 3994  27.030   3.062   5.587  0.1800 -0.1103 -0.0539
    1DIPC   D3B 3995  26.786   3.522   5.565 -0.0870 -0.0550 -0.0142
    1DIPC   C4B 3996  26.760   3.550   5.970 -0.2401  0.2464 -0.0765
    1DIPC   NC3 3997  18.848  25.561   7.679 -0.0473 -0.0793  0.0424
    1DIPC   PO4 3998  18.822  25.932   7.397  0.1247  0.2503 -0.1455
    1DIPC   GL1 3999  18.824  25.865   6.992  0.0101 -0.0124  0.2716
    1DIPC   GL2 4000  19.079  25.737   6.779  0.0717  0.1746 -0.1714
    1DIPC   C1A 4001  18.820  26.150   6.666  0.0119  0.3723  0.0937
    1DIPC   D2A 4002  18.726  26.624   6.517  0.0751  0.1210  0.1768
    1DIPC   D3A 4003  18.900  26.966   6.167 -0.2032  0.1389  0.0627
    1DIPC   C4A 4004  18.867  27.352   6.263 -0.0434 -0.3678  0.4051
    1DIPC   C1B 4005  18.946  25.422   6.466 -0.1027  0.1692 -0.2572
    1DIPC   D2B 4006  18.719  25.100   6.289  0.0377  0.1725 -0.1279
    1DIPC   D3B 4007  18.640  25.285   5.925  0.1969 -0.2944 -0.1698
    1DIPC   C4B 4008  18.754  25.145   5.502 -0.0181 -0.1662 -0.1499
    1DIPC   NC3 4009  22.448   3.865   8.109  0.0141  0.1420  0.0603
    1DIPC   PO4 4010  22.683   3.728   7.775 -0.0951  0.2826  0.3424
    1DIPC   GL1 4011  22.708   3.784   7.307 -0.0402  0.1578 -0.2176
    1DIPC   GL2 4012  22.915   3.591   7.220 -0.0791  0.0495 -0.0104
    1DIPC   C1A 4013  22.700   3.972   6.875 -0.0290  0.0805 -0.1686
    1DIPC   D2A 4014  22.558   4.319   6.738 -0.1023 -0.0178  0.3895
    1DIPC   D3A 4015  22.336   4.217   6.261 -0.3486  0.0125 -0.2005
    1DIPC   C4A 4016  22.372   3.900   6.069 -0.1647  0.1133 -0.0882
    1DIPC   C1B 4017  22.974   3.585   6.711  0.0915 -0.0929  0.0676
    1DIPC   D2B 4018  22.870   3.549   6.223  0.0513  0.2104  0.0208
    1DIPC   D3B 4019  22.550   3.401   6.189  0.0779  0.0303 -0.0695
    1DIPC   C4B 4020  22.542   3.148   5.848  0.0698  0.3218 -0.1394
    1DIPC   NC3 4021  12.166  25.183   6.695 -0.0847 -0.1131 -0.1787
    1DIPC   PO4 4022  12.599  25.124   6.567 -0.1869  0.2453  0.1795
    1DIPC   GL1 4023  12.632  25.364   6.120  0.0306  0.3034  0.0516
    1DIPC   GL2 4024  12.846  25.195   5.859  0.0228 -0.2024  0.1357
    1DIPC   C1A 4025  12.533  25.544   5.673 -0.0695  0.2407  0.1573
    1DIPC   D2A 4026  12.515  25.749   5.242 -0.1828  0.0890  0.0857
    1DIPC   D3A 4027  12.429  25.746   4.749 -0.1892  0.0996 -0.1664
    1DIPC   C4A 4028  12.237  25.277   4.780  0.0996  0.0926  0.0702
    1DIPC   C1B 4029  12.574  25.071   5.537  0.0262  0.0263 -0.1276
    1DIPC   D2B 4030  12.603  25.045   5.177 -0.3233  0.1668 -0.1954
    1DIPC   D3B 4031  12.750  25.387   4.964 -0.2448 -0.1839 -0.0158
    1DIPC   C4B 4032  13.239  25.485   4.980 -0.0772  0.0798 -0.0338
    1DIPC   NC3 4033  26.955  10.645   6.709 -0.4653  0.4594  0.2215
    1DIPC   PO4 4034  27.207  10.418   6.332  0.1263  0.0401 -0.2074
    1DIPC   GL1 4035  26.975  10.480   5.902  0.2523  0.2992 -0.2219
    1DIPC   GL2 4036  26.946  10.260   5.603 -0.0979  0.4048  0.1840
    1DIPC   C1A 4037  27.127  10.734   5.553  0.0717 -0.0242 -0.4176
    1DIPC   D2A 4038  27.319  10.644   5.206 -0.0966  0.3574 -0.1159
    1DIPC   D3A 4039  27.104  10.329   5.027 -0.0695 -0.0918 -0.0738
    1DIPC   C4A 4040  27.420  10.139   4.703  0.0085 -0.1726  0.1610
    1DIPC   C1B 4041  26.628  10.163   5.337 -0.1992  0.3035 -0.2930
    1DIPC   D2B 4042  26.678  10.002   4.892 -0.4244 -0.0158 -0.1745
    1DIPC   D3B 4043  26.937  10.083   4.513 -0.1620  0.1198 -0.2080
    1DIPC   C4B 4044  27.271  10.301   4.265 -0.3047  0.1313  0.1560
    1DIPC   NC3 4045  14.112  15.508   6.611  0.5242 -0.3603 -0.1338
    1DIPC   PO4 4046  13.663  15.502   6.599  0.1558  0.1851  0.0262
    1DIPC   GL1 4047  13.865  15.940   6.316 -0.2669 -0.3306 -0.1587
    1DIPC   GL2 4048  14.097  15.753   6.117 -0.0597  0.0435 -0.0752
    1DIPC   C1A 4049  14.028  16.369   6.201  0.2842  0.4530 -0.2344
    1DIPC   D2A 4050  14.404  16.690   6.110 -0.0918 -0.0257 -0.0606
    1DIPC   D3A 4051  14.648  16.455   5.801 -0.4213  0.0353  0.0734
    1DIPC   C4A 4052  14.902  16.606   5.411 -0.1337 -0.0834 -0.2317
    1DIPC   C1B 4053  13.983  15.681   5.605  0.0954 -0.0542  0.0952
    1DIPC   D2B 4054  14.000  15.782   5.202  0.1153 -0.1763  0.1203
    1DIPC   D3B 4055  14.241  15.457   4.922  0.4153 -0.0318  0.1297
    1DIPC   C4B 4056  13.888  15.176   4.671  0.2768 -0.1043 -0.3170
    1DIPC   NC3 4057  26.329  10.422   5.954  0.1110  0.0785  0.0455
    1DIPC   PO4 4058  26.233  10.817   6.058 -0.0969 -0.0711 -0.0729
    1DIPC   GL1 4059  26.166  11.082   5.707 -0.3728  0.2334  0.3010
    1DIPC   GL2 4060  25.933  11.232   5.681 -0.2335 -0.3037 -0.3282
    1DIPC   C1A 4061  26.202  11.400   5.309  0.2155  0.3217  0.0339
    1DIPC   D2A 4062  26.378  11.745   5.124  0.1470  0.0074 -0.1136
    1DIPC   D3A 4063  26.147  11.593   4.691  0.0799 -0.2841 -0.0748
    1DIPC   C4A 4064  25.821  11.757   4.492 -0.1092 -0.3136 -0.0119
    1DIPC   C1B 4065  25.679  11.194   5.294 -0.2751  0.1220 -0.2200
    1DIPC   D2B 4066  25.638  11.437   4.881 -0.1048 -0.2883  0.1657
    1DIPC   D3B 4067  25.288  11.709   4.752  0.1188 -0.0172 -0.1925
    1DIPC   C4B 4068  24.949  11.983   4.866  0.0179 -0.2907  0.0650
    1DIPC   NC3 4069  16.960  28.618   6.715  0.0726  0.0567  0.3133
    1DIPC   PO4 4070  17.362  28.783   6.680 -0.0128  0.3144  0.0661
    1DIPC   GL1 4071  17.451  28.538   6.305  0.0733  0.1275  0.1803
    1DIPC   GL2 4072  17.250  28.719   6.218 -0.0431 -0.0238 -0.0599
    1DIPC   C1A 4073  17.711  28.385   6.008  0.0342  0.1520  0.3030
    1DIPC   D2A 4074  18.012  28.248   5.733 -0.2215 -0.3026  0.0788
    1DIPC   D3A 4075  17.745  28.652   5.487 -0.3613  0.1594  0.0086
    1DIPC   C4A 4076  17.499  28.550   5.124 -0.1805 -0.0800  0.2169
    1DIPC   C1B 4077  17.103  28.369   5.957 -0.1538  0.2279  0.1137
    1DIPC   D2B 4078  17.358  28.197   5.629 -0.0227  0.1097  0.2676
    1DIPC   D3B 4079  17.759  28.162   5.342  0.0746 -0.0019 -0.0588
    1DIPC   C4B 4080  17.786  28.111   4.956 -0.0459  0.0623 -0.0681
    1DIPC   NC3 4081   8.753   0.391   7.175 -0.0700  0.2533 -0.1328
    1DIPC   PO4 4082   8.889   0.663   6.750 -0.0635 -0.1752 -0.1008
    1DIPC   GL1 4083   9.016   0.721   6.376 -0.1213 -0.0898 -0.1035
    1DIPC   GL2 4084   9.236   0.987   6.364 -0.1632 -0.0196  0.0811
    1DIPC   C1A 4085   9.016   0.362   6.052  0.1106 -0.1885  0.0585
    1DIPC   D2A 4086   9.114   0.157   5.645  0.2507 -0.1783 -0.0922
    1DIPC   D3A 4087   9.266   0.324   5.357  0.1260  0.1085  0.0993
    1DIPC   C4A 4088   9.581   0.682   5.564  0.1132  0.2783  0.1366
    1DIPC   C1B 4089   9.072   0.844   5.872 -0.0750  0.1558 -0.5064
    1DIPC   D2B 4090   8.876   0.566   5.596 -0.0979 -0.1734  0.2434
    1DIPC   D3B 4091   8.620   0.924   5.625 -0.0705  0.2323 -0.1740
    1DIPC   C4B 4092   8.302   1.020   6.007  0.5061 -0.1892  0.1654
    1DIPC   NC3 4093  15.736  17.398   6.922 -0.0120  0.0621 -0.2546
    1DIPC   PO4 4094  15.856  17.680   6.566 -0.0151 -0.0352 -0.1112
    1DIPC   GL1 4095  15.671  17.619   6.222 -0.1255 -0.1999 -0.1964
    1DIPC   GL2 4096  15.977  17.573   6.067 -0.0073 -0.3334 -0.2264
    1DIPC   C1A 4097  15.473  17.816   5.833  0.1678 -0.0502 -0.1395
    1DIPC   D2A 4098  15.123  17.897   5.569 -0.2173  0.1454 -0.1237
    1DIPC   D3A 4099  15.610  18.042   5.374  0.1248 -0.0341 -0.0794
    1DIPC   C4A 4100  15.793  17.702   5.114  0.1897 -0.0343 -0.1252
    1DIPC   C1B 4101  16.246  17.204   5.860  0.0899 -0.0132  0.1456
    1DIPC   D2B 4102  16.255  16.722   5.915 -0.2905 -0.2074  0.2132
    1DIPC   D3B 4103  16.058  16.976   6.226  0.2055  0.2100  0.0213
    1DIPC   C4B 4104  15.754  17.179   6.212 -0.0126  0.1717 -0.1710
    1DIPC   NC3 4105   7.529   4.468   7.536 -0.1629  0.2277  0.1211
    1DIPC   PO4 4106   7.634   4.700   7.263 -0.0364 -0.1521 -0.2034
    1DIPC   GL1 4107   7.754   4.684   6.806 -0.2484 -0.1153 -0.1057
    1DIPC   GL2 4108   8.063   4.717   6.864  0.1375 -0.1400  0.1394
    1DIPC   C1A 4109   7.680   4.814   6.410  0.1433 -0.0330 -0.2490
    1DIPC   D2A 4110   7.544   4.648   6.114 -0.1036 -0.0598  0.1325
    1DIPC   D3A 4111   7.734   4.392   5.787 -0.0972 -0.0676  0.1416
    1DIPC   C4A 4112   7.603   3.883   5.710 -0.0610  0.0635 -0.4084
    1DIPC   C1B 4113   8.198   4.490   6.438  0.0641  0.4683 -0.0361
    1DIPC   D2B 4114   8.414   4.424   6.042  0.0242 -0.0692  0.0023
    1DIPC   D3B 4115   8.385   4.122   5.680 -0.0869 -0.2008  0.0040
    1DIPC   C4B 4116   7.996   4.097   5.483  0.0916 -0.1263  0.0730
    1DIPC   NC3 4117  10.928  27.528   6.859 -0.1999  0.1532 -0.0603
    1DIPC   PO4 4118  11.009  27.983   6.863  0.0620 -0.3353 -0.0412
    1DIPC   GL1 4119  11.142  28.044   6.416  0.0001 -0.1955 -0.0173
    1DIPC   GL2 4120  11.224  28.430   6.317 -0.2026  0.1924  0.2583
    1DIPC   C1A 4121  11.287  27.816   6.128  0.1211 -0.0569 -0.1033
    1DIPC   D2A 4122  11.140  27.398   6.029  0.2674  0.0928  0.1056
    1DIPC   D3A 4123  11.028  27.352   5.609  0.1953 -0.0037  0.1269
    1DIPC   C4A 4124  10.638  27.484   5.560  0.1990  0.1031  0.2804
    1DIPC   C1B 4125  11.153  28.658   6.098 -0.1830  0.0699  0.0471
    1DIPC   D2B 4126  11.125  28.965   5.834 -0.0296 -0.0712 -0.0214
    1DIPC   D3B 4127  10.702  29.027   5.628  0.0927  0.1376 -0.1706
    1DIPC   C4B 4128  10.699  29.339   5.303  0.2832  0.0381 -0.2839
    1DIPC   NC3 4129   9.116  22.673   6.537 -0.1583 -0.1017  0.0439
    1DIPC   PO4 4130   9.378  22.300   6.538  0.1631  0.0666  0.3285
    1DIPC   GL1 4131   9.269  22.381   6.096 -0.2147 -0.1161  0.0388
    1DIPC   GL2 4132   9.000  22.320   6.095  0.1643  0.0579  0.0172
    1DIPC   C1A 4133   9.459  22.689   5.713  0.2196  0.0073 -0.3157
    1DIPC   D2A 4134   9.717  22.987   5.456  0.1629 -0.0791 -0.4822
    1DIPC   D3A 4135   9.856  22.817   5.084 -0.3625  0.0381  0.1117
    1DIPC   C4A 4136   9.618  22.489   4.774  0.2813  0.0244 -0.0921
    1DIPC   C1B 4137   8.983  22.429   5.671 -0.0759 -0.1556  0.1154
    1DIPC   D2B 4138   9.258  22.458   5.381 -0.0092  0.1177  0.5406
    1DIPC   D3B 4139   9.232  22.632   5.076 -0.4908  0.4022 -0.2460
    1DIPC   C4B 4140   8.882  22.624   4.805 -0.2064  0.0249 -0.2026
    1DIPC   NC3 4141  17.331  27.764   6.783 -0.1364  0.0508  0.2027
    1DIPC   PO4 4142  17.789  27.585   6.890 -0.0335  0.0631 -0.2587
    1DIPC   GL1 4143  17.727  27.472   6.421  0.0523  0.0496 -0.0831
    1DIPC   GL2 4144  17.700  27.141   6.288  0.3871  0.1084 -0.1482
    1DIPC   C1A 4145  17.996  27.370   5.962 -0.0500  0.0146 -0.0005
    1DIPC   D2A 4146  18.061  27.311   5.480 -0.0022 -0.2947 -0.1925
    1DIPC   D3A 4147  18.070  26.853   5.651  0.1100 -0.3926 -0.0287
    1DIPC   C4A 4148  17.970  26.758   6.046  0.2229 -0.0041  0.2272
    1DIPC   C1B 4149  17.290  27.014   6.217 -0.1777 -0.2069  0.3034
    1DIPC   D2B 4150  16.969  27.137   5.857 -0.0710  0.1353  0.0907
    1DIPC   D3B 4151  16.772  26.926   5.417  0.0004  0.1520 -0.3663
    1DIPC   C4B 4152  16.638  26.509   5.406  0.1920  0.1789 -0.1015
    1DIPC   NC3 4153  15.144   7.451   6.839  0.2324  0.0067  0.1126
    1DIPC   PO4 4154  14.981   7.689   6.438  0.0120 -0.1968 -0.0175
    1DIPC   GL1 4155  15.198   7.761   6.048 -0.0186 -0.1779  0.2728
    1DIPC   GL2 4156  15.106   7.416   5.929  0.0028  0.0517  0.0487
    1DIPC   C1A 4157  15.476   7.729   5.651  0.2887  0.2510 -0.1087
    1DIPC   D2A 4158  15.332   7.547   5.275  0.0396 -0.0532 -0.1059
    1DIPC   D3A 4159  15.251   7.250   5.494  0.4395 -0.0609 -0.0853
    1DIPC   C4A 4160  14.897   6.933   5.330 -0.1257  0.0383 -0.0446
    1DIPC   C1B 4161  14.968   7.708   5.659 -0.1010 -0.0655  0.3694
    1DIPC   D2B 4162  14.652   7.914   5.580  0.1755 -0.2155 -0.0450
    1DIPC   D3B 4163  14.664   7.938   5.141  0.1037  0.2783  0.0902
    1DIPC   C4B 4164  15.021   7.889   5.014  0.1665  0.1443  0.0798
    1DIPC   NC3 4165  21.226  16.580   5.991 -0.0277 -0.1002  0.0492
    1DIPC   PO4 4166  20.796  16.733   6.035 -0.0137  0.1278 -0.0315
    1DIPC   GL1 4167  20.672  16.815   5.649  0.0504  0.2668 -0.0379
    1DIPC   GL2 4168  20.429  16.775   5.531 -0.0538 -0.0851  0.2182
    1DIPC   C1A 4169  20.730  16.774   5.088  0.2086  0.1048  0.1005
    1DIPC   D2A 4170  21.131  16.623   5.002 -0.0696  0.0558 -0.0412
    1DIPC   D3A 4171  20.834  16.475   4.676  0.1151 -0.0787  0.0487
    1DIPC   C4A 4172  20.770  16.016   4.727 -0.1518 -0.0902 -0.2341
    1DIPC   C1B 4173  20.213  16.817   5.176  0.0413 -0.2078 -0.1308
    1DIPC   D2B 4174  20.042  16.987   4.810 -0.0882  0.1222  0.1962
    1DIPC   D3B 4175  20.345  16.693   4.701  0.2162  0.0218  0.1898
    1DIPC   C4B 4176  20.203  16.719   4.311  0.0669 -0.0906  0.2108
    1DIPC   NC3 4177   4.368  25.121   6.799 -0.4390  0.0616  0.1243
    1DIPC   PO4 4178   4.053  25.219   6.556 -0.1581  0.0445 -0.2365
    1DIPC   GL1 4179   3.862  25.197   6.177  0.0080  0.0661  0.0122
    1DIPC   GL2 4180   4.008  25.174   5.910 -0.1691 -0.0535 -0.0537
    1DIPC   C1A 4181   3.582  24.886   5.949 -0.2012  0.1554 -0.2604
    1DIPC   D2A 4182   3.320  24.652   5.660  0.0298  0.1852 -0.3018
    1DIPC   D3A 4183   3.046  24.661   5.391 -0.1810 -0.1293 -0.0710
    1DIPC   C4A 4184   2.908  24.425   5.132  0.2218 -0.1061 -0.0114
    1DIPC   C1B 4185   3.877  24.744   5.612 -0.0419 -0.0069 -0.1736
    1DIPC   D2B 4186   3.820  24.523   5.252 -0.2419  0.0415 -0.0102
    1DIPC   D3B 4187   3.411  24.289   5.142 -0.0888 -0.1310 -0.0373
    1DIPC   C4B 4188   3.365  24.026   5.481 -0.0107  0.0458 -0.1904
    1DIPC   NC3 4189  13.418   0.540   7.033  0.1546 -0.1320 -0.0285
    1DIPC   PO4 4190  13.790   0.779   6.915 -0.2719 -0.1903  0.0127
    1DIPC   GL1 4191  13.952   0.860   6.509  0.0979 -0.2560  0.2260
    1DIPC   GL2 4192  14.214   0.762   6.259  0.2589 -0.0511  0.2955
    1DIPC   C1A 4193  13.752   0.882   6.090 -0.2154  0.0632  0.2203
    1DIPC   D2A 4194  13.401   1.045   5.704 -0.0038  0.0301 -0.0219
    1DIPC   D3A 4195  13.002   1.310   5.652  0.0631  0.3502  0.0046
    1DIPC   C4A 4196  13.030   1.674   5.385  0.0110  0.0998 -0.2467
    1DIPC   C1B 4197  14.227   0.855   5.889 -0.0418 -0.0311 -0.0971
    1DIPC   D2B 4198  14.426   1.234   5.734  0.4671 -0.1099 -0.1892
    1DIPC   D3B 4199  14.455   1.455   5.389  0.2598 -0.7712 -0.2621
    1DIPC   C4B 4200  14.856   1.532   5.052 -0.0998 -0.0701 -0.3300
    1DIPC   NC3 4201  20.051  24.272   7.018  0.2621 -0.1555 -0.0856
    1DIPC   PO4 4202  19.543  24.273   6.927  0.1338 -0.2726 -0.2187
    1DIPC   GL1 4203  19.539  24.349   6.448 -0.0097  0.0558 -0.0197
    1DIPC   GL2 4204  19.754  24.548   6.419  0.1043 -0.0843 -0.0720
    1DIPC   C1A 4205  19.634  24.337   5.965  0.5094  0.1315  0.3147
    1DIPC   D2A 4206  19.675  24.238   5.469  0.1839 -0.2282 -0.1192
    1DIPC   D3A 4207  19.665  24.328   5.103 -0.0735 -0.1667 -0.0065
    1DIPC   C4A 4208  20.052  24.500   4.944 -0.3614  0.2231 -0.2798
    1DIPC   C1B 4209  19.591  24.845   6.218  0.0675  0.1119 -0.2599
    1DIPC   D2B 4210  19.241  25.116   6.186 -0.0646  0.0878  0.0998
    1DIPC   D3B 4211  19.185  25.292   5.741  0.3540  0.4201 -0.3329
    1DIPC   C4B 4212  19.503  25.324   5.437 -0.0674 -0.0957  0.3599
    1DIPC   NC3 4213   7.003   8.005   7.425  0.0796 -0.2791  0.0473
    1DIPC   PO4 4214   7.371   8.336   7.200  0.2541  0.2201 -0.2191
    1DIPC   GL1 4215   7.487   8.396   6.772 -0.0824  0.1849  0.2429
    1DIPC   GL2 4216   7.585   8.053   6.605  0.4625  0.0756  0.1665
    1DIPC   C1A 4217   7.728   8.464   6.311  0.1463 -0.1309  0.0713
    1DIPC   D2A 4218   7.560   8.290   5.827 -0.1150 -0.1496  0.0462
    1DIPC   D3A 4219   7.241   7.975   5.678 -0.0994 -0.0711 -0.2167
    1DIPC   C4A 4220   6.763   8.100   5.644  0.2596  0.1545 -0.0493
    1DIPC   C1B 4221   7.199   8.211   6.437 -0.0773  0.3330  0.0536
    1DIPC   D2B 4222   6.954   8.217   6.108  0.2232 -0.1065  0.0413
    1DIPC   D3B 4223   6.716   8.487   6.340 -0.0452 -0.0069 -0.3839
    1DIPC   C4B 4224   6.642   8.931   6.273  0.4107 -0.2357 -0.0176
    1DIPC   NC3 4225   9.741   7.600   7.107 -0.2096 -0.0381  0.1028
    1DIPC   PO4 4226   9.443   7.805   6.846 -0.1214 -0.1480  0.1983
    1DIPC   GL1 4227   9.320   7.734   6.441 -0.0391 -0.0041 -0.1326
    1DIPC   GL2 4228   9.389   8.115   6.249  0.0435 -0.3051 -0.3989
    1DIPC   C1A 4229   9.340   7.524   6.056  0.0973 -0.4044 -0.3846
    1DIPC   D2A 4230   9.199   7.585   5.558 -0.1971  0.2926  0.0999
    1DIPC   D3A 4231   9.401   7.368   5.116 -0.6491 -0.0484  0.1621
    1DIPC   C4A 4232   9.155   7.682   4.966  0.1222 -0.4086  0.0026
    1DIPC   C1B 4233   9.530   7.909   5.854 -0.3014 -0.3344 -0.1174
    1DIPC   D2B 4234   9.405   8.019   5.389 -0.3540  0.1922  0.0031
    1DIPC   D3B 4235   9.672   8.360   5.235  0.2232 -0.5300  0.1011
    1DIPC   C4B 4236   9.972   8.608   5.439  0.0767 -0.3969  0.2980
    1DIPC   NC3 4237  14.162   4.625   7.020 -0.1695 -0.0292  0.0845
    1DIPC   PO4 4238  13.895   4.318   6.905  0.1674  0.3365 -0.2963
    1DIPC   GL1 4239  13.932   4.203   6.389  0.2191 -0.0946  0.0312
    1DIPC   GL2 4240  14.258   3.851   6.270  0.3152  0.0840  0.1645
    1DIPC   C1A 4241  14.145   4.432   6.080  0.1107 -0.0023 -0.0186
    1DIPC   D2A 4242  14.603   4.384   6.037  0.1502 -0.3351 -0.0686
    1DIPC   D3A 4243  14.575   4.773   5.845 -0.0329 -0.0818 -0.1893
    1DIPC   C4A 4244  14.491   4.978   6.176 -0.0291 -0.1008  0.0073
    1DIPC   C1B 4245  14.016   3.935   5.957 -0.1429  0.3771 -0.0249
    1DIPC   D2B 4246  13.647   4.058   5.936  0.2394 -0.1396 -0.3088
    1DIPC   D3B 4247  13.868   4.337   5.671  0.0505 -0.1347  0.0440
    1DIPC   C4B 4248  13.847   4.707   5.395  0.0123  0.1688 -0.1086
    1DIPC   NC3 4249  12.491   0.518   7.231  0.1551 -0.0566 -0.0645
    1DIPC   PO4 4250  12.892   0.347   7.049  0.3108  0.1514 -0.1438
    1DIPC   GL1 4251  13.097   0.219   6.693  0.1610 -0.1284  0.0865
    1DIPC   GL2 4252  13.129  -0.059   6.636  0.1334 -0.0378 -0.0552
    1DIPC   C1A 4253  13.044   0.368   6.261 -0.1913  0.1398 -0.0236
    1DIPC   D2A 4254  13.291   0.670   6.010  0.0724 -0.0084  0.3081
    1DIPC   D3A 4255  13.645   0.643   5.645  0.2972 -0.0465  0.0866
    1DIPC   C4A 4256  13.552   0.849   5.211 -0.0334  0.0900 -0.1830
    1DIPC   C1B 4257  13.187  -0.085   6.161  0.2392 -0.0622  0.0786
    1DIPC   D2B 4258  13.165  -0.328   5.810 -0.3077  0.2037  0.1310
    1DIPC   D3B 4259  12.817  -0.268   5.838  0.0189  0.2726  0.3436
    1DIPC   C4B 4260  12.702  -0.150   5.386 -0.0177  0.1954  0.2259
    1DIPC   NC3 4261   1.383  24.490   6.805  0.2071 -0.1723  0.0666
    1DIPC   PO4 4262   1.133  24.279   6.999 -0.0185 -0.0340 -0.0946
    1DIPC   GL1 4263   1.318  23.999   6.683  0.0036  0.0885  0.1113
    1DIPC   GL2 4264   1.609  23.874   6.748 -0.0210 -0.2538  0.1845
    1DIPC   C1A 4265   1.490  24.077   6.331 -0.0838  0.2263 -0.3188
    1DIPC   D2A 4266   1.553  23.971   5.992 -0.1000 -0.1098  0.1114
    1DIPC   D3A 4267   2.086  24.055   6.080  0.2623 -0.1508  0.0965
    1DIPC   C4A 4268   2.369  24.109   5.767 -0.2148 -0.1063 -0.0434
    1DIPC   C1B 4269   1.933  23.702   6.324 -0.2875  0.1950  0.3605
    1DIPC   D2B 4270   2.057  23.587   5.872  0.2469 -0.0464 -0.0035
    1DIPC   D3B 4271   1.958  23.161   5.959  0.4522 -0.8295 -0.4200
    1DIPC   C4B 4272   2.237  22.867   6.035 -0.2090  0.0306  0.1914
    1DIPC   NC3 4273  23.956  29.564   6.920  0.2098  0.0136 -0.3289
    1DIPC   PO4 4274  24.137  29.498   6.540  0.1077  0.0305 -0.2210
    1DIPC   GL1 4275  24.304  29.733   6.165  0.0380 -0.0767  0.0774
    1DIPC   GL2 4276  23.905  29.679   5.910 -0.1363  0.2918  0.1028
    1DIPC   C1A 4277  24.567  29.956   5.776  0.0868 -0.1793  0.1096
    1DIPC   D2A 4278  24.866  30.191   5.561 -0.3274 -0.1071  0.3643
    1DIPC   D3A 4279  25.026  30.535   5.247 -0.3991 -0.0073  0.1151
    1DIPC   C4A 4280  25.412  30.623   5.368 -0.3298  0.0921  0.0155
    1DIPC   C1B 4281  24.273  29.419   5.802 -0.0914  0.1003 -0.2305
    1DIPC   D2B 4282  24.697  29.238   5.834 -0.4502 -0.0810 -0.2558
    1DIPC   D3B 4283  24.693  28.850   5.997 -0.2927  0.0005 -0.0393
    1DIPC   C4B 4284  24.984  28.591   5.868 -0.0669  0.0387  0.1120
    1DIPC   NC3 4285   2.905   5.099   6.619 -0.3467 -0.1794  0.1457
    1DIPC   PO4 4286   2.905   5.354   6.245 -0.0552 -0.1029 -0.1977
    1DIPC   GL1 4287   2.971   5.392   5.832  0.1989  0.1370  0.1062
    1DIPC   GL2 4288   3.045   5.364   5.519 -0.0764 -0.0301  0.0902
    1DIPC   C1A 4289   2.688   5.619   5.408  0.1512  0.3109 -0.0755
    1DIPC   D2A 4290   2.732   5.818   4.934  0.0173 -0.1220 -0.0765
    1DIPC   D3A 4291   3.107   5.762   5.132 -0.0448 -0.1263 -0.2487
    1DIPC   C4A 4292   3.523   5.858   4.837  0.0185  0.1018 -0.0296
    1DIPC   C1B 4293   2.872   5.341   5.076  0.0667  0.0677 -0.3000
    1DIPC   D2B 4294   3.066   5.462   4.628  0.0672  0.1389 -0.1832
    1DIPC   D3B 4295   2.701   5.193   4.615 -0.1303  0.0191 -0.3303
    1DIPC   C4B 4296   2.315   5.384   4.550 -0.0286 -0.0798 -0.3316
    1DIPC   NC3 4297  10.886  14.210   7.607 -0.1153 -0.3431 -0.2972
    1DIPC   PO4 4298  10.822  14.377   7.176 -0.3771 -0.0266  0.3881
    1DIPC   GL1 4299  10.681  14.582   6.724  0.1408  0.2196  0.0497
    1DIPC   GL2 4300  11.047  14.755   6.754 -0.0009 -0.1627 -0.1776
    1DIPC   C1A 4301  10.570  14.483   6.383 -0.2320  0.2922  0.1524
    1DIPC   D2A 4302  10.403  14.410   6.028  0.0975 -0.2402 -0.0340
    1DIPC   D3A 4303  10.429  13.960   6.095  0.3125 -0.2365 -0.0136
    1DIPC   C4A 4304  10.868  13.764   6.128  0.0280 -0.0368  0.1414
    1DIPC   C1B 4305  11.030  14.474   6.408 -0.2343 -0.1425 -0.0413
    1DIPC   D2B 4306  10.917  14.398   6.037  0.0408  0.0160  0.1786
    1DIPC   D3B 4307  11.215  14.439   5.806  0.0314 -0.0896  0.5266
    1DIPC   C4B 4308  11.145  14.555   5.342 -0.1040 -0.2767  0.0113
    1DIPC   NC3 4309  20.734   5.066   7.122  0.2182 -0.1130  0.0472
    1DIPC   PO4 4310  20.853   5.393   6.894  0.2293 -0.0020 -0.0522
    1DIPC   GL1 4311  20.871   5.397   6.515  0.1893  0.4755 -0.0746
    1DIPC   GL2 4312  21.157   5.287   6.458 -0.4250  0.0583  0.0670
    1DIPC   C1A 4313  20.729   5.265   6.057  0.0577 -0.2031 -0.2634
    1DIPC   D2A 4314  20.758   5.508   5.654  0.4132 -0.1003 -0.0769
    1DIPC   D3A 4315  21.173   5.459   5.286 -0.0603 -0.0140  0.1110
    1DIPC   C4A 4316  21.574   5.200   5.372 -0.1026 -0.2600  0.1720
    1DIPC   C1B 4317  21.086   4.876   6.279 -0.1336 -0.0269  0.1359
    1DIPC   D2B 4318  21.240   4.702   5.820 -0.1230 -0.1013 -0.2060
    1DIPC   D3B 4319  21.079   4.733   5.366 -0.0374  0.0228 -0.0084
    1DIPC   C4B 4320  20.867   5.000   5.510  0.0804 -0.2924 -0.2101
    1DIPC   NC3 4321  23.466  24.492   6.833 -0.0048 -0.2656  0.0132
    1DIPC   PO4 4322  23.814  24.564   6.661  0.3492 -0.0653  0.0513
    1DIPC   GL1 4323  23.890  24.916   6.291 -0.1435 -0.1648 -0.0764
    1DIPC   GL2 4324  23.896  24.781   6.135 -0.3425  0.1418  0.1636
    1DIPC   C1A 4325  23.964  25.234   5.919 -0.1447  0.2449 -0.0103
    1DIPC   D2A 4326  24.045  25.356   5.521  0.0229 -0.1606  0.1141
    1DIPC   D3A 4327  23.654  25.309   5.390  0.0871 -0.1777  0.2235
    1DIPC   C4A 4328  23.382  25.427   5.034  0.0277  0.1109  0.0889
    1DIPC   C1B 4329  23.823  24.499   5.801 -0.0261 -0.0086  0.1215
    1DIPC   D2B 4330  23.979  24.386   5.397 -0.1832  0.0366  0.1386
    1DIPC   D3B 4331  24.440  24.484   5.373 -0.1068  0.0305  0.2900
    1DIPC   C4B 4332  24.852  24.604   5.462  0.0722 -0.3368 -0.0468
    1DIPC   NC3 4333  14.539   9.649   7.240 -0.0427  0.0229 -0.0564
    1DIPC   PO4 4334  14.222   9.746   6.951 -0.2634  0.1953  0.0574
    1DIPC   GL1 4335  14.291   9.603   6.552 -0.0826  0.4007 -0.2203
    1DIPC   GL2 4336  14.174   9.333   6.367  0.2145 -0.2620 -0.2507
    1DIPC   C1A 4337  14.171   9.848   6.114 -0.0862  0.0619  0.0804
    1DIPC   D2A 4338  13.909   9.952   5.712 -0.1741 -0.3215  0.0717
    1DIPC   D3A 4339  13.583   9.719   5.570  0.0357 -0.0772  0.3884
    1DIPC   C4A 4340  13.467   9.982   5.160  0.2879  0.0244  0.1495
    1DIPC   C1B 4341  14.460   9.495   5.926  0.4217  0.1021  0.1584
    1DIPC   D2B 4342  14.554   9.380   5.513  0.0335 -0.0754  0.0691
    1DIPC   D3B 4343  14.584   9.339   5.148  0.1323 -0.0013 -0.0176
    1DIPC   C4B 4344  14.326   9.090   4.929  0.1433  0.0408  0.0168
    1DIPC   NC3 4345  12.295  29.443   6.620  0.0123 -0.0130  0.2777
    1DIPC   PO4 4346  12.027  29.254   6.851  0.1402  0.2402 -0.2138
    1DIPC   GL1 4347  11.845  29.439   6.498  0.4535  0.1066 -0.2921
    1DIPC   GL2 4348  11.825  29.757   6.646  0.0025  0.0868  0.5224
    1DIPC   C1A 4349  11.684  29.545   6.104  0.0345 -0.0580 -0.1567
    1DIPC   D2A 4350  11.834  29.606   5.732  0.1123 -0.0013 -0.0131
    1DIPC   D3A 4351  11.672  29.490   5.354 -0.0334  0.0618 -0.0601
    1DIPC   C4A 4352  11.716  29.801   5.018  0.0393 -0.3073  0.1155
    1DIPC   C1B 4353  11.324  29.727   6.473 -0.0768  0.3635  0.0797
    1DIPC   D2B 4354  10.949  29.742   6.173 -0.1424  0.3903 -0.0853
    1DIPC   D3B 4355  10.932  29.464   5.770  0.0472  0.1723  0.0008
    1DIPC   C4B 4356  11.093  29.672   5.431  0.1921 -0.1954 -0.0898
    1DIPC   NC3 4357  22.309  18.809   5.610  0.4163  0.2541 -0.0523
    1DIPC   PO4 4358  22.017  18.545   5.782 -0.1407  0.4231  0.0337
    1DIPC   GL1 4359  21.975  18.623   5.269 -0.0598 -0.3442 -0.0354
    1DIPC   GL2 4360  22.069  18.940   5.195  0.0529 -0.1883  0.0964
    1DIPC   C1A 4361  21.769  18.653   4.805  0.0102  0.0505 -0.0477
    1DIPC   D2A 4362  21.570  18.879   4.430 -0.2354  0.1270 -0.2036
    1DIPC   D3A 4363  21.377  18.810   4.088 -0.2339  0.0337  0.1342
    1DIPC   C4A 4364  21.695  18.640   3.774 -0.2188 -0.2010 -0.1520
    1DIPC   C1B 4365  22.274  18.823   4.885  0.1157  0.1377  0.2155
    1DIPC   D2B 4366  22.508  19.007   4.634 -0.0620 -0.0567  0.0335
    1DIPC   D3B 4367  22.425  19.418   4.410 -0.0180 -0.0259 -0.0789
    1DIPC   C4B 4368  22.028  19.522   4.214 -0.4759  0.0818  0.0425
    1DIPC   NC3 4369  24.492  25.870   6.410  0.2062  0.2143  0.0242
    1DIPC   PO4 4370  24.578  26.341   6.670 -0.0378 -0.1052 -0.1587
    1DIPC   GL1 4371  24.193  26.304   6.337 -0.1509 -0.1165 -0.2389
    1DIPC   GL2 4372  24.016  26.003   6.274  0.2638  0.2081 -0.0907
    1DIPC   C1A 4373  24.314  26.358   5.966 -0.0912  0.1157 -0.0255
    1DIPC   D2A 4374  24.524  26.567   5.691  0.0285  0.0036  0.0359
    1DIPC   D3A 4375  24.540  26.433   5.268  0.1519 -0.1343 -0.1056
    1DIPC   C4A 4376  24.934  26.584   5.038 -0.0221  0.1668 -0.4426
    1DIPC   C1B 4377  23.908  26.158   5.886 -0.1500  0.1711  0.0594
    1DIPC   D2B 4378  23.494  26.229   5.680  0.1183  0.4056  0.0191
    1DIPC   D3B 4379  23.140  26.441   5.439  0.2798 -0.0903 -0.3223
    1DIPC   C4B 4380  23.061  26.904   5.592 -0.0593  0.0620  0.0656
    1DIPC   NC3 4381  26.462  26.250   7.133  0.0867  0.2450  0.0615
    1DIPC   PO4 4382  26.170  26.091   7.002 -0.2937  0.0295 -0.0894
    1DIPC   GL1 4383  25.950  26.289   6.642 -0.0515  0.4294  0.3427
    1DIPC   GL2 4384  26.149  26.179   6.300 -0.0066 -0.0534  0.0039
    1DIPC   C1A 4385  25.604  26.366   6.344 -0.2174 -0.0951 -0.4300
    1DIPC   D2A 4386  25.187  26.379   6.158 -0.2390 -0.0919  0.0979
    1DIPC   D3A 4387  25.042  26.468   5.790  0.1776 -0.0496 -0.3192
    1DIPC   C4A 4388  25.053  26.311   5.396 -0.3671  0.1384  0.1940
    1DIPC   C1B 4389  25.738  26.006   6.011  0.0359  0.2742  0.1356
    1DIPC   D2B 4390  25.279  26.030   5.810 -0.2443  0.0912  0.0564
    1DIPC   D3B 4391  25.519  26.348   5.584  0.0627  0.1461  0.0151
    1DIPC   C4B 4392  25.667  26.594   5.283 -0.1995  0.1121 -0.1789
    1DIPC   NC3 4393  23.998  23.174   6.328 -0.0351  0.4531 -0.3075
    1DIPC   PO4 4394  23.828  23.350   5.906 -0.0991  0.1073 -0.1178
    1DIPC   GL1 4395  23.649  23.636   5.499 -0.1674  0.0003  0.1271
    1DIPC   GL2 4396  23.454  23.531   5.304  0.0243  0.2731 -0.3567
    1DIPC   C1A 4397  23.827  23.796   5.081  0.0941  0.0695 -0.0209
    1DIPC   D2A 4398  23.895  23.714   4.631 -0.1488  0.1040  0.1492
    1DIPC   D3A 4399  24.329  23.848   4.522 -0.0729  0.1657 -0.0195
    1DIPC   C4A 4400  24.349  23.676   4.091 -0.0358 -0.1833 -0.2980
    1DIPC   C1B 4401  23.405  23.517   4.908  0.0206  0.1702 -0.2927
    1DIPC   D2B 4402  23.387  23.330   4.643 -0.3363 -0.0029  0.2182
    1DIPC   D3B 4403  23.047  23.086   4.508 -0.0486  0.0944 -0.0617
    1DIPC   C4B 4404  22.781  23.280   4.134 -0.0663  0.2515 -0.1161
    1DIPC   NC3 4405  22.495  12.744   5.669 -0.1753 -0.0127  0.1350
    1DIPC   PO4 4406  22.829  12.640   5.477  0.0187  0.1601  0.0960
    1DIPC   GL1 4407  22.740  12.669   5.025 -0.2343  0.0667 -0.0710
    1DIPC   GL2 4408  22.847  12.399   4.735  0.0815  0.0353 -0.0328
    1DIPC   C1A 4409  22.780  12.885   4.605 -0.2192 -0.2783 -0.0510
    1DIPC   D2A 4410  23.179  13.008   4.348  0.0962 -0.2827  0.0167
    1DIPC   D3A 4411  22.837  13.393   4.382  0.0756 -0.1780 -0.1930
    1DIPC   C4A 4412  22.887  13.697   4.043 -0.2689  0.1006  0.2466
    1DIPC   C1B 4413  23.153  12.504   4.393 -0.1873  0.0119 -0.0135
    1DIPC   D2B 4414  23.209  12.289   4.061  0.1435  0.1217  0.1933
    1DIPC   D3B 4415  22.801  12.098   4.128 -0.0274  0.1710 -0.2245
    1DIPC   C4B 4416  22.665  12.035   4.482  0.1886 -0.1621 -0.0788
    1DIPC   NC3 4417  29.211  28.202   7.246 -0.2011  0.0889  0.0767
    1DIPC   PO4 4418  29.130  27.827   6.849  0.1420  0.0575 -0.0901
    1DIPC   GL1 4419  29.003  27.987   6.419 -0.2436 -0.0024  0.0820
    1DIPC   GL2 4420  29.202  27.931   6.220 -0.0792  0.1646  0.1204
    1DIPC   C1A 4421  28.795  27.763   6.087 -0.2318  0.2199 -0.2780
    1DIPC   D2A 4422  28.567  27.779   5.665  0.1063 -0.2380  0.2361
    1DIPC   D3A 4423  28.430  27.376   5.625 -0.0509 -0.0830 -0.1787
    1DIPC   C4A 4424  28.529  27.407   5.139 -0.1516 -0.0596  0.0923
    1DIPC   C1B 4425  29.502  28.086   5.914 -0.1806  0.1299 -0.1361
    1DIPC   D2B 4426  29.493  28.138   5.507 -0.2556 -0.0837  0.2630
    1DIPC   D3B 4427  29.169  27.853   5.286 -0.0238  0.0502  0.0809
    1DIPC   C4B 4428  28.877  27.812   4.959  0.1531 -0.2441  0.0996
    1DIPC   NC3 4429  10.059   5.039   7.639 -0.1651 -0.1407 -0.1138
    1DIPC   PO4 4430  10.222   4.680   7.410  0.0841  0.2414  0.1225
    1DIPC   GL1 4431  10.250   4.507   6.979 -0.1132  0.2403  0.2966
    1DIPC   GL2 4432  10.376   4.250   6.988  0.0920  0.0579 -0.1055
    1DIPC   C1A 4433  10.425   4.553   6.547  0.0845  0.3515  0.0693
    1DIPC   D2A 4434  10.179   4.269   6.270 -0.0364 -0.1440  0.0385
    1DIPC   D3A 4435  10.329   4.588   6.003  0.2023  0.2233 -0.0083
    1DIPC   C4A 4436  10.487   4.621   5.600 -0.0877 -0.3737 -0.1953
    1DIPC   C1B 4437  10.030   4.174   6.753  0.0554 -0.1710  0.4812
    1DIPC   D2B 4438   9.781   4.380   6.584  0.2656 -0.3949 -0.0023
    1DIPC   D3B 4439   9.956   4.792   6.616  0.0864  0.0707  0.1889
    1DIPC   C4B 4440  10.285   5.087   6.809 -0.0484 -0.0751 -0.1818
    1DIPC   NC3 4441  22.965  22.455   5.895  0.2116 -0.0880  0.1406
    1DIPC   PO4 4442  23.313  22.640   5.690 -0.1155 -0.0603 -0.1413
    1DIPC   GL1 4443  23.125  22.521   5.425 -0.1524  0.0484  0.0779
    1DIPC   GL2 4444  23.153  22.247   5.245 -0.1462  0.3337  0.2044
    1DIPC   C1A 4445  22.616  22.551   5.281 -0.0649  0.0121  0.2532
    1DIPC   D2A 4446  22.158  22.496   5.487 -0.3057  0.2334 -0.1535
    1DIPC   D3A 4447  22.078  22.143   5.230 -0.0481 -0.0420 -0.0322
    1DIPC   C4A 4448  21.811  22.221   4.928  0.0461 -0.2461 -0.1336
    1DIPC   C1B 4449  23.167  22.160   4.786  0.3242 -0.0645  0.0872
    1DIPC   D2B 4450  23.190  22.146   4.334  0.1450 -0.1257 -0.1714
    1DIPC   D3B 4451  23.188  22.545   4.441 -0.3307  0.6140  0.0895
    1DIPC   C4B 4452  23.168  22.819   4.059  0.0308 -0.3368 -0.4288
    1DIPC   NC3 4453  19.427  26.495   7.575  0.2720  0.0704 -0.1781
    1DIPC   PO4 4454  19.358  26.812   7.197 -0.0009  0.2018 -0.1347
    1DIPC   GL1 4455  19.592  26.892   6.864  0.2086 -0.0193 -0.1841
    1DIPC   GL2 4456  19.378  27.072   6.648  0.0089  0.3821  0.1471
    1DIPC   C1A 4457  19.785  26.858   6.419 -0.1288 -0.3615  0.1766
    1DIPC   D2A 4458  19.999  26.846   6.063  0.1378  0.2706 -0.1299
    1DIPC   D3A 4459  19.771  27.152   5.855  0.2282  0.3421  0.0953
    1DIPC   C4A 4460  19.821  27.349   5.468  0.1485  0.1686 -0.0635
    1DIPC   C1B 4461  19.397  27.205   6.231  0.0574 -0.1048 -0.0613
    1DIPC   D2B 4462  19.257  27.134   5.806 -0.0609  0.0113 -0.2786
    1DIPC   D3B 4463  19.461  26.976   5.396  0.0168  0.0931 -0.1119
    1DIPC   C4B 4464  19.967  26.909   5.460 -0.2204  0.2284 -0.2227
    1DIPC   NC3 4465   7.901   5.140   7.204 -0.2576  0.0050  0.2311
    1DIPC   PO4 4466   8.212   5.586   7.116  0.1092 -0.0790  0.1417
    1DIPC   GL1 4467   7.971   5.506   6.790  0.0420  0.1013  0.0037
    1DIPC   GL2 4468   8.017   5.209   6.722  0.1218  0.2113  0.0689
    1DIPC   C1A 4469   7.700   5.521   6.436 -0.1780 -0.1348 -0.0460
    1DIPC   D2A 4470   7.567   5.891   6.257  0.0297 -0.1345  0.1717
    1DIPC   D3A 4471   7.535   5.878   5.757 -0.1069  0.2314 -0.3712
    1DIPC   C4A 4472   7.727   5.987   5.297 -0.3386 -0.1237 -0.0956
    1DIPC   C1B 4473   8.304   4.994   6.401 -0.1355 -0.0889 -0.1826
    1DIPC   D2B 4474   8.079   4.927   5.971 -0.1536  0.6734  0.0168
    1DIPC   D3B 4475   8.150   4.602   5.642 -0.0863 -0.0352 -0.0438
    1DIPC   C4B 4476   8.397   4.430   5.262 -0.2422 -0.1416  0.1963
    1DIPC   NC3 4477  19.005  11.822   6.295 -0.0968 -0.1811 -0.1991
    1DIPC   PO4 4478  19.194  12.165   6.237  0.1775  0.2270  0.0701
    1DIPC   GL1 4479  19.096  12.122   5.711 -0.0210  0.2626  0.0200
    1DIPC   GL2 4480  18.827  11.930   5.778 -0.0550 -0.0838 -0.1104
    1DIPC   C1A 4481  18.931  12.270   5.301 -0.2547 -0.1961  0.2016
    1DIPC   D2A 4482  18.579  12.405   5.044 -0.2142 -0.0882 -0.0458
    1DIPC   D3A 4483  18.338  12.276   4.684  0.1636  0.0822  0.2380
    1DIPC   C4A 4484  18.376  11.830   4.522 -0.0125 -0.1282  0.0041
    1DIPC   C1B 4485  18.847  11.745   5.338  0.3577  0.1292  0.2072
    1DIPC   D2B 4486  18.872  11.514   4.945  0.0658  0.0785  0.1505
    1DIPC   D3B 4487  18.886  11.688   4.503  0.1237  0.2708  0.2641
    1DIPC   C4B 4488  18.815  11.481   4.151 -0.1494 -0.0839 -0.2525
    1DIPC   NC3 4489  28.088   4.014   6.423  0.1688 -0.0991 -0.2222
    1DIPC   PO4 4490  28.444   4.023   6.217  0.1413 -0.0190  0.1111
    1DIPC   GL1 4491  28.367   4.028   5.896 -0.2356  0.1704  0.0396
    1DIPC   GL2 4492  28.339   4.284   5.730 -0.3605  0.0941 -0.1279
    1DIPC   C1A 4493  28.162   3.841   5.524 -0.1325 -0.2156 -0.4494
    1DIPC   D2A 4494  27.998   3.689   5.205  0.0741  0.1602 -0.0480
    1DIPC   D3A 4495  27.681   3.994   5.151  0.0017 -0.2131 -0.1812
    1DIPC   C4A 4496  27.655   4.186   4.689  0.2858 -0.0687  0.5232
    1DIPC   C1B 4497  28.613   4.113   5.511 -0.0775 -0.2482  0.3804
    1DIPC   D2B 4498  28.923   4.232   5.289 -0.0406  0.1987  0.1791
    1DIPC   D3B 4499  28.660   4.473   5.077  0.3117 -0.2005 -0.0688
    1DIPC   C4B 4500  28.517   4.731   4.847 -0.0936 -0.1074  0.0559
    1DIPC   NC3 4501  20.574   6.445   7.086  0.1041 -0.0666 -0.2829
    1DIPC   PO4 4502  20.844   6.303   6.627  0.1743 -0.2868  0.3577
    1DIPC   GL1 4503  20.923   6.499   6.225 -0.0543  0.0713 -0.2063
    1DIPC   GL2 4504  20.871   6.833   6.158  0.0261 -0.2208  0.1459
    1DIPC   C1A 4505  20.773   6.306   5.904  0.1000  0.0382  0.1238
    1DIPC   D2A 4506  20.671   6.408   5.500  0.0991  0.0280  0.1236
    1DIPC   D3A 4507  20.425   6.123   5.259 -0.0952  0.2058  0.1295
    1DIPC   C4A 4508  20.039   6.096   5.168 -0.1151 -0.1407 -0.1986
    1DIPC   C1B 4509  20.924   6.782   5.774 -0.2297  0.4441 -0.1336
    1DIPC   D2B 4510  20.805   6.892   5.378  0.1609  0.3451 -0.1812
    1DIPC   D3B 4511  20.415   7.159   5.269 -0.1037  0.2149  0.3314
    1DIPC   C4B 4512  20.294   7.417   4.961  0.0210 -0.0729 -0.2002
    1DIPC   NC3 4513  21.092  29.090   7.351  0.1316  0.3427 -0.1682
    1DIPC   PO4 4514  20.678  29.146   7.358 -0.1132 -0.0419  0.2605
    1DIPC   GL1 4515  20.611  29.446   7.099  0.2606  0.1714  0.0811
    1DIPC   GL2 4516  20.789  29.225   6.815  0.1075 -0.0160  0.0617
    1DIPC   C1A 4517  20.520  29.828   6.778 -0.1695 -0.1969  0.3442
    1DIPC   D2A 4518  20.436  29.889   6.313 -0.1927 -0.1829 -0.2229
    1DIPC   D3A 4519  20.854  30.137   6.464 -0.0150  0.0700  0.1209
    1DIPC   C4A 4520  21.412  30.055   6.368  0.1528  0.0446 -0.1183
    1DIPC   C1B 4521  20.916  29.593   6.627 -0.1937 -0.2330  0.1070
    1DIPC   D2B 4522  21.191  29.667   6.283  0.1124 -0.4299  0.1088
    1DIPC   D3B 4523  20.817  29.673   5.990  0.1056  0.0839  0.0360
    1DIPC   C4B 4524  20.742  29.341   5.740  0.0446 -0.3361 -0.0943
    1DIPC   NC3 4525  22.735  26.673   7.528  0.1170  0.0096 -0.0724
    1DIPC   PO4 4526  22.331  26.450   7.245 -0.1151  0.2159 -0.1233
    1DIPC   GL1 4527  22.203  26.435   6.847 -0.1819  0.0663 -0.2253
    1DIPC   GL2 4528  22.298  26.615   6.529 -0.0292 -0.0806 -0.0907
    1DIPC   C1A 4529  22.119  26.169   6.399 -0.1450  0.3015  0.1303
    1DIPC   D2A 4530  21.905  26.104   6.020 -0.3293 -0.2865 -0.3456
    1DIPC   D3A 4531  22.104  26.450   6.004  0.2455 -0.3013 -0.1379
    1DIPC   C4A 4532  21.955  26.796   5.663  0.0811 -0.0224  0.2282
    1DIPC   C1B 4533  22.249  27.068   6.435 -0.4133  0.1323  0.0713
    1DIPC   D2B 4534  22.242  27.137   5.944  0.0230  0.1881 -0.1848
    1DIPC   D3B 4535  22.595  27.051   5.666  0.1806  0.1340 -0.1179
    1DIPC   C4B 4536  22.503  26.763   5.362  0.3533 -0.0538 -0.0240
    1DIPC   NC3 4537  17.873  17.488   6.335 -0.1525 -0.0459 -0.3275
    1DIPC   PO4 4538  17.407  17.482   6.431 -0.2648  0.1651  0.1148
    1DIPC   GL1 4539  17.339  17.547   5.979 -0.4230  0.3026 -0.2760
    1DIPC   GL2 4540  17.222  17.243   6.014 -0.0459  0.1183  0.4671
    1DIPC   C1A 4541  17.406  17.882   5.745  0.4868  0.0280  0.1139
    1DIPC   D2A 4542  17.484  18.283   5.831  0.3209  0.0403 -0.0927
    1DIPC   D3A 4543  17.873  18.145   5.649 -0.2323  0.0864 -0.4109
    1DIPC   C4A 4544  18.034  17.744   5.668  0.2406 -0.0770 -0.1816
    1DIPC   C1B 4545  17.273  17.266   5.551  0.1135 -0.2334  0.0890
    1DIPC   D2B 4546  17.198  16.921   5.186 -0.0283  0.1810 -0.1560
    1DIPC   D3B 4547  17.371  16.930   4.785 -0.1140 -0.2536 -0.1661
    1DIPC   C4B 4548  17.705  16.736   4.544 -0.2397  0.1577 -0.1286
    1DIPC   NC3 4549  19.009   4.739   6.751 -0.1359  0.1022 -0.0860
    1DIPC   PO4 4550  18.955   4.310   6.780 -0.1795  0.2856  0.0513
    1DIPC   GL1 4551  18.831   4.207   6.324  0.0452  0.1344 -0.1055
    1DIPC   GL2 4552  18.780   3.874   6.295 -0.2362 -0.3649 -0.2595
    1DIPC   C1A 4553  18.511   4.360   5.985 -0.3105 -0.1130  0.2802
    1DIPC   D2A 4554  18.422   4.332   5.528 -0.4350  0.1819  0.2986
    1DIPC   D3A 4555  18.368   4.665   5.441 -0.1626 -0.0018 -0.2289
    1DIPC   C4A 4556  18.282   4.902   5.019  0.2060  0.1841  0.2015
    1DIPC   C1B 4557  18.533   3.767   5.971 -0.1061  0.0080 -0.0627
    1DIPC   D2B 4558  18.197   3.831   5.688 -0.3347 -0.1892  0.1729
    1DIPC   D3B 4559  17.822   3.544   5.760  0.3837  0.1579  0.0169
    1DIPC   C4B 4560  17.676   3.253   5.374 -0.4007  0.0316 -0.1559
    1DIPC   NC3 4561   8.206  27.097   7.291 -0.1590  0.0716 -0.5038
    1DIPC   PO4 4562   8.254  26.894   6.959  0.0822 -0.0415  0.4755
    1DIPC   GL1 4563   8.411  26.767   6.584  0.1601  0.0755 -0.0368
    1DIPC   GL2 4564   8.389  26.498   6.482  0.0129  0.0432  0.6200
    1DIPC   C1A 4565   8.249  26.865   6.163  0.2474 -0.3965  0.1423
    1DIPC   D2A 4566   8.335  26.731   5.782 -0.0340  0.2496  0.3224
    1DIPC   D3A 4567   8.615  27.115   5.830  0.2219  0.0288  0.1176
    1DIPC   C4A 4568   8.774  26.984   6.239  0.0797 -0.2289 -0.0705
    1DIPC   C1B 4569   8.667  26.535   6.063 -0.0800 -0.1382 -0.1698
    1DIPC   D2B 4570   8.713  26.368   5.705  0.1811 -0.5195 -0.5720
    1DIPC   D3B 4571   9.117  26.369   5.480  0.2825 -0.0216  0.3715
    1DIPC   C4B 4572   9.102  26.763   5.221 -0.0601  0.0853 -0.1602
    1DIPC   NC3 4573   2.335  22.220   7.606  0.2730 -0.0834  0.1452
    1DIPC   PO4 4574   2.155  22.055   7.208  0.2633  0.4012 -0.1498
    1DIPC   GL1 4575   2.230  22.487   7.052  0.1709  0.1320 -0.0593
    1DIPC   GL2 4576   2.549  22.680   6.931  0.2688  0.2186  0.1083
    1DIPC   C1A 4577   1.896  22.692   6.897  0.2017  0.1928 -0.0567
    1DIPC   D2A 4578   1.907  22.694   6.525 -0.0406 -0.1222  0.3880
    1DIPC   D3A 4579   2.337  22.519   6.410 -0.0536 -0.0646  0.2233
    1DIPC   C4A 4580   2.659  22.320   6.583  0.1182  0.0188  0.4057
    1DIPC   C1B 4581   2.788  22.866   6.571  0.1409  0.0800  0.0667
    1DIPC   D2B 4582   2.836  22.562   6.156 -0.1157 -0.1334 -0.3741
    1DIPC   D3B 4583   3.266  22.444   5.988  0.2842  0.0106 -0.2083
    1DIPC   C4B 4584   3.379  22.318   5.648  0.1337 -0.0370  0.0880
    1DIPC   NC3 4585  24.173  25.736   7.240  0.0869  0.0028 -0.2011
    1DIPC   PO4 4586  24.154  25.692   6.768 -0.0024 -0.2797 -0.2240
    1DIPC   GL1 4587  23.719  25.747   6.597 -0.0450 -0.1251  0.1403
    1DIPC   GL2 4588  23.436  25.441   6.575 -0.0181  0.4775  0.3715
    1DIPC   C1A 4589  23.513  25.833   6.211 -0.1209  0.0916 -0.0918
    1DIPC   D2A 4590  23.216  25.788   5.833 -0.1153  0.1624  0.0276
    1DIPC   D3A 4591  23.361  25.853   5.361 -0.2014  0.1042 -0.1432
    1DIPC   C4A 4592  23.761  25.809   5.245 -0.0663  0.3433 -0.2235
    1DIPC   C1B 4593  23.551  25.270   6.277 -0.1853  0.0629  0.3469
    1DIPC   D2B 4594  23.460  25.367   5.910 -0.2348 -0.3105  0.1364
    1DIPC   D3B 4595  23.778  25.697   5.774 -0.0900 -0.2714 -0.1268
    1DIPC   C4B 4596  24.218  25.726   5.812  0.1483 -0.1114  0.0085
    1DIPC   NC3 4597  18.126   2.431   7.053 -0.0644  0.2727 -0.1000
    1DIPC   PO4 4598  18.436   2.729   6.852  0.1810  0.0198 -0.0499
    1DIPC   GL1 4599  18.202   2.367   6.577 -0.2802 -0.0562  0.1358
    1DIPC   GL2 4600  18.163   2.448   6.202 -0.1234  0.2564 -0.3265
    1DIPC   C1A 4601  17.983   1.995   6.334 -0.2045 -0.0332  0.0346
    1DIPC   D2A 4602  17.683   1.669   6.154 -0.1978  0.2084  0.2409
    1DIPC   D3A 4603  17.770   1.558   5.739  0.0427  0.1419  0.1518
    1DIPC   C4A 4604  17.515   1.556   5.368  0.0469 -0.0955  0.0407
    1DIPC   C1B 4605  17.935   2.741   6.060  0.1537  0.1882  0.1358
    1DIPC   D2B 4606  17.675   2.629   5.714  0.0830 -0.1151 -0.0853
    1DIPC   D3B 4607  17.761   2.412   5.314 -0.1623 -0.1862 -0.3068
    1DIPC   C4B 4608  17.330   2.055   5.254  0.1085  0.3473 -0.0795
    1DIPC   NC3 4609  13.075   4.902   7.453  0.1053 -0.1923 -0.0793
    1DIPC   PO4 4610  13.167   4.529   7.245 -0.1243  0.1676 -0.0482
    1DIPC   GL1 4611  13.226   4.433   6.817  0.0217 -0.6241 -0.0102
    1DIPC   GL2 4612  13.483   4.260   6.630  0.0271 -0.2573  0.2389
    1DIPC   C1A 4613  13.104   4.353   6.329  0.2323 -0.1294 -0.0486
    1DIPC   D2A 4614  13.154   4.269   5.983  0.0544 -0.1564 -0.1388
    1DIPC   D3A 4615  12.895   4.213   5.672  0.2730  0.0534  0.1960
    1DIPC   C4A 4616  12.947   4.199   5.172  0.0545  0.2339 -0.2849
    1DIPC   C1B 4617  13.557   4.448   6.238 -0.0450 -0.3052  0.2122
    1DIPC   D2B 4618  13.552   4.734   5.826 -0.2240  0.2547  0.1052
    1DIPC   D3B 4619  13.359   4.443   5.509 -0.1996 -0.1710 -0.0137
    1DIPC   C4B 4620  13.575   4.086   5.296  0.1438  0.2034 -0.0755
    1DIPC   NC3 4621  18.278   9.152   6.465 -0.0012  0.0888 -0.1305
    1DIPC   PO4 4622  18.681   9.404   6.417 -0.2371  0.1735 -0.0318
    1DIPC   GL1 4623  18.506   9.490   6.061  0.1217 -0.1460  0.0042
    1DIPC   GL2 4624  18.281   9.346   5.884  0.0849 -0.0385 -0.0577
    1DIPC   C1A 4625  18.529   9.739   5.631  0.2384 -0.2036  0.2305
    1DIPC   D2A 4626  18.474   9.538   5.276 -0.1323  0.2530  0.1085
    1DIPC   D3A 4627  18.485   9.164   5.066  0.4874  0.0789  0.2255
    1DIPC   C4A 4628  18.914   9.062   4.799  0.0296  0.2344  0.0800
    1DIPC   C1B 4629  18.074   9.546   5.543  0.0018  0.1066  0.2026
    1DIPC   D2B 4630  18.066   9.833   5.186  0.0650 -0.0048  0.0453
    1DIPC   D3B 4631  18.438  10.073   5.262 -0.3549  0.1706  0.0624
    1DIPC   C4B 4632  18.749  10.217   5.078  0.0825  0.0181 -0.1049
    1DIPC   NC3 4633  25.384   0.663   6.949 -0.1493  0.1621 -0.2475
    1DIPC   PO4 4634  25.430   0.207   6.944 -0.1598  0.0881  0.1637
    1DIPC   GL1 4635  25.431   0.247   6.507 -0.5210  0.2298  0.2562
    1DIPC   GL2 4636  25.256   0.071   6.261  0.2192  0.3639 -0.1230
    1DIPC   C1A 4637  25.477   0.480   6.128  0.1480  0.1592 -0.2175
    1DIPC   D2A 4638  25.329   0.397   5.807  0.1389 -0.0306 -0.2701
    1DIPC   D3A 4639  25.513   0.368   5.500 -0.2711  0.2872 -0.1442
    1DIPC   C4A 4640  25.191   0.266   5.229  0.4026 -0.0095 -0.0780
    1DIPC   C1B 4641  25.439  -0.330   6.231  0.0726  0.1041 -0.1860
    1DIPC   D2B 4642  25.836  -0.417   6.290 -0.1250 -0.2352  0.2863
    1DIPC   D3B 4643  26.240  -0.531   6.027  0.0273  0.1334  0.0184
    1DIPC   C4B 4644  26.377  -0.811   5.709  0.2085  0.1761 -0.0242
    1DIPC   NC3 4645   8.174  19.145   6.805  0.0358  0.1953  0.1267
    1DIPC   PO4 4646   8.641  19.182   6.877 -0.0812  0.1018  0.0076
    1DIPC   GL1 4647   8.589  19.257   6.489  0.0066  0.0478  0.1445
    1DIPC   GL2 4648   8.274  19.258   6.252  0.0140  0.0342 -0.2445
    1DIPC   C1A 4649   8.783  19.525   6.196  0.2433  0.1227  0.2486
    1DIPC   D2A 4650   8.854  19.794   5.929  0.0145  0.1253 -0.0684
    1DIPC   D3A 4651   8.987  19.629   5.544  0.1963  0.3473  0.1542
    1DIPC   C4A 4652   8.790  19.683   5.184  0.0357  0.0381  0.0974
    1DIPC   C1B 4653   8.693  19.064   6.001  0.0867 -0.0822  0.2351
    1DIPC   D2B 4654   8.947  18.872   5.636 -0.0486 -0.0165  0.0749
    1DIPC   D3B 4655   8.993  19.151   5.425  0.0397 -0.0790 -0.3301
    1DIPC   C4B 4656   8.866  19.088   5.032  0.0663 -0.1443 -0.0740
    1DIPC   NC3 4657  13.025  25.510   6.410  0.2325 -0.1725  0.2565
    1DIPC   PO4 4658  12.796  25.828   6.263 -0.2094 -0.2031 -0.0368
    1DIPC   GL1 4659  13.056  25.718   5.886  0.0314  0.1857  0.1067
    1DIPC   GL2 4660  13.327  25.500   5.887 -0.0405 -0.0706 -0.1695
    1DIPC   C1A 4661  13.036  25.606   5.435 -0.3092 -0.0894 -0.1508
    1DIPC   D2A 4662  13.123  25.217   5.357 -0.0595  0.2306 -0.0189
    1DIPC   D3A 4663  13.137  24.806   5.686  0.2792 -0.1007  0.1325
    1DIPC   C4A 4664  12.777  24.605   5.682 -0.0709 -0.0590  0.1802
    1DIPC   C1B 4665  13.724  25.387   5.944  0.1396 -0.2086 -0.2417
    1DIPC   D2B 4666  13.915  25.021   5.834  0.2142 -0.0918  0.0061
    1DIPC   D3B 4667  13.586  25.065   5.552  0.1777 -0.2955  0.0172
    1DIPC   C4B 4668  13.544  25.073   5.116  0.2723 -0.1749 -0.0579
    1DIPC   NC3 4669   0.025  26.029   6.961 -0.0110  0.1505  0.2373
    1DIPC   PO4 4670   0.224  26.183   6.634 -0.4104  0.2179  0.0996
    1DIPC   GL1 4671  -0.163  26.444   6.433 -0.1274  0.0466 -0.0273
    1DIPC   GL2 4672  -0.543  26.699   6.500 -0.0019  0.1564  0.1225
    1DIPC   C1A 4673  -0.250  26.626   6.032  0.3348 -0.0897 -0.1272
    1DIPC   D2A 4674  -0.183  26.740   5.607  0.1599 -0.0686  0.3980
    1DIPC   D3A 4675   0.241  26.708   5.585 -0.0753  0.1072  0.1178
    1DIPC   C4A 4676   0.305  26.532   5.287 -0.0424 -0.4199  0.0218
    1DIPC   C1B 4677  -0.743  26.490   6.080 -0.2040  0.1875  0.1174
    1DIPC   D2B 4678  -0.608  26.414   5.675 -0.1433 -0.0280  0.0863
    1DIPC   D3B 4679  -0.863  26.818   5.714  0.0272  0.0964 -0.2937
    1DIPC   C4B 4680  -1.027  27.099   5.465 -0.0491  0.0994  0.0621
    1DIPC   NC3 4681  11.266   7.191   6.727 -0.1518 -0.0814 -0.1744
    1DIPC   PO4 4682  10.779   7.331   6.788  0.0658 -0.2401  0.0164
    1DIPC   GL1 4683  10.427   7.476   6.532  0.1639 -0.2508  0.1254
    1DIPC   GL2 4684  10.168   7.214   6.565  0.1131  0.0858  0.1207
    1DIPC   C1A 4685  10.237   7.696   6.136  0.1115 -0.1522  0.0079
    1DIPC   D2A 4686  10.226   7.765   5.678  0.1893  0.0038  0.3441
    1DIPC   D3A 4687  10.288   7.642   5.343  0.1351  0.0129 -0.0838
    1DIPC   C4A 4688  10.570   7.484   5.311  0.2963 -0.0967  0.0651
    1DIPC   C1B 4689  10.522   7.008   6.242  0.1848 -0.4115 -0.0976
    1DIPC   D2B 4690  10.905   7.000   5.992  0.0932 -0.1715  0.2090
    1DIPC   D3B 4691  10.726   6.766   5.697  0.1214  0.0631 -0.1245
    1DIPC   C4B 4692  10.628   6.966   5.212 -0.0859 -0.0185  0.2374
    1DIPC   NC3 4693  15.399  29.459   7.001  0.0706 -0.2676  0.0397
    1DIPC   PO4 4694  15.277  29.215   6.508  0.1110 -0.1691  0.2047
    1DIPC   GL1 4695  15.197  29.549   6.302 -0.0643 -0.0702  0.0656
    1DIPC   GL2 4696  15.436  29.606   6.017 -0.0859  0.0398  0.1018
    1DIPC   C1A 4697  14.792  29.568   6.014  0.2560  0.0096 -0.1025
    1DIPC   D2A 4698  14.591  29.718   5.637 -0.0324 -0.2956 -0.0609
    1DIPC   D3A 4699  14.881  29.998   5.383  0.0619 -0.0712 -0.1849
    1DIPC   C4A 4700  15.121  30.312   5.337 -0.2588 -0.0292 -0.3711
    1DIPC   C1B 4701  15.669  29.693   5.765 -0.2229  0.2008  0.3001
    1DIPC   D2B 4702  15.606  29.506   5.346  0.2097  0.0214 -0.1290
    1DIPC   D3B 4703  15.446  28.958   5.278  0.3684 -0.1234 -0.1052
    1DIPC   C4B 4704  15.036  28.875   5.559 -0.0119 -0.0882  0.0222
    1DIPC   NC3 4705  10.466   6.902   6.938 -0.0015 -0.1102 -0.0690
    1DIPC   PO4 4706  10.174   6.717   6.806  0.0734  0.0693 -0.2301
    1DIPC   GL1 4707  10.171   6.665   6.433  0.1131  0.1528 -0.0064
    1DIPC   GL2 4708  10.474   6.520   6.408 -0.0451  0.4382  0.1026
    1DIPC   C1A 4709  10.129   6.841   5.973  0.0637  0.0967 -0.0187
    1DIPC   D2A 4710  10.158   6.759   5.512 -0.0136 -0.3535  0.0462
    1DIPC   D3A 4711  10.227   7.112   5.455  0.0972  0.0909 -0.4214
    1DIPC   C4A 4712  10.522   7.237   5.766 -0.1162 -0.4513 -0.0138
    1DIPC   C1B 4713  10.410   6.485   5.992  0.0767 -0.2699  0.1618
    1DIPC   D2B 4714  10.391   6.269   5.787  0.0185 -0.1319 -0.2362
    1DIPC   D3B 4715  10.085   6.040   6.030  0.0147 -0.0797 -0.0421
    1DIPC   C4B 4716   9.909   6.219   6.368  0.1061  0.0655 -0.0696
    1DIPC   NC3 4717  25.855  23.584   6.428  0.0183 -0.2389  0.1105
    1DIPC   PO4 4718  26.184  23.382   6.422  0.0130  0.1380  0.0819
    1DIPC   GL1 4719  26.093  23.571   6.036 -0.2048 -0.2857  0.0821
    1DIPC   GL2 4720  25.996  23.342   5.806 -0.0926 -0.1403 -0.0095
    1DIPC   C1A 4721  25.939  23.804   5.670 -0.0744  0.0915  0.4367
    1DIPC   D2A 4722  25.785  23.764   5.206  0.1731 -0.1775 -0.2496
    1DIPC   D3A 4723  26.234  23.698   5.018 -0.1212  0.0949  0.2900
    1DIPC   C4A 4724  26.339  24.099   4.891 -0.1074 -0.0015  0.1024
    1DIPC   C1B 4725  26.288  23.464   5.557 -0.0093  0.1878 -0.0854
    1DIPC   D2B 4726  26.646  23.623   5.436 -0.5219 -0.1871  0.2492
    1DIPC   D3B 4727  26.756  23.468   5.037 -0.1881  0.1174  0.0439
    1DIPC   C4B 4728  26.666  23.692   4.673 -0.0610  0.2317 -0.2424
    1DIPC   NC3 4729  18.139  14.414   6.371  0.0494  0.1851  0.1245
    1DIPC   PO4 4730  18.249  14.147   6.054 -0.0512 -0.2078  0.1054
    1DIPC   GL1 4731  18.298  14.213   5.667  0.3312 -0.0639  0.2861
    1DIPC   GL2 4732  18.571  14.193   5.646 -0.3706 -0.0985 -0.2333
    1DIPC   C1A 4733  18.260  14.043   5.305  0.0360 -0.0981 -0.1638
    1DIPC   D2A 4734  18.542  13.917   4.925  0.1880  0.0082 -0.2008
    1DIPC   D3A 4735  18.120  14.115   4.815  0.2527  0.2532  0.1482
    1DIPC   C4A 4736  17.634  13.957   4.760  0.0204 -0.0194  0.0323
    1DIPC   C1B 4737  18.771  13.968   5.324  0.1964 -0.0533 -0.2200
    1DIPC   D2B 4738  19.101  13.681   5.353 -0.3197  0.1515  0.0025
    1DIPC   D3B 4739  19.018  13.809   4.883  0.0062 -0.1605 -0.1913
    1DIPC   C4B 4740  19.352  14.077   4.641 -0.0375 -0.1030  0.0119
    1DIPC   NC3 4741  16.194  13.037   6.078  0.0824 -0.3575 -0.2994
    1DIPC   PO4 4742  16.089  12.638   6.336  0.3826  0.2153  0.0928
    1DIPC   GL1 4743  16.111  12.580   5.908 -0.0805 -0.0818  0.0154
    1DIPC   GL2 4744  15.999  12.255   5.822  0.1847 -0.1733  0.1484
    1DIPC   C1A 4745  15.890  12.673   5.587 -0.0729 -0.0286 -0.1807
    1DIPC   D2A 4746  15.766  12.449   5.223 -0.2123  0.0995  0.0352
    1DIPC   D3A 4747  15.531  12.381   4.854  0.1944  0.1308  0.4052
    1DIPC   C4A 4748  15.751  12.492   4.507  0.2112 -0.0625  0.0331
    1DIPC   C1B 4749  16.067  11.893   5.502 -0.5164  0.0577 -0.1068
    1DIPC   D2B 4750  15.990  11.670   5.152 -0.1305 -0.3137 -0.1859
    1DIPC   D3B 4751  15.989  12.117   4.881 -0.2809  0.0212  0.1628
    1DIPC   C4B 4752  16.363  12.317   4.641  0.0388  0.1883 -0.1790
    1DIPC   NC3 4753  26.051   1.901   6.960 -0.2478 -0.0784 -0.0531
    1DIPC   PO4 4754  26.259   1.461   6.708  0.0924  0.1559 -0.0377
    1DIPC   GL1 4755  26.381   1.098   6.453  0.3172 -0.3287 -0.5244
    1DIPC   GL2 4756  26.152   0.799   6.502 -0.1444 -0.1083 -0.1433
    1DIPC   C1A 4757  26.605   0.907   6.067 -0.1511 -0.1514  0.0785
    1DIPC   D2A 4758  26.777   0.979   5.722  0.2362  0.2178 -0.0157
    1DIPC   D3A 4759  26.415   0.881   5.617  0.1021 -0.1272  0.2716
    1DIPC   C4A 4760  26.100   1.211   5.536 -0.1744  0.5543  0.0430
    1DIPC   C1B 4761  26.141   0.649   6.089  0.1865 -0.0389 -0.0376
    1DIPC   D2B 4762  25.879   0.813   5.754  0.2448 -0.0237  0.2364
    1DIPC   D3B 4763  25.882   0.700   5.340  0.1735  0.1036 -0.0714
    1DIPC   C4B 4764  26.248   0.819   5.124 -0.1503  0.0194  0.0138
    1DIPC   NC3 4765   1.976  28.396   6.582 -0.1070 -0.4554  0.4139
    1DIPC   PO4 4766   1.964  28.855   6.364  0.0576  0.1805  0.2495
    1DIPC   GL1 4767   1.975  29.061   5.983 -0.0741  0.3193 -0.1357
    1DIPC   GL2 4768   1.850  28.827   5.741  0.2039  0.1620 -0.5167
    1DIPC   C1A 4769   2.206  29.171   5.572  0.2231  0.1166 -0.1685
    1DIPC   D2A 4770   2.042  29.225   5.110  0.0447 -0.1045 -0.1189
    1DIPC   D3A 4771   2.394  29.239   4.923  0.1408 -0.0581  0.1076
    1DIPC   C4A 4772   2.591  29.750   4.808  0.2307 -0.0280  0.0014
    1DIPC   C1B 4773   1.666  28.576   5.519  0.2464  0.4319 -0.0856
    1DIPC   D2B 4774   1.640  28.184   5.285  0.1635  0.1155 -0.0604
    1DIPC   D3B 4775   1.811  28.554   5.013  0.1567  0.3413  0.0261
    1DIPC   C4B 4776   1.598  28.978   5.303 -0.2997 -0.2489 -0.1358
    1DIPC   NC3 4777  18.499  24.360   6.762  0.0720 -0.0054  0.2905
    1DIPC   PO4 4778  18.833  24.728   6.683  0.3418  0.1831 -0.2446
    1DIPC   GL1 4779  18.872  24.585   6.225 -0.2583 -0.3766  0.3824
    1DIPC   GL2 4780  19.204  24.632   6.038 -0.1288 -0.0862 -0.0417
    1DIPC   C1A 4781  18.846  24.284   5.810  0.3121  0.1786  0.3773
    1DIPC   D2A 4782  19.114  24.269   5.412 -0.1479 -0.2402  0.0889
    1DIPC   D3A 4783  19.196  24.371   4.997 -0.1405  0.0562 -0.0202
    1DIPC   C4A 4784  18.941  24.589   4.682 -0.0693 -0.0746 -0.1312
    1DIPC   C1B 4785  19.116  24.808   5.637  0.0169 -0.0083 -0.4015
    1DIPC   D2B 4786  19.364  24.730   5.294 -0.0612  0.0178 -0.0497
    1DIPC   D3B 4787  19.163  24.981   4.970 -0.0600 -0.0475 -0.2167
    1DIPC   C4B 4788  19.197  24.986   4.536 -0.4465 -0.1023  0.1752
    1DIPC   NC3 4789  29.691   6.945   6.415  0.1041  0.0010 -0.1222
    1DIPC   PO4 4790  29.197   6.982   6.257  0.0549  0.0858  0.1035
    1DIPC   GL1 4791  29.422   6.939   5.912  0.1176  0.2348 -0.4481
    1DIPC   GL2 4792  29.767   6.902   5.937  0.0597  0.0792  0.1301
    1DIPC   C1A 4793  29.476   6.703   5.546 -0.0207  0.0101  0.4886
    1DIPC   D2A 4794  29.518   6.746   5.109 -0.2704 -0.3217 -0.0981
    1DIPC   D3A 4795  29.875   6.636   4.811 -0.0198 -0.0648 -0.0297
    1DIPC   C4A 4796  29.901   6.835   4.454  0.1303  0.0458 -0.3608
    1DIPC   C1B 4797  30.003   6.877   5.611  0.2484 -0.4192  0.0551
    1DIPC   D2B 4798  30.037   6.864   5.294 -0.2545  0.1219  0.2209
    1DIPC   D3B 4799  30.368   6.738   4.917 -0.0269  0.0929  0.2297
    1DIPC   C4B 4800  30.539   7.203   4.887 -0.0200  0.0554 -0.2184
    1DIPC   NC3 4801  17.085   5.079   7.083 -0.0198 -0.0511 -0.0703
    1DIPC   PO4 4802  17.356   4.852   6.897 -0.1292  0.0388  0.2594
    1DIPC   GL1 4803  17.272   4.938   6.489  0.2610 -0.0212  0.0583
    1DIPC   GL2 4804  16.882   4.914   6.502 -0.0264  0.0217 -0.0301
    1DIPC   C1A 4805  17.191   5.246   6.246  0.2085 -0.0344  0.2635
    1DIPC   D2A 4806  17.279   5.403   5.951 -0.0425  0.0804  0.0599
    1DIPC   D3A 4807  16.943   5.760   6.143 -0.1002  0.0160  0.2405
    1DIPC   C4A 4808  16.885   6.152   6.208 -0.0856  0.0377 -0.1962
    1DIPC   C1B 4809  17.033   4.839   5.957  0.1727  0.0553  0.1062
    1DIPC   D2B 4810  17.179   5.043   5.496 -0.1492 -0.0772 -0.2657
    1DIPC   D3B 4811  17.540   5.350   5.473 -0.0114 -0.3811 -0.2043
    1DIPC   C4B 4812  17.739   5.732   5.305 -0.0521  0.1846  0.2600
    1DIPC   NC3 4813  25.475  13.520   5.605  0.1148 -0.2098 -0.1383
    1DIPC   PO4 4814  25.822  13.772   5.766 -0.1440  0.0959 -0.2752
    1DIPC   GL1 4815  26.135  13.561   5.434  0.0712  0.2457 -0.0590
    1DIPC   GL2 4816  26.322  13.270   5.519 -0.1444 -0.0661  0.1356
    1DIPC   C1A 4817  26.211  13.448   5.048 -0.1728 -0.0880 -0.2058
    1DIPC   D2A 4818  26.221  13.546   4.620  0.0029 -0.0378  0.1530
    1DIPC   D3A 4819  26.033  13.239   4.591  0.4485  0.1418  0.1107
    1DIPC   C4A 4820  26.065  13.214   4.140 -0.0573  0.2940 -0.3941
    1DIPC   C1B 4821  26.540  13.061   5.146 -0.2085  0.2976  0.1270
    1DIPC   D2B 4822  26.791  12.992   4.874  0.1137  0.2456  0.0474
    1DIPC   D3B 4823  26.529  13.108   4.547  0.0430 -0.1692  0.1158
    1DIPC   C4B 4824  26.409  12.871   4.210 -0.1332  0.0093 -0.4156
    1DIPC   NC3 4825  13.719  23.439   6.579  0.0919 -0.1030 -0.1905
    1DIPC   PO4 4826  14.187  23.570   6.760 -0.0519 -0.0753  0.0304
    1DIPC   GL1 4827  14.375  23.524   6.330 -0.1711 -0.2875 -0.1784
    1DIPC   GL2 4828  14.057  23.586   6.139  0.2292  0.0404  0.1188
    1DIPC   C1A 4829  14.420  23.397   5.885  0.1540 -0.2520  0.0029
    1DIPC   D2A 4830  14.387  23.252   5.451 -0.5574 -0.0759  0.2151
    1DIPC   D3A 4831  14.603  23.243   5.035 -0.0317  0.1498 -0.1649
    1DIPC   C4A 4832  14.514  23.487   4.571 -0.0968  0.0911  0.1262
    1DIPC   C1B 4833  13.988  23.573   5.709 -0.0349 -0.1214  0.0076
    1DIPC   D2B 4834  13.832  23.608   5.315 -0.1313  0.2470  0.1420
    1DIPC   D3B 4835  13.964  23.242   5.152 -0.4315 -0.2303 -0.1271
    1DIPC   C4B 4836  14.133  23.277   4.767  0.1044  0.1667 -0.2089
    1DIPC   NC3 4837  14.189   3.453   6.559  0.0153 -0.0534  0.2095
    1DIPC   PO4 4838  13.785   3.359   6.704 -0.0924 -0.0047  0.2358
    1DIPC   GL1 4839  13.723   3.224   6.265 -0.0896 -0.0808 -0.2208
    1DIPC   GL2 4840  14.041   3.046   6.137  0.1944 -0.0444 -0.0143
    1DIPC   C1A 4841  13.760   3.448   5.873  0.3596 -0.0814  0.0399
    1DIPC   D2A 4842  13.838   3.756   5.529  0.0670  0.6022  0.2108
    1DIPC   D3A 4843  14.138   3.969   5.358 -0.1932 -0.3717  0.2521
    1DIPC   C4A 4844  14.290   4.466   5.443  0.1188 -0.1309  0.1281
    1DIPC   C1B 4845  13.724   2.931   5.891  0.0346 -0.5238 -0.1992
    1DIPC   D2B 4846  13.576   2.870   5.453  0.3817  0.0356 -0.1400
    1DIPC   D3B 4847  13.879   2.897   5.124  0.2492 -0.3735  0.0779
    1DIPC   C4B 4848  13.944   2.481   4.787 -0.0822  0.2619 -0.2303
    1DIPC   NC3 4849  19.773   5.993   7.302  0.2089  0.1493  0.0725
    1DIPC   PO4 4850  20.088   6.258   7.163  0.0721  0.2322  0.0851
    1DIPC   GL1 4851  20.194   6.115   6.748  0.0168  0.1355  0.1861
    1DIPC   GL2 4852  20.481   5.980   6.580 -0.4590  0.1795 -0.1581
    1DIPC   C1A 4853  20.252   6.148   6.154 -0.0510  0.3779 -0.2425
    1DIPC   D2A 4854  19.955   6.026   5.858 -0.2927 -0.1577  0.0174
    1DIPC   D3A 4855  20.222   6.315   5.665 -0.2689  0.1794 -0.2774
    1DIPC   C4A 4856  20.183   6.544   5.324  0.0151 -0.3935  0.0736
    1DIPC   C1B 4857  20.699   5.924   6.190  0.1121  0.1734 -0.1213
    1DIPC   D2B 4858  21.022   5.835   6.025 -0.0851  0.5024 -0.0644
    1DIPC   D3B 4859  21.150   5.453   6.038 -0.1973 -0.1225  0.1410
    1DIPC   C4B 4860  21.215   5.250   5.706 -0.0838  0.4119 -0.1930
    1DIPC   NC3 4861   3.170  25.049   7.220 -0.0578  0.0124 -0.0647
    1DIPC   PO4 4862   2.720  25.262   7.140 -0.2212  0.1792  0.3619
    1DIPC   GL1 4863   2.538  25.405   6.729 -0.0514 -0.1210 -0.0386
    1DIPC   GL2 4864   2.748  25.534   6.607 -0.4394 -0.1702 -0.2028
    1DIPC   C1A 4865   2.396  25.124   6.309 -0.1389 -0.0944 -0.0367
    1DIPC   D2A 4866   2.376  24.978   5.920 -0.1506 -0.2772 -0.3468
    1DIPC   D3A 4867   2.269  24.559   5.956  0.1245 -0.1529  0.4822
    1DIPC   C4A 4868   1.831  24.414   5.706  0.2858  0.1345 -0.1746
    1DIPC   C1B 4869   2.694  25.577   6.135  0.3349 -0.0685  0.3822
    1DIPC   D2B 4870   2.827  25.474   5.746  0.0542 -0.2465  0.0381
    1DIPC   D3B 4871   2.810  25.500   5.295  0.2115 -0.0476  0.0666
    1DIPC   C4B 4872   2.714  25.958   5.259  0.0905 -0.0416 -0.0610
    1DIPC   NC3 4873  10.482  19.704   6.671  0.1362 -0.2937  0.0824
    1DIPC   PO4 4874  10.869  19.460   6.544 -0.1171  0.0643 -0.2766
    1DIPC   GL1 4875  10.654  19.525   6.197  0.1192 -0.3207 -0.1173
    1DIPC   GL2 4876  10.376  19.481   6.159  0.0345  0.0604 -0.1294
    1DIPC   C1A 4877  10.723  19.762   5.711  0.3340  0.0778 -0.0903
    1DIPC   D2A 4878  10.753  19.481   5.300  0.0276 -0.0325  0.2340
    1DIPC   D3A 4879  10.712  19.706   4.917 -0.0107 -0.1655 -0.1158
    1DIPC   C4A 4880  10.718  20.030   4.690  0.2199  0.0208 -0.0769
    1DIPC   C1B 4881  10.256  19.859   5.955  0.0833  0.0746 -0.1679
    1DIPC   D2B 4882   9.918  19.877   5.608 -0.2210 -0.0307 -0.0436
    1DIPC   D3B 4883   9.937  20.040   5.230  0.0086 -0.5805  0.2715
    1DIPC   C4B 4884   9.746  20.275   4.976  0.0544 -0.1905 -0.1493
    1DIPC   NC3 4885   1.548   1.418   6.667 -0.2250  0.3418  0.0339
    1DIPC   PO4 4886   1.162   1.362   6.802  0.0788 -0.1697  0.0565
    1DIPC   GL1 4887   1.187   1.550   6.333 -0.0764 -0.0199  0.2181
    1DIPC   GL2 4888   1.454   1.242   6.183 -0.0718 -0.1820 -0.0007
    1DIPC   C1A 4889   1.064   1.619   5.926  0.1548  0.0625  0.1051
    1DIPC   D2A 4890   1.154   1.699   5.377  0.0938  0.5108 -0.3930
    1DIPC   D3A 4891   0.857   1.496   5.045 -0.0483  0.1535 -0.1003
    1DIPC   C4A 4892   0.706   1.569   4.632  0.3404  0.1291  0.0523
    1DIPC   C1B 4893   1.450   1.232   5.716  0.0119  0.1193  0.2237
    1DIPC   D2B 4894   1.146   1.193   5.492  0.3015 -0.1070  0.2618
    1DIPC   D3B 4895   1.030   1.041   5.003  0.1533  0.0269 -0.3761
    1DIPC   C4B 4896   1.284   0.756   4.663  0.0446 -0.0742 -0.1087
    1DIPC   NC3 4897   9.667  19.127   7.011  0.1474  0.2104 -0.3713
    1DIPC   PO4 4898  10.036  18.932   6.817 -0.0442  0.2228 -0.2224
    1DIPC   GL1 4899  10.128  18.823   6.427 -0.0839  0.0509  0.0917
    1DIPC   GL2 4900   9.989  18.653   6.265 -0.0902  0.4626 -0.1938
    1DIPC   C1A 4901  10.251  19.018   6.042  0.0879  0.1372  0.0621
    1DIPC   D2A 4902  10.410  19.305   5.659 -0.0944  0.0110  0.2360
    1DIPC   D3A 4903  10.137  19.145   5.194 -0.0631  0.2033 -0.0226
    1DIPC   C4A 4904  10.058  18.720   4.921 -0.0273 -0.1968 -0.2406
    1DIPC   C1B 4905  10.195  18.568   5.948  0.0812 -0.0002 -0.1575
    1DIPC   D2B 4906  10.645  18.778   5.828  0.0702 -0.0594 -0.1213
    1DIPC   D3B 4907  11.083  18.771   5.688 -0.0882  0.0291  0.1169
    1DIPC   C4B 4908  11.196  18.946   5.285 -0.0807 -0.1065  0.0043
    1DIPC   NC3 4909  26.025  29.385   6.968 -0.0672 -0.0275 -0.3278
    1DIPC   PO4 4910  25.936  29.131   6.715  0.2562  0.0096  0.0017
    1DIPC   GL1 4911  25.933  28.812   6.431  0.2161 -0.2860  0.2129
    1DIPC   GL2 4912  25.582  28.927   6.263  0.1598  0.1705  0.0249
    1DIPC   C1A 4913  26.057  28.641   6.024  0.1670 -0.4014  0.2312
    1DIPC   D2A 4914  26.136  28.224   5.847  0.2145 -0.2288  0.1192
    1DIPC   D3A 4915  25.762  28.067   5.804  0.2237  0.0114 -0.1359
    1DIPC   C4A 4916  25.808  27.920   5.392 -0.1249 -0.0439  0.0429
    1DIPC   C1B 4917  25.784  29.036   5.871 -0.0299  0.0538 -0.3115
    1DIPC   D2B 4918  25.863  28.788   5.463  0.1180 -0.0035 -0.3125
    1DIPC   D3B 4919  26.296  28.642   5.342 -0.0483 -0.0979 -0.0280
    1DIPC   C4B 4920  26.577  28.939   5.052  0.2110  0.0445  0.1992
    1DIPC   NC3 4921  23.054  12.297   5.192  0.3754  0.1188 -0.0785
    1DIPC   PO4 4922  23.375  12.638   5.256  0.3621 -0.0053  0.1865
    1DIPC   GL1 4923  23.707  12.719   5.003 -0.0761  0.1187 -0.1529
    1DIPC   GL2 4924  23.885  12.929   5.066  0.1502 -0.0775  0.2278
    1DIPC   C1A 4925  24.072  12.585   4.740  0.0208  0.1159  0.0233
    1DIPC   D2A 4926  24.442  12.349   4.948 -0.1923  0.1638  0.2445
    1DIPC   D3A 4927  24.588  12.328   4.579 -0.0933  0.0281  0.2821
    1DIPC   C4A 4928  24.610  11.938   4.445 -0.1260 -0.0106 -0.0660
    1DIPC   C1B 4929  23.980  13.143   4.708 -0.0782  0.0779  0.3164
    1DIPC   D2B 4930  24.160  12.994   4.390  0.0491  0.1846  0.0346
    1DIPC   D3B 4931  23.931  12.655   4.227 -0.0555  0.1808  0.0345
    1DIPC   C4B 4932  24.141  12.277   4.343 -0.4142 -0.1548  0.2533
    1DIPC   NC3 4933  16.876  11.568   6.944  0.0204 -0.0060 -0.0204
    1DIPC   PO4 4934  17.002  11.322   6.438 -0.0679 -0.0349  0.0664
    1DIPC   GL1 4935  16.972  11.211   6.034  0.0780  0.1841  0.2462
    1DIPC   GL2 4936  17.161  11.019   5.874  0.5007  0.2603 -0.1803
    1DIPC   C1A 4937  16.670  11.373   5.701  0.0971 -0.2405  0.1635
    1DIPC   D2A 4938  16.372  11.513   5.374  0.1473 -0.2003 -0.2450
    1DIPC   D3A 4939  16.399  11.422   4.968  0.1695 -0.0451  0.2756
    1DIPC   C4A 4940  16.131  11.508   4.689 -0.2892  0.3536  0.1138
    1DIPC   C1B 4941  16.938  11.076   5.485  0.1228  0.2181 -0.1743
    1DIPC   D2B 4942  16.581  11.056   5.220 -0.1682  0.0731  0.2774
    1DIPC   D3B 4943  16.844  10.546   5.001  0.2654  0.3811 -0.0375
    1DIPC   C4B 4944  17.196  10.335   5.055  0.0440  0.2018  0.0947
    1DIPC   NC3 4945  13.870  11.086   6.705 -0.3260 -0.2881 -0.0702
    1DIPC   PO4 4946  13.383  11.140   6.549  0.1271  0.2103 -0.1913
    1DIPC   GL1 4947  13.170  11.098   6.248 -0.0744  0.2651 -0.1035
    1DIPC   GL2 4948  13.349  11.221   5.989  0.2675  0.0938  0.2865
    1DIPC   C1A 4949  12.906  11.440   6.108 -0.0379 -0.1123  0.1517
    1DIPC   D2A 4950  12.942  11.751   5.855 -0.3380 -0.0659 -0.0746
    1DIPC   D3A 4951  13.298  11.749   5.754 -0.2235  0.0423 -0.2277
    1DIPC   C4A 4952  13.290  11.854   5.304  0.1109 -0.0798 -0.0695
    1DIPC   C1B 4953  13.276  11.313   5.489  0.4172 -0.0469 -0.0832
    1DIPC   D2B 4954  12.939  11.514   5.334  0.2773  0.0187 -0.2024
    1DIPC   D3B 4955  12.730  11.146   5.182 -0.2532  0.0408 -0.0933
    1DIPC   C4B 4956  13.011  10.888   4.977  0.0732  0.0613 -0.1135
    1DIPC   NC3 4957  17.451  18.748   7.104 -0.1085 -0.1909 -0.1056
    1DIPC   PO4 4958  17.145  18.628   6.815  0.1114 -0.1450 -0.1103
    1DIPC   GL1 4959  17.210  18.841   6.393  0.0133  0.1392 -0.0091
    1DIPC   GL2 4960  17.072  18.926   6.064  0.1927 -0.3130 -0.0829
    1DIPC   C1A 4961  17.534  18.734   6.025 -0.0101  0.0050  0.1133
    1DIPC   D2A 4962  17.909  18.618   5.795  0.0818 -0.3073  0.0333
    1DIPC   D3A 4963  17.673  18.638   5.453 -0.3479 -0.0744 -0.2531
    1DIPC   C4A 4964  17.270  18.866   5.593 -0.3025  0.1165 -0.1097
    1DIPC   C1B 4965  16.890  18.618   5.729 -0.1746 -0.2371 -0.0807
    1DIPC   D2B 4966  17.091  18.376   5.370 -0.1145 -0.0048 -0.1086
    1DIPC   D3B 4967  17.217  18.728   5.047 -0.0938 -0.0712 -0.0162
    1DIPC   C4B 4968  17.168  18.807   4.604  0.2746  0.1421 -0.1359
    1DIPC   NC3 4969  22.095   3.265   7.405 -0.3105 -0.1679 -0.3048
    1DIPC   PO4 4970  22.137   2.938   7.082 -0.2757 -0.2454 -0.0737
    1DIPC   GL1 4971  22.292   2.771   6.704 -0.3686 -0.0535 -0.4678
    1DIPC   GL2 4972  22.427   2.459   6.690  0.1777  0.4295 -0.1073
    1DIPC   C1A 4973  22.394   2.838   6.256  0.2087 -0.1068 -0.5126
    1DIPC   D2A 4974  22.156   2.755   5.890 -0.0157  0.1028  0.0013
    1DIPC   D3A 4975  22.175   3.068   5.551  0.0036  0.1424 -0.1543
    1DIPC   C4A 4976  22.360   3.503   5.523 -0.0988 -0.1575  0.0211
    1DIPC   C1B 4977  22.796   2.648   6.572  0.1028  0.0832 -0.0028
    1DIPC   D2B 4978  22.911   2.979   6.192 -0.0880 -0.2715  0.1709
    1DIPC   D3B 4979  23.294   3.376   6.133  0.0948 -0.0599  0.1423
    1DIPC   C4B 4980  23.303   3.791   5.899 -0.2167 -0.0277 -0.1816
    1DIPC   NC3 4981  12.183  27.700   6.551 -0.2039  0.0144  0.0451
    1DIPC   PO4 4982  12.603  27.662   6.332  0.0473 -0.0139 -0.1628
    1DIPC   GL1 4983  12.676  27.329   6.052 -0.1242 -0.0555  0.1719
    1DIPC   GL2 4984  12.823  26.957   6.038 -0.0024  0.2023 -0.1019
    1DIPC   C1A 4985  12.596  27.249   5.655  0.0682 -0.2898  0.0317
    1DIPC   D2A 4986  12.414  27.207   5.185 -0.4953 -0.1441 -0.0416
    1DIPC   D3A 4987  12.355  27.754   5.180 -0.0250 -0.2630  0.1131
    1DIPC   C4A 4988  12.671  27.936   5.003  0.2240 -0.0890 -0.1917
    1DIPC   C1B 4989  12.609  26.778   5.587 -0.1649  0.0815 -0.2400
    1DIPC   D2B 4990  12.657  26.768   5.041 -0.0431 -0.1254  0.0098
    1DIPC   D3B 4991  12.632  27.174   4.732  0.0536 -0.5305  0.1275
    1DIPC   C4B 4992  12.818  27.485   4.908 -0.2251  0.0979 -0.3343
    1DIPC   NC3 4993  27.023   9.265   6.562  0.2001 -0.0491  0.1667
    1DIPC   PO4 4994  27.477   9.300   6.489 -0.0500  0.0727 -0.1306
    1DIPC   GL1 4995  27.623   9.330   6.081 -0.0174  0.0493 -0.5966
    1DIPC   GL2 4996  27.462   9.251   5.694  0.0922  0.1920  0.2608
    1DIPC   C1A 4997  27.935   9.551   5.780 -0.3154  0.0489  0.0810
    1DIPC   D2A 4998  28.228   9.643   5.559  0.0054  0.0144 -0.3541
    1DIPC   D3A 4999  28.159   9.872   5.150  0.2121 -0.0710  0.2002
    1DIPC   C4A 5000  28.367   9.658   4.768 -0.1461 -0.3437  0.0641
    1DIPC   C1B 5001  27.072   8.977   5.519 -0.0701  0.2283  0.0733
    1DIPC   D2B 5002  26.754   8.954   5.163  0.0585 -0.0319  0.2399
    1DIPC   D3B 5003  27.037   8.695   5.031 -0.0542  0.2487  0.2571
    1DIPC   C4B 5004  27.002   8.201   5.076  0.0893 -0.2776  0.1005
    1DIPC   NC3 5005  28.075  25.603   6.835 -0.0341 -0.1738  0.1810
    1DIPC   PO4 5006  27.987  26.034   6.667 -0.1556 -0.1738 -0.1803
    1DIPC   GL1 5007  27.809  26.126   6.280  0.0753  0.2879 -0.0038
    1DIPC   GL2 5008  27.621  25.871   6.243 -0.4282 -0.0248  0.2042
    1DIPC   C1A 5009  27.586  26.264   5.938 -0.1900 -0.0027 -0.1676
    1DIPC   D2A 5010  27.546  26.556   5.624  0.0758  0.2536  0.1108
    1DIPC   D3A 5011  27.764  26.442   5.216 -0.1151  0.0846  0.2180
    1DIPC   C4A 5012  27.467  26.663   4.946 -0.0242  0.1839 -0.1081
    1DIPC   C1B 5013  27.919  25.870   5.864 -0.0023  0.3050 -0.2473
    1DIPC   D2B 5014  27.945  25.927   5.429 -0.0119  0.2224 -0.1775
    1DIPC   D3B 5015  28.041  25.595   5.147 -0.0778 -0.0475  0.2021
    1DIPC   C4B 5016  27.642  25.330   5.033  0.3289  0.0082  0.4842
    1DIPC   NC3 5017  19.937  13.961   6.162 -0.0900 -0.0819 -0.0896
    1DIPC   PO4 5018  19.547  13.695   6.138  0.0495  0.1507 -0.0753
    1DIPC   GL1 5019  19.620  13.891   5.762 -0.1421  0.1377  0.0663
    1DIPC   GL2 5020  19.648  13.735   5.519 -0.3080 -0.2398 -0.0692
    1DIPC   C1A 5021  19.423  14.187   5.543  0.0579 -0.1940  0.1545
    1DIPC   D2A 5022  19.340  14.627   5.250 -0.2386  0.1941  0.0062
    1DIPC   D3A 5023  19.472  14.310   5.101 -0.0772  0.1377  0.2119
    1DIPC   C4A 5024  19.475  13.879   5.031  0.2276 -0.4124  0.0139
    1DIPC   C1B 5025  19.944  13.651   5.218  0.0222  0.0112  0.1133
    1DIPC   D2B 5026  20.366  13.821   5.172 -0.3551  0.1760 -0.0932
    1DIPC   D3B 5027  20.545  13.500   5.003 -0.2137 -0.1570  0.0540
    1DIPC   C4B 5028  20.240  13.318   4.631 -0.0840  0.0401  0.2469
    1DIPC   NC3 5029   4.549  24.208   7.069 -0.5498  0.0531  0.1258
    1DIPC   PO4 5030   4.199  24.261   6.790  0.0597  0.0572  0.0005
    1DIPC   GL1 5031   4.218  24.420   6.456 -0.0070  0.1184  0.4116
    1DIPC   GL2 5032   4.174  24.745   6.384 -0.0934 -0.0341  0.0603
    1DIPC   C1A 5033   4.005  24.353   6.134 -0.1168  0.2151  0.0997
    1DIPC   D2A 5034   3.832  24.262   5.673  0.2807 -0.1182  0.0315
    1DIPC   D3A 5035   4.059  24.070   5.197 -0.1560 -0.2899  0.0399
    1DIPC   C4A 5036   4.049  23.733   5.064 -0.1459  0.2854 -0.0997
    1DIPC   C1B 5037   4.306  24.726   5.939 -0.0153 -0.1452  0.0367
    1DIPC   D2B 5038   4.257  24.400   5.641  0.1315  0.1575  0.2050
    1DIPC   D3B 5039   4.357  24.868   5.475  0.0404  0.1193  0.0794
    1DIPC   C4B 5040   4.283  25.304   5.376  0.1299  0.0907  0.0506
    1DIPC   NC3 5041   1.076   3.704   6.846 -0.0110  0.3778  0.2322
    1DIPC   PO4 5042   1.062   4.169   6.804 -0.0226 -0.0371  0.0428
    1DIPC   GL1 5043   1.017   4.307   6.323  0.1112  0.0368 -0.0533
    1DIPC   GL2 5044   1.305   4.444   6.334  0.1029 -0.2117  0.0060
    1DIPC   C1A 5045   0.844   4.660   6.461 -0.1272  0.1940  0.3786
    1DIPC   D2A 5046   0.543   4.766   6.155  0.3828 -0.0546  0.2515
    1DIPC   D3A 5047   0.820   4.863   5.786  0.0635 -0.2141  0.0303
    1DIPC   C4A 5048   0.724   4.791   5.389 -0.2656  0.0795 -0.3260
    1DIPC   C1B 5049   1.216   4.396   5.885 -0.2904 -0.2100 -0.0319
    1DIPC   D2B 5050   1.147   4.620   5.508  0.0906 -0.2512  0.2579
    1DIPC   D3B 5051   1.435   4.931   5.691 -0.5246  0.0881  0.1117
    1DIPC   C4B 5052   1.155   5.253   5.766 -0.1602 -0.0725  0.0123
    1DIPC   NC3 5053   8.882   8.089   7.539  0.1502  0.0138  0.0418
    1DIPC   PO4 5054   8.877   8.162   7.107  0.1337 -0.0254  0.0812
    1DIPC   GL1 5055   8.947   7.841   6.811 -0.2882  0.0055 -0.0055
    1DIPC   GL2 5056   8.920   8.031   6.486  0.0732  0.1769 -0.1890
    1DIPC   C1A 5057   8.834   7.527   6.430 -0.0948 -0.0157 -0.2624
    1DIPC   D2A 5058   8.863   7.488   5.915  0.0642  0.2117  0.4653
    1DIPC   D3A 5059   8.871   7.205   5.730  0.0604 -0.0425  0.0645
    1DIPC   C4A 5060   8.549   6.852   5.753 -0.2469 -0.0404  0.1339
    1DIPC   C1B 5061   8.967   7.940   6.046  0.0053 -0.3709 -0.1643
    1DIPC   D2B 5062   9.137   8.168   5.828  0.1265 -0.1483 -0.2127
    1DIPC   D3B 5063   8.938   8.077   5.518 -0.0939 -0.3158 -0.3223
    1DIPC   C4B 5064   8.955   8.192   5.152 -0.1629  0.1067  0.2170
    1DIPC   NC3 5065  24.713   3.163   7.224 -0.0843 -0.0276  0.2715
    1DIPC   PO4 5066  24.788   3.571   7.134 -0.0600  0.2211  0.3493
    1DIPC   GL1 5067  24.735   3.699   6.710 -0.1622 -0.2007 -0.0061
    1DIPC   GL2 5068  24.531   3.894   6.746  0.1550 -0.0468  0.3327
    1DIPC   C1A 5069  24.840   3.954   6.197 -0.4560 -0.0384 -0.1631
    1DIPC   D2A 5070  24.835   4.047   5.836 -0.0322 -0.1820 -0.1134
    1DIPC   D3A 5071  24.579   4.499   5.773 -0.3611 -0.1259 -0.0897
    1DIPC   C4A 5072  24.547   4.600   5.356 -0.1607  0.1573  0.3261
    1DIPC   C1B 5073  24.170   4.135   6.860  0.1870 -0.0421 -0.0985
    1DIPC   D2B 5074  23.743   4.239   6.694  0.1122 -0.1491 -0.2508
    1DIPC   D3B 5075  23.976   4.189   6.187  0.0881  0.2229  0.1141
    1DIPC   C4B 5076  24.327   4.161   6.065  0.2699  0.1350  0.0462
    1DIPC   NC3 5077  21.987  27.612   7.602  0.0833  0.1884 -0.3287
    1DIPC   PO4 5078  21.892  27.207   7.539 -0.3565  0.0491 -0.0664
    1DIPC   GL1 5079  21.784  27.341   7.107  0.0821 -0.1027 -0.0108
    1DIPC   GL2 5080  21.495  27.299   6.984  0.0855 -0.0179  0.1295
    1DIPC   C1A 5081  21.771  27.695   6.816 -0.2171 -0.0619  0.2718
    1DIPC   D2A 5082  21.991  27.846   6.443 -0.0143  0.0332 -0.0324
    1DIPC   D3A 5083  21.896  27.574   6.042  0.3707  0.0912 -0.0937
    1DIPC   C4A 5084  22.165  27.641   5.730  0.1529  0.1108 -0.1103
    1DIPC   C1B 5085  21.333  27.026   6.682 -0.1522  0.3273 -0.3465
    1DIPC   D2B 5086  21.356  26.848   6.380 -0.1237 -0.1362  0.0076
    1DIPC   D3B 5087  21.008  26.900   6.283 -0.1295  0.1754  0.0301
    1DIPC   C4B 5088  21.068  27.268   5.998  0.1127  0.0041  0.3175
    1DIPC   NC3 5089  24.299  25.147   6.557  0.2342 -0.1041  0.0572
    1DIPC   PO4 5090  24.586  25.400   6.486 -0.2390  0.0654  0.0052
    1DIPC   GL1 5091  24.465  25.271   6.010  0.1191  0.1033 -0.2215
    1DIPC   GL2 5092  24.358  24.983   6.040 -0.0628  0.0630 -0.1912
    1DIPC   C1A 5093  24.522  25.470   5.557 -0.0720 -0.2105  0.0106
    1DIPC   D2A 5094  24.439  25.422   5.146  0.2108  0.3092 -0.0823
    1DIPC   D3A 5095  24.846  25.322   4.964  0.3163  0.0708 -0.2013
    1DIPC   C4A 5096  25.021  24.938   5.128 -0.2497 -0.0717  0.0129
    1DIPC   C1B 5097  24.075  24.884   5.623  0.0850 -0.1873 -0.2346
    1DIPC   D2B 5098  24.084  25.000   5.211  0.2059 -0.0179  0.3108
    1DIPC   D3B 5099  24.010  24.682   4.795 -0.1772  0.0700  0.0645
    1DIPC   C4B 5100  24.348  24.514   4.854 -0.1132 -0.1441 -0.3431
    1DIPC   NC3 5101  18.663  21.454   6.801  0.0092  0.4000 -0.0369
    1DIPC   PO4 5102  18.309  21.371   6.633  0.4341 -0.2786 -0.1090
    1DIPC   GL1 5103  18.390  21.571   6.204  0.3633 -0.0901  0.1831
    1DIPC   GL2 5104  18.706  21.543   6.223 -0.0617 -0.0276 -0.1077
    1DIPC   C1A 5105  18.239  21.866   5.940 -0.2394  0.0015  0.1429
    1DIPC   D2A 5106  18.376  22.182   5.647 -0.3645 -0.0794  0.3912
    1DIPC   D3A 5107  17.954  22.275   5.643  0.3121 -0.0235 -0.2571
    1DIPC   C4A 5108  17.657  22.084   5.262 -0.0482 -0.3236 -0.1048
    1DIPC   C1B 5109  18.701  21.457   5.814  0.0626 -0.0584  0.1919
    1DIPC   D2B 5110  18.694  21.182   5.497  0.0527  0.1619 -0.0358
    1DIPC   D3B 5111  19.018  20.922   5.246 -0.0347  0.0582  0.1715
    1DIPC   C4B 5112  18.990  21.169   4.968 -0.0583 -0.2293 -0.0089
    1DIPC   NC3 5113  10.795   1.189   7.175 -0.1217 -0.1982  0.1702
    1DIPC   PO4 5114  11.074   0.967   6.945  0.2160 -0.1360  0.0757
    1DIPC   GL1 5115  11.189   0.897   6.434  0.3390 -0.2942 -0.1497
    1DIPC   GL2 5116  11.463   0.884   6.342  0.2626 -0.1179  0.2564
    1DIPC   C1A 5117  11.193   0.506   6.085 -0.0085 -0.1108  0.0110
    1DIPC   D2A 5118  11.354   0.101   5.865  0.3901 -0.1049  0.0632
    1DIPC   D3A 5119  11.569   0.153   5.538  0.1716  0.2736  0.2068
    1DIPC   C4A 5120  11.465   0.457   5.366  0.2933 -0.0761 -0.3358
    1DIPC   C1B 5121  11.648   0.817   5.987  0.3479 -0.1013 -0.4261
    1DIPC   D2B 5122  11.293   0.813   5.661 -0.2362  0.2826 -0.1810
    1DIPC   D3B 5123  11.015   0.509   5.652 -0.0543  0.1457 -0.0852
    1DIPC   C4B 5124  11.012   0.338   5.159 -0.0435 -0.1387  0.2575
    1DIPC   NC3 5125  12.274   1.444   7.364 -0.0796 -0.0178  0.1737
    1DIPC   PO4 5126  11.891   1.332   7.281 -0.2187 -0.3676  0.0544
    1DIPC   GL1 5127  11.834   1.471   6.872 -0.1796  0.3209 -0.0012
    1DIPC   GL2 5128  12.006   1.181   6.750 -0.0782 -0.0719  0.0948
    1DIPC   C1A 5129  12.035   1.628   6.483  0.4005  0.1739 -0.1714
    1DIPC   D2A 5130  11.998   1.985   6.192 -0.5534 -0.0167  0.3101
    1DIPC   D3A 5131  12.181   1.934   5.894 -0.2487  0.0427  0.3371
    1DIPC   C4A 5132  11.956   1.746   5.569  0.3188  0.1177 -0.1925
    1DIPC   C1B 5133  11.804   1.213   6.297 -0.0006 -0.1149  0.0015
    1DIPC   D2B 5134  11.706   1.602   6.048  0.0649  0.1311  0.1427
    1DIPC   D3B 5135  11.409   1.252   5.904 -0.5477  0.2329 -0.1942
    1DIPC   C4B 5136  11.059   1.291   6.058  0.0786  0.1973 -0.0434
    1DIPC   NC3 5137  16.501  15.462   6.139 -0.0227  0.2499  0.1846
    1DIPC   PO4 5138  16.705  15.458   5.858  0.1448  0.1125  0.1201
    1DIPC   GL1 5139  16.459  15.621   5.653 -0.1077 -0.0217  0.0168
    1DIPC   GL2 5140  16.244  15.684   5.795  0.0945  0.1109  0.4068
    1DIPC   C1A 5141  16.249  15.819   5.281  0.0516 -0.2915 -0.0073
    1DIPC   D2A 5142  16.146  15.748   4.866 -0.0645 -0.0695  0.1666
    1DIPC   D3A 5143  16.382  15.543   4.561  0.0997 -0.3902 -0.1101
    1DIPC   C4A 5144  16.824  15.691   4.418 -0.1052  0.0815 -0.1783
    1DIPC   C1B 5145  16.389  16.152   5.621  0.0986 -0.1260 -0.1499
    1DIPC   D2B 5146  16.493  16.511   5.490  0.1383 -0.0613 -0.0112
    1DIPC   D3B 5147  16.234  16.790   5.371 -0.1764  0.0067  0.3044
    1DIPC   C4B 5148  15.856  16.720   5.129 -0.1499 -0.0112 -0.4194
    1DIPC   NC3 5149  22.090  16.525   5.658  0.0028  0.1465 -0.0340
    1DIPC   PO4 5150  21.888  16.921   5.466  0.0855 -0.1014  0.2548
    1DIPC   GL1 5151  21.808  16.955   4.955  0.4081 -0.0408 -0.1885
    1DIPC   GL2 5152  21.511  17.036   5.080 -0.0283 -0.0209  0.1961
    1DIPC   C1A 5153  21.967  16.843   4.489  0.1644 -0.0820  0.1041
    1DIPC   D2A 5154  22.033  16.824   3.995  0.3266  0.2854 -0.1272
    1DIPC   D3A 5155  21.579  16.720   3.936 -0.1666  0.0578 -0.0988
    1DIPC   C4A 5156  21.465  16.906   3.404 -0.0426  0.1119  0.2467
    1DIPC   C1B 5157  21.436  17.230   4.748  0.2501 -0.0877  0.0920
    1DIPC   D2B 5158  21.134  17.479   4.503 -0.0841 -0.0258 -0.0160
    1DIPC   D3B 5159  21.340  17.151   4.267 -0.0713 -0.0050 -0.0339
    1DIPC   C4B 5160  21.556  17.194   3.813  0.1079  0.1028  0.0944
    1DIPC   NC3 5161  29.546  28.034   6.571 -0.1714 -0.1220  0.1961
    1DIPC   PO4 5162  29.363  28.314   6.780 -0.3364  0.2016 -0.1229
    1DIPC   GL1 5163  29.262  28.519   6.456  0.0287 -0.3233  0.2727
    1DIPC   GL2 5164  29.085  28.883   6.353  0.1507 -0.0379 -0.0348
    1DIPC   C1A 5165  29.378  28.532   6.056  0.1439  0.3209  0.0791
    1DIPC   D2A 5166  29.316  28.595   5.564 -0.0177 -0.2251  0.1997
    1DIPC   D3A 5167  29.508  29.086   5.440  0.1928 -0.2638 -0.2609
    1DIPC   C4A 5168  29.185  29.388   5.202 -0.0837  0.0280  0.0962
    1DIPC   C1B 5169  28.846  28.861   6.031 -0.2273 -0.0404  0.0105
    1DIPC   D2B 5170  28.829  28.752   5.568 -0.0679 -0.2463  0.0771
    1DIPC   D3B 5171  28.417  28.628   5.765 -0.1239  0.2978 -0.0180
    1DIPC   C4B 5172  28.548  28.243   5.805  0.1599  0.0500 -0.1797
    1DIPC   NC3 5173  14.570  25.018   7.381 -0.3399 -0.0416  0.3738
    1DIPC   PO4 5174  14.310  25.186   7.046 -0.1514 -0.2082  0.0762
    1DIPC   GL1 5175  14.528  25.174   6.629  0.1824 -0.0381 -0.0707
    1DIPC   GL2 5176  14.740  25.379   6.583  0.2603  0.3230  0.0972
    1DIPC   C1A 5177  14.310  25.079   6.256  0.0091  0.2325 -0.0167
    1DIPC   D2A 5178  14.425  25.142   5.791 -0.1093  0.0922 -0.1434
    1DIPC   D3A 5179  14.782  24.990   5.634  0.1862  0.3490  0.0648
    1DIPC   C4A 5180  15.098  25.206   5.485  0.1078 -0.2274 -0.1967
    1DIPC   C1B 5181  14.763  25.314   6.135 -0.0676 -0.1261 -0.1487
    1DIPC   D2B 5182  14.773  25.508   5.775 -0.0365 -0.0986  0.0793
    1DIPC   D3B 5183  14.658  25.406   5.339 -0.2464  0.1611  0.1061
    1DIPC   C4B 5184  15.058  25.635   5.153  0.1836  0.1063  0.0606
    1DIPC   NC3 5185   1.109   2.412   7.089 -0.0956 -0.2592 -0.0692
    1DIPC   PO4 5186   0.868   2.268   6.700  0.4132  0.0894  0.0892
    1DIPC   GL1 5187   0.467   2.295   6.298 -0.3231  0.0331 -0.0833
    1DIPC   GL2 5188   0.508   2.040   6.109  0.2061 -0.0706 -0.1643
    1DIPC   C1A 5189   0.467   2.485   5.910 -0.3339  0.1230  0.1082
    1DIPC   D2A 5190   0.414   2.235   5.473  0.3766  0.0116 -0.0287
    1DIPC   D3A 5191   0.101   2.479   5.394  0.2437 -0.1169  0.0981
    1DIPC   C4A 5192  -0.123   2.543   4.948  0.3292  0.1011 -0.1168
    1DIPC   C1B 5193   0.503   1.811   5.676  0.2993 -0.1435 -0.0886
    1DIPC   D2B 5194   0.202   1.592   5.425 -0.0583 -0.2511 -0.2817
    1DIPC   D3B 5195  -0.162   1.580   5.169  0.2828  0.0390 -0.1025
    1DIPC   C4B 5196  -0.257   1.716   4.815 -0.3716  0.0933 -0.0662
    1DIPC   NC3 5197   5.488   7.464   7.040  0.0811 -0.3069 -0.0006
    1DIPC   PO4 5198   5.857   7.144   7.014  0.1103 -0.0268 -0.1369
    1DIPC   GL1 5199   6.121   7.249   6.702 -0.3997  0.0713  0.4434
    1DIPC   GL2 5200   6.420   7.060   6.720 -0.0361  0.0061 -0.1666
    1DIPC   C1A 5201   6.212   7.140   6.181  0.0026  0.1607 -0.3789
    1DIPC   D2A 5202   6.244   6.758   5.975 -0.0759 -0.2002  0.0786
    1DIPC   D3A 5203   5.942   6.828   5.702 -0.1918  0.0087  0.1917
    1DIPC   C4A 5204   5.489   6.950   5.698 -0.0582 -0.0915  0.3220
    1DIPC   C1B 5205   6.959   7.182   6.593  0.0085  0.0990  0.0146
    1DIPC   D2B 5206   7.162   7.300   6.209  0.1337 -0.2424 -0.4379
    1DIPC   D3B 5207   7.218   7.452   5.783 -0.0999  0.0659  0.2050
    1DIPC   C4B 5208   6.855   7.596   5.534  0.1051  0.0097 -0.1480
    1DIPC   NC3 5209   7.972  24.675   7.340  0.0916  0.2224 -0.1461
    1DIPC   PO4 5210   7.914  24.762   6.900 -0.1701 -0.0298  0.1323
    1DIPC   GL1 5211   8.211  24.655   6.524  0.2806  0.0677  0.0690
    1DIPC   GL2 5212   8.204  24.929   6.377  0.1653 -0.1082  0.2615
    1DIPC   C1A 5213   8.088  24.471   6.130 -0.0512  0.3172 -0.3713
    1DIPC   D2A 5214   8.375  24.412   5.764  0.2062  0.1292 -0.0342
    1DIPC   D3A 5215   8.804  24.395   5.750  0.1400 -0.0099 -0.1263
    1DIPC   C4A 5216   8.907  24.695   5.420 -0.1177 -0.2158  0.1705
    1DIPC   C1B 5217   8.371  25.172   6.115  0.1620 -0.1108  0.2813
    1DIPC   D2B 5218   8.832  25.196   6.217  0.0331 -0.0521  0.2632
    1DIPC   D3B 5219   8.692  25.419   5.855 -0.0354  0.2341  0.0462
    1DIPC   C4B 5220   8.284  25.423   5.628 -0.1091 -0.3915 -0.0933
    1DIPC   NC3 5221   5.315   0.454   6.610  0.1722 -0.0747  0.0631
    1DIPC   PO4 5222   5.746   0.245   6.616 -0.1779  0.4132  0.3118
    1DIPC   GL1 5223   5.686   0.372   6.222  0.1016 -0.0442  0.1829
    1DIPC   GL2 5224   5.567   0.744   6.210  0.1738 -0.1237 -0.2854
    1DIPC   C1A 5225   5.754   0.481   5.764  0.2710 -0.0875 -0.3322
    1DIPC   D2A 5226   5.758   0.609   5.337  0.0491 -0.0015 -0.2113
    1DIPC   D3A 5227   5.792   1.050   5.181 -0.1907  0.2001  0.3178
    1DIPC   C4A 5228   5.905   1.221   4.841  0.2028 -0.2051  0.1347
    1DIPC   C1B 5229   5.322   1.054   5.955  0.1155  0.0625 -0.0367
    1DIPC   D2B 5230   5.074   1.138   5.680  0.1367  0.3327 -0.0688
    1DIPC   D3B 5231   5.284   0.890   5.432 -0.2647  0.1804  0.1153
    1DIPC   C4B 5232   5.325   0.964   4.958 -0.3156  0.0260 -0.1855
    1DIPC   NC3 5233  26.078   3.628   6.876  0.0700 -0.1164  0.2012
    1DIPC   PO4 5234  26.293   3.918   6.580 -0.0157  0.0714  0.2695
    1DIPC   GL1 5235  26.152   3.880   6.199  0.2207 -0.1137  0.1050
    1DIPC   GL2 5236  26.018   4.191   6.211 -0.0827 -0.0324  0.1461
    1DIPC   C1A 5237  26.276   3.741   5.863  0.2005  0.1262  0.2898
    1DIPC   D2A 5238  26.397   3.652   5.348 -0.0490  0.2615  0.2417
    1DIPC   D3A 5239  26.670   3.436   5.058  0.1977 -0.0134  0.0962
    1DIPC   C4A 5240  27.078   3.202   5.067 -0.0819  0.0062  0.1637
    1DIPC   C1B 5241  25.780   3.936   5.896  0.3455  0.0561 -0.1350
    1DIPC   D2B 5242  25.925   3.834   5.410  0.2343  0.2699  0.0610
    1DIPC   D3B 5243  26.195   4.021   5.068 -0.2322  0.1134 -0.3242
    1DIPC   C4B 5244  26.674   4.037   4.955  0.1836 -0.0014  0.4123
    1DIPC   NC3 5245   6.833   8.927   7.108 -0.1409 -0.1488  0.1668
    1DIPC   PO4 5246   7.240   9.350   7.109  0.2009  0.1254 -0.1857
    1DIPC   GL1 5247   7.021   9.209   6.743 -0.3479 -0.2086 -0.1332
    1DIPC   GL2 5248   6.948   9.312   6.373  0.1402  0.0281 -0.0220
    1DIPC   C1A 5249   7.158   8.844   6.485  0.0792  0.1211  0.2872
    1DIPC   D2A 5250   7.229   8.652   6.105 -0.2162  0.3704 -0.0124
    1DIPC   D3A 5251   7.081   8.994   5.866  0.0706 -0.0395 -0.0668
    1DIPC   C4A 5252   7.078   9.001   5.485 -0.0099 -0.0867  0.2977
    1DIPC   C1B 5253   7.387   9.186   6.204  0.1095  0.1467 -0.1828
    1DIPC   D2B 5254   7.709   8.964   6.152 -0.1723  0.0215 -0.2599
    1DIPC   D3B 5255   7.555   8.825   5.688  0.0039  0.2490  0.1541
    1DIPC   C4B 5256   7.837   8.663   5.391  0.2203  0.1471 -0.1497
    1DIPC   NC3 5257  13.186  18.767   7.098  0.1421 -0.1621  0.1899
    1DIPC   PO4 5258  13.032  18.484   6.700 -0.0916  0.1498 -0.0446
    1DIPC   GL1 5259  13.302  18.614   6.316  0.1316  0.2048  0.2272
    1DIPC   GL2 5260  13.607  18.704   6.222 -0.1857  0.2853  0.1393
    1DIPC   C1A 5261  13.382  18.679   5.800 -0.3636  0.2299 -0.2069
    1DIPC   D2A 5262  13.323  19.040   5.549  0.1131 -0.0914  0.2992
    1DIPC   D3A 5263  13.013  19.251   5.708  0.1637  0.1804 -0.1407
    1DIPC   C4A 5264  12.865  19.016   6.113  0.2434 -0.2487  0.0718
    1DIPC   C1B 5265  13.434  19.148   6.259  0.1164  0.2448 -0.1633
    1DIPC   D2B 5266  13.304  19.514   6.105 -0.0130  0.1973  0.1347
    1DIPC   D3B 5267  12.941  19.478   6.335 -0.3434  0.2540  0.0417
    1DIPC   C4B 5268  12.643  19.577   5.962 -0.0194  0.2687 -0.2718
    1DIPC   NC3 5269  15.323   4.795   6.855  0.0229  0.1013 -0.0560
    1DIPC   PO4 5270  15.570   4.560   6.808  0.1110 -0.1517  0.2220
    1DIPC   GL1 5271  15.574   4.504   6.317 -0.0203  0.1861  0.2396
    1DIPC   GL2 5272  15.758   4.326   6.108  0.0349 -0.3904  0.1527
    1DIPC   C1A 5273  15.559   4.649   5.864 -0.1056  0.1637 -0.4114
    1DIPC   D2A 5274  15.439   4.868   5.509  0.0094  0.0345 -0.0602
    1DIPC   D3A 5275  15.255   4.664   5.197  0.0351 -0.0049 -0.0144
    1DIPC   C4A 5276  15.318   4.663   4.748  0.0697  0.2726  0.2066
    1DIPC   C1B 5277  15.555   4.140   5.693  0.4318 -0.1183  0.0031
    1DIPC   D2B 5278  15.316   3.754   5.601 -0.0099  0.1120  0.2525
    1DIPC   D3B 5279  15.142   4.028   5.917 -0.1481 -0.1249 -0.0843
    1DIPC   C4B 5280  15.297   3.957   6.331  0.2046 -0.0515  0.1228
    1DIPC   NC3 5281  17.038  12.943   6.422 -0.0429 -0.0126 -0.1228
    1DIPC   PO4 5282  16.949  13.201   6.101  0.1175 -0.1120 -0.0302
    1DIPC   GL1 5283  16.808  13.182   5.658  0.0711  0.2169 -0.0793
    1DIPC   GL2 5284  16.540  13.144   5.654 -0.0533  0.0881 -0.2903
    1DIPC   C1A 5285  16.747  13.066   5.218  0.0548  0.1246 -0.3094
    1DIPC   D2A 5286  16.965  12.964   4.814  0.1034 -0.1031  0.1018
    1DIPC   D3A 5287  16.643  12.766   4.588 -0.2655  0.0176  0.2477
    1DIPC   C4A 5288  16.703  12.928   4.101  0.0913 -0.5323 -0.2356
    1DIPC   C1B 5289  16.394  12.739   5.454  0.0407  0.1785 -0.1768
    1DIPC   D2B 5290  16.220  12.279   5.307  0.0309 -0.0997 -0.1833
    1DIPC   D3B 5291  16.415  11.913   5.095 -0.2062 -0.0185 -0.0998
    1DIPC   C4B 5292  16.634  11.836   4.778  0.0203 -0.4280 -0.0264
    1DIPC   NC3 5293  17.771  28.468   6.901 -0.0769  0.0927  0.2261
    1DIPC   PO4 5294  18.095  28.479   6.634  0.3569 -0.2881  0.0770
    1DIPC   GL1 5295  18.231  28.140   6.258  0.1601  0.3624 -0.2332
    1DIPC   GL2 5296  18.115  27.777   6.203 -0.0218  0.1900  0.0827
    1DIPC   C1A 5297  18.562  28.187   5.924  0.2045  0.1065 -0.1437
    1DIPC   D2A 5298  18.875  28.323   5.620 -0.1389  0.0578  0.0865
    1DIPC   D3A 5299  18.542  28.102   5.360 -0.3196 -0.1963  0.1480
    1DIPC   C4A 5300  18.213  28.305   5.173 -0.1861 -0.2912 -0.0811
    1DIPC   C1B 5301  17.780  27.819   5.916  0.2502  0.0256  0.2408
    1DIPC   D2B 5302  17.688  27.633   5.625 -0.2868 -0.1197  0.0478
    1DIPC   D3B 5303  18.059  27.793   5.364  0.0272  0.1903 -0.3182
    1DIPC   C4B 5304  18.291  27.725   5.720  0.0280  0.1182 -0.2126
    1DIPC   NC3 5305   9.082   2.338   7.425  0.0943  0.0695  0.1269
    1DIPC   PO4 5306   9.423   2.114   7.312 -0.2493 -0.0097 -0.1654
    1DIPC   GL1 5307   9.490   2.039   6.954  0.1278 -0.2435  0.0972
    1DIPC   GL2 5308   9.273   1.740   6.781  0.2006  0.1741 -0.0507
    1DIPC   C1A 5309   9.824   2.057   6.578 -0.0655  0.2364 -0.1075
    1DIPC   D2A 5310  10.112   1.973   6.106  0.0543 -0.1449  0.1202
    1DIPC   D3A 5311   9.976   1.633   6.134 -0.0651 -0.0737 -0.0283
    1DIPC   C4A 5312   9.925   1.410   5.821  0.0373  0.3673  0.0772
    1DIPC   C1B 5313   9.356   1.779   6.434 -0.0886 -0.1456 -0.0939
    1DIPC   D2B 5314   9.300   1.875   6.060  0.1369  0.1097 -0.0765
    1DIPC   D3B 5315   9.489   1.562   5.871 -0.0556  0.3942  0.3840
    1DIPC   C4B 5316   9.564   1.322   5.441 -0.0452  0.0405 -0.0698
    1DIPC   NC3 5317  10.547  13.562   7.348 -0.0465 -0.2430  0.2154
    1DIPC   PO4 5318  10.501  13.576   6.909  0.1189  0.0511 -0.1577
    1DIPC   GL1 5319  10.422  13.580   6.428  0.0195  0.1651  0.1021
    1DIPC   GL2 5320  10.651  13.368   6.083 -0.3842  0.0008 -0.1181
    1DIPC   C1A 5321  10.188  13.496   6.061  0.0146  0.0247 -0.0444
    1DIPC   D2A 5322  10.140  13.657   5.623  0.0921 -0.1649  0.0972
    1DIPC   D3A 5323   9.945  13.405   5.347  0.2144 -0.0950  0.2008
    1DIPC   C4A 5324   9.713  13.112   5.304  0.0141  0.2048 -0.0149
    1DIPC   C1B 5325  10.641  13.502   5.664 -0.3876 -0.0836 -0.1071
    1DIPC   D2B 5326  10.626  13.584   5.296  0.1428 -0.2715 -0.3274
    1DIPC   D3B 5327  11.003  13.653   5.264 -0.0459  0.1437  0.1335
    1DIPC   C4B 5328  11.255  13.845   4.976 -0.2744 -0.3165 -0.1389
    1DIPC   NC3 5329  18.991  26.380   7.245  0.0339 -0.0074 -0.1031
    1DIPC   PO4 5330  19.320  26.125   7.238 -0.1884  0.0980 -0.1917
    1DIPC   GL1 5331  19.292  26.379   6.850  0.1556 -0.2617 -0.1032
    1DIPC   GL2 5332  19.137  26.598   6.815 -0.2799  0.1195  0.2357
    1DIPC   C1A 5333  19.243  26.229   6.401 -0.0420 -0.0764 -0.0498
    1DIPC   D2A 5334  19.451  26.058   6.096  0.1212 -0.2769 -0.2016
    1DIPC   D3A 5335  19.059  26.092   5.805 -0.0093 -0.3659 -0.1537
    1DIPC   C4A 5336  18.837  25.686   5.539 -0.0420  0.0509  0.1575
    1DIPC   C1B 5337  19.331  26.683   6.315 -0.0411 -0.0231  0.3160
    1DIPC   D2B 5338  19.577  26.652   5.866  0.0698  0.1942  0.1361
    1DIPC   D3B 5339  19.075  26.569   5.882 -0.0602  0.2362 -0.2294
    1DIPC   C4B 5340  18.818  26.358   6.147  0.1058 -0.0673  0.0301
    1DIPC   NC3 5341   8.626  21.448   6.517  0.2204 -0.0969  0.2722
    1DIPC   PO4 5342   9.073  21.326   6.592  0.1460 -0.1799 -0.1726
    1DIPC   GL1 5343   9.045  21.410   6.144  0.3106 -0.1611  0.1431
    1DIPC   GL2 5344   9.156  21.175   5.998 -0.1776  0.3428  0.1959
    1DIPC   C1A 5345   8.950  21.626   5.693 -0.0472  0.1341  0.1672
    1DIPC   D2A 5346   8.803  21.972   5.605  0.1956  0.0832  0.2919
    1DIPC   D3A 5347   8.875  22.150   5.229  0.0357  0.0532  0.0963
    1DIPC   C4A 5348   8.943  21.961   4.756 -0.2300 -0.2190 -0.2107
    1DIPC   C1B 5349   9.072  21.168   5.599  0.5489  0.0610  0.1995
    1DIPC   D2B 5350   8.728  21.317   5.278 -0.0137  0.1880 -0.1184
    1DIPC   D3B 5351   8.460  20.969   5.035 -0.0265 -0.3289 -0.1443
    1DIPC   C4B 5352   8.088  20.868   5.109  0.2013  0.4164 -0.1348
    1DIPC   NC3 5353  22.058  29.190   7.349 -0.0849 -0.2765  0.3008
    1DIPC   PO4 5354  21.963  28.796   7.206 -0.0593 -0.0026 -0.3551
    1DIPC   GL1 5355  21.864  29.022   6.918 -0.0433 -0.1865  0.0646
    1DIPC   GL2 5356  21.951  29.352   6.831  0.0843  0.1347 -0.1019
    1DIPC   C1A 5357  21.710  28.961   6.561 -0.4206 -0.1084 -0.2364
    1DIPC   D2A 5358  21.495  28.897   6.239  0.0105 -0.2438 -0.2061
    1DIPC   D3A 5359  21.342  28.926   5.778 -0.0761 -0.1836 -0.1100
    1DIPC   C4A 5360  21.614  28.724   5.431  0.2436  0.1335 -0.0670
    1DIPC   C1B 5361  22.148  29.596   6.510  0.0880 -0.1292  0.1533
    1DIPC   D2B 5362  22.226  29.644   6.072  0.0756 -0.0920  0.3049
    1DIPC   D3B 5363  22.396  29.280   5.983 -0.1355  0.2389 -0.0782
    1DIPC   C4B 5364  22.447  29.047   5.639  0.2902  0.2660 -0.1995
    1DIPC   NC3 5365  25.331  24.882   6.807 -0.1196  0.0102  0.2836
    1DIPC   PO4 5366  25.397  24.648   6.489 -0.1197 -0.4054 -0.0205
    1DIPC   GL1 5367  25.540  25.047   6.188 -0.0885  0.0440 -0.1898
    1DIPC   GL2 5368  25.629  25.229   6.370 -0.1938 -0.2848 -0.0105
    1DIPC   C1A 5369  25.432  25.195   5.782  0.0616  0.2251  0.0208
    1DIPC   D2A 5370  25.318  25.259   5.387  0.1911  0.2388  0.0137
    1DIPC   D3A 5371  25.450  25.638   5.072  0.0036 -0.6654 -0.1732
    1DIPC   C4A 5372  25.436  26.023   5.042  0.1498 -0.3148 -0.0445
    1DIPC   C1B 5373  25.597  25.512   6.060 -0.1847 -0.2084  0.1349
    1DIPC   D2B 5374  25.685  25.516   5.525  0.2489  0.4415 -0.0392
    1DIPC   D3B 5375  25.707  25.898   5.508 -0.0823 -0.0398 -0.3345
    1DIPC   C4B 5376  25.854  26.117   5.242  0.0145  0.1852  0.3476
    1DIPC   NC3 5377  23.886   1.206   6.692 -0.2255 -0.2761  0.2320
    1DIPC   PO4 5378  23.960   0.724   6.510 -0.0563  0.0201  0.1999
    1DIPC   GL1 5379  23.942   0.620   6.096  0.0450  0.0434 -0.1133
    1DIPC   GL2 5380  24.065   0.363   5.903  0.0887 -0.1030  0.0079
    1DIPC   C1A 5381  24.431   0.686   5.875 -0.0857 -0.1543 -0.1169
    1DIPC   D2A 5382  24.603   0.913   5.533 -0.1884 -0.1107 -0.5017
    1DIPC   D3A 5383  24.455   0.660   5.229  0.0876 -0.0590 -0.3472
    1DIPC   C4A 5384  24.139   0.878   5.001 -0.0286  0.1321  0.0533
    1DIPC   C1B 5385  23.988   0.574   5.549 -0.2824  0.2530  0.4214
    1DIPC   D2B 5386  23.841   0.478   5.118 -0.1229  0.0503 -0.1081
    1DIPC   D3B 5387  23.539   0.275   4.887  0.1889 -0.1007 -0.2595
    1DIPC   C4B 5388  23.301   0.035   5.085  0.0095 -0.0531 -0.0137
    1DIPC   NC3 5389  18.916  28.521   7.367 -0.0555 -0.0772  0.0530
    1DIPC   PO4 5390  19.019  28.657   6.987  0.1747  0.0163 -0.0482
    1DIPC   GL1 5391  19.029  28.498   6.534  0.0305 -0.1719  0.1640
    1DIPC   GL2 5392  18.942  28.843   6.367  0.1294  0.1201 -0.3619
    1DIPC   C1A 5393  19.052  28.397   6.123 -0.0394  0.0283 -0.0632
    1DIPC   D2A 5394  19.386  28.114   5.858  0.0726  0.0867 -0.2724
    1DIPC   D3A 5395  19.254  27.969   5.487  0.1491 -0.1252 -0.0699
    1DIPC   C4A 5396  19.408  28.048   5.068  0.1480 -0.1445  0.1162
    1DIPC   C1B 5397  18.787  28.862   5.962 -0.2871  0.4338  0.1570
    1DIPC   D2B 5398  18.652  28.868   5.578 -0.0102 -0.0015 -0.2003
    1DIPC   D3B 5399  18.226  28.766   5.338 -0.1580  0.0566  0.2101
    1DIPC   C4B 5400  17.932  29.042   5.120  0.1852  0.0418  0.0820
    1DIPC   NC3 5401  19.417  24.641   7.393 -0.0773  0.0046 -0.2778
    1DIPC   PO4 5402  19.667  25.106   7.495  0.2898 -0.1716 -0.3486
    1DIPC   GL1 5403  19.525  25.029   7.061 -0.2431  0.2815 -0.1235
    1DIPC   GL2 5404  19.809  24.947   6.769 -0.2352  0.1088  0.0768
    1DIPC   C1A 5405  19.421  25.306   6.702  0.1264  0.2533 -0.0206
    1DIPC   D2A 5406  19.445  25.737   6.395 -0.0256  0.1734 -0.0892
    1DIPC   D3A 5407  19.524  25.569   6.007  0.0482  0.1092  0.2318
    1DIPC   C4A 5408  19.452  25.808   5.637 -0.0519 -0.0233  0.1678
    1DIPC   C1B 5409  20.125  24.925   6.480  0.0821 -0.1656  0.0449
    1DIPC   D2B 5410  20.478  24.846   6.240  0.1246  0.1239  0.0190
    1DIPC   D3B 5411  20.081  24.795   5.982 -0.0107  0.2099  0.0281
    1DIPC   C4B 5412  19.727  24.697   5.678  0.0118 -0.1484 -0.1022
    1DIPC   NC3 5413  12.361  10.197   7.260  0.0941  0.0374  0.1215
    1DIPC   PO4 5414  12.333   9.789   6.987  0.1193 -0.1251  0.2318
    1DIPC   GL1 5415  12.531   9.652   6.667 -0.0442 -0.2444 -0.2863
    1DIPC   GL2 5416  12.741   9.403   6.533  0.0045 -0.0981 -0.0413
    1DIPC   C1A 5417  12.510   9.779   6.239 -0.1898 -0.1852  0.0233
    1DIPC   D2A 5418  12.290  10.107   6.062  0.0823 -0.3301 -0.0710
    1DIPC   D3A 5419  12.706  10.179   5.753  0.2024 -0.1765  0.0855
    1DIPC   C4A 5420  12.694  10.307   5.341 -0.2207  0.2378 -0.0886
    1DIPC   C1B 5421  12.985   9.630   6.174 -0.2018  0.2726  0.1119
    1DIPC   D2B 5422  13.161   9.678   5.795 -0.0009  0.1187  0.1264
    1DIPC   D3B 5423  13.191   9.385   5.455 -0.2091  0.1583 -0.2104
    1DIPC   C4B 5424  13.542   9.506   5.109  0.0890 -0.0660 -0.1979
    1DIPC   NC3 5425  25.147  22.353   6.307  0.1287 -0.0713 -0.4028
    1DIPC   PO4 5426  25.317  22.539   5.912 -0.0343  0.0053 -0.0787
    1DIPC   GL1 5427  25.372  22.753   5.450 -0.1664  0.0454  0.2621
    1DIPC   GL2 5428  25.200  23.023   5.535  0.3761  0.2503  0.1290
    1DIPC   C1A 5429  25.381  22.432   5.104 -0.0786 -0.0331  0.1296
    1DIPC   D2A 5430  25.380  22.582   4.758  0.0780 -0.2253  0.0936
    1DIPC   D3A 5431  25.803  22.430   4.721 -0.0976  0.0576 -0.2303
    1DIPC   C4A 5432  26.024  22.581   4.397 -0.2204 -0.2864  0.0058
    1DIPC   C1B 5433  25.238  23.185   5.144 -0.2692 -0.2351  0.1659
    1DIPC   D2B 5434  25.332  23.406   4.678  0.1268  0.2849  0.2300
    1DIPC   D3B 5435  25.519  23.607   4.303 -0.4217 -0.0295  0.0472
    1DIPC   C4B 5436  25.960  23.490   4.247  0.2639  0.1870  0.1078
    1DIPC   NC3 5437   9.693  14.453   7.114  0.2631 -0.1172  0.1128
    1DIPC   PO4 5438   9.636  14.070   7.143  0.1307  0.0669  0.0220
    1DIPC   GL1 5439   9.698  13.920   6.757 -0.2442  0.0684  0.0131
    1DIPC   GL2 5440   9.841  14.266   6.599 -0.1669 -0.1624 -0.1869
    1DIPC   C1A 5441   9.689  13.752   6.350 -0.2504  0.0306  0.0452
    1DIPC   D2A 5442   9.742  13.770   5.954 -0.0750  0.1391  0.1707
    1DIPC   D3A 5443   9.629  13.409   5.804  0.5205  0.1491  0.4165
    1DIPC   C4A 5444  10.055  13.079   5.675  0.2261  0.1451  0.0454
    1DIPC   C1B 5445   9.995  14.190   6.137 -0.1290  0.2297  0.1009
    1DIPC   D2B 5446  10.154  14.155   5.666  0.3007 -0.2380  0.1248
    1DIPC   D3B 5447  10.450  14.054   5.512 -0.0205  0.1410  0.1267
    1DIPC   C4B 5448  10.760  14.076   5.115 -0.0439  0.1281  0.1593
    1DIPC   NC3 5449  20.601  23.488   6.549  0.2432 -0.0341 -0.2229
    1DIPC   PO4 5450  20.477  23.951   6.420  0.2878 -0.0345 -0.1257
    1DIPC   GL1 5451  20.352  24.073   5.998 -0.0135 -0.0568  0.2815
    1DIPC   GL2 5452  20.103  24.247   5.996 -0.0377 -0.0996 -0.3306
    1DIPC   C1A 5453  20.358  24.059   5.527 -0.0758 -0.0642 -0.4420
    1DIPC   D2A 5454  20.362  24.137   5.109 -0.3779  0.1386 -0.1721
    1DIPC   D3A 5455  20.639  24.143   4.666  0.3485  0.1086  0.1783
    1DIPC   C4A 5456  20.962  23.891   4.483 -0.2803  0.0938  0.0595
    1DIPC   C1B 5457  19.863  23.883   5.741 -0.2127 -0.1770  0.2078
    1DIPC   D2B 5458  19.978  23.847   5.261 -0.2005  0.1709 -0.1232
    1DIPC   D3B 5459  20.099  23.888   4.754 -0.2256 -0.6300  0.1172
    1DIPC   C4B 5460  19.811  24.144   4.637  0.1827  0.3090  0.2091
    1DIPC   NC3 5461  18.122  19.198   7.055 -0.2195 -0.0954 -0.3060
    1DIPC   PO4 5462  18.160  19.260   6.556  0.3236  0.2707  0.0123
    1DIPC   GL1 5463  18.233  19.269   6.069 -0.0061 -0.1041  0.0269
    1DIPC   GL2 5464  18.017  19.561   5.976 -0.0896  0.0261 -0.0089
    1DIPC   C1A 5465  18.327  19.014   5.704  0.2426 -0.0898  0.0101
    1DIPC   D2A 5466  18.252  18.819   5.352  0.0202 -0.0501 -0.0516
    1DIPC   D3A 5467  18.055  18.536   5.071  0.0539 -0.0822  0.2036
    1DIPC   C4A 5468  17.759  18.715   4.901  0.1185  0.2269 -0.0257
    1DIPC   C1B 5469  18.307  19.532   5.606  0.1692 -0.1669 -0.0495
    1DIPC   D2B 5470  18.650  19.828   5.522 -0.2030  0.2841  0.3365
    1DIPC   D3B 5471  18.594  20.019   5.128  0.0581 -0.1120  0.1310
    1DIPC   C4B 5472  18.728  19.851   4.825 -0.1116 -0.1299  0.2312
    1DIPC   NC3 5473  12.826   8.914   6.733 -0.0587  0.0226  0.3240
    1DIPC   PO4 5474  12.436   9.074   6.648 -0.2544 -0.0471  0.0349
    1DIPC   GL1 5475  12.412   8.965   6.222  0.4463  0.0629 -0.1403
    1DIPC   GL2 5476  12.302   9.189   5.986  0.1469 -0.0100 -0.0390
    1DIPC   C1A 5477  12.656   8.848   5.941  0.1643  0.0220  0.3377
    1DIPC   D2A 5478  12.488   8.829   5.636 -0.1530  0.2560 -0.0130
    1DIPC   D3A 5479  12.502   8.940   5.198  0.2518 -0.0711 -0.0158
    1DIPC   C4A 5480  12.444   8.635   4.848 -0.0130 -0.1190  0.1947
    1DIPC   C1B 5481  11.885   8.902   5.994 -0.0064 -0.4466  0.0565
    1DIPC   D2B 5482  11.861   8.916   6.414 -0.0668  0.0118 -0.3599
    1DIPC   D3B 5483  11.389   9.104   6.217  0.3543  0.2073 -0.1650
    1DIPC   C4B 5484  11.235   9.209   5.883  0.0646 -0.3950  0.2768
    1DIPC   NC3 5485  15.175   4.454   7.192 -0.1494 -0.0877  0.1969
    1DIPC   PO4 5486  14.901   4.219   6.894 -0.2688  0.0379 -0.1091
    1DIPC   GL1 5487  15.032   4.381   6.529 -0.0523 -0.5470 -0.0088
    1DIPC   GL2 5488  14.794   4.668   6.429  0.2919 -0.1199  0.2492
    1DIPC   C1A 5489  15.145   4.453   6.107 -0.0817 -0.2462  0.2781
    1DIPC   D2A 5490  14.993   4.610   5.765  0.1968  0.3344 -0.2492
    1DIPC   D3A 5491  14.776   4.631   5.428  0.1331 -0.1605  0.1858
    1DIPC   C4A 5492  14.586   4.209   5.127  0.0029 -0.0965 -0.0166
    1DIPC   C1B 5493  15.028   4.897   6.256 -0.0227  0.1716 -0.0970
    1DIPC   D2B 5494  15.143   5.081   5.871 -0.3793  0.1183 -0.1999
    1DIPC   D3B 5495  14.961   5.222   5.468  0.1568 -0.0580  0.0786
    1DIPC   C4B 5496  14.866   5.717   5.386 -0.0243  0.3536 -0.1185
    1DIPC   NC3 5497  28.224   6.091   6.861 -0.0713 -0.3604  0.1319
    1DIPC   PO4 5498  28.234   5.812   6.487 -0.0107  0.2959  0.1411
    1DIPC   GL1 5499  28.405   5.812   6.144  0.2313  0.3047  0.1311
    1DIPC   GL2 5500  28.254   5.568   5.966 -0.0491 -0.0674  0.0574
    1DIPC   C1A 5501  28.442   6.021   5.763  0.0073 -0.0597  0.1510
    1DIPC   D2A 5502  28.442   6.170   5.409  0.1374 -0.0315  0.0413
    1DIPC   D3A 5503  28.878   6.292   5.551  0.2250  0.3439 -0.1310
    1DIPC   C4A 5504  29.208   6.251   5.289  0.1690 -0.1884  0.0837
    1DIPC   C1B 5505  28.080   5.671   5.579  0.1287  0.4693  0.3925
    1DIPC   D2B 5506  28.427   5.568   5.196  0.0166  0.0534  0.0461
    1DIPC   D3B 5507  28.134   5.417   5.008  0.2286 -0.2281 -0.2024
    1DIPC   C4B 5508  28.204   5.143   4.635  0.5377 -0.1033 -0.1373
    1DIPC   NC3 5509   5.538  24.670   6.489 -0.1199 -0.1652 -0.0495
    1DIPC   PO4 5510   5.449  24.906   6.182 -0.2206  0.0556  0.1497
    1DIPC   GL1 5511   5.426  24.529   5.962  0.0329 -0.2393  0.0629
    1DIPC   GL2 5512   5.502  24.279   6.159 -0.0401 -0.1730  0.1362
    1DIPC   C1A 5513   5.383  24.328   5.592 -0.2725  0.2350  0.0963
    1DIPC   D2A 5514   5.458  24.478   5.282  0.1604 -0.1319 -0.1197
    1DIPC   D3A 5515   5.475  24.005   5.113 -0.1230 -0.4111 -0.5057
    1DIPC   C4A 5516   5.822  23.972   4.884 -0.1912 -0.0014  0.0013
    1DIPC   C1B 5517   5.744  24.174   5.828  0.0347  0.0665 -0.3594
    1DIPC   D2B 5518   5.893  24.040   5.382 -0.2119 -0.0717 -0.0869
    1DIPC   D3B 5519   6.187  24.169   5.528  0.1525 -0.0137 -0.3762
    1DIPC   C4B 5520   6.425  24.054   5.330  0.0450  0.0837  0.4475
    1DIPC   NC3 5521  13.788  27.427   6.720  0.1139 -0.1143  0.1402
    1DIPC   PO4 5522  14.213  27.471   6.579 -0.5852 -0.5166 -0.1409
    1DIPC   GL1 5523  14.307  27.520   6.137  0.4407  0.2032  0.2013
    1DIPC   GL2 5524  14.526  27.759   6.002 -0.0428 -0.0134 -0.0330
    1DIPC   C1A 5525  14.089  27.656   5.819  0.1922  0.0170 -0.0388
    1DIPC   D2A 5526  14.025  27.787   5.343 -0.2166 -0.1194  0.1268
    1DIPC   D3A 5527  13.730  27.974   5.024  0.1552  0.0450 -0.0164
    1DIPC   C4A 5528  13.845  28.243   4.787  0.4717 -0.0563  0.0264
    1DIPC   C1B 5529  14.455  27.492   5.560 -0.0011 -0.0037 -0.0084
    1DIPC   D2B 5530  14.754  27.324   5.289  0.1692 -0.0233  0.0965
    1DIPC   D3B 5531  15.053  27.452   4.894  0.2251  0.1816 -0.1680
    1DIPC   C4B 5532  15.088  27.846   4.648  0.1305  0.5384 -0.0487
    1DIPC   NC3 5533  18.748   2.526   6.501 -0.1557 -0.1516  0.0968
    1DIPC   PO4 5534  18.967   2.135   6.573  0.3332  0.2347 -0.2553
    1DIPC   GL1 5535  18.779   2.221   6.108  0.0143 -0.2157  0.1712
    1DIPC   GL2 5536  18.929   2.574   6.044 -0.0531 -0.3538 -0.1241
    1DIPC   C1A 5537  18.442   2.367   5.796  0.3480  0.0336 -0.2355
    1DIPC   D2A 5538  18.236   2.270   5.394 -0.1548  0.5476  0.1194
    1DIPC   D3A 5539  18.255   2.406   4.983  0.1387  0.0636 -0.1543
    1DIPC   C4A 5540  18.305   2.736   4.832  0.0843 -0.2902  0.2158
    1DIPC   C1B 5541  18.767   2.746   5.555 -0.2634  0.2204 -0.1132
    1DIPC   D2B 5542  18.838   2.737   5.088 -0.0350  0.0436  0.0874
    1DIPC   D3B 5543  19.125   3.138   5.050  0.0329  0.1577 -0.0339
    1DIPC   C4B 5544  18.904   3.470   5.103 -0.1642 -0.1522  0.3747
    1DIPC   NC3 5545   3.777   1.776   6.931 -0.0384  0.1408 -0.0680
    1DIPC   PO4 5546   3.426   1.837   6.665 -0.0287  0.2901  0.0152
    1DIPC   GL1 5547   3.457   2.046   6.205 -0.0171  0.1083  0.0540
    1DIPC   GL2 5548   3.317   2.302   6.021  0.0960 -0.0448  0.0233
    1DIPC   C1A 5549   3.572   1.976   5.696 -0.1532  0.1239 -0.0581
    1DIPC   D2A 5550   3.758   1.578   5.442 -0.0187 -0.1068  0.1040
    1DIPC   D3A 5551   3.281   1.579   5.181  0.0089 -0.0560 -0.1516
    1DIPC   C4A 5552   3.249   1.366   4.815 -0.1420  0.0146  0.2049
    1DIPC   C1B 5553   3.486   2.475   5.670 -0.2157 -0.2397 -0.0827
    1DIPC   D2B 5554   3.809   2.403   5.359 -0.1825 -0.1786 -0.0900
    1DIPC   D3B 5555   4.195   2.602   5.607 -0.1967  0.2906  0.2053
    1DIPC   C4B 5556   4.498   2.800   5.394  0.2985  0.0535  0.1487
    1DIPC   NC3 5557  25.692   0.578   7.376 -0.0007 -0.1795 -0.0442
    1DIPC   PO4 5558  25.897   0.583   6.968  0.0630  0.1060  0.0390
    1DIPC   GL1 5559  26.002   0.358   6.738  0.4742  0.0999  0.1618
    1DIPC   GL2 5560  25.869   0.018   6.631 -0.2483 -0.2231 -0.1788
    1DIPC   C1A 5561  26.327   0.364   6.430 -0.1764  0.0988  0.0512
    1DIPC   D2A 5562  26.650   0.371   6.059  0.2941 -0.0547 -0.1515
    1DIPC   D3A 5563  26.842   0.035   5.845  0.3228 -0.1059  0.1848
    1DIPC   C4A 5564  27.133  -0.281   6.078 -0.0096  0.1277  0.2511
    1DIPC   C1B 5565  25.867   0.134   6.251 -0.0537  0.0721  0.0505
    1DIPC   D2B 5566  25.873   0.315   5.824  0.2561  0.2611 -0.2154
    1DIPC   D3B 5567  25.770  -0.121   5.861  0.0901  0.1506 -0.4003
    1DIPC   C4B 5568  25.424  -0.401   5.663 -0.3825 -0.0907  0.0214
    1DIPC   NC3 5569  21.658  24.965   6.459 -0.0564  0.1711 -0.1357
    1DIPC   PO4 5570  21.429  24.731   6.096 -0.0043  0.1372  0.4960
    1DIPC   GL1 5571  21.464  24.959   5.828 -0.0336 -0.0385 -0.1869
    1DIPC   GL2 5572  21.298  24.921   5.563 -0.0860 -0.2612  0.0366
    1DIPC   C1A 5573  21.744  25.131   5.523 -0.1734 -0.1570 -0.0284
    1DIPC   D2A 5574  21.795  25.315   5.061  0.0778  0.3945  0.1611
    1DIPC   D3A 5575  21.502  25.381   4.746  0.1100  0.0993  0.0209
    1DIPC   C4A 5576  21.192  25.515   4.935 -0.1296 -0.2168 -0.0630
    1DIPC   C1B 5577  21.407  25.003   5.103 -0.1476  0.1080 -0.2961
    1DIPC   D2B 5578  21.376  24.770   4.803  0.0887  0.1901  0.1129
    1DIPC   D3B 5579  21.040  25.106   4.769  0.0248  0.1159  0.0034
    1DIPC   C4B 5580  21.123  25.461   4.441 -0.2041  0.0129 -0.1036
    1DIPC   NC3 5581  21.758  26.162   6.894 -0.1723 -0.1560  0.3541
    1DIPC   PO4 5582  21.416  25.844   6.881  0.0811 -0.0336 -0.2823
    1DIPC   GL1 5583  21.303  25.973   6.516  0.0441  0.1786  0.2324
    1DIPC   GL2 5584  21.562  26.261   6.416 -0.0763 -0.0384 -0.1643
    1DIPC   C1A 5585  21.326  25.947   6.074 -0.3360 -0.1881  0.0998
    1DIPC   D2A 5586  21.230  26.224   5.693  0.0166  0.2189 -0.0545
    1DIPC   D3A 5587  20.762  26.139   5.618  0.2180 -0.2013  0.0943
    1DIPC   C4A 5588  20.578  26.488   5.453 -0.0572 -0.2501 -0.0195
    1DIPC   C1B 5589  21.537  26.441   6.031  0.1306 -0.0379  0.2130
    1DIPC   D2B 5590  21.707  26.325   5.633 -0.0356 -0.2083 -0.1589
    1DIPC   D3B 5591  21.577  26.526   5.330 -0.2503  0.0250  0.3164
    1DIPC   C4B 5592  21.058  26.590   5.385  0.0587  0.5341  0.1469
    1DIPC   NC3 5593  15.916   5.870   6.918 -0.0197 -0.1878 -0.3321
    1DIPC   PO4 5594  15.516   6.065   7.019  0.0357 -0.0871 -0.1373
    1DIPC   GL1 5595  15.504   6.151   6.580 -0.0234 -0.1044 -0.2025
    1DIPC   GL2 5596  15.436   6.189   6.319  0.2387  0.1200  0.0531
    1DIPC   C1A 5597  15.955   6.157   6.315 -0.1431  0.2108 -0.2836
    1DIPC   D2A 5598  16.083   6.176   5.901  0.0906 -0.0465  0.0762
    1DIPC   D3A 5599  15.882   5.784   5.873 -0.3905 -0.0139 -0.2075
    1DIPC   C4A 5600  16.160   5.548   5.630 -0.1735  0.0904  0.1053
    1DIPC   C1B 5601  15.563   6.273   5.950 -0.0791 -0.3769 -0.1915
    1DIPC   D2B 5602  15.728   6.367   5.576  0.4186  0.0262  0.1993
    1DIPC   D3B 5603  15.740   6.105   5.181 -0.2043 -0.0205 -0.1395
    1DIPC   C4B 5604  15.308   6.060   4.977  0.0511  0.1177  0.2106
    1DIPC   NC3 5605  21.146  26.266   7.126  0.2405 -0.1327 -0.0238
    1DIPC   PO4 5606  21.528  26.497   7.278  0.0753 -0.2239 -0.0545
    1DIPC   GL1 5607  21.485  26.592   6.852  0.1998 -0.2966 -0.0906
    1DIPC   GL2 5608  21.134  26.485   6.642  0.0106  0.2221 -0.1265
    1DIPC   C1A 5609  21.798  26.743   6.600 -0.2135 -0.1439 -0.1196
    1DIPC   D2A 5610  21.778  26.834   6.187 -0.1972 -0.0575  0.2698
    1DIPC   D3A 5611  21.641  27.132   5.919  0.2302  0.0126  0.2492
    1DIPC   C4A 5612  21.886  27.253   5.532  0.1791 -0.0333 -0.0922
    1DIPC   C1B 5613  21.090  26.363   6.222  0.1748  0.0693 -0.3065
    1DIPC   D2B 5614  20.851  25.982   6.058  0.0868 -0.0349 -0.0435
    1DIPC   D3B 5615  20.538  25.704   5.898 -0.3997 -0.1833  0.0863
    1DIPC   C4B 5616  20.415  25.296   6.061  0.1162 -0.1538  0.0003
    1DIPC   NC3 5617  25.669   4.993   6.560  0.0802  0.0875 -0.3469
    1DIPC   PO4 5618  25.887   4.580   6.540  0.3351 -0.0271  0.2746
    1DIPC   GL1 5619  25.744   4.579   6.161  0.0046  0.0661 -0.0584
    1DIPC   GL2 5620  25.513   4.377   6.095  0.0215  0.0925 -0.1453
    1DIPC   C1A 5621  25.979   4.428   5.820 -0.3397 -0.2052  0.0508
    1DIPC   D2A 5622  26.225   4.246   5.492 -0.0111 -0.0592 -0.0469
    1DIPC   D3A 5623  25.847   4.436   5.301  0.0260 -0.0089  0.2235
    1DIPC   C4A 5624  25.748   4.159   4.907  0.1855  0.0025  0.0526
    1DIPC   C1B 5625  25.527   4.252   5.693  0.0045  0.2106  0.1047
    1DIPC   D2B 5626  25.363   4.141   5.313 -0.1252 -0.0881 -0.0737
    1DIPC   D3B 5627  25.063   3.866   5.269  0.3411 -0.2327 -0.2433
    1DIPC   C4B 5628  24.784   4.169   5.345 -0.0477 -0.2502  0.1821
    1DIPC   NC3 5629   4.983   7.031   7.514 -0.0519 -0.0183  0.0618
    1DIPC   PO4 5630   4.884   6.779   7.043  0.1894 -0.0758  0.2903
    1DIPC   GL1 5631   5.112   6.663   6.716 -0.2921  0.2519  0.0572
    1DIPC   GL2 5632   5.255   6.393   6.873  0.2031  0.3078  0.0462
    1DIPC   C1A 5633   4.883   6.492   6.390 -0.3811  0.1921  0.0322
    1DIPC   D2A 5634   4.637   6.274   6.053 -0.0908  0.1235 -0.0216
    1DIPC   D3A 5635   5.098   6.024   6.239 -0.0695 -0.4011  0.1376
    1DIPC   C4A 5636   5.210   5.860   5.995  0.0467 -0.2118  0.2787
    1DIPC   C1B 5637   5.381   6.401   6.331  0.0122  0.0032  0.1638
    1DIPC   D2B 5638   5.565   6.504   5.840  0.0171 -0.1064 -0.3019
    1DIPC   D3B 5639   6.026   6.307   5.810  0.0760 -0.2425  0.1877
    1DIPC   C4B 5640   6.094   5.911   5.799 -0.1688  0.0086 -0.2759
    1DIPC   NC3 5641  17.740  19.990   6.201  0.1696 -0.0872 -0.5200
    1DIPC   PO4 5642  17.268  19.836   6.341 -0.1665 -0.1613  0.1587
    1DIPC   GL1 5643  17.173  20.073   6.021 -0.1275 -0.0016  0.1304
    1DIPC   GL2 5644  16.855  20.192   5.954  0.0863 -0.1239  0.1480
    1DIPC   C1A 5645  17.286  20.184   5.671  0.1589 -0.1928 -0.3111
    1DIPC   D2A 5646  17.523  19.865   5.369 -0.1070  0.4460  0.2007
    1DIPC   D3A 5647  17.943  19.846   5.414  0.0949 -0.0817 -0.1855
    1DIPC   C4A 5648  18.116  19.914   5.061 -0.1486  0.1023  0.0677
    1DIPC   C1B 5649  16.950  19.805   5.652 -0.0432  0.3694 -0.0729
    1DIPC   D2B 5650  17.179  19.700   5.151  0.0878 -0.1143  0.3109
    1DIPC   D3B 5651  16.947  19.230   5.001  0.3181  0.1263  0.1848
    1DIPC   C4B 5652  16.532  19.130   4.899 -0.0391  0.0944  0.0524
    1DIPC   NC3 5653  14.961  13.235   6.470 -0.1270 -0.1003  0.0524
    1DIPC   PO4 5654  14.484  13.138   6.662 -0.1461 -0.2111 -0.2150
    1DIPC   GL1 5655  14.520  12.976   6.321  0.2761  0.3645 -0.2944
    1DIPC   GL2 5656  14.343  12.687   6.345  0.2462 -0.1148  0.1207
    1DIPC   C1A 5657  14.319  13.048   5.869 -0.0868  0.1721 -0.1932
    1DIPC   D2A 5658  14.427  13.065   5.443 -0.2347 -0.0553  0.0556
    1DIPC   D3A 5659  14.048  13.321   5.246 -0.0356 -0.0016  0.1988
    1DIPC   C4A 5660  14.050  13.464   4.803 -0.1490  0.1230 -0.2779
    1DIPC   C1B 5661  14.425  12.575   5.980  0.0076 -0.0899  0.1241
    1DIPC   D2B 5662  14.434  12.461   5.489 -0.1474  0.0284  0.1889
    1DIPC   D3B 5663  14.192  12.214   5.154 -0.0196  0.2516 -0.1851
    1DIPC   C4B 5664  14.366  11.796   4.989 -0.1715  0.1172 -0.2957
    1DIPC   NC3 5665   2.017   6.526   6.475  0.0712  0.5025  0.3934
    1DIPC   PO4 5666   1.808   6.243   6.270  0.2086 -0.0452  0.2953
    1DIPC   GL1 5667   2.181   6.224   5.937 -0.1527  0.0230 -0.0358
    1DIPC   GL2 5668   2.262   6.604   5.855 -0.0606  0.2154  0.0048
    1DIPC   C1A 5669   2.303   6.238   5.486  0.1270 -0.1414  0.0003
    1DIPC   D2A 5670   2.262   6.423   4.987  0.4285 -0.0803 -0.0388
    1DIPC   D3A 5671   2.368   6.319   4.603  0.1536  0.2029 -0.2172
    1DIPC   C4A 5672   2.308   5.902   4.535  0.1072 -0.4022 -0.0995
    1DIPC   C1B 5673   2.223   6.760   5.454 -0.1861  0.4398  0.2064
    1DIPC   D2B 5674   1.995   6.864   5.135  0.3698 -0.1280 -0.1850
    1DIPC   D3B 5675   2.292   6.867   4.778 -0.2320  0.2468  0.1798
    1DIPC   C4B 5676   2.156   7.068   4.358  0.2767  0.1227  0.1568
    1DIPC   NC3 5677  18.791   6.266   7.261  0.0442  0.1040  0.1520
    1DIPC   PO4 5678  19.028   6.595   7.173 -0.0112  0.2155  0.0567
    1DIPC   GL1 5679  19.089   6.743   6.687  0.1975 -0.0585 -0.0264
    1DIPC   GL2 5680  18.959   7.091   6.608  0.0003  0.2919 -0.0502
    1DIPC   C1A 5681  19.018   6.518   6.226 -0.1048 -0.0360 -0.3320
    1DIPC   D2A 5682  18.930   6.146   5.892  0.0446  0.1882 -0.1063
    1DIPC   D3A 5683  19.292   6.118   5.539 -0.0316 -0.2603 -0.1352
    1DIPC   C4A 5684  19.120   6.009   5.206  0.1091  0.2949  0.2020
    1DIPC   C1B 5685  19.030   7.102   6.147 -0.1640 -0.0620 -0.1590
    1DIPC   D2B 5686  19.431   7.003   5.954  0.3184  0.1656 -0.4038
    1DIPC   D3B 5687  19.488   6.789   5.513  0.0677  0.1325  0.0540
    1DIPC   C4B 5688  19.729   6.356   5.556  0.1464 -0.2080 -0.0867
    1DIPC   NC3 5689  21.494  11.025   6.328 -0.1426 -0.3592 -0.0563
    1DIPC   PO4 5690  21.344  11.035   5.907  0.1858  0.1380 -0.2837
    1DIPC   GL1 5691  20.890  11.027   5.753 -0.1413 -0.3170  0.3260
    1DIPC   GL2 5692  20.767  11.327   5.577  0.2946 -0.2329 -0.2305
    1DIPC   C1A 5693  20.524  10.801   5.540 -0.1784  0.0808 -0.1741
    1DIPC   D2A 5694  20.257  10.467   5.237  0.0278  0.1703 -0.2235
    1DIPC   D3A 5695  20.568  10.730   5.027  0.3341 -0.0582 -0.3040
    1DIPC   C4A 5696  20.869  11.015   5.203 -0.0230 -0.0896  0.3037
    1DIPC   C1B 5697  20.455  11.323   5.282 -0.3022  0.1155  0.0989
    1DIPC   D2B 5698  20.343  11.424   4.831  0.3270  0.0181  0.1649
    1DIPC   D3B 5699  20.274  11.029   4.710  0.3079  0.0551  0.2042
    1DIPC   C4B 5700  19.861  10.820   4.481  0.3032  0.0971  0.0416
    1DIPC   NC3 5701  22.897   7.414   6.804  0.0292  0.2063  0.4208
    1DIPC   PO4 5702  22.578   7.748   6.827 -0.0359 -0.1361 -0.2427
    1DIPC   GL1 5703  22.765   7.798   6.433 -0.0345  0.1753  0.3588
    1DIPC   GL2 5704  23.061   7.644   6.389 -0.0834  0.2163 -0.3119
    1DIPC   C1A 5705  22.666   7.776   5.998 -0.0910 -0.0122 -0.0174
    1DIPC   D2A 5706  22.750   7.595   5.595 -0.2122  0.2882 -0.2579
    1DIPC   D3A 5707  22.415   7.786   5.505 -0.2427  0.1043 -0.2291
    1DIPC   C4A 5708  22.272   8.074   5.909 -0.0082 -0.2692  0.2010
    1DIPC   C1B 5709  23.134   7.600   5.983 -0.2062 -0.1161  0.1278
    1DIPC   D2B 5710  23.232   7.410   5.704 -0.1815  0.0889  0.1781
    1DIPC   D3B 5711  23.127   7.477   5.235  0.0169 -0.1062  0.0445
    1DIPC   C4B 5712  22.897   7.299   4.902 -0.0243 -0.0957 -0.2814
    1DIPC   NC3 5713  14.704  21.471   6.532 -0.1102  0.2863 -0.0632
    1DIPC   PO4 5714  14.452  21.177   6.284  0.1851 -0.2079 -0.0474
    1DIPC   GL1 5715  14.690  21.224   5.973 -0.1485 -0.1016  0.3552
    1DIPC   GL2 5716  14.930  21.090   6.092  0.4099 -0.0577 -0.0662
    1DIPC   C1A 5717  14.790  20.992   5.690 -0.0192  0.1717  0.4514
    1DIPC   D2A 5718  15.002  20.870   5.389 -0.0974 -0.0129 -0.2753
    1DIPC   D3A 5719  14.786  20.937   5.014 -0.0578 -0.1499 -0.1767
    1DIPC   C4A 5720  14.705  20.577   4.699 -0.4128 -0.1623  0.1999
    1DIPC   C1B 5721  15.273  21.289   5.867 -0.2658 -0.2893  0.0171
    1DIPC   D2B 5722  15.699  21.279   5.913  0.1902  0.1598  0.0172
    1DIPC   D3B 5723  16.036  21.414   5.531 -0.1925  0.4061 -0.3226
    1DIPC   C4B 5724  15.770  21.359   5.159 -0.0150 -0.1145 -0.0603
    1DIPC   NC3 5725  26.183   5.479   6.559 -0.3034 -0.1521 -0.0633
    1DIPC   PO4 5726  25.775   5.464   6.518  0.1815  0.0420  0.0711
    1DIPC   GL1 5727  25.875   5.429   6.135 -0.1884  0.0814  0.0322
    1DIPC   GL2 5728  25.866   5.050   6.081 -0.0454 -0.2704 -0.1967
    1DIPC   C1A 5729  25.791   5.669   5.772 -0.2009 -0.3059 -0.1355
    1DIPC   D2A 5730  25.829   5.625   5.346  0.0629 -0.0757 -0.2600
    1DIPC   D3A 5731  25.760   5.274   5.132 -0.1428 -0.0894 -0.2594
    1DIPC   C4A 5732  26.059   5.138   4.823  0.1378 -0.3365  0.3424
    1DIPC   C1B 5733  26.273   4.778   6.142 -0.2891  0.1732  0.1203
    1DIPC   D2B 5734  26.647   4.726   5.916 -0.1782 -0.2512 -0.2370
    1DIPC   D3B 5735  26.290   4.740   5.568 -0.3600 -0.3217 -0.0957
    1DIPC   C4B 5736  26.079   4.879   5.256  0.1046 -0.0947 -0.4107
    1DIPC   NC3 5737  17.713  14.567   6.287  0.1947 -0.0104 -0.2555
    1DIPC   PO4 5738  18.003  14.597   5.877  0.3878  0.1850  0.0236
    1DIPC   GL1 5739  18.080  14.546   5.427  0.1304 -0.1794 -0.0801
    1DIPC   GL2 5740  18.388  14.670   5.483 -0.0309  0.2790  0.3127
    1DIPC   C1A 5741  17.895  14.469   5.011  0.3087  0.1244  0.2137
    1DIPC   D2A 5742  17.908  14.571   4.553  0.1393  0.2424  0.1476
    1DIPC   D3A 5743  17.500  14.809   4.357  0.0469 -0.0124 -0.2210
    1DIPC   C4A 5744  17.226  14.812   4.602  0.1165 -0.0115  0.1334
    1DIPC   C1B 5745  18.448  14.475   5.046  0.1294  0.0484  0.0413
    1DIPC   D2B 5746  18.447  14.399   4.686  0.1574 -0.0371 -0.0372
    1DIPC   D3B 5747  18.707  14.477   4.329 -0.3791  0.0329  0.0070
    1DIPC   C4B 5748  19.173  14.261   4.238 -0.3243 -0.3150 -0.0629
    1DIPC   NC3 5749  20.413   2.499   6.902  0.1840  0.1547  0.3830
    1DIPC   PO4 5750  20.640   2.177   7.101 -0.0511  0.0680 -0.1695
    1DIPC   GL1 5751  20.996   2.270   6.833 -0.1210 -0.0522 -0.1304
    1DIPC   GL2 5752  20.922   2.576   6.799  0.2199  0.3138 -0.1901
    1DIPC   C1A 5753  21.379   2.440   6.660  0.3032 -0.1215 -0.1063
    1DIPC   D2A 5754  21.625   2.522   6.282  0.2980 -0.0962  0.1571
    1DIPC   D3A 5755  21.703   2.372   5.934  0.3115 -0.3026  0.2688
    1DIPC   C4A 5756  21.407   2.159   5.736  0.4956  0.0816  0.1300
    1DIPC   C1B 5757  20.748   3.005   6.598  0.2954 -0.0186 -0.1319
    1DIPC   D2B 5758  20.689   3.318   6.299 -0.1768  0.1180 -0.1063
    1DIPC   D3B 5759  20.401   3.389   6.670  0.0078 -0.1416 -0.2418
    1DIPC   C4B 5760  20.009   3.513   6.643  0.0043  0.3226  0.2239
    1DIPC   NC3 5761   2.797   6.073   6.668 -0.1812  0.0461  0.0343
    1DIPC   PO4 5762   2.738   6.245   6.244 -0.2377 -0.0229 -0.2458
    1DIPC   GL1 5763   2.720   6.265   5.803  0.2232  0.0546 -0.1402
    1DIPC   GL2 5764   2.619   5.879   5.888 -0.0965  0.1220 -0.0108
    1DIPC   C1A 5765   2.785   6.171   5.266 -0.1728 -0.2475 -0.3154
    1DIPC   D2A 5766   2.963   6.345   4.890  0.1907 -0.1291 -0.0385
    1DIPC   D3A 5767   3.474   6.373   4.915 -0.0560  0.1803  0.2748
    1DIPC   C4A 5768   3.800   6.227   4.628  0.2475 -0.3341  0.1142
    1DIPC   C1B 5769   2.220   5.755   5.678 -0.1465 -0.2273  0.0214
    1DIPC   D2B 5770   1.764   5.755   5.884 -0.1032  0.0700  0.2601
    1DIPC   D3B 5771   1.771   6.192   5.678  0.2753 -0.2250 -0.2787
    1DIPC   C4B 5772   1.869   6.368   5.299 -0.0389 -0.0672  0.2417
    1DIPC   NC3 5773  23.235   0.012   7.370 -0.0952  0.3670 -0.1265
    1DIPC   PO4 5774  23.195   0.354   7.126 -0.2653  0.3651 -0.0090
    1DIPC   GL1 5775  23.130   0.635   6.677 -0.1394  0.1996  0.1276
    1DIPC   GL2 5776  22.918   0.927   6.558 -0.0763 -0.3884  0.2410
    1DIPC   C1A 5777  23.267   0.688   6.191  0.0981 -0.0559  0.0170
    1DIPC   D2A 5778  23.082   0.438   5.797 -0.1627 -0.0426 -0.0731
    1DIPC   D3A 5779  23.429   0.203   5.761  0.2796  0.5047  0.0476
    1DIPC   C4A 5780  23.782   0.097   5.468 -0.1519 -0.1959  0.1521
    1DIPC   C1B 5781  22.734   1.242   6.334  0.0184  0.0089  0.1128
    1DIPC   D2B 5782  22.533   1.253   6.014 -0.0730 -0.1730 -0.0655
    1DIPC   D3B 5783  22.247   1.243   5.618 -0.0626  0.0115  0.2562
    1DIPC   C4B 5784  22.374   1.001   5.307 -0.0370 -0.1929 -0.0238
    1DIPC   NC3 5785   9.544   2.925   7.731  0.0204 -0.1065 -0.0466
    1DIPC   PO4 5786   9.230   2.770   7.504 -0.1031 -0.0456 -0.0830
    1DIPC   GL1 5787   9.367   2.647   7.084  0.1466 -0.1522 -0.1384
    1DIPC   GL2 5788   9.504   2.873   7.030  0.1565  0.0925  0.1723
    1DIPC   C1A 5789   9.452   2.509   6.625 -0.2904  0.2877 -0.1949
    1DIPC   D2A 5790   9.270   2.287   6.358  0.1871  0.0572 -0.1764
    1DIPC   D3A 5791   8.940   2.454   6.506 -0.2540  0.1096 -0.0851
    1DIPC   C4A 5792   8.643   2.767   6.452 -0.1755  0.1307 -0.0132
    1DIPC   C1B 5793   9.187   2.914   6.676  0.2203 -0.0316 -0.0716
    1DIPC   D2B 5794   9.153   2.864   6.231 -0.2783 -0.1274 -0.1290
    1DIPC   D3B 5795   8.893   2.907   5.826 -0.0958 -0.1501  0.2776
    1DIPC   C4B 5796   8.835   3.162   5.458  0.2340  0.5027 -0.1186
    1DIPC   NC3 5797  17.287  16.483   6.480 -0.1025  0.0523 -0.4531
    1DIPC   PO4 5798  16.773  16.323   6.385  0.2301 -0.3064  0.2906
    1DIPC   GL1 5799  16.770  16.457   5.988  0.2053 -0.1546  0.0539
    1DIPC   GL2 5800  16.977  16.686   6.059  0.0786  0.0493 -0.2263
    1DIPC   C1A 5801  16.940  16.368   5.622 -0.0570  0.0197 -0.0307
    1DIPC   D2A 5802  17.100  16.471   5.243 -0.1091  0.2338  0.1098
    1DIPC   D3A 5803  16.763  16.528   4.877 -0.1635  0.4029 -0.0457
    1DIPC   C4A 5804  16.454  16.192   4.630 -0.1480 -0.2356  0.0361
    1DIPC   C1B 5805  17.219  16.768   5.721 -0.0564 -0.3631  0.0240
    1DIPC   D2B 5806  17.535  16.554   5.469 -0.2582 -0.0553  0.3628
    1DIPC   D3B 5807  17.641  16.730   5.228  0.2992 -0.1417  0.0515
    1DIPC   C4B 5808  17.822  16.938   4.978  0.4781 -0.0268 -0.0840
    1DIPC   NC3 5809   7.032   3.047   7.581  0.0373  0.2567  0.1612
    1DIPC   PO4 5810   7.187   3.446   7.214 -0.0333  0.2543  0.2732
    1DIPC   GL1 5811   7.005   3.448   6.837  0.2600  0.2024  0.0948
    1DIPC   GL2 5812   7.102   3.815   6.590  0.1151  0.2261 -0.0609
    1DIPC   C1A 5813   6.956   3.296   6.490 -0.0325  0.0114  0.0710
    1DIPC   D2A 5814   7.039   3.312   6.100 -0.2181 -0.0846  0.0079
    1DIPC   D3A 5815   6.706   3.030   6.021 -0.0132  0.2418 -0.1290
    1DIPC   C4A 5816   6.703   2.628   6.223 -0.2795 -0.0643 -0.1738
    1DIPC   C1B 5817   7.388   3.494   6.422 -0.3211 -0.2693  0.4072
    1DIPC   D2B 5818   7.855   3.581   6.450 -0.1008 -0.2868  0.1965
    1DIPC   D3B 5819   7.754   3.491   6.061  0.1761 -0.2982  0.0940
    1DIPC   C4B 5820   7.990   3.466   5.706  0.3244  0.2193 -0.0568
    1DIPC   NC3 5821   9.873   8.705   6.441  0.0256 -0.2748  0.0441
    1DIPC   PO4 5822   9.936   9.092   6.646  0.0673  0.0518 -0.1294
    1DIPC   GL1 5823   9.875   9.062   6.128 -0.1236  0.2341  0.0871
    1DIPC   GL2 5824   9.954   9.185   5.815  0.1105  0.0319  0.0408
    1DIPC   C1A 5825   9.589   8.911   5.879 -0.1036  0.1226 -0.0639
    1DIPC   D2A 5826   9.191   8.841   5.883 -0.2990 -0.2697  0.3234
    1DIPC   D3A 5827   9.107   8.901   5.582  0.2225 -0.0067  0.1477
    1DIPC   C4A 5828   9.212   8.529   5.434  0.0700  0.1808  0.3683
    1DIPC   C1B 5829  10.055   9.501   5.358  0.4547  0.0519  0.2418
    1DIPC   D2B 5830  10.225   9.738   4.977  0.1558 -0.1847  0.1006
    1DIPC   D3B 5831  10.255   9.384   4.709 -0.0127  0.1043 -0.2464
    1DIPC   C4B 5832  10.105   9.064   5.050  0.0861  0.2521 -0.0019
    1DIPC   NC3 5833  18.191  15.432   6.155 -0.1341 -0.2518 -0.0295
    1DIPC   PO4 5834  18.524  15.108   5.978  0.0324 -0.0047  0.1851
    1DIPC   GL1 5835  18.889  15.294   5.779  0.0138  0.3176 -0.0495
    1DIPC   GL2 5836  18.869  15.564   5.868 -0.0682 -0.3242 -0.0706
    1DIPC   C1A 5837  19.180  15.347   5.382  0.1570 -0.1076  0.1218
    1DIPC   D2A 5838  19.338  15.474   4.979  0.2354 -0.1807  0.2150
    1DIPC   D3A 5839  19.240  15.048   4.809 -0.0201 -0.0691 -0.0401
    1DIPC   C4A 5840  18.910  15.200   4.519  0.0536  0.0294 -0.2358
    1DIPC   C1B 5841  18.779  15.807   5.470  0.1492 -0.0775 -0.1262
    1DIPC   D2B 5842  18.780  15.882   5.055 -0.1109  0.2301  0.0953
    1DIPC   D3B 5843  18.645  15.574   4.810  0.2447 -0.1714  0.2317
    1DIPC   C4B 5844  18.167  15.483   4.694 -0.1844  0.0418 -0.0232
    1DIPC   NC3 5845   3.718   0.963   6.419 -0.0417  0.0941 -0.1116
    1DIPC   PO4 5846   4.034   0.677   6.513  0.0285  0.0841  0.0742
    1DIPC   GL1 5847   3.910   0.687   6.037 -0.1109 -0.0769  0.1856
    1DIPC   GL2 5848   4.162   0.653   5.828  0.3772 -0.1431 -0.0463
    1DIPC   C1A 5849   3.856   0.994   5.678  0.0310  0.0758  0.3876
    1DIPC   D2A 5850   3.968   0.923   5.213  0.1528  0.3942  0.0863
    1DIPC   D3A 5851   3.997   1.121   4.874 -0.0901 -0.0541 -0.0673
    1DIPC   C4A 5852   3.695   1.504   4.904 -0.0250  0.1087 -0.4786
    1DIPC   C1B 5853   4.194   0.597   5.405 -0.0510 -0.1087 -0.3664
    1DIPC   D2B 5854   4.321   0.696   4.959  0.2334  0.1359  0.0426
    1DIPC   D3B 5855   4.625   0.405   4.753 -0.0066  0.1075  0.1810
    1DIPC   C4B 5856   4.977   0.630   4.649  0.1352  0.1649  0.4911
    1DIPC   NC3 5857   1.578  25.212   7.026 -0.0053  0.3330 -0.2482
    1DIPC   PO4 5858   1.554  24.975   6.680  0.0211 -0.1735 -0.1666
    1DIPC   GL1 5859   1.649  25.254   6.327  0.0278  0.5298 -0.1294
    1DIPC   GL2 5860   1.919  25.537   6.415  0.0319 -0.1511 -0.2022
    1DIPC   C1A 5861   1.306  25.314   6.011  0.2497  0.0493  0.0766
    1DIPC   D2A 5862   1.113  25.246   5.689 -0.0314 -0.1706 -0.0503
    1DIPC   D3A 5863   1.304  25.284   5.326  0.2654  0.0411 -0.0904
    1DIPC   C4A 5864   1.642  25.076   5.256  0.4421  0.0013  0.1650
    1DIPC   C1B 5865   2.088  25.380   6.091 -0.0216 -0.0188 -0.1909
    1DIPC   D2B 5866   2.331  25.420   5.702  0.1114 -0.1716 -0.1885
    1DIPC   D3B 5867   2.080  25.011   5.543  0.0589 -0.0775 -0.0652
    1DIPC   C4B 5868   1.765  24.902   5.705  0.2195  0.3413  0.1960
    1DIPC   NC3 5869  14.142  28.798   6.978 -0.1527  0.1247 -0.1573
    1DIPC   PO4 5870  13.786  29.035   6.820  0.0745  0.0836  0.2252
    1DIPC   GL1 5871  13.601  29.193   6.441 -0.0122 -0.1313  0.0039
    1DIPC   GL2 5872  13.454  28.879   6.303 -0.3046  0.1585  0.0470
    1DIPC   C1A 5873  13.551  29.321   5.996  0.0356  0.1561 -0.1018
    1DIPC   D2A 5874  13.394  29.052   5.610 -0.1490  0.0011  0.0032
    1DIPC   D3A 5875  13.558  29.489   5.468  0.3306  0.0182 -0.3585
    1DIPC   C4A 5876  13.195  29.756   5.252  0.0151 -0.2608 -0.2394
    1DIPC   C1B 5877  13.109  29.204   6.361 -0.3163  0.0270 -0.1093
    1DIPC   D2B 5878  12.707  29.364   6.357 -0.2949  0.0824  0.1820
    1DIPC   D3B 5879  12.456  29.202   5.961  0.1795  0.4802  0.0594
    1DIPC   C4B 5880  12.021  29.205   6.048  0.3313 -0.0189 -0.2668
    1DIPC   NC3 5881  21.593  12.346   5.953 -0.0848  0.1923  0.1492
    1DIPC   PO4 5882  21.820  12.086   5.801  0.1344  0.0718 -0.1337
    1DIPC   GL1 5883  21.668  12.100   5.462  0.1143 -0.0398  0.3631
    1DIPC   GL2 5884  21.913  12.192   5.231  0.4514 -0.1122 -0.1975
    1DIPC   C1A 5885  21.437  11.754   5.170 -0.2581  0.4703 -0.3265
    1DIPC   D2A 5886  21.207  11.307   5.052  0.1592 -0.0205  0.1506
    1DIPC   D3A 5887  21.163  11.472   4.578  0.1360 -0.0785  0.0582
    1DIPC   C4A 5888  20.988  11.182   4.256  0.1063 -0.1786  0.0140
    1DIPC   C1B 5889  22.150  12.144   4.849 -0.1326 -0.0138  0.2787
    1DIPC   D2B 5890  22.101  11.797   4.388  0.0848  0.0801  0.0672
    1DIPC   D3B 5891  22.357  11.793   4.108  0.1066  0.1484  0.1227
    1DIPC   C4B 5892  22.209  11.718   3.644 -0.2750 -0.1799 -0.2168
    1DIPC   NC3 5893  24.580  22.254   5.509  0.1637  0.0906 -0.3632
    1DIPC   PO4 5894  24.935  21.894   5.390  0.1436 -0.2360 -0.0347
    1DIPC   GL1 5895  24.933  22.120   5.034 -0.4011  0.2530 -0.1733
    1DIPC   GL2 5896  25.233  21.889   4.920  0.1394 -0.1721  0.0836
    1DIPC   C1A 5897  24.769  22.072   4.591  0.0625  0.0314  0.1118
    1DIPC   D2A 5898  25.051  22.025   4.138 -0.2118  0.0592  0.0256
    1DIPC   D3A 5899  25.007  22.397   3.775  0.1161 -0.4411 -0.2805
    1DIPC   C4A 5900  24.775  22.715   3.913 -0.1741  0.3141  0.4262
    1DIPC   C1B 5901  25.337  22.136   4.607 -0.1887 -0.3564  0.4328
    1DIPC   D2B 5902  25.631  22.225   4.310 -0.2463 -0.0219  0.0179
    1DIPC   D3B 5903  25.401  22.587   4.271  0.1531  0.3622 -0.0107
    1DIPC   C4B 5904  24.951  22.501   4.328 -0.0444  0.0358 -0.0393
    1DIPC   NC3 5905  13.534   7.021   6.811 -0.5109 -0.1915 -0.2392
    1DIPC   PO4 5906  13.132   6.900   6.709 -0.2553  0.0348 -0.1239
    1DIPC   GL1 5907  12.867   6.725   6.395 -0.1045 -0.1792  0.1131
    1DIPC   GL2 5908  12.904   6.391   6.380 -0.2687 -0.0421 -0.1854
    1DIPC   C1A 5909  12.835   6.684   5.982 -0.1223 -0.1043  0.1508
    1DIPC   D2A 5910  13.152   6.871   5.728 -0.0556  0.2576 -0.4481
    1DIPC   D3A 5911  13.130   6.855   5.306  0.1744 -0.0030  0.0349
    1DIPC   C4A 5912  12.671   6.996   5.186  0.1425  0.2008 -0.0811
    1DIPC   C1B 5913  13.268   6.532   6.094  0.2823  0.0049  0.0297
    1DIPC   D2B 5914  13.706   6.345   6.026  0.2113  0.0149 -0.3804
    1DIPC   D3B 5915  13.434   6.142   5.678  0.0193 -0.1732  0.0476
    1DIPC   C4B 5916  13.200   5.826   5.935  0.0830 -0.2722  0.0547
    1DIPC   NC3 5917  23.900   4.951   7.394 -0.0917  0.2154 -0.0467
    1DIPC   PO4 5918  23.512   5.131   7.445  0.0855 -0.3446 -0.0314
    1DIPC   GL1 5919  23.506   5.230   7.026 -0.2295  0.0617 -0.2533
    1DIPC   GL2 5920  23.253   5.358   6.721 -0.0537  0.2305 -0.0684
    1DIPC   C1A 5921  23.798   5.258   6.674  0.1691  0.0497 -0.4055
    1DIPC   D2A 5922  23.968   5.541   6.354  0.1387 -0.0853 -0.1845
    1DIPC   D3A 5923  24.155   5.625   6.803 -0.2002  0.3707 -0.0795
    1DIPC   C4A 5924  23.760   5.664   6.976  0.0948 -0.2399 -0.1642
    1DIPC   C1B 5925  23.212   5.382   6.318  0.2136 -0.3246  0.2841
    1DIPC   D2B 5926  22.950   5.177   5.968 -0.2114  0.2002 -0.1056
    1DIPC   D3B 5927  23.323   5.214   5.683 -0.0907  0.2496 -0.4361
    1DIPC   C4B 5928  23.363   5.436   5.272  0.1129 -0.3149 -0.3103
    1DIPC   NC3 5929  10.654   2.472   6.940 -0.0828 -0.0777 -0.2742
    1DIPC   PO4 5930  10.643   2.792   7.276  0.2188  0.1209  0.1237
    1DIPC   GL1 5931  10.352   2.903   6.873  0.0879  0.3604  0.0263
    1DIPC   GL2 5932  10.023   3.105   6.818 -0.2840  0.3915  0.2051
    1DIPC   C1A 5933  10.291   2.879   6.487 -0.0764  0.0966  0.1687
    1DIPC   D2A 5934  10.043   3.250   6.281  0.0498 -0.1547  0.3446
    1DIPC   D3A 5935  10.123   3.141   5.922  0.0275  0.1799  0.1043
    1DIPC   C4A 5936   9.811   2.828   5.713 -0.0571  0.0419 -0.0677
    1DIPC   C1B 5937   9.631   3.055   6.533 -0.2506 -0.0575 -0.2097
    1DIPC   D2B 5938   9.633   3.083   6.087  0.0904 -0.3836  0.2814
    1DIPC   D3B 5939   9.319   3.300   5.947 -0.0991 -0.1283  0.0835
    1DIPC   C4B 5940   9.336   3.716   6.112 -0.0364  0.1382 -0.0577
    1DIPC   NC3 5941  29.277   8.689   6.727  0.0186 -0.2996 -0.0340
    1DIPC   PO4 5942  29.284   8.916   6.283  0.0578 -0.0765  0.0743
    1DIPC   GL1 5943  29.145   8.722   5.904  0.2972 -0.0666 -0.1055
    1DIPC   GL2 5944  28.915   8.466   6.024 -0.0593 -0.0863 -0.1636
    1DIPC   C1A 5945  29.332   8.645   5.550 -0.1215  0.2075  0.0215
    1DIPC   D2A 5946  29.702   8.729   5.246 -0.3008  0.1847 -0.3486
    1DIPC   D3A 5947  29.735   8.562   4.838  0.1922 -0.2650 -0.1687
    1DIPC   C4A 5948  30.146   8.519   4.455  0.1438 -0.0704  0.2176
    1DIPC   C1B 5949  28.924   8.236   5.604 -0.2120 -0.2918  0.0170
    1DIPC   D2B 5950  29.126   8.011   5.214 -0.1455 -0.2976  0.0185
    1DIPC   D3B 5951  29.232   8.365   5.040  0.0998 -0.2761 -0.3106
    1DIPC   C4B 5952  28.965   8.705   4.966  0.1876 -0.0201 -0.0021
    1DIPC   NC3 5953  28.903   0.365   7.437  0.1294 -0.0111 -0.0997
    1DIPC   PO4 5954  29.018   0.734   7.186  0.0547 -0.1867  0.2767
    1DIPC   GL1 5955  29.193   0.686   6.734  0.3331 -0.2405  0.1446
    1DIPC   GL2 5956  29.113   0.462   6.514  0.0268  0.3289  0.0520
    1DIPC   C1A 5957  29.496   0.813   6.413  0.0202 -0.2481 -0.1825
    1DIPC   D2A 5958  29.815   0.677   6.084  0.1595  0.1436  0.2369
    1DIPC   D3A 5959  29.618   0.383   6.319 -0.1235 -0.1464  0.0475
    1DIPC   C4A 5960  29.656   0.441   6.690 -0.5615  0.2376  0.0700
    1DIPC   C1B 5961  28.840   0.489   6.118 -0.0047 -0.0325 -0.1442
    1DIPC   D2B 5962  28.822   0.773   5.736  0.0725 -0.0779 -0.0881
    1DIPC   D3B 5963  28.725   0.414   5.564  0.1226 -0.0274 -0.0342
    1DIPC   C4B 5964  28.365   0.281   5.528  0.0649 -0.2024  0.0546
    1DIPC   NC3 5965   7.397   9.734   6.809  0.0695  0.1955  0.0951
    1DIPC   PO4 5966   7.715   9.926   6.499 -0.4619 -0.0135 -0.2317
    1DIPC   GL1 5967   7.442   9.995   6.229  0.1651  0.1480  0.1149
    1DIPC   GL2 5968   7.346   9.706   6.166 -0.1917 -0.3060 -0.2260
    1DIPC   C1A 5969   7.534   9.904   5.764  0.1146 -0.0686 -0.1382
    1DIPC   D2A 5970   7.632   9.900   5.330 -0.2085  0.0476 -0.0785
    1DIPC   D3A 5971   7.192   9.815   5.427 -0.0107  0.0329  0.0039
    1DIPC   C4A 5972   6.858   9.724   5.082  0.2897  0.0259  0.1378
    1DIPC   C1B 5973   7.165   9.526   5.927 -0.2069 -0.2234  0.1151
    1DIPC   D2B 5974   6.849   9.543   5.674 -0.1387 -0.3142  0.0458
    1DIPC   D3B 5975   6.747   9.980   5.520  0.0221 -0.0395 -0.3552
    1DIPC   C4B 5976   6.577  10.160   5.070 -0.1625 -0.3820 -0.0712
    1DIPC   NC3 5977  11.727  26.361   6.720  0.1027  0.0230  0.2532
    1DIPC   PO4 5978  12.071  26.365   6.304  0.1881 -0.3312 -0.2295
    1DIPC   GL1 5979  11.973  26.299   5.949  0.2015  0.0855  0.1672
    1DIPC   GL2 5980  11.898  26.080   5.690  0.1174 -0.2474  0.0614
    1DIPC   C1A 5981  12.071  26.542   5.634 -0.1066  0.3115 -0.0006
    1DIPC   D2A 5982  12.118  26.854   5.309  0.1256  0.1478 -0.3262
    1DIPC   D3A 5983  12.038  26.795   4.822 -0.0025 -0.4099  0.2317
    1DIPC   C4A 5984  12.186  26.467   4.691 -0.0489  0.4285 -0.0414
    1DIPC   C1B 5985  12.284  26.030   5.681  0.0223  0.1879 -0.1686
    1DIPC   D2B 5986  12.700  26.127   5.612  0.0284  0.1342 -0.0571
    1DIPC   D3B 5987  12.468  26.369   5.301 -0.2047  0.0019 -0.1149
    1DIPC   C4B 5988  12.566  26.187   4.949  0.1033 -0.2890  0.2177
    1DIPC   NC3 5989  13.035   7.890   6.601  0.1771  0.2099  0.1353
    1DIPC   PO4 5990  12.724   7.592   6.850  0.0105 -0.1686  0.0691
    1DIPC   GL1 5991  12.507   7.621   6.424 -0.0326  0.2669  0.1125
    1DIPC   GL2 5992  12.257   7.767   6.409  0.0025  0.1340  0.0954
    1DIPC   C1A 5993  12.525   7.632   5.918 -0.2511 -0.0466  0.2760
    1DIPC   D2A 5994  12.600   7.538   5.494  0.0292 -0.2414 -0.0224
    1DIPC   D3A 5995  12.749   7.216   5.642 -0.0242 -0.1325 -0.0223
    1DIPC   C4A 5996  12.719   7.160   6.106  0.1510  0.2392 -0.2822
    1DIPC   C1B 5997  12.246   8.051   6.032 -0.0061  0.1764  0.2496
    1DIPC   D2B 5998  11.818   8.181   5.840  0.2214 -0.1642 -0.0143
    1DIPC   D3B 5999  11.647   7.945   5.477 -0.0691 -0.1461  0.0079
    1DIPC   C4B 6000  11.513   7.503   5.530  0.2384  0.3832  0.0890
    1DIPC   NC3 6001   9.508  29.498   7.279  0.1924 -0.1191  0.0490
    1DIPC   PO4 6002   9.692  29.878   7.074  0.0584 -0.3873 -0.0074
    1DIPC   GL1 6003   9.824  30.049   6.742 -0.1116 -0.2072 -0.1586
    1DIPC   GL2 6004   9.592  30.337   6.532 -0.3062  0.0411  0.0923
    1DIPC   C1A 6005  10.016  30.164   6.274 -0.0581  0.0847 -0.3076
    1DIPC   D2A 6006  10.132  30.117   5.815 -0.3098 -0.1240  0.0761
    1DIPC   D3A 6007   9.771  29.977   5.563 -0.2072  0.0594  0.1619
    1DIPC   C4A 6008   9.942  29.503   5.590 -0.0051 -0.1356 -0.2168
    1DIPC   C1B 6009   9.313  30.032   6.412 -0.1357 -0.2970 -0.0383
    1DIPC   D2B 6010   9.041  29.710   6.243  0.1304  0.1663  0.1120
    1DIPC   D3B 6011   9.328  29.572   5.924  0.0093 -0.0705 -0.3681
    1DIPC   C4B 6012   9.170  29.151   5.772 -0.1261  0.0606  0.1818
    1DIPC   NC3 6013  10.425  24.139   6.732  0.1165 -0.1038  0.0502
    1DIPC   PO4 6014  10.906  23.923   6.665 -0.1220  0.0655 -0.2467
    1DIPC   GL1 6015  10.630  24.078   6.289  0.2280 -0.2525 -0.0778
    1DIPC   GL2 6016  10.635  24.431   6.262  0.2044  0.1938 -0.2182
    1DIPC   C1A 6017  10.406  24.119   5.989 -0.0634  0.1689  0.0086
    1DIPC   D2A 6018  10.328  24.364   5.563  0.0960  0.0115 -0.1636
    1DIPC   D3A 6019  10.146  24.438   5.213 -0.1956  0.4970 -0.0668
    1DIPC   C4A 6020   9.904  24.776   5.039  0.0924  0.1132  0.3105
    1DIPC   C1B 6021  10.715  24.574   5.850 -0.2361  0.1489  0.0476
    1DIPC   D2B 6022  10.658  24.729   5.389 -0.4611  0.5891  0.1160
    1DIPC   D3B 6023  10.258  24.844   5.531 -0.0263 -0.2614 -0.3510
    1DIPC   C4B 6024   9.935  25.138   5.637 -0.0366  0.2754  0.1253
    1DIPC   NC3 6025  20.062  14.804   6.036 -0.1251 -0.1640  0.0327
    1DIPC   PO4 6026  20.080  14.373   5.855 -0.0075  0.1710  0.0620
    1DIPC   GL1 6027  20.249  14.322   5.457  0.1924 -0.3168  0.3014
    1DIPC   GL2 6028  19.896  14.149   5.393  0.1218  0.1986  0.0968
    1DIPC   C1A 6029  20.590  14.351   4.988  0.0402  0.0987 -0.0605
    1DIPC   D2A 6030  20.657  14.772   4.745  0.1614 -0.0706 -0.0713
    1DIPC   D3A 6031  20.457  15.204   4.893 -0.0314 -0.0661  0.2192
    1DIPC   C4A 6032  20.307  15.307   5.256  0.0087 -0.2381 -0.0632
    1DIPC   C1B 6033  19.975  14.101   4.929 -0.0399 -0.2314 -0.0619
    1DIPC   D2B 6034  20.389  13.949   4.630  0.1428 -0.1841  0.1751
    1DIPC   D3B 6035  20.070  13.718   4.398 -0.1564  0.0142  0.0864
    1DIPC   C4B 6036  19.788  13.693   4.681 -0.0798  0.2321  0.2163
    1DIPC   NC3 6037  21.771   5.331   7.546  0.0841 -0.2755  0.1223
    1DIPC   PO4 6038  21.673   5.155   7.124  0.0014 -0.2709 -0.2059
    1DIPC   GL1 6039  21.662   5.222   6.567 -0.0071 -0.1729  0.2295
    1DIPC   GL2 6040  21.660   4.877   6.303  0.0395 -0.0490 -0.0857
    1DIPC   C1A 6041  21.691   5.390   6.207  0.0724  0.3136 -0.0083
    1DIPC   D2A 6042  21.764   5.585   5.781 -0.0208 -0.2549 -0.0691
    1DIPC   D3A 6043  21.911   6.051   5.754  0.3283  0.3530  0.1337
    1DIPC   C4A 6044  21.789   6.418   6.042  0.1727 -0.1016  0.0879
    1DIPC   C1B 6045  21.637   4.998   5.870 -0.0052 -0.0967  0.4567
    1DIPC   D2B 6046  21.823   4.679   5.643 -0.0667 -0.1556  0.2172
    1DIPC   D3B 6047  21.566   4.634   5.308  0.0624 -0.0788  0.3361
    1DIPC   C4B 6048  21.353   4.309   5.171 -0.2136 -0.1245  0.0726
    1DIPC   NC3 6049  16.358  19.514   6.483 -0.0736 -0.1877  0.0570
    1DIPC   PO4 6050  16.306  19.100   6.598 -0.2101  0.1599 -0.2788
    1DIPC   GL1 6051  16.371  19.092   6.098  0.3239 -0.1010  0.1792
    1DIPC   GL2 6052  16.156  18.953   5.862  0.1627  0.0668 -0.0956
    1DIPC   C1A 6053  16.625  19.025   5.857 -0.3271 -0.0384  0.0489
    1DIPC   D2A 6054  16.802  19.067   5.479  0.1175 -0.0982  0.0045
    1DIPC   D3A 6055  16.714  18.658   5.159 -0.1373 -0.0040 -0.1942
    1DIPC   C4A 6056  16.669  18.650   4.717  0.0193 -0.0335 -0.2440
    1DIPC   C1B 6057  15.995  18.982   5.430 -0.0697 -0.0804 -0.1514
    1DIPC   D2B 6058  15.972  19.376   5.197  0.0684  0.1361  0.3522
    1DIPC   D3B 6059  15.961  19.112   4.914 -0.1836 -0.3205  0.7841
    1DIPC   C4B 6060  16.246  18.661   5.054 -0.1330 -0.0617  0.0468
    1DIPC   NC3 6061  20.659   3.237   7.518  0.0835 -0.2055  0.3339
    1DIPC   PO4 6062  21.065   3.070   7.331 -0.1333  0.1589 -0.2134
    1DIPC   GL1 6063  21.119   3.057   6.923 -0.4124  0.0187 -0.1436
    1DIPC   GL2 6064  21.222   3.321   6.826 -0.0378 -0.2083 -0.1203
    1DIPC   C1A 6065  21.310   2.911   6.551  0.1786 -0.0537 -0.0853
    1DIPC   D2A 6066  21.307   3.058   6.161  0.1181 -0.1646  0.1453
    1DIPC   D3A 6067  20.851   2.902   6.047 -0.0701 -0.0130  0.0585
    1DIPC   C4A 6068  20.815   2.800   5.609  0.0563 -0.1781  0.1975
    1DIPC   C1B 6069  21.085   3.478   6.531  0.2153 -0.2843  0.0910
    1DIPC   D2B 6070  21.237   3.704   6.142 -0.3888  0.2827  0.0090
    1DIPC   D3B 6071  21.551   3.485   6.226  0.0850 -0.4549 -0.2305
    1DIPC   C4B 6072  21.761   3.410   6.667  0.2065  0.2285  0.0708
    1DIPC   NC3 6073  20.913   4.028   7.285 -0.0447  0.1127 -0.1285
    1DIPC   PO4 6074  21.300   4.211   7.142  0.3115 -0.1614 -0.2108
    1DIPC   GL1 6075  21.208   3.905   6.830 -0.2103 -0.1027  0.2068
    1DIPC   GL2 6076  21.510   3.782   6.864  0.1511  0.2474  0.0960
    1DIPC   C1A 6077  21.139   4.085   6.461  0.3811 -0.0683  0.3808
    1DIPC   D2A 6078  21.097   4.198   5.973 -0.2267  0.0336 -0.1933
    1DIPC   D3A 6079  21.126   3.958   5.660 -0.0235 -0.0160  0.0806
    1DIPC   C4A 6080  21.406   3.701   5.721  0.0763  0.1351 -0.1996
    1DIPC   C1B 6081  21.629   4.034   6.470 -0.0039  0.1948  0.1977
    1DIPC   D2B 6082  21.780   3.879   6.022  0.1222  0.2883 -0.0718
    1DIPC   D3B 6083  21.814   3.386   5.753 -0.3729 -0.1227 -0.1919
    1DIPC   C4B 6084  21.447   3.244   5.505 -0.0316  0.0324  0.0654
    1DIPC   NC3 6085   1.923  27.511   6.364  0.0591 -0.0872  0.0676
    1DIPC   PO4 6086   1.539  27.208   6.340 -0.0034  0.1099  0.0177
    1DIPC   GL1 6087   1.685  27.261   5.898 -0.1998 -0.2597  0.0329
    1DIPC   GL2 6088   1.654  27.668   5.988  0.3353  0.2472 -0.0520
    1DIPC   C1A 6089   1.839  27.194   5.493  0.0886 -0.4451  0.1466
    1DIPC   D2A 6090   1.985  27.116   5.010  0.2848  0.0011 -0.2320
    1DIPC   D3A 6091   2.176  27.324   4.672 -0.0922 -0.1973 -0.0282
    1DIPC   C4A 6092   2.546  27.549   4.678 -0.2201 -0.0133 -0.1094
    1DIPC   C1B 6093   1.814  27.753   5.621  0.0210 -0.0982  0.1918
    1DIPC   D2B 6094   2.197  27.638   5.265 -0.1950 -0.1725 -0.0806
    1DIPC   D3B 6095   2.103  27.799   4.943 -0.2189 -0.2082  0.2794
    1DIPC   C4B 6096   1.705  27.930   4.883 -0.0696  0.2011 -0.0497
    1DIPC   NC3 6097   7.053  25.657   6.507 -0.0193  0.0173 -0.3687
    1DIPC   PO4 6098   7.275  25.947   6.651  0.0683 -0.1163  0.2059
    1DIPC   GL1 6099   7.304  26.319   6.345 -0.0252  0.1358 -0.1913
    1DIPC   GL2 6100   7.254  26.615   6.413 -0.2769 -0.1241  0.2723
    1DIPC   C1A 6101   7.457  26.466   5.892 -0.0803 -0.1568 -0.2628
    1DIPC   D2A 6102   7.650  26.609   5.539 -0.0300 -0.1989  0.1926
    1DIPC   D3A 6103   7.388  26.491   5.176  0.0642  0.1323 -0.1526
    1DIPC   C4A 6104   7.008  26.306   5.151  0.0614  0.0629 -0.3219
    1DIPC   C1B 6105   7.504  26.903   6.243 -0.4355 -0.0467 -0.0140
    1DIPC   D2B 6106   7.770  26.916   5.907  0.0857 -0.0501 -0.2485
    1DIPC   D3B 6107   7.320  26.991   5.753  0.3272  0.0905  0.1697
    1DIPC   C4B 6108   7.132  26.874   5.351 -0.0489  0.0434  0.1253
    1DIPC   NC3 6109   9.782   2.524   7.259 -0.0879 -0.2587  0.2650
    1DIPC   PO4 6110  10.232   2.470   7.238  0.1053  0.0824 -0.2949
    1DIPC   GL1 6111  10.181   2.397   6.851  0.0289  0.2294  0.0859
    1DIPC   GL2 6112   9.907   2.637   6.788  0.0992 -0.2374  0.1594
    1DIPC   C1A 6113  10.246   2.364   6.437 -0.1208  0.3340  0.1364
    1DIPC   D2A 6114  10.217   2.642   5.955  0.1819 -0.0242  0.0297
    1DIPC   D3A 6115   9.990   2.350   5.561  0.0046 -0.1799 -0.1917
    1DIPC   C4A 6116   9.522   2.415   5.494  0.1689 -0.3730  0.0078
    1DIPC   C1B 6117   9.837   2.681   6.308  0.0581  0.0685 -0.0871
    1DIPC   D2B 6118   9.764   2.332   6.000  0.1642  0.0436  0.0556
    1DIPC   D3B 6119   9.395   2.531   5.980 -0.1719  0.1631  0.3035
    1DIPC   C4B 6120   8.988   2.398   5.903 -0.1270  0.1734  0.3882
    1DIPC   NC3 6121  27.848  20.906   5.949 -0.0098  0.3070  0.4347
    1DIPC   PO4 6122  28.080  20.973   6.238  0.0933  0.3271 -0.0792
    1DIPC   GL1 6123  28.353  21.051   5.840  0.2461  0.0206  0.0803
    1DIPC   GL2 6124  28.572  20.782   5.790 -0.0112  0.2308  0.0375
    1DIPC   C1A 6125  28.450  21.459   5.525  0.0654 -0.0248  0.1568
    1DIPC   D2A 6126  28.845  21.566   5.351 -0.1334 -0.2420  0.1306
    1DIPC   D3A 6127  29.089  21.541   5.089 -0.0076 -0.0880  0.1136
    1DIPC   C4A 6128  29.346  21.792   5.058  0.0154 -0.0188  0.0943
    1DIPC   C1B 6129  28.844  21.253   5.767 -0.0652 -0.0242  0.1238
    1DIPC   D2B 6130  28.627  21.548   5.978 -0.2024  0.2273  0.3225
    1DIPC   D3B 6131  29.056  21.650   5.803 -0.4426  0.4589  0.1867
    1DIPC   C4B 6132  29.435  21.677   5.994 -0.0642 -0.1921  0.1572
    1DIPC   NC3 6133  26.243   9.522   6.098  0.2374  0.0191  0.2527
    1DIPC   PO4 6134  25.927   9.772   5.971  0.0102 -0.1634 -0.0738
    1DIPC   GL1 6135  25.965   9.614   5.607 -0.3080 -0.0013 -0.1748
    1DIPC   GL2 6136  25.719   9.755   5.385  0.2256 -0.0022 -0.1437
    1DIPC   C1A 6137  25.869   9.100   5.395  0.2000  0.0102 -0.0815
    1DIPC   D2A 6138  26.179   8.986   5.112 -0.0512 -0.0081  0.1610
    1DIPC   D3A 6139  26.178   9.165   4.677  0.2034 -0.1831 -0.5844
    1DIPC   C4A 6140  26.049   9.051   4.318 -0.0886  0.0140 -0.0608
    1DIPC   C1B 6141  25.904   9.785   4.865 -0.0996 -0.1208  0.1101
    1DIPC   D2B 6142  26.326   9.656   4.703 -0.3299  0.0080  0.1772
    1DIPC   D3B 6143  26.561   9.751   4.450 -0.1129 -0.0860 -0.0499
    1DIPC   C4B 6144  26.411   9.888   4.086 -0.0234  0.2747  0.1524
    1DIPC   NC3 6145  25.403  19.717   5.694 -0.0942 -0.2796  0.1376
    1DIPC   PO4 6146  24.944  19.800   5.601  0.0068  0.0737  0.2847
    1DIPC   GL1 6147  25.210  19.634   5.261  0.2308 -0.1442 -0.0510
    1DIPC   GL2 6148  24.977  19.446   5.079  0.2675  0.2274 -0.0085
    1DIPC   C1A 6149  25.383  19.953   4.917 -0.0402 -0.0334  0.3666
    1DIPC   D2A 6150  25.285  20.022   4.442 -0.0924  0.1428 -0.1079
    1DIPC   D3A 6151  25.599  20.054   4.155 -0.0060 -0.1364  0.1076
    1DIPC   C4A 6152  25.334  20.003   3.681 -0.0530 -0.2067 -0.0343
    1DIPC   C1B 6153  24.813  19.698   4.793  0.2804  0.1750 -0.1996
    1DIPC   D2B 6154  24.763  19.704   4.390  0.1036  0.1207 -0.0147
    1DIPC   D3B 6155  24.411  19.593   4.310 -0.0185 -0.2277 -0.0899
    1DIPC   C4B 6156  24.295  19.154   4.381 -0.2231 -0.0763 -0.0687
    1DIPC   NC3 6157  16.448  12.271   6.250 -0.0726 -0.1025 -0.1794
    1DIPC   PO4 6158  16.230  11.910   6.149 -0.0228  0.0790 -0.2604
    1DIPC   GL1 6159  16.557  12.002   5.793 -0.1667 -0.1144 -0.1521
    1DIPC   GL2 6160  16.630  12.386   5.799 -0.3182 -0.4713  0.2521
    1DIPC   C1A 6161  16.704  11.922   5.460  0.0932 -0.0332  0.3249
    1DIPC   D2A 6162  16.891  12.133   5.095 -0.0683  0.0671  0.3220
    1DIPC   D3A 6163  17.180  11.916   4.858  0.2947  0.0489  0.0150
    1DIPC   C4A 6164  17.041  11.877   4.428  0.1646 -0.2247  0.1710
    1DIPC   C1B 6165  17.080  12.188   5.640  0.1449 -0.0643  0.1491
    1DIPC   D2B 6166  17.222  11.788   5.596 -0.0811  0.2017 -0.0110
    1DIPC   D3B 6167  17.614  11.736   5.369 -0.1479 -0.1758  0.0229
    1DIPC   C4B 6168  17.763  11.685   5.068 -0.0520  0.0325  0.0676
    1DIPC   NC3 6169  27.309  29.523   7.113 -0.1375  0.4046 -0.0843
    1DIPC   PO4 6170  27.545  29.569   6.810  0.1157 -0.0642 -0.4870
    1DIPC   GL1 6171  27.494  29.372   6.460 -0.0417 -0.1078 -0.0535
    1DIPC   GL2 6172  27.611  29.526   6.207 -0.0956  0.0393  0.1047
    1DIPC   C1A 6173  27.208  29.089   6.271 -0.0121  0.0157 -0.1131
    1DIPC   D2A 6174  27.186  28.783   6.060  0.0996  0.2539 -0.0141
    1DIPC   D3A 6175  27.057  28.401   6.030 -0.3430 -0.1036 -0.0180
    1DIPC   C4A 6176  26.864  28.150   6.305  0.0606  0.0359  0.0499
    1DIPC   C1B 6177  27.858  29.830   5.883 -0.1732 -0.2752 -0.2137
    1DIPC   D2B 6178  27.883  30.189   5.718 -0.1000 -0.6761  0.0688
    1DIPC   D3B 6179  27.890  29.768   5.453 -0.4477  0.2074  0.2515
    1DIPC   C4B 6180  27.519  29.638   5.137  0.1075 -0.5964 -0.0690
    1DIPC   NC3 6181   3.431   8.557   6.338  0.1393 -0.0486  0.0205
    1DIPC   PO4 6182   3.637   9.029   6.168  0.0010  0.3749 -0.0833
    1DIPC   GL1 6183   3.790   8.834   5.785  0.0198 -0.0867 -0.2958
    1DIPC   GL2 6184   4.030   8.921   5.612  0.1154 -0.2154 -0.2318
    1DIPC   C1A 6185   3.747   8.470   5.557 -0.2083  0.0672  0.1383
    1DIPC   D2A 6186   3.874   8.140   5.363  0.3360  0.1115 -0.1055
    1DIPC   D3A 6187   3.782   8.423   5.042 -0.2342  0.5171 -0.3989
    1DIPC   C4A 6188   3.619   8.212   4.678 -0.0209  0.3562 -0.1413
    1DIPC   C1B 6189   4.122   8.782   5.269 -0.2150  0.1902  0.0711
    1DIPC   D2B 6190   4.089   8.866   4.914 -0.3460 -0.4470 -0.0052
    1DIPC   D3B 6191   4.243   8.489   4.883 -0.0567 -0.1447  0.2400
    1DIPC   C4B 6192   4.692   8.328   4.859 -0.0436  0.2496 -0.4244
    1DIPC   NC3 6193  21.454   4.700   7.223 -0.2762  0.0934 -0.0906
    1DIPC   PO4 6194  20.983   4.705   7.397 -0.2442 -0.3413 -0.0659
    1DIPC   GL1 6195  20.783   4.574   6.985  0.3516  0.1964 -0.0663
    1DIPC   GL2 6196  20.859   4.344   6.746  0.0008 -0.2712  0.0963
    1DIPC   C1A 6197  20.400   4.587   6.727  0.0570  0.0974  0.0300
    1DIPC   D2A 6198  20.304   4.301   6.362  0.2331  0.0312  0.4143
    1DIPC   D3A 6199  19.914   4.505   6.263 -0.1495  0.1941  0.0299
    1DIPC   C4A 6200  19.730   4.501   5.851  0.3710 -0.4704  0.0181
    1DIPC   C1B 6201  20.759   4.495   6.350 -0.3591  0.3746  0.3910
    1DIPC   D2B 6202  20.767   4.684   5.818  0.1701 -0.2490  0.0505
    1DIPC   D3B 6203  20.518   4.496   5.504  0.2544  0.0132 -0.0184
    1DIPC   C4B 6204  20.673   4.196   5.253  0.1541 -0.1274  0.2348
    1DIPC   NC3 6205  16.983  14.971   5.793  0.1077 -0.0711 -0.0424
    1DIPC   PO4 6206  17.203  15.307   5.933 -0.4682 -0.0542 -0.0614
    1DIPC   GL1 6207  17.216  15.566   5.633  0.0719  0.0786 -0.0579
    1DIPC   GL2 6208  17.059  15.779   5.735  0.1668  0.0812  0.3401
    1DIPC   C1A 6209  17.380  15.488   5.227  0.0618 -0.1095 -0.1602
    1DIPC   D2A 6210  17.717  15.343   5.121 -0.1848  0.3579  0.0174
    1DIPC   D3A 6211  17.653  15.520   4.671 -0.0481  0.0101 -0.0731
    1DIPC   C4A 6212  17.928  15.860   4.459  0.1062  0.3778  0.4059
    1DIPC   C1B 6213  16.912  15.862   5.313  0.2157  0.2227  0.0346
    1DIPC   D2B 6214  16.618  15.813   4.929  0.4332 -0.0172 -0.0494
    1DIPC   D3B 6215  16.971  15.539   4.918 -0.0860  0.1270 -0.3600
    1DIPC   C4B 6216  17.109  15.285   4.565  0.3472 -0.1128 -0.3622
    1DIPC   NC3 6217  21.330   5.421   6.871  0.1813 -0.0428 -0.1370
    1DIPC   PO4 6218  21.167   4.955   6.880 -0.3002 -0.1580 -0.1554
    1DIPC   GL1 6219  21.400   4.601   6.608  0.1503  0.0410 -0.1063
    1DIPC   GL2 6220  21.518   4.402   6.729 -0.0643 -0.0272 -0.0424
    1DIPC   C1A 6221  21.432   4.481   6.191 -0.1634  0.1199  0.0011
    1DIPC   D2A 6222  21.554   4.265   5.721  0.0032  0.0427 -0.1022
    1DIPC   D3A 6223  21.941   4.141   5.612 -0.3137 -0.0109 -0.2015
    1DIPC   C4A 6224  21.899   3.741   5.371  0.1218  0.0890 -0.2434
    1DIPC   C1B 6225  21.875   4.465   6.429 -0.1534 -0.1431  0.2071
    1DIPC   D2B 6226  21.895   4.431   6.045 -0.0147 -0.0006 -0.2658
    1DIPC   D3B 6227  22.324   4.479   5.834 -0.1374 -0.1018 -0.2249
    1DIPC   C4B 6228  22.399   4.578   5.361 -0.1373  0.1552 -0.0410
    1DIPC   NC3 6229  14.684   6.770   6.795  0.4173 -0.0553  0.2171
    1DIPC   PO4 6230  14.800   7.181   6.593  0.1106 -0.2973  0.1768
    1DIPC   GL1 6231  14.552   7.064   6.289 -0.1558 -0.3428  0.2855
    1DIPC   GL2 6232  14.373   6.943   6.391  0.1238 -0.0703  0.2099
    1DIPC   C1A 6233  14.182   7.175   5.992  0.0061  0.0011  0.1195
    1DIPC   D2A 6234  14.032   7.324   5.550  0.1981  0.0031 -0.2566
    1DIPC   D3A 6235  14.063   6.950   5.392  0.1842  0.2209 -0.2775
    1DIPC   C4A 6236  14.364   6.793   5.214  0.0544 -0.2538  0.1133
    1DIPC   C1B 6237  14.488   6.582   6.170  0.1180  0.0561 -0.1217
    1DIPC   D2B 6238  14.591   6.679   5.656 -0.3185 -0.3951 -0.1323
    1DIPC   D3B 6239  14.611   6.308   5.413 -0.0352 -0.0384 -0.0130
    1DIPC   C4B 6240  14.584   6.381   4.945 -0.4836  0.1838 -0.1247
    1DIPC   NC3 6241   6.295  23.882   6.643  0.3251  0.0122  0.0627
    1DIPC   PO4 6242   6.654  23.653   6.741  0.1918 -0.0963 -0.1617
    1DIPC   GL1 6243   6.864  23.942   6.407  0.1927 -0.1028  0.0611
    1DIPC   GL2 6244   6.510  23.955   6.241  0.0273  0.2317  0.0454
    1DIPC   C1A 6245   7.078  24.219   6.087  0.0210 -0.0240 -0.2278
    1DIPC   D2A 6246   7.294  24.150   5.655 -0.0374  0.2743 -0.0487
    1DIPC   D3A 6247   7.530  23.755   5.537 -0.1276 -0.1993  0.0617
    1DIPC   C4A 6248   7.848  23.732   5.193 -0.0367  0.4816 -0.1009
    1DIPC   C1B 6249   6.686  23.989   5.881 -0.1097  0.1429  0.3183
    1DIPC   D2B 6250   6.862  24.399   5.614  0.0842 -0.2450  0.0713
    1DIPC   D3B 6251   6.606  24.456   6.002 -0.1137  0.2892 -0.2317
    1DIPC   C4B 6252   6.170  24.232   6.007 -0.1820  0.0570 -0.0790
    1DIPC   NC3 6253   4.713   5.354   6.841  0.1852 -0.0840 -0.1000
    1DIPC   PO4 6254   4.534   4.956   6.872  0.2527  0.5011 -0.0515
    1DIPC   GL1 6255   4.475   4.999   6.365  0.3529  0.1332 -0.0591
    1DIPC   GL2 6256   4.494   4.676   6.266 -0.0624 -0.2841 -0.1499
    1DIPC   C1A 6257   4.571   5.160   6.045  0.0703 -0.0081  0.0281
    1DIPC   D2A 6258   4.748   5.064   5.610  0.0199  0.0407 -0.4661
    1DIPC   D3A 6259   4.576   5.435   5.395 -0.0445 -0.4021 -0.1740
    1DIPC   C4A 6260   4.349   5.414   4.888 -0.0015 -0.1053 -0.0614
    1DIPC   C1B 6261   4.420   4.610   5.841 -0.1525  0.1227  0.1974
    1DIPC   D2B 6262   4.263   4.542   5.420 -0.0128  0.2335  0.4157
    1DIPC   D3B 6263   4.036   4.233   5.419  0.0246  0.2208  0.0971
    1DIPC   C4B 6264   3.931   4.172   5.029  0.0445 -0.0881 -0.0839
    1DIPC   NC3 6265  13.203  11.580   6.777 -0.2959  0.0609  0.3586
    1DIPC   PO4 6266  13.656  11.479   6.946  0.1517 -0.1829 -0.1731
    1DIPC   GL1 6267  13.799  11.516   6.397  0.0102 -0.0106 -0.2003
    1DIPC   GL2 6268  13.802  11.401   6.140 -0.1069 -0.0935  0.0286
    1DIPC   C1A 6269  13.778  11.882   6.117 -0.2516 -0.3089  0.2135
    1DIPC   D2A 6270  13.961  12.366   6.174 -0.0646 -0.1439  0.1269
    1DIPC   D3A 6271  14.108  12.175   5.843  0.1619  0.1398  0.1548
    1DIPC   C4A 6272  14.061  11.775   5.540 -0.0319  0.2426 -0.1104
    1DIPC   C1B 6273  13.719  11.514   5.728 -0.1990 -0.0544 -0.0831
    1DIPC   D2B 6274  13.741  11.488   5.230 -0.0120 -0.0204 -0.2516
    1DIPC   D3B 6275  13.781  11.925   5.123  0.1497  0.1036  0.0521
    1DIPC   C4B 6276  13.462  12.128   4.920  0.2262  0.3805 -0.2449
    1DIPC   NC3 6277  26.698   2.544   6.875  0.1978  0.2534  0.2771
    1DIPC   PO4 6278  26.989   2.686   6.660 -0.0227 -0.2431  0.1607
    1DIPC   GL1 6279  27.086   2.592   6.178  0.1298  0.2524 -0.2417
    1DIPC   GL2 6280  26.773   2.603   6.006  0.1648 -0.0248 -0.1297
    1DIPC   C1A 6281  27.256   2.633   5.762  0.0311  0.1521  0.1127
    1DIPC   D2A 6282  27.459   2.359   5.460 -0.2584 -0.1806  0.1155
    1DIPC   D3A 6283  27.801   2.506   5.600 -0.2531  0.1141  0.1687
    1DIPC   C4A 6284  27.989   2.795   5.408  0.2084 -0.1392 -0.2762
    1DIPC   C1B 6285  26.790   2.587   5.514 -0.3232  0.0176 -0.0939
    1DIPC   D2B 6286  26.983   2.748   5.127  0.2160 -0.0426  0.0338
    1DIPC   D3B 6287  26.666   2.578   4.909 -0.3515 -0.2568  0.0536
    1DIPC   C4B 6288  26.677   2.723   4.423 -0.1530 -0.0628 -0.0699
    1DIPC   NC3 6289  19.680   2.547   7.105  0.2069  0.1085  0.1581
    1DIPC   PO4 6290  19.681   2.829   6.894  0.1405  0.0092  0.0120
    1DIPC   GL1 6291  19.781   3.099   6.485  0.1374  0.0210  0.2325
    1DIPC   GL2 6292  19.568   3.369   6.392  0.2843  0.1181  0.0773
    1DIPC   C1A 6293  19.939   3.119   6.154 -0.1849  0.2786  0.1288
    1DIPC   D2A 6294  20.296   3.102   6.108 -0.0284  0.0527  0.0267
    1DIPC   D3A 6295  20.564   3.250   5.734 -0.2125  0.0391  0.3145
    1DIPC   C4A 6296  20.956   3.395   5.862 -0.3493  0.0355 -0.0567
    1DIPC   C1B 6297  19.988   3.588   6.088 -0.0936 -0.0235 -0.1008
    1DIPC   D2B 6298  20.408   3.687   5.922  0.0160 -0.0890  0.1741
    1DIPC   D3B 6299  20.316   3.824   6.388  0.0806 -0.2224 -0.0192
    1DIPC   C4B 6300  19.867   3.998   6.362 -0.2163  0.0884 -0.0414
    1DIPC   NC3 6301  24.850  14.144   5.520  0.0472 -0.2238 -0.0607
    1DIPC   PO4 6302  24.387  14.100   5.431  0.1554  0.2884  0.1083
    1DIPC   GL1 6303  24.200  13.911   5.079  0.0276 -0.4051 -0.0959
    1DIPC   GL2 6304  24.148  14.232   4.948 -0.0327  0.2418 -0.1290
    1DIPC   C1A 6305  23.933  13.740   4.679 -0.0631 -0.2898  0.1002
    1DIPC   D2A 6306  23.847  13.748   4.216  0.0282 -0.1325 -0.0521
    1DIPC   D3A 6307  24.090  13.430   4.038  0.0377 -0.3387 -0.1249
    1DIPC   C4A 6308  24.481  13.224   4.036  0.1361  0.0639  0.0317
    1DIPC   C1B 6309  24.162  14.191   4.462  0.1770 -0.2316  0.1086
    1DIPC   D2B 6310  24.239  13.912   4.083 -0.2115  0.0591  0.1773
    1DIPC   D3B 6311  24.107  13.964   3.687 -0.0902 -0.1222 -0.4769
    1DIPC   C4B 6312  23.917  13.615   3.613  0.0977  0.1214 -0.0732
    1DIPC   NC3 6313  26.852  26.698   6.607 -0.2035 -0.1622  0.1098
    1DIPC   PO4 6314  27.328  26.733   6.741 -0.0023 -0.3734  0.0429
    1DIPC   GL1 6315  27.501  26.808   6.322  0.0315 -0.0983  0.0192
    1DIPC   GL2 6316  27.198  26.807   6.232 -0.0830  0.0405  0.4348
    1DIPC   C1A 6317  27.723  26.835   5.991 -0.3253  0.0238 -0.0153
    1DIPC   D2A 6318  27.962  26.839   5.642 -0.1055 -0.2155  0.0479
    1DIPC   D3A 6319  27.639  27.010   5.360 -0.2068 -0.1283 -0.3970
    1DIPC   C4A 6320  27.412  27.295   5.263  0.0764  0.2409  0.0075
    1DIPC   C1B 6321  27.222  26.952   5.761  0.1679  0.1159 -0.1679
    1DIPC   D2B 6322  27.208  26.766   5.332  0.1364  0.0248 -0.2543
    1DIPC   D3B 6323  26.765  26.716   5.370  0.2447  0.3207 -0.3393
    1DIPC   C4B 6324  26.639  26.692   4.929  0.0073 -0.2206 -0.0690
    1DIPC   NC3 6325  28.813   3.430   6.795 -0.2326  0.0368 -0.3235
    1DIPC   PO4 6326  28.432   3.581   6.527 -0.1863 -0.0070  0.1443
    1DIPC   GL1 6327  28.456   3.187   6.213 -0.0466  0.3655 -0.1437
    1DIPC   GL2 6328  28.692   3.176   6.000 -0.0841  0.1412  0.1933
    1DIPC   C1A 6329  28.115   3.170   5.775  0.0387 -0.2742 -0.0372
    1DIPC   D2A 6330  27.880   3.418   5.625 -0.1684  0.2856 -0.1484
    1DIPC   D3A 6331  28.248   3.270   5.319  0.2594  0.0303 -0.0976
    1DIPC   C4A 6332  28.366   3.478   4.931 -0.1518 -0.1913 -0.3423
    1DIPC   C1B 6333  28.513   3.001   5.628  0.0220  0.2465  0.0523
    1DIPC   D2B 6334  28.444   2.764   5.327 -0.0925  0.0499  0.0764
    1DIPC   D3B 6335  28.140   2.900   4.939 -0.1363 -0.0740  0.1883
    1DIPC   C4B 6336  27.791   3.278   5.032 -0.0519 -0.0221  0.0318
    1DIPC   NC3 6337  22.791   6.204   7.307 -0.0386  0.1359  0.0494
    1DIPC   PO4 6338  22.968   5.869   6.942  0.1041  0.1661 -0.1217
    1DIPC   GL1 6339  22.687   5.731   6.609  0.2363 -0.2094  0.0169
    1DIPC   GL2 6340  22.413   5.578   6.619 -0.0328  0.0208  0.1424
    1DIPC   C1A 6341  22.674   5.471   6.174 -0.0787  0.0205  0.1440
    1DIPC   D2A 6342  22.552   4.992   6.180  0.3487  0.0330 -0.2855
    1DIPC   D3A 6343  22.585   4.630   6.348  0.0361  0.1917 -0.0276
    1DIPC   C4A 6344  22.961   4.492   6.495  0.0307 -0.0388  0.0271
    1DIPC   C1B 6345  22.176   5.289   6.446  0.1078 -0.0263 -0.2458
    1DIPC   D2B 6346  22.100   5.052   6.052 -0.1939 -0.0779 -0.0590
    1DIPC   D3B 6347  22.384   4.969   5.695 -0.2900  0.1442 -0.1873
    1DIPC   C4B 6348  22.606   5.346   5.630  0.0630  0.1975  0.1229
    1DIPC   NC3 6349  26.391   5.281   7.055 -0.0239 -0.0043  0.1767
    1DIPC   PO4 6350  26.615   5.284   6.673 -0.1476  0.2397 -0.1436
    1DIPC   GL1 6351  26.445   5.280   6.164 -0.0480  0.0798  0.0109
    1DIPC   GL2 6352  26.723   5.229   6.046  0.0548 -0.0056 -0.1116
    1DIPC   C1A 6353  26.141   5.245   5.661  0.2486 -0.0476 -0.0604
    1DIPC   D2A 6354  26.313   5.355   5.190  0.2887  0.1387  0.1650
    1DIPC   D3A 6355  26.547   5.548   4.877  0.2245 -0.0790 -0.1058
    1DIPC   C4A 6356  26.971   5.672   4.887 -0.1785 -0.1451  0.1968
    1DIPC   C1B 6357  26.678   5.598   5.831  0.2132  0.1538  0.1882
    1DIPC   D2B 6358  26.691   5.564   5.443 -0.0968 -0.2334  0.4765
    1DIPC   D3B 6359  26.829   5.245   5.089  0.0340 -0.0626 -0.1562
    1DIPC   C4B 6360  27.031   4.809   5.066  0.1627 -0.2838  0.1320
    1DIPC   NC3 6361  17.547  26.415   7.070  0.1163  0.0592 -0.2983
    1DIPC   PO4 6362  17.780  26.100   7.126 -0.1088 -0.2607 -0.0327
    1DIPC   GL1 6363  17.665  26.251   6.645 -0.0369  0.1158 -0.0846
    1DIPC   GL2 6364  17.952  26.144   6.598  0.0821 -0.0067 -0.0298
    1DIPC   C1A 6365  17.558  26.545   6.306  0.1283 -0.3042  0.0192
    1DIPC   D2A 6366  17.553  26.607   5.842 -0.1920  0.0732 -0.1526
    1DIPC   D3A 6367  17.623  27.065   5.712 -0.0869  0.2509 -0.0809
    1DIPC   C4A 6368  17.227  27.328   5.454  0.1330  0.1245 -0.2325
    1DIPC   C1B 6369  17.921  26.197   6.192  0.4676 -0.1835  0.1265
    1DIPC   D2B 6370  18.011  26.375   5.746 -0.0478  0.3325  0.0638
    1DIPC   D3B 6371  18.319  25.996   5.443 -0.1244 -0.0679  0.0495
    1DIPC   C4B 6372  18.365  25.634   5.660  0.0326 -0.2517 -0.0178
    1DIPC   NC3 6373   7.826   6.368   6.817 -0.1226  0.0836  0.0339
    1DIPC   PO4 6374   7.876   6.778   6.943 -0.2935  0.0945 -0.3208
    1DIPC   GL1 6375   7.881   6.802   6.442 -0.1509 -0.2981 -0.3176
    1DIPC   GL2 6376   7.886   6.487   6.310  0.0069 -0.0048  0.1672
    1DIPC   C1A 6377   7.873   6.986   6.008  0.0506  0.3590 -0.0629
    1DIPC   D2A 6378   7.694   7.423   5.901  0.1144 -0.2442 -0.0369
    1DIPC   D3A 6379   7.681   7.384   5.409 -0.5492 -0.2130 -0.0386
    1DIPC   C4A 6380   7.355   7.615   5.146 -0.2333 -0.1930  0.1403
    1DIPC   C1B 6381   8.052   6.588   5.879  0.0673  0.1273  0.1155
    1DIPC   D2B 6382   8.256   6.371   5.461 -0.0274  0.3531 -0.1566
    1DIPC   D3B 6383   8.584   6.050   5.586  0.2603  0.2882  0.6426
    1DIPC   C4B 6384   8.603   5.882   5.992 -0.0340 -0.0042  0.1232
    1DIPC   NC3 6385  18.583  22.494   5.997  0.0032  0.3417  0.1702
    1DIPC   PO4 6386  18.236  22.812   5.942  0.0454 -0.0853  0.1762
    1DIPC   GL1 6387  18.497  22.937   5.544 -0.2336  0.0755 -0.3200
    1DIPC   GL2 6388  18.345  22.665   5.339  0.0306 -0.1769 -0.2368
    1DIPC   C1A 6389  18.539  23.176   5.213 -0.2566 -0.3167  0.0595
    1DIPC   D2A 6390  18.609  23.567   5.196  0.2227 -0.3435 -0.0546
    1DIPC   D3A 6391  18.317  23.631   4.894 -0.0505  0.1451 -0.2967
    1DIPC   C4A 6392  18.187  24.096   4.819  0.1564 -0.1230  0.3979
    1DIPC   C1B 6393  18.178  22.451   5.034 -0.0394 -0.3179  0.1504
    1DIPC   D2B 6394  17.807  22.430   4.707  0.1207  0.1648 -0.0776
    1DIPC   D3B 6395  17.575  22.740   4.926 -0.1538  0.2533  0.0128
    1DIPC   C4B 6396  17.609  22.698   5.267 -0.0406  0.1832 -0.2454
    1DIPC   NC3 6397  11.055  19.903   6.338  0.0788  0.0939 -0.4776
    1DIPC   PO4 6398  11.100  20.307   6.339 -0.1012 -0.2880 -0.0776
    1DIPC   GL1 6399  10.885  20.420   6.019  0.1668 -0.2899  0.0859
    1DIPC   GL2 6400  11.085  20.095   5.850  0.1409 -0.0293  0.0256
    1DIPC   C1A 6401  10.581  20.253   5.716  0.3007 -0.3255 -0.0320
    1DIPC   D2A 6402  10.390  19.884   5.442  0.0594 -0.2477  0.0365
    1DIPC   D3A 6403  10.198  19.664   4.971 -0.1721 -0.0249  0.0530
    1DIPC   C4A 6404   9.755  19.523   5.034 -0.1667 -0.0751 -0.0086
    1DIPC   C1B 6405  11.206  19.797   5.545 -0.0482  0.4167 -0.2670
    1DIPC   D2B 6406  11.296  19.393   5.438 -0.2319 -0.1248  0.1216
    1DIPC   D3B 6407  11.159  19.334   4.961  0.2030 -0.0307 -0.2800
    1DIPC   C4B 6408  10.934  19.191   4.624  0.1908 -0.0485 -0.1595
    1DIPC   NC3 6409  18.179   3.168   6.724  0.1368 -0.0492  0.3433
    1DIPC   PO4 6410  17.870   3.391   6.972 -0.1234  0.1512 -0.2689
    1DIPC   GL1 6411  17.699   3.300   6.643  0.0646  0.3206  0.1889
    1DIPC   GL2 6412  17.354   3.437   6.487 -0.1320 -0.0755  0.1837
    1DIPC   C1A 6413  17.660   3.079   6.318  0.0271 -0.2832 -0.4716
    1DIPC   D2A 6414  17.612   3.142   5.959 -0.0042  0.1225  0.1943
    1DIPC   D3A 6415  17.275   3.481   5.752  0.1842 -0.0158 -0.0969
    1DIPC   C4A 6416  17.196   3.402   5.346  0.1300  0.2368  0.0988
    1DIPC   C1B 6417  17.616   3.659   6.247 -0.0010  0.3307  0.1209
    1DIPC   D2B 6418  17.836   4.008   6.043  0.2876 -0.0548  0.3642
    1DIPC   D3B 6419  17.700   4.197   6.361 -0.0690  0.1628  0.2606
    1DIPC   C4B 6420  17.223   4.032   6.431  0.1000  0.3837 -0.0245
    1DIPC   NC3 6421  28.478   1.532   7.697  0.2736 -0.3362 -0.0786
    1DIPC   PO4 6422  28.377   1.383   7.237  0.1610  0.0280 -0.1706
    1DIPC   GL1 6423  28.197   1.623   6.925 -0.1644 -0.0017  0.5253
    1DIPC   GL2 6424  27.878   1.685   6.901  0.0296  0.5526  0.0093
    1DIPC   C1A 6425  28.398   1.658   6.647  0.1548 -0.3318  0.0869
    1DIPC   D2A 6426  28.872   1.720   6.477  0.2465  0.0355  0.2907
    1DIPC   D3A 6427  28.955   2.190   6.265 -0.0591 -0.0392 -0.0023
    1DIPC   C4A 6428  28.945   2.099   5.784 -0.2138  0.2324 -0.1681
    1DIPC   C1B 6429  27.975   1.675   6.443  0.1699  0.2839 -0.1156
    1DIPC   D2B 6430  28.002   1.468   5.974  0.1976  0.0550  0.2345
    1DIPC   D3B 6431  28.180   1.654   5.582 -0.4013 -0.0310  0.0173
    1DIPC   C4B 6432  28.099   1.181   5.271 -0.0367 -0.4662 -0.2498
    1DIPC   NC3 6433  16.010  26.720   7.170 -0.0629 -0.1067 -0.1349
    1DIPC   PO4 6434  15.936  27.058   6.880 -0.2219 -0.1177 -0.1964
    1DIPC   GL1 6435  15.838  26.989   6.547 -0.2596  0.3167  0.0209
    1DIPC   GL2 6436  15.599  26.790   6.346 -0.2233 -0.1559  0.1361
    1DIPC   C1A 6437  16.185  26.734   6.187  0.1690 -0.2174 -0.0196
    1DIPC   D2A 6438  16.403  26.374   5.984  0.3489 -0.1320 -0.0720
    1DIPC   D3A 6439  16.355  25.910   6.013  0.0221  0.0726  0.1472
    1DIPC   C4A 6440  16.443  25.583   5.750 -0.3620 -0.0941 -0.2181
    1DIPC   C1B 6441  15.608  26.904   6.030  0.2243 -0.0980  0.1337
    1DIPC   D2B 6442  15.573  26.737   5.557 -0.1914  0.2735 -0.1174
    1DIPC   D3B 6443  15.803  26.614   5.139 -0.1526  0.1388  0.0381
    1DIPC   C4B 6444  16.129  26.455   5.169 -0.0242 -0.2467  0.0020
    1DIPC   NC3 6445  28.876  26.118   7.153  0.1996  0.1577  0.0584
    1DIPC   PO4 6446  29.262  26.105   6.734 -0.1246 -0.0897 -0.1114
    1DIPC   GL1 6447  29.222  26.124   6.367  0.1589  0.0046  0.0863
    1DIPC   GL2 6448  28.912  26.070   6.330 -0.4188 -0.0896 -0.0634
    1DIPC   C1A 6449  29.485  26.072   6.014 -0.0612  0.0100 -0.1854
    1DIPC   D2A 6450  29.816  26.246   5.998  0.3048 -0.0132 -0.1709
    1DIPC   D3A 6451  30.039  25.944   6.200 -0.1476  0.1403  0.1119
    1DIPC   C4A 6452  30.330  25.671   5.952  0.0009  0.2109 -0.2347
    1DIPC   C1B 6453  28.897  26.028   5.875 -0.2350 -0.1019  0.0087
    1DIPC   D2B 6454  28.867  25.977   5.448  0.0013  0.2943  0.1072
    1DIPC   D3B 6455  28.880  26.020   4.938  0.2154  0.1494  0.1062
    1DIPC   C4B 6456  28.666  26.364   4.828 -0.1127  0.2284 -0.3788
    1DIPC   NC3 6457  18.555  17.543   6.823 -0.1068 -0.2536  0.2983
    1DIPC   PO4 6458  18.243  17.261   6.573  0.0407  0.1235 -0.1298
    1DIPC   GL1 6459  18.330  17.324   6.102  0.1792  0.2996 -0.2102
    1DIPC   GL2 6460  18.643  17.295   6.076  0.2821 -0.0565  0.2789
    1DIPC   C1A 6461  18.302  17.232   5.694 -0.0341  0.0935  0.2568
    1DIPC   D2A 6462  18.064  17.347   5.247 -0.0585  0.2677  0.0317
    1DIPC   D3A 6463  18.180  17.696   5.146 -0.1214  0.1830  0.0467
    1DIPC   C4A 6464  17.856  18.025   5.122 -0.1007  0.0055  0.0933
    1DIPC   C1B 6465  18.821  17.339   5.704  0.0313 -0.1209 -0.1636
    1DIPC   D2B 6466  19.113  17.249   5.451 -0.0837  0.0902  0.0606
    1DIPC   D3B 6467  19.434  17.128   5.131 -0.0621  0.2076  0.1467
    1DIPC   C4B 6468  19.668  16.823   5.288 -0.1304 -0.0213  0.1561
    1DIPC   NC3 6469  22.123  24.690   6.672  0.1282  0.0872  0.2012
    1DIPC   PO4 6470  21.927  24.634   6.226 -0.0608 -0.0135  0.1112
    1DIPC   GL1 6471  22.023  24.916   5.984  0.2557  0.1377  0.1486
    1DIPC   GL2 6472  22.229  25.064   6.177  0.1109 -0.2671  0.2292
    1DIPC   C1A 6473  22.351  24.955   5.717  0.0285  0.0047  0.1446
    1DIPC   D2A 6474  22.603  25.235   5.450 -0.0560  0.0266 -0.1416
    1DIPC   D3A 6475  22.649  25.595   5.166 -0.0353 -0.1417 -0.1125
    1DIPC   C4A 6476  22.975  25.723   5.019  0.0754  0.1876  0.3049
    1DIPC   C1B 6477  22.123  25.400   5.703  0.0296  0.2061  0.0318
    1DIPC   D2B 6478  22.116  25.612   5.333 -0.2852 -0.1695  0.2050
    1DIPC   D3B 6479  22.100  25.955   5.621 -0.2125 -0.0798 -0.0088
    1DIPC   C4B 6480  22.204  26.413   5.484 -0.1390 -0.1053  0.3878
    1DIPC   NC3 6481  29.620   4.452   6.933  0.2621  0.3491  0.2969
    1DIPC   PO4 6482  29.332   4.143   6.732 -0.0072 -0.0951 -0.1088
    1DIPC   GL1 6483  29.302   4.028   6.363  0.3813  0.0755  0.0902
    1DIPC   GL2 6484  29.356   4.227   6.107  0.2257 -0.0897 -0.0070
    1DIPC   C1A 6485  29.199   3.727   6.125  0.1189 -0.0849 -0.1568
    1DIPC   D2A 6486  29.297   3.446   5.853 -0.0928  0.0887  0.1582
    1DIPC   D3A 6487  28.988   3.364   5.639  0.3642 -0.1714 -0.1160
    1DIPC   C4A 6488  28.591   3.596   5.530 -0.0427  0.1788  0.2912
    1DIPC   C1B 6489  29.584   3.984   5.792 -0.0639  0.0672  0.1531
    1DIPC   D2B 6490  29.854   3.752   5.638 -0.1192  0.0845 -0.4541
    1DIPC   D3B 6491  29.987   3.825   5.163  0.3319  0.0012  0.4081
    1DIPC   C4B 6492  30.305   3.561   5.014  0.0413  0.1248  0.0211
    1DIPC   NC3 6493  24.990   8.298   6.528 -0.1873  0.1730 -0.0496
    1DIPC   PO4 6494  24.874   8.315   6.117  0.3752 -0.1119  0.2398
    1DIPC   GL1 6495  24.640   8.235   5.785  0.0608 -0.1357  0.0203
    1DIPC   GL2 6496  24.388   7.978   5.870 -0.3666  0.0056 -0.0217
    1DIPC   C1A 6497  24.417   8.312   5.414 -0.0796 -0.1230 -0.2483
    1DIPC   D2A 6498  24.369   8.264   4.990  0.0703  0.1321 -0.1061
    1DIPC   D3A 6499  24.705   8.332   4.777  0.0767  0.2143  0.2355
    1DIPC   C4A 6500  24.700   8.347   4.246 -0.0958  0.0932  0.4760
    1DIPC   C1B 6501  23.988   8.059   5.605  0.0252  0.0283  0.2357
    1DIPC   D2B 6502  23.771   7.813   5.298  0.1712  0.1823 -0.0020
    1DIPC   D3B 6503  23.657   7.427   5.354 -0.2409  0.0089  0.0480
    1DIPC   C4B 6504  23.486   7.170   5.128  0.0802  0.0976  0.1371
    1DIPC   NC3 6505   8.960  24.805   6.956 -0.1191  0.0685 -0.2594
    1DIPC   PO4 6506   9.110  24.529   6.710  0.2881 -0.1282  0.1385
    1DIPC   GL1 6507   9.098  24.897   6.495 -0.0984 -0.1745  0.1271
    1DIPC   GL2 6508   8.710  24.855   6.523 -0.3149  0.0360  0.0676
    1DIPC   C1A 6509   9.340  25.227   6.262  0.0696 -0.1090 -0.2332
    1DIPC   D2A 6510   9.438  25.349   5.761 -0.0111 -0.0385 -0.1951
    1DIPC   D3A 6511   9.091  25.200   5.522  0.2049 -0.2202 -0.3557
    1DIPC   C4A 6512   8.895  25.591   5.501 -0.0132  0.4618 -0.0304
    1DIPC   C1B 6513   8.613  24.684   6.124 -0.2286 -0.0339  0.2257
    1DIPC   D2B 6514   8.665  24.940   5.772  0.1033  0.4690 -0.0105
    1DIPC   D3B 6515   8.229  24.900   5.578 -0.2392 -0.5201 -0.4418
    1DIPC   C4B 6516   8.279  24.677   5.220  0.1545 -0.4346  0.0077
    1DIPC   NC3 6517  15.787  24.117   6.638 -0.0665  0.0658 -0.1967
    1DIPC   PO4 6518  16.143  24.305   6.290  0.1694  0.0507  0.2700
    1DIPC   GL1 6519  16.044  24.169   5.895  0.1987  0.1724 -0.3348
    1DIPC   GL2 6520  16.306  24.403   5.706 -0.2784  0.2216  0.1125
    1DIPC   C1A 6521  15.935  24.096   5.481 -0.1601 -0.0206 -0.0356
    1DIPC   D2A 6522  15.700  23.806   5.225  0.2097  0.0043  0.0944
    1DIPC   D3A 6523  15.887  24.038   4.940 -0.2680 -0.2621  0.0038
    1DIPC   C4A 6524  15.924  24.513   4.866  0.0830 -0.0895  0.0323
    1DIPC   C1B 6525  16.117  24.573   5.405 -0.2927  0.2733 -0.0018
    1DIPC   D2B 6526  15.935  24.972   5.379 -0.1054  0.4050  0.0943
    1DIPC   D3B 6527  15.494  24.934   5.143  0.2955  0.0765 -0.0531
    1DIPC   C4B 6528  15.423  24.575   4.803  0.1773  0.0017  0.2473
    1DIPC   NC3 6529  24.570  28.860   6.614  0.0749 -0.0611 -0.1035
    1DIPC   PO4 6530  24.959  29.170   6.805  0.1630 -0.1161 -0.0937
    1DIPC   GL1 6531  25.073  28.907   6.371  0.0075 -0.2872  0.1479
    1DIPC   GL2 6532  25.238  28.585   6.365  0.0390 -0.2746 -0.2162
    1DIPC   C1A 6533  25.195  29.031   5.963  0.1402  0.1347  0.0021
    1DIPC   D2A 6534  25.265  28.842   5.537 -0.3416 -0.0939  0.1748
    1DIPC   D3A 6535  25.540  29.128   5.265 -0.1309 -0.2905 -0.1731
    1DIPC   C4A 6536  25.588  29.172   4.863  0.2244  0.1332 -0.1293
    1DIPC   C1B 6537  24.838  28.429   6.299  0.0878  0.1945 -0.1031
    1DIPC   D2B 6538  24.431  28.446   6.143  0.3028 -0.0420 -0.2507
    1DIPC   D3B 6539  24.638  28.124   5.894 -0.3652 -0.0507 -0.1022
    1DIPC   C4B 6540  24.696  28.254   5.469 -0.1790  0.2654 -0.1875
    1DIPC   NC3 6541  24.137   6.498   7.205  0.1107 -0.2411  0.0708
    1DIPC   PO4 6542  24.387   6.353   6.860 -0.1082  0.1590 -0.0768
    1DIPC   GL1 6543  24.674   6.488   6.538  0.0072  0.0304 -0.1107
    1DIPC   GL2 6544  24.584   6.114   6.355 -0.2314  0.0197 -0.1579
    1DIPC   C1A 6545  24.907   6.501   6.275 -0.2361  0.1093 -0.4629
    1DIPC   D2A 6546  25.190   6.299   6.060 -0.0370  0.0425  0.1248
    1DIPC   D3A 6547  25.511   6.155   5.849  0.0232 -0.1323 -0.1785
    1DIPC   C4A 6548  25.829   6.058   6.094  0.2082 -0.4734 -0.0863
    1DIPC   C1B 6549  24.741   6.081   5.960 -0.2281 -0.0464  0.2931
    1DIPC   D2B 6550  24.999   5.896   5.602 -0.0058 -0.0770  0.0142
    1DIPC   D3B 6551  24.934   5.858   5.151  0.2917 -0.0783 -0.0917
    1DIPC   C4B 6552  24.846   5.803   4.708 -0.0033 -0.4456  0.2506
    1DIPC   NC3 6553  20.006  11.503   6.203  0.1718 -0.3907  0.1577
    1DIPC   PO4 6554  20.131  11.987   6.145  0.0257  0.3689  0.1008
    1DIPC   GL1 6555  19.844  11.808   5.854  0.0183  0.1475  0.0217
    1DIPC   GL2 6556  19.984  11.877   5.531  0.1291  0.1287 -0.0311
    1DIPC   C1A 6557  19.447  11.928   5.449 -0.0713 -0.1561 -0.1071
    1DIPC   D2A 6558  19.312  11.704   5.146  0.0255 -0.1980 -0.1104
    1DIPC   D3A 6559  19.420  11.740   4.769  0.0249 -0.2340 -0.0553
    1DIPC   C4A 6560  19.229  12.062   4.518 -0.1009  0.2338  0.0353
    1DIPC   C1B 6561  20.379  11.818   5.222  0.1302  0.0625  0.2678
    1DIPC   D2B 6562  20.800  11.608   5.137 -0.1144  0.0592  0.1439
    1DIPC   D3B 6563  20.665  11.821   4.789 -0.1543  0.0833  0.0617
    1DIPC   C4B 6564  20.661  11.631   4.383 -0.0921  0.0493 -0.1126
    1DIPC   NC3 6565  18.027   6.299   7.400 -0.0726  0.0337 -0.0982
    1DIPC   PO4 6566  18.405   6.639   7.483 -0.0115 -0.2710  0.0702
    1DIPC   GL1 6567  18.338   6.557   7.055  0.3503 -0.0133 -0.0725
    1DIPC   GL2 6568  18.600   6.545   6.862 -0.1750  0.0281  0.0967
    1DIPC   C1A 6569  18.203   6.137   6.714  0.0494  0.1312 -0.3506
    1DIPC   D2A 6570  17.862   6.193   6.530 -0.2179  0.1680 -0.0158
    1DIPC   D3A 6571  17.883   6.027   6.102 -0.3562 -0.4474 -0.2283
    1DIPC   C4A 6572  18.319   6.107   6.120 -0.0972  0.0882  0.0860
    1DIPC   C1B 6573  18.525   6.506   6.419  0.0778 -0.5085  0.1308
    1DIPC   D2B 6574  18.553   6.516   5.979 -0.1192  0.0065  0.0915
    1DIPC   D3B 6575  18.396   6.261   5.615  0.0256  0.3153 -0.2069
    1DIPC   C4B 6576  18.737   5.862   5.477 -0.0421 -0.0752 -0.2703
    1DIPC   NC3 6577  16.640  19.378   6.849 -0.3716  0.1511 -0.3074
    1DIPC   PO4 6578  16.889  19.636   6.596  0.0489 -0.1651  0.0826
    1DIPC   GL1 6579  16.852  19.637   6.134 -0.1063  0.1635  0.0814
    1DIPC   GL2 6580  16.607  19.572   5.990 -0.2264 -0.1666  0.1212
    1DIPC   C1A 6581  17.068  19.335   5.817  0.2499  0.1457  0.0864
    1DIPC   D2A 6582  17.256  19.412   5.525  0.2126 -0.0728 -0.0883
    1DIPC   D3A 6583  17.395  19.236   5.232 -0.1007  0.2097  0.0199
    1DIPC   C4A 6584  17.460  19.174   4.891  0.1789 -0.1300  0.0806
    1DIPC   C1B 6585  16.461  19.933   5.711 -0.1513  0.0586 -0.0224
    1DIPC   D2B 6586  16.338  20.308   5.942 -0.1991 -0.1591  0.4088
    1DIPC   D3B 6587  16.246  20.269   5.424  0.1379  0.0101  0.2638
    1DIPC   C4B 6588  16.492  20.628   5.249 -0.0753 -0.6038 -0.3137
    1DIPC   NC3 6589   3.358   6.354   6.806 -0.1368  0.1684  0.1992
    1DIPC   PO4 6590   3.230   5.981   6.843 -0.3507  0.1145  0.0976
    1DIPC   GL1 6591   3.244   5.976   6.376  0.2838 -0.0297 -0.3012
    1DIPC   GL2 6592   3.146   5.835   6.097 -0.1874 -0.1184  0.0550
    1DIPC   C1A 6593   3.621   6.048   6.092  0.0361 -0.2534 -0.2193
    1DIPC   D2A 6594   3.838   5.785   5.838  0.0320 -0.0494 -0.1092
    1DIPC   D3A 6595   4.354   5.909   5.808  0.3195  0.0620 -0.0881
    1DIPC   C4A 6596   4.575   6.138   5.509 -0.2933  0.3901 -0.0836
    1DIPC   C1B 6597   3.023   5.855   5.665  0.0896  0.1122  0.1676
    1DIPC   D2B 6598   3.342   6.091   5.435  0.1696  0.0128 -0.3150
    1DIPC   D3B 6599   3.514   6.442   5.702 -0.0463  0.2755  0.1476
    1DIPC   C4B 6600   3.507   6.964   5.697  0.0496 -0.0372  0.1398
    1DIPC   NC3 6601  21.544  28.325   7.112  0.0051  0.3728  0.2657
    1DIPC   PO4 6602  22.037  28.309   7.067  0.2464 -0.0511 -0.0755
    1DIPC   GL1 6603  21.901  28.509   6.733  0.3428 -0.1100  0.1952
    1DIPC   GL2 6604  22.137  28.288   6.590 -0.3069  0.0294 -0.0571
    1DIPC   C1A 6605  21.836  28.577   6.296 -0.1467  0.0888 -0.2937
    1DIPC   D2A 6606  21.619  28.541   5.944  0.2748 -0.1761 -0.0928
    1DIPC   D3A 6607  21.210  28.488   5.748  0.0502  0.0303 -0.1202
    1DIPC   C4A 6608  21.142  28.328   5.430  0.2869  0.0982  0.1731
    1DIPC   C1B 6609  22.168  28.188   6.151  0.1658  0.3061  0.1144
    1DIPC   D2B 6610  22.062  28.155   5.761  0.5161 -0.3068  0.1871
    1DIPC   D3B 6611  22.293  28.469   5.423 -0.0474 -0.0694 -0.1259
    1DIPC   C4B 6612  22.294  28.283   4.989  0.0320 -0.1544 -0.1497
    1DIPC   NC3 6613  29.489  23.886   6.172  0.1799 -0.4437 -0.2763
    1DIPC   PO4 6614  29.037  23.992   5.979  0.0407 -0.0922  0.4217
    1DIPC   GL1 6615  29.123  24.208   5.695 -0.1029  0.1698 -0.2647
    1DIPC   GL2 6616  29.152  24.524   5.590  0.1772 -0.2048 -0.1044
    1DIPC   C1A 6617  29.200  23.952   5.336  0.2996  0.5037 -0.0867
    1DIPC   D2A 6618  29.387  23.880   4.955  0.4276 -0.0731  0.3073
    1DIPC   D3A 6619  29.573  24.299   4.878 -0.1111  0.0407  0.0460
    1DIPC   C4A 6620  29.441  24.656   4.934  0.1258 -0.0028  0.0218
    1DIPC   C1B 6621  29.507  24.717   5.452 -0.0348  0.1671  0.3432
    1DIPC   D2B 6622  29.862  24.567   5.202 -0.1448  0.2113 -0.2554
    1DIPC   D3B 6623  30.325  24.646   5.229  0.0755  0.1136 -0.2036
    1DIPC   C4B 6624  30.488  24.825   5.534 -0.1700 -0.2145 -0.0108
    1DIPC   NC3 6625  27.072  27.585   6.767  0.1444  0.3131  0.0505
    1DIPC   PO4 6626  26.584  27.439   6.821 -0.0517  0.3619 -0.2140
    1DIPC   GL1 6627  26.461  27.477   6.423  0.0762  0.0464  0.3598
    1DIPC   GL2 6628  26.730  27.622   6.363 -0.1437  0.2338 -0.0507
    1DIPC   C1A 6629  26.178  27.536   6.014  0.0247  0.4346  0.2438
    1DIPC   D2A 6630  25.897  27.544   5.863  0.0079 -0.0626 -0.1802
    1DIPC   D3A 6631  26.055  27.419   5.414  0.1336  0.2249 -0.0163
    1DIPC   C4A 6632  25.974  27.436   5.062 -0.2375  0.1187  0.2182
    1DIPC   C1B 6633  26.633  27.499   5.920  0.0468 -0.1970  0.1202
    1DIPC   D2B 6634  26.427  27.160   5.624 -0.0793 -0.2729  0.1787
    1DIPC   D3B 6635  26.534  27.132   5.233 -0.0265  0.0937 -0.0840
    1DIPC   C4B 6636  26.938  27.097   5.161 -0.0428 -0.1229 -0.1783
    1DIPC   NC3 6637  11.248  15.596   6.856 -0.2049 -0.1817  0.0926
    1DIPC   PO4 6638  11.651  15.435   6.821 -0.3088 -0.0048 -0.0648
    1DIPC   GL1 6639  11.530  15.573   6.450 -0.4077 -0.0145 -0.0023
    1DIPC   GL2 6640  11.586  15.749   6.342 -0.1342 -0.1469  0.0085
    1DIPC   C1A 6641  11.437  15.356   6.033  0.1970 -0.1237  0.0149
    1DIPC   D2A 6642  11.386  15.323   5.607  0.1346  0.1734 -0.3256
    1DIPC   D3A 6643  11.049  15.042   5.552  0.0884 -0.5192  0.0514
    1DIPC   C4A 6644  10.757  14.953   5.335 -0.1100 -0.3209  0.2122
    1DIPC   C1B 6645  11.191  15.790   6.142 -0.1178 -0.0341  0.0982
    1DIPC   D2B 6646  10.651  15.954   6.251 -0.0648  0.0448  0.0243
    1DIPC   D3B 6647  10.334  16.016   5.819 -0.2234 -0.1268 -0.0371
    1DIPC   C4B 6648  10.337  15.770   5.464 -0.1351  0.1643 -0.0736
    1DIPC   NC3 6649  11.700   4.132   6.922  0.1053 -0.0742 -0.2241
    1DIPC   PO4 6650  12.083   4.044   6.892  0.5639 -0.3219 -0.3129
    1DIPC   GL1 6651  12.224   4.098   6.652 -0.1387  0.1324  0.0258
    1DIPC   GL2 6652  11.903   4.181   6.445  0.0445  0.0193 -0.0021
    1DIPC   C1A 6653  12.255   3.839   6.255  0.1157 -0.2835 -0.0730
    1DIPC   D2A 6654  12.603   3.849   5.864  0.2656  0.2837  0.0748
    1DIPC   D3A 6655  12.790   3.450   5.840  0.0624 -0.0364  0.0827
    1DIPC   C4A 6656  12.542   3.130   5.712  0.3354 -0.0270  0.1910
    1DIPC   C1B 6657  11.696   4.275   6.084  0.0904  0.1272 -0.3685
    1DIPC   D2B 6658  11.694   4.351   5.730 -0.0854  0.0706 -0.1058
    1DIPC   D3B 6659  11.805   4.046   5.411 -0.0114  0.1426  0.1672
    1DIPC   C4B 6660  11.557   3.644   5.284 -0.1419 -0.1844 -0.1580
    1DIPC   NC3 6661  14.382   7.279   7.409  0.1051 -0.1050  0.4594
    1DIPC   PO4 6662  14.022   7.005   7.169  0.0672 -0.0476 -0.2361
    1DIPC   GL1 6663  13.966   6.703   6.880 -0.0403 -0.1627  0.0717
    1DIPC   GL2 6664  14.221   6.608   6.745 -0.5188  0.0467 -0.0173
    1DIPC   C1A 6665  13.927   6.750   6.346  0.0633 -0.1326 -0.1358
    1DIPC   D2A 6666  13.637   6.898   5.957  0.0768  0.1539  0.2362
    1DIPC   D3A 6667  13.674   6.660   5.523  0.0297  0.0067  0.1755
    1DIPC   C4A 6668  13.482   6.391   5.157 -0.0799  0.0980 -0.0990
    1DIPC   C1B 6669  14.116   6.313   6.388  0.0326  0.2227 -0.0613
    1DIPC   D2B 6670  14.378   6.075   6.171  0.1738  0.0749 -0.0511
    1DIPC   D3B 6671  14.217   6.324   5.790 -0.1317  0.1337  0.1700
    1DIPC   C4B 6672  14.080   6.677   5.810  0.0943 -0.1953 -0.1989
    1DIPC   NC3 6673   7.112   5.362   7.945 -0.2723  0.3427 -0.1352
    1DIPC   PO4 6674   7.017   5.631   7.584 -0.0499  0.1995 -0.0842
    1DIPC   GL1 6675   6.888   5.599   7.117 -0.1576  0.2498 -0.2486
    1DIPC   GL2 6676   7.008   5.275   6.975 -0.0985  0.0164 -0.0919
    1DIPC   C1A 6677   6.742   5.672   6.722 -0.0851 -0.1940  0.3074
    1DIPC   D2A 6678   6.289   5.524   6.558 -0.0869 -0.1376  0.0429
    1DIPC   D3A 6679   6.488   5.676   6.137  0.0330 -0.0153 -0.4600
    1DIPC   C4A 6680   6.918   5.495   6.195  0.0279 -0.1242 -0.0152
    1DIPC   C1B 6681   7.211   5.457   6.585  0.0741  0.4031 -0.1174
    1DIPC   D2B 6682   7.182   5.144   6.398 -0.0397 -0.1026  0.0735
    1DIPC   D3B 6683   7.579   5.192   6.046  0.3556  0.0126  0.3111
    1DIPC   C4B 6684   7.853   5.508   5.886 -0.1505 -0.1764  0.3467
    1DIPC   NC3 6685  18.168   8.192   6.497  0.0858  0.1024 -0.0610
    1DIPC   PO4 6686  17.837   7.988   6.696 -0.0058 -0.0017 -0.0563
    1DIPC   GL1 6687  17.556   7.744   6.522 -0.2061 -0.0822  0.0309
    1DIPC   GL2 6688  17.665   7.551   6.323  0.1044  0.0202  0.2470
    1DIPC   C1A 6689  17.127   7.583   6.711 -0.2470  0.0773 -0.0039
    1DIPC   D2A 6690  16.739   7.765   6.619  0.1221  0.2519 -0.1312
    1DIPC   D3A 6691  16.480   7.555   6.341 -0.1904  0.1333  0.0175
    1DIPC   C4A 6692  16.145   7.311   6.572 -0.2170  0.1711  0.2159
    1DIPC   C1B 6693  17.873   7.426   5.972 -0.1290 -0.1468 -0.1607
    1DIPC   D2B 6694  18.059   6.965   5.926  0.0074 -0.0332 -0.0123
    1DIPC   D3B 6695  17.864   6.909   5.494  0.2398  0.0203  0.0778
    1DIPC   C4B 6696  17.992   6.478   5.351 -0.1414 -0.0413 -0.0301
    1DIPC   NC3 6697   6.313  25.161   6.857 -0.0956 -0.2364 -0.2370
    1DIPC   PO4 6698   5.986  24.843   6.620 -0.1347 -0.1281 -0.1117
    1DIPC   GL1 6699   5.941  24.932   6.213  0.1453  0.1958  0.2084
    1DIPC   GL2 6700   5.895  24.676   6.062 -0.1514 -0.0572  0.0688
    1DIPC   C1A 6701   5.854  25.308   5.936 -0.3189 -0.3637  0.2011
    1DIPC   D2A 6702   5.824  25.660   6.008  0.1085 -0.2073  0.1440
    1DIPC   D3A 6703   5.808  25.705   5.569  0.0408 -0.1939 -0.0582
    1DIPC   C4A 6704   5.608  26.040   5.430  0.2574  0.2040 -0.0688
    1DIPC   C1B 6705   5.919  24.872   5.741 -0.1835  0.1244  0.2671
    1DIPC   D2B 6706   6.156  25.195   5.514  0.1711 -0.1714  0.2220
    1DIPC   D3B 6707   6.382  25.484   5.779  0.0286  0.2184 -0.0651
    1DIPC   C4B 6708   6.236  25.843   5.543 -0.1662  0.1279  0.1307
    1DIPC   NC3 6709  27.038   8.521   6.172  0.1495  0.1055  0.1881
    1DIPC   PO4 6710  26.690   8.716   6.055 -0.2816  0.0433 -0.0717
    1DIPC   GL1 6711  26.521   8.342   5.937  0.1201  0.2071  0.0586
    1DIPC   GL2 6712  26.124   8.402   5.923 -0.0485 -0.1997 -0.2353
    1DIPC   C1A 6713  26.312   8.020   5.697  0.1754 -0.0137  0.0567
    1DIPC   D2A 6714  26.361   7.588   5.720  0.3415  0.0654 -0.0265
    1DIPC   D3A 6715  26.186   7.447   5.386 -0.0664  0.2176 -0.0264
    1DIPC   C4A 6716  26.103   7.663   4.904  0.0545  0.0511 -0.2717
    1DIPC   C1B 6717  26.070   8.590   5.540  0.1756  0.0848 -0.1520
    1DIPC   D2B 6718  25.923   8.554   5.135 -0.2424  0.0123  0.0070
    1DIPC   D3B 6719  25.706   8.366   4.920  0.1546  0.0702  0.0867
    1DIPC   C4B 6720  25.605   7.935   5.031 -0.3090  0.3505  0.1708
    1DIPC   NC3 6721  20.460  13.387   5.511  0.0214  0.2436  0.2559
    1DIPC   PO4 6722  20.977  13.450   5.708  0.0036  0.1071  0.2572
    1DIPC   GL1 6723  20.931  13.547   5.293  0.0560  0.0041 -0.1625
    1DIPC   GL2 6724  20.893  13.870   5.294 -0.0941  0.1130  0.1109
    1DIPC   C1A 6725  21.064  13.375   4.908  0.0373 -0.2526  0.2236
    1DIPC   D2A 6726  21.008  13.047   4.570 -0.1768  0.0406  0.0690
    1DIPC   D3A 6727  20.801  13.461   4.543  0.2012  0.0887  0.0803
    1DIPC   C4A 6728  20.483  13.548   4.180 -0.0660 -0.0801 -0.2158
    1DIPC   C1B 6729  20.793  13.950   4.872 -0.1079 -0.1225 -0.1733
    1DIPC   D2B 6730  20.827  13.941   4.458  0.0369 -0.2250 -0.1138
    1DIPC   D3B 6731  20.540  14.354   4.361  0.1192 -0.2767 -0.0311
    1DIPC   C4B 6732  20.042  14.261   4.463 -0.1172  0.0356  0.1665
    1DIPC   NC3 6733  17.180  11.772   6.117 -0.0318  0.1146  0.0890
    1DIPC   PO4 6734  17.514  12.081   6.345 -0.0097 -0.0862 -0.0061
    1DIPC   GL1 6735  17.660  12.000   5.929 -0.0310 -0.1261  0.1243
    1DIPC   GL2 6736  17.881  11.808   5.786 -0.2717  0.0182  0.3360
    1DIPC   C1A 6737  17.617  12.270   5.545 -0.1865 -0.4516 -0.0173
    1DIPC   D2A 6738  17.411  12.174   5.271  0.3680 -0.0323  0.1418
    1DIPC   D3A 6739  17.251  12.528   4.926  0.1272 -0.0883  0.0884
    1DIPC   C4A 6740  17.407  12.832   4.859 -0.2183  0.1206 -0.3007
    1DIPC   C1B 6741  18.032  12.015   5.460 -0.0269 -0.2187 -0.0080
    1DIPC   D2B 6742  18.021  12.240   5.075  0.1121  0.1512 -0.3618
    1DIPC   D3B 6743  17.900  12.041   4.695  0.3123 -0.0197 -0.0947
    1DIPC   C4B 6744  17.953  12.187   4.296  0.0449 -0.0846  0.0122
    1DIPC   NC3 6745  24.875  13.345   6.074 -0.0425 -0.2499  0.0870
    1DIPC   PO4 6746  24.927  13.567   5.637 -0.2560  0.0405  0.1064
    1DIPC   GL1 6747  25.050  13.296   5.304 -0.2278  0.1252 -0.1411
    1DIPC   GL2 6748  25.278  13.410   5.184  0.3477  0.1766 -0.0330
    1DIPC   C1A 6749  25.072  13.030   4.952 -0.1111 -0.0990  0.1396
    1DIPC   D2A 6750  25.084  13.049   4.631 -0.1914 -0.3169  0.2287
    1DIPC   D3A 6751  25.369  12.774   4.349  0.1303  0.0642  0.2098
    1DIPC   C4A 6752  25.549  12.987   4.033 -0.1240  0.0932 -0.0363
    1DIPC   C1B 6753  25.084  13.514   4.744 -0.0195 -0.0246  0.1037
    1DIPC   D2B 6754  25.099  13.607   4.302  0.0283  0.1959  0.1022
    1DIPC   D3B 6755  24.763  13.640   4.018 -0.1952  0.2359 -0.1190
    1DIPC   C4B 6756  24.474  13.526   3.657  0.2124 -0.0084 -0.0985
    1DIPC   NC3 6757  25.911  25.697   7.091 -0.0829  0.0734  0.1746
    1DIPC   PO4 6758  25.589  25.413   6.817 -0.2139 -0.0753 -0.0507
    1DIPC   GL1 6759  25.523  25.743   6.462 -0.0958  0.0887 -0.4500
    1DIPC   GL2 6760  25.875  25.783   6.541 -0.0193 -0.0211  0.3201
    1DIPC   C1A 6761  25.127  25.890   6.317  0.2286  0.0164  0.2040
    1DIPC   D2A 6762  24.769  26.007   6.044  0.0328  0.1114  0.1937
    1DIPC   D3A 6763  24.700  26.090   5.647  0.2903  0.1421  0.0739
    1DIPC   C4A 6764  24.413  25.928   5.338 -0.1036  0.1599 -0.1105
    1DIPC   C1B 6765  26.159  25.590   6.202 -0.4173 -0.1153  0.3344
    1DIPC   D2B 6766  26.539  25.585   6.012  0.1932  0.0326 -0.2704
    1DIPC   D3B 6767  26.413  25.942   5.830 -0.0814 -0.0872  0.0722
    1DIPC   C4B 6768  26.397  25.949   5.380 -0.0307 -0.0626  0.0121
    1DIPC   NC3 6769  26.534  12.050   6.687 -0.1732  0.0228  0.2968
    1DIPC   PO4 6770  26.339  11.858   6.293 -0.0218  0.4103  0.1026
    1DIPC   GL1 6771  26.450  12.211   6.142  0.0725 -0.1460  0.0785
    1DIPC   GL2 6772  26.148  12.382   5.985  0.2447  0.0597  0.2310
    1DIPC   C1A 6773  26.637  12.596   6.029 -0.1295  0.1961  0.0784
    1DIPC   D2A 6774  26.858  12.760   5.804 -0.1668  0.0806 -0.0036
    1DIPC   D3A 6775  26.684  12.685   5.393 -0.1186  0.0362  0.0646
    1DIPC   C4A 6776  26.247  12.755   5.600  0.1822 -0.1034  0.0451
    1DIPC   C1B 6777  25.920  12.299   5.628  0.0615 -0.0999 -0.0086
    1DIPC   D2B 6778  25.813  12.326   5.274 -0.1745 -0.2569  0.1166
    1DIPC   D3B 6779  25.395  12.109   5.216 -0.2724  0.0555 -0.2369
    1DIPC   C4B 6780  25.487  11.681   5.288 -0.1508  0.1936  0.3914
    1DIPC   NC3 6781  15.381   2.917   6.531 -0.2691 -0.0336  0.1501
    1DIPC   PO4 6782  14.902   2.908   6.543 -0.3734 -0.1055 -0.0631
    1DIPC   GL1 6783  14.845   2.748   6.187 -0.0191  0.3926 -0.1614
    1DIPC   GL2 6784  14.865   2.406   6.084 -0.2221 -0.3163  0.0831
    1DIPC   C1A 6785  14.408   2.853   5.932 -0.0053 -0.2196  0.1282
    1DIPC   D2A 6786  14.190   2.924   5.583  0.0182 -0.2673 -0.4379
    1DIPC   D3A 6787  14.603   3.010   5.304 -0.1448  0.3273  0.2703
    1DIPC   C4A 6788  14.818   3.207   5.517  0.4706  0.0324 -0.0989
    1DIPC   C1B 6789  14.841   2.122   5.706  0.0144 -0.2717 -0.1855
    1DIPC   D2B 6790  14.910   1.919   5.266 -0.0027 -0.0830 -0.2783
    1DIPC   D3B 6791  14.426   1.917   5.183 -0.0257 -0.2194  0.1539
    1DIPC   C4B 6792  14.271   1.606   4.912 -0.0734  0.1247  0.1283
    1DIPC   NC3 6793   7.270  24.831   6.667  0.0193  0.3029 -0.2237
    1DIPC   PO4 6794   7.006  25.188   6.454  0.0571 -0.3007 -0.1283
    1DIPC   GL1 6795   6.886  25.090   6.024  0.0677  0.0063 -0.0112
    1DIPC   GL2 6796   6.810  25.233   5.757  0.2679 -0.3368  0.1964
    1DIPC   C1A 6797   7.093  24.877   5.618  0.1067  0.0410 -0.3213
    1DIPC   D2A 6798   7.368  24.591   5.427 -0.0965  0.0091 -0.0086
    1DIPC   D3A 6799   7.082  24.551   5.091  0.0374 -0.0297 -0.1233
    1DIPC   C4A 6800   7.040  24.169   4.793  0.1893 -0.0424  0.3812
    1DIPC   C1B 6801   6.733  25.232   5.325 -0.3824 -0.1425 -0.4890
    1DIPC   D2B 6802   6.466  25.114   4.945 -0.1288  0.2860 -0.0897
    1DIPC   D3B 6803   6.056  25.252   4.761 -0.0352  0.0646  0.1104
    1DIPC   C4B 6804   5.864  24.923   4.823  0.2183 -0.0208  0.0239
    1DIPC   NC3 6805  19.521  15.190   6.654  0.2569 -0.4091 -0.0842
    1DIPC   PO4 6806  19.365  15.310   6.296  0.1498  0.0665  0.0411
    1DIPC   GL1 6807  19.400  15.440   5.939 -0.0500  0.2263 -0.0360
    1DIPC   GL2 6808  19.686  15.500   5.838 -0.0634  0.2117  0.1266
    1DIPC   C1A 6809  19.295  15.756   5.612 -0.2692  0.0215  0.1254
    1DIPC   D2A 6810  19.362  15.959   5.192  0.1751  0.0827  0.3093
    1DIPC   D3A 6811  19.343  15.976   4.857  0.0869 -0.0688  0.6938
    1DIPC   C4A 6812  18.985  16.085   4.618 -0.0827  0.2081 -0.1648
    1DIPC   C1B 6813  19.812  15.672   5.419 -0.1803 -0.3925  0.0947
    1DIPC   D2B 6814  19.973  15.745   4.997  0.1467  0.0880 -0.1220
    1DIPC   D3B 6815  19.809  16.113   4.690  0.1183 -0.2333  0.1817
    1DIPC   C4B 6816  19.762  16.415   4.459  0.2415  0.2528  0.0408
    1DIPC   NC3 6817  28.988  24.518   6.120 -0.0158  0.0156 -0.0954
    1DIPC   PO4 6818  28.900  24.849   5.909 -0.1205  0.0350  0.1359
    1DIPC   GL1 6819  28.990  25.000   5.512  0.0113 -0.1174 -0.0849
    1DIPC   GL2 6820  28.723  24.839   5.375 -0.2447  0.1729  0.0751
    1DIPC   C1A 6821  29.105  25.006   5.041  0.1000  0.0534  0.1432
    1DIPC   D2A 6822  29.307  25.159   4.634 -0.0863  0.2120 -0.0752
    1DIPC   D3A 6823  29.663  24.859   4.516 -0.3116  0.2348 -0.2201
    1DIPC   C4A 6824  30.012  24.711   4.792  0.1789  0.1938  0.1300
    1DIPC   C1B 6825  28.564  24.715   4.985 -0.5713 -0.2021  0.1163
    1DIPC   D2B 6826  28.352  24.360   4.831  0.1940 -0.0815  0.0219
    1DIPC   D3B 6827  28.662  24.029   4.689 -0.0837  0.0825  0.1101
    1DIPC   C4B 6828  29.052  24.090   4.638 -0.2643 -0.0018 -0.0583
    1DIPC   NC3 6829   1.564  29.219   6.242 -0.1027  0.0062  0.0834
    1DIPC   PO4 6830   1.236  29.004   6.233 -0.1391  0.1372  0.0958
    1DIPC   GL1 6831   1.386  28.962   5.780  0.0413  0.3282 -0.1376
    1DIPC   GL2 6832   1.513  29.227   5.734  0.1465 -0.0472 -0.1092
    1DIPC   C1A 6833   1.142  28.977   5.481 -0.0734 -0.0080 -0.2054
    1DIPC   D2A 6834   1.155  28.982   5.032 -0.2094 -0.1691  0.2024
    1DIPC   D3A 6835   0.920  28.560   4.738  0.0645  0.1426 -0.2631
    1DIPC   C4A 6836   0.999  28.092   4.706 -0.0580 -0.0276  0.2368
    1DIPC   C1B 6837   1.745  29.469   5.514 -0.0926 -0.1230 -0.0758
    1DIPC   D2B 6838   1.778  29.720   5.175 -0.2062  0.3858 -0.2638
    1DIPC   D3B 6839   1.844  30.039   5.369  0.0630 -0.1653 -0.1263
    1DIPC   C4B 6840   1.940  30.078   5.772 -0.3237  0.2917 -0.1567
    1DIPC   NC3 6841  16.189  29.628   6.707  0.0830 -0.1508 -0.0969
    1DIPC   PO4 6842  16.363  29.939   6.894  0.4563  0.0363 -0.1444
    1DIPC   GL1 6843  16.414  29.860   6.351  0.1442  0.0442  0.1317
    1DIPC   GL2 6844  16.490  30.141   6.195 -0.1962  0.1482  0.0557
    1DIPC   C1A 6845  16.131  29.926   5.906 -0.2848 -0.0814 -0.1521
    1DIPC   D2A 6846  16.003  29.803   5.382  0.1583  0.0967 -0.3966
    1DIPC   D3A 6847  16.290  29.789   5.011 -0.1279  0.1274 -0.3487
    1DIPC   C4A 6848  16.682  30.001   5.221 -0.3266  0.1293  0.0523
    1DIPC   C1B 6849  16.139  30.428   6.264 -0.1832  0.2082  0.2136
    1DIPC   D2B 6850  16.048  30.870   6.160  0.0754  0.2126  0.1099
    1DIPC   D3B 6851  16.077  31.010   5.850 -0.2654 -0.2136  0.2702
    1DIPC   C4B 6852  16.473  31.000   5.651  0.3416  0.1054  0.1342
    1DIPC   NC3 6853  28.660   4.735   6.080  0.0179 -0.0957 -0.4392
    1DIPC   PO4 6854  28.284   5.051   6.045  0.1254  0.1442  0.0622
    1DIPC   GL1 6855  28.207   4.895   5.708  0.1708  0.1401 -0.0338
    1DIPC   GL2 6856  28.337   5.162   5.583 -0.0863  0.1419  0.3135
    1DIPC   C1A 6857  28.347   4.678   5.430  0.0219 -0.3527  0.2813
    1DIPC   D2A 6858  28.293   4.187   5.126  0.1540 -0.0473  0.1116
    1DIPC   D3A 6859  28.285   4.100   4.706 -0.3908 -0.4670  0.1570
    1DIPC   C4A 6860  27.980   3.885   4.410 -0.0682  0.0275 -0.3720
    1DIPC   C1B 6861  28.739   4.965   5.447 -0.3490  0.3153 -0.2065
    1DIPC   D2B 6862  29.099   4.853   5.434  0.0867 -0.1560 -0.1963
    1DIPC   D3B 6863  29.000   4.858   4.961 -0.0253 -0.0995  0.0153
    1DIPC   C4B 6864  29.137   5.102   4.738 -0.1881  0.0049  0.0791
    1DIPC   NC3 6865   7.818   2.121   7.659 -0.1164 -0.0122  0.2237
    1DIPC   PO4 6866   7.819   2.517   7.597  0.2686  0.0370  0.0680
    1DIPC   GL1 6867   8.028   2.731   7.141 -0.0759 -0.3297 -0.2098
    1DIPC   GL2 6868   8.368   2.840   7.153 -0.1009  0.1501  0.2179
    1DIPC   C1A 6869   7.725   2.778   6.875 -0.1677 -0.3955  0.1678
    1DIPC   D2A 6870   7.577   2.643   6.492 -0.0055  0.0020 -0.0337
    1DIPC   D3A 6871   7.253   2.627   6.714  0.0509  0.0322 -0.2337
    1DIPC   C4A 6872   6.830   2.752   6.702 -0.0300  0.1018  0.0107
    1DIPC   C1B 6873   8.246   2.837   6.686 -0.0832  0.0854  0.0544
    1DIPC   D2B 6874   8.070   2.632   6.394 -0.1022 -0.0079 -0.0883
    1DIPC   D3B 6875   7.965   2.601   6.027  0.0852  0.2767  0.0083
    1DIPC   C4B 6876   8.242   2.287   5.750  0.0591  0.1455  0.0133
    1DIPC   NC3 6877  13.088  24.866   7.045  0.1237 -0.0769 -0.1194
    1DIPC   PO4 6878  13.426  24.636   6.957 -0.0861 -0.2411 -0.0962
    1DIPC   GL1 6879  13.639  24.547   6.531 -0.0819  0.1891 -0.0602
    1DIPC   GL2 6880  13.551  24.337   6.348  0.0973  0.0385 -0.0305
    1DIPC   C1A 6881  14.100  24.511   6.466  0.2136  0.0204  0.3894
    1DIPC   D2A 6882  14.481  24.513   6.194  0.0417  0.2805 -0.5550
    1DIPC   D3A 6883  14.371  24.644   5.804 -0.1045 -0.0460  0.0125
    1DIPC   C4A 6884  14.565  24.703   5.273  0.1602  0.2605 -0.1713
    1DIPC   C1B 6885  13.802  24.568   6.071  0.1463 -0.1000 -0.2862
    1DIPC   D2B 6886  13.727  24.478   5.688  0.0102  0.1475  0.3180
    1DIPC   D3B 6887  14.080  24.439   5.444 -0.3476  0.0711 -0.1304
    1DIPC   C4B 6888  14.055  24.798   5.170 -0.1336  0.1458 -0.1517
    1DIPC   NC3 6889  24.385  12.132   5.929 -0.2538 -0.0950  0.1429
    1DIPC   PO4 6890  23.981  12.024   5.626 -0.2203 -0.0769 -0.0791
    1DIPC   GL1 6891  24.073  11.868   5.159  0.1919 -0.0274  0.2378
    1DIPC   GL2 6892  23.774  11.756   5.091 -0.0012 -0.1398 -0.1602
    1DIPC   C1A 6893  24.085  11.883   4.734 -0.0620  0.2161 -0.0956
    1DIPC   D2A 6894  24.389  11.497   4.486  0.0235 -0.1898 -0.2143
    1DIPC   D3A 6895  24.138  11.195   4.492  0.1250  0.0001  0.2018
    1DIPC   C4A 6896  23.962  10.864   4.127  0.0627  0.1506  0.0385
    1DIPC   C1B 6897  23.707  11.560   4.663 -0.0668  0.0702  0.2453
    1DIPC   D2B 6898  23.718  11.356   4.155  0.1744 -0.1330 -0.0050
    1DIPC   D3B 6899  24.099  11.333   3.929 -0.0892 -0.0246 -0.1354
    1DIPC   C4B 6900  24.545  11.591   3.974 -0.0964 -0.1269 -0.1023
    1DIPC   NC3 6901  15.787   5.064   7.504 -0.2184 -0.1694  0.2311
    1DIPC   PO4 6902  15.502   5.224   7.106 -0.0837 -0.1095 -0.1745
    1DIPC   GL1 6903  15.097   5.281   6.826  0.0723 -0.3294  0.0532
    1DIPC   GL2 6904  15.298   5.205   6.556 -0.4189  0.2750  0.1117
    1DIPC   C1A 6905  14.810   5.427   6.364  0.0050  0.0016 -0.3979
    1DIPC   D2A 6906  14.937   5.529   5.882  0.1149 -0.1573  0.1113
    1DIPC   D3A 6907  15.154   5.868   5.888  0.3147 -0.1749 -0.0308
    1DIPC   C4A 6908  15.081   6.196   5.472  0.0926 -0.3037  0.1712
    1DIPC   C1B 6909  15.550   5.217   6.212  0.2922  0.0939  0.1996
    1DIPC   D2B 6910  15.720   5.207   5.803 -0.1881 -0.0257  0.2029
    1DIPC   D3B 6911  15.434   5.474   5.725 -0.0626  0.2275 -0.2883
    1DIPC   C4B 6912  15.474   5.897   5.531 -0.0146 -0.0562 -0.0744
    1DIPC   NC3 6913  13.831  15.878   6.883  0.2638 -0.0525 -0.1478
    1DIPC   PO4 6914  13.382  15.880   6.694  0.0341 -0.0967  0.0049
    1DIPC   GL1 6915  13.338  16.098   6.297  0.1461 -0.2614  0.2140
    1DIPC   GL2 6916  13.419  16.371   6.333  0.3291  0.1171  0.0214
    1DIPC   C1A 6917  13.501  15.847   5.934  0.2623 -0.0107 -0.1967
    1DIPC   D2A 6918  13.391  15.769   5.491  0.0075 -0.0026  0.1950
    1DIPC   D3A 6919  13.540  16.045   5.108  0.0245  0.1505 -0.2923
    1DIPC   C4A 6920  13.593  16.550   5.230 -0.1537  0.0050 -0.0225
    1DIPC   C1B 6921  13.603  16.404   5.882  0.0964  0.1703 -0.0752
    1DIPC   D2B 6922  13.655  16.148   5.598 -0.0254  0.1753 -0.0813
    1DIPC   D3B 6923  14.048  16.209   5.483 -0.2655  0.1064 -0.1950
    1DIPC   C4B 6924  14.395  16.035   5.701 -0.0757 -0.0881 -0.1955
    1DIPC   NC3 6925  19.113   9.163   6.726 -0.0193  0.3159 -0.0212
    1DIPC   PO4 6926  19.452   9.405   6.663 -0.1999 -0.0803  0.0398
    1DIPC   GL1 6927  19.351   9.329   6.240  0.1545  0.2160 -0.1031
    1DIPC   GL2 6928  19.123   9.048   6.231  0.0012 -0.4271  0.0225
    1DIPC   C1A 6929  19.021   9.468   5.880 -0.0048  0.1733  0.0716
    1DIPC   D2A 6930  18.988   9.936   5.597  0.1372  0.2568 -0.2607
    1DIPC   D3A 6931  19.240  10.000   5.178 -0.1780 -0.2981  0.1391
    1DIPC   C4A 6932  19.210  10.215   4.804 -0.0174 -0.1644 -0.1123
    1DIPC   C1B 6933  19.181   8.935   5.743 -0.0263  0.1186  0.4584
    1DIPC   D2B 6934  19.249   9.039   5.265 -0.1401 -0.2478 -0.2859
    1DIPC   D3B 6935  19.717   9.038   5.335  0.1860  0.1843 -0.4579
    1DIPC   C4B 6936  19.893   8.803   5.557  0.0257 -0.3718 -0.3801
    1DIPC   NC3 6937  16.058  24.767   6.539  0.0021  0.0090  0.3562
    1DIPC   PO4 6938  15.588  24.630   6.646 -0.3118 -0.1194 -0.0490
    1DIPC   GL1 6939  15.666  24.682   6.156  0.1329  0.1292 -0.2812
    1DIPC   GL2 6940  15.312  24.689   6.191 -0.4628 -0.1925 -0.0515
    1DIPC   C1A 6941  15.732  24.607   5.718 -0.0779  0.0944 -0.2142
    1DIPC   D2A 6942  15.603  24.437   5.245 -0.2865 -0.2047 -0.0300
    1DIPC   D3A 6943  15.422  24.096   4.933 -0.2205  0.1882 -0.2006
    1DIPC   C4A 6944  14.970  24.216   4.727  0.0207 -0.5278  0.0849
    1DIPC   C1B 6945  15.216  24.613   5.690 -0.0023  0.2234 -0.1514
    1DIPC   D2B 6946  15.135  24.550   5.208  0.0321 -0.2300 -0.1430
    1DIPC   D3B 6947  15.001  24.899   5.028 -0.3040  0.1272  0.1409
    1DIPC   C4B 6948  14.544  25.052   4.964  0.1382  0.1587 -0.2791
    1DIPC   NC3 6949  21.302   2.724   7.568  0.1979 -0.2366  0.2411
    1DIPC   PO4 6950  21.758   2.672   7.300 -0.1729 -0.2088  0.1794
    1DIPC   GL1 6951  21.778   2.645   6.877 -0.1521  0.2502 -0.0230
    1DIPC   GL2 6952  21.926   2.437   6.709 -0.1608  0.0633  0.2069
    1DIPC   C1A 6953  21.800   2.918   6.443 -0.0889  0.3344  0.3759
    1DIPC   D2A 6954  21.990   3.237   6.226 -0.1054  0.2690  0.2405
    1DIPC   D3A 6955  22.208   3.245   6.578  0.3269 -0.0002  0.1023
    1DIPC   C4A 6956  22.448   3.646   6.596  0.1041  0.1939 -0.2500
    1DIPC   C1B 6957  22.111   2.421   6.247 -0.1593  0.0279  0.0552
    1DIPC   D2B 6958  22.118   2.148   5.791 -0.3643  0.2523 -0.1312
    1DIPC   D3B 6959  21.806   1.833   5.957 -0.0360 -0.1770  0.1783
    1DIPC   C4B 6960  21.414   1.764   6.153  0.0988 -0.0141  0.2034
    1DIPC   NC3 6961  28.692   1.038   7.025 -0.1602 -0.2742 -0.1386
    1DIPC   PO4 6962  28.721   0.602   6.778  0.0949 -0.3293 -0.2003
    1DIPC   GL1 6963  28.526   0.355   6.460 -0.1865  0.1365  0.2800
    1DIPC   GL2 6964  28.252   0.200   6.536 -0.1131 -0.3004  0.1023
    1DIPC   C1A 6965  28.375   0.173   5.969 -0.1314 -0.1599  0.0332
    1DIPC   D2A 6966  28.445  -0.181   5.704  0.3331 -0.0230  0.0952
    1DIPC   D3A 6967  28.331  -0.252   5.344  0.3945 -0.0574 -0.1893
    1DIPC   C4A 6968  28.267   0.047   5.104  0.0373 -0.0421 -0.2060
    1DIPC   C1B 6969  28.050   0.445   6.168  0.0419  0.3546  0.2267
    1DIPC   D2B 6970  28.335   0.650   5.825 -0.0932  0.0488  0.3426
    1DIPC   D3B 6971  28.376   1.146   5.756 -0.4146 -0.0651  0.1367
    1DIPC   C4B 6972  28.552   1.310   5.316 -0.1756  0.0927  0.1050
    1DIPC   NC3 6973  23.754   4.140   7.780 -0.0407  0.1597  0.0743
    1DIPC   PO4 6974  23.422   4.196   7.424 -0.0944 -0.2832  0.1309
    1DIPC   GL1 6975  23.303   4.100   7.126 -0.3175  0.2251 -0.1602
    1DIPC   GL2 6976  23.115   4.402   7.042 -0.0388 -0.0116 -0.1107
    1DIPC   C1A 6977  23.247   4.009   6.721 -0.1541  0.0542 -0.2768
    1DIPC   D2A 6978  22.876   4.020   6.380  0.1868 -0.2041  0.2342
    1DIPC   D3A 6979  22.760   4.123   5.884  0.1892  0.1336  0.0725
    1DIPC   C4A 6980  23.000   4.115   5.527 -0.2577 -0.0030  0.0354
    1DIPC   C1B 6981  23.382   4.547   6.711 -0.0462  0.0636  0.1303
    1DIPC   D2B 6982  23.467   4.875   6.608 -0.0827 -0.1285 -0.0381
    1DIPC   D3B 6983  23.583   5.066   6.155  0.1126  0.1241  0.2440
    1DIPC   C4B 6984  23.690   5.513   5.965 -0.0875  0.1095 -0.0316
    1DIPC   NC3 6985  14.019  21.404   6.259  0.0084 -0.0204 -0.1616
    1DIPC   PO4 6986  13.636  21.377   6.173 -0.0420 -0.1007 -0.0250
    1DIPC   GL1 6987  13.355  21.682   5.932  0.0608 -0.0876  0.1047
    1DIPC   GL2 6988  13.481  21.792   5.669  0.1053  0.0823  0.2762
    1DIPC   C1A 6989  12.932  21.594   5.948 -0.2710 -0.3450  0.3941
    1DIPC   D2A 6990  12.580  21.312   5.954 -0.0326  0.0977 -0.2333
    1DIPC   D3A 6991  12.484  21.425   5.612 -0.4854 -0.1259  0.2040
    1DIPC   C4A 6992  12.632  21.439   5.204  0.0567  0.1266  0.0035
    1DIPC   C1B 6993  13.822  21.632   5.581  0.1939  0.3385 -0.1247
    1DIPC   D2B 6994  14.039  21.686   5.273  0.1140  0.2596 -0.0835
    1DIPC   D3B 6995  14.386  21.735   5.091  0.1804 -0.3304 -0.3427
    1DIPC   C4B 6996  14.564  21.517   4.770  0.1368 -0.1197 -0.0500
    1DIPC   NC3 6997   9.207  23.902   6.714 -0.0705  0.1720  0.3183
    1DIPC   PO4 6998   8.684  23.811   6.638 -0.1690  0.0834  0.3591
    1DIPC   GL1 6999   8.534  23.642   6.188  0.1676  0.0558 -0.0184
    1DIPC   GL2 7000   8.669  23.259   5.976  0.1745  0.0907 -0.1255
    1DIPC   C1A 7001   8.795  23.763   5.870  0.0986 -0.0222  0.2528
    1DIPC   D2A 7002   8.801  23.820   5.384 -0.0831 -0.1120  0.0974
    1DIPC   D3A 7003   9.069  24.108   5.368 -0.1058  0.3493  0.1879
    1DIPC   C4A 7004   9.117  24.437   5.051  0.2223 -0.2128 -0.2270
    1DIPC   C1B 7005   8.810  23.296   5.612 -0.0362 -0.2384  0.0286
    1DIPC   D2B 7006   8.710  23.278   5.242 -0.2103 -0.1937  0.2004
    1DIPC   D3B 7007   8.577  23.042   4.886  0.0523  0.1086  0.1967
    1DIPC   C4B 7008   8.285  23.273   4.662 -0.2159 -0.2863  0.0143
    1DIPC   NC3 7009   7.178   6.151   7.534  0.3094  0.0796  0.2620
    1DIPC   PO4 7010   7.411   6.271   7.210  0.1278 -0.0157  0.1643
    1DIPC   GL1 7011   7.385   6.145   6.710 -0.1321 -0.0901 -0.1980
    1DIPC   GL2 7012   7.148   5.908   6.669 -0.0835 -0.1325 -0.1747
    1DIPC   C1A 7013   7.280   6.363   6.305 -0.3096  0.1681  0.1594
    1DIPC   D2A 7014   7.115   6.487   5.894  0.2434  0.3006  0.3226
    1DIPC   D3A 7015   7.525   6.524   5.901  0.1045 -0.3248  0.2546
    1DIPC   C4A 7016   7.643   6.410   5.530  0.0779 -0.0156 -0.2277
    1DIPC   C1B 7017   6.971   5.976   6.249  0.1190 -0.2969  0.2774
    1DIPC   D2B 7018   7.001   5.905   5.741  0.0689 -0.0511 -0.1937
    1DIPC   D3B 7019   7.160   6.178   5.493 -0.0679 -0.2033 -0.1605
    1DIPC   C4B 7020   7.153   6.614   5.396  0.0996 -0.0280 -0.0329
    1DIPC   NC3 7021  12.071   5.000   7.428 -0.0169 -0.3317  0.4127
    1DIPC   PO4 7022  12.270   4.608   7.313  0.1529 -0.0072 -0.1809
    1DIPC   GL1 7023  12.274   4.578   6.906 -0.1947  0.0188  0.1881
    1DIPC   GL2 7024  12.005   4.564   6.749  0.2933 -0.3027  0.5068
    1DIPC   C1A 7025  12.287   4.883   6.474 -0.1520  0.3203  0.0518
    1DIPC   D2A 7026  12.168   4.878   6.101  0.2064  0.2019  0.0654
    1DIPC   D3A 7027  11.989   4.871   5.644 -0.0994 -0.2053 -0.0214
    1DIPC   C4A 7028  12.030   4.498   5.382  0.0877  0.2369  0.0343
    1DIPC   C1B 7029  11.773   4.727   6.404 -0.2728  0.0370 -0.0571
    1DIPC   D2B 7030  11.432   4.713   6.103 -0.0831 -0.1804 -0.1694
    1DIPC   D3B 7031  11.699   5.176   6.051  0.2669  0.2939 -0.0923
    1DIPC   C4B 7032  11.995   5.335   6.415 -0.0531 -0.1149  0.0650
    1DIPC   NC3 7033  13.284   5.629   6.864 -0.0432 -0.1344 -0.0378
    1DIPC   PO4 7034  13.492   5.249   6.691  0.1519 -0.1005 -0.2332
    1DIPC   GL1 7035  13.401   5.071   6.358 -0.3177 -0.1181  0.1931
    1DIPC   GL2 7036  13.202   4.773   6.289 -0.1534 -0.1899  0.0437
    1DIPC   C1A 7037  13.306   5.152   5.904 -0.1060 -0.2868 -0.0037
    1DIPC   D2A 7038  13.669   5.205   5.603  0.1340 -0.1485 -0.0737
    1DIPC   D3A 7039  13.473   5.480   5.521  0.0753  0.0495 -0.1297
    1DIPC   C4A 7040  13.405   5.499   5.061 -0.0870 -0.5015  0.2015
    1DIPC   C1B 7041  12.970   4.826   5.816  0.0063 -0.1069  0.1104
    1DIPC   D2B 7042  12.939   5.087   5.440  0.0520  0.2065 -0.2727
    1DIPC   D3B 7043  12.670   4.870   5.227  0.0194 -0.1178 -0.1489
    1DIPC   C4B 7044  12.912   4.599   4.807  0.3042  0.0848  0.4832
    1DIPC   NC3 7045  29.555   3.839   7.207 -0.1765 -0.0831  0.4277
    1DIPC   PO4 7046  29.776   3.941   6.859 -0.2310 -0.0364  0.1731
    1DIPC   GL1 7047  29.834   3.929   6.533 -0.1098  0.0415  0.0144
    1DIPC   GL2 7048  29.810   4.292   6.494 -0.1137 -0.1026  0.0307
    1DIPC   C1A 7049  29.870   3.761   6.185 -0.0564  0.0026  0.2373
    1DIPC   D2A 7050  30.265   3.687   5.902  0.1584 -0.0595  0.2158
    1DIPC   D3A 7051  30.155   3.322   5.453 -0.0566 -0.0750  0.0969
    1DIPC   C4A 7052  30.553   3.168   5.258  0.1397  0.0712  0.1859
    1DIPC   C1B 7053  29.915   4.278   6.021  0.3498  0.3522  0.0042
    1DIPC   D2B 7054  30.416   4.163   6.041 -0.2148 -0.1646 -0.0431
    1DIPC   D3B 7055  30.568   4.333   5.564 -0.0599  0.1983  0.2244
    1DIPC   C4B 7056  31.003   4.090   5.422 -0.0913 -0.0375  0.3740
    1DIPC   NC3 7057  18.154   4.940   6.629 -0.0493  0.4238 -0.1320
    1DIPC   PO4 7058  18.499   4.616   6.725  0.1348  0.0524 -0.2118
    1DIPC   GL1 7059  18.637   4.651   6.405  0.2556 -0.0390  0.1506
    1DIPC   GL2 7060  18.464   4.823   6.268 -0.0523 -0.1776  0.1329
    1DIPC   C1A 7061  18.952   4.643   6.047  0.1278  0.2408  0.1300
    1DIPC   D2A 7062  18.803   4.599   5.666  0.1453 -0.2744 -0.1405
    1DIPC   D3A 7063  19.225   4.585   5.597  0.0082  0.1244  0.0282
    1DIPC   C4A 7064  19.661   4.799   5.485 -0.0470 -0.1843  0.0036
    1DIPC   C1B 7065  18.373   5.054   5.870 -0.0673  0.1278 -0.2820
    1DIPC   D2B 7066  17.971   5.129   5.620  0.0916  0.0711  0.4665
    1DIPC   D3B 7067  17.967   4.967   5.367  0.0776 -0.0677  0.0808
    1DIPC   C4B 7068  17.604   4.782   5.314  0.1239  0.1240  0.1739
    1DIPC   NC3 7069  23.643  20.950   5.854  0.0288 -0.2114  0.0526
    1DIPC   PO4 7070  23.781  21.220   5.627  0.0781  0.1278 -0.1989
    1DIPC   GL1 7071  23.721  21.300   5.211  0.0532  0.2257  0.2411
    1DIPC   GL2 7072  24.067  21.409   5.138 -0.1444 -0.2652 -0.3222
    1DIPC   C1A 7073  23.830  21.100   4.815  0.1554 -0.2173  0.2038
    1DIPC   D2A 7074  23.954  21.107   4.394  0.1768 -0.0876  0.3890
    1DIPC   D3A 7075  23.741  21.583   4.453  0.0032 -0.0862  0.0414
    1DIPC   C4A 7076  23.700  21.605   4.870 -0.1906 -0.3425  0.1431
    1DIPC   C1B 7077  24.159  21.423   4.690  0.0277  0.1297  0.1275
    1DIPC   D2B 7078  24.460  21.303   4.400 -0.2348 -0.0813  0.2887
    1DIPC   D3B 7079  24.282  21.400   4.080 -0.1465  0.2029 -0.1163
    1DIPC   C4B 7080  23.803  21.449   3.963 -0.0627  0.0608  0.0753
    1DIPC   NC3 7081  11.703  23.214   6.075 -0.1885  0.3602 -0.2079
    1DIPC   PO4 7082  11.961  22.830   6.002  0.0462 -0.0993 -0.0930
    1DIPC   GL1 7083  12.143  22.662   5.567  0.1307 -0.2805  0.2049
    1DIPC   GL2 7084  12.259  22.400   5.415 -0.2507  0.1210 -0.1758
    1DIPC   C1A 7085  12.547  22.699   5.257 -0.1554 -0.1431 -0.0624
    1DIPC   D2A 7086  12.694  22.918   4.920  0.0942 -0.2376 -0.0105
    1DIPC   D3A 7087  12.357  23.253   4.727  0.1659  0.0516 -0.2107
    1DIPC   C4A 7088  11.862  23.343   4.584  0.1839  0.0454 -0.0954
    1DIPC   C1B 7089  12.195  22.453   4.953  0.0278  0.0335 -0.1020
    1DIPC   D2B 7090  12.400  22.592   4.618  0.0229  0.2556  0.2274
    1DIPC   D3B 7091  12.049  22.344   4.414 -0.0259  0.0246 -0.2812
    1DIPC   C4B 7092  12.064  22.157   4.035 -0.0874  0.0177 -0.0204
    1DIPC   NC3 7093   6.641   3.279   7.114 -0.0498  0.0372  0.1932
    1DIPC   PO4 7094   6.453   3.582   6.886  0.1469 -0.2185 -0.1779
    1DIPC   GL1 7095   6.665   3.624   6.317 -0.3812  0.1986 -0.0257
    1DIPC   GL2 7096   6.569   3.922   6.229  0.0098  0.2296  0.0311
    1DIPC   C1A 7097   6.585   3.546   5.880 -0.4326 -0.2835 -0.1914
    1DIPC   D2A 7098   6.828   3.686   5.611  0.1350  0.0503  0.1719
    1DIPC   D3A 7099   7.115   3.566   5.469 -0.0223 -0.1754  0.2170
    1DIPC   C4A 7100   7.121   3.778   5.088 -0.1073 -0.1018  0.2597
    1DIPC   C1B 7101   6.654   4.081   5.806  0.1084  0.1307 -0.3820
    1DIPC   D2B 7102   6.623   4.429   5.584 -0.1506 -0.0034  0.1819
    1DIPC   D3B 7103   6.892   4.303   5.285  0.2006 -0.0446 -0.0909
    1DIPC   C4B 7104   7.160   4.090   5.571 -0.0019  0.1080  0.1100
    1DIPC   NC3 7105  21.526   8.563   6.694 -0.0754 -0.1059 -0.0212
    1DIPC   PO4 7106  21.284   8.204   6.751  0.1938  0.1487  0.0993
    1DIPC   GL1 7107  21.023   8.154   6.455 -0.2257 -0.2448  0.0197
    1DIPC   GL2 7108  20.732   8.026   6.447  0.1387 -0.1889 -0.3395
    1DIPC   C1A 7109  21.051   8.295   6.011  0.1141 -0.0938  0.2130
    1DIPC   D2A 7110  21.249   8.528   5.792  0.0128  0.1024 -0.0491
    1DIPC   D3A 7111  21.067   8.906   5.840 -0.1558  0.1402  0.1323
    1DIPC   C4A 7112  21.266   9.209   5.776  0.0579 -0.0080  0.1289
    1DIPC   C1B 7113  20.712   7.915   6.062 -0.0978  0.0918 -0.0926
    1DIPC   D2B 7114  20.533   7.982   5.779 -0.2708 -0.2972  0.0096
    1DIPC   D3B 7115  20.797   7.992   5.444  0.2797 -0.1800 -0.3464
    1DIPC   C4B 7116  20.779   7.558   5.261 -0.2545  0.1771 -0.0282
    1DIPC   NC3 7117  14.275   2.585   6.913 -0.2657 -0.3370 -0.3515
    1DIPC   PO4 7118  13.934   2.806   6.723  0.0257  0.4196  0.1114
    1DIPC   GL1 7119  13.814   2.594   6.335  0.0958  0.1341  0.0826
    1DIPC   GL2 7120  13.663   2.346   6.283 -0.0525  0.0053  0.3817
    1DIPC   C1A 7121  14.083   2.494   5.900  0.0809 -0.1637  0.0008
    1DIPC   D2A 7122  14.333   2.258   5.608  0.0756  0.1657 -0.0439
    1DIPC   D3A 7123  14.383   2.494   5.259  0.2639 -0.0672 -0.0227
    1DIPC   C4A 7124  14.707   2.357   5.111  0.0351 -0.0026  0.0881
    1DIPC   C1B 7125  13.613   2.457   5.822 -0.0921  0.2153 -0.2264
    1DIPC   D2B 7126  13.889   2.492   5.430  0.0529  0.0647 -0.0025
    1DIPC   D3B 7127  13.538   2.341   5.143  0.0577  0.0054  0.2063
    1DIPC   C4B 7128  13.301   1.938   5.045  0.5715 -0.1298 -0.1843
    1DIPC   NC3 7129  12.248  23.574   6.324 -0.0625 -0.3003 -0.0203
    1DIPC   PO4 7130  12.104  23.992   6.131 -0.1159 -0.3778  0.0451
    1DIPC   GL1 7131  12.287  24.265   5.936  0.2638  0.0382  0.0959
    1DIPC   GL2 7132  12.589  24.198   5.836 -0.1224  0.2016 -0.0685
    1DIPC   C1A 7133  12.261  24.594   5.822  0.1930 -0.1196  0.1294
    1DIPC   D2A 7134  12.142  24.731   5.401  0.0190  0.1014  0.1031
    1DIPC   D3A 7135  11.972  24.365   5.303  0.2296 -0.0874  0.2045
    1DIPC   C4A 7136  12.147  24.483   4.923 -0.1588  0.0163  0.3299
    1DIPC   C1B 7137  12.496  24.241   5.469 -0.4173 -0.3330  0.0274
    1DIPC   D2B 7138  12.713  24.532   5.159 -0.0780  0.1835  0.1555
    1DIPC   D3B 7139  12.654  24.438   4.712  0.1261  0.4509  0.0063
    1DIPC   C4B 7140  12.295  24.231   4.476 -0.0830  0.0404 -0.0456
    1DIPC   NC3 7141   1.233  27.930   6.918 -0.1125 -0.5388  0.0377
    1DIPC   PO4 7142   1.073  27.577   6.718 -0.2315 -0.0161 -0.2144
    1DIPC   GL1 7143   1.006  27.280   6.342  0.2658  0.0736 -0.0390
    1DIPC   GL2 7144   0.946  27.577   6.122 -0.2552  0.1979  0.0821
    1DIPC   C1A 7145   1.006  26.918   6.195 -0.1722 -0.1863  0.4123
    1DIPC   D2A 7146   1.043  26.620   5.916 -0.0225 -0.2519 -0.0071
    1DIPC   D3A 7147   0.984  26.172   5.752  0.0513  0.0971 -0.1055
    1DIPC   C4A 7148   0.727  26.269   5.310  0.2965 -0.1754  0.1766
    1DIPC   C1B 7149   1.179  27.380   5.874 -0.0422 -0.0888 -0.1780
    1DIPC   D2B 7150   1.304  26.956   5.650  0.1113 -0.2247 -0.1014
    1DIPC   D3B 7151   1.254  27.189   5.290  0.0245  0.2013 -0.2110
    1DIPC   C4B 7152   1.459  27.543   5.244 -0.0827 -0.0181  0.1297
    1DIPC   NC3 7153   8.890   4.982   7.069 -0.0904  0.2521  0.1129
    1DIPC   PO4 7154   8.660   4.713   7.326 -0.0336  0.0373  0.1247
    1DIPC   GL1 7155   8.783   4.461   6.973  0.3553  0.0442  0.1757
    1DIPC   GL2 7156   8.543   4.601   6.817  0.1331 -0.0325  0.1312
    1DIPC   C1A 7157   8.762   4.264   6.617 -0.3421  0.1919  0.1769
    1DIPC   D2A 7158   8.868   4.029   6.257  0.0834 -0.0881  0.3181
    1DIPC   D3A 7159   8.542   3.878   6.068  0.1900  0.2103 -0.0603
    1DIPC   C4A 7160   8.329   3.532   6.071 -0.0642 -0.2132  0.1593
    1DIPC   C1B 7161   8.763   4.769   6.406 -0.2855  0.0020 -0.1126
    1DIPC   D2B 7162   8.942   4.493   6.071 -0.0459  0.0483 -0.0231
    1DIPC   D3B 7163   9.322   4.531   5.856  0.2973 -0.0542  0.0983
    1DIPC   C4B 7164   9.364   4.704   5.404 -0.0791 -0.1703  0.0611
    1DIPC   NC3 7165  28.268  27.013   6.767  0.3032  0.0421  0.1653
    1DIPC   PO4 7166  27.883  27.322   6.831 -0.0586  0.1290  0.3994
    1DIPC   GL1 7167  27.955  27.167   6.423 -0.2427 -0.0463  0.1290
    1DIPC   GL2 7168  28.045  26.782   6.383 -0.1772 -0.3577  0.2737
    1DIPC   C1A 7169  28.057  27.190   6.060  0.2304  0.3234 -0.1113
    1DIPC   D2A 7170  27.830  27.408   5.671 -0.0351  0.2407  0.0312
    1DIPC   D3A 7171  27.557  27.324   5.791 -0.0334  0.0545  0.0082
    1DIPC   C4A 7172  27.377  27.301   6.254 -0.1509 -0.2032  0.1454
    1DIPC   C1B 7173  28.092  26.477   6.030 -0.2676 -0.0440  0.0282
    1DIPC   D2B 7174  28.055  26.391   5.623 -0.1184 -0.0206  0.0157
    1DIPC   D3B 7175  28.313  26.290   5.195 -0.0308 -0.0181  0.2724
    1DIPC   C4B 7176  28.173  26.144   4.822  0.1868  0.1599 -0.1919
    1DIPC   NC3 7177  22.332  22.006   5.626  0.0840 -0.1251 -0.0795
    1DIPC   PO4 7178  22.028  21.838   5.932 -0.0687  0.0805  0.0650
    1DIPC   GL1 7179  21.768  21.718   5.549  0.1722  0.1609  0.1321
    1DIPC   GL2 7180  21.938  21.555   5.226 -0.1224  0.0761  0.1326
    1DIPC   C1A 7181  21.512  21.937   5.252  0.0739  0.2105  0.3277
    1DIPC   D2A 7182  21.066  21.862   5.159 -0.0292 -0.1986 -0.0344
    1DIPC   D3A 7183  21.011  21.641   4.751  0.3570  0.1882 -0.2009
    1DIPC   C4A 7184  20.678  21.797   4.443 -0.1488  0.1319 -0.1844
    1DIPC   C1B 7185  21.744  21.750   4.842 -0.0705  0.1780 -0.1025
    1DIPC   D2B 7186  21.332  21.979   4.756 -0.2327 -0.0072 -0.0080
    1DIPC   D3B 7187  21.115  22.290   4.451 -0.0523  0.1131 -0.0017
    1DIPC   C4B 7188  20.739  22.427   4.360 -0.1070  0.2837  0.2124
    1DIPC   NC3 7189  17.512   1.741   7.079 -0.0530  0.2909  0.2224
    1DIPC   PO4 7190  17.637   1.429   6.709 -0.0424  0.1475  0.0157
    1DIPC   GL1 7191  17.595   1.215   6.251 -0.0411  0.3363 -0.0139
    1DIPC   GL2 7192  17.623   0.882   6.380 -0.1914  0.2557 -0.1420
    1DIPC   C1A 7193  17.346   1.116   5.875 -0.2525 -0.0105  0.1453
    1DIPC   D2A 7194  17.270   1.063   5.491 -0.0407 -0.3297 -0.1345
    1DIPC   D3A 7195  17.190   0.654   5.594 -0.0909  0.2997  0.0770
    1DIPC   C4A 7196  17.106   0.232   5.409 -0.4055  0.0971 -0.0676
    1DIPC   C1B 7197  17.670   0.780   5.813  0.1563  0.0050 -0.3139
    1DIPC   D2B 7198  17.975   0.682   5.637 -0.0071 -0.0126 -0.0913
    1DIPC   D3B 7199  18.110   0.291   5.910 -0.0213  0.1237 -0.0636
    1DIPC   C4B 7200  18.508  -0.027   5.817 -0.0017  0.0796 -0.1177
    1DIPC   NC3 7201  20.490  17.001   6.428  0.1771 -0.1788 -0.0328
    1DIPC   PO4 7202  20.023  17.131   6.286  0.3118  0.0262  0.3370
    1DIPC   GL1 7203  19.769  17.000   5.851  0.0134 -0.1319  0.0018
    1DIPC   GL2 7204  19.945  16.974   5.661  0.2384  0.1546  0.3338
    1DIPC   C1A 7205  19.687  16.568   5.760 -0.3945 -0.1785 -0.1519
    1DIPC   D2A 7206  19.631  16.235   5.557  0.2950  0.4562 -0.1108
    1DIPC   D3A 7207  19.659  16.074   5.982 -0.1470  0.1089  0.1604
    1DIPC   C4A 7208  19.858  16.364   6.221 -0.1335 -0.2396 -0.2665
    1DIPC   C1B 7209  19.992  17.252   5.269  0.0964  0.0910  0.0963
    1DIPC   D2B 7210  19.747  17.598   5.130  0.2656 -0.0772 -0.2958
    1DIPC   D3B 7211  20.042  18.046   5.351 -0.0401  0.4016  0.1267
    1DIPC   C4B 7212  20.300  18.410   5.191 -0.0358 -0.0715  0.2035
    1DIPC   NC3 7213  24.705   1.785   6.986 -0.0450  0.4161 -0.0831
    1DIPC   PO4 7214  25.094   1.591   6.778 -0.0178 -0.2819  0.1767
    1DIPC   GL1 7215  24.988   1.826   6.500 -0.1398  0.0260  0.3746
    1DIPC   GL2 7216  24.677   2.010   6.516  0.0825  0.2452 -0.1986
    1DIPC   C1A 7217  25.326   2.006   6.196 -0.2165  0.1595 -0.0629
    1DIPC   D2A 7218  25.485   1.797   5.813 -0.1017 -0.0352 -0.3837
    1DIPC   D3A 7219  25.373   2.188   5.624 -0.0423  0.1063 -0.2827
    1DIPC   C4A 7220  25.248   2.213   5.163 -0.0495  0.1493 -0.1270
    1DIPC   C1B 7221  24.373   1.762   6.242 -0.2297  0.2887  0.2062
    1DIPC   D2B 7222  24.382   1.969   5.893  0.0669  0.2581  0.1028
    1DIPC   D3B 7223  24.264   1.545   5.644 -0.0010 -0.0059  0.0551
    1DIPC   C4B 7224  24.266   1.495   5.256  0.0194 -0.0699 -0.1576
    1DIPC   NC3 7225   8.623   9.102   6.953  0.3637 -0.2208 -0.3050
    1DIPC   PO4 7226   8.183   9.103   6.821  0.0048 -0.1427  0.1899
    1DIPC   GL1 7227   8.158   9.217   6.382  0.1886  0.3389  0.0928
    1DIPC   GL2 7228   7.795   9.445   6.297 -0.1585  0.1124  0.1151
    1DIPC   C1A 7229   8.289   9.347   5.970 -0.2673 -0.1469 -0.1370
    1DIPC   D2A 7230   8.694   9.534   5.899  0.2430 -0.0006 -0.0458
    1DIPC   D3A 7231   8.669   9.596   5.438 -0.3277 -0.1835  0.3115
    1DIPC   C4A 7232   8.620   9.985   5.168  0.0608  0.0989 -0.2083
    1DIPC   C1B 7233   7.645   9.458   5.826 -0.2236 -0.2943 -0.1631
    1DIPC   D2B 7234   7.418   9.369   5.458  0.0318 -0.0161 -0.1784
    1DIPC   D3B 7235   7.870   9.208   5.376 -0.2158 -0.1489 -0.0165
    1DIPC   C4B 7236   7.977   9.027   5.719  0.0338 -0.5261  0.3949
    1DIPC   NC3 7237  25.744   6.611   6.906 -0.0358  0.0992 -0.1038
    1DIPC   PO4 7238  25.713   7.057   6.871 -0.4549 -0.1670  0.1276
    1DIPC   GL1 7239  25.653   6.959   6.454  0.0682  0.0081 -0.1170
    1DIPC   GL2 7240  25.379   7.056   6.266 -0.1797  0.0120  0.0004
    1DIPC   C1A 7241  25.852   6.943   6.134  0.0138 -0.2018  0.4013
    1DIPC   D2A 7242  26.129   7.006   5.795 -0.1373  0.0428 -0.0697
    1DIPC   D3A 7243  26.253   6.983   5.270  0.1664 -0.1780 -0.2499
    1DIPC   C4A 7244  26.353   6.604   5.055  0.3052  0.0870 -0.2144
    1DIPC   C1B 7245  25.422   6.742   5.871  0.0061 -0.0586 -0.1436
    1DIPC   D2B 7246  25.526   6.545   5.505  0.0321  0.2711 -0.1968
    1DIPC   D3B 7247  25.250   6.651   5.214  0.0642 -0.3442  0.1851
    1DIPC   C4B 7248  25.360   6.670   4.825 -0.1044 -0.1507 -0.1734
    1DIPC   NC3 7249  16.941  24.876   6.602 -0.2564 -0.2124  0.3392
    1DIPC   PO4 7250  17.338  25.126   6.795  0.1156 -0.1393  0.1011
    1DIPC   GL1 7251  17.242  25.292   6.457 -0.2945 -0.4215  0.0052
    1DIPC   GL2 7252  17.256  25.051   6.111  0.0968  0.0509 -0.0829
    1DIPC   C1A 7253  17.572  25.497   6.253  0.1541 -0.0447  0.0852
    1DIPC   D2A 7254  17.610  25.862   6.002  0.0270  0.0967  0.0493
    1DIPC   D3A 7255  17.830  25.698   5.670  0.0814  0.1453 -0.1868
    1DIPC   C4A 7256  17.847  25.943   5.228  0.1541  0.1919  0.1355
    1DIPC   C1B 7257  17.284  25.392   5.784  0.3268  0.0215 -0.0534
    1DIPC   D2B 7258  17.310  25.607   5.271  0.1303 -0.1313 -0.1051
    1DIPC   D3B 7259  17.066  26.020   5.190 -0.1334  0.3974 -0.0838
    1DIPC   C4B 7260  17.094  26.420   4.987 -0.1038 -0.1289  0.2278
    1DIPC   NC3 7261  13.077   9.759   6.994  0.1864 -0.2087 -0.3833
    1DIPC   PO4 7262  13.215   9.375   6.827  0.0975 -0.0010 -0.1581
    1DIPC   GL1 7263  13.433   9.351   6.424  0.0354 -0.1370 -0.1120
    1DIPC   GL2 7264  13.117   9.168   6.301 -0.2402  0.4499  0.2350
    1DIPC   C1A 7265  13.430   9.172   5.920 -0.1723 -0.1470  0.0557
    1DIPC   D2A 7266  13.626   9.171   5.526 -0.0276 -0.2960  0.3966
    1DIPC   D3A 7267  13.606   8.806   5.470  0.0418 -0.3014 -0.0647
    1DIPC   C4A 7268  13.945   8.673   5.154  0.2745  0.0809  0.1715
    1DIPC   C1B 7269  12.882   9.244   5.913 -0.0389  0.3288 -0.1110
    1DIPC   D2B 7270  12.728   9.307   5.495  0.2752  0.1589 -0.1098
    1DIPC   D3B 7271  12.632   9.627   5.738 -0.2208  0.1824 -0.2001
    1DIPC   C4B 7272  12.164   9.635   5.767 -0.1545  0.0702 -0.1746
    1DIPC   NC3 7273  18.965   5.378   7.072 -0.2041 -0.1609 -0.0384
    1DIPC   PO4 7274  18.924   5.824   7.125 -0.2344  0.1911 -0.2080
    1DIPC   GL1 7275  19.116   5.675   6.732  0.1852  0.0003  0.0156
    1DIPC   GL2 7276  18.891   5.650   6.569  0.2394 -0.0203  0.1462
    1DIPC   C1A 7277  19.570   5.652   6.535 -0.0328  0.3246 -0.2065
    1DIPC   D2A 7278  19.864   5.692   6.291 -0.2426 -0.0808 -0.0924
    1DIPC   D3A 7279  19.760   6.171   6.325  0.2146  0.0853 -0.0895
    1DIPC   C4A 7280  19.850   6.514   6.066  0.0301  0.3195 -0.2428
    1DIPC   C1B 7281  18.663   5.583   6.305 -0.0005  0.1316  0.2464
    1DIPC   D2B 7282  18.525   5.524   5.856  0.1146 -0.0260  0.0439
    1DIPC   D3B 7283  19.069   5.556   5.740  0.0153 -0.0721  0.1289
    1DIPC   C4B 7284  19.312   5.430   5.438  0.0359 -0.0278  0.2270
    1DIPC   NC3 7285  29.621   2.137   7.454 -0.3440 -0.0304  0.2805
    1DIPC   PO4 7286  29.382   2.165   7.050 -0.2454  0.2467  0.1934
    1DIPC   GL1 7287  29.284   2.589   6.758 -0.0466  0.1046  0.0235
    1DIPC   GL2 7288  28.924   2.534   6.730 -0.1458  0.0729  0.0777
    1DIPC   C1A 7289  29.222   2.739   6.364  0.2514  0.1068  0.0863
    1DIPC   D2A 7290  29.165   2.962   5.962  0.3064  0.3624  0.0579
    1DIPC   D3A 7291  28.987   2.841   5.473  0.2387  0.0321 -0.3268
    1DIPC   C4A 7292  28.737   3.194   5.238 -0.3965  0.2782  0.1860
    1DIPC   C1B 7293  28.555   2.668   6.381  0.0715  0.0482  0.1726
    1DIPC   D2B 7294  28.092   2.680   6.322  0.5782  0.0710 -0.1869
    1DIPC   D3B 7295  28.262   2.643   5.878 -0.0969  0.2690  0.0123
    1DIPC   C4B 7296  28.678   2.569   5.808  0.2576  0.1300 -0.1354
    1DIPC   NC3 7297  22.309   2.072   6.926  0.1152  0.0919 -0.2074
    1DIPC   PO4 7298  22.664   2.230   7.085  0.3256  0.2687  0.0362
    1DIPC   GL1 7299  22.983   2.204   6.824  0.0826  0.0720 -0.1467
    1DIPC   GL2 7300  23.332   2.181   6.844  0.1750  0.0524 -0.0906
    1DIPC   C1A 7301  22.940   2.236   6.408  0.2494 -0.0215  0.1082
    1DIPC   D2A 7302  23.026   2.443   6.136  0.1547 -0.0710 -0.0903
    1DIPC   D3A 7303  22.936   2.759   5.770 -0.0999 -0.1265 -0.0352
    1DIPC   C4A 7304  22.661   2.647   5.505 -0.1491 -0.1330 -0.2608
    1DIPC   C1B 7305  23.365   2.426   6.533 -0.3471  0.0465 -0.3412
    1DIPC   D2B 7306  23.490   2.239   6.071 -0.0511  0.3045 -0.1318
    1DIPC   D3B 7307  23.281   2.326   5.675 -0.1936 -0.1233  0.1033
    1DIPC   C4B 7308  23.495   2.111   5.387 -0.0790  0.1968 -0.0220
    1DIPC   NC3 7309  11.229  19.081   6.517 -0.1996  0.0849  0.0431
    1DIPC   PO4 7310  11.588  18.721   6.613  0.0739 -0.0894 -0.1428
    1DIPC   GL1 7311  11.469  18.700   6.179 -0.0779  0.1954  0.1299
    1DIPC   GL2 7312  11.169  18.680   6.150  0.2472  0.1015  0.1064
    1DIPC   C1A 7313  11.575  18.728   5.798  0.2315 -0.1701  0.0656
    1DIPC   D2A 7314  11.246  18.453   5.381 -0.1175 -0.2446 -0.3509
    1DIPC   D3A 7315  11.168  18.783   4.848 -0.2179 -0.2908  0.0488
    1DIPC   C4A 7316  10.980  18.438   4.680  0.4708  0.3063  0.1579
    1DIPC   C1B 7317  11.339  18.338   5.835 -0.1241  0.0657 -0.2563
    1DIPC   D2B 7318  11.663  18.025   5.577  0.2111  0.0841 -0.1442
    1DIPC   D3B 7319  11.612  17.958   5.183 -0.0582 -0.0782 -0.0170
    1DIPC   C4B 7320  11.361  18.284   4.971 -0.0921 -0.1585 -0.2295
    1DIPC   NC3 7321  13.259  17.593   7.219 -0.0038  0.0067 -0.2047
    1DIPC   PO4 7322  13.591  17.355   7.153  0.0712 -0.0608  0.1328
    1DIPC   GL1 7323  13.424  17.403   6.736 -0.0298  0.0604 -0.1122
    1DIPC   GL2 7324  13.586  17.174   6.487  0.1974 -0.0837 -0.0453
    1DIPC   C1A 7325  13.427  17.679   6.353  0.3524  0.0170  0.0368
    1DIPC   D2A 7326  13.670  18.028   6.249  0.1982  0.2819 -0.0068
    1DIPC   D3A 7327  13.865  17.919   5.778 -0.2206  0.1124 -0.0155
    1DIPC   C4A 7328  13.823  17.521   5.639 -0.3357  0.3286  0.0237
    1DIPC   C1B 7329  13.747  16.862   6.134  0.0363  0.1649  0.2710
    1DIPC   D2B 7330  14.042  16.632   5.769  0.0818  0.2274 -0.0851
    1DIPC   D3B 7331  14.016  16.700   5.317  0.1627 -0.1184  0.2236
    1DIPC   C4B 7332  13.980  16.441   4.942 -0.2474 -0.0680 -0.2302
    1DIPC   NC3 7333  18.699  28.263   6.753  0.3083  0.2458  0.1668
    1DIPC   PO4 7334  18.546  28.540   7.005 -0.1149 -0.3628  0.0976
    1DIPC   GL1 7335  18.496  28.737   6.640  0.0269 -0.0223 -0.2144
    1DIPC   GL2 7336  18.542  28.535   6.361  0.1310 -0.0539 -0.1082
    1DIPC   C1A 7337  18.395  28.999   6.281  0.1865  0.2009 -0.1835
    1DIPC   D2A 7338  18.331  29.192   5.870 -0.2987  0.2917 -0.0811
    1DIPC   D3A 7339  18.250  29.316   5.446 -0.0229  0.2775 -0.0503
    1DIPC   C4A 7340  18.130  29.695   5.304 -0.3105  0.1658  0.4251
    1DIPC   C1B 7341  18.317  28.613   5.950 -0.2208 -0.2528  0.4767
    1DIPC   D2B 7342  17.957  28.821   5.884  0.0189 -0.1120 -0.1733
    1DIPC   D3B 7343  17.800  29.131   5.653  0.0163 -0.2599  0.0967
    1DIPC   C4B 7344  17.397  29.199   5.607  0.3829 -0.0646  0.1748
    1DIPC   NC3 7345  24.263  15.407   5.184 -0.2186  0.1401  0.3062
    1DIPC   PO4 7346  23.987  15.132   5.396 -0.0680  0.2048 -0.0336
    1DIPC   GL1 7347  23.915  15.072   5.070 -0.0748 -0.2771  0.1565
    1DIPC   GL2 7348  24.126  14.715   4.974  0.0352  0.1478  0.2378
    1DIPC   C1A 7349  23.805  15.184   4.686 -0.1088  0.0869  0.1614
    1DIPC   D2A 7350  23.936  15.291   4.324 -0.1528  0.0729  0.2573
    1DIPC   D3A 7351  23.530  15.136   4.257 -0.0502 -0.2511 -0.1100
    1DIPC   C4A 7352  23.417  15.253   3.793  0.0459 -0.2753  0.1349
    1DIPC   C1B 7353  24.057  14.800   4.519  0.1527  0.0473  0.0297
    1DIPC   D2B 7354  23.984  14.749   4.233 -0.1634  0.3176 -0.0919
    1DIPC   D3B 7355  24.030  14.498   3.910 -0.1588  0.2495  0.2763
    1DIPC   C4B 7356  23.680  14.083   3.958 -0.0408 -0.2735  0.3504
    1DIPC   NC3 7357   0.506   3.699   6.878  0.0729  0.1555  0.0802
    1DIPC   PO4 7358   0.498   3.252   6.901 -0.0497  0.0531 -0.2499
    1DIPC   GL1 7359   0.542   3.042   6.487 -0.1199 -0.2976  0.2583
    1DIPC   GL2 7360   0.341   2.741   6.428 -0.1474 -0.1775  0.2899
    1DIPC   C1A 7361   0.361   3.297   6.204 -0.4330 -0.0412  0.1352
    1DIPC   D2A 7362   0.004   3.292   5.900  0.0632  0.0330 -0.1876
    1DIPC   D3A 7363  -0.194   3.224   5.478 -0.0888 -0.1909  0.1309
    1DIPC   C4A 7364  -0.490   3.323   5.187  0.0068  0.1316 -0.0100
    1DIPC   C1B 7365  -0.074   2.826   6.290 -0.2571  0.2270  0.0234
    1DIPC   D2B 7366  -0.124   2.745   5.858 -0.2067 -0.0841 -0.1784
    1DIPC   D3B 7367   0.375   2.933   5.785 -0.2418  0.0787  0.0704
    1DIPC   C4B 7368   0.777   2.672   5.550 -0.0612  0.0504 -0.1398
    1DIPC   NC3 7369   7.704   0.867   7.016  0.0301  0.1212  0.2727
    1DIPC   PO4 7370   7.410   0.588   6.795 -0.2694  0.0248  0.4832
    1DIPC   GL1 7371   7.260   0.368   6.524  0.0197  0.1152  0.1469
    1DIPC   GL2 7372   7.184   0.099   6.619  0.0468 -0.0383  0.0916
    1DIPC   C1A 7373   7.452   0.390   6.057  0.0001  0.0025 -0.0604
    1DIPC   D2A 7374   7.750   0.627   5.883  0.1477  0.1285 -0.0782
    1DIPC   D3A 7375   8.188   0.564   5.690  0.3118  0.0221 -0.1275
    1DIPC   C4A 7376   8.463   0.515   6.136  0.0460  0.3363  0.1658
    1DIPC   C1B 7377   7.170  -0.094   6.261 -0.1562 -0.0988 -0.2303
    1DIPC   D2B 7378   7.519  -0.234   6.037  0.0006 -0.0847 -0.0159
    1DIPC   D3B 7379   7.163  -0.580   5.905  0.0671  0.1246  0.0939
    1DIPC   C4B 7380   7.150  -0.693   5.525 -0.2270  0.2469  0.0287
    1DIPC   NC3 7381  24.833  23.848   6.119  0.1440  0.0377  0.0559
    1DIPC   PO4 7382  24.924  23.414   5.994  0.2986 -0.1411  0.1218
    1DIPC   GL1 7383  25.179  23.601   5.644 -0.0446  0.2943  0.0223
    1DIPC   GL2 7384  25.582  23.490   5.572 -0.0154 -0.0480 -0.1680
    1DIPC   C1A 7385  25.232  23.679   5.200 -0.0503 -0.2305  0.1279
    1DIPC   D2A 7386  24.950  23.761   4.849 -0.2858 -0.2316  0.1239
    1DIPC   D3A 7387  25.194  24.147   4.760 -0.1637 -0.1286 -0.0200
    1DIPC   C4A 7388  25.409  24.423   5.053  0.1309  0.2353  0.1882
    1DIPC   C1B 7389  25.724  23.103   5.367 -0.0579 -0.0925 -0.2142
    1DIPC   D2B 7390  25.836  22.797   5.095  0.1775  0.1832  0.1519
    1DIPC   D3B 7391  26.212  22.756   4.922  0.0287  0.2275  0.0076
    1DIPC   C4B 7392  26.268  23.082   4.475  0.2102 -0.0299  0.1079
    1DIPC   NC3 7393  24.554  20.109   5.636  0.1940  0.1960  0.2403
    1DIPC   PO4 7394  24.529  20.528   5.797 -0.1251  0.0651  0.0644
    1DIPC   GL1 7395  24.792  20.436   5.337  0.1788 -0.2151  0.0049
    1DIPC   GL2 7396  24.651  20.688   5.135 -0.0432 -0.0382 -0.5290
    1DIPC   C1A 7397  24.873  20.210   4.899  0.0497 -0.0260 -0.3003
    1DIPC   D2A 7398  24.755  20.193   4.516 -0.3544  0.0345  0.0815
    1DIPC   D3A 7399  25.003  20.110   4.077  0.2487  0.0994 -0.1737
    1DIPC   C4A 7400  24.830  19.750   3.805 -0.2094 -0.0612  0.2600
    1DIPC   C1B 7401  24.782  20.663   4.694  0.0093  0.1760 -0.0681
    1DIPC   D2B 7402  24.616  20.823   4.395 -0.2509  0.2043  0.2284
    1DIPC   D3B 7403  24.604  20.410   3.997 -0.2324  0.2870  0.1528
    1DIPC   C4B 7404  24.404  19.972   3.992  0.0675  0.1397  0.1389
    1DIPC   NC3 7405  18.920  22.431   6.709  0.1143  0.1139 -0.0405
    1DIPC   PO4 7406  18.791  22.826   6.449  0.3012  0.1330 -0.1366
    1DIPC   GL1 7407  19.070  22.738   5.951 -0.0242  0.2977  0.2517
    1DIPC   GL2 7408  19.405  22.757   5.837 -0.1254 -0.1307 -0.1228
    1DIPC   C1A 7409  19.042  23.045   5.744  0.3669  0.2416  0.2272
    1DIPC   D2A 7410  18.963  23.406   5.480 -0.0723 -0.2254  0.0092
    1DIPC   D3A 7411  19.098  23.613   5.834 -0.2652  0.1803 -0.0063
    1DIPC   C4A 7412  19.369  23.910   5.760  0.1065 -0.0534  0.1075
    1DIPC   C1B 7413  19.365  22.515   5.426  0.0446 -0.3706  0.0950
    1DIPC   D2B 7414  19.518  22.128   5.193 -0.0276  0.3165 -0.2295
    1DIPC   D3B 7415  19.983  21.949   5.278  0.4319 -0.0714 -0.1497
    1DIPC   C4B 7416  20.045  21.765   4.758  0.0780 -0.3127  0.2906
    1DIPC   NC3 7417  24.339  11.649   5.592  0.0437  0.4028  0.1525
    1DIPC   PO4 7418  24.359  11.233   5.485 -0.0893  0.3435 -0.0178
    1DIPC   GL1 7419  24.667  11.323   5.150  0.3905  0.3153 -0.0167
    1DIPC   GL2 7420  24.597  11.013   5.101  0.0828 -0.1745  0.2937
    1DIPC   C1A 7421  24.797  11.449   4.738  0.1233  0.2289 -0.0004
    1DIPC   D2A 7422  25.051  11.176   4.490  0.0062 -0.0725  0.1342
    1DIPC   D3A 7423  25.056  11.507   4.238 -0.3141  0.2968  0.3454
    1DIPC   C4A 7424  25.338  11.816   4.212  0.2093 -0.3761 -0.2026
    1DIPC   C1B 7425  24.525  10.914   4.746  0.0264 -0.1618  0.0540
    1DIPC   D2B 7426  24.530  10.909   4.355 -0.0173 -0.1344  0.1723
    1DIPC   D3B 7427  24.295  10.570   4.265 -0.2017 -0.1857  0.1844
    1DIPC   C4B 7428  24.266  10.236   4.055 -0.0298  0.1391 -0.0490
    1DIPC   NC3 7429  16.793   0.280   6.685  0.3741 -0.1279 -0.0792
    1DIPC   PO4 7430  16.698  -0.223   6.732 -0.0983  0.2148  0.1879
    1DIPC   GL1 7431  16.638  -0.432   6.431  0.0442 -0.2135 -0.0157
    1DIPC   GL2 7432  16.774  -0.798   6.464  0.0566 -0.2062 -0.2231
    1DIPC   C1A 7433  16.645  -0.630   5.968  0.1978  0.2616  0.2539
    1DIPC   D2A 7434  16.861  -0.644   5.637  0.0386 -0.0387 -0.0937
    1DIPC   D3A 7435  16.936  -0.723   5.255 -0.0973  0.1052  0.0208
    1DIPC   C4A 7436  17.410  -0.753   5.128 -0.2586  0.2488  0.2786
    1DIPC   C1B 7437  17.071  -0.642   6.118  0.3653  0.1108  0.4440
    1DIPC   D2B 7438  17.495  -0.678   6.093 -0.1509  0.0234 -0.0760
    1DIPC   D3B 7439  17.407  -1.061   5.809 -0.1994  0.0415  0.1436
    1DIPC   C4B 7440  17.174  -1.129   5.537  0.1509  0.1294  0.1267
    1DIPC   NC3 7441   1.608   4.143   6.640  0.0289 -0.2437 -0.0972
    1DIPC   PO4 7442   1.552   3.744   6.670  0.1514 -0.0849  0.1335
    1DIPC   GL1 7443   1.244   3.891   6.257  0.1062 -0.1560  0.0488
    1DIPC   GL2 7444   1.513   4.043   6.129 -0.1327 -0.2132 -0.2631
    1DIPC   C1A 7445   0.983   3.822   5.855  0.0549  0.0828 -0.2453
    1DIPC   D2A 7446   0.842   3.490   5.653 -0.2268  0.1654 -0.0631
    1DIPC   D3A 7447   1.152   3.081   5.634  0.1842  0.0247  0.1260
    1DIPC   C4A 7448   1.585   2.990   5.708  0.1916 -0.5548 -0.0242
    1DIPC   C1B 7449   1.684   3.970   5.773  0.0311 -0.4625  0.4031
    1DIPC   D2B 7450   1.866   3.753   5.412  0.2174 -0.2917 -0.0997
    1DIPC   D3B 7451   2.116   4.012   5.347  0.0415 -0.2012 -0.3483
    1DIPC   C4B 7452   2.498   3.872   5.135 -0.1418 -0.0705  0.0707
    1DIPC   NC3 7453  17.672  24.357   6.668 -0.5649  0.0424 -0.1142
    1DIPC   PO4 7454  18.080  24.123   6.748  0.0445  0.1484  0.0315
    1DIPC   GL1 7455  18.186  24.337   6.352  0.2207 -0.1633  0.2103
    1DIPC   GL2 7456  17.968  24.439   6.230 -0.0260  0.2984 -0.1010
    1DIPC   C1A 7457  18.340  24.437   5.929 -0.0204  0.0392  0.0128
    1DIPC   D2A 7458  18.443  24.751   5.875 -0.1179  0.1640  0.0404
    1DIPC   D3A 7459  18.658  24.567   5.459 -0.1406 -0.0175 -0.1742
    1DIPC   C4A 7460  18.826  24.704   5.240 -0.1613 -0.1579 -0.0796
    1DIPC   C1B 7461  17.920  24.125   5.855 -0.1651  0.0653 -0.4107
    1DIPC   D2B 7462  18.219  23.867   5.915 -0.4639  0.0423  0.3904
    1DIPC   D3B 7463  17.854  23.640   5.821  0.0606  0.0885  0.0638
    1DIPC   C4B 7464  17.413  23.879   5.728  0.0565 -0.0511  0.0952
    1DIPC   NC3 7465  22.359  28.711   6.908  0.2780 -0.0950 -0.3722
    1DIPC   PO4 7466  22.503  29.129   7.088  0.1693 -0.1633 -0.0883
    1DIPC   GL1 7467  22.470  29.180   6.635 -0.1254  0.1809  0.0870
    1DIPC   GL2 7468  22.614  29.484   6.449  0.0224  0.2745 -0.2045
    1DIPC   C1A 7469  22.271  28.921   6.273  0.1240 -0.1047 -0.0239
    1DIPC   D2A 7470  22.310  28.609   5.951 -0.2256 -0.0151 -0.1832
    1DIPC   D3A 7471  22.552  28.437   6.290 -0.1436 -0.1942  0.0318
    1DIPC   C4A 7472  22.587  28.147   5.878 -0.0492  0.1014 -0.0102
    1DIPC   C1B 7473  22.712  29.658   6.019  0.2354 -0.4114  0.0104
    1DIPC   D2B 7474  22.559  29.582   5.583  0.3523 -0.0697  0.0711
    1DIPC   D3B 7475  22.451  30.021   5.638  0.1117 -0.2859  0.0230
    1DIPC   C4B 7476  22.683  30.420   5.403 -0.1312  0.2692 -0.0837
    1DIPC   NC3 7477  11.721  25.986   6.314  0.0972  0.0341  0.2915
    1DIPC   PO4 7478  11.969  25.519   6.377  0.2942  0.1609  0.0398
    1DIPC   GL1 7479  11.861  25.467   6.010  0.0271 -0.2264  0.2237
    1DIPC   GL2 7480  11.540  25.506   6.055  0.2569 -0.0805  0.0329
    1DIPC   C1A 7481  12.010  25.571   5.614  0.0575 -0.1094 -0.0790
    1DIPC   D2A 7482  12.224  25.286   5.297  0.2500 -0.0427 -0.1253
    1DIPC   D3A 7483  11.894  25.101   5.156 -0.1573 -0.1783  0.2478
    1DIPC   C4A 7484  11.897  24.853   4.769  0.4168 -0.1332 -0.0148
    1DIPC   C1B 7485  11.499  25.736   5.665 -0.2425  0.3649 -0.2357
    1DIPC   D2B 7486  11.631  25.897   5.282  0.1210  0.0166  0.1405
    1DIPC   D3B 7487  11.736  25.602   5.090 -0.1028 -0.0212 -0.0973
    1DIPC   C4B 7488  11.820  25.496   4.647  0.2632 -0.2337  0.1256
    1DIPC   NC3 7489  15.527  10.379   6.904 -0.1682 -0.1713 -0.0393
    1DIPC   PO4 7490  15.731  10.110   6.635  0.2813 -0.2152 -0.0738
    1DIPC   GL1 7491  15.625   9.980   6.194 -0.0752 -0.0428  0.0575
    1DIPC   GL2 7492  15.881  10.213   6.094 -0.0696  0.1669  0.0556
    1DIPC   C1A 7493  15.663   9.848   5.697  0.0333  0.0872 -0.1729
    1DIPC   D2A 7494  15.494   9.983   5.289  0.2040  0.1031 -0.2513
    1DIPC   D3A 7495  15.295   9.891   4.842 -0.4016 -0.0189  0.0064
    1DIPC   C4A 7496  14.988  10.255   4.802  0.0662  0.0023  0.2575
    1DIPC   C1B 7497  16.109  10.022   5.936 -0.1977 -0.0254  0.0087
    1DIPC   D2B 7498  16.014   9.983   5.375 -0.4143  0.0820 -0.0795
    1DIPC   D3B 7499  15.852  10.335   5.189 -0.2643  0.1613 -0.3206
    1DIPC   C4B 7500  15.904  10.416   4.775  0.0866  0.2375 -0.1419
    1DIPC   NC3 7501  13.600  29.481   7.185 -0.1057 -0.2451 -0.2629
    1DIPC   PO4 7502  13.521  29.852   6.944 -0.0778 -0.1048 -0.2220
    1DIPC   GL1 7503  13.532  30.010   6.478 -0.0077 -0.4342 -0.2244
    1DIPC   GL2 7504  13.477  30.295   6.494 -0.1663 -0.0222 -0.0206
    1DIPC   C1A 7505  13.550  29.987   6.039  0.0598  0.0534 -0.1209
    1DIPC   D2A 7506  13.544  29.971   5.698 -0.2279  0.1139  0.1368
    1DIPC   D3A 7507  13.053  30.009   5.789  0.2075 -0.1206  0.1860
    1DIPC   C4A 7508  12.662  30.134   5.586  0.1761  0.1627 -0.1768
    1DIPC   C1B 7509  13.954  30.117   6.290  0.2255  0.2928  0.1050
    1DIPC   D2B 7510  14.002  30.264   5.854  0.1484  0.0409 -0.0796
    1DIPC   D3B 7511  14.388  30.149   5.569 -0.2230 -0.0781  0.0387
    1DIPC   C4B 7512  14.558  30.461   5.228 -0.1514  0.0440  0.1501
    1DIPC   NC3 7513  21.470  19.866   6.357  0.0178 -0.0079 -0.1590
    1DIPC   PO4 7514  21.316  19.824   5.909  0.1469  0.2467 -0.2391
    1DIPC   GL1 7515  21.249  19.787   5.416 -0.3991  0.2870 -0.0077
    1DIPC   GL2 7516  21.175  20.145   5.504 -0.1847  0.3610  0.1531
    1DIPC   C1A 7517  21.534  19.843   5.046 -0.0867 -0.0529 -0.1089
    1DIPC   D2A 7518  21.521  19.871   4.701 -0.0689  0.0340 -0.0939
    1DIPC   D3A 7519  21.238  19.480   4.859  0.0068 -0.2258 -0.0463
    1DIPC   C4A 7520  21.071  19.098   4.489 -0.1109  0.2065 -0.4870
    1DIPC   C1B 7521  21.645  20.257   5.298  0.1849 -0.0628 -0.3096
    1DIPC   D2B 7522  21.726  20.325   4.850 -0.0993  0.1071 -0.1273
    1DIPC   D3B 7523  21.533  20.287   4.371  0.2329  0.0937 -0.1201
    1DIPC   C4B 7524  21.645  19.821   4.172 -0.0828  0.1399 -0.1797
    1DIPC   NC3 7525  19.180  29.750   7.828  0.1258 -0.0017 -0.1660
    1DIPC   PO4 7526  18.952  30.015   7.406  0.1146 -0.0063  0.1782
    1DIPC   GL1 7527  19.022  29.917   7.009  0.1074 -0.3249 -0.2722
    1DIPC   GL2 7528  18.853  29.653   6.959 -0.2672  0.2545 -0.1882
    1DIPC   C1A 7529  19.046  29.821   6.540 -0.1731 -0.2964 -0.0923
    1DIPC   D2A 7530  19.048  29.959   6.178  0.3246 -0.1191 -0.2988
    1DIPC   D3A 7531  19.011  29.699   5.868 -0.1308 -0.1272 -0.2059
    1DIPC   C4A 7532  18.777  29.370   5.685  0.0690  0.0232 -0.0662
    1DIPC   C1B 7533  18.562  29.718   6.730 -0.3053  0.1639 -0.2146
    1DIPC   D2B 7534  18.523  29.548   6.309  0.1239  0.1442 -0.0305
    1DIPC   D3B 7535  18.846  29.335   6.504  0.0947 -0.3541  0.0522
    1DIPC   C4B 7536  19.052  29.273   6.083 -0.2611 -0.1777 -0.0628
    1DIPC   NC3 7537  11.330  24.345   6.861 -0.1258 -0.1011 -0.4289
    1DIPC   PO4 7538  11.206  24.318   6.369 -0.1671  0.3280  0.0664
    1DIPC   GL1 7539  11.249  24.417   5.993  0.0030 -0.1376  0.0442
    1DIPC   GL2 7540  11.569  24.632   5.781  0.0341 -0.2811  0.4177
    1DIPC   C1A 7541  11.231  24.224   5.592 -0.0050 -0.1362 -0.4100
    1DIPC   D2A 7542  11.400  24.188   5.313 -0.1942  0.2388  0.1443
    1DIPC   D3A 7543  11.287  24.202   4.905 -0.0619  0.1528 -0.0615
    1DIPC   C4A 7544  10.951  23.887   4.872 -0.1109  0.0461 -0.1923
    1DIPC   C1B 7545  11.597  24.727   5.353  0.0675  0.1486 -0.0987
    1DIPC   D2B 7546  11.480  24.690   5.010 -0.0390  0.2598 -0.0479
    1DIPC   D3B 7547  11.106  24.662   4.671 -0.0217 -0.2845  0.1031
    1DIPC   C4B 7548  10.920  24.259   4.494 -0.1693  0.0515 -0.0483
    1DIPC   NC3 7549  15.275   5.675   7.198  0.0474 -0.2582  0.3033
    1DIPC   PO4 7550  14.944   5.953   7.194 -0.1302  0.3853  0.2250
    1DIPC   GL1 7551  14.825   5.811   6.868  0.0796 -0.1048  0.1036
    1DIPC   GL2 7552  15.046   5.854   6.606  0.2516  0.2540 -0.0917
    1DIPC   C1A 7553  14.440   5.816   6.576  0.3412 -0.0569  0.3120
    1DIPC   D2A 7554  14.215   5.597   6.298 -0.1201  0.2213 -0.0568
    1DIPC   D3A 7555  14.028   5.424   5.903 -0.1018 -0.2291  0.0754
    1DIPC   C4A 7556  14.141   5.607   5.338  0.3938  0.2549 -0.3393
    1DIPC   C1B 7557  14.871   6.115   6.268 -0.1286  0.1626 -0.0813
    1DIPC   D2B 7558  14.747   6.223   5.879  0.0755 -0.0105 -0.1826
    1DIPC   D3B 7559  15.075   6.409   5.930  0.0754 -0.2830 -0.1567
    1DIPC   C4B 7560  14.941   6.817   5.960  0.1156  0.0382  0.0595
    1DIPC   NC3 7561   4.777  22.867   7.050  0.0721  0.1698  0.1483
    1DIPC   PO4 7562   5.243  22.692   6.939  0.3069  0.0294 -0.0704
    1DIPC   GL1 7563   5.105  22.761   6.624 -0.1427 -0.0839  0.1383
    1DIPC   GL2 7564   5.169  22.549   6.439  0.1592  0.2212 -0.4197
    1DIPC   C1A 7565   5.004  23.203   6.452 -0.0190  0.0721  0.0145
    1DIPC   D2A 7566   4.801  23.619   6.519 -0.2065 -0.0691 -0.1636
    1DIPC   D3A 7567   5.069  24.010   6.396 -0.0200  0.1184  0.3026
    1DIPC   C4A 7568   5.095  24.014   5.974 -0.1553 -0.2127 -0.0002
    1DIPC   C1B 7569   5.010  22.620   6.004  0.1036 -0.0514  0.2377
    1DIPC   D2B 7570   4.814  22.597   5.523  0.0564  0.1123 -0.1745
    1DIPC   D3B 7571   4.796  22.962   5.216  0.0629  0.1189 -0.2253
    1DIPC   C4B 7572   5.081  22.769   5.122 -0.1705 -0.1189 -0.1768
    1DIPC   NC3 7573   5.904   5.821   7.010 -0.0370 -0.0824  0.1526
    1DIPC   PO4 7574   5.511   5.810   6.979 -0.0346  0.0948 -0.1038
    1DIPC   GL1 7575   5.657   6.056   6.587  0.3155 -0.0320 -0.1903
    1DIPC   GL2 7576   6.024   5.990   6.486 -0.0256 -0.0645  0.1540
    1DIPC   C1A 7577   5.682   6.094   6.111 -0.3307 -0.0024 -0.2895
    1DIPC   D2A 7578   5.605   6.065   5.667 -0.0886 -0.1224  0.0153
    1DIPC   D3A 7579   5.790   6.146   5.364 -0.1806  0.1546 -0.1194
    1DIPC   C4A 7580   6.098   6.488   5.349 -0.0092 -0.0669  0.0383
    1DIPC   C1B 7581   6.037   6.346   6.294  0.0862  0.1698 -0.2028
    1DIPC   D2B 7582   6.040   6.749   6.464 -0.0314  0.2555 -0.0073
    1DIPC   D3B 7583   5.662   6.826   6.175 -0.2558  0.3545  0.1212
    1DIPC   C4B 7584   5.383   7.177   6.189  0.0035  0.0070 -0.0771
    1DIPC   NC3 7585   5.534  29.439   6.376 -0.1033  0.1039 -0.3902
    1DIPC   PO4 7586   5.881  29.179   6.438 -0.0359  0.0378 -0.3167
    1DIPC   GL1 7587   5.839  29.200   5.971  0.0299 -0.1147  0.1343
    1DIPC   GL2 7588   5.684  28.795   5.838 -0.0630  0.0123  0.1417
    1DIPC   C1A 7589   6.219  29.001   5.729  0.0515  0.1249  0.2687
    1DIPC   D2A 7590   6.646  28.934   5.937 -0.2276  0.1221 -0.1500
    1DIPC   D3A 7591   6.666  29.294   5.686 -0.0887  0.2407  0.0088
    1DIPC   C4A 7592   6.812  29.685   5.901  0.0840  0.1479 -0.5605
    1DIPC   C1B 7593   5.284  29.039   5.794 -0.4744 -0.0590  0.1282
    1DIPC   D2B 7594   4.878  29.210   5.590 -0.0398 -0.1759 -0.0569
    1DIPC   D3B 7595   5.219  29.161   5.266  0.4677  0.0666 -0.1229
    1DIPC   C4B 7596   4.993  29.268   4.799 -0.1547  0.3479  0.1565
    1DIPC   NC3 7597  17.935   8.441   6.864  0.0143  0.0319  0.1375
    1DIPC   PO4 7598  18.262   8.697   6.657  0.0729  0.2123  0.0623
    1DIPC   GL1 7599  18.376   8.693   6.244 -0.0584 -0.3378 -0.2115
    1DIPC   GL2 7600  18.483   8.363   6.118  0.1088 -0.0465 -0.1335
    1DIPC   C1A 7601  18.257   8.824   5.795  0.0245 -0.1397 -0.2302
    1DIPC   D2A 7602  18.094   8.989   5.350  0.2278 -0.2552  0.4046
    1DIPC   D3A 7603  17.997   9.223   4.903 -0.1481  0.0657 -0.0997
    1DIPC   C4A 7604  17.903   9.087   4.425  0.0374 -0.2977 -0.2508
    1DIPC   C1B 7605  18.387   8.284   5.764 -0.0748  0.0026 -0.1925
    1DIPC   D2B 7606  18.261   8.158   5.403 -0.2214  0.1416 -0.1454
    1DIPC   D3B 7607  18.330   8.566   5.247  0.0649  0.2560  0.3358
    1DIPC   C4B 7608  18.199   8.753   4.891 -0.0105  0.0159 -0.0602
    1DIPC   NC3 7609   6.153   4.026   6.617 -0.1976 -0.1735  0.1240
    1DIPC   PO4 7610   5.753   3.796   6.675 -0.0991  0.2563  0.1040
    1DIPC   GL1 7611   5.797   3.956   6.270  0.3137  0.1089  0.1034
    1DIPC   GL2 7612   6.014   3.794   6.093  0.2197  0.2608 -0.2994
    1DIPC   C1A 7613   5.580   3.867   5.855  0.1856 -0.3623  0.1352
    1DIPC   D2A 7614   5.605   3.728   5.367 -0.3852  0.0948 -0.3033
    1DIPC   D3A 7615   5.235   3.611   5.193  0.2451  0.0423 -0.2225
    1DIPC   C4A 7616   4.935   3.292   5.205 -0.2217  0.2362  0.1403
    1DIPC   C1B 7617   5.760   3.506   6.036 -0.1475 -0.0761 -0.0423
    1DIPC   D2B 7618   5.660   3.115   5.865 -0.2117  0.2479  0.2613
    1DIPC   D3B 7619   5.826   3.314   5.495 -0.2797  0.0946 -0.1639
    1DIPC   C4B 7620   6.226   3.353   5.472  0.3466  0.0244  0.1922
    1DIPC   NC3 7621  24.495   0.551   6.777 -0.0137 -0.5028 -0.2252
    1DIPC   PO4 7622  24.369   0.928   6.690  0.0883 -0.0535 -0.1506
    1DIPC   GL1 7623  24.233   1.209   6.319  0.1519  0.1004 -0.2178
    1DIPC   GL2 7624  24.176   1.127   5.968 -0.1798 -0.2534  0.1629
    1DIPC   C1A 7625  23.877   1.487   6.059 -0.0692 -0.2570  0.0757
    1DIPC   D2A 7626  23.766   1.817   5.797 -0.3541  0.1441 -0.0247
    1DIPC   D3A 7627  24.001   1.950   5.455  0.1250  0.1900  0.0021
    1DIPC   C4A 7628  23.933   2.309   5.193 -0.2316  0.0202  0.4469
    1DIPC   C1B 7629  24.109   1.072   5.478  0.0375 -0.1099 -0.2340
    1DIPC   D2B 7630  23.763   1.180   5.149 -0.3643 -0.2455 -0.2001
    1DIPC   D3B 7631  23.662   1.388   5.469  0.3444 -0.1627  0.0385
    1DIPC   C4B 7632  23.331   1.297   5.635 -0.1667  0.1090  0.2421
    1DIPC   NC3 7633  26.511  22.543   5.790  0.0452  0.0586  0.3130
    1DIPC   PO4 7634  26.684  22.867   5.844 -0.1653 -0.2268  0.0812
    1DIPC   GL1 7635  26.615  22.954   5.487 -0.1195 -0.0368  0.2164
    1DIPC   GL2 7636  26.196  22.906   5.502  0.0838 -0.1120 -0.0867
    1DIPC   C1A 7637  26.636  23.002   5.004  0.1494  0.1003 -0.1692
    1DIPC   D2A 7638  26.698  23.176   4.591 -0.0918 -0.1521 -0.1335
    1DIPC   D3A 7639  27.108  22.959   4.721 -0.1554  0.2079 -0.0884
    1DIPC   C4A 7640  27.471  23.128   4.551  0.0678  0.0275  0.0355
    1DIPC   C1B 7641  26.176  23.200   5.094  0.3626  0.1882 -0.1473
    1DIPC   D2B 7642  25.911  23.346   4.763 -0.0744  0.3749 -0.1475
    1DIPC   D3B 7643  25.758  22.997   4.582 -0.3688  0.2452  0.0532
    1DIPC   C4B 7644  25.525  23.091   4.209  0.0376 -0.3952  0.0093
    1DIPC   NC3 7645  20.162  25.772   6.943 -0.1686 -0.0407  0.0881
    1DIPC   PO4 7646  20.594  25.560   6.919  0.0049 -0.1163 -0.1781
    1DIPC   GL1 7647  20.252  25.485   6.502 -0.4565  0.3853  0.2792
    1DIPC   GL2 7648  19.854  25.527   6.606  0.2096 -0.1479 -0.3012
    1DIPC   C1A 7649  20.101  25.694   6.130 -0.0185 -0.0623 -0.2113
    1DIPC   D2A 7650  19.911  25.968   5.845 -0.0377 -0.0058  0.3855
    1DIPC   D3A 7651  20.282  26.048   5.570  0.1080  0.3042  0.0634
    1DIPC   C4A 7652  20.371  25.892   5.105 -0.2088  0.2791 -0.1358
    1DIPC   C1B 7653  19.801  25.247   6.239 -0.2939 -0.0328  0.0942
    1DIPC   D2B 7654  19.798  25.149   5.807 -0.0484 -0.0517  0.0887
    1DIPC   D3B 7655  20.028  25.515   5.625  0.1012  0.0001  0.0493
    1DIPC   C4B 7656  20.215  25.390   5.255  0.0598  0.3419 -0.1230
    1DIPC   NC3 7657   1.754   1.616   7.069 -0.0521  0.1635  0.0082
    1DIPC   PO4 7658   1.817   1.974   6.840  0.1348  0.1336 -0.1726
    1DIPC   GL1 7659   1.656   1.830   6.362 -0.2047 -0.1420  0.2497
    1DIPC   GL2 7660   1.782   2.104   6.092 -0.1383 -0.0719 -0.1682
    1DIPC   C1A 7661   1.616   1.649   5.939 -0.0287  0.1027 -0.0826
    1DIPC   D2A 7662   1.707   1.666   5.543 -0.0708 -0.0460  0.0663
    1DIPC   D3A 7663   1.555   1.998   5.409  0.1161 -0.2658 -0.2169
    1DIPC   C4A 7664   1.358   2.163   5.106 -0.0031  0.2212  0.0112
    1DIPC   C1B 7665   1.356   2.148   5.919  0.3071  0.1212 -0.2146
    1DIPC   D2B 7666   0.935   2.241   5.879 -0.0617 -0.0523  0.0073
    1DIPC   D3B 7667   1.009   2.176   5.467  0.1392  0.1995 -0.1060
    1DIPC   C4B 7668   0.883   2.353   5.055  0.2149  0.3157 -0.1847
    1DIPC   NC3 7669  17.190  29.449   6.994  0.1541  0.2195 -0.0430
    1DIPC   PO4 7670  17.196  29.875   6.932  0.0479 -0.1626  0.2364
    1DIPC   GL1 7671  17.206  29.716   6.508 -0.1666  0.0335  0.0614
    1DIPC   GL2 7672  16.930  29.811   6.284 -0.1352 -0.2390 -0.0596
    1DIPC   C1A 7673  17.483  29.603   6.208  0.0853 -0.1222 -0.2379
    1DIPC   D2A 7674  17.929  29.310   6.214  0.0463 -0.0098  0.1147
    1DIPC   D3A 7675  17.998  29.787   6.376  0.1802  0.2920  0.1078
    1DIPC   C4A 7676  17.661  30.090   6.265 -0.3005  0.1343  0.0167
    1DIPC   C1B 7677  17.129  29.753   5.846  0.0207  0.0760 -0.2270
    1DIPC   D2B 7678  17.122  29.550   5.474 -0.3707  0.1257  0.1332
    1DIPC   D3B 7679  17.064  29.642   5.024 -0.3636  0.0745 -0.0301
    1DIPC   C4B 7680  17.065  30.131   4.876  0.0209  0.0527  0.2464
    1DIPC   NC3 7681  18.939   7.661   6.579 -0.0802 -0.3775 -0.0280
    1DIPC   PO4 7682  18.625   7.964   6.428 -0.0287  0.1151 -0.2642
    1DIPC   GL1 7683  18.575   7.884   6.037  0.3943  0.0412  0.1674
    1DIPC   GL2 7684  18.252   7.784   6.029  0.1947  0.1681  0.0349
    1DIPC   C1A 7685  18.592   7.793   5.578  0.3945 -0.0537 -0.1320
    1DIPC   D2A 7686  18.682   7.394   5.401  0.0771  0.0006 -0.0028
    1DIPC   D3A 7687  19.037   7.495   5.065 -0.0361 -0.0918 -0.1706
    1DIPC   C4A 7688  18.994   7.159   4.744  0.1683  0.1780 -0.0512
    1DIPC   C1B 7689  17.910   7.791   5.691 -0.1522 -0.3668  0.0210
    1DIPC   D2B 7690  17.730   7.825   5.324 -0.1161  0.0180  0.0369
    1DIPC   D3B 7691  17.432   8.080   5.452 -0.2652 -0.1983 -0.1543
    1DIPC   C4B 7692  16.965   7.891   5.443  0.1843  0.1750 -0.0504
    1DIPC   NC3 7693  24.203   2.057   7.504 -0.4380  0.0914  0.0070
    1DIPC   PO4 7694  24.277   1.927   7.033  0.0958 -0.3210  0.3193
    1DIPC   GL1 7695  24.260   2.211   6.749  0.0919  0.2769  0.0966
    1DIPC   GL2 7696  24.039   2.420   6.733 -0.2031 -0.0127 -0.1443
    1DIPC   C1A 7697  24.134   2.233   6.286  0.1526  0.0722 -0.1860
    1DIPC   D2A 7698  24.018   2.294   5.836 -0.0983 -0.1707  0.0369
    1DIPC   D3A 7699  24.331   2.421   5.466  0.1033 -0.1047 -0.0651
    1DIPC   C4A 7700  24.498   2.088   5.394 -0.2742 -0.3614  0.0577
    1DIPC   C1B 7701  23.996   2.893   6.648 -0.2865 -0.2460 -0.0615
    1DIPC   D2B 7702  24.038   3.275   6.505  0.0521  0.1294  0.1313
    1DIPC   D3B 7703  23.757   3.058   6.225  0.0602  0.1258  0.1418
    1DIPC   C4B 7704  23.796   2.656   6.204  0.0597 -0.0268 -0.0607
    1DIPC   NC3 7705   8.082  26.402   6.899  0.0212  0.0091  0.0528
    1DIPC   PO4 7706   8.370  26.144   7.116  0.1702 -0.1895  0.1052
    1DIPC   GL1 7707   8.524  26.098   6.724  0.0006 -0.0106 -0.0385
    1DIPC   GL2 7708   8.311  25.986   6.553 -0.3325 -0.2694  0.0232
    1DIPC   C1A 7709   8.770  26.097   6.276 -0.1002 -0.0076 -0.1724
    1DIPC   D2A 7710   9.001  25.747   6.108 -0.1363 -0.0519 -0.1901
    1DIPC   D3A 7711   9.046  25.953   5.809 -0.1956  0.0295 -0.0460
    1DIPC   C4A 7712   9.172  26.378   6.013 -0.3747  0.1268  0.4268
    1DIPC   C1B 7713   8.488  25.755   6.097  0.2215 -0.2329  0.1127
    1DIPC   D2B 7714   8.503  25.831   5.686  0.4454  0.1554  0.1282
    1DIPC   D3B 7715   8.447  26.144   5.291  0.0581  0.0241 -0.1391
    1DIPC   C4B 7716   8.186  26.051   4.899 -0.0340 -0.2218  0.0299
    1DIPC   NC3 7717  17.033   2.496   6.821  0.1075 -0.0542 -0.2531
    1DIPC   PO4 7718  16.588   2.731   6.593 -0.0038  0.2012 -0.1552
    1DIPC   GL1 7719  16.547   2.617   6.199  0.1158  0.2714 -0.2399
    1DIPC   GL2 7720  16.227   2.643   6.035 -0.1726  0.2541 -0.0684
    1DIPC   C1A 7721  16.683   2.826   5.781 -0.0967 -0.1166  0.0182
    1DIPC   D2A 7722  16.622   2.750   5.337  0.0707  0.3988  0.0400
    1DIPC   D3A 7723  16.335   2.445   5.052 -0.0973 -0.0948  0.1333
    1DIPC   C4A 7724  15.881   2.452   5.061  0.1100 -0.1930 -0.3393
    1DIPC   C1B 7725  16.087   2.477   5.553 -0.0726  0.2014 -0.4203
    1DIPC   D2B 7726  16.020   2.102   5.393 -0.0366  0.0192  0.1938
    1DIPC   D3B 7727  15.744   1.799   5.227 -0.0992 -0.0339 -0.0578
    1DIPC   C4B 7728  15.407   1.922   4.964  0.0449  0.3040  0.2991
    1DIPC   NC3 7729   4.498   4.349   6.793  0.0394 -0.4165  0.0288
    1DIPC   PO4 7730   4.459   3.858   6.864  0.0460 -0.0034  0.2962
    1DIPC   GL1 7731   4.123   3.634   6.679 -0.3342 -0.0872  0.0842
    1DIPC   GL2 7732   3.986   3.301   6.706  0.1305 -0.0132 -0.1453
    1DIPC   C1A 7733   4.054   3.750   6.255  0.0915  0.1984  0.1443
    1DIPC   D2A 7734   4.049   4.183   5.973 -0.2467 -0.0708 -0.1491
    1DIPC   D3A 7735   4.396   4.180   6.243 -0.1836 -0.2890  0.1334
    1DIPC   C4A 7736   4.776   4.279   6.020 -0.1386  0.1489 -0.0307
    1DIPC   C1B 7737   4.187   3.189   6.320 -0.2973 -0.1896  0.3255
    1DIPC   D2B 7738   4.347   3.327   5.970 -0.0430  0.1159  0.0330
    1DIPC   D3B 7739   4.108   3.096   5.689  0.0873  0.2345  0.1306
    1DIPC   C4B 7740   3.982   3.273   5.225 -0.0461  0.2846 -0.1731
    1DIPC   NC3 7741   0.463  25.217   7.002  0.1520  0.1415  0.1522
    1DIPC   PO4 7742   0.483  24.879   6.677 -0.0542 -0.0262 -0.1320
    1DIPC   GL1 7743   0.844  25.208   6.484  0.3281  0.1480 -0.1867
    1DIPC   GL2 7744   1.153  25.054   6.448 -0.1359 -0.1669  0.0150
    1DIPC   C1A 7745   0.876  25.531   6.322 -0.3409 -0.0755  0.0209
    1DIPC   D2A 7746   0.899  26.007   6.354 -0.0715  0.0471  0.2258
    1DIPC   D3A 7747   1.152  26.351   6.451 -0.1204  0.0031  0.0242
    1DIPC   C4A 7748   1.474  26.570   6.139  0.1710 -0.1730  0.1435
    1DIPC   C1B 7749   0.843  25.081   6.061  0.1959 -0.2217  0.0609
    1DIPC   D2B 7750   0.461  25.204   5.953 -0.2540  0.0279  0.1024
    1DIPC   D3B 7751   0.115  24.923   5.724  0.1663  0.0361  0.3189
    1DIPC   C4B 7752   0.322  24.524   5.687 -0.1538  0.2237 -0.1290
    1DIPC   NC3 7753  15.304  19.187   6.670 -0.3479  0.1562 -0.0092
    1DIPC   PO4 7754  14.845  19.027   6.484  0.0463 -0.3008 -0.2282
    1DIPC   GL1 7755  14.883  19.015   6.086 -0.1381 -0.0531  0.1400
    1DIPC   GL2 7756  14.680  19.012   5.877  0.0676 -0.0678  0.1863
    1DIPC   C1A 7757  15.112  18.940   5.684 -0.4088 -0.1575 -0.1266
    1DIPC   D2A 7758  15.424  18.774   5.483  0.1904  0.0081  0.0988
    1DIPC   D3A 7759  15.680  18.700   5.158 -0.0040 -0.0612  0.1626
    1DIPC   C4A 7760  15.984  18.431   5.366  0.1586 -0.2104  0.0306
    1DIPC   C1B 7761  14.658  19.266   5.546 -0.1536 -0.1367  0.0382
    1DIPC   D2B 7762  14.685  19.184   5.112 -0.0633  0.0209 -0.2846
    1DIPC   D3B 7763  15.038  19.204   4.766 -0.1973  0.1629 -0.1284
    1DIPC   C4B 7764  15.150  18.801   4.536 -0.1125 -0.3981  0.0659
    1DIPC   NC3 7765  13.025  27.291   6.476 -0.0324 -0.5576  0.2834
    1DIPC   PO4 7766  13.432  27.548   6.381 -0.2806 -0.0067 -0.1831
    1DIPC   GL1 7767  13.468  27.708   6.025 -0.1099 -0.3332  0.1197
    1DIPC   GL2 7768  13.565  28.077   5.984 -0.2233  0.3085  0.5005
    1DIPC   C1A 7769  13.613  27.650   5.609 -0.0326  0.1348 -0.0559
    1DIPC   D2A 7770  13.580  27.488   5.202 -0.2155  0.1971  0.0528
    1DIPC   D3A 7771  13.179  27.584   5.413 -0.0518  0.3513 -0.0097
    1DIPC   C4A 7772  12.819  27.637   5.379 -0.1577 -0.2953 -0.0360
    1DIPC   C1B 7773  13.253  28.268   5.905 -0.2108 -0.2574  0.0117
    1DIPC   D2B 7774  13.117  28.642   5.550  0.2911  0.2186  0.0118
    1DIPC   D3B 7775  13.560  28.518   5.429 -0.3743  0.1262 -0.1512
    1DIPC   C4B 7776  13.766  28.676   5.139 -0.2749  0.2766  0.0299
    1DIPC   NC3 7777  11.174  25.445   6.787  0.3208  0.0518  0.1777
    1DIPC   PO4 7778  10.728  25.665   6.766 -0.0362  0.0911 -0.0073
    1DIPC   GL1 7779  10.512  25.722   6.314 -0.2977  0.0303 -0.2761
    1DIPC   GL2 7780  10.598  25.962   6.107 -0.0071 -0.1561 -0.1131
    1DIPC   C1A 7781  10.331  25.471   5.952 -0.1987  0.0888  0.3797
    1DIPC   D2A 7782  10.333  25.440   5.494  0.0604 -0.3043  0.1522
    1DIPC   D3A 7783  10.722  25.629   5.210 -0.0775 -0.1153 -0.3907
    1DIPC   C4A 7784  10.782  25.454   4.822 -0.0373  0.0570  0.1323
    1DIPC   C1B 7785  10.616  26.014   5.628 -0.1218 -0.0480 -0.0918
    1DIPC   D2B 7786  10.235  25.964   5.475  0.2996 -0.0187 -0.0481
    1DIPC   D3B 7787  10.387  26.130   5.121 -0.0004  0.0320  0.0859
    1DIPC   C4B 7788  10.479  25.880   4.678  0.0676 -0.1691  0.0539
    1DIPC   NC3 7789   9.075  20.933   6.937 -0.0953 -0.0818 -0.0595
    1DIPC   PO4 7790   9.145  20.794   6.597 -0.0374  0.3240 -0.0759
    1DIPC   GL1 7791   9.107  20.717   6.125 -0.1425  0.2371 -0.3104
    1DIPC   GL2 7792   8.852  20.752   5.914  0.1699 -0.2440 -0.2187
    1DIPC   C1A 7793   9.315  20.676   5.705 -0.2165 -0.1537 -0.2178
    1DIPC   D2A 7794   9.412  20.942   5.342 -0.2007  0.2140 -0.2408
    1DIPC   D3A 7795   9.105  21.092   5.058  0.2515 -0.0941  0.0971
    1DIPC   C4A 7796   9.198  21.436   4.601 -0.1207  0.3675 -0.0184
    1DIPC   C1B 7797   8.896  20.702   5.502  0.0265  0.1272 -0.0916
    1DIPC   D2B 7798   8.865  20.675   5.056 -0.0721  0.0139  0.2109
    1DIPC   D3B 7799   8.814  20.334   5.044  0.3146 -0.2525 -0.2215
    1DIPC   C4B 7800   8.877  20.050   4.640 -0.0711  0.2694 -0.1109
    1DIPC   NC3 7801  28.977   4.416   6.898  0.1081 -0.3180  0.2473
    1DIPC   PO4 7802  28.887   4.355   6.479 -0.1777  0.0369  0.0335
    1DIPC   GL1 7803  28.875   4.199   5.990 -0.1227  0.0832  0.0607
    1DIPC   GL2 7804  28.946   4.522   5.734  0.0784 -0.0135  0.0241
    1DIPC   C1A 7805  29.064   3.940   5.674 -0.1285  0.3426 -0.0534
    1DIPC   D2A 7806  29.304   3.747   5.481 -0.2046 -0.2289  0.3367
    1DIPC   D3A 7807  29.031   3.779   5.142 -0.1293 -0.1026  0.2425
    1DIPC   C4A 7808  28.675   3.875   4.989 -0.0866  0.0736 -0.1457
    1DIPC   C1B 7809  29.381   4.383   5.542  0.2479 -0.1850 -0.0641
    1DIPC   D2B 7810  29.735   4.383   5.310  0.1464 -0.0688  0.0911
    1DIPC   D3B 7811  29.398   4.103   5.002  0.0940 -0.0046  0.0228
    1DIPC   C4B 7812  29.530   3.738   5.043  0.0536 -0.0288  0.0036
    1DIPC   NC3 7813  26.852   7.686   6.832 -0.1444 -0.0140 -0.0579
    1DIPC   PO4 7814  27.028   7.930   6.491 -0.0302 -0.2637 -0.2277
    1DIPC   GL1 7815  27.193   7.989   6.145  0.2398  0.2020  0.1335
    1DIPC   GL2 7816  27.000   8.068   5.919  0.0787  0.0815  0.1116
    1DIPC   C1A 7817  27.399   7.653   5.987  0.3876  0.1000 -0.0259
    1DIPC   D2A 7818  27.445   7.357   5.742  0.1832  0.2091 -0.0771
    1DIPC   D3A 7819  27.806   7.472   5.370  0.0305 -0.4842 -0.2661
    1DIPC   C4A 7820  27.671   7.441   4.910  0.1129  0.1743  0.2013
    1DIPC   C1B 7821  26.840   7.970   5.540 -0.2829 -0.1044  0.3036
    1DIPC   D2B 7822  26.569   7.889   5.182 -0.0730  0.0388  0.1436
    1DIPC   D3B 7823  26.603   7.821   4.697 -0.2401  0.2795 -0.1876
    1DIPC   C4B 7824  26.530   7.440   4.567 -0.2433 -0.1631 -0.0241
    1DIPC   NC3 7825   6.590  27.596   6.493  0.0027 -0.1898 -0.0398
    1DIPC   PO4 7826   6.365  27.906   6.405  0.1146 -0.0044  0.0710
    1DIPC   GL1 7827   6.273  27.931   5.994  0.0358 -0.0485 -0.1472
    1DIPC   GL2 7828   6.543  28.032   5.866  0.0633  0.2815 -0.0509
    1DIPC   C1A 7829   6.243  27.635   5.568 -0.1109 -0.4931 -0.3603
    1DIPC   D2A 7830   5.949  27.429   5.212 -0.0354 -0.1684  0.0739
    1DIPC   D3A 7831   6.167  27.132   4.952 -0.2417 -0.0810 -0.1476
    1DIPC   C4A 7832   6.294  26.856   4.641 -0.0795 -0.0760 -0.1853
    1DIPC   C1B 7833   6.707  27.924   5.529  0.0024 -0.1298  0.1500
    1DIPC   D2B 7834   7.127  27.815   5.243 -0.0491  0.0587  0.1667
    1DIPC   D3B 7835   7.118  28.221   5.456  0.0148 -0.0224 -0.0264
    1DIPC   C4B 7836   7.140  28.605   5.294  0.1247 -0.4872 -0.2345
    1DIPC   NC3 7837   7.055  26.386   6.806  0.2737 -0.0992  0.3204
    1DIPC   PO4 7838   7.520  26.290   6.954 -0.0555  0.1550  0.0969
    1DIPC   GL1 7839   7.737  26.283   6.548  0.1666 -0.0065  0.1514
    1DIPC   GL2 7840   7.910  26.625   6.467 -0.1418 -0.0869  0.0430
    1DIPC   C1A 7841   7.805  26.022   6.128  0.0986  0.1174 -0.1527
    1DIPC   D2A 7842   8.039  25.782   5.865  0.1587 -0.0230 -0.0973
    1DIPC   D3A 7843   7.981  25.861   5.395 -0.2794 -0.1137 -0.1303
    1DIPC   C4A 7844   8.222  25.654   5.190  0.3111 -0.3110  0.1276
    1DIPC   C1B 7845   8.006  26.472   6.140 -0.0597  0.3311 -0.0390
    1DIPC   D2B 7846   8.306  26.209   5.983 -0.0591  0.3371 -0.0324
    1DIPC   D3B 7847   8.021  26.314   5.674 -0.1243 -0.0543 -0.3729
    1DIPC   C4B 7848   8.131  26.634   5.285 -0.0147  0.0848 -0.0551
    1DIPC   NC3 7849  15.517  21.126   6.741  0.1532  0.0887  0.2138
    1DIPC   PO4 7850  15.494  20.674   6.492 -0.1504 -0.3339 -0.2247
    1DIPC   GL1 7851  15.552  20.725   6.086 -0.1006  0.0795 -0.0479
    1DIPC   GL2 7852  15.786  20.792   5.923  0.0042 -0.2799  0.0055
    1DIPC   C1A 7853  15.301  20.781   5.793 -0.1768 -0.0840 -0.2215
    1DIPC   D2A 7854  15.199  20.417   5.558 -0.1885 -0.1718 -0.1299
    1DIPC   D3A 7855  15.402  20.305   5.162 -0.0259 -0.0255  0.1770
    1DIPC   C4A 7856  15.200  20.610   4.809 -0.2643  0.0780 -0.2318
    1DIPC   C1B 7857  15.583  21.022   5.488  0.0112 -0.3075 -0.0652
    1DIPC   D2B 7858  15.481  20.777   5.173  0.2719 -0.1456 -0.0046
    1DIPC   D3B 7859  15.506  21.024   4.761  0.4178  0.0232 -0.3212
    1DIPC   C4B 7860  15.530  21.467   4.735 -0.0971 -0.1597 -0.0074
    1DIPC   NC3 7861  11.902   9.663   6.780 -0.1678  0.1193 -0.1950
    1DIPC   PO4 7862  11.500   9.762   6.862 -0.0545 -0.4776  0.0423
    1DIPC   GL1 7863  11.625   9.726   6.383  0.0383 -0.0444 -0.1829
    1DIPC   GL2 7864  11.813   9.987   6.126 -0.0558 -0.0772  0.5206
    1DIPC   C1A 7865  11.779   9.403   6.042  0.2300  0.1517 -0.0991
    1DIPC   D2A 7866  11.860   9.251   5.653  0.1119 -0.0862  0.2502
    1DIPC   D3A 7867  12.078   9.381   5.184  0.1781 -0.0746 -0.2862
    1DIPC   C4A 7868  11.777   9.236   4.866  0.4378  0.0705  0.0835
    1DIPC   C1B 7869  11.935  10.159   5.713  0.0762 -0.3690 -0.0211
    1DIPC   D2B 7870  12.246  10.027   5.431 -0.1467 -0.0827  0.0613
    1DIPC   D3B 7871  12.257  10.248   4.979  0.1050  0.4076 -0.0641
    1DIPC   C4B 7872  12.601  10.600   4.927  0.0613 -0.1870 -0.0636
    1DIPC   NC3 7873   5.698   1.802   6.806  0.2114 -0.1265  0.0118
    1DIPC   PO4 7874   5.857   2.042   7.080  0.0436  0.0262 -0.2094
    1DIPC   GL1 7875   6.068   2.123   6.667 -0.3771  0.3121  0.1077
    1DIPC   GL2 7876   6.408   2.255   6.661 -0.3470  0.4767 -0.0818
    1DIPC   C1A 7877   6.074   2.024   6.226  0.0826 -0.4268 -0.0582
    1DIPC   D2A 7878   5.742   1.830   5.939 -0.1450  0.0465 -0.0899
    1DIPC   D3A 7879   5.916   2.090   5.658 -0.3524  0.0941  0.1121
    1DIPC   C4A 7880   6.261   2.344   5.801  0.2195 -0.0983 -0.1812
    1DIPC   C1B 7881   6.604   2.119   6.176  0.3355 -0.1107 -0.0964
    1DIPC   D2B 7882   6.874   2.296   5.802  0.2056  0.3922  0.0089
    1DIPC   D3B 7883   6.712   2.599   5.619 -0.1070 -0.0388 -0.0116
    1DIPC   C4B 7884   6.671   2.848   5.173 -0.0022  0.1721  0.1439
    1DIPC   NC3 7885   7.380  27.489   6.937 -0.0397 -0.3961  0.0953
    1DIPC   PO4 7886   7.114  27.689   6.668  0.0007 -0.0772 -0.1715
    1DIPC   GL1 7887   7.196  27.725   6.297 -0.1454 -0.1148  0.1390
    1DIPC   GL2 7888   6.920  27.840   6.200  0.3172 -0.4900 -0.1180
    1DIPC   C1A 7889   7.380  27.915   5.880 -0.0683  0.0578 -0.0731
    1DIPC   D2A 7890   7.719  28.158   5.655  0.1178 -0.0759  0.0457
    1DIPC   D3A 7891   7.616  27.896   5.295 -0.0528 -0.1051 -0.0884
    1DIPC   C4A 7892   7.918  27.579   5.192 -0.2309  0.1177 -0.1185
    1DIPC   C1B 7893   7.010  28.252   5.967  0.1971 -0.1779  0.0435
    1DIPC   D2B 7894   7.018  28.680   5.791 -0.0331  0.3378  0.0902
    1DIPC   D3B 7895   6.674  28.504   5.672 -0.1315 -0.3231 -0.2639
    1DIPC   C4B 7896   6.555  28.521   5.251  0.0974  0.1420  0.1420
    1DIPC   NC3 7897   0.579  28.351   6.496 -0.2965  0.0592 -0.4250
    1DIPC   PO4 7898   0.630  28.769   6.746  0.4651  0.1623  0.0481
    1DIPC   GL1 7899   0.334  28.832   6.444  0.1954  0.3286  0.0607
    1DIPC   GL2 7900   0.174  29.115   6.660  0.0811  0.0470  0.1828
    1DIPC   C1A 7901   0.256  28.843   6.004 -0.2076  0.1335  0.0950
    1DIPC   D2A 7902  -0.029  28.595   5.796 -0.0620 -0.2991  0.0146
    1DIPC   D3A 7903  -0.047  28.596   5.344  0.1310 -0.2446  0.0297
    1DIPC   C4A 7904  -0.030  28.982   5.031  0.0474 -0.0211 -0.2703
    1DIPC   C1B 7905  -0.211  28.925   6.372 -0.0667  0.1592  0.0635
    1DIPC   D2B 7906  -0.375  28.984   5.943 -0.1127  0.1730  0.1835
    1DIPC   D3B 7907  -0.040  29.220   5.962 -0.1365 -0.1028 -0.0439
    1DIPC   C4B 7908   0.115  29.566   5.701  0.2550 -0.0428 -0.0412
    1DIPC   NC3 7909  14.199   7.919   6.840 -0.0908  0.2122 -0.0451
    1DIPC   PO4 7910  14.097   8.413   6.761  0.0586 -0.2521 -0.1121
    1DIPC   GL1 7911  14.309   8.474   6.330  0.0137 -0.2303 -0.0518
    1DIPC   GL2 7912  14.255   8.846   6.246 -0.1972 -0.0120  0.1903
    1DIPC   C1A 7913  14.266   8.164   6.008 -0.1738 -0.2617 -0.0227
    1DIPC   D2A 7914  14.160   7.811   5.731 -0.3505 -0.0378 -0.0712
    1DIPC   D3A 7915  13.667   7.860   5.672  0.0111 -0.0389  0.2468
    1DIPC   C4A 7916  13.544   7.677   5.274  0.1337  0.1034  0.1254
    1DIPC   C1B 7917  14.098   9.116   5.899 -0.0973 -0.1277 -0.0500
    1DIPC   D2B 7918  14.071   9.447   5.634  0.1094 -0.2096 -0.0904
    1DIPC   D3B 7919  13.988   9.390   5.212  0.0692 -0.1188  0.1737
    1DIPC   C4B 7920  13.849   9.478   4.721 -0.1350  0.0076  0.2184
    1DIPC   NC3 7921   5.255  28.530   6.642  0.0406  0.2286  0.4318
    1DIPC   PO4 7922   4.903  28.673   6.207 -0.2128  0.0511 -0.0359
    1DIPC   GL1 7923   4.815  28.732   5.780 -0.0512 -0.3107  0.1933
    1DIPC   GL2 7924   4.777  28.435   5.605  0.1889  0.1944 -0.0771
    1DIPC   C1A 7925   4.857  28.799   5.292 -0.0614 -0.0251 -0.0137
    1DIPC   D2A 7926   5.000  28.723   4.945  0.1503  0.0180 -0.2126
    1DIPC   D3A 7927   5.000  28.461   4.466 -0.2015  0.0359 -0.0588
    1DIPC   C4A 7928   4.781  28.078   4.403  0.2110  0.0008  0.1300
    1DIPC   C1B 7929   5.023  28.271   5.284 -0.0109 -0.2760  0.1469
    1DIPC   D2B 7930   5.337  28.311   4.917 -0.1970  0.3311  0.1339
    1DIPC   D3B 7931   5.699  28.340   5.234 -0.1868  0.2729 -0.1425
    1DIPC   C4B 7932   6.160  28.131   5.378 -0.0531 -0.1138 -0.4516
    1DIPC   NC3 7933   6.233   7.871   7.578  0.2031 -0.3044  0.1912
    1DIPC   PO4 7934   6.553   7.832   7.153  0.0843  0.0417 -0.0777
    1DIPC   GL1 7935   6.489   7.797   6.727 -0.1067  0.0690 -0.1597
    1DIPC   GL2 7936   6.569   8.021   6.442  0.3628 -0.2343 -0.5204
    1DIPC   C1A 7937   6.514   7.483   6.349  0.3363  0.2410 -0.2998
    1DIPC   D2A 7938   6.724   7.313   5.957  0.1310  0.2574 -0.1090
    1DIPC   D3A 7939   6.832   7.767   5.991 -0.1123  0.1184  0.2033
    1DIPC   C4A 7940   7.301   7.799   6.114 -0.0470  0.2272  0.0133
    1DIPC   C1B 7941   6.422   8.196   6.046 -0.1317 -0.0238 -0.2440
    1DIPC   D2B 7942   6.231   8.308   5.665 -0.2081 -0.2672 -0.0274
    1DIPC   D3B 7943   6.345   7.838   5.584  0.2726  0.3613  0.4074
    1DIPC   C4B 7944   6.450   7.823   5.255  0.1300  0.1899  0.2320
    1DIPC   NC3 7945  17.332   9.700   7.190  0.0186 -0.0621  0.0203
    1DIPC   PO4 7946  17.245   9.639   6.769 -0.1255  0.0471 -0.0976
    1DIPC   GL1 7947  17.337   9.718   6.288  0.1730  0.0678 -0.2233
    1DIPC   GL2 7948  17.317   9.373   6.274  0.2549  0.3034  0.0425
    1DIPC   C1A 7949  17.325   9.981   5.951  0.0966  0.0927  0.1376
    1DIPC   D2A 7950  17.383  10.143   5.481  0.0409 -0.4841 -0.5266
    1DIPC   D3A 7951  17.684  10.137   5.151 -0.0823 -0.0082 -0.0967
    1DIPC   C4A 7952  17.999  10.284   5.298  0.1298 -0.2203 -0.1691
    1DIPC   C1B 7953  17.260   8.965   5.960 -0.1582  0.2185  0.0514
    1DIPC   D2B 7954  17.365   8.619   5.702 -0.2309  0.2516 -0.1989
    1DIPC   D3B 7955  16.923   8.441   5.534  0.0598 -0.0094 -0.1859
    1DIPC   C4B 7956  16.952   8.364   5.129 -0.1485 -0.2946 -0.1374
    1DIPC   NC3 7957   4.430  26.967   6.771  0.1798 -0.1251 -0.0113
    1DIPC   PO4 7958   4.024  26.923   6.511 -0.1170  0.1476  0.1966
    1DIPC   GL1 7959   3.956  27.086   6.069 -0.2868 -0.1211 -0.0635
    1DIPC   GL2 7960   4.131  27.030   5.767  0.0695  0.2103  0.0947
    1DIPC   C1A 7961   3.743  27.323   5.613  0.0257  0.2182  0.0802
    1DIPC   D2A 7962   3.592  27.579   5.257  0.2027  0.0871 -0.0860
    1DIPC   D3A 7963   3.518  27.443   4.829  0.0262  0.0204 -0.1398
    1DIPC   C4A 7964   3.250  27.768   4.660 -0.0149  0.3350 -0.0880
    1DIPC   C1B 7965   4.132  26.626   5.531  0.0378  0.0633  0.2432
    1DIPC   D2B 7966   3.888  26.257   5.426  0.0576 -0.3176  0.4910
    1DIPC   D3B 7967   3.697  26.547   5.232 -0.0209 -0.0887 -0.4239
    1DIPC   C4B 7968   3.827  27.011   5.248 -0.0145 -0.2162 -0.0525
    1DIPC   NC3 7969  10.799  26.095   6.545  0.0229 -0.1945  0.2532
    1DIPC   PO4 7970  11.262  26.133   6.525  0.2296 -0.0657 -0.2018
    1DIPC   GL1 7971  11.083  26.178   6.085  0.3167 -0.1665  0.0020
    1DIPC   GL2 7972  11.320  26.110   5.986  0.1116 -0.1246  0.2388
    1DIPC   C1A 7973  10.968  26.371   5.708  0.0934 -0.5447 -0.1477
    1DIPC   D2A 7974  10.939  26.230   5.197  0.2688  0.1954 -0.0646
    1DIPC   D3A 7975  11.081  25.947   5.556  0.1472  0.0425  0.0609
    1DIPC   C4A 7976  10.979  25.673   5.890  0.0520  0.4197  0.0401
    1DIPC   C1B 7977  11.485  26.348   5.649 -0.1193 -0.0413  0.2648
    1DIPC   D2B 7978  11.688  26.617   5.361 -0.0895 -0.1959  0.0116
    1DIPC   D3B 7979  11.743  26.337   4.935  0.3792  0.2343  0.1623
    1DIPC   C4B 7980  12.056  26.051   4.935  0.1065  0.0076  0.2101
    1DIPC   NC3 7981   9.584   9.479   6.791  0.2304 -0.0834 -0.0609
    1DIPC   PO4 7982   9.943   9.736   6.462  0.1468 -0.0001 -0.1692
    1DIPC   GL1 7983   9.934   9.702   5.978  0.2027  0.6411 -0.1590
    1DIPC   GL2 7984   9.944   9.913   5.786  0.0908 -0.0244 -0.4473
    1DIPC   C1A 7985  10.346   9.520   5.787 -0.2797  0.1834  0.1307
    1DIPC   D2A 7986  10.646   9.261   5.591 -0.2531 -0.0264 -0.3383
    1DIPC   D3A 7987  10.612   9.255   5.114  0.2037  0.1210  0.2600
    1DIPC   C4A 7988  10.589   8.909   4.879 -0.1221  0.1481 -0.0185
    1DIPC   C1B 7989  10.349   9.830   5.451 -0.1220 -0.2128  0.2461
    1DIPC   D2B 7990  10.690   9.895   5.066  0.1807  0.0991 -0.1710
    1DIPC   D3B 7991  10.487  10.066   4.671 -0.1436 -0.0434  0.0728
    1DIPC   C4B 7992  10.060  10.105   4.696  0.1708 -0.1522  0.2244
    1DIPC   NC3 7993  27.615  25.133   6.810 -0.0051 -0.3866  0.0920
    1DIPC   PO4 7994  27.657  24.830   6.408 -0.0841  0.3538 -0.2551
    1DIPC   GL1 7995  27.599  24.827   5.903 -0.1366 -0.0079 -0.0588
    1DIPC   GL2 7996  27.821  24.626   5.682  0.3681  0.0683 -0.1555
    1DIPC   C1A 7997  27.414  25.089   5.661 -0.3798 -0.0643 -0.2389
    1DIPC   D2A 7998  27.050  25.286   5.403 -0.2209  0.0683  0.1061
    1DIPC   D3A 7999  27.077  25.338   4.915 -0.0828  0.0638  0.2662
    1DIPC   C4A 8000  27.465  25.550   4.667  0.0948 -0.3314 -0.2518
    1DIPC   C1B 8001  27.826  24.921   5.490 -0.3062 -0.2654  0.0838
    1DIPC   D2B 8002  27.842  25.314   5.523 -0.2371  0.0643  0.2954
    1DIPC   D3B 8003  28.024  25.320   5.920 -0.3231 -0.0471  0.3100
    1DIPC   C4B 8004  28.453  25.592   6.001  0.2475 -0.1451 -0.2130
    1DIPC   NC3 8005  14.419   8.985   6.664 -0.1438  0.1563  0.1679
    1DIPC   PO4 8006  14.677   9.285   6.704  0.2980  0.1434  0.1304
    1DIPC   GL1 8007  14.684   9.104   6.230  0.0948 -0.0340  0.3063
    1DIPC   GL2 8008  14.965   9.147   6.018 -0.1972  0.0150 -0.0132
    1DIPC   C1A 8009  14.535   8.939   5.824 -0.1301  0.0057  0.0579
    1DIPC   D2A 8010  14.321   8.605   5.680  0.1132 -0.2045 -0.0449
    1DIPC   D3A 8011  14.018   8.264   5.495 -0.1819 -0.4067 -0.2011
    1DIPC   C4A 8012  13.765   8.259   5.149 -0.3482 -0.1265  0.2780
    1DIPC   C1B 8013  14.923   9.545   5.733 -0.0532 -0.0556  0.2215
    1DIPC   D2B 8014  15.184   9.566   5.292  0.2410  0.1961 -0.1008
    1DIPC   D3B 8015  14.976   9.179   5.356  0.3222 -0.1104  0.3175
    1DIPC   C4B 8016  14.859   8.997   4.925  0.0023  0.1832 -0.0527
    1DIPC   NC3 8017  20.224  20.513   6.405  0.0017 -0.0513 -0.0651
    1DIPC   PO4 8018  20.350  20.855   6.076  0.0338 -0.3356  0.0262
    1DIPC   GL1 8019  20.150  20.667   5.691 -0.1089 -0.0085 -0.0371
    1DIPC   GL2 8020  19.802  20.748   5.612 -0.1896  0.0132  0.0503
    1DIPC   C1A 8021  20.313  20.521   5.194 -0.1040  0.1198  0.0038
    1DIPC   D2A 8022  20.190  20.668   4.773  0.1247  0.1092  0.0777
    1DIPC   D3A 8023  19.982  20.841   4.436  0.1877  0.0203 -0.1091
    1DIPC   C4A 8024  19.920  21.208   4.383  0.0266  0.0391  0.2321
    1DIPC   C1B 8025  19.999  20.954   5.294 -0.1408 -0.2435 -0.1669
    1DIPC   D2B 8026  20.263  21.070   4.941  0.0197 -0.1499  0.0935
    1DIPC   D3B 8027  19.850  21.273   4.891 -0.0587  0.1784  0.1426
    1DIPC   C4B 8028  19.427  21.324   4.753  0.0806 -0.1024  0.1867
    1DIPC   NC3 8029  21.186   6.679   6.559 -0.0242 -0.1337 -0.0040
    1DIPC   PO4 8030  21.549   6.466   6.799 -0.0162 -0.1147 -0.1084
    1DIPC   GL1 8031  21.654   6.193   6.497  0.5003 -0.0694  0.1287
    1DIPC   GL2 8032  21.324   6.237   6.311 -0.0579  0.1383 -0.1229
    1DIPC   C1A 8033  21.559   5.878   6.095 -0.0251  0.1831  0.0053
    1DIPC   D2A 8034  21.404   5.911   5.642 -0.0932 -0.1197 -0.0961
    1DIPC   D3A 8035  20.992   5.962   5.549  0.1614 -0.0185 -0.4912
    1DIPC   C4A 8036  20.865   6.150   5.085  0.1835  0.1507 -0.1204
    1DIPC   C1B 8037  21.247   6.316   5.896  0.0024 -0.0412 -0.1529
    1DIPC   D2B 8038  21.196   6.404   5.457  0.5758  0.2400 -0.1484
    1DIPC   D3B 8039  21.485   6.401   5.094 -0.3521 -0.1941 -0.2167
    1DIPC   C4B 8040  21.298   6.273   4.702 -0.1661 -0.0433 -0.0931
    1DIPC   NC3 8041   9.882  27.340   7.537  0.0138  0.0977  0.2437
    1DIPC   PO4 8042   9.951  27.379   7.119 -0.0845  0.0662  0.0564
    1DIPC   GL1 8043   9.786  27.137   6.841 -0.0605 -0.2763 -0.2309
    1DIPC   GL2 8044   9.568  26.937   6.950  0.3635  0.6869 -0.0095
    1DIPC   C1A 8045   9.309  27.217   6.661 -0.0065 -0.2057  0.2227
    1DIPC   D2A 8046   9.076  27.478   6.444  0.0311  0.2869  0.0213
    1DIPC   D3A 8047   9.050  27.402   6.115 -0.1590 -0.0266  0.2385
    1DIPC   C4A 8048   8.975  27.513   5.709 -0.0438 -0.1579  0.0229
    1DIPC   C1B 8049   9.583  26.581   6.581  0.0798  0.0696  0.3228
    1DIPC   D2B 8050   9.512  26.724   6.221 -0.0429  0.1725  0.1354
    1DIPC   D3B 8051   9.288  26.929   6.083 -0.1640 -0.1987  0.0841
    1DIPC   C4B 8052   9.029  26.775   5.763  0.2450 -0.2035  0.1907
    1DIPC   NC3 8053  28.727   7.108   6.210 -0.3485  0.2420  0.1172
    1DIPC   PO4 8054  28.489   6.781   6.241  0.0499  0.2430  0.0969
    1DIPC   GL1 8055  28.411   6.826   5.862  0.2486 -0.2045  0.0876
    1DIPC   GL2 8056  28.241   6.461   5.826  0.0221 -0.1204  0.1065
    1DIPC   C1A 8057  28.655   6.783   5.475  0.3122  0.2158  0.2290
    1DIPC   D2A 8058  28.978   6.703   5.121 -0.1232  0.1893 -0.4268
    1DIPC   D3A 8059  28.639   6.451   5.075 -0.0233  0.1485  0.0714
    1DIPC   C4A 8060  28.540   6.330   4.717 -0.2831 -0.1807  0.1209
    1DIPC   C1B 8061  27.811   6.627   5.827 -0.0952 -0.1367  0.2252
    1DIPC   D2B 8062  27.516   6.962   5.496 -0.0882 -0.2377 -0.0636
    1DIPC   D3B 8063  27.386   7.039   5.027  0.0153  0.3280  0.0773
    1DIPC   C4B 8064  27.671   6.930   4.720 -0.0302  0.2963  0.0818
    1DIPC   NC3 8065  12.465  12.871   7.022  0.2100  0.3041  0.0478
    1DIPC   PO4 8066  12.607  13.290   6.996 -0.1632  0.1702  0.0796
    1DIPC   GL1 8067  12.536  13.132   6.556  0.1859 -0.0461  0.0104
    1DIPC   GL2 8068  12.567  12.892   6.408  0.3505 -0.1677 -0.0409
    1DIPC   C1A 8069  12.385  13.341   6.195  0.1166 -0.1011 -0.2498
    1DIPC   D2A 8070  12.566  13.323   5.863  0.2091  0.0634 -0.1863
    1DIPC   D3A 8071  12.097  13.615   5.857 -0.0315  0.1768 -0.1723
    1DIPC   C4A 8072  11.907  13.812   5.615 -0.0969  0.0783 -0.1258
    1DIPC   C1B 8073  12.119  12.891   6.263  0.0654 -0.0488  0.1245
    1DIPC   D2B 8074  11.995  13.123   6.013  0.3461  0.3039 -0.2350
    1DIPC   D3B 8075  11.976  13.008   5.579  0.0916  0.0519 -0.2155
    1DIPC   C4B 8076  12.055  12.741   5.303  0.0623  0.2080  0.0218
    1DIPC   NC3 8077  11.550  24.071   6.149  0.0624 -0.0801  0.2395
    1DIPC   PO4 8078  11.749  23.659   6.324  0.0953 -0.1867 -0.0768
    1DIPC   GL1 8079  11.613  23.587   5.820  0.0185 -0.1328 -0.0076
    1DIPC   GL2 8080  11.387  23.790   5.741 -0.0432 -0.0064 -0.1033
    1DIPC   C1A 8081  11.647  23.692   5.391  0.0990 -0.1075  0.3245
    1DIPC   D2A 8082  11.595  23.710   4.947 -0.1553 -0.2371  0.2157
    1DIPC   D3A 8083  11.775  24.112   4.955 -0.1652  0.1970  0.5725
    1DIPC   C4A 8084  11.846  24.358   4.538  0.1521  0.3556  0.0044
    1DIPC   C1B 8085  11.096  23.760   5.331 -0.0901 -0.1987  0.4052
    1DIPC   D2B 8086  10.856  23.462   5.191  0.1579 -0.1210 -0.1153
    1DIPC   D3B 8087  10.715  23.456   4.691 -0.2372 -0.3086 -0.1571
    1DIPC   C4B 8088  10.338  23.442   4.625 -0.0311  0.2317  0.1806
    1DIPC   NC3 8089   4.205  22.112   7.171 -0.1451  0.6593  0.3203
    1DIPC   PO4 8090   3.891  22.408   7.093 -0.4490 -0.0688  0.2527
    1DIPC   GL1 8091   4.107  22.357   6.739  0.2209 -0.0364  0.0171
    1DIPC   GL2 8092   4.246  22.178   6.611  0.1040  0.5546  0.0223
    1DIPC   C1A 8093   3.879  22.314   6.344  0.2346 -0.4118 -0.2246
    1DIPC   D2A 8094   3.719  22.577   6.100  0.0184 -0.2864  0.2016
    1DIPC   D3A 8095   3.980  22.518   5.780 -0.2309  0.1516  0.3317
    1DIPC   C4A 8096   3.838  22.296   5.441  0.1333 -0.0230 -0.2073
    1DIPC   C1B 8097   4.358  22.394   6.251 -0.0749  0.2402  0.1221
    1DIPC   D2B 8098   4.487  22.675   5.883  0.1266  0.0663 -0.0048
    1DIPC   D3B 8099   4.714  23.008   6.021 -0.2428  0.3422  0.2697
    1DIPC   C4B 8100   4.576  22.856   6.433 -0.1026 -0.0564  0.0103
    1DIPC   NC3 8101   0.652  27.550   6.539 -0.3904 -0.0643  0.1111
    1DIPC   PO4 8102   0.359  27.907   6.419 -0.2200  0.1374  0.0933
    1DIPC   GL1 8103   0.193  28.086   6.046 -0.1947 -0.1270 -0.1127
    1DIPC   GL2 8104   0.458  28.397   5.939  0.0083  0.0290 -0.0254
    1DIPC   C1A 8105   0.173  28.151   5.623 -0.0397  0.0453 -0.3549
    1DIPC   D2A 8106   0.141  28.174   5.207  0.5154  0.2254 -0.2082
    1DIPC   D3A 8107   0.407  27.915   4.863  0.1108 -0.2507 -0.0709
    1DIPC   C4A 8108   0.759  27.766   4.907  0.1961 -0.1148 -0.0208
    1DIPC   C1B 8109   0.454  28.613   5.589 -0.0514 -0.2968 -0.0772
    1DIPC   D2B 8110   0.696  28.791   5.288 -0.3067  0.1561  0.1920
    1DIPC   D3B 8111   1.056  28.511   5.222 -0.0382  0.0819 -0.1316
    1DIPC   C4B 8112   1.239  27.974   5.109  0.0818 -0.0254  0.0669
    1DIPC   NC3 8113  11.442   0.692   7.064 -0.0253  0.1726 -0.0230
    1DIPC   PO4 8114  11.787   0.381   7.010 -0.0850  0.2288  0.2807
    1DIPC   GL1 8115  11.612   0.431   6.669 -0.0446  0.1324  0.0530
    1DIPC   GL2 8116  11.257   0.411   6.604  0.2569 -0.1924  0.0072
    1DIPC   C1A 8117  11.604   0.320   6.305 -0.1205 -0.1578 -0.1213
    1DIPC   D2A 8118  11.905   0.250   5.950  0.0605  0.1888  0.0158
    1DIPC   D3A 8119  12.284   0.373   5.975  0.0318 -0.0048 -0.2571
    1DIPC   C4A 8120  12.618   0.129   6.263 -0.1409  0.0301 -0.0831
    1DIPC   C1B 8121  10.848   0.377   6.376 -0.0232  0.1889  0.1947
    1DIPC   D2B 8122  10.560   0.218   6.093 -0.0510 -0.2114 -0.2062
    1DIPC   D3B 8123  10.659   0.137   5.599 -0.3393  0.3295 -0.0527
    1DIPC   C4B 8124  10.458   0.467   5.245 -0.1163  0.1648  0.2188
    1DIPC   NC3 8125   0.878   1.741   6.718  0.1865  0.1250 -0.0008
    1DIPC   PO4 8126   0.592   1.660   6.404  0.1911  0.1642 -0.2249
    1DIPC   GL1 8127   0.748   1.372   6.187  0.0261  0.3156 -0.0943
    1DIPC   GL2 8128   0.560   1.412   5.923  0.0031  0.2411 -0.1075
    1DIPC   C1A 8129   1.016   1.117   5.924  0.2554 -0.1475 -0.0292
    1DIPC   D2A 8130   0.831   0.811   5.640 -0.0486 -0.0708  0.0326
    1DIPC   D3A 8131   1.012   0.657   5.287  0.0184  0.2015 -0.1444
    1DIPC   C4A 8132   1.451   0.875   5.249  0.1934  0.0745  0.2203
    1DIPC   C1B 8133   0.605   1.347   5.481 -0.0989  0.1237  0.0839
    1DIPC   D2B 8134   0.556   1.106   5.132 -0.1443  0.3341  0.1671
    1DIPC   D3B 8135   0.606   1.093   4.774 -0.0510  0.1358  0.0514
    1DIPC   C4B 8136   0.816   0.653   4.719  0.1412 -0.3463 -0.1852
    1DIPC   NC3 8137  11.448  11.520   6.836  0.0532  0.2439 -0.2485
    1DIPC   PO4 8138  11.709  11.569   6.594  0.1097  0.2961  0.0822
    1DIPC   GL1 8139  11.813  11.304   6.330  0.2826  0.1991  0.1692
    1DIPC   GL2 8140  11.482  11.249   6.165 -0.0878  0.1575 -0.0696
    1DIPC   C1A 8141  12.045  11.118   5.909 -0.3056  0.1003 -0.1080
    1DIPC   D2A 8142  12.202  11.059   5.487 -0.0330  0.0129 -0.0933
    1DIPC   D3A 8143  12.092  11.174   5.123 -0.1568  0.0120 -0.0822
    1DIPC   C4A 8144  11.653  11.115   4.964 -0.0026  0.1777 -0.1396
    1DIPC   C1B 8145  11.621  10.880   5.815  0.0768 -0.1120  0.0237
    1DIPC   D2B 8146  11.757  10.835   5.392  0.1663  0.2008  0.0710
    1DIPC   D3B 8147  11.364  11.081   5.386  0.1458 -0.2113  0.0265
    1DIPC   C4B 8148  11.221  11.286   5.764 -0.2138 -0.1122  0.0354
    1DIPC   NC3 8149  20.554  18.491   6.083 -0.2065  0.1754 -0.0603
    1DIPC   PO4 8150  20.798  18.498   5.624  0.3259 -0.1645  0.0842
    1DIPC   GL1 8151  20.948  18.548   5.197  0.0460  0.0185  0.0270
    1DIPC   GL2 8152  20.784  18.327   4.967  0.4284 -0.1438 -0.0476
    1DIPC   C1A 8153  20.882  18.761   4.849  0.0462 -0.1093  0.2025
    1DIPC   D2A 8154  20.603  18.925   4.501 -0.1224 -0.1262 -0.1112
    1DIPC   D3A 8155  20.254  18.732   4.210 -0.0790 -0.0581 -0.2882
    1DIPC   C4A 8156  19.903  18.633   3.920  0.1173  0.0826 -0.1846
    1DIPC   C1B 8157  20.924  18.124   4.673 -0.1072 -0.0699  0.1073
    1DIPC   D2B 8158  21.001  18.062   4.240 -0.0037  0.3669  0.0777
    1DIPC   D3B 8159  21.273  18.334   4.065 -0.1208 -0.0424  0.1647
    1DIPC   C4B 8160  21.202  18.468   3.654 -0.1985 -0.0235 -0.0215
    1DIPC   NC3 8161  28.095   0.971   7.188  0.1793  0.1398 -0.2946
    1DIPC   PO4 8162  28.140   0.691   6.889  0.0023 -0.2300  0.1380
    1DIPC   GL1 8163  28.229   0.752   6.491 -0.2188 -0.1550  0.0873
    1DIPC   GL2 8164  28.522   0.876   6.366  0.1466 -0.2189 -0.0750
    1DIPC   C1A 8165  28.032   0.967   6.082 -0.4726 -0.0689 -0.3054
    1DIPC   D2A 8166  27.991   0.918   5.652 -0.1435  0.1840 -0.0707
    1DIPC   D3A 8167  27.656   1.055   5.369  0.0212  0.0621  0.0201
    1DIPC   C4A 8168  27.811   0.954   4.952  0.1349  0.1616  0.1614
    1DIPC   C1B 8169  28.397   1.316   6.193  0.0835  0.0240 -0.3160
    1DIPC   D2B 8170  28.400   1.787   6.157  0.0301 -0.0314  0.0146
    1DIPC   D3B 8171  28.610   1.669   5.765 -0.0862 -0.2066  0.2228
    1DIPC   C4B 8172  28.692   1.836   5.364  0.1577 -0.3442 -0.2401
    1DIPC   NC3 8173   9.958  23.441   6.609 -0.1001  0.2281  0.0893
    1DIPC   PO4 8174   9.945  23.906   6.693 -0.0558  0.1991 -0.1606
    1DIPC   GL1 8175   9.987  23.848   6.246 -0.2629  0.0928 -0.0476
    1DIPC   GL2 8176   9.884  24.089   5.966  0.0784  0.0021  0.0138
    1DIPC   C1A 8177  10.301  23.642   5.981 -0.0921 -0.2769 -0.0294
    1DIPC   D2A 8178  10.666  23.513   6.105 -0.0009  0.1478  0.0567
    1DIPC   D3A 8179  10.686  23.496   5.690 -0.1419  0.1821  0.1507
    1DIPC   C4A 8180  10.517  23.813   5.517  0.0490 -0.1890 -0.3843
    1DIPC   C1B 8181  10.010  23.963   5.602  0.0441  0.2057  0.1636
    1DIPC   D2B 8182   9.976  23.828   5.177  0.2948  0.2423 -0.4067
    1DIPC   D3B 8183  10.373  23.763   5.059  0.0906  0.1081  0.1562
    1DIPC   C4B 8184  10.497  23.899   4.653  0.0879 -0.1183 -0.1762
    1DIPC   NC3 8185  19.854  20.929   6.047 -0.1544 -0.2917  0.0173
    1DIPC   PO4 8186  19.776  21.330   6.008  0.2029  0.0507  0.2585
    1DIPC   GL1 8187  19.452  21.389   5.706  0.1732 -0.1309  0.0620
    1DIPC   GL2 8188  19.356  21.059   5.616  0.0038  0.0737  0.5366
    1DIPC   C1A 8189  19.105  21.465   5.398  0.0738 -0.1340 -0.0320
    1DIPC   D2A 8190  19.144  21.671   4.997  0.3640 -0.0627 -0.1654
    1DIPC   D3A 8191  19.538  21.840   4.771  0.1657  0.0251  0.1454
    1DIPC   C4A 8192  19.753  21.881   4.347  0.1448 -0.2111  0.0275
    1DIPC   C1B 8193  19.512  21.065   5.235 -0.3307  0.0811  0.0465
    1DIPC   D2B 8194  19.729  20.774   4.924  0.1572 -0.1818 -0.1074
    1DIPC   D3B 8195  19.434  20.807   4.641  0.0426 -0.2224 -0.1266
    1DIPC   C4B 8196  19.287  20.404   4.421  0.1619 -0.2144  0.0439
    1DIPC   NC3 8197  11.156  10.142   6.770  0.0717 -0.1535  0.0324
    1DIPC   PO4 8198  11.443  10.498   6.731 -0.2313 -0.0631 -0.1316
    1DIPC   GL1 8199  11.307  10.231   6.302 -0.1639 -0.1666  0.1321
    1DIPC   GL2 8200  11.505  10.429   6.147  0.1277 -0.1994 -0.1440
    1DIPC   C1A 8201  10.976  10.241   5.988 -0.0772  0.1163 -0.1715
    1DIPC   D2A 8202  10.629   9.994   5.862  0.1990  0.1493 -0.1537
    1DIPC   D3A 8203  10.707  10.271   5.517  0.0770 -0.3932  0.1751
    1DIPC   C4A 8204  10.416  10.253   5.116 -0.0151  0.0663 -0.1055
    1DIPC   C1B 8205  11.468  10.291   5.733  0.1760  0.1961 -0.0677
    1DIPC   D2B 8206  11.181  10.137   5.572 -0.1781  0.1203  0.0865
    1DIPC   D3B 8207  11.203   9.976   5.248 -0.0719 -0.0750 -0.0686
    1DIPC   C4B 8208  11.423  10.093   4.980 -0.0662 -0.2636  0.3510
    1DIPC   NC3 8209  11.998   7.124   7.229 -0.3242  0.1176 -0.2300
    1DIPC   PO4 8210  11.717   7.162   6.948  0.0725 -0.2791  0.3647
    1DIPC   GL1 8211  11.752   6.892   6.582  0.1367  0.1437 -0.1543
    1DIPC   GL2 8212  11.901   6.527   6.524 -0.2972  0.0828 -0.1838
    1DIPC   C1A 8213  11.834   6.860   6.188  0.0278  0.2389 -0.0686
    1DIPC   D2A 8214  11.697   7.072   5.805  0.1613  0.0596 -0.1510
    1DIPC   D3A 8215  11.754   6.760   5.514  0.0678 -0.2838  0.1329
    1DIPC   C4A 8216  11.525   6.663   5.082  0.1557 -0.1588  0.0020
    1DIPC   C1B 8217  11.869   6.381   6.076  0.2268 -0.0598  0.1367
    1DIPC   D2B 8218  11.949   6.220   5.677  0.5804  0.0015 -0.1458
    1DIPC   D3B 8219  11.752   5.824   5.753 -0.1097 -0.1163 -0.0910
    1DIPC   C4B 8220  11.987   5.525   5.543 -0.0666 -0.0817  0.1053
    1DIPC   NC3 8221  11.866   2.243   6.766 -0.7023 -0.1533  0.1429
    1DIPC   PO4 8222  11.456   2.140   6.959  0.2501 -0.0375  0.0415
    1DIPC   GL1 8223  11.096   2.179   6.585  0.3545 -0.0845 -0.3727
    1DIPC   GL2 8224  10.900   2.419   6.488 -0.1199 -0.0922  0.0971
    1DIPC   C1A 8225  11.133   2.117   6.155  0.0658 -0.2868 -0.2963
    1DIPC   D2A 8226  11.239   1.729   5.985 -0.0115 -0.1854  0.0678
    1DIPC   D3A 8227  10.937   1.964   5.772  0.0636  0.1303  0.3247
    1DIPC   C4A 8228  10.612   1.701   5.949  0.3026  0.0404 -0.0767
    1DIPC   C1B 8229  10.592   2.171   6.132 -0.2463  0.3029 -0.1361
    1DIPC   D2B 8230  10.507   2.199   5.757  0.1155  0.2434 -0.3128
    1DIPC   D3B 8231  10.671   1.930   5.335  0.1698  0.0087 -0.1183
    1DIPC   C4B 8232  11.088   2.166   5.159 -0.1469 -0.3447  0.0124
    1DIPC   NC3 8233  23.654   7.160   6.823  0.2251 -0.1769  0.0684
    1DIPC   PO4 8234  23.383   7.507   6.862  0.0072  0.1312  0.3227
    1DIPC   GL1 8235  23.255   7.188   6.477  0.2831 -0.2125 -0.1584
    1DIPC   GL2 8236  23.444   7.251   6.169  0.1848  0.2348 -0.0627
    1DIPC   C1A 8237  23.499   6.776   6.216 -0.1698  0.0682 -0.0090
    1DIPC   D2A 8238  23.798   6.600   5.885  0.0755 -0.4766  0.2906
    1DIPC   D3A 8239  23.742   6.266   5.643  0.0248  0.3510  0.4851
    1DIPC   C4A 8240  24.017   6.071   5.238 -0.0863 -0.2533 -0.1666
    1DIPC   C1B 8241  23.601   7.104   5.868 -0.0033 -0.1715 -0.1183
    1DIPC   D2B 8242  23.544   6.852   5.509 -0.1666 -0.3679  0.1968
    1DIPC   D3B 8243  23.110   6.826   5.290  0.0060  0.0137 -0.1781
    1DIPC   C4B 8244  22.837   7.079   5.526  0.0328 -0.0822 -0.0030
    1DIPC   NC3 8245  11.078  18.212   6.505  0.2595 -0.1861  0.3775
    1DIPC   PO4 8246  11.366  17.900   6.652  0.0744  0.1272  0.1344
    1DIPC   GL1 8247  11.146  17.759   6.331 -0.4192 -0.0593 -0.3174
    1DIPC   GL2 8248  10.847  17.538   6.426  0.1702  0.3313  0.2044
    1DIPC   C1A 8249  11.403  17.774   5.921  0.0751 -0.0828 -0.0115
    1DIPC   D2A 8250  11.671  17.535   5.720 -0.1828  0.1613  0.3609
    1DIPC   D3A 8251  11.358  17.250   5.993  0.3021 -0.1401 -0.2133
    1DIPC   C4A 8252  11.246  16.925   5.780  0.0477  0.3301 -0.0716
    1DIPC   C1B 8253  10.889  17.414   5.917  0.1758 -0.1605 -0.0141
    1DIPC   D2B 8254  11.158  17.348   5.553  0.4016 -0.1619 -0.1867
    1DIPC   D3B 8255  11.414  17.500   5.258  0.1893  0.0250 -0.0296
    1DIPC   C4B 8256  11.243  17.703   4.819  0.1795  0.3392  0.1272
    1DIPC   NC3 8257  20.384  26.234   7.009  0.2839 -0.1765 -0.0930
    1DIPC   PO4 8258  20.700  26.402   7.344  0.0924  0.1715  0.1884
    1DIPC   GL1 8259  20.617  26.634   6.860 -0.3561  0.1608  0.2619
    1DIPC   GL2 8260  20.745  26.957   6.745  0.0973 -0.4256 -0.3385
    1DIPC   C1A 8261  20.672  26.552   6.443 -0.1018  0.2588 -0.0400
    1DIPC   D2A 8262  20.536  26.355   6.028 -0.1118  0.0167  0.0857
    1DIPC   D3A 8263  20.130  26.346   6.145  0.0013 -0.1605  0.0195
    1DIPC   C4A 8264  20.032  26.467   5.750  0.2310 -0.0177  0.1235
    1DIPC   C1B 8265  20.839  27.351   6.567  0.1368 -0.1707  0.0738
    1DIPC   D2B 8266  20.600  27.479   6.331  0.0972  0.0398 -0.0852
    1DIPC   D3B 8267  21.072  27.732   6.235  0.1298  0.0382  0.3417
    1DIPC   C4B 8268  21.135  27.962   5.871  0.0305  0.0039 -0.4892
    1DIPC   NC3 8269   5.445  23.383   7.414 -0.0895 -0.3281  0.0578
    1DIPC   PO4 8270   5.321  23.732   7.159 -0.0249 -0.2047  0.1478
    1DIPC   GL1 8271   5.367  23.809   6.765  0.0590  0.1234  0.2038
    1DIPC   GL2 8272   5.659  23.566   6.723 -0.2537  0.3345 -0.2031
    1DIPC   C1A 8273   5.297  23.589   6.381 -0.0410 -0.1236  0.3988
    1DIPC   D2A 8274   5.523  23.669   5.926 -0.0509  0.2805 -0.0856
    1DIPC   D3A 8275   5.377  23.646   5.556  0.4656  0.0386 -0.0762
    1DIPC   C4A 8276   5.034  23.933   5.472 -0.0223  0.0967  0.2341
    1DIPC   C1B 8277   5.848  23.423   6.245 -0.1514  0.0119 -0.2729
    1DIPC   D2B 8278   6.071  23.685   5.997  0.4009  0.2037  0.1817
    1DIPC   D3B 8279   6.126  23.605   5.554  0.0956  0.4636 -0.0497
    1DIPC   C4B 8280   5.898  23.569   5.223  0.3954 -0.0822  0.1871
    1DIPC   NC3 8281  25.808   8.766   6.104  0.1271  0.2649  0.1883
    1DIPC   PO4 8282  25.770   8.457   6.337 -0.1366 -0.1991 -0.0227
    1DIPC   GL1 8283  25.668   8.264   5.971  0.1237  0.3749  0.2140
    1DIPC   GL2 8284  25.799   8.007   5.996 -0.1239 -0.0832 -0.2435
    1DIPC   C1A 8285  25.654   8.149   5.531  0.1332  0.0700  0.0782
    1DIPC   D2A 8286  26.047   8.118   5.278  0.0680 -0.3177  0.0067
    1DIPC   D3A 8287  26.254   8.177   4.820  0.0205 -0.0848 -0.2145
    1DIPC   C4A 8288  25.896   8.110   4.535 -0.1799  0.1189  0.0606
    1DIPC   C1B 8289  25.854   7.774   5.768  0.3154 -0.2321  0.1175
    1DIPC   D2B 8290  25.808   7.699   5.453  0.1727  0.0282 -0.0163
    1DIPC   D3B 8291  25.686   7.434   5.081  0.1214  0.0124  0.0415
    1DIPC   C4B 8292  25.305   7.597   4.834  0.0101 -0.1672 -0.1641
    1DIPC   NC3 8293   7.541  22.845   6.401  0.1724  0.0362 -0.1435
    1DIPC   PO4 8294   7.606  22.403   6.412  0.0043  0.0886 -0.4012
    1DIPC   GL1 8295   7.516  22.264   6.066  0.3081  0.0606 -0.1413
    1DIPC   GL2 8296   7.334  22.568   5.818  0.0376 -0.0721 -0.0634
    1DIPC   C1A 8297   7.568  21.977   5.796 -0.1639  0.2008  0.0750
    1DIPC   D2A 8298   7.605  21.635   5.749 -0.0383  0.1225 -0.1869
    1DIPC   D3A 8299   7.185  21.541   5.596 -0.1307 -0.3080  0.4494
    1DIPC   C4A 8300   7.286  21.270   5.390 -0.1794  0.2857 -0.0588
    1DIPC   C1B 8301   7.265  22.362   5.468  0.1938  0.1643  0.0770
    1DIPC   D2B 8302   7.134  22.058   5.310  0.0673 -0.0243 -0.0018
    1DIPC   D3B 8303   7.143  22.056   4.824  0.1362 -0.3240  0.1619
    1DIPC   C4B 8304   7.459  21.760   4.658 -0.1927 -0.1521  0.0409
    1DIPC   NC3 8305  19.518   8.285   6.751 -0.2102  0.1293  0.3080
    1DIPC   PO4 8306  19.139   8.137   6.718  0.1250 -0.1642 -0.0567
    1DIPC   GL1 8307  18.998   8.299   6.310  0.1072  0.2358 -0.3143
    1DIPC   GL2 8308  19.083   8.041   6.022 -0.1662  0.1102 -0.2492
    1DIPC   C1A 8309  18.903   8.625   6.109  0.0435 -0.0306 -0.1245
    1DIPC   D2A 8310  18.657   9.008   6.026  0.0198  0.2044 -0.0031
    1DIPC   D3A 8311  18.633   9.168   5.630  0.2361 -0.0367  0.3091
    1DIPC   C4A 8312  18.981   9.459   5.358 -0.0125  0.0062  0.1996
    1DIPC   C1B 8313  18.891   8.284   5.660 -0.0333 -0.0733 -0.0962
    1DIPC   D2B 8314  18.719   8.582   5.629  0.0064  0.3715 -0.2073
    1DIPC   D3B 8315  18.810   8.774   5.296 -0.1929  0.1554  0.1058
    1DIPC   C4B 8316  19.011   8.549   5.006 -0.1577  0.0272  0.2108
    1DIPC   NC3 8317   4.403  28.747   6.571  0.2816  0.1707  0.0759
    1DIPC   PO4 8318   4.252  29.007   6.224  0.1284  0.1037 -0.2161
    1DIPC   GL1 8319   3.866  29.041   5.914  0.0504  0.1116 -0.1407
    1DIPC   GL2 8320   3.846  28.945   5.639 -0.0314  0.2907  0.1367
    1DIPC   C1A 8321   3.558  29.282   5.959  0.2280 -0.5712 -0.0700
    1DIPC   D2A 8322   3.500  29.566   5.767  0.0883  0.0696  0.2312
    1DIPC   D3A 8323   3.187  29.770   6.097  0.0387 -0.3696 -0.0917
    1DIPC   C4A 8324   2.956  30.125   5.921 -0.2912  0.1376 -0.2736
    1DIPC   C1B 8325   3.609  29.257   5.389  0.0385 -0.0978 -0.1878
    1DIPC   D2B 8326   3.676  29.533   5.143  0.2269  0.2689  0.0113
    1DIPC   D3B 8327   3.924  29.152   4.940 -0.1668  0.0972  0.2000
    1DIPC   C4B 8328   4.338  29.152   4.883 -0.2947 -0.1019  0.2583
    1DIPC   NC3 8329   6.803   1.993   7.421 -0.0618 -0.1987  0.1192
    1DIPC   PO4 8330   7.074   2.054   7.063  0.0566 -0.1804 -0.0620
    1DIPC   GL1 8331   6.996   1.957   6.691 -0.1679 -0.0108  0.0162
    1DIPC   GL2 8332   6.904   2.192   6.576 -0.0296 -0.0650 -0.0111
    1DIPC   C1A 8333   6.981   1.847   6.282 -0.2357  0.0687 -0.0553
    1DIPC   D2A 8334   6.889   1.735   5.808  0.1117  0.0379  0.2089
    1DIPC   D3A 8335   7.266   2.021   5.791  0.1782  0.2825 -0.1252
    1DIPC   C4A 8336   7.265   2.337   5.532 -0.1691  0.0347  0.0103
    1DIPC   C1B 8337   7.278   2.244   6.301 -0.0225 -0.3235  0.0864
    1DIPC   D2B 8338   7.436   2.551   6.001  0.0497 -0.1130  0.2420
    1DIPC   D3B 8339   7.530   3.006   6.114  0.1360  0.2808  0.4030
    1DIPC   C4B 8340   7.455   3.337   5.726 -0.0885  0.5237 -0.0134
    1DIPC   NC3 8341  19.256  18.588   6.480  0.0443  0.3580  0.2894
    1DIPC   PO4 8342  18.959  18.670   6.236  0.1077 -0.1941  0.1168
    1DIPC   GL1 8343  18.835  18.862   5.900  0.2469  0.3183 -0.2841
    1DIPC   GL2 8344  19.081  18.987   5.741 -0.1469 -0.0759  0.0198
    1DIPC   C1A 8345  18.669  18.658   5.520  0.4480 -0.3557 -0.1302
    1DIPC   D2A 8346  18.315  18.313   5.518 -0.1444 -0.0087  0.0017
    1DIPC   D3A 8347  18.644  18.079   5.323 -0.1022  0.2644 -0.0123
    1DIPC   C4A 8348  18.670  17.641   5.289  0.0297  0.1598 -0.1205
    1DIPC   C1B 8349  19.175  19.202   5.302 -0.0993 -0.1579 -0.1344
    1DIPC   D2B 8350  19.019  19.294   4.863 -0.1523 -0.3786 -0.0054
    1DIPC   D3B 8351  19.344  19.235   4.650 -0.2939  0.1424  0.1930
    1DIPC   C4B 8352  19.121  18.952   4.331 -0.0777  0.0519 -0.0621
    1DIPC   NC3 8353  15.103  15.497   6.736  0.1794 -0.0503  0.0220
    1DIPC   PO4 8354  14.954  15.236   6.499 -0.0583  0.0499  0.3227
    1DIPC   GL1 8355  14.793  15.282   6.083 -0.0288  0.1114 -0.0023
    1DIPC   GL2 8356  14.924  15.051   6.001 -0.0238  0.2554 -0.2988
    1DIPC   C1A 8357  14.472  15.528   5.858  0.2244 -0.0389  0.4225
    1DIPC   D2A 8358  14.496  15.589   5.410  0.0522  0.1653 -0.2334
    1DIPC   D3A 8359  14.444  15.943   5.090  0.0320 -0.0482 -0.0271
    1DIPC   C4A 8360  14.086  15.958   4.753 -0.0342  0.1881  0.0585
    1DIPC   C1B 8361  14.650  15.111   5.613  0.2586  0.0616 -0.0448
    1DIPC   D2B 8362  14.614  15.021   5.197  0.1508  0.1096  0.2038
    1DIPC   D3B 8363  14.715  15.336   5.006 -0.1922  0.0181  0.0812
    1DIPC   C4B 8364  14.621  15.516   4.620  0.2549 -0.1306  0.1767
    1DIPC   NC3 8365  19.168  12.597   5.912  0.0483  0.0876 -0.0990
    1DIPC   PO4 8366  19.102  12.937   5.662 -0.1039 -0.0510 -0.3837
    1DIPC   GL1 8367  19.041  12.942   5.283  0.0202 -0.2132  0.0005
    1DIPC   GL2 8368  19.095  13.209   5.208  0.0141  0.3370 -0.0976
    1DIPC   C1A 8369  19.009  12.614   4.946 -0.1049  0.2942  0.0280
    1DIPC   D2A 8370  19.109  12.724   4.504 -0.0170  0.2767 -0.0218
    1DIPC   D3A 8371  18.829  12.341   4.567 -0.0561  0.3938  0.0813
    1DIPC   C4A 8372  18.767  12.037   4.896  0.1176  0.2767 -0.0095
    1DIPC   C1B 8373  18.862  13.265   4.800 -0.4251  0.1139 -0.3358
    1DIPC   D2B 8374  18.856  13.115   4.325 -0.1941 -0.0796 -0.2589
    1DIPC   D3B 8375  18.969  13.405   3.882 -0.1238 -0.1761  0.0662
    1DIPC   C4B 8376  18.931  13.231   3.420 -0.0045 -0.0882  0.0480
    1DIPC   NC3 8377  20.978  21.910   6.188 -0.0867  0.2385  0.0723
    1DIPC   PO4 8378  21.061  21.464   6.157 -0.1259  0.4138  0.0987
    1DIPC   GL1 8379  21.110  21.141   5.816  0.2762 -0.1687 -0.1222
    1DIPC   GL2 8380  21.392  21.144   5.780 -0.2398 -0.1649 -0.0608
    1DIPC   C1A 8381  21.131  21.144   5.339 -0.0790  0.0332 -0.1493
    1DIPC   D2A 8382  21.000  20.875   5.051  0.0444 -0.0752  0.0964
    1DIPC   D3A 8383  21.275  21.108   4.697 -0.2460 -0.3345 -0.0234
    1DIPC   C4A 8384  21.117  21.213   4.290 -0.3396  0.2879  0.3265
    1DIPC   C1B 8385  21.779  21.233   5.525  0.0678  0.2790 -0.1911
    1DIPC   D2B 8386  22.071  21.060   5.125  0.0648 -0.4438  0.0314
    1DIPC   D3B 8387  21.992  21.365   4.748  0.0709  0.1767 -0.3471
    1DIPC   C4B 8388  21.667  21.371   4.426  0.0322  0.2860 -0.4945
    1DIPC   NC3 8389  28.540  29.227   6.957 -0.0027  0.2380 -0.2076
    1DIPC   PO4 8390  28.552  29.625   6.831 -0.1411  0.1279 -0.1965
    1DIPC   GL1 8391  28.380  29.335   6.468 -0.3981  0.3501 -0.4218
    1DIPC   GL2 8392  28.162  29.573   6.255  0.0411 -0.3687  0.5739
    1DIPC   C1A 8393  28.402  29.085   6.018  0.1124  0.0781 -0.0859
    1DIPC   D2A 8394  28.401  29.065   5.650 -0.1195 -0.3194  0.2578
    1DIPC   D3A 8395  28.764  29.222   5.390 -0.0807  0.2039  0.2373
    1DIPC   C4A 8396  28.842  29.684   5.407 -0.0626 -0.2697 -0.0759
    1DIPC   C1B 8397  28.008  29.354   5.906 -0.1367 -0.2353  0.2520
    1DIPC   D2B 8398  27.935  29.197   5.523  0.1256 -0.2198  0.0859
    1DIPC   D3B 8399  27.979  29.360   5.007  0.1503  0.1212 -0.1906
    1DIPC   C4B 8400  27.905  29.773   4.798  0.0255  0.1704 -0.1329
    1DIPC   NC3 8401   2.848   7.095   6.420 -0.1198  0.2064 -0.1141
    1DIPC   PO4 8402   2.959   7.344   6.176  0.0003 -0.1400 -0.2101
    1DIPC   GL1 8403   3.198   7.411   5.799 -0.1462  0.0636 -0.1670
    1DIPC   GL2 8404   3.375   7.596   5.748  0.0965  0.1838 -0.1134
    1DIPC   C1A 8405   3.055   7.532   5.374 -0.4226  0.2568 -0.0900
    1DIPC   D2A 8406   2.929   7.254   4.985 -0.0157 -0.0714 -0.0936
    1DIPC   D3A 8407   3.291   7.025   4.676 -0.1163  0.1193 -0.1903
    1DIPC   C4A 8408   3.750   7.064   4.761  0.2920  0.1062  0.5343
    1DIPC   C1B 8409   3.740   7.365   5.608 -0.2033 -0.0326 -0.0869
    1DIPC   D2B 8410   3.925   7.337   5.174  0.3328 -0.0098  0.1254
    1DIPC   D3B 8411   4.042   7.597   4.769 -0.1874 -0.1150 -0.0415
    1DIPC   C4B 8412   4.064   7.995   4.904  0.0185  0.2127  0.1189
    1DIPC   NC3 8413  17.891   7.330   6.742 -0.1153  0.1723 -0.1382
    1DIPC   PO4 8414  18.211   7.689   6.598 -0.1011  0.0159  0.0001
    1DIPC   GL1 8415  18.374   7.393   6.355  0.0858  0.0677 -0.3561
    1DIPC   GL2 8416  18.697   7.409   6.191  0.1292 -0.1460  0.1533
    1DIPC   C1A 8417  18.376   7.321   5.850 -0.0557  0.1427  0.0559
    1DIPC   D2A 8418  18.110   7.325   5.508 -0.0077 -0.2252 -0.4079
    1DIPC   D3A 8419  18.219   7.598   5.297  0.1153  0.3783  0.2520
    1DIPC   C4A 8420  18.517   7.802   5.062  0.2013  0.2516 -0.1131
    1DIPC   C1B 8421  18.902   7.509   5.845 -0.1152  0.0884  0.0486
    1DIPC   D2B 8422  19.189   7.468   5.505 -0.0707  0.2814 -0.0002
    1DIPC   D3B 8423  19.098   7.093   5.433 -0.1707 -0.0313  0.0350
    1DIPC   C4B 8424  18.799   6.968   5.187  0.0872  0.0267 -0.0590
    1DIPC   NC3 8425  25.922  12.976   6.234 -0.0474  0.0696 -0.1385
    1DIPC   PO4 8426  25.869  13.250   5.912 -0.0963 -0.2367  0.2471
    1DIPC   GL1 8427  25.856  13.102   5.453  0.0616 -0.1614  0.3144
    1DIPC   GL2 8428  25.625  12.825   5.426 -0.0506 -0.0282 -0.0281
    1DIPC   C1A 8429  26.059  12.845   5.138  0.1210  0.3911  0.0816
    1DIPC   D2A 8430  26.316  12.762   4.803  0.2553  0.2861  0.0417
    1DIPC   D3A 8431  26.077  12.408   4.808 -0.0328  0.1365 -0.2130
    1DIPC   C4A 8432  26.278  12.065   4.627  0.0460  0.4844 -0.2458
    1DIPC   C1B 8433  25.576  12.945   5.108 -0.1562 -0.1547  0.0030
    1DIPC   D2B 8434  25.631  12.699   4.790  0.1146 -0.0485 -0.0542
    1DIPC   D3B 8435  25.918  12.783   4.527 -0.1357 -0.2794 -0.1687
    1DIPC   C4B 8436  25.897  12.679   4.051  0.0621  0.0902 -0.1821
    1DIPC   NC3 8437  27.427   2.442   6.605  0.0500  0.0685  0.1027
    1DIPC   PO4 8438  27.091   2.218   6.485 -0.1206 -0.1009 -0.1905
    1DIPC   GL1 8439  26.908   2.035   6.096  0.1369 -0.0867  0.0169
    1DIPC   GL2 8440  26.899   1.758   6.062 -0.0955 -0.1380  0.2005
    1DIPC   C1A 8441  27.089   2.044   5.706 -0.2075 -0.1667 -0.1229
    1DIPC   D2A 8442  27.477   1.851   5.525  0.1335 -0.0121  0.0191
    1DIPC   D3A 8443  27.122   1.848   5.214 -0.0112 -0.1105 -0.0996
    1DIPC   C4A 8444  27.074   2.259   5.037  0.4415  0.1644 -0.1734
    1DIPC   C1B 8445  27.076   1.485   5.724 -0.1451 -0.0925 -0.1049
    1DIPC   D2B 8446  27.199   1.178   5.486  0.2912  0.0501 -0.3066
    1DIPC   D3B 8447  27.368   1.418   5.157  0.0818 -0.0826  0.2421
    1DIPC   C4B 8448  27.826   1.604   5.259 -0.0036  0.0633  0.1655
    1DIPC   NC3 8449  23.010  28.182   7.270  0.2894 -0.1369 -0.0848
    1DIPC   PO4 8450  23.281  27.971   6.995  0.0406 -0.0955 -0.2312
    1DIPC   GL1 8451  23.383  27.590   6.771 -0.0112 -0.0687 -0.1066
    1DIPC   GL2 8452  23.722  27.577   6.636  0.1499 -0.2782 -0.0572
    1DIPC   C1A 8453  23.433  27.194   6.686 -0.0104 -0.2503  0.1619
    1DIPC   D2A 8454  23.730  26.999   6.408 -0.1471 -0.1509 -0.1363
    1DIPC   D3A 8455  23.579  27.105   6.043 -0.0591 -0.2902  0.0471
    1DIPC   C4A 8456  23.499  27.455   5.724  0.0394  0.3614 -0.1125
    1DIPC   C1B 8457  23.533  27.622   6.243 -0.2277  0.0300  0.0250
    1DIPC   D2B 8458  23.134  27.793   6.023  0.4071  0.3068  0.1665
    1DIPC   D3B 8459  22.871  27.877   6.327 -0.1022 -0.3679  0.1382
    1DIPC   C4B 8460  22.468  27.695   6.166 -0.2198  0.3538 -0.0600
    1DIPC   NC3 8461   0.929  26.038   7.298  0.0211 -0.1532 -0.0994
    1DIPC   PO4 8462   1.159  25.904   6.792  0.0841 -0.2355  0.3595
    1DIPC   GL1 8463   1.396  25.875   6.406  0.3542 -0.0100 -0.0509
    1DIPC   GL2 8464   1.445  25.671   6.251  0.0816 -0.2878 -0.0386
    1DIPC   C1A 8465   1.421  26.107   6.009 -0.0665  0.0009  0.1320
    1DIPC   D2A 8466   1.514  25.996   5.647  0.3369  0.1011 -0.0192
    1DIPC   D3A 8467   1.509  25.627   5.667 -0.0432 -0.2709 -0.1467
    1DIPC   C4A 8468   1.803  25.466   5.562 -0.0094 -0.1160  0.2210
    1DIPC   C1B 8469   1.114  25.737   5.902 -0.2985  0.2087  0.2239
    1DIPC   D2B 8470   1.014  25.743   5.504 -0.2652 -0.0927 -0.1050
    1DIPC   D3B 8471   0.921  25.592   5.136  0.1280  0.0088 -0.2051
    1DIPC   C4B 8472   1.242  25.376   4.848  0.0129  0.0382 -0.1472
    1DIPC   NC3 8473  10.733  28.152   7.241  0.0009  0.1156 -0.0517
    1DIPC   PO4 8474  10.480  27.769   7.116 -0.0909  0.0595  0.0098
    1DIPC   GL1 8475  10.112  27.900   6.894  0.2639  0.0819  0.1862
    1DIPC   GL2 8476  10.203  28.169   6.739 -0.2499 -0.2775 -0.0420
    1DIPC   C1A 8477   9.794  28.105   6.531  0.2277  0.1353  0.1129
    1DIPC   D2A 8478   9.465  28.159   6.166  0.1942 -0.0221  0.3159
    1DIPC   D3A 8479   9.015  27.898   6.052  0.1001  0.0978  0.1924
    1DIPC   C4A 8480   8.684  27.994   5.801 -0.1901 -0.2281 -0.1140
    1DIPC   C1B 8481  10.242  28.463   6.556  0.2203  0.0341 -0.3005
    1DIPC   D2B 8482  10.432  28.872   6.609  0.2876 -0.0697  0.0843
    1DIPC   D3B 8483  10.147  28.931   6.232  0.0662 -0.0303  0.2324
    1DIPC   C4B 8484  10.173  29.197   5.987 -0.0834 -0.2935  0.1073
    1DIPC   NC3 8485  11.750  20.287   6.672 -0.3441  0.0564 -0.1119
    1DIPC   PO4 8486  11.533  20.612   6.388  0.2512 -0.3893 -0.0809
    1DIPC   GL1 8487  11.374  20.683   6.028 -0.1435 -0.1354 -0.0517
    1DIPC   GL2 8488  11.500  20.465   5.879  0.3305  0.0052 -0.0844
    1DIPC   C1A 8489  11.284  20.987   5.754 -0.0160  0.2106 -0.2154
    1DIPC   D2A 8490  10.881  20.878   5.598  0.0983  0.4024 -0.4407
    1DIPC   D3A 8491  10.755  20.545   5.385  0.0726  0.0286  0.0427
    1DIPC   C4A 8492  10.801  20.060   5.286  0.0999 -0.0217  0.1372
    1DIPC   C1B 8493  11.238  20.317   5.441 -0.1215 -0.0808 -0.0799
    1DIPC   D2B 8494  11.182  20.298   4.931  0.0295  0.1559 -0.2661
    1DIPC   D3B 8495  11.017  20.570   4.936 -0.1684  0.3757  0.1124
    1DIPC   C4B 8496  10.617  20.511   4.845 -0.0634 -0.0164 -0.0695
    1DIPC   NC3 8497  28.418   9.251   6.398  0.3789  0.2506  0.0226
    1DIPC   PO4 8498  28.288   8.840   6.419  0.0251 -0.1872 -0.0059
    1DIPC   GL1 8499  28.039   9.030   6.086  0.1896 -0.3935  0.5486
    1DIPC   GL2 8500  28.280   9.167   5.905  0.1056  0.0719 -0.0489
    1DIPC   C1A 8501  27.919   9.004   5.643  0.2098 -0.1098 -0.0556
    1DIPC   D2A 8502  27.559   8.727   5.543  0.1455  0.0038  0.2253
    1DIPC   D3A 8503  27.475   8.515   5.198 -0.0447  0.0058 -0.0948
    1DIPC   C4A 8504  27.491   8.810   4.832  0.2089 -0.5472 -0.4332
    1DIPC   C1B 8505  28.428   9.083   5.457 -0.3879 -0.4339 -0.1006
    1DIPC   D2B 8506  28.536   9.060   4.979  0.0748  0.0510 -0.2758
    1DIPC   D3B 8507  28.814   9.345   4.707 -0.0693 -0.2810  0.0901
    1DIPC   C4B 8508  28.894   9.749   4.893 -0.2305  0.0555  0.0848
    1DIPC   NC3 8509  29.019  22.465   6.733  0.2698  0.1273 -0.0147
    1DIPC   PO4 8510  29.373  22.402   6.600  0.0777  0.2381 -0.0526
    1DIPC   GL1 8511  29.797  22.535   6.459  0.0088  0.1143  0.0448
    1DIPC   GL2 8512  30.067  22.321   6.486  0.1548  0.1959 -0.0580
    1DIPC   C1A 8513  30.054  22.782   6.109  0.0657 -0.1243 -0.0891
    1DIPC   D2A 8514  30.452  22.929   5.970 -0.0181 -0.1760  0.1944
    1DIPC   D3A 8515  30.585  22.887   5.597 -0.0923  0.0755 -0.0569
    1DIPC   C4A 8516  30.234  23.009   5.307 -0.1258 -0.0917  0.2442
    1DIPC   C1B 8517  29.908  22.255   5.984  0.1016  0.2280 -0.0246
    1DIPC   D2B 8518  29.947  22.088   5.653  0.1623 -0.3815  0.2963
    1DIPC   D3B 8519  30.046  22.291   5.179  0.0209 -0.2319  0.0547
    1DIPC   C4B 8520  29.977  22.684   5.019  0.0170 -0.1455 -0.0685
    1DIPC   NC3 8521  21.005  19.407   5.612 -0.2816  0.1803 -0.1172
    1DIPC   PO4 8522  21.538  19.310   5.670 -0.0029 -0.2114  0.1458
    1DIPC   GL1 8523  21.421  19.211   5.264 -0.0133  0.0699  0.0075
    1DIPC   GL2 8524  21.691  19.399   5.109  0.2058  0.1514  0.0711
    1DIPC   C1A 8525  21.400  19.019   4.902  0.2257 -0.1039 -0.2937
    1DIPC   D2A 8526  21.255  18.538   4.619 -0.1950 -0.0719  0.0796
    1DIPC   D3A 8527  20.843  18.544   4.359 -0.1680  0.1611 -0.1770
    1DIPC   C4A 8528  20.887  18.864   4.103  0.1172 -0.0643  0.0723
    1DIPC   C1B 8529  21.836  19.122   4.805 -0.1876 -0.2050 -0.1466
    1DIPC   D2B 8530  22.029  19.019   4.406  0.2188  0.0420  0.1931
    1DIPC   D3B 8531  21.767  19.120   4.027  0.0452  0.0760 -0.3030
    1DIPC   C4B 8532  21.317  19.434   3.952 -0.0323 -0.0456 -0.0866
    1DIPC   NC3 8533  15.608  23.338   6.880 -0.1022 -0.0839 -0.3678
    1DIPC   PO4 8534  15.563  23.703   6.742  0.2360  0.1425  0.0115
    1DIPC   GL1 8535  15.542  23.621   6.395 -0.1810 -0.1673  0.2143
    1DIPC   GL2 8536  15.512  23.329   6.364  0.0614  0.0888 -0.1063
    1DIPC   C1A 8537  15.670  23.650   5.998 -0.1803 -0.0283  0.1253
    1DIPC   D2A 8538  15.995  23.598   5.590 -0.3348  0.1778 -0.0590
    1DIPC   D3A 8539  16.201  23.748   5.153  0.1065 -0.0330  0.0295
    1DIPC   C4A 8540  16.394  24.166   5.084 -0.1104 -0.2539  0.4417
    1DIPC   C1B 8541  15.461  23.217   5.883  0.2061  0.0362  0.2550
    1DIPC   D2B 8542  15.245  23.070   5.488 -0.1484 -0.4113  0.3138
    1DIPC   D3B 8543  15.431  22.875   5.121  0.2827 -0.2763 -0.0243
    1DIPC   C4B 8544  15.093  22.884   4.809  0.2377  0.4564 -0.0271
    1DIPC   NC3 8545  22.369   6.818   6.807  0.1327 -0.0701  0.0756
    1DIPC   PO4 8546  22.377   7.226   6.637  0.0924  0.5490 -0.1900
    1DIPC   GL1 8547  22.624   7.347   6.281 -0.3803 -0.1717  0.0393
    1DIPC   GL2 8548  22.881   7.229   6.125 -0.0333 -0.6788  0.3975
    1DIPC   C1A 8549  22.434   7.406   5.924 -0.2267  0.4818 -0.0696
    1DIPC   D2A 8550  22.431   7.159   5.693 -0.0314 -0.0813  0.1101
    1DIPC   D3A 8551  22.567   7.372   5.207 -0.0681  0.0188 -0.0052
    1DIPC   C4A 8552  22.306   7.784   5.031 -0.1340 -0.0092  0.0250
    1DIPC   C1B 8553  23.132   6.959   5.897  0.3419 -0.1875 -0.3179
    1DIPC   D2B 8554  23.306   6.507   5.800  0.0594 -0.0823  0.1657
    1DIPC   D3B 8555  23.327   6.423   5.364 -0.0023  0.1333  0.1222
    1DIPC   C4B 8556  23.535   6.156   5.137 -0.0396 -0.0455  0.0045
    1DIPC   NC3 8557  11.436  24.799   6.263  0.0470 -0.0612  0.0156
    1DIPC   PO4 8558  11.310  25.132   6.412 -0.0742 -0.2473 -0.0872
    1DIPC   GL1 8559  11.028  25.236   6.093  0.0513  0.1000  0.0630
    1DIPC   GL2 8560  11.050  24.939   5.918 -0.1870 -0.0084 -0.0085
    1DIPC   C1A 8561  10.804  25.239   5.642 -0.2030 -0.0131 -0.0106
    1DIPC   D2A 8562  10.877  25.154   5.173 -0.0593  0.0039  0.2170
    1DIPC   D3A 8563  10.678  24.791   4.905 -0.0353  0.0015  0.0677
    1DIPC   C4A 8564  10.587  24.298   4.942  0.1912  0.1735  0.1069
    1DIPC   C1B 8565  11.148  24.813   5.562 -0.2027  0.0540 -0.0235
    1DIPC   D2B 8566  11.072  24.548   5.230 -0.0189 -0.0544 -0.0390
    1DIPC   D3B 8567  10.812  24.242   5.378 -0.2846 -0.2478 -0.2504
    1DIPC   C4B 8568  10.873  24.025   5.843  0.0337 -0.2313 -0.0789
    1DIPC   NC3 8569  11.188  26.977   6.403 -0.1639 -0.3843 -0.2228
    1DIPC   PO4 8570  10.955  26.546   6.384  0.0157 -0.1248  0.1334
    1DIPC   GL1 8571  10.902  26.739   5.991  0.1140 -0.0102 -0.0687
    1DIPC   GL2 8572  11.252  26.878   5.939 -0.0411 -0.2261 -0.0225
    1DIPC   C1A 8573  10.609  27.010   5.832  0.0253  0.1479 -0.0165
    1DIPC   D2A 8574  10.477  27.387   6.010 -0.3734  0.1643  0.0486
    1DIPC   D3A 8575  10.018  27.447   6.114 -0.1403  0.5523  0.1137
    1DIPC   C4A 8576   9.738  27.146   6.306 -0.2961 -0.0653 -0.2670
    1DIPC   C1B 8577  11.123  26.805   5.530 -0.1343 -0.0615 -0.3189
    1DIPC   D2B 8578  11.148  26.680   5.083  0.0459 -0.0927  0.1024
    1DIPC   D3B 8579  10.828  26.732   5.069  0.2573  0.3835 -0.0551
    1DIPC   C4B 8580  10.732  27.065   5.269  0.1281 -0.0277 -0.0169
    1DIPC   NC3 8581  23.070  10.157   6.998 -0.0625 -0.2436 -0.0582
    1DIPC   PO4 8582  23.232  10.186   6.571 -0.3141 -0.0618  0.0249
    1DIPC   GL1 8583  23.041  10.120   6.194 -0.2230  0.5500  0.1789
    1DIPC   GL2 8584  23.110   9.733   6.039  0.0033  0.1150 -0.0653
    1DIPC   C1A 8585  23.029  10.079   5.746  0.1185  0.0526  0.0788
    1DIPC   D2A 8586  23.280   9.889   5.391 -0.0909  0.0364 -0.2119
    1DIPC   D3A 8587  23.461   9.659   5.037  0.0918  0.3346 -0.0301
    1DIPC   C4A 8588  23.367   9.522   4.728  0.0572 -0.1092  0.3538
    1DIPC   C1B 8589  23.498   9.655   5.810 -0.0169 -0.0380 -0.0481
    1DIPC   D2B 8590  23.653   9.442   5.413 -0.1956 -0.3587  0.2194
    1DIPC   D3B 8591  23.961   9.435   5.796 -0.1659  0.3449  0.1088
    1DIPC   C4B 8592  24.069   8.990   5.889 -0.0619 -0.0199  0.0824
    1DIPC   NC3 8593  26.663  24.975   7.015 -0.0727  0.1378  0.4014
    1DIPC   PO4 8594  26.336  24.947   6.795 -0.3064  0.2307 -0.1696
    1DIPC   GL1 8595  26.251  25.070   6.348 -0.3362  0.1367  0.1126
    1DIPC   GL2 8596  26.041  24.934   6.230  0.2707  0.1763  0.0690
    1DIPC   C1A 8597  26.516  25.090   5.971  0.0264 -0.0068  0.1845
    1DIPC   D2A 8598  26.606  25.305   5.617 -0.1291  0.1428  0.2602
    1DIPC   D3A 8599  26.836  25.673   5.669 -0.2652 -0.0515  0.0331
    1DIPC   C4A 8600  27.092  25.779   5.263  0.2012 -0.2661 -0.1258
    1DIPC   C1B 8601  25.961  25.208   5.864  0.2993 -0.0641 -0.0131
    1DIPC   D2B 8602  26.158  25.599   5.681  0.0593 -0.1064  0.0788
    1DIPC   D3B 8603  26.193  25.224   5.389 -0.2626 -0.0397  0.1777
    1DIPC   C4B 8604  25.789  25.048   5.373 -0.0604 -0.3427  0.0897
    1DIPC   NC3 8605  27.264  23.276   6.433 -0.1334 -0.1300 -0.0316
    1DIPC   PO4 8606  27.106  23.518   6.192 -0.3647  0.1374 -0.2159
    1DIPC   GL1 8607  27.000  23.309   5.779 -0.1082  0.0187  0.0300
    1DIPC   GL2 8608  27.142  23.053   5.992 -0.0845 -0.1558  0.1499
    1DIPC   C1A 8609  27.127  23.241   5.308  0.2265 -0.1093  0.0922
    1DIPC   D2A 8610  27.337  23.259   5.050  0.2990 -0.2606  0.4048
    1DIPC   D3A 8611  27.724  22.911   4.922 -0.1680  0.2423 -0.2250
    1DIPC   C4A 8612  28.127  22.984   5.237 -0.5776  0.1829  0.0345
    1DIPC   C1B 8613  27.522  23.065   5.734  0.1444 -0.1888 -0.0068
    1DIPC   D2B 8614  27.649  23.107   5.396 -0.0490 -0.2844 -0.0176
    1DIPC   D3B 8615  27.559  23.517   5.447  0.0101  0.0279 -0.0505
    1DIPC   C4B 8616  27.145  23.702   5.410 -0.1192  0.1870  0.3096
    1DIPC   NC3 8617   6.433   0.821   6.729  0.0341 -0.0691 -0.0549
    1DIPC   PO4 8618   6.150   0.572   6.862  0.0351 -0.1219  0.0276
    1DIPC   GL1 8619   6.102   0.574   6.385 -0.0299  0.1083 -0.2424
    1DIPC   GL2 8620   6.246   0.304   6.218 -0.2302 -0.0288  0.1677
    1DIPC   C1A 8621   6.226   0.813   6.014 -0.1050 -0.0239  0.1095
    1DIPC   D2A 8622   6.635   0.763   5.753  0.0554 -0.0494 -0.1565
    1DIPC   D3A 8623   6.227   0.791   5.482  0.1817 -0.1148 -0.1317
    1DIPC   C4A 8624   5.769   0.972   5.694  0.2389 -0.1521  0.2858
    1DIPC   C1B 8625   6.307   0.344   5.791 -0.1586 -0.0895 -0.1993
    1DIPC   D2B 8626   6.169   0.267   5.318  0.3672 -0.1171  0.1722
    1DIPC   D3B 8627   6.390  -0.118   5.019  0.3069  0.1028 -0.0066
    1DIPC   C4B 8628   6.359  -0.578   5.257 -0.0092 -0.0277 -0.1778
    1DIPC   NC3 8629  10.675  18.332   7.187  0.1448 -0.3083  0.1814
    1DIPC   PO4 8630  10.682  18.209   6.781  0.1574 -0.3619  0.0305
    1DIPC   GL1 8631  10.700  17.997   6.334  0.0166 -0.0653  0.1205
    1DIPC   GL2 8632  10.494  17.736   6.172 -0.4810 -0.2419 -0.0495
    1DIPC   C1A 8633  10.913  18.039   5.921 -0.3113  0.2819 -0.0719
    1DIPC   D2A 8634  11.169  17.919   5.474 -0.1562 -0.2036 -0.0477
    1DIPC   D3A 8635  10.972  17.948   5.153 -0.3359 -0.0698 -0.0932
    1DIPC   C4A 8636  10.573  17.978   5.204 -0.3965  0.1569  0.1908
    1DIPC   C1B 8637  10.425  17.883   5.743  0.2647 -0.0690  0.2488
    1DIPC   D2B 8638  10.082  17.764   5.438 -0.1157  0.2964  0.2131
    1DIPC   D3B 8639  10.368  17.470   5.133  0.2701  0.0468 -0.3316
    1DIPC   C4B 8640  10.494  17.728   4.811  0.1062 -0.2043  0.3211
    1DIPC   NC3 8641  16.820  25.647   7.284  0.2587 -0.2599  0.1927
    1DIPC   PO4 8642  16.776  25.874   6.865  0.1380  0.1706  0.1405
    1DIPC   GL1 8643  17.071  25.945   6.583  0.0850  0.3939  0.1371
    1DIPC   GL2 8644  17.359  25.795   6.540  0.3728 -0.0875  0.1445
    1DIPC   C1A 8645  17.193  26.223   6.358  0.0147  0.0676 -0.0583
    1DIPC   D2A 8646  17.308  26.233   6.014 -0.1350  0.0830 -0.2932
    1DIPC   D3A 8647  16.874  26.167   6.015  0.1352  0.2356 -0.0993
    1DIPC   C4A 8648  16.673  26.053   5.605 -0.2092  0.1611  0.0169
    1DIPC   C1B 8649  17.112  25.718   6.131  0.1361 -0.2585 -0.0638
    1DIPC   D2B 8650  17.140  25.900   5.684  0.1693 -0.4616 -0.1645
    1DIPC   D3B 8651  17.521  26.154   5.573 -0.0765  0.0257  0.2300
    1DIPC   C4B 8652  17.555  26.496   5.331 -0.1530  0.0820 -0.2078
    1DIPC   NC3 8653  11.885   8.323   7.599 -0.2211  0.0766  0.2820
    1DIPC   PO4 8654  11.773   8.370   7.090 -0.0252 -0.0030  0.3162
    1DIPC   GL1 8655  11.907   8.165   6.783 -0.2082 -0.2006 -0.0113
    1DIPC   GL2 8656  11.853   8.411   6.559  0.3651  0.0110  0.1132
    1DIPC   C1A 8657  11.810   7.985   6.374  0.1984 -0.3037 -0.0472
    1DIPC   D2A 8658  11.747   7.678   6.049 -0.1669  0.0925  0.0629
    1DIPC   D3A 8659  11.382   7.411   6.007  0.1548 -0.0829  0.0035
    1DIPC   C4A 8660  11.048   7.430   5.722 -0.0677  0.1968  0.0240
    1DIPC   C1B 8661  11.983   8.467   6.174 -0.0119  0.1206  0.2121
    1DIPC   D2B 8662  12.070   8.543   5.684 -0.0024 -0.3741  0.0128
    1DIPC   D3B 8663  12.045   8.828   5.428  0.0616 -0.0189  0.0224
    1DIPC   C4B 8664  11.937   8.707   5.053  0.1007 -0.0456 -0.2256
    1DIPC   NC3 8665  11.581   1.791   7.284  0.1177 -0.3161  0.1136
    1DIPC   PO4 8666  12.059   1.942   7.258 -0.2323  0.1176  0.0233
    1DIPC   GL1 8667  12.297   1.742   6.908  0.1209  0.0397 -0.0444
    1DIPC   GL2 8668  12.592   1.916   6.928  0.3387 -0.0354 -0.0176
    1DIPC   C1A 8669  12.531   1.512   6.613 -0.0836  0.2550 -0.1399
    1DIPC   D2A 8670  12.645   1.391   6.102  0.0998 -0.1006 -0.0987
    1DIPC   D3A 8671  12.418   1.051   6.463  0.0789  0.0278  0.0403
    1DIPC   C4A 8672  12.577   0.622   6.387  0.1145  0.1318  0.1985
    1DIPC   C1B 8673  12.973   1.806   6.592 -0.3304  0.2411 -0.3350
    1DIPC   D2B 8674  13.160   1.450   6.449 -0.2125 -0.2515 -0.2778
    1DIPC   D3B 8675  13.341   1.279   6.123 -0.3137 -0.2761 -0.1856
    1DIPC   C4B 8676  13.347   1.695   5.831 -0.3131  0.2447  0.1856
    1DIPC   NC3 8677  26.250  24.515   6.540 -0.5168 -0.0078 -0.1663
    1DIPC   PO4 8678  26.029  24.339   6.722  0.1379 -0.4113  0.1817
    1DIPC   GL1 8679  25.822  24.518   6.296 -0.0839 -0.1492  0.2562
    1DIPC   GL2 8680  25.856  24.194   5.929 -0.0073  0.0936 -0.0926
    1DIPC   C1A 8681  25.777  24.734   5.835 -0.1900 -0.1338 -0.0237
    1DIPC   D2A 8682  26.066  24.724   5.568 -0.0508 -0.1343  0.0059
    1DIPC   D3A 8683  26.313  24.379   5.861 -0.1647 -0.1474  0.4716
    1DIPC   C4A 8684  26.385  23.879   5.873 -0.2115 -0.0918  0.4145
    1DIPC   C1B 8685  25.789  24.327   5.487 -0.2463 -0.0964  0.0360
    1DIPC   D2B 8686  25.867  24.511   5.095 -0.1311 -0.2189  0.2295
    1DIPC   D3B 8687  25.983  24.883   4.924  0.2431  0.4443 -0.0097
    1DIPC   C4B 8688  26.108  24.944   4.565 -0.0734  0.1588 -0.0221
    1DIPC   NC3 8689   9.151  26.304   6.928 -0.0014 -0.1660  0.1973
    1DIPC   PO4 8690   9.260  25.925   7.226 -0.0783 -0.1489  0.1949
    1DIPC   GL1 8691   9.129  25.726   6.821  0.2120 -0.0559  0.0451
    1DIPC   GL2 8692   9.300  25.914   6.495 -0.0589 -0.3121  0.1921
    1DIPC   C1A 8693   8.764  25.632   6.611  0.0994 -0.0168  0.1500
    1DIPC   D2A 8694   8.481  25.278   6.598 -0.1871 -0.4358 -0.0588
    1DIPC   D3A 8695   8.096  25.495   6.351 -0.1383 -0.0218 -0.0542
    1DIPC   C4A 8696   7.857  25.304   5.992 -0.0664 -0.0478  0.1738
    1DIPC   C1B 8697   9.556  26.178   6.331 -0.0019  0.0980  0.1858
    1DIPC   D2B 8698   9.930  26.390   6.140  0.0270  0.1255 -0.0212
    1DIPC   D3B 8699   9.947  26.441   5.653  0.0926  0.2934  0.2237
    1DIPC   C4B 8700   9.499  26.617   5.561 -0.4037 -0.2665  0.0707
    1DIPC   NC3 8701   7.248   0.858   7.255  0.0323 -0.1009 -0.1181
    1DIPC   PO4 8702   7.355   1.222   6.947  0.3239  0.1736  0.1598
    1DIPC   GL1 8703   7.549   1.040   6.532  0.2107 -0.1397  0.1381
    1DIPC   GL2 8704   7.622   0.806   6.407 -0.2753  0.0433  0.0935
    1DIPC   C1A 8705   7.825   1.368   6.436 -0.2621  0.0737 -0.0475
    1DIPC   D2A 8706   7.976   1.668   6.146 -0.2176 -0.0777 -0.0732
    1DIPC   D3A 8707   7.803   1.835   5.770 -0.4685 -0.3462 -0.2303
    1DIPC   C4A 8708   7.735   2.255   5.713  0.0758  0.3104 -0.2418
    1DIPC   C1B 8709   7.735   1.062   6.053  0.0732  0.0401 -0.0398
    1DIPC   D2B 8710   7.698   1.093   5.653 -0.3701 -0.1865 -0.0126
    1DIPC   D3B 8711   8.002   1.450   5.531  0.1721 -0.0290 -0.1601
    1DIPC   C4B 8712   8.491   1.488   5.335 -0.1157 -0.3002 -0.2998
    1DIPC   NC3 8713  21.378  10.279   6.206 -0.0374 -0.3095  0.2652
    1DIPC   PO4 8714  21.126  10.053   6.042 -0.1841  0.1919  0.3350
    1DIPC   GL1 8715  21.263  10.159   5.650 -0.5052  0.1318  0.0132
    1DIPC   GL2 8716  21.036  10.537   5.836 -0.0304 -0.0259 -0.0935
    1DIPC   C1A 8717  21.196   9.943   5.313 -0.0779  0.2587  0.2798
    1DIPC   D2A 8718  21.565   9.678   5.073 -0.0500 -0.0965 -0.3386
    1DIPC   D3A 8719  21.849   9.789   4.813  0.0284 -0.0456  0.0345
    1DIPC   C4A 8720  22.018  10.174   4.641 -0.0934  0.1961 -0.0387
    1DIPC   C1B 8721  20.993  10.428   5.380 -0.5278 -0.1915 -0.2104
    1DIPC   D2B 8722  21.015  10.436   4.975  0.0689 -0.0165 -0.0841
    1DIPC   D3B 8723  20.915  10.777   4.680 -0.1002 -0.2662  0.0125
    1DIPC   C4B 8724  20.748  11.181   4.742  0.1362  0.0384 -0.4122
    1DIPC   NC3 8725  20.311   7.420   7.035 -0.0069 -0.0904 -0.5676
    1DIPC   PO4 8726  20.377   7.721   6.783  0.1025 -0.0543  0.3851
    1DIPC   GL1 8727  20.481   7.595   6.366 -0.0986 -0.3597 -0.1302
    1DIPC   GL2 8728  20.201   7.908   6.236 -0.0436 -0.2856 -0.4622
    1DIPC   C1A 8729  20.593   7.453   5.966  0.0460  0.0709 -0.0558
    1DIPC   D2A 8730  20.728   7.242   5.647 -0.1509 -0.4884 -0.1183
    1DIPC   D3A 8731  20.476   6.808   5.738 -0.0913  0.2063  0.1831
    1DIPC   C4A 8732  20.396   6.652   6.089 -0.2131  0.1706 -0.0490
    1DIPC   C1B 8733  20.066   7.829   5.764 -0.0099 -0.2288  0.2702
    1DIPC   D2B 8734  20.209   7.498   5.554  0.1167 -0.0245  0.1315
    1DIPC   D3B 8735  19.875   7.547   5.236  0.1420 -0.0725  0.0964
    1DIPC   C4B 8736  19.969   7.785   4.859  0.3728 -0.0539  0.1916
    1DIPC   NC3 8737   0.242  27.462   7.198 -0.2548  0.0679  0.0280
    1DIPC   PO4 8738  -0.153  27.365   6.950 -0.1240 -0.0712  0.0322
    1DIPC   GL1 8739  -0.215  27.575   6.513 -0.0903  0.0609  0.1356
    1DIPC   GL2 8740  -0.057  27.619   6.275  0.3392 -0.0886  0.3310
    1DIPC   C1A 8741  -0.494  27.490   6.113  0.0869 -0.3154  0.1299
    1DIPC   D2A 8742  -0.953  27.301   5.907  0.0767 -0.0848 -0.0437
    1DIPC   D3A 8743  -0.770  27.532   5.627  0.0992 -0.0301 -0.1753
    1DIPC   C4A 8744  -0.384  27.396   5.267 -0.1424 -0.0857 -0.2281
    1DIPC   C1B 8745  -0.001  27.510   5.925  0.0120 -0.2469 -0.1497
    1DIPC   D2B 8746  -0.100  27.680   5.596  0.1752 -0.2935  0.1254
    1DIPC   D3B 8747   0.286  27.606   5.460 -0.0613  0.1107  0.1463
    1DIPC   C4B 8748   0.457  27.522   5.182  0.0853 -0.1459 -0.0705
    1DIPC   NC3 8749   6.585  26.847   7.031 -0.2095  0.1800 -0.0627
    1DIPC   PO4 8750   7.018  27.002   6.968 -0.3559 -0.1214 -0.1675
    1DIPC   GL1 8751   7.250  27.151   6.581 -0.0669  0.2578  0.1439
    1DIPC   GL2 8752   7.609  27.408   6.466 -0.3634 -0.0705  0.0602
    1DIPC   C1A 8753   7.026  27.266   6.162 -0.0465 -0.3320 -0.1885
    1DIPC   D2A 8754   6.654  27.513   5.881 -0.1439 -0.0183  0.3905
    1DIPC   D3A 8755   7.027  27.616   5.726 -0.3706 -0.2672 -0.2176
    1DIPC   C4A 8756   7.170  27.406   5.486 -0.1462 -0.0295 -0.0040
    1DIPC   C1B 8757   7.462  27.381   5.981 -0.1303  0.0194  0.0908
    1DIPC   D2B 8758   7.692  27.486   5.597  0.2503 -0.1888  0.1175
    1DIPC   D3B 8759   7.971  27.788   5.636 -0.1907 -0.0021  0.0432
    1DIPC   C4B 8760   8.394  27.710   5.511 -0.0622  0.0142  0.0613
    1DIPC   NC3 8761   0.475   0.225   6.885 -0.0220  0.0094  0.3991
    1DIPC   PO4 8762   0.929   0.352   6.899 -0.0154 -0.0557  0.3348
    1DIPC   GL1 8763   0.881   0.522   6.500 -0.2585  0.1195 -0.3310
    1DIPC   GL2 8764   1.153   0.462   6.244 -0.3080  0.2018  0.2369
    1DIPC   C1A 8765   0.685   0.718   6.182 -0.2562 -0.0945 -0.1281
    1DIPC   D2A 8766   0.454   0.938   6.022  0.0444 -0.0652  0.2594
    1DIPC   D3A 8767   0.114   1.154   5.876  0.1045 -0.7429  0.0726
    1DIPC   C4A 8768   0.029   1.593   5.959  0.0352  0.0208  0.1387
    1DIPC   C1B 8769   0.995   0.380   5.787  0.2118  0.0985  0.2344
    1DIPC   D2B 8770   0.976   0.110   5.336  0.2587  0.0484 -0.2388
    1DIPC   D3B 8771   0.590   0.355   5.102 -0.1393  0.4139 -0.0318
    1DIPC   C4B 8772   0.392   0.316   4.662  0.1242 -0.3894  0.0095
    1DIPC   NC3 8773  15.884   3.126   7.194  0.0075 -0.0992 -0.1860
    1DIPC   PO4 8774  16.054   3.196   6.823 -0.1995  0.0463 -0.1867
    1DIPC   GL1 8775  16.295   3.517   6.551 -0.1992  0.2151  0.0555
    1DIPC   GL2 8776  16.567   3.239   6.426 -0.0974 -0.2543  0.2690
    1DIPC   C1A 8777  16.225   3.647   6.132  0.1661  0.1768  0.2373
    1DIPC   D2A 8778  16.176   3.562   5.698 -0.0603  0.2912  0.1752
    1DIPC   D3A 8779  16.334   3.900   5.465  0.4747 -0.1796  0.1136
    1DIPC   C4A 8780  16.668   3.758   5.174  0.1278  0.0541 -0.0783
    1DIPC   C1B 8781  16.220   3.119   6.079  0.1245  0.1712 -0.0795
    1DIPC   D2B 8782  15.853   3.198   5.839 -0.0317 -0.0469 -0.1173
    1DIPC   D3B 8783  16.218   3.005   5.559  0.4981  0.3993 -0.2648
    1DIPC   C4B 8784  16.056   2.900   5.085  0.1006  0.0971 -0.1761
    1DIPC   NC3 8785  21.528   7.049   6.792  0.1208 -0.2762 -0.1885
    1DIPC   PO4 8786  21.898   6.898   6.593  0.1157 -0.1151  0.0865
    1DIPC   GL1 8787  21.580   6.839   6.294  0.0190  0.3975  0.0642
    1DIPC   GL2 8788  21.584   7.149   6.235 -0.2657  0.0190  0.2138
    1DIPC   C1A 8789  21.413   6.818   5.811 -0.1179 -0.1034 -0.1369
    1DIPC   D2A 8790  21.428   6.861   5.305  0.0806  0.1795  0.2415
    1DIPC   D3A 8791  21.658   6.478   5.551  0.0156 -0.1196  0.0378
    1DIPC   C4A 8792  22.070   6.319   5.307 -0.0152 -0.0372  0.2227
    1DIPC   C1B 8793  21.873   7.059   5.796 -0.2119 -0.1139  0.2890
    1DIPC   D2B 8794  22.138   6.659   5.726 -0.0426  0.0942 -0.0394
    1DIPC   D3B 8795  22.011   6.818   5.352 -0.0910  0.1594  0.0930
    1DIPC   C4B 8796  22.229   6.594   4.957 -0.1289 -0.1609  0.1951
    1DIPC   NC3 8797  10.773  26.788   6.829  0.0202  0.0784 -0.1159
    1DIPC   PO4 8798  10.738  27.198   6.532 -0.1308 -0.1051 -0.1485
    1DIPC   GL1 8799  10.516  27.499   6.484 -0.3176 -0.2287 -0.0427
    1DIPC   GL2 8800  10.626  27.800   6.614  0.0637 -0.4270  0.2030
    1DIPC   C1A 8801  10.272  27.855   6.260  0.2713  0.3023 -0.4205
    1DIPC   D2A 8802   9.906  28.002   6.069 -0.1740  0.2104  0.1060
    1DIPC   D3A 8803   9.762  27.874   5.783 -0.2411  0.0195  0.2200
    1DIPC   C4A 8804   9.759  27.542   5.410 -0.3167  0.2640  0.0946
    1DIPC   C1B 8805  10.777  27.801   6.135 -0.1863 -0.0240  0.1597
    1DIPC   D2B 8806  10.990  27.835   5.695 -0.1542  0.0467  0.1274
    1DIPC   D3B 8807  10.666  28.054   5.423 -0.1936 -0.4913 -0.1720
    1DIPC   C4B 8808  10.240  27.717   5.260 -0.3684 -0.3146 -0.1428
    1DIPC   NC3 8809  10.783  23.035   7.084 -0.0027 -0.1787  0.0040
    1DIPC   PO4 8810  10.394  23.213   6.772 -0.0032  0.1031 -0.0787
    1DIPC   GL1 8811  10.302  23.058   6.330  0.2485  0.2780  0.1402
    1DIPC   GL2 8812   9.992  23.028   6.267 -0.0539  0.2343 -0.3095
    1DIPC   C1A 8813  10.352  23.147   5.919  0.1224 -0.1503  0.1565
    1DIPC   D2A 8814  10.242  22.944   5.615  0.1958 -0.0737 -0.3808
    1DIPC   D3A 8815  10.520  23.036   5.433  0.4035  0.2459  0.1183
    1DIPC   C4A 8816  10.622  23.068   4.937 -0.1481  0.0631 -0.2084
    1DIPC   C1B 8817  10.049  22.671   5.958 -0.2241  0.2112  0.1459
    1DIPC   D2B 8818   9.758  22.288   5.829  0.0991 -0.0974  0.3555
    1DIPC   D3B 8819   9.879  22.463   5.515 -0.0022  0.0941 -0.1614
    1DIPC   C4B 8820  10.012  22.302   5.149 -0.1351 -0.0508  0.0168
    1DIPC   NC3 8821  10.174   6.016   7.630  0.1869 -0.1976  0.0642
    1DIPC   PO4 8822  10.369   5.754   7.297 -0.1814  0.0272  0.0845
    1DIPC   GL1 8823  10.556   5.555   6.952  0.1714  0.0566 -0.5557
    1DIPC   GL2 8824  10.481   5.736   6.776 -0.2606  0.0572  0.0113
    1DIPC   C1A 8825  10.680   5.364   6.522  0.2803  0.0224  0.0813
    1DIPC   D2A 8826  10.847   5.415   6.036  0.1586  0.2223 -0.0733
    1DIPC   D3A 8827  11.205   5.088   5.855  0.0981 -0.0462  0.1873
    1DIPC   C4A 8828  11.541   5.366   5.575  0.1078 -0.2205  0.1365
    1DIPC   C1B 8829  10.437   5.804   6.399 -0.0190  0.0170 -0.2190
    1DIPC   D2B 8830  10.311   5.485   5.988 -0.1460 -0.0240  0.0118
    1DIPC   D3B 8831  10.380   5.710   5.615  0.3461  0.0022  0.0425
    1DIPC   C4B 8832  10.466   5.479   5.287 -0.2595  0.1889 -0.1648
    1DIPC   NC3 8833  16.552  21.981   6.975 -0.2836  0.2145 -0.2884
    1DIPC   PO4 8834  16.608  22.027   6.471  0.0377 -0.1272 -0.0110
    1DIPC   GL1 8835  16.623  22.174   6.131  0.0803 -0.0839 -0.2423
    1DIPC   GL2 8836  16.657  21.890   5.967 -0.1816 -0.1661  0.3384
    1DIPC   C1A 8837  16.427  22.440   5.937 -0.1474 -0.1971 -0.0534
    1DIPC   D2A 8838  16.286  22.560   5.555  0.0776 -0.0171  0.1204
    1DIPC   D3A 8839  15.994  22.808   5.780  0.2787 -0.1866 -0.2313
    1DIPC   C4A 8840  15.634  22.849   5.593 -0.0904 -0.1613  0.2646
    1DIPC   C1B 8841  16.430  22.047   5.645  0.0119 -0.1812  0.0231
    1DIPC   D2B 8842  16.109  22.123   5.303 -0.0820  0.1297  0.0183
    1DIPC   D3B 8843  16.293  22.181   4.846 -0.0993 -0.0338  0.2462
    1DIPC   C4B 8844  16.549  22.481   4.571 -0.4885  0.1167  0.3152
    1DIPC   NC3 8845  22.553  13.482   5.600 -0.1069 -0.0175  0.1444
    1DIPC   PO4 8846  22.967  13.695   5.643  0.2334  0.2144  0.1045
    1DIPC   GL1 8847  23.026  13.831   5.146  0.0057  0.1176 -0.0900
    1DIPC   GL2 8848  23.181  13.588   5.135 -0.2093  0.1429 -0.0358
    1DIPC   C1A 8849  22.950  13.810   4.726  0.1119 -0.0672  0.0512
    1DIPC   D2A 8850  22.819  14.097   4.304  0.5501 -0.2668 -0.0653
    1DIPC   D3A 8851  22.786  14.459   4.451 -0.0528 -0.0296 -0.3033
    1DIPC   C4A 8852  22.375  14.600   4.445  0.0778 -0.0129  0.0154
    1DIPC   C1B 8853  22.776  13.330   4.902  0.0162  0.1940 -0.3755
    1DIPC   D2B 8854  22.466  13.211   4.662  0.4421  0.0942  0.1138
    1DIPC   D3B 8855  22.529  13.025   4.207  0.0532 -0.0602  0.0535
    1DIPC   C4B 8856  22.739  12.646   4.212 -0.0595  0.0734  0.1097
    1DIPC   NC3 8857  16.207  13.917   5.805 -0.0825  0.1395  0.0520
    1DIPC   PO4 8858  16.246  13.513   5.903 -0.2240 -0.1532  0.1119
    1DIPC   GL1 8859  16.105  13.345   5.589 -0.2336 -0.0601  0.2002
    1DIPC   GL2 8860  15.919  13.609   5.468 -0.2805  0.0434 -0.0414
    1DIPC   C1A 8861  15.716  13.184   5.359 -0.0437  0.0274  0.0072
    1DIPC   D2A 8862  15.431  13.411   5.094  0.1621  0.0515  0.2347
    1DIPC   D3A 8863  15.100  13.730   5.333  0.2821  0.1931 -0.0020
    1DIPC   C4A 8864  14.695  13.907   5.189 -0.1668 -0.4349 -0.1139
    1DIPC   C1B 8865  16.202  13.433   5.106  0.2026  0.4388 -0.3023
    1DIPC   D2B 8866  16.303  13.173   4.822 -0.1750 -0.4028  0.1525
    1DIPC   D3B 8867  15.820  13.385   4.763 -0.1074  0.0557 -0.1435
    1DIPC   C4B 8868  15.791  13.747   4.941 -0.0164  0.0983  0.1929
    1DIPC   NC3 8869  23.757  12.764   5.561 -0.1746  0.1160 -0.4468
    1DIPC   PO4 8870  24.091  13.116   5.603  0.0460  0.1248 -0.2394
    1DIPC   GL1 8871  24.131  13.337   5.181  0.1174 -0.0572 -0.1003
    1DIPC   GL2 8872  23.794  13.484   5.108  0.0694  0.0942  0.1637
    1DIPC   C1A 8873  24.327  13.499   4.882 -0.1541  0.0329  0.1414
    1DIPC   D2A 8874  24.699  13.365   4.945  0.1458  0.0888  0.1009
    1DIPC   D3A 8875  24.709  13.314   4.522  0.1113  0.1439  0.2706
    1DIPC   C4A 8876  24.410  13.608   4.398 -0.2005 -0.1277  0.1248
    1DIPC   C1B 8877  23.640  13.975   5.035 -0.0230  0.0219  0.0677
    1DIPC   D2B 8878  23.314  14.254   5.184  0.2897 -0.1951  0.3344
    1DIPC   D3B 8879  23.307  14.140   4.709  0.0790 -0.0227 -0.0403
    1DIPC   C4B 8880  23.662  14.142   4.472  0.0637  0.0993 -0.0800
    1DIPC   NC3 8881  17.672  21.027   6.145 -0.0217 -0.2390  0.2104
    1DIPC   PO4 8882  18.177  21.130   6.202  0.0194 -0.0060 -0.2681
    1DIPC   GL1 8883  18.246  21.177   5.789 -0.0335 -0.3466 -0.0492
    1DIPC   GL2 8884  18.261  21.435   5.644  0.0279 -0.1276  0.0931
    1DIPC   C1A 8885  18.192  21.014   5.263 -0.0471  0.1427 -0.1138
    1DIPC   D2A 8886  18.129  21.174   4.871  0.2559 -0.1598 -0.1987
    1DIPC   D3A 8887  18.114  20.766   4.716  0.2152  0.1099 -0.2185
    1DIPC   C4A 8888  18.036  20.584   4.347 -0.4017  0.0907  0.1078
    1DIPC   C1B 8889  18.470  21.637   5.447  0.2498  0.0785 -0.0830
    1DIPC   D2B 8890  18.421  21.531   5.059  0.1912  0.4340 -0.2694
    1DIPC   D3B 8891  18.700  21.807   5.021  0.0422  0.0313 -0.1839
    1DIPC   C4B 8892  18.569  22.234   5.223  0.2355  0.2347  0.2284
    1DIPC   NC3 8893  27.833  27.825   6.974 -0.2149 -0.0598  0.1400
    1DIPC   PO4 8894  27.382  27.958   6.930 -0.1563  0.2441  0.0541
    1DIPC   GL1 8895  27.473  27.811   6.523  0.2072  0.1082  0.3531
    1DIPC   GL2 8896  27.619  27.633   6.569  0.2380 -0.1263  0.0164
    1DIPC   C1A 8897  27.176  27.747   6.119 -0.2618  0.3315 -0.2853
    1DIPC   D2A 8898  26.888  27.981   5.807 -0.0961  0.1031 -0.0925
    1DIPC   D3A 8899  26.832  27.989   5.385  0.0806  0.1665 -0.0125
    1DIPC   C4A 8900  27.173  28.059   5.067  0.3895 -0.2602 -0.0464
    1DIPC   C1B 8901  27.851  27.662   6.078  0.0783  0.1634  0.0425
    1DIPC   D2B 8902  28.054  27.853   5.627 -0.0329  0.0630 -0.3684
    1DIPC   D3B 8903  27.776  27.762   5.316 -0.0287 -0.0737  0.2628
    1DIPC   C4B 8904  27.807  28.008   5.016  0.1965 -0.0501  0.2281
    1DIPC   NC3 8905  14.324  29.779   6.929  0.1059 -0.2904 -0.3471
    1DIPC   PO4 8906  14.451  29.249   6.924  0.0558 -0.0457 -0.2422
    1DIPC   GL1 8907  14.232  29.065   6.504 -0.1034  0.1205  0.0404
    1DIPC   GL2 8908  14.463  29.151   6.139 -0.0351 -0.0706  0.4141
    1DIPC   C1A 8909  14.000  29.046   6.103 -0.1838  0.0572 -0.0220
    1DIPC   D2A 8910  13.930  28.916   5.614 -0.0463 -0.0327  0.1504
    1DIPC   D3A 8911  14.281  28.910   5.683 -0.1469 -0.0577  0.0773
    1DIPC   C4A 8912  14.648  28.527   5.535 -0.0359  0.1582  0.1307
    1DIPC   C1B 8913  14.274  29.440   5.987 -0.0114  0.0436  0.1640
    1DIPC   D2B 8914  13.950  29.594   5.819  0.1225 -0.1400  0.0270
    1DIPC   D3B 8915  14.098  29.730   5.435  0.3998  0.2193  0.1811
    1DIPC   C4B 8916  14.178  29.457   5.008 -0.0343 -0.1075 -0.2282
    1DIPC   NC3 8917  27.862   0.280   6.870 -0.0357  0.1073  0.2019
    1DIPC   PO4 8918  27.621   0.623   7.092  0.0462 -0.1707 -0.0993
    1DIPC   GL1 8919  27.643   0.798   6.820 -0.1380 -0.0543  0.0768
    1DIPC   GL2 8920  27.744   0.599   6.570  0.2664  0.2083  0.2290
    1DIPC   C1A 8921  27.775   1.249   6.652  0.1081  0.1605  0.1186
    1DIPC   D2A 8922  27.548   1.572   6.434 -0.0601 -0.3024 -0.0790
    1DIPC   D3A 8923  27.441   1.699   5.991 -0.1178  0.2964 -0.2180
    1DIPC   C4A 8924  27.646   1.428   5.689  0.0567  0.2941 -0.4362
    1DIPC   C1B 8925  27.578   0.616   6.118 -0.0436 -0.0489  0.2111
    1DIPC   D2B 8926  27.493   0.806   5.735  0.0290  0.0833 -0.1319
    1DIPC   D3B 8927  27.449   0.531   5.410  0.2052  0.0765 -0.2255
    1DIPC   C4B 8928  27.403   0.716   4.980  0.1018  0.0154 -0.0924
    1DIPC   NC3 8929   4.208   6.207   6.892  0.2307 -0.2190 -0.0486
    1DIPC   PO4 8930   4.341   5.710   6.841  0.1607 -0.3178  0.0848
    1DIPC   GL1 8931   4.420   5.582   6.485 -0.3030  0.1239 -0.2908
    1DIPC   GL2 8932   4.757   5.691   6.388 -0.1476 -0.1085  0.0429
    1DIPC   C1A 8933   4.155   5.439   6.127 -0.2566 -0.1189  0.1128
    1DIPC   D2A 8934   4.190   5.335   5.657 -0.0301 -0.1527  0.1187
    1DIPC   D3A 8935   4.214   4.980   5.553  0.1248  0.1194 -0.1468
    1DIPC   C4A 8936   3.915   4.652   5.754  0.0844 -0.2215 -0.0270
    1DIPC   C1B 8937   4.771   5.655   6.010  0.1384  0.2675 -0.1495
    1DIPC   D2B 8938   5.042   5.529   5.672 -0.0413 -0.0315  0.0873
    1DIPC   D3B 8939   5.064   5.903   5.529  0.1078  0.2251  0.0189
    1DIPC   C4B 8940   5.336   5.864   5.150  0.1444 -0.2592  0.2609
    1DIPC   NC3 8941  13.510  26.324   6.377  0.2835 -0.1184 -0.1325
    1DIPC   PO4 8942  13.285  25.923   6.385 -0.0363  0.0365  0.4651
    1DIPC   GL1 8943  13.313  26.164   5.922  0.0307  0.0992  0.0778
    1DIPC   GL2 8944  13.578  26.481   5.888 -0.2184 -0.0670  0.1763
    1DIPC   C1A 8945  13.208  26.089   5.518  0.1250 -0.0590 -0.0844
    1DIPC   D2A 8946  12.983  26.029   5.161  0.3942 -0.0760  0.2242
    1DIPC   D3A 8947  13.000  26.339   4.811  0.0006 -0.0956 -0.2085
    1DIPC   C4A 8948  13.153  26.129   4.280 -0.1846 -0.0576  0.0633
    1DIPC   C1B 8949  13.422  26.723   5.504  0.0680 -0.0673 -0.1249
    1DIPC   D2B 8950  13.652  27.015   5.379  0.1287 -0.2752 -0.2605
    1DIPC   D3B 8951  13.849  27.099   5.006  0.0875 -0.0433  0.0747
    1DIPC   C4B 8952  13.937  27.545   4.876 -0.1247  0.0877  0.4212
    1DIPC   NC3 8953   0.830   5.975   7.070  0.2257  0.2629  0.1402
    1DIPC   PO4 8954   0.674   6.315   6.896  0.0557  0.0726 -0.0983
    1DIPC   GL1 8955   0.823   6.344   6.383 -0.2304  0.1472 -0.1905
    1DIPC   GL2 8956   1.026   6.571   6.270  0.1596 -0.2162  0.1758
    1DIPC   C1A 8957   0.866   6.074   6.023  0.1874 -0.0567 -0.1399
    1DIPC   D2A 8958   0.861   6.105   5.571  0.0851  0.3041 -0.3745
    1DIPC   D3A 8959   0.363   6.073   5.661  0.0102 -0.2203 -0.0204
    1DIPC   C4A 8960   0.197   5.696   5.911  0.0091  0.0902 -0.1225
    1DIPC   C1B 8961   0.804   6.612   5.893 -0.0909  0.1929 -0.0753
    1DIPC   D2B 8962   0.658   6.596   5.411  0.0860 -0.2184 -0.1267
    1DIPC   D3B 8963   0.738   6.301   5.123 -0.0936 -0.1338 -0.2445
    1DIPC   C4B 8964   0.384   6.254   4.871 -0.0131  0.2228  0.2440
    1DIPC   NC3 8965  20.100  17.992   5.810  0.0584 -0.2697 -0.0221
    1DIPC   PO4 8966  19.650  17.870   5.854 -0.3180 -0.1964 -0.4781
    1DIPC   GL1 8967  19.390  17.956   5.608 -0.1900 -0.1078  0.1035
    1DIPC   GL2 8968  19.179  17.705   5.546  0.0294  0.3834  0.0060
    1DIPC   C1A 8969  19.159  18.088   5.188  0.1214  0.2360 -0.1117
    1DIPC   D2A 8970  18.906  18.107   4.881 -0.1355  0.0923  0.0983
    1DIPC   D3A 8971  19.082  18.186   4.511  0.3578 -0.2027  0.2017
    1DIPC   C4A 8972  18.871  18.475   4.370  0.0058 -0.1762  0.0758
    1DIPC   C1B 8973  19.091  17.570   5.083  0.0543  0.3063 -0.2476
    1DIPC   D2B 8974  19.356  17.756   4.795  0.0906 -0.1252  0.2460
    1DIPC   D3B 8975  19.547  17.385   4.704 -0.1097 -0.1759  0.0969
    1DIPC   C4B 8976  19.685  17.303   4.319 -0.0249  0.0705  0.0064
    1DIPC   NC3 8977  23.322  23.452   6.065 -0.2320 -0.1136  0.3991
    1DIPC   PO4 8978  23.164  23.692   5.694 -0.0979 -0.1484 -0.4195
    1DIPC   GL1 8979  22.863  23.512   5.400  0.3260  0.1987 -0.2339
    1DIPC   GL2 8980  22.786  23.134   5.380 -0.2376  0.2269  0.2022
    1DIPC   C1A 8981  22.674  23.538   4.919 -0.0222  0.0382 -0.3809
    1DIPC   D2A 8982  22.331  23.813   4.740 -0.1190 -0.0692 -0.0985
    1DIPC   D3A 8983  22.777  23.936   4.627 -0.2003 -0.0931  0.0402
    1DIPC   C4A 8984  23.056  23.616   4.457  0.2778 -0.2424 -0.1424
    1DIPC   C1B 8985  23.012  23.168   5.058 -0.0633  0.1204 -0.1231
    1DIPC   D2B 8986  23.382  22.979   5.017  0.0259  0.0220 -0.0609
    1DIPC   D3B 8987  23.119  22.646   4.945 -0.0140 -0.1808 -0.3198
    1DIPC   C4B 8988  22.732  22.804   4.818 -0.0396  0.0521 -0.4456
    1DIPC   NC3 8989  13.885   5.374   7.387 -0.0209 -0.2122 -0.0228
    1DIPC   PO4 8990  13.988   5.169   6.988 -0.1141  0.1356 -0.0681
    1DIPC   GL1 8991  13.981   5.207   6.520 -0.0806  0.1569 -0.1726
    1DIPC   GL2 8992  13.772   5.395   6.292  0.0809  0.1726  0.0944
    1DIPC   C1A 8993  13.922   4.835   6.271  0.2743  0.0085  0.0880
    1DIPC   D2A 8994  14.024   4.887   5.894 -0.2885  0.2788  0.1880
    1DIPC   D3A 8995  14.098   5.108   5.473 -0.0617  0.1984 -0.1468
    1DIPC   C4A 8996  13.820   5.187   5.131  0.1580 -0.0095 -0.3272
    1DIPC   C1B 8997  13.654   5.717   6.021  0.0411 -0.2630 -0.2737
    1DIPC   D2B 8998  13.932   5.936   5.733  0.1412 -0.2655  0.1714
    1DIPC   D3B 8999  14.369   5.825   5.659  0.0823 -0.1403  0.2642
    1DIPC   C4B 9000  14.478   5.310   5.710 -0.1368 -0.1654 -0.1485
    1DIPC   NC3 9001   5.832   4.449   7.378 -0.2177  0.4085  0.1603
    1DIPC   PO4 9002   5.903   4.329   6.942  0.1873  0.0327 -0.1805
    1DIPC   GL1 9003   5.803   4.664   6.545 -0.0863  0.2616  0.0661
    1DIPC   GL2 9004   5.391   4.708   6.498  0.0819  0.0903  0.0685
    1DIPC   C1A 9005   5.717   4.498   6.104 -0.1503 -0.4088  0.2294
    1DIPC   D2A 9006   5.664   4.342   5.757 -0.0639 -0.0520  0.4979
    1DIPC   D3A 9007   6.090   4.205   5.715  0.0389  0.0193  0.0834
    1DIPC   C4A 9008   6.140   3.860   5.421  0.0110  0.2621  0.1055
    1DIPC   C1B 9009   5.179   4.548   6.029 -0.1773 -0.0336  0.0561
    1DIPC   D2B 9010   4.945   4.638   5.567  0.2093  0.1799  0.2349
    1DIPC   D3B 9011   4.773   4.327   5.322  0.1277  0.0672  0.1192
    1DIPC   C4B 9012   4.442   4.290   5.046 -0.0919  0.0894  0.3494
    1DIPC   NC3 9013  24.072   8.963   6.608 -0.1897 -0.0035 -0.1003
    1DIPC   PO4 9014  24.058   8.570   6.403 -0.0991 -0.0258  0.3544
    1DIPC   GL1 9015  23.842   8.558   5.972  0.0210 -0.1426 -0.0931
    1DIPC   GL2 9016  23.649   8.384   5.968  0.1166 -0.1605 -0.0214
    1DIPC   C1A 9017  24.025   8.513   5.596  0.1540  0.0230 -0.0255
    1DIPC   D2A 9018  23.867   8.317   5.197 -0.2995 -0.0830  0.0780
    1DIPC   D3A 9019  24.144   8.644   5.116  0.0553 -0.2149 -0.1654
    1DIPC   C4A 9020  24.064   9.008   4.723  0.0126  0.0328 -0.2130
    1DIPC   C1B 9021  23.482   8.388   5.471 -0.4213  0.2803  0.0512
    1DIPC   D2B 9022  23.392   8.221   5.037 -0.1867  0.0347 -0.3099
    1DIPC   D3B 9023  23.428   7.741   4.916  0.0396 -0.0225 -0.2044
    1DIPC   C4B 9024  23.787   7.455   4.828  0.0361 -0.0048  0.0739
    1DIPC   NC3 9025  19.954   9.837   6.801  0.1072 -0.0392  0.1798
    1DIPC   PO4 9026  20.402   9.658   6.725  0.0206  0.0183 -0.2119
    1DIPC   GL1 9027  20.527   9.404   6.389  0.0016 -0.1150 -0.1058
    1DIPC   GL2 9028  20.368   9.399   6.130 -0.1048 -0.0965  0.2007
    1DIPC   C1A 9029  20.852   9.444   6.037  0.2105  0.0025  0.0746
    1DIPC   D2A 9030  21.007   9.664   5.793 -0.1273  0.0126 -0.1443
    1DIPC   D3A 9031  20.910   9.393   5.500  0.1871 -0.3277 -0.0949
    1DIPC   C4A 9032  20.850   9.032   5.398 -0.1656  0.0427 -0.3688
    1DIPC   C1B 9033  20.350   9.587   5.750 -0.1244 -0.0898  0.2454
    1DIPC   D2B 9034  20.453   9.631   5.348  0.2246  0.1445 -0.0837
    1DIPC   D3B 9035  20.167   9.902   5.197  0.0440  0.0672  0.0115
    1DIPC   C4B 9036  19.772   9.930   5.349  0.0883  0.2662 -0.3009
    1DIPC   NC3 9037   4.559  27.825   6.430  0.0124 -0.0716 -0.2144
    1DIPC   PO4 9038   4.209  27.655   6.208  0.2575 -0.1056  0.4759
    1DIPC   GL1 9039   4.348  27.498   5.872 -0.0605 -0.1873 -0.1543
    1DIPC   GL2 9040   4.574  27.721   5.868  0.0487  0.0407  0.1961
    1DIPC   C1A 9041   4.248  27.469   5.535  0.2742 -0.1087  0.0556
    1DIPC   D2A 9042   4.277  27.107   5.281  0.0566  0.0864  0.0629
    1DIPC   D3A 9043   4.314  26.886   4.894 -0.0737  0.1724  0.2082
    1DIPC   C4A 9044   4.624  26.659   4.696 -0.2956 -0.1463  0.3220
    1DIPC   C1B 9045   4.578  27.838   5.374  0.1153  0.2222  0.0035
    1DIPC   D2B 9046   4.786  27.798   4.960  0.0782 -0.1180 -0.0341
    1DIPC   D3B 9047   4.350  27.918   4.898  0.2740 -0.4277  0.0154
    1DIPC   C4B 9048   4.051  27.892   5.162 -0.3860 -0.0789 -0.0407
    1DIPC   NC3 9049  26.158  27.609   7.421 -0.2264 -0.2468  0.1084
    1DIPC   PO4 9050  26.462  27.833   7.158 -0.2461  0.2605 -0.1583
    1DIPC   GL1 9051  26.386  27.971   6.637 -0.0488  0.1247 -0.4654
    1DIPC   GL2 9052  26.060  28.138   6.568 -0.2146  0.1586  0.1275
    1DIPC   C1A 9053  26.359  27.951   6.151  0.0021 -0.1068  0.3669
    1DIPC   D2A 9054  26.412  27.856   5.652 -0.2823  0.2190  0.0289
    1DIPC   D3A 9055  26.312  28.111   5.246  0.2121  0.0571  0.1521
    1DIPC   C4A 9056  26.661  28.262   5.026 -0.1919  0.0232  0.3598
    1DIPC   C1B 9057  25.813  27.832   6.251 -0.2045 -0.0879 -0.1239
    1DIPC   D2B 9058  25.440  27.749   6.105 -0.0384  0.1350 -0.5248
    1DIPC   D3B 9059  25.404  27.688   5.666  0.4709  0.1501 -0.0111
    1DIPC   C4B 9060  25.499  27.559   5.220  0.1619 -0.2796  0.1496
    1DIPC   NC3 9061   6.853  18.161   7.258  0.1982 -0.0007  0.1693
    1DIPC   PO4 9062   7.241  18.490   7.147  0.1071  0.3214  0.0575
    1DIPC   GL1 9063   6.961  18.434   6.804  0.1728  0.0830  0.0099
    1DIPC   GL2 9064   7.074  18.414   6.480  0.1990  0.2668  0.0402
    1DIPC   C1A 9065   6.597  18.496   6.546  0.0702  0.1198  0.0930
    1DIPC   D2A 9066   6.319  18.809   6.332 -0.0132  0.1776 -0.1585
    1DIPC   D3A 9067   6.298  18.948   5.945  0.1059 -0.4385 -0.1368
    1DIPC   C4A 9068   6.422  18.852   5.591 -0.1036 -0.0854 -0.0386
    1DIPC   C1B 9069   6.848  18.281   6.088  0.0003  0.0748  0.1113
    1DIPC   D2B 9070   6.794  18.568   5.799  0.1938 -0.1929  0.2694
    1DIPC   D3B 9071   6.858  18.820   6.147  0.0960 -0.2754  0.1490
    1DIPC   C4B 9072   6.677  19.201   6.086  0.2663 -0.2511 -0.1877
    1DIPC   NC3 9073  26.432   1.032   6.969 -0.0710 -0.1135 -0.3202
    1DIPC   PO4 9074  26.779   1.011   6.865  0.0199 -0.2565  0.1001
    1DIPC   GL1 9075  26.854   0.765   6.483  0.1684  0.0820  0.4552
    1DIPC   GL2 9076  26.966   0.410   6.503 -0.1940  0.1986 -0.0781
    1DIPC   C1A 9077  27.084   0.732   6.022 -0.2387  0.0061 -0.1038
    1DIPC   D2A 9078  26.873   0.539   5.595 -0.1889 -0.0914  0.1256
    1DIPC   D3A 9079  26.808   0.848   5.199  0.5124 -0.1205  0.0896
    1DIPC   C4A 9080  26.621   1.224   5.377 -0.0368 -0.0180 -0.1810
    1DIPC   C1B 9081  27.148   0.244   6.152  0.0963  0.1886 -0.0296
    1DIPC   D2B 9082  27.281   0.286   5.874 -0.0512 -0.0638  0.1637
    1DIPC   D3B 9083  27.402   0.049   5.636  0.3889  0.1731 -0.0675
    1DIPC   C4B 9084  27.545  -0.280   5.693 -0.0394 -0.0150  0.2144
    1DIPC   NC3 9085  20.521  16.316   5.853 -0.0603 -0.1621  0.0334
    1DIPC   PO4 9086  20.955  16.375   5.620  0.0391 -0.1706 -0.2303
    1DIPC   GL1 9087  20.629  16.325   5.287 -0.1681  0.1912 -0.0932
    1DIPC   GL2 9088  20.535  16.045   5.394 -0.0983 -0.4138  0.0820
    1DIPC   C1A 9089  20.356  16.213   4.871 -0.0002  0.0236  0.0484
    1DIPC   D2A 9090  20.219  16.233   4.403 -0.5427 -0.3750  0.0473
    1DIPC   D3A 9091  20.468  15.913   4.154 -0.2513 -0.0674  0.1610
    1DIPC   C4A 9092  20.901  15.783   4.321  0.0384 -0.0006 -0.0964
    1DIPC   C1B 9093  20.484  15.765   5.110  0.1429  0.0110 -0.1169
    1DIPC   D2B 9094  20.377  15.670   4.671  0.0595  0.0471 -0.3311
    1DIPC   D3B 9095  20.127  15.433   4.474  0.0230 -0.0629 -0.2898
    1DIPC   C4B 9096  20.249  15.492   4.135  0.1386 -0.0239  0.2683
    1DIPC   NC3 9097  22.009  12.763   6.204  0.3917  0.0719 -0.0737
    1DIPC   PO4 9098  22.121  12.537   5.842 -0.1505 -0.0828  0.0710
    1DIPC   GL1 9099  22.097  12.694   5.380  0.0122  0.2053  0.1065
    1DIPC   GL2 9100  21.728  12.731   5.359 -0.2863 -0.1139  0.1613
    1DIPC   C1A 9101  22.230  12.733   4.994  0.1432  0.3106 -0.5135
    1DIPC   D2A 9102  22.305  12.584   4.631 -0.0768 -0.0902  0.0032
    1DIPC   D3A 9103  22.161  12.307   4.324 -0.0707  0.0664 -0.5109
    1DIPC   C4A 9104  22.133  12.251   3.935  0.2097 -0.1314 -0.0541
    1DIPC   C1B 9105  21.713  12.650   4.970  0.1478 -0.1698 -0.1791
    1DIPC   D2B 9106  21.775  12.449   4.639 -0.0222  0.1740  0.4295
    1DIPC   D3B 9107  21.688  12.449   4.213 -0.1953  0.1919 -0.0075
    1DIPC   C4B 9108  21.756  11.926   4.051 -0.1612  0.1338 -0.1738
    1DIPC   NC3 9109  12.848   1.030   6.764  0.0727  0.0383 -0.0534
    1DIPC   PO4 9110  12.458   1.021   6.992 -0.1563  0.1640 -0.0946
    1DIPC   GL1 9111  12.119   0.660   6.741  0.0360  0.0506  0.1736
    1DIPC   GL2 9112  11.983   0.763   6.413  0.1267 -0.2129 -0.0458
    1DIPC   C1A 9113  12.131   0.272   6.479 -0.3301 -0.1770 -0.0989
    1DIPC   D2A 9114  12.222  -0.118   6.199 -0.2325 -0.2310  0.0714
    1DIPC   D3A 9115  12.323  -0.087   5.758 -0.1765  0.0739 -0.0344
    1DIPC   C4A 9116  12.248  -0.450   5.489  0.1135 -0.2717  0.2628
    1DIPC   C1B 9117  12.129   0.881   6.026 -0.1879 -0.0833  0.1013
    1DIPC   D2B 9118  12.433   1.036   5.791 -0.1318  0.1898  0.3272
    1DIPC   D3B 9119  12.383   1.543   5.735  0.1038 -0.0577 -0.2786
    1DIPC   C4B 9120  12.444   1.738   5.339  0.2478 -0.2952 -0.0369
    1DIPC   NC3 9121  22.440  15.412   5.567  0.0261  0.0280 -0.0026
    1DIPC   PO4 9122  22.638  15.015   5.555 -0.3024  0.0381  0.0681
    1DIPC   GL1 9123  22.615  15.167   5.108 -0.0888  0.0323  0.2995
    1DIPC   GL2 9124  22.947  15.137   5.028  0.0293 -0.0325  0.4121
    1DIPC   C1A 9125  22.601  15.463   4.921  0.0416  0.0253  0.3297
    1DIPC   D2A 9126  22.172  15.626   4.692 -0.1451  0.1715 -0.0174
    1DIPC   D3A 9127  21.842  15.413   4.552 -0.0723 -0.1433  0.1710
    1DIPC   C4A 9128  21.659  15.608   4.136 -0.0631  0.2427  0.0115
    1DIPC   C1B 9129  22.747  15.102   4.548 -0.1943 -0.1875 -0.1643
    1DIPC   D2B 9130  23.036  14.809   4.244 -0.0194 -0.1275  0.1461
    1DIPC   D3B 9131  23.053  14.907   3.764 -0.0292 -0.1456  0.2669
    1DIPC   C4B 9132  23.010  15.339   3.526 -0.0843  0.0619 -0.0610
    1DIPC   NC3 9133  22.858   1.780   7.143  0.1883 -0.2012  0.1932
    1DIPC   PO4 9134  22.528   1.640   6.870 -0.4277  0.2098 -0.3075
    1DIPC   GL1 9135  22.638   1.867   6.647 -0.0067  0.0412  0.2476
    1DIPC   GL2 9136  23.075   1.773   6.638 -0.1761  0.0266  0.3725
    1DIPC   C1A 9137  22.496   2.113   6.269  0.1973 -0.2386 -0.0843
    1DIPC   D2A 9138  22.548   2.444   6.000  0.0297 -0.2009  0.1063
    1DIPC   D3A 9139  22.816   2.188   5.736  0.3782  0.1582  0.1347
    1DIPC   C4A 9140  22.632   1.955   5.272 -0.4947 -0.1495 -0.0934
    1DIPC   C1B 9141  22.937   1.670   6.178 -0.0307  0.2552  0.1329
    1DIPC   D2B 9142  22.892   1.406   5.701  0.1089 -0.0316  0.2588
    1DIPC   D3B 9143  22.573   1.681   5.697 -0.2481 -0.1858  0.1546
    1DIPC   C4B 9144  22.306   1.692   5.995 -0.0975  0.2261 -0.1475
    1DIPC   NC3 9145   0.355  26.656   6.853  0.0153  0.2858  0.1382
    1DIPC   PO4 9146   0.335  27.125   6.833 -0.0383  0.1301  0.2191
    1DIPC   GL1 9147   0.241  27.261   6.405  0.1013 -0.1321 -0.1118
    1DIPC   GL2 9148   0.539  27.055   6.277  0.0579 -0.0916 -0.0232
    1DIPC   C1A 9149   0.162  27.043   5.959 -0.3108  0.2176 -0.1174
    1DIPC   D2A 9150  -0.001  27.175   5.555 -0.1441 -0.2983  0.0848
    1DIPC   D3A 9151   0.032  27.117   5.176 -0.1164 -0.2977  0.1438
    1DIPC   C4A 9152   0.438  26.999   5.102 -0.0507 -0.2043  0.1242
    1DIPC   C1B 9153   0.451  26.620   6.144 -0.1517 -0.1424 -0.1333
    1DIPC   D2B 9154   0.500  26.239   5.808 -0.1657 -0.2101 -0.2387
    1DIPC   D3B 9155   0.356  26.023   5.526 -0.2488 -0.2152  0.2851
    1DIPC   C4B 9156  -0.025  26.237   5.495  0.0272  0.0131 -0.0664
    1DIPC   NC3 9157  18.487   4.109   6.766 -0.2332 -0.1448  0.3745
    1DIPC   PO4 9158  18.128   4.285   6.879  0.0267 -0.1993 -0.2079
    1DIPC   GL1 9159  18.181   4.343   6.421 -0.0720 -0.0888 -0.2931
    1DIPC   GL2 9160  18.269   4.102   6.316  0.1933 -0.2033 -0.0253
    1DIPC   C1A 9161  18.082   4.537   5.964  0.3099 -0.1469 -0.2169
    1DIPC   D2A 9162  17.902   4.388   5.539  0.3724 -0.0088  0.0878
    1DIPC   D3A 9163  17.898   4.050   5.268  0.1780  0.1052  0.0224
    1DIPC   C4A 9164  17.531   3.815   5.484 -0.1683 -0.0451  0.2008
    1DIPC   C1B 9165  18.127   3.664   6.180 -0.2628 -0.2019  0.3481
    1DIPC   D2B 9166  18.081   3.302   6.152 -0.0389 -0.0171  0.2010
    1DIPC   D3B 9167  18.179   3.209   5.742 -0.1667 -0.0196 -0.2729
    1DIPC   C4B 9168  18.301   2.829   5.750  0.1893 -0.1295  0.1679
    1DIPC   NC3 9169   4.568  26.137   6.142  0.1147  0.1226 -0.0684
    1DIPC   PO4 9170   4.841  26.389   6.091  0.1741 -0.0781  0.2326
    1DIPC   GL1 9171   4.548  26.605   5.963  0.1254  0.0255  0.0504
    1DIPC   GL2 9172   4.296  26.675   6.067  0.2303  0.0655 -0.2081
    1DIPC   C1A 9173   4.621  26.731   5.557 -0.1758 -0.0111 -0.0275
    1DIPC   D2A 9174   4.739  26.910   5.134 -0.0756 -0.2610 -0.0399
    1DIPC   D3A 9175   4.784  26.517   5.146 -0.0176 -0.2506  0.0339
    1DIPC   C4A 9176   5.187  26.240   4.988  0.2036  0.0148  0.3845
    1DIPC   C1B 9177   3.944  26.367   5.908 -0.0123  0.1344  0.1923
    1DIPC   D2B 9178   4.159  25.958   5.877  0.0450  0.2344  0.1369
    1DIPC   D3B 9179   4.569  26.213   5.606  0.0789 -0.2638  0.1170
    1DIPC   C4B 9180   4.793  26.046   5.334 -0.0401 -0.0511 -0.0990
    1DIPC   NC3 9181   9.057   5.055   7.527 -0.1714  0.0386  0.2153
    1DIPC   PO4 9182   9.373   5.053   7.107 -0.1137 -0.0876 -0.3081
    1DIPC   GL1 9183   9.118   5.206   6.677  0.3617 -0.0423 -0.1010
    1DIPC   GL2 9184   9.408   5.414   6.579 -0.0357 -0.0802  0.4027
    1DIPC   C1A 9185   9.148   5.106   6.237 -0.0915 -0.3080  0.1712
    1DIPC   D2A 9186   9.498   5.011   5.905  0.0605  0.0645 -0.0815
    1DIPC   D3A 9187   9.379   5.470   5.704 -0.4046 -0.0728 -0.0339
    1DIPC   C4A 9188   9.104   5.616   5.426 -0.1697 -0.1401 -0.1977
    1DIPC   C1B 9189   9.688   5.093   6.377 -0.2212  0.0375  0.1071
    1DIPC   D2B 9190   9.929   4.841   6.117 -0.4129  0.3149  0.1619
    1DIPC   D3B 9191  10.245   5.047   6.288 -0.1531 -0.1051  0.0250
    1DIPC   C4B 9192  10.089   5.441   6.406  0.0691  0.1806 -0.0319
    1DIPC   NC3 9193   1.534   3.318   6.910 -0.0549  0.0396  0.1200
    1DIPC   PO4 9194   1.870   3.042   6.889 -0.0221  0.0238 -0.4209
    1DIPC   GL1 9195   1.678   2.935   6.482  0.0845  0.4153  0.0544
    1DIPC   GL2 9196   1.829   2.666   6.328 -0.0777 -0.0862 -0.1923
    1DIPC   C1A 9197   1.365   2.956   6.214  0.0166  0.2690 -0.0495
    1DIPC   D2A 9198   1.181   2.618   6.028  0.0659  0.0765  0.1400
    1DIPC   D3A 9199   0.798   2.844   6.072 -0.0447  0.1320  0.0508
    1DIPC   C4A 9200   0.986   3.274   6.092 -0.0972 -0.0122  0.3760
    1DIPC   C1B 9201   1.731   2.610   5.993  0.1875 -0.0708  0.2599
    1DIPC   D2B 9202   1.745   2.355   5.679  0.2297 -0.2607  0.0875
    1DIPC   D3B 9203   1.326   2.561   5.560  0.1454 -0.2287  0.2188
    1DIPC   C4B 9204   1.291   2.827   5.213  0.0349  0.0374 -0.0461
    1DIPC   NC3 9205   1.094   0.878   6.873  0.0208  0.1619 -0.2226
    1DIPC   PO4 9206   1.509   0.882   6.699  0.3054  0.1586  0.3524
    1DIPC   GL1 9207   1.536   0.743   6.236  0.1457 -0.4002  0.2583
    1DIPC   GL2 9208   1.653   0.467   6.197  0.0513 -0.2345 -0.0500
    1DIPC   C1A 9209   1.342   0.727   5.848  0.0623 -0.3994  0.2295
    1DIPC   D2A 9210   1.420   0.446   5.506  0.2908  0.1175  0.1548
    1DIPC   D3A 9211   1.417   0.433   5.025  0.0949 -0.0497 -0.1242
    1DIPC   C4A 9212   1.086   0.274   4.813  0.1581  0.3949  0.0749
    1DIPC   C1B 9213   2.043   0.778   6.111  0.2717 -0.0860  0.2164
    1DIPC   D2B 9214   2.322   0.939   5.705  0.2537  0.0732  0.1794
    1DIPC   D3B 9215   1.894   0.761   5.537  0.1072  0.4439 -0.3453
    1DIPC   C4B 9216   1.917   0.974   5.053  0.0021 -0.0962  0.0377
    1DIPC   NC3 9217  20.783  12.118   5.977 -0.0936  0.3086 -0.3345
    1DIPC   PO4 9218  21.068  12.373   5.864  0.1469  0.0429  0.1320
    1DIPC   GL1 9219  21.310  12.494   5.601  0.1672  0.0316 -0.0938
    1DIPC   GL2 9220  21.230  12.746   5.399 -0.2375  0.3632  0.0818
    1DIPC   C1A 9221  21.356  12.310   5.134  0.2633  0.0722  0.0781
    1DIPC   D2A 9222  21.610  12.082   4.836  0.2565  0.1955  0.0462
    1DIPC   D3A 9223  21.386  11.999   4.335 -0.1821 -0.0010  0.0801
    1DIPC   C4A 9224  21.138  11.701   4.033 -0.1122 -0.2480 -0.2453
    1DIPC   C1B 9225  20.995  12.623   4.939  0.0058  0.1054 -0.0135
    1DIPC   D2B 9226  21.302  12.448   4.679  0.0415  0.0688  0.1286
    1DIPC   D3B 9227  21.383  12.791   4.533 -0.0337  0.1546 -0.1837
    1DIPC   C4B 9228  21.419  12.851   4.048  0.2015  0.1290  0.1419
    1DIPC   NC3 9229  24.741   9.246   6.143 -0.1041  0.1676  0.2041
    1DIPC   PO4 9230  25.212   9.314   6.108 -0.0761  0.2546 -0.1765
    1DIPC   GL1 9231  25.252   8.975   5.859  0.0061  0.0973 -0.2235
    1DIPC   GL2 9232  24.986   8.843   5.757  0.0217  0.1206 -0.1115
    1DIPC   C1A 9233  25.503   8.777   5.551  0.1099  0.0858  0.0675
    1DIPC   D2A 9234  25.384   8.501   5.334 -0.0630 -0.0546  0.0094
    1DIPC   D3A 9235  24.889   8.435   5.246 -0.0055 -0.1728 -0.1605
    1DIPC   C4A 9236  24.664   8.747   5.173  0.0048 -0.1613 -0.0184
    1DIPC   C1B 9237  24.458   8.833   5.568  0.1063 -0.1616 -0.1297
    1DIPC   D2B 9238  24.101   9.082   5.408  0.1722 -0.0005  0.0392
    1DIPC   D3B 9239  24.463   9.317   5.676 -0.3756  0.1773  0.3256
    1DIPC   C4B 9240  24.641   9.630   5.328 -0.3166 -0.1413  0.1735
    1DIPC   NC3 9241  20.213   1.875   7.020 -0.4954  0.0837 -0.2422
    1DIPC   PO4 9242  19.972   2.236   6.815 -0.0813  0.2089 -0.2242
    1DIPC   GL1 9243  20.017   2.287   6.341 -0.0714  0.1125  0.1636
    1DIPC   GL2 9244  19.821   2.626   6.271  0.0997 -0.0703 -0.2530
    1DIPC   C1A 9245  19.852   1.931   5.980 -0.0690 -0.1290  0.3568
    1DIPC   D2A 9246  19.957   2.032   5.610 -0.0733  0.2024 -0.1286
    1DIPC   D3A 9247  19.782   2.472   5.522 -0.1020 -0.2032 -0.2679
    1DIPC   C4A 9248  19.791   2.827   5.814  0.1538  0.1911 -0.0285
    1DIPC   C1B 9249  19.615   2.394   6.052 -0.1032  0.0727 -0.2206
    1DIPC   D2B 9250  19.305   2.113   5.887  0.1453  0.0348  0.2554
    1DIPC   D3B 9251  19.229   2.101   5.428  0.1505 -0.1347 -0.3127
    1DIPC   C4B 9252  19.633   2.136   5.149 -0.3667 -0.2626  0.0723
    1DIPC   NC3 9253   2.116  28.493   6.031  0.2769  0.0396  0.0134
    1DIPC   PO4 9254   1.932  28.048   6.228  0.1568 -0.2469  0.0056
    1DIPC   GL1 9255   2.251  28.036   5.788 -0.1048  0.0138  0.2178
    1DIPC   GL2 9256   2.109  28.198   5.520  0.0418 -0.0339 -0.0316
    1DIPC   C1A 9257   2.565  27.985   5.316  0.1164 -0.2335 -0.1726
    1DIPC   D2A 9258   2.787  27.778   5.035 -0.2925 -0.0498 -0.2201
    1DIPC   D3A 9259   3.206  27.821   5.133  0.1262 -0.3859 -0.3029
    1DIPC   C4A 9260   3.592  28.001   4.917  0.0617  0.2016  0.1289
    1DIPC   C1B 9261   2.217  28.265   5.023 -0.2202 -0.2698 -0.2016
    1DIPC   D2B 9262   2.038  28.303   4.604  0.0425 -0.0746  0.0913
    1DIPC   D3B 9263   2.023  28.632   4.370 -0.1132 -0.2994  0.2054
    1DIPC   C4B 9264   2.356  28.781   4.109 -0.1265 -0.0451  0.1269
    1DIPC   NC3 9265  26.471   6.711   6.906 -0.0929 -0.1579  0.1670
    1DIPC   PO4 9266  26.378   6.199   6.659  0.1142 -0.1088  0.0844
    1DIPC   GL1 9267  26.420   5.912   6.360 -0.0977  0.0064  0.3340
    1DIPC   GL2 9268  26.836   5.914   6.268  0.0591 -0.3109 -0.1451
    1DIPC   C1A 9269  26.252   5.726   6.000 -0.0661  0.2005  0.0522
    1DIPC   D2A 9270  26.245   5.746   5.620  0.1471 -0.0704  0.2668
    1DIPC   D3A 9271  26.266   5.852   5.274 -0.2418  0.3398 -0.2662
    1DIPC   C4A 9272  25.893   5.977   5.050 -0.1450 -0.0422  0.0752
    1DIPC   C1B 9273  26.535   6.198   5.960  0.1389  0.2060  0.0140
    1DIPC   D2B 9274  26.194   6.520   6.095 -0.2507  0.0712 -0.1856
    1DIPC   D3B 9275  25.905   6.550   5.847 -0.0722  0.0967  0.3036
    1DIPC   C4B 9276  25.997   6.568   5.427  0.0462  0.0570  0.3555
    1DIPC   NC3 9277   5.946   3.378   6.965  0.1125  0.0863  0.5093
    1DIPC   PO4 9278   6.115   3.186   7.286  0.0162  0.0787 -0.0004
    1DIPC   GL1 9279   6.304   3.040   6.870 -0.1947  0.1398  0.0126
    1DIPC   GL2 9280   6.278   2.673   6.805  0.1564 -0.0773 -0.1149
    1DIPC   C1A 9281   6.409   3.062   6.448  0.3685  0.1399  0.2483
    1DIPC   D2A 9282   6.163   3.242   6.043 -0.0205  0.0214  0.0735
    1DIPC   D3A 9283   6.268   2.819   5.961 -0.1072 -0.0309 -0.0829
    1DIPC   C4A 9284   6.183   2.526   6.303  0.1695 -0.3161 -0.1824
    1DIPC   C1B 9285   5.922   2.813   6.664 -0.2289 -0.1459  0.1353
    1DIPC   D2B 9286   5.856   3.068   6.400  0.0815  0.1530  0.3734
    1DIPC   D3B 9287   5.355   3.057   6.239 -0.0696  0.0801 -0.0109
    1DIPC   C4B 9288   5.286   3.450   5.862  0.1978  0.1219 -0.1972
    1DIPC   NC3 9289   4.432  28.568   6.104 -0.0382 -0.1106 -0.1123
    1DIPC   PO4 9290   4.237  28.175   6.136  0.2234  0.1759  0.1883
    1DIPC   GL1 9291   4.263  28.180   5.697 -0.1267  0.0313 -0.0162
    1DIPC   GL2 9292   3.977  28.159   5.576  0.0692  0.1985 -0.0184
    1DIPC   C1A 9293   4.428  28.299   5.289  0.0495  0.0607 -0.3151
    1DIPC   D2A 9294   4.665  28.340   4.803  0.1217 -0.1885 -0.0968
    1DIPC   D3A 9295   4.338  28.508   4.421 -0.1993  0.1178 -0.1472
    1DIPC   C4A 9296   4.231  28.987   4.387  0.1711 -0.0660 -0.1678
    1DIPC   C1B 9297   3.546  28.107   5.423 -0.1255 -0.0157  0.0299
    1DIPC   D2B 9298   3.224  28.327   5.137  0.2020  0.0751 -0.1584
    1DIPC   D3B 9299   2.977  28.198   4.770 -0.0195 -0.0275 -0.2101
    1DIPC   C4B 9300   3.037  28.099   4.379 -0.0901  0.0195 -0.1856
    1DIPC   NC3 9301  17.459  20.439   6.473 -0.0342  0.0702 -0.0624
    1DIPC   PO4 9302  17.298  20.620   6.185 -0.1380  0.1791 -0.0261
    1DIPC   GL1 9303  17.518  20.651   5.795  0.5168 -0.1363 -0.0036
    1DIPC   GL2 9304  17.858  20.884   5.714 -0.0510 -0.0694  0.4359
    1DIPC   C1A 9305  17.323  20.645   5.346 -0.1434 -0.0993  0.4401
    1DIPC   D2A 9306  17.269  20.185   5.143  0.0034  0.0515  0.1640
    1DIPC   D3A 9307  17.418  19.929   4.748 -0.0611 -0.0315  0.0162
    1DIPC   C4A 9308  17.712  19.634   4.916 -0.2394 -0.2127 -0.0049
    1DIPC   C1B 9309  18.211  20.704   5.703  0.2925 -0.1388 -0.0385
    1DIPC   D2B 9310  18.620  20.571   5.455  0.0674  0.3199 -0.4171
    1DIPC   D3B 9311  18.881  20.424   5.076 -0.1633  0.0724 -0.0594
    1DIPC   C4B 9312  18.966  20.653   4.736  0.0050 -0.0934 -0.1013
    1DIPC   NC3 9313  19.517   2.179   6.670 -0.1894 -0.0185 -0.1039
    1DIPC   PO4 9314  19.852   1.734   6.684 -0.0229  0.1979 -0.1971
    1DIPC   GL1 9315  20.227   1.911   6.536  0.0514 -0.1128  0.1744
    1DIPC   GL2 9316  20.454   2.131   6.615  0.0829 -0.1889 -0.0626
    1DIPC   C1A 9317  20.383   2.031   6.123  0.1774  0.1704 -0.2147
    1DIPC   D2A 9318  20.462   1.994   5.662 -0.1720  0.0816 -0.1496
    1DIPC   D3A 9319  20.719   2.324   5.750 -0.0710  0.2756  0.0744
    1DIPC   C4A 9320  20.973   2.236   5.393 -0.0074 -0.1395 -0.0756
    1DIPC   C1B 9321  20.774   2.308   6.334  0.2924  0.2897 -0.0116
    1DIPC   D2B 9322  21.230   2.168   6.286  0.0650  0.0932 -0.3664
    1DIPC   D3B 9323  21.192   2.568   6.066  0.0846  0.1566 -0.0548
    1DIPC   C4B 9324  21.274   2.685   5.654 -0.1081 -0.2494  0.0104
    1DIPC   NC3 9325  24.263  11.287   6.003  0.0296  0.1448  0.2582
    1DIPC   PO4 9326  23.907  11.353   5.838  0.1727 -0.1397 -0.1483
    1DIPC   GL1 9327  23.864  11.317   5.380 -0.3067  0.1325 -0.4390
    1DIPC   GL2 9328  24.204  11.278   4.960  0.4421  0.1875 -0.0460
    1DIPC   C1A 9329  23.705  11.065   5.186  0.0906  0.2107 -0.2997
    1DIPC   D2A 9330  23.659  11.090   4.775 -0.0281  0.2678 -0.0055
    1DIPC   D3A 9331  23.161  10.967   4.833 -0.2657  0.0990 -0.2033
    1DIPC   C4A 9332  22.949  10.558   4.929  0.1248 -0.4329 -0.1802
    1DIPC   C1B 9333  24.046  10.781   4.848  0.0382 -0.1534 -0.1546
    1DIPC   D2B 9334  23.989  10.335   4.834  0.0304  0.0366 -0.1963
    1DIPC   D3B 9335  23.846  10.404   4.451 -0.2523  0.0980 -0.2040
    1DIPC   C4B 9336  23.895  10.000   4.342 -0.5071 -0.0318  0.4197
    1DIPC   NC3 9337  13.055  14.344   6.745 -0.1434  0.0297  0.0536
    1DIPC   PO4 9338  13.485  14.187   6.760  0.3913 -0.2682 -0.0380
    1DIPC   GL1 9339  13.724  14.105   6.485 -0.0201  0.1920 -0.2201
    1DIPC   GL2 9340  13.700  14.246   6.277 -0.0241  0.0796  0.0379
    1DIPC   C1A 9341  13.834  13.754   6.131 -0.1109  0.0178  0.0255
    1DIPC   D2A 9342  13.611  13.449   5.936 -0.2107  0.1446 -0.1402
    1DIPC   D3A 9343  13.627  13.555   5.449 -0.1916  0.0156  0.0357
    1DIPC   C4A 9344  13.575  13.248   5.085  0.0304  0.0454 -0.2874
    1DIPC   C1B 9345  13.617  14.165   5.911 -0.3331  0.1435  0.1275
    1DIPC   D2B 9346  13.483  14.164   5.448 -0.2675  0.2242  0.2886
    1DIPC   D3B 9347  13.728  13.855   5.040  0.1845 -0.2196  0.2362
    1DIPC   C4B 9348  13.951  13.972   4.566 -0.1600 -0.0489 -0.3366
    1DIPC   NC3 9349  28.923   0.182   6.887 -0.1513 -0.2790 -0.0334
    1DIPC   PO4 9350  29.244  -0.183   7.008  0.0965  0.0311 -0.2452
    1DIPC   GL1 9351  29.314  -0.069   6.617 -0.2014 -0.0394  0.2271
    1DIPC   GL2 9352  29.575  -0.401   6.511  0.0058 -0.2646  0.0581
    1DIPC   C1A 9353  29.287   0.093   6.200  0.0716 -0.5261 -0.1577
    1DIPC   D2A 9354  28.908   0.049   5.892  0.0191  0.1455 -0.0068
    1DIPC   D3A 9355  29.215   0.193   5.615  0.2300 -0.1034 -0.0666
    1DIPC   C4A 9356  29.571  -0.037   5.427  0.0680 -0.0664 -0.1925
    1DIPC   C1B 9357  29.264  -0.391   6.248  0.1848  0.0025  0.0339
    1DIPC   D2B 9358  29.361  -0.328   5.768 -0.0164 -0.1276  0.0123
    1DIPC   D3B 9359  28.996  -0.503   5.833  0.0135 -0.0106  0.0101
    1DIPC   C4B 9360  28.709  -0.325   6.137 -0.1980  0.1690 -0.1563
    1DIPC   NC3 9361  14.534  18.885   6.847  0.0277  0.1764  0.0167
    1DIPC   PO4 9362  14.812  18.524   6.676  0.1101 -0.2628  0.2144
    1DIPC   GL1 9363  14.912  18.457   6.311 -0.1511 -0.1580  0.1192
    1DIPC   GL2 9364  15.067  18.209   6.194 -0.0612  0.1286 -0.1414
    1DIPC   C1A 9365  14.818  18.503   5.872  0.2701 -0.4812  0.1453
    1DIPC   D2A 9366  14.743  18.310   5.433 -0.0679 -0.0825  0.0318
    1DIPC   D3A 9367  14.703  18.701   5.397 -0.0946 -0.2314  0.0690
    1DIPC   C4A 9368  15.085  18.821   5.118  0.1434  0.2974 -0.0009
    1DIPC   C1B 9369  14.777  18.010   5.940  0.0828 -0.0168  0.0551
    1DIPC   D2B 9370  14.635  17.820   5.452 -0.2488 -0.2718  0.1127
    1DIPC   D3B 9371  14.603  17.427   5.168 -0.0913 -0.0721 -0.4268
    1DIPC   C4B 9372  14.871  17.305   4.850 -0.0492 -0.0755  0.0195
    1DIPC   NC3 9373  11.090   7.828   7.080 -0.4513  0.1740  0.1216
    1DIPC   PO4 9374  11.199   7.687   6.710  0.1960  0.1203 -0.1893
    1DIPC   GL1 9375  11.355   7.808   6.287  0.2275 -0.2514 -0.1968
    1DIPC   GL2 9376  11.366   8.148   6.193  0.1622 -0.1131 -0.0962
    1DIPC   C1A 9377  11.240   7.844   5.801 -0.1231  0.1252  0.0039
    1DIPC   D2A 9378  11.172   7.825   5.384 -0.2638  0.0958 -0.0533
    1DIPC   D3A 9379  10.876   7.797   5.142  0.1703 -0.1239 -0.0723
    1DIPC   C4A 9380  10.643   8.104   4.912  0.4213  0.3081 -0.1255
    1DIPC   C1B 9381  11.492   8.601   5.968  0.0053 -0.0279 -0.1784
    1DIPC   D2B 9382  11.490   8.838   5.646 -0.3035  0.0456 -0.0345
    1DIPC   D3B 9383  11.567   9.048   5.276  0.1295 -0.1594  0.1396
    1DIPC   C4B 9384  11.469   8.754   4.979  0.0147 -0.1205  0.0294
    1DIPC   NC3 9385   2.525  29.743   6.631 -0.0361  0.1598  0.1878
    1DIPC   PO4 9386   2.754  29.472   6.310 -0.1742 -0.4302  0.3194
    1DIPC   GL1 9387   2.591  29.709   6.016  0.0128 -0.1433  0.1354
    1DIPC   GL2 9388   2.348  29.469   6.033 -0.0464 -0.0213 -0.2465
    1DIPC   C1A 9389   2.820  29.705   5.648  0.0482 -0.0717  0.2553
    1DIPC   D2A 9390   2.883  30.128   5.441  0.0301  0.0549  0.3177
    1DIPC   D3A 9391   3.190  30.348   5.205  0.3052  0.4194 -0.0451
    1DIPC   C4A 9392   2.976  30.198   4.827 -0.2311  0.2734 -0.0771
    1DIPC   C1B 9393   2.255  29.686   5.611 -0.0595 -0.0041  0.1327
    1DIPC   D2B 9394   2.276  29.809   5.173 -0.0091  0.1879 -0.1353
    1DIPC   D3B 9395   2.036  29.617   4.781  0.5092  0.0353 -0.1150
    1DIPC   C4B 9396   1.598  29.321   4.868  0.2475  0.0267 -0.0084
    1DIPC   NC3 9397   5.370   6.929   7.156  0.1063  0.3340 -0.2060
    1DIPC   PO4 9398   5.109   7.213   6.872 -0.2277 -0.4226  0.1513
    1DIPC   GL1 9399   5.374   7.502   6.577 -0.1626  0.0458 -0.1490
    1DIPC   GL2 9400   5.710   7.658   6.575  0.0191  0.0909 -0.0614
    1DIPC   C1A 9401   5.415   7.689   6.151 -0.0285  0.0895  0.0470
    1DIPC   D2A 9402   5.741   7.897   6.037 -0.0199  0.0584 -0.1255
    1DIPC   D3A 9403   5.888   7.874   5.566  0.0857  0.1091  0.0482
    1DIPC   C4A 9404   5.524   7.924   5.387  0.1125 -0.1941  0.0542
    1DIPC   C1B 9405   5.811   7.359   6.338 -0.2182  0.2617 -0.1605
    1DIPC   D2B 9406   5.792   7.376   5.955 -0.0702  0.0031 -0.0212
    1DIPC   D3B 9407   5.380   7.500   5.720  0.1030  0.0379  0.1011
    1DIPC   C4B 9408   5.371   7.489   5.143  0.1169 -0.3741  0.2529
    1DIPC   NC3 9409   5.632   4.985   6.872 -0.0695 -0.4017 -0.0696
    1DIPC   PO4 9410   5.971   5.367   6.836 -0.1706  0.0380 -0.2282
    1DIPC   GL1 9411   5.928   5.129   6.494 -0.0677  0.0568  0.1683
    1DIPC   GL2 9412   5.714   5.114   6.312  0.2332  0.4212 -0.3022
    1DIPC   C1A 9413   6.165   4.827   6.174  0.1538  0.0246  0.1770
    1DIPC   D2A 9414   6.093   4.707   5.744 -0.1551 -0.0964  0.1882
    1DIPC   D3A 9415   6.475   4.843   5.795  0.0080 -0.0281 -0.1088
    1DIPC   C4A 9416   6.611   4.616   6.166  0.0145  0.1995  0.3874
    1DIPC   C1B 9417   5.695   4.949   5.913 -0.0535 -0.1551  0.1313
    1DIPC   D2B 9418   5.754   5.133   5.514 -0.0068 -0.1014 -0.2324
    1DIPC   D3B 9419   5.520   4.736   5.387  0.0880  0.0156 -0.1076
    1DIPC   C4B 9420   5.635   4.599   4.906 -0.1176  0.1920  0.1560
    1DIPC   NC3 9421  26.593  14.194   6.289 -0.0673  0.3661 -0.1436
    1DIPC   PO4 9422  26.744  13.884   5.968 -0.1537 -0.0160 -0.0705
    1DIPC   GL1 9423  26.688  13.743   5.580  0.0338  0.0269  0.0191
    1DIPC   GL2 9424  26.801  13.342   5.553  0.1763 -0.1400 -0.1130
    1DIPC   C1A 9425  26.660  13.640   5.116 -0.0175 -0.3044 -0.3122
    1DIPC   D2A 9426  26.741  13.465   4.859  0.0132 -0.1568  0.0998
    1DIPC   D3A 9427  27.181  13.397   4.859  0.3286 -0.0500 -0.0172
    1DIPC   C4A 9428  27.568  13.453   5.030 -0.0626 -0.0424  0.1851
    1DIPC   C1B 9429  27.058  13.115   5.293  0.1409 -0.2307  0.1305
    1DIPC   D2B 9430  27.122  12.654   4.958  0.0293  0.0966 -0.0075
    1DIPC   D3B 9431  27.240  12.360   4.866 -0.0782 -0.0207 -0.1029
    1DIPC   C4B 9432  27.556  12.336   5.120  0.1118 -0.1752  0.1127
    1DIPC   NC3 9433   7.166   6.728   7.116 -0.0825  0.2156 -0.0483
    1DIPC   PO4 9434   7.432   6.996   7.129 -0.2557  0.1473 -0.1510
    1DIPC   GL1 9435   7.443   7.013   6.712 -0.0647  0.0578  0.1167
    1DIPC   GL2 9436   7.440   6.651   6.644 -0.3231  0.0033  0.1675
    1DIPC   C1A 9437   7.642   7.251   6.339 -0.0589 -0.2201 -0.0104
    1DIPC   D2A 9438   7.675   7.665   6.366 -0.2544  0.1980 -0.1178
    1DIPC   D3A 9439   7.357   7.552   6.707 -0.1687  0.1367  0.0307
    1DIPC   C4A 9440   7.024   7.733   6.484 -0.1300 -0.2648  0.0900
    1DIPC   C1B 9441   7.382   6.841   6.245  0.4480  0.1149 -0.0313
    1DIPC   D2B 9442   7.231   6.965   5.766  0.2489  0.0138 -0.1768
    1DIPC   D3B 9443   7.517   7.021   5.661 -0.1820 -0.0506  0.0118
    1DIPC   C4B 9444   7.901   6.795   5.382 -0.0303  0.2404  0.0495
    1DIPC   NC3 9445  15.668  20.163   6.570  0.1227 -0.1532 -0.3283
    1DIPC   PO4 9446  15.857  19.744   6.354 -0.0298  0.3534  0.0064
    1DIPC   GL1 9447  16.077  19.755   5.991 -0.1752  0.0873  0.2377
    1DIPC   GL2 9448  16.073  19.436   5.987 -0.1558 -0.1606  0.0904
    1DIPC   C1A 9449  15.985  19.851   5.511  0.1365 -0.1050  0.1617
    1DIPC   D2A 9450  15.815  20.049   5.215  0.2686 -0.0759 -0.5020
    1DIPC   D3A 9451  15.679  19.711   4.898  0.2417 -0.2119  0.2049
    1DIPC   C4A 9452  15.241  19.601   4.822 -0.1501 -0.2154  0.0819
    1DIPC   C1B 9453  16.286  19.397   5.638  0.1063 -0.3069 -0.0263
    1DIPC   D2B 9454  16.553  19.561   5.351 -0.0622  0.1148 -0.3554
    1DIPC   D3B 9455  16.286  19.737   4.950  0.1535 -0.0004  0.0466
    1DIPC   C4B 9456  16.090  20.121   4.645 -0.0829  0.0360 -0.2612
    1DIPC   NC3 9457   5.080   8.312   6.874 -0.1182  0.1302 -0.0718
    1DIPC   PO4 9458   5.234   8.643   6.687  0.0404  0.0997  0.3896
    1DIPC   GL1 9459   5.045   8.646   6.218 -0.0306 -0.1228  0.0432
    1DIPC   GL2 9460   5.176   9.018   6.113  0.0514  0.1828  0.0535
    1DIPC   C1A 9461   4.871   8.634   5.780 -0.0548 -0.3776 -0.0717
    1DIPC   D2A 9462   4.821   8.429   5.363 -0.1454  0.0806  0.2058
    1DIPC   D3A 9463   5.102   8.112   5.256  0.1394  0.0448 -0.2293
    1DIPC   C4A 9464   4.896   7.863   5.164 -0.0812  0.1496  0.0961
    1DIPC   C1B 9465   5.355   8.625   5.865 -0.0579 -0.3033 -0.0904
    1DIPC   D2B 9466   5.434   8.450   5.443  0.1790  0.2360 -0.0647
    1DIPC   D3B 9467   5.312   8.151   5.764  0.0352  0.2409  0.0207
    1DIPC   C4B 9468   5.384   8.218   6.170  0.0537 -0.1484 -0.0289
    1DIPC   NC3 9469  10.315  29.046   7.362 -0.0489 -0.2756 -0.0948
    1DIPC   PO4 9470  10.539  28.584   7.299  0.3584 -0.0990  0.2438
    1DIPC   GL1 9471  10.668  28.457   6.844 -0.3020  0.1226 -0.2153
    1DIPC   GL2 9472  10.889  28.514   6.805  0.1253 -0.2019 -0.0078
    1DIPC   C1A 9473  10.652  28.261   6.375 -0.1429  0.0687 -0.3468
    1DIPC   D2A 9474  10.836  28.249   5.928  0.1949 -0.1655 -0.1531
    1DIPC   D3A 9475  10.389  28.002   5.793  0.0855  0.0697  0.1783
    1DIPC   C4A 9476  10.129  28.206   5.602  0.0542 -0.0452  0.0825
    1DIPC   C1B 9477  11.000  28.860   6.539  0.0218  0.3293 -0.0613
    1DIPC   D2B 9478  11.413  29.041   6.578  0.1906 -0.1486  0.0868
    1DIPC   D3B 9479  11.524  28.970   6.081 -0.0168 -0.2358 -0.1506
    1DIPC   C4B 9480  11.373  29.350   5.732 -0.2428 -0.1330 -0.0777
    1DIPC   NC3 9481  11.334  15.099   7.077  0.0239  0.1042 -0.1274
    1DIPC   PO4 9482  10.936  15.228   6.915 -0.0990  0.1181  0.0184
    1DIPC   GL1 9483  10.748  15.189   6.520 -0.3148 -0.0469 -0.2939
    1DIPC   GL2 9484  10.980  15.438   6.371  0.0032 -0.2241 -0.1105
    1DIPC   C1A 9485  10.587  14.958   6.211 -0.0842 -0.2772  0.0583
    1DIPC   D2A 9486  10.701  14.836   5.794  0.2396 -0.0866 -0.3177
    1DIPC   D3A 9487  10.677  14.471   5.541 -0.1473  0.0274 -0.1237
    1DIPC   C4A 9488  10.615  14.527   5.096 -0.2440 -0.1843 -0.0073
    1DIPC   C1B 9489  10.877  15.311   5.899  0.2385  0.1137 -0.2029
    1DIPC   D2B 9490  10.883  15.491   5.459 -0.3960  0.1590  0.1083
    1DIPC   D3B 9491  11.158  15.736   5.461 -0.1980  0.2916 -0.0206
    1DIPC   C4B 9492  11.527  15.764   5.246 -0.2012  0.0439  0.1866
    1DIPC   NC3 9493   7.697  29.310   7.361  0.1394 -0.1321 -0.0955
    1DIPC   PO4 9494   8.002  29.704   7.259 -0.1951 -0.1899  0.1405
    1DIPC   GL1 9495   8.056  29.846   6.760 -0.1629 -0.0233  0.0145
    1DIPC   GL2 9496   7.940  30.223   6.650 -0.1757  0.0581  0.0854
    1DIPC   C1A 9497   8.339  29.903   6.519  0.3312 -0.0199 -0.0409
    1DIPC   D2A 9498   8.560  29.722   6.122 -0.2349 -0.1100 -0.1045
    1DIPC   D3A 9499   8.512  29.913   5.782 -0.2038 -0.1522 -0.1436
    1DIPC   C4A 9500   8.645  29.922   5.467  0.0769  0.2877 -0.2773
    1DIPC   C1B 9501   7.991  30.098   6.181 -0.0573  0.1096 -0.2322
    1DIPC   D2B 9502   7.762  29.949   5.717  0.2153 -0.3426 -0.0412
    1DIPC   D3B 9503   8.140  29.839   5.466 -0.0602  0.0160 -0.2671
    1DIPC   C4B 9504   8.234  29.774   4.952  0.1680 -0.0335 -0.0040
    1DIPC   NC3 9505   4.824   9.358   6.838 -0.1035 -0.1643  0.0793
    1DIPC   PO4 9506   4.539   9.442   6.394 -0.1120 -0.1801  0.3189
    1DIPC   GL1 9507   4.764   9.338   6.050 -0.1766 -0.2406  0.0943
    1DIPC   GL2 9508   4.672   9.054   5.976 -0.0688 -0.0555 -0.1391
    1DIPC   C1A 9509   5.062   9.253   5.671  0.0200 -0.3456 -0.0328
    1DIPC   D2A 9510   5.449   9.236   5.321  0.1437 -0.1671  0.1122
    1DIPC   D3A 9511   5.693   8.904   5.177  0.2585 -0.0110 -0.0654
    1DIPC   C4A 9512   5.900   8.733   5.457 -0.1292 -0.1449  0.2132
    1DIPC   C1B 9513   4.571   8.965   5.592 -0.0246 -0.0779 -0.0217
    1DIPC   D2B 9514   4.583   8.975   5.153  0.2743  0.1402  0.1217
    1DIPC   D3B 9515   4.893   8.786   5.055 -0.0153  0.0883 -0.0880
    1DIPC   C4B 9516   5.091   8.855   5.340  0.2433 -0.0389 -0.0094
    1DIPC   NC3 9517  16.163   6.380   7.678 -0.0436  0.0295 -0.1926
    1DIPC   PO4 9518  16.255   6.211   7.244 -0.1671 -0.3487 -0.2983
    1DIPC   GL1 9519  16.329   6.187   6.675 -0.2370  0.0624 -0.1495
    1DIPC   GL2 9520  16.480   5.979   6.666  0.0409  0.1042  0.2529
    1DIPC   C1A 9521  16.413   6.315   6.233 -0.0902 -0.0326 -0.0216
    1DIPC   D2A 9522  16.690   6.563   5.996 -0.2362  0.1972  0.0631
    1DIPC   D3A 9523  16.617   6.286   5.636  0.0859 -0.2500  0.1107
    1DIPC   C4A 9524  16.487   5.881   5.774 -0.1067 -0.1284  0.3723
    1DIPC   C1B 9525  16.326   5.743   6.253  0.0193 -0.1976  0.2205
    1DIPC   D2B 9526  16.122   5.362   6.173  0.0519 -0.2450 -0.2008
    1DIPC   D3B 9527  15.808   5.562   6.373 -0.1300 -0.0571  0.0487
    1DIPC   C4B 9528  15.411   5.700   6.234  0.0985 -0.0926 -0.1316
    1DIPC   NC3 9529  12.331  21.176   6.735  0.1237 -0.1345  0.3752
    1DIPC   PO4 9530  12.227  21.097   6.265 -0.1328  0.0118 -0.1649
    1DIPC   GL1 9531  12.076  21.245   5.822  0.2216 -0.1369 -0.0538
    1DIPC   GL2 9532  11.736  21.272   5.835  0.0341 -0.1684  0.0782
    1DIPC   C1A 9533  12.171  21.041   5.379 -0.1025  0.2313  0.1312
    1DIPC   D2A 9534  12.278  21.227   4.890  0.2016  0.4183  0.0752
    1DIPC   D3A 9535  12.485  21.615   4.696  0.0046 -0.0895  0.1058
    1DIPC   C4A 9536  12.885  21.640   4.534  0.2552 -0.0966 -0.0120
    1DIPC   C1B 9537  11.687  21.080   5.437 -0.1085 -0.4719 -0.1377
    1DIPC   D2B 9538  11.815  20.976   4.907  0.1326  0.1046 -0.0992
    1DIPC   D3B 9539  11.840  20.458   4.739 -0.1285 -0.0542  0.1160
    1DIPC   C4B 9540  11.690  20.204   5.124 -0.0761 -0.0819  0.2339
    1DIPC   NC3 9541  13.140  22.972   6.394  0.0467  0.0778  0.2259
    1DIPC   PO4 9542  13.439  23.232   6.170  0.0874 -0.2403  0.0659
    1DIPC   GL1 9543  13.472  23.195   5.753 -0.4638 -0.1438  0.1733
    1DIPC   GL2 9544  13.185  23.480   5.582  0.1798  0.2512 -0.0600
    1DIPC   C1A 9545  13.490  23.108   5.342  0.0429 -0.1970  0.1535
    1DIPC   D2A 9546  13.473  23.228   4.848  0.0906 -0.1827 -0.2438
    1DIPC   D3A 9547  13.677  23.587   4.793  0.1219  0.1272 -0.0569
    1DIPC   C4A 9548  14.064  23.784   4.708 -0.1007  0.2468 -0.0495
    1DIPC   C1B 9549  12.872  23.620   5.278 -0.0790  0.3107 -0.0663
    1DIPC   D2B 9550  12.694  23.559   4.897 -0.0289  0.2476 -0.1274
    1DIPC   D3B 9551  12.785  23.945   4.585 -0.0721 -0.0208  0.1615
    1DIPC   C4B 9552  12.862  23.859   4.075  0.4954  0.1553 -0.0434
    1DIPC   NC3 9553   9.795  16.579   6.511 -0.1670  0.0697  0.1763
    1DIPC   PO4 9554  10.179  16.603   6.701  0.1513  0.0872 -0.1002
    1DIPC   GL1 9555  10.512  16.691   6.449 -0.0478 -0.3621 -0.2592
    1DIPC   GL2 9556  10.728  16.969   6.417  0.0673  0.2063 -0.3288
    1DIPC   C1A 9557  10.525  16.455   5.994 -0.0837  0.1518  0.1778
    1DIPC   D2A 9558  10.442  16.401   5.482 -0.1199  0.1372  0.1199
    1DIPC   D3A 9559  10.728  16.085   5.396  0.2108 -0.0607 -0.0349
    1DIPC   C4A 9560  10.779  15.857   5.760  0.0038  0.1277 -0.0348
    1DIPC   C1B 9561  10.814  16.899   6.028  0.0850  0.0835 -0.3661
    1DIPC   D2B 9562  10.710  16.897   5.648 -0.0436  0.2846 -0.2566
    1DIPC   D3B 9563  10.459  16.932   5.321 -0.0845 -0.0542 -0.1419
    1DIPC   C4B 9564  10.376  16.656   5.016 -0.0924  0.2814 -0.0641
    1DIPC   NC3 9565   0.686  23.496   6.939  0.0666  0.3270  0.1138
    1DIPC   PO4 9566   0.921  23.750   6.998  0.0167 -0.2051  0.4637
    1DIPC   GL1 9567   0.899  23.763   6.531  0.0731  0.0225  0.3585
    1DIPC   GL2 9568   0.871  23.413   6.410 -0.1867  0.0583  0.0538
    1DIPC   C1A 9569   1.099  23.725   6.054 -0.0100  0.2738 -0.1866
    1DIPC   D2A 9570   1.064  23.607   5.642 -0.0230 -0.1603 -0.2296
    1DIPC   D3A 9571   0.871  23.893   5.334  0.2503  0.0142 -0.6261
    1DIPC   C4A 9572   0.736  23.652   4.945 -0.1621  0.0296 -0.0654
    1DIPC   C1B 9573   0.983  23.263   6.082 -0.1911  0.3790  0.1725
    1DIPC   D2B 9574   1.199  22.991   5.840 -0.2440  0.0740  0.0512
    1DIPC   D3B 9575   1.008  22.684   6.177 -0.1386 -0.1218 -0.0687
    1DIPC   C4B 9576   0.642  22.413   6.044 -0.1333  0.1037  0.1876
    1DIPC   NC3 9577  24.039  10.909   5.688 -0.1515  0.2207 -0.0203
    1DIPC   PO4 9578  23.711  10.579   5.812 -0.2360  0.0410 -0.3500
    1DIPC   GL1 9579  23.509  10.282   5.559  0.1024  0.2391 -0.0535
    1DIPC   GL2 9580  23.695  10.496   5.335  0.0960 -0.1736  0.0982
    1DIPC   C1A 9581  23.583  10.124   5.042 -0.2871  0.1604  0.0342
    1DIPC   D2A 9582  23.474  10.046   4.611 -0.1622 -0.0569 -0.0269
    1DIPC   D3A 9583  23.519   9.645   4.269  0.0815  0.0589 -0.0665
    1DIPC   C4A 9584  23.765   9.366   4.475  0.3298  0.0877 -0.0571
    1DIPC   C1B 9585  23.586  10.579   4.869  0.0562  0.1047 -0.1285
    1DIPC   D2B 9586  23.321  10.551   4.625  0.1046 -0.1582  0.1475
    1DIPC   D3B 9587  23.499  10.802   4.432  0.0434 -0.1825 -0.0901
    1DIPC   C4B 9588  23.484  10.759   3.944 -0.2284  0.0712  0.0802
    1DIPC   NC3 9589  23.780   2.062   7.031 -0.0580 -0.2440 -0.1890
    1DIPC   PO4 9590  23.708   1.607   6.929  0.1730 -0.0180  0.0200
    1DIPC   GL1 9591  23.658   1.579   6.465  0.0161  0.0363 -0.0019
    1DIPC   GL2 9592  23.301   1.326   6.456  0.0129  0.2232 -0.2470
    1DIPC   C1A 9593  23.461   1.724   6.162  0.2124 -0.0291 -0.0633
    1DIPC   D2A 9594  23.266   1.751   5.844  0.0477  0.1319  0.0658
    1DIPC   D3A 9595  23.079   1.828   5.418 -0.2440 -0.2126 -0.0298
    1DIPC   C4A 9596  23.302   1.488   5.131  0.1129 -0.0671  0.2356
    1DIPC   C1B 9597  23.135   1.179   6.086 -0.0980  0.1451 -0.1320
    1DIPC   D2B 9598  22.937   0.894   5.799  0.0316 -0.1722 -0.0696
    1DIPC   D3B 9599  22.915   1.064   5.312 -0.0649 -0.0358 -0.0082
    1DIPC   C4B 9600  23.304   0.995   5.125  0.3935 -0.0021  0.1715
    1DIPC   NC3 9601   6.435   1.941   7.045 -0.1466 -0.2108 -0.2344
    1DIPC   PO4 9602   6.140   1.588   6.897 -0.1435  0.0863  0.0373
    1DIPC   GL1 9603   6.098   1.585   6.459  0.1190  0.0832  0.1913
    1DIPC   GL2 9604   6.072   1.216   6.418  0.2297 -0.0001 -0.2494
    1DIPC   C1A 9605   6.389   1.562   6.105  0.1214  0.1477  0.1024
    1DIPC   D2A 9606   6.390   1.740   5.702 -0.2784 -0.1763  0.3247
    1DIPC   D3A 9607   6.615   1.531   5.400  0.0527  0.0341 -0.0849
    1DIPC   C4A 9608   6.604   1.114   5.279  0.2377  0.0957 -0.3772
    1DIPC   C1B 9609   5.956   1.360   6.005 -0.1058  0.2229  0.1194
    1DIPC   D2B 9610   5.605   1.436   5.657 -0.1441  0.1125 -0.3180
    1DIPC   D3B 9611   5.499   1.361   5.357 -0.0167  0.3515 -0.1321
    1DIPC   C4B 9612   5.102   1.329   5.209  0.4725 -0.0238 -0.0865
    1DIPC   NC3 9613  17.347  13.990   5.671 -0.0282  0.1046  0.1085
    1DIPC   PO4 9614  17.008  14.293   5.691  0.0906 -0.1653 -0.0247
    1DIPC   GL1 9615  16.650  14.068   5.439 -0.0046  0.2635 -0.4076
    1DIPC   GL2 9616  16.516  13.682   5.461  0.2268  0.1140 -0.0651
    1DIPC   C1A 9617  16.277  13.920   5.106 -0.2088  0.2498 -0.1426
    1DIPC   D2A 9618  16.242  13.687   4.661  0.2919 -0.0209  0.0454
    1DIPC   D3A 9619  16.512  13.662   4.206  0.1214 -0.0124  0.1362
    1DIPC   C4A 9620  16.795  13.740   3.853 -0.1228 -0.0182 -0.0574
    1DIPC   C1B 9621  16.677  13.610   5.031 -0.0589  0.0415 -0.3879
    1DIPC   D2B 9622  16.936  13.462   4.911 -0.0180 -0.0647  0.2625
    1DIPC   D3B 9623  17.032  13.734   4.669 -0.0615  0.2152  0.1268
    1DIPC   C4B 9624  17.186  14.064   4.890 -0.0721  0.0429 -0.1248
    1DIPC   NC3 9625  14.468  17.811   6.927 -0.0211  0.1316 -0.1565
    1DIPC   PO4 9626  14.915  18.100   6.898  0.0042 -0.1738 -0.1635
    1DIPC   GL1 9627  14.663  18.014   6.506  0.0536 -0.0404 -0.0265
    1DIPC   GL2 9628  14.871  17.702   6.336 -0.1477  0.0556  0.0164
    1DIPC   C1A 9629  14.461  18.241   6.177  0.1934  0.0195 -0.2979
    1DIPC   D2A 9630  14.381  18.132   5.732 -0.1174 -0.0264  0.1446
    1DIPC   D3A 9631  14.161  18.320   5.347 -0.1373 -0.2378  0.0675
    1DIPC   C4A 9632  13.781  18.319   5.015  0.3611  0.3486 -0.5026
    1DIPC   C1B 9633  15.141  17.479   6.077 -0.0383 -0.0092  0.0365
    1DIPC   D2B 9634  15.206  17.099   6.043 -0.0221 -0.0471  0.0728
    1DIPC   D3B 9635  15.320  16.989   5.563  0.0742 -0.0549  0.0390
    1DIPC   C4B 9636  15.446  17.087   5.245 -0.2347 -0.2647  0.0057
    1DIPC   NC3 9637  10.424  22.589   6.474  0.1343 -0.0417  0.2158
    1DIPC   PO4 9638  10.761  22.949   6.537  0.0305 -0.0962  0.0696
    1DIPC   GL1 9639  10.817  22.886   6.149  0.0170 -0.2667  0.0085
    1DIPC   GL2 9640  10.630  22.693   5.998  0.1448 -0.1406  0.1497
    1DIPC   C1A 9641  10.974  22.856   5.686 -0.1588  0.0982  0.0187
    1DIPC   D2A 9642  10.839  22.626   5.204 -0.1640 -0.0062 -0.2426
    1DIPC   D3A 9643  10.965  22.225   5.361  0.0452 -0.1024 -0.0310
    1DIPC   C4A 9644  11.238  22.196   5.046 -0.2086  0.2960 -0.0762
    1DIPC   C1B 9645  10.438  22.487   5.635  0.1664  0.3202 -0.1038
    1DIPC   D2B 9646  10.520  22.288   5.247 -0.1965 -0.1744 -0.1370
    1DIPC   D3B 9647  10.361  22.629   5.003  0.0747 -0.4190  0.2146
    1DIPC   C4B 9648  10.099  22.532   4.630  0.1435 -0.1120 -0.2123
    1DIPC   NC3 9649  16.354  17.644   6.511 -0.2652  0.1602  0.1217
    1DIPC   PO4 9650  16.581  17.332   6.753  0.2484  0.0188 -0.0207
    1DIPC   GL1 9651  16.592  17.237   6.368 -0.1484  0.1148  0.3982
    1DIPC   GL2 9652  16.608  17.037   6.112  0.1139 -0.1012 -0.0616
    1DIPC   C1A 9653  16.698  17.476   5.946  0.0467 -0.2873 -0.0587
    1DIPC   D2A 9654  16.775  17.463   5.498  0.1333 -0.0191 -0.2752
    1DIPC   D3A 9655  16.318  17.489   5.460  0.1522  0.0885  0.1878
    1DIPC   C4A 9656  15.977  17.698   5.614 -0.0418 -0.3126 -0.2074
    1DIPC   C1B 9657  16.631  17.032   5.626 -0.0142  0.3194 -0.3018
    1DIPC   D2B 9658  16.662  16.926   5.188  0.3026 -0.0558  0.2004
    1DIPC   D3B 9659  16.294  17.266   5.065 -0.4087  0.3005  0.1754
    1DIPC   C4B 9660  15.910  17.259   5.315 -0.0576  0.3927  0.0262
    1DIPC   NC3 9661  28.969   5.311   6.791  0.1237  0.1711  0.2097
    1DIPC   PO4 9662  29.119   5.530   6.538 -0.2320  0.2406  0.3768
    1DIPC   GL1 9663  29.197   5.380   6.108 -0.1531 -0.1399  0.2234
    1DIPC   GL2 9664  29.120   5.092   6.232  0.1346 -0.0848 -0.1989
    1DIPC   C1A 9665  29.124   5.270   5.748 -0.3020  0.3355 -0.2276
    1DIPC   D2A 9666  29.209   5.269   5.209  0.1163 -0.3230  0.0739
    1DIPC   D3A 9667  28.909   5.436   5.240 -0.1466  0.0715 -0.2078
    1DIPC   C4A 9668  28.658   5.244   4.940 -0.0385 -0.1500 -0.0407
    1DIPC   C1B 9669  29.330   4.838   5.903  0.0987  0.1845 -0.1513
    1DIPC   D2B 9670  29.599   4.923   5.570 -0.0372 -0.1025  0.0594
    1DIPC   D3B 9671  29.819   4.992   5.226 -0.2310  0.2310 -0.2619
    1DIPC   C4B 9672  29.649   5.033   4.809  0.0654  0.0382 -0.1166
    1DIPC   NC3 9673   6.045  28.288   6.271  0.0926 -0.1530  0.0632
    1DIPC   PO4 9674   5.813  28.216   5.951  0.1393  0.1758  0.1306
    1DIPC   GL1 9675   5.784  27.891   5.706 -0.0068  0.2114  0.3688
    1DIPC   GL2 9676   5.464  28.022   5.586 -0.0660 -0.1217  0.0194
    1DIPC   C1A 9677   5.522  27.537   5.529  0.2089 -0.0083 -0.0026
    1DIPC   D2A 9678   5.301  27.253   5.668 -0.0613  0.2223 -0.0592
    1DIPC   D3A 9679   5.608  27.068   5.296  0.2644 -0.1500 -0.1037
    1DIPC   C4A 9680   5.576  26.514   5.265  0.2952  0.1915  0.0518
    1DIPC   C1B 9681   5.620  27.877   5.111 -0.0108 -0.0367  0.0587
    1DIPC   D2B 9682   5.705  27.965   4.691 -0.4390  0.3122 -0.5593
    1DIPC   D3B 9683   5.911  27.545   4.712 -0.2143 -0.0602  0.0525
    1DIPC   C4B 9684   5.857  27.062   4.486  0.2147  0.2452 -0.0308
    1DIPC   NC3 9685   0.527  29.324   7.000 -0.1422 -0.1324  0.0478
    1DIPC   PO4 9686   0.210  29.625   6.938  0.0162  0.0600 -0.0034
    1DIPC   GL1 9687   0.178  29.698   6.503  0.1331 -0.0222 -0.1137
    1DIPC   GL2 9688   0.350  29.426   6.337  0.3536  0.1446  0.0638
    1DIPC   C1A 9689  -0.001  29.715   6.152  0.2861  0.0284 -0.0307
    1DIPC   D2A 9690  -0.094  30.003   5.852 -0.1214 -0.1558 -0.0043
    1DIPC   D3A 9691   0.150  30.128   5.454  0.1231  0.1803 -0.2684
    1DIPC   C4A 9692   0.321  30.551   5.599 -0.1089  0.0061  0.2818
    1DIPC   C1B 9693   0.543  29.557   5.963 -0.3273  0.1945 -0.0509
    1DIPC   D2B 9694   0.586  29.880   5.604 -0.3004 -0.1149 -0.2259
    1DIPC   D3B 9695   0.394  30.142   5.851 -0.1680 -0.2083  0.0120
    1DIPC   C4B 9696   0.322  30.113   6.296  0.0636 -0.1616  0.1585
    1DIPC   NC3 9697  20.961  20.290   5.917  0.0206  0.1394  0.2458
    1DIPC   PO4 9698  20.767  20.747   5.828  0.1458  0.1463 -0.0320
    1DIPC   GL1 9699  20.699  20.432   5.510  0.0898  0.0423  0.0617
    1DIPC   GL2 9700  20.849  20.484   5.310  0.0760  0.0427 -0.0184
    1DIPC   C1A 9701  20.710  20.010   5.337  0.2610 -0.0480  0.2392
    1DIPC   D2A 9702  20.719  19.659   5.067  0.1957 -0.0384  0.0719
    1DIPC   D3A 9703  20.950  20.013   4.947  0.0096 -0.0693 -0.2697
    1DIPC   C4A 9704  21.021  20.130   4.598  0.0420 -0.1618  0.0074
    1DIPC   C1B 9705  20.758  20.462   4.901  0.0678 -0.0160 -0.3993
    1DIPC   D2B 9706  20.657  20.863   4.700 -0.2441  0.0759 -0.1379
    1DIPC   D3B 9707  21.091  20.621   4.603  0.0161  0.3046 -0.3135
    1DIPC   C4B 9708  21.238  20.392   5.049 -0.1404  0.1292 -0.5001
    1DIPC   NC3 9709  12.672   6.745   6.946  0.0275 -0.1241 -0.0783
    1DIPC   PO4 9710  12.510   6.387   6.644  0.0185  0.0492  0.0094
    1DIPC   GL1 9711  12.395   6.324   6.294  0.0437  0.1730  0.1021
    1DIPC   GL2 9712  12.324   6.719   6.281 -0.2199 -0.1220  0.1492
    1DIPC   C1A 9713  12.418   6.287   5.872 -0.0877 -0.3327 -0.1502
    1DIPC   D2A 9714  12.423   6.200   5.399 -0.2939  0.0511  0.0470
    1DIPC   D3A 9715  12.676   5.880   5.140 -0.2228 -0.0030 -0.2122
    1DIPC   C4A 9716  13.165   5.904   4.940  0.1210 -0.0296 -0.1662
    1DIPC   C1B 9717  12.355   6.838   5.815 -0.2216 -0.0548 -0.2390
    1DIPC   D2B 9718  12.224   6.798   5.363  0.2018 -0.3266  0.1250
    1DIPC   D3B 9719  12.711   6.552   5.529  0.3475 -0.1935  0.3938
    1DIPC   C4B 9720  12.949   6.252   5.797 -0.3919 -0.4444 -0.0945
    1DIPC   NC3 9721  19.634  13.207   6.233 -0.1043 -0.0355  0.0006
    1DIPC   PO4 9722  19.580  12.933   5.858 -0.1637 -0.2939  0.1846
    1DIPC   GL1 9723  19.604  12.960   5.342 -0.0612  0.0171 -0.0717
    1DIPC   GL2 9724  19.567  13.320   5.254  0.3546 -0.2304  0.1570
    1DIPC   C1A 9725  19.502  12.749   4.940 -0.1709  0.1392 -0.0577
    1DIPC   D2A 9726  19.576  12.389   4.625  0.3646 -0.1884  0.0365
    1DIPC   D3A 9727  19.380  12.220   4.979 -0.0921 -0.0258  0.3183
    1DIPC   C4A 9728  19.447  12.427   5.339 -0.1570 -0.0330 -0.2484
    1DIPC   C1B 9729  19.484  13.266   4.894  0.0062 -0.0230 -0.1333
    1DIPC   D2B 9730  19.308  13.294   4.559 -0.2502  0.1328  0.0601
    1DIPC   D3B 9731  19.107  13.644   4.399  0.2332  0.0796  0.1936
    1DIPC   C4B 9732  18.974  13.811   4.114 -0.2119  0.1019 -0.1592
    1DIPC   NC3 9733  12.235  16.440   7.160  0.1545  0.0959 -0.0475
    1DIPC   PO4 9734  12.115  16.187   6.864  0.2407  0.0581  0.0827
    1DIPC   GL1 9735  12.133  16.160   6.351 -0.1332 -0.2292 -0.0014
    1DIPC   GL2 9736  12.490  16.204   6.226 -0.0295  0.0657 -0.1608
    1DIPC   C1A 9737  11.765  16.138   6.128  0.0589 -0.0001  0.2744
    1DIPC   D2A 9738  11.568  15.784   5.794 -0.2282 -0.0976 -0.2239
    1DIPC   D3A 9739  11.401  16.153   5.603 -0.1028  0.2167  0.0697
    1DIPC   C4A 9740  11.183  16.097   5.121 -0.0983 -0.2085  0.2410
    1DIPC   C1B 9741  12.173  16.138   5.864 -0.1525  0.0091 -0.3340
    1DIPC   D2B 9742  11.997  16.290   5.617 -0.0733 -0.1336 -0.0676
    1DIPC   D3B 9743  11.776  16.278   5.175 -0.0883  0.1361 -0.1023
    1DIPC   C4B 9744  11.895  15.959   4.979 -0.2578  0.2607  0.0843
    1DIPC   NC3 9745  24.811  25.236   6.877 -0.2261  0.0240 -0.1218
    1DIPC   PO4 9746  24.721  24.901   6.805 -0.0323  0.1046 -0.0467
    1DIPC   GL1 9747  24.818  24.929   6.308  0.1396  0.0491 -0.0019
    1DIPC   GL2 9748  25.057  24.878   6.218 -0.0652 -0.0548  0.1984
    1DIPC   C1A 9749  24.676  24.661   5.959  0.3116  0.0627  0.3549
    1DIPC   D2A 9750  24.278  24.406   5.845  0.1388  0.1308 -0.1516
    1DIPC   D3A 9751  24.555  24.032   5.763 -0.0374 -0.2689 -0.0050
    1DIPC   C4A 9752  24.564  23.810   5.384 -0.0434 -0.0949  0.2653
    1DIPC   C1B 9753  24.946  25.053   5.805  0.3639 -0.0614 -0.0906
    1DIPC   D2B 9754  24.560  24.999   5.467  0.0081 -0.1523 -0.4258
    1DIPC   D3B 9755  24.540  24.950   5.027 -0.1295  0.1466  0.1939
    1DIPC   C4B 9756  24.829  24.572   4.889 -0.0922 -0.1666 -0.0892
    1DIPC   NC3 9757  27.616   7.230   6.676 -0.0282 -0.1080  0.1922
    1DIPC   PO4 9758  27.259   7.048   6.559 -0.3263  0.0936 -0.0629
    1DIPC   GL1 9759  27.025   6.994   6.205 -0.2514  0.1337 -0.1359
    1DIPC   GL2 9760  27.368   6.832   5.953  0.0859  0.1450  0.1300
    1DIPC   C1A 9761  26.724   6.756   5.979 -0.0813 -0.0615 -0.2098
    1DIPC   D2A 9762  26.486   6.660   5.583  0.2275 -0.0212 -0.1430
    1DIPC   D3A 9763  26.419   6.230   5.488 -0.1249  0.0649  0.1020
    1DIPC   C4A 9764  25.948   6.125   5.601 -0.0619 -0.0473  0.0478
    1DIPC   C1B 9765  27.073   7.021   5.705  0.1585 -0.0595  0.0042
    1DIPC   D2B 9766  26.848   7.064   5.220 -0.3060  0.2934  0.1655
    1DIPC   D3B 9767  26.924   7.456   5.356 -0.3675  0.0672 -0.2814
    1DIPC   C4B 9768  26.931   7.486   5.746 -0.0308 -0.0138 -0.2992
    1DIPC   NC3 9769   9.583  20.786   6.748 -0.0854 -0.1466 -0.1183
    1DIPC   PO4 9770   9.636  20.510   6.393  0.0854  0.1834 -0.2761
    1DIPC   GL1 9771   9.614  20.401   6.001 -0.0369 -0.0019  0.2114
    1DIPC   GL2 9772   9.903  20.170   6.042 -0.1777 -0.1159  0.1563
    1DIPC   C1A 9773   9.569  20.251   5.528 -0.1873 -0.2405  0.2319
    1DIPC   D2A 9774   9.372  20.485   5.241 -0.0527 -0.3877 -0.2202
    1DIPC   D3A 9775   9.254  20.366   4.828  0.0202 -0.2128  0.2664
    1DIPC   C4A 9776   9.516  20.366   4.402 -0.2610  0.1803  0.0453
    1DIPC   C1B 9777  10.050  20.392   5.602 -0.1456 -0.2527 -0.2667
    1DIPC   D2B 9778  10.300  20.437   5.252  0.1685 -0.2537  0.0356
    1DIPC   D3B 9779  10.268  20.197   4.933  0.1310  0.0713  0.3500
    1DIPC   C4B 9780  10.069  20.327   4.446  0.1142  0.2200  0.2038
    1DIPC   NC3 9781   2.209   3.904   6.690  0.4042 -0.0583  0.2404
    1DIPC   PO4 9782   2.033   4.339   6.746  0.0190 -0.1003 -0.1936
    1DIPC   GL1 9783   2.152   4.266   6.351  0.0034  0.1524 -0.1724
    1DIPC   GL2 9784   1.872   4.471   6.217 -0.2179  0.1048 -0.1634
    1DIPC   C1A 9785   2.189   4.273   5.892  0.0041  0.1215  0.1331
    1DIPC   D2A 9786   2.477   3.929   5.694 -0.0640  0.3771 -0.0282
    1DIPC   D3A 9787   2.081   3.611   5.868 -0.3562  0.2117 -0.0233
    1DIPC   C4A 9788   1.968   3.240   5.537  0.0882  0.0989 -0.1778
    1DIPC   C1B 9789   1.742   4.499   5.846 -0.1410 -0.0472  0.0602
    1DIPC   D2B 9790   1.578   4.463   5.477  0.0346 -0.2690  0.1192
    1DIPC   D3B 9791   1.618   4.147   5.163  0.0761  0.2818  0.0728
    1DIPC   C4B 9792   1.749   4.161   4.751  0.0668  0.0925  0.1500
    1DIPC   NC3 9793  15.558   6.574   7.451  0.0908 -0.2232 -0.3360
    1DIPC   PO4 9794  15.598   6.765   7.071  0.0580 -0.1041 -0.1118
    1DIPC   GL1 9795  15.544   6.653   6.622 -0.4111  0.1032 -0.0510
    1DIPC   GL2 9796  15.891   6.719   6.488 -0.0332  0.2814  0.1339
    1DIPC   C1A 9797  15.405   6.794   6.119 -0.3945 -0.2412 -0.1935
    1DIPC   D2A 9798  15.377   6.776   5.633 -0.3960  0.0086  0.1526
    1DIPC   D3A 9799  15.383   6.541   5.261  0.1006  0.0108 -0.0974
    1DIPC   C4A 9800  15.093   6.505   4.963 -0.1136 -0.2837  0.3070
    1DIPC   C1B 9801  15.932   6.692   6.103 -0.0618  0.3404  0.0582
    1DIPC   D2B 9802  16.245   6.774   5.708  0.1446 -0.1107 -0.0094
    1DIPC   D3B 9803  16.514   6.743   5.406 -0.0211 -0.0279 -0.0596
    1DIPC   C4B 9804  16.788   6.950   5.559  0.0895  0.0003  0.4212
    1DIPC   NC3 9805  18.228  10.689   6.580  0.0660  0.2351  0.0345
    1DIPC   PO4 9806  18.356  10.992   6.291 -0.0948  0.1912  0.0587
    1DIPC   GL1 9807  18.033  10.777   6.101  0.2719 -0.0412  0.0104
    1DIPC   GL2 9808  17.751  10.886   6.000 -0.1496  0.2050 -0.0364
    1DIPC   C1A 9809  18.153  10.502   5.756  0.1515 -0.0796 -0.0119
    1DIPC   D2A 9810  18.396  10.558   5.376 -0.0764  0.1160 -0.2819
    1DIPC   D3A 9811  18.371  10.547   4.978 -0.1142  0.0281  0.0125
    1DIPC   C4A 9812  18.021  10.267   4.818 -0.1759  0.0665  0.0795
    1DIPC   C1B 9813  17.886  10.993   5.616  0.0650  0.1747  0.1668
    1DIPC   D2B 9814  18.180  10.967   5.249  0.1008  0.0143  0.2993
    1DIPC   D3B 9815  17.906  10.793   4.897 -0.1831  0.2843  0.0151
    1DIPC   C4B 9816  17.599  10.987   4.601 -0.0971  0.0849  0.3274
    1DIPC   NC3 9817  16.472   0.979   7.418  0.0325  0.1338  0.0564
    1DIPC   PO4 9818  16.551   1.453   7.258  0.0196  0.0450  0.3199
    1DIPC   GL1 9819  16.474   1.445   6.775  0.3212 -0.0530 -0.2252
    1DIPC   GL2 9820  16.772   1.329   6.513  0.1777  0.1067 -0.0023
    1DIPC   C1A 9821  16.303   1.455   6.407  0.0876 -0.1137 -0.3232
    1DIPC   D2A 9822  16.101   1.664   6.137 -0.3004 -0.1766 -0.1990
    1DIPC   D3A 9823  16.159   1.665   5.655  0.2154  0.1696 -0.1830
    1DIPC   C4A 9824  16.024   1.406   5.322 -0.2887  0.0169  0.0134
    1DIPC   C1B 9825  16.773   1.486   6.056  0.1377 -0.0113  0.3526
    1DIPC   D2B 9826  16.610   1.697   5.819  0.1462  0.0680 -0.2205
    1DIPC   D3B 9827  16.676   1.767   5.422 -0.0017  0.0565 -0.2302
    1DIPC   C4B 9828  16.308   1.819   5.112  0.2742  0.1982 -0.2184
    1DIPC   NC3 9829  11.081   9.611   7.047 -0.0065  0.2993 -0.0842
    1DIPC   PO4 9830  10.651   9.613   6.759 -0.0356  0.0797 -0.2624
    1DIPC   GL1 9831  10.488   9.652   6.322  0.1382 -0.2391 -0.1582
    1DIPC   GL2 9832  10.343   9.359   6.258  0.3776  0.1875  0.1605
    1DIPC   C1A 9833  10.759   9.508   6.000 -0.1344 -0.0431  0.2616
    1DIPC   D2A 9834  10.865   9.691   5.571 -0.0997  0.0324  0.2532
    1DIPC   D3A 9835  11.155   9.525   5.265  0.0039  0.3187 -0.4766
    1DIPC   C4A 9836  11.477   9.647   4.902 -0.1123  0.1604  0.6126
    1DIPC   C1B 9837  10.547   9.061   6.090 -0.0502 -0.3739 -0.0454
    1DIPC   D2B 9838  10.430   8.699   5.851  0.2232 -0.2323 -0.2401
    1DIPC   D3B 9839   9.984   8.589   5.972 -0.0584 -0.5094 -0.1985
    1DIPC   C4B 9840   9.911   8.145   6.085 -0.1659 -0.2209 -0.1925
    1DIPC   NC3 9841   4.979  24.984   6.631 -0.0255  0.1204 -0.3782
    1DIPC   PO4 9842   5.035  24.510   6.539  0.0780  0.0091 -0.3140
    1DIPC   GL1 9843   4.776  24.618   6.321  0.1193 -0.1267  0.1050
    1DIPC   GL2 9844   4.972  24.700   6.078 -0.1393  0.0234 -0.0398
    1DIPC   C1A 9845   4.598  24.292   6.054 -0.1248 -0.0233  0.3752
    1DIPC   D2A 9846   4.378  23.905   5.719  0.0623  0.1684  0.0112
    1DIPC   D3A 9847   4.488  23.781   5.312  0.1492 -0.0454  0.1697
    1DIPC   C4A 9848   4.563  24.077   4.972 -0.2799  0.1854  0.4167
    1DIPC   C1B 9849   4.919  24.520   5.696  0.1405  0.0930 -0.2356
    1DIPC   D2B 9850   4.884  24.631   5.305 -0.0665  0.1654  0.0031
    1DIPC   D3B 9851   4.758  24.995   5.068  0.1109  0.0974 -0.0203
    1DIPC   C4B 9852   4.434  25.172   4.896  0.1890  0.1557  0.3437
    1DIPC   NC3 9853   4.402   0.275   6.592 -0.1294  0.0678 -0.0906
    1DIPC   PO4 9854   4.828   0.295   6.521 -0.2607  0.1881 -0.0208
    1DIPC   GL1 9855   4.840   0.408   6.144  0.1744  0.0328 -0.1579
    1DIPC   GL2 9856   4.555   0.169   6.058  0.1372  0.0240 -0.1611
    1DIPC   C1A 9857   4.696   0.570   5.798 -0.0589  0.1078  0.1736
    1DIPC   D2A 9858   4.459   0.994   5.591  0.2985  0.2506  0.0577
    1DIPC   D3A 9859   4.807   0.933   5.206  0.0164 -0.0105 -0.2747
    1DIPC   C4A 9860   4.707   0.982   4.835 -0.0730 -0.0297  0.0002
    1DIPC   C1B 9861   4.535   0.076   5.531  0.1315  0.0460 -0.1910
    1DIPC   D2B 9862   4.515   0.124   5.182 -0.0598  0.0714  0.1154
    1DIPC   D3B 9863   4.790   0.458   5.215  0.1843  0.0902 -0.0883
    1DIPC   C4B 9864   5.204   0.510   5.070 -0.0046  0.2514  0.2291
    1DIPC   NC3 9865  25.006   3.979   6.986  0.0765 -0.1760  0.0809
    1DIPC   PO4 9866  25.415   3.821   6.888 -0.1522 -0.1006  0.4244
    1DIPC   GL1 9867  25.620   3.584   6.617  0.1308 -0.1259  0.3311
    1DIPC   GL2 9868  25.373   3.212   6.504 -0.0037  0.1280 -0.1437
    1DIPC   C1A 9869  25.676   3.481   6.189  0.0404 -0.1855  0.3733
    1DIPC   D2A 9870  25.848   3.450   5.818 -0.1192 -0.1184 -0.3461
    1DIPC   D3A 9871  25.934   3.052   5.686 -0.2851 -0.1075 -0.1123
    1DIPC   C4A 9872  26.165   3.237   5.374  0.0784 -0.0805 -0.0172
    1DIPC   C1B 9873  24.945   3.245   6.560 -0.4296  0.2569 -0.2146
    1DIPC   D2B 9874  24.480   3.138   6.539  0.3575 -0.3160  0.3941
    1DIPC   D3B 9875  24.347   3.314   6.949  0.1273 -0.0515  0.1207
    1DIPC   C4B 9876  23.966   3.378   6.983 -0.1375 -0.2129 -0.1449
    1DIPC   NC3 9877  12.652  28.102   6.556  0.0995 -0.0059  0.1437
    1DIPC   PO4 9878  13.022  28.294   6.660 -0.0048  0.0860 -0.2912
    1DIPC   GL1 9879  12.925  28.463   6.296 -0.1304  0.3443 -0.0113
    1DIPC   GL2 9880  12.612  28.307   6.031  0.0022 -0.2510 -0.1203
    1DIPC   C1A 9881  12.710  28.785   6.213 -0.3161  0.2422 -0.2355
    1DIPC   D2A 9882  12.989  29.002   5.858  0.2895 -0.1490  0.0793
    1DIPC   D3A 9883  12.835  29.180   5.481  0.4195 -0.0299  0.1804
    1DIPC   C4A 9884  13.156  29.259   5.240 -0.0305  0.2995  0.1330
    1DIPC   C1B 9885  12.599  28.633   5.758  0.1745  0.1533 -0.1140
    1DIPC   D2B 9886  12.299  28.865   5.488  0.1240  0.3598 -0.3773
    1DIPC   D3B 9887  12.769  28.851   5.133 -0.1508  0.3050 -0.0575
    1DIPC   C4B 9888  12.914  28.466   5.104 -0.1141 -0.1077 -0.1567
    1DIPC   NC3 9889  13.510   7.579   6.161 -0.0359  0.0301 -0.1757
    1DIPC   PO4 9890  13.283   8.005   6.033  0.1851 -0.1371  0.3716
    1DIPC   GL1 9891  13.226   7.764   5.749 -0.1728 -0.2572 -0.1209
    1DIPC   GL2 9892  13.231   7.451   5.667 -0.0799  0.0524 -0.1079
    1DIPC   C1A 9893  12.975   7.777   5.357 -0.2924  0.2977  0.2188
    1DIPC   D2A 9894  12.716   7.885   5.065 -0.2717  0.2162  0.0753
    1DIPC   D3A 9895  12.678   7.452   4.951  0.0126  0.0462 -0.0649
    1DIPC   C4A 9896  12.304   7.229   4.912 -0.1584  0.0376 -0.0123
    1DIPC   C1B 9897  13.505   7.199   5.477 -0.0651 -0.2530  0.1021
    1DIPC   D2B 9898  13.640   6.934   5.118  0.1941 -0.1250 -0.0280
    1DIPC   D3B 9899  13.913   7.235   4.983 -0.3004  0.0549 -0.1264
    1DIPC   C4B 9900  14.003   7.678   5.152 -0.1261 -0.0691 -0.0183
    1DIPC   NC3 9901  27.936  12.764   7.083 -0.0549  0.1624  0.0046
    1DIPC   PO4 9902  28.023  12.456   6.758  0.2171 -0.0830 -0.1390
    1DIPC   GL1 9903  28.033  12.437   6.289  0.4191 -0.1187 -0.1722
    1DIPC   GL2 9904  27.720  12.363   6.304 -0.0343  0.1793 -0.0187
    1DIPC   C1A 9905  28.101  12.285   5.892  0.0506  0.0554  0.0923
    1DIPC   D2A 9906  28.357  12.031   5.593  0.2750  0.0996 -0.1486
    1DIPC   D3A 9907  28.132  12.224   5.180 -0.0842  0.2975  0.1689
    1DIPC   C4A 9908  28.024  11.906   4.841 -0.0083  0.1894 -0.2520
    1DIPC   C1B 9909  27.715  12.614   5.946 -0.0241 -0.1815  0.0355
    1DIPC   D2B 9910  27.603  12.780   5.528  0.1157 -0.1617 -0.1274
    1DIPC   D3B 9911  27.470  13.232   5.511 -0.0559  0.0803  0.0525
    1DIPC   C4B 9912  27.236  13.596   5.330 -0.0449 -0.0052  0.1769
    1DIPC   NC3 9913  24.688   7.417   6.532  0.0115 -0.0093 -0.1597
    1DIPC   PO4 9914  24.900   7.048   6.628 -0.2294 -0.1339 -0.2804
    1DIPC   GL1 9915  24.910   7.015   6.219  0.2230  0.0107 -0.1059
    1DIPC   GL2 9916  25.021   7.372   6.121 -0.0030  0.0334 -0.0853
    1DIPC   C1A 9917  24.926   7.062   5.747  0.1707 -0.3835  0.3341
    1DIPC   D2A 9918  24.950   7.053   5.348 -0.1065  0.4411 -0.1892
    1DIPC   D3A 9919  24.776   7.491   5.190 -0.4360  0.0590  0.0083
    1DIPC   C4A 9920  24.587   7.746   4.825  0.3183  0.0994  0.1728
    1DIPC   C1B 9921  24.927   7.565   5.690  0.3069 -0.1185  0.0245
    1DIPC   D2B 9922  24.717   7.923   5.403  0.0538  0.0767 -0.1995
    1DIPC   D3B 9923  24.332   7.796   5.328  0.3115  0.4903  0.0614
    1DIPC   C4B 9924  24.108   7.830   4.941 -0.1612  0.5590 -0.3481
    1DIPC   NC3 9925  24.272   5.307   7.745  0.1926 -0.0425  0.1604
    1DIPC   PO4 9926  24.433   5.057   7.405  0.1640 -0.0961  0.4152
    1DIPC   GL1 9927  24.194   5.093   6.988  0.5320 -0.2253 -0.1532
    1DIPC   GL2 9928  24.354   5.101   6.672 -0.0145  0.0563 -0.0529
    1DIPC   C1A 9929  24.006   4.748   6.726  0.2156 -0.3554  0.2186
    1DIPC   D2A 9930  24.269   4.481   6.512 -0.0486 -0.2488 -0.0782
    1DIPC   D3A 9931  24.716   4.730   6.346 -0.4396  0.1290  0.1479
    1DIPC   C4A 9932  25.025   4.499   6.068 -0.0384 -0.2959 -0.0978
    1DIPC   C1B 9933  24.092   4.997   6.315  0.0869  0.1566  0.2295
    1DIPC   D2B 9934  24.137   4.692   6.077 -0.1296 -0.0562 -0.1004
    1DIPC   D3B 9935  24.092   4.699   5.679 -0.0010 -0.0138 -0.1496
    1DIPC   C4B 9936  24.287   5.055   5.421 -0.0093 -0.1239  0.0788
    1DIPC   NC3 9937  13.799  25.505   6.940 -0.4365  0.1334 -0.1122
    1DIPC   PO4 9938  13.870  25.932   6.711  0.0016  0.1535  0.0956
    1DIPC   GL1 9939  13.830  25.765   6.254  0.0661 -0.0600  0.1626
    1DIPC   GL2 9940  13.824  25.995   6.017 -0.2313  0.2628  0.3097
    1DIPC   C1A 9941  14.152  25.563   5.971  0.4222  0.1088 -0.0143
    1DIPC   D2A 9942  14.386  25.821   5.669  0.1021 -0.2074  0.0511
    1DIPC   D3A 9943  14.144  25.641   5.413  0.2719 -0.2984 -0.3276
    1DIPC   C4A 9944  14.105  25.202   5.441 -0.0876  0.1175  0.2081
    1DIPC   C1B 9945  13.669  25.770   5.681  0.1641  0.0514 -0.0946
    1DIPC   D2B 9946  13.587  25.570   5.357  0.0431  0.2210 -0.0068
    1DIPC   D3B 9947  13.492  25.921   5.084  0.0301  0.0536 -0.0022
    1DIPC   C4B 9948  13.924  26.189   5.016  0.0122  0.0830 -0.1397
    1DIPC   NC3 9949   9.396   9.061   6.483 -0.0887 -0.0087  0.0718
    1DIPC   PO4 9950   9.115   9.350   6.764 -0.0069  0.5757 -0.0555
    1DIPC   GL1 9951   9.076   9.396   6.325 -0.1834 -0.0184  0.0556
    1DIPC   GL2 9952   9.009   9.713   6.340  0.1512 -0.0712 -0.2499
    1DIPC   C1A 9953   9.214   9.467   5.842  0.2264 -0.3171  0.0190
    1DIPC   D2A 9954   9.167   9.363   5.400  0.0187 -0.1965 -0.1240
    1DIPC   D3A 9955   9.537   9.183   5.468 -0.1189  0.1891 -0.0972
    1DIPC   C4A 9956   9.666   8.844   5.113 -0.0827  0.2647 -0.1137
    1DIPC   C1B 9957   8.935   9.985   6.036 -0.1643 -0.0280 -0.2857
    1DIPC   D2B 9958   9.059   9.875   5.528  0.2139 -0.1506 -0.0226
    1DIPC   D3B 9959   9.166  10.140   5.155 -0.1759 -0.1143  0.2849
    1DIPC   C4B 9960   9.527  10.250   5.058 -0.1925  0.4581 -0.0417
    1DIPC   NC3 9961  21.802  28.457   7.553  0.2194 -0.0362  0.3027
    1DIPC   PO4 9962  21.563  28.911   7.535 -0.1517 -0.5173 -0.0951
    1DIPC   GL1 9963  21.453  28.988   7.082 -0.0942 -0.3156  0.0424
    1DIPC   GL2 9964  21.357  28.766   6.888  0.2380  0.1494 -0.1992
    1DIPC   C1A 9965  21.236  29.161   6.584 -0.0573  0.2662  0.2139
    1DIPC   D2A 9966  21.061  29.220   6.151 -0.0332 -0.0280  0.2428
    1DIPC   D3A 9967  21.290  29.410   5.761 -0.0162  0.0273  0.0869
    1DIPC   C4A 9968  21.627  29.240   5.488  0.1385  0.1527  0.0160
    1DIPC   C1B 9969  21.327  28.513   6.489  0.2868 -0.4036 -0.4779
    1DIPC   D2B 9970  21.007  28.252   6.304 -0.1804  0.0263  0.1578
    1DIPC   D3B 9971  20.706  27.939   6.500  0.3070 -0.1263  0.1018
    1DIPC   C4B 9972  20.797  27.714   6.936 -0.1750 -0.1831 -0.1660
    1DIPC   NC3 9973  18.138  26.549   7.353  0.0029  0.3354 -0.2843
    1DIPC   PO4 9974  17.953  26.549   6.966  0.3228 -0.0184 -0.2161
    1DIPC   GL1 9975  17.995  26.675   6.583 -0.1573  0.0267  0.0016
    1DIPC   GL2 9976  18.238  26.811   6.519 -0.0138  0.1861 -0.1933
    1DIPC   C1A 9977  18.334  26.424   6.280 -0.0486  0.1433 -0.0649
    1DIPC   D2A 9978  18.473  26.580   5.865  0.1687 -0.1142 -0.1314
    1DIPC   D3A 9979  18.674  26.339   5.609 -0.0007 -0.3741 -0.0512
    1DIPC   C4A 9980  19.070  26.333   5.324 -0.3832 -0.0697  0.1156
    1DIPC   C1B 9981  18.382  26.981   6.159  0.0085 -0.0214 -0.0715
    1DIPC   D2B 9982  18.535  27.121   5.743 -0.0411  0.1881 -0.3224
    1DIPC   D3B 9983  18.846  26.862   5.556  0.4219 -0.1961 -0.0430
    1DIPC   C4B 9984  18.461  26.720   5.389  0.0762  0.3108  0.2823
    1DIPC   NC3 9985  16.793   6.046   7.250 -0.2349  0.0153  0.4118
    1DIPC   PO4 9986  16.766   6.429   6.977 -0.1658  0.1613  0.3211
    1DIPC   GL1 9987  17.109   6.434   6.541  0.2027  0.2447  0.0959
    1DIPC   GL2 9988  17.355   6.249   6.641  0.0314 -0.0591  0.0144
    1DIPC   C1A 9989  17.135   6.705   6.249 -0.3174 -0.0101  0.0290
    1DIPC   D2A 9990  17.158   6.763   5.868  0.0979 -0.2123 -0.0510
    1DIPC   D3A 9991  17.528   6.490   5.705  0.1043  0.1042 -0.1651
    1DIPC   C4A 9992  17.488   6.153   5.410  0.2021  0.0697 -0.1278
    1DIPC   C1B 9993  17.519   5.784   6.560 -0.2147 -0.4254  0.1389
    1DIPC   D2B 9994  17.731   5.557   6.187  0.1059 -0.1760 -0.3108
    1DIPC   D3B 9995  17.552   5.789   5.805  0.0001 -0.0391  0.1123
    1DIPC   C4B 9996  17.193   5.736   5.613  0.0476 -0.1471  0.1750
    1DIPC   NC3 9997   0.372   5.032   6.831 -0.0669 -0.0489 -0.1386
    1DIPC   PO4 9998  -0.049   4.898   6.700 -0.0932 -0.1843  0.2514
    1DIPC   GL1 9999  -0.106   4.970   6.303  0.0912 -0.1304  0.2761
    1DIPC   GL210000  -0.172   5.310   6.360  0.1958 -0.2837 -0.0525
    1DIPC   C1A10001   0.013   4.780   5.961 -0.2572 -0.2489  0.1193
    1DIPC   D2A10002   0.295   4.655   5.633 -0.1568 -0.1948 -0.1505
    1DIPC   D3A10003   0.247   4.196   5.574 -0.3127  0.2479 -0.2944
    1DIPC   C4A10004   0.623   3.872   5.432 -0.0471  0.0886 -0.5645
    1DIPC   C1B10005  -0.035   5.294   5.925  0.0292 -0.1756 -0.3890
    1DIPC   D2B10006   0.290   5.218   5.655 -0.0211 -0.0806  0.0146
    1DIPC   D3B10007   0.489   5.225   5.337  0.0475 -0.0125  0.0829
    1DIPC   C4B10008   0.579   5.678   5.211  0.1729  0.0606 -0.3475
    1DIPC   NC310009  11.158  22.713   6.414  0.0892  0.1011  0.1826
    1DIPC   PO410010  11.046  22.346   6.436  0.2654  0.0741  0.1505
    1DIPC   GL110011  11.177  22.221   5.956  0.3852 -0.2099 -0.3182
    1DIPC   GL210012  11.108  21.943   5.871 -0.0525  0.2304  0.1397
    1DIPC   C1A10013  11.298  22.461   5.590  0.1781 -0.1345  0.2039
    1DIPC   D2A10014  11.360  22.677   5.098  0.3764  0.1933  0.1092
    1DIPC   D3A10015  11.109  23.041   5.155  0.0208 -0.1385 -0.2156
    1DIPC   C4A10016  11.198  23.321   4.798 -0.2587  0.0570  0.1230
    1DIPC   C1B10017  11.483  22.018   5.613 -0.1310 -0.0148  0.3054
    1DIPC   D2B10018  11.659  21.856   5.218 -0.0941  0.0805 -0.2093
    1DIPC   D3B10019  11.730  22.238   5.174  0.2646  0.1585  0.3012
    1DIPC   C4B10020  11.686  22.355   4.777  0.1404  0.0822 -0.0057
    1DIPC   NC310021   4.781   1.319   6.582 -0.4843 -0.0344 -0.2864
    1DIPC   PO410022   4.749   1.621   6.796  0.2871 -0.0070  0.2042
    1DIPC   GL110023   4.574   1.756   6.437 -0.2222 -0.0558  0.2623
    1DIPC   GL210024   4.315   1.626   6.254  0.0574 -0.0670  0.1212
    1DIPC   C1A10025   4.298   2.162   6.343 -0.0427 -0.0468 -0.0436
    1DIPC   D2A10026   4.017   1.934   6.005 -0.0277 -0.0588 -0.1040
    1DIPC   D3A10027   3.961   2.317   5.965  0.1076  0.2955  0.0879
    1DIPC   C4A10028   4.213   2.674   6.246  0.1590  0.1052 -0.1179
    1DIPC   C1B10029   4.527   1.918   5.949 -0.0296  0.1251 -0.0393
    1DIPC   D2B10030   4.556   2.323   5.945  0.1822  0.3514  0.2427
    1DIPC   D3B10031   4.720   2.586   5.817  0.2772 -0.0952 -0.2322
    1DIPC   C4B10032   4.666   2.935   6.085 -0.4142  0.5771 -0.2853
    1DIPC   NC310033   2.621   5.699   6.351 -0.1180 -0.2945 -0.0815
    1DIPC   PO410034   2.472   5.289   6.473  0.0781 -0.1422  0.0349
    1DIPC   GL110035   2.541   4.969   6.174 -0.1574  0.0116 -0.0959
    1DIPC   GL210036   2.279   4.764   6.157 -0.0845 -0.2366 -0.0409
    1DIPC   C1A10037   2.865   4.859   5.850 -0.0212 -0.1408 -0.3029
    1DIPC   D2A10038   3.309   4.904   5.741 -0.0436 -0.3871  0.4561
    1DIPC   D3A10039   3.673   4.878   5.428  0.4421  0.4082  0.2623
    1DIPC   C4A10040   3.675   4.507   5.181  0.4017 -0.2407 -0.0130
    1DIPC   C1B10041   2.209   4.739   5.792 -0.0783 -0.1579  0.0179
    1DIPC   D2B10042   2.144   4.520   5.486  0.0115  0.0996 -0.5184
    1DIPC   D3B10043   1.944   4.599   5.074 -0.1300 -0.0846  0.1280
    1DIPC   C4B10044   1.564   4.784   5.099 -0.0983  0.2022 -0.1067
    1DIPC   NC310045  10.994  21.786   6.461 -0.1699 -0.0033 -0.0198
    1DIPC   PO410046  10.919  21.294   6.479 -0.1313  0.0653 -0.0650
    1DIPC   GL110047  10.999  21.292   6.093 -0.1199  0.0290  0.1183
    1DIPC   GL210048  11.314  21.487   6.023  0.0465  0.2122 -0.0284
    1DIPC   C1A10049  10.882  21.356   5.696  0.0089  0.1512 -0.1969
    1DIPC   D2A10050  10.889  21.329   5.235  0.1499 -0.1902 -0.1291
    1DIPC   D3A10051  11.159  21.088   5.080  0.0450 -0.2140 -0.2681
    1DIPC   C4A10052  11.388  20.766   5.248  0.0791 -0.2785  0.3120
    1DIPC   C1B10053  11.344  21.518   5.564 -0.0598  0.1921  0.3994
    1DIPC   D2B10054  11.114  21.749   5.373  0.0483  0.1406 -0.2569
    1DIPC   D3B10055  11.242  21.686   5.055 -0.0313 -0.0496 -0.0136
    1DIPC   C4B10056  10.964  21.939   4.689 -0.1228 -0.1907 -0.0544
    1DIPC   NC310057  13.083  11.088   6.973 -0.0225  0.0245  0.2844
    1DIPC   PO410058  12.566  11.182   7.004  0.1366 -0.0490 -0.0496
    1DIPC   GL110059  12.672  10.910   6.707 -0.1298 -0.1017  0.0061
    1DIPC   GL210060  12.378  10.870   6.611  0.1019 -0.2137  0.1831
    1DIPC   C1A10061  12.698  10.985   6.282  0.1251 -0.1088  0.0168
    1DIPC   D2A10062  12.805  11.082   5.771  0.2329 -0.1026  0.3201
    1DIPC   D3A10063  12.684  10.753   5.466 -0.2346  0.0259 -0.3436
    1DIPC   C4A10064  12.243  10.588   5.335  0.0625 -0.0128  0.0765
    1DIPC   C1B10065  12.204  10.770   6.183 -0.3090  0.0690  0.0520
    1DIPC   D2B10066  12.423  10.591   5.921  0.0458  0.3266 -0.0936
    1DIPC   D3B10067  12.887  10.616   5.979  0.0963  0.1713 -0.1000
    1DIPC   C4B10068  13.198  10.679   5.582 -0.3560  0.0825  0.0332
    1DIPC   NC310069  24.739  21.635   5.798  0.0677 -0.0479 -0.1996
    1DIPC   PO410070  24.363  21.903   5.827  0.0888  0.2799  0.3770
    1DIPC   GL110071  24.198  21.908   5.314 -0.0006 -0.0349 -0.1581
    1DIPC   GL210072  24.475  21.777   5.256  0.2388 -0.1143 -0.3224
    1DIPC   C1A10073  24.106  21.930   4.862 -0.1106  0.1874 -0.0451
    1DIPC   D2A10074  24.203  21.840   4.379  0.1771 -0.2321 -0.2902
    1DIPC   D3A10075  24.531  21.922   4.189  0.0902  0.0453  0.1995
    1DIPC   C4A10076  24.532  21.765   3.686  0.2991  0.2315 -0.4087
    1DIPC   C1B10077  24.544  21.682   4.861 -0.2214  0.0224  0.0007
    1DIPC   D2B10078  24.861  21.562   4.660  0.0749 -0.0352  0.0840
    1DIPC   D3B10079  24.846  21.612   4.350  0.0128 -0.0713  0.2660
    1DIPC   C4B10080  24.782  21.458   4.020  0.2507 -0.2423 -0.1586
    1DIPC   NC310081  18.415  20.643   6.378  0.0598 -0.1324  0.1318
    1DIPC   PO410082  18.204  20.265   6.267  0.1383  0.1628  0.2224
    1DIPC   GL110083  18.098  20.200   5.826  0.0125  0.0152 -0.3304
    1DIPC   GL210084  17.815  20.213   5.723  0.0727 -0.1488 -0.1449
    1DIPC   C1A10085  18.261  20.224   5.414  0.0282 -0.2312  0.2444
    1DIPC   D2A10086  18.143  20.473   5.155 -0.2291 -0.0561  0.0983
    1DIPC   D3A10087  18.421  20.342   4.805 -0.0374 -0.0215 -0.1348
    1DIPC   C4A10088  18.547  20.597   4.421  0.2094  0.0334 -0.1221
    1DIPC   C1B10089  17.728  20.252   5.353 -0.0637  0.0710 -0.0359
    1DIPC   D2B10090  17.807  20.300   4.855  0.0175  0.1657  0.2475
    1DIPC   D3B10091  17.428  20.575   4.870 -0.0596 -0.1487 -0.1747
    1DIPC   C4B10092  17.395  20.861   4.558 -0.1231  0.1397  0.0093
    1DIPC   NC310093  14.995   3.743   6.862  0.0825  0.2533 -0.1811
    1DIPC   PO410094  14.625   3.359   6.810  0.0274 -0.2649  0.3677
    1DIPC   GL110095  14.776   3.424   6.450 -0.1721 -0.1826  0.4751
    1DIPC   GL210096  14.517   3.281   6.237  0.0792  0.0771  0.1006
    1DIPC   C1A10097  15.096   3.431   6.142  0.1415 -0.1260  0.1805
    1DIPC   D2A10098  15.522   3.482   6.123  0.1261 -0.1670 -0.1562
    1DIPC   D3A10099  15.700   3.743   5.954 -0.0985  0.3697 -0.1040
    1DIPC   C4A10100  15.764   3.741   5.472 -0.0743 -0.1358 -0.3460
    1DIPC   C1B10101  14.397   3.386   5.782 -0.1347 -0.0277  0.1158
    1DIPC   D2B10102  14.422   3.584   5.450  0.1095 -0.3198 -0.0915
    1DIPC   D3B10103  14.586   4.078   5.571  0.0525 -0.0096  0.2601
    1DIPC   C4B10104  15.012   4.237   5.343 -0.2079  0.0483  0.0776
    1DIPC   NC310105  16.889   4.276   7.355  0.2958 -0.0403 -0.1026
    1DIPC   PO410106  17.232   4.491   7.209  0.1560  0.1611  0.0145
    1DIPC   GL110107  17.144   4.463   6.741 -0.2651  0.0152 -0.1132
    1DIPC   GL210108  16.931   4.200   6.862  0.0375  0.0636  0.1386
    1DIPC   C1A10109  17.309   4.498   6.358  0.0351  0.1542 -0.1749
    1DIPC   D2A10110  17.512   4.542   5.995 -0.1502  0.0770  0.0897
    1DIPC   D3A10111  17.182   4.483   5.687 -0.2096  0.0141 -0.1865
    1DIPC   C4A10112  17.391   4.335   5.381 -0.0492 -0.2011 -0.1811
    1DIPC   C1B10113  16.767   4.417   6.481  0.4474 -0.2025  0.1653
    1DIPC   D2B10114  16.904   4.264   6.067  0.0245  0.1510  0.0372
    1DIPC   D3B10115  16.506   4.021   5.957  0.1031 -0.2917  0.0391
    1DIPC   C4B10116  16.064   4.054   5.866  0.0209 -0.1849  0.1521
    1DIPC   NC310117  20.281  22.637   6.368  0.0043 -0.0507  0.1353
    1DIPC   PO410118  20.008  22.291   6.474  0.0540  0.1672 -0.0215
    1DIPC   GL110119  20.062  22.261   6.059  0.0576 -0.1070  0.0591
    1DIPC   GL210120  20.048  22.518   5.897 -0.0814 -0.0360 -0.3272
    1DIPC   C1A10121  20.341  22.182   5.800  0.0510 -0.0354 -0.0251
    1DIPC   D2A10122  20.662  22.321   5.448  0.1904  0.2130 -0.2094
    1DIPC   D3A10123  20.348  22.608   5.376  0.0207  0.2006  0.4361
    1DIPC   C4A10124  20.680  22.938   5.133 -0.2580 -0.1736 -0.2480
    1DIPC   C1B10125  19.853  22.361   5.547  0.0145  0.0065 -0.3111
    1DIPC   D2B10126  19.849  22.471   5.060  0.1739  0.4960  0.0448
    1DIPC   D3B10127  19.942  22.412   4.667 -0.2864  0.1346 -0.0764
    1DIPC   C4B10128  19.573  22.582   4.445 -0.0321 -0.1652 -0.0537
    1DIPC   NC310129  29.211  27.116   6.805 -0.1319 -0.2477  0.0225
    1DIPC   PO410130  28.827  26.958   6.744  0.2783  0.0261 -0.0599
    1DIPC   GL110131  28.570  26.925   6.296  0.1832  0.0989  0.0428
    1DIPC   GL210132  28.851  26.899   6.226  0.2843 -0.0828  0.2692
    1DIPC   C1A10133  28.485  26.866   5.866  0.0532 -0.0350  0.0804
    1DIPC   D2A10134  28.396  26.762   5.365  0.0300 -0.0839  0.0661
    1DIPC   D3A10135  28.060  26.881   5.146  0.0647  0.0392  0.0329
    1DIPC   C4A10136  28.046  27.304   5.252 -0.1155  0.0836 -0.1565
    1DIPC   C1B10137  29.237  27.004   6.099 -0.0255 -0.0425 -0.1422
    1DIPC   D2B10138  29.301  27.148   5.707 -0.0775 -0.1795 -0.0152
    1DIPC   D3B10139  29.206  26.856   5.320 -0.1089 -0.1163 -0.4951
    1DIPC   C4B10140  29.407  27.008   4.945  0.2296  0.0864 -0.0572
    1DIPC   NC310141   8.668   5.779   7.181  0.1158 -0.2491 -0.0405
    1DIPC   PO410142   8.902   5.893   6.819  0.3089 -0.1216  0.4193
    1DIPC   GL110143   8.982   5.713   6.559 -0.0552  0.2265  0.1734
    1DIPC   GL210144   8.617   5.721   6.443  0.1784 -0.0988  0.1559
    1DIPC   C1A10145   9.161   5.664   6.169  0.1631 -0.0207  0.1497
    1DIPC   D2A10146   8.912   5.439   5.855  0.0225  0.2920  0.1606
    1DIPC   D3A10147   8.988   5.064   5.615 -0.3071 -0.2098  0.0455
    1DIPC   C4A10148   9.264   5.167   5.279  0.2174  0.4489 -0.0788
    1DIPC   C1B10149   8.692   5.337   6.312 -0.1035  0.3533  0.0091
    1DIPC   D2B10150   8.593   4.921   5.995  0.1799  0.2296 -0.2221
    1DIPC   D3B10151   8.432   4.992   5.563 -0.1374 -0.0689 -0.1076
    1DIPC   C4B10152   8.131   5.084   5.390  0.2111 -0.0468  0.1270
    1DIPC   NC310153   5.442   4.146   6.702  0.2044 -0.2719  0.3769
    1DIPC   PO410154   4.947   4.156   6.862  0.0441 -0.1523  0.0893
    1DIPC   GL110155   5.015   3.820   6.570  0.2153 -0.0159  0.2600
    1DIPC   GL210156   5.334   3.737   6.419  0.0863  0.2354  0.5201
    1DIPC   C1A10157   4.681   3.755   6.111  0.2490 -0.3863 -0.0641
    1DIPC   D2A10158   4.385   3.817   5.756 -0.0270 -0.2611  0.2817
    1DIPC   D3A10159   4.516   3.913   5.397 -0.1407  0.2060  0.1203
    1DIPC   C4A10160   4.795   3.772   5.010  0.1625 -0.1002 -0.0486
    1DIPC   C1B10161   5.131   3.971   6.068 -0.1282  0.2039  0.2734
    1DIPC   D2B10162   4.930   3.940   5.674 -0.0177 -0.0503 -0.2361
    1DIPC   D3B10163   5.248   4.208   5.488 -0.2732  0.1625  0.0241
    1DIPC   C4B10164   5.133   4.104   5.019  0.0130  0.1996 -0.0042
    1DIPC   NC310165  27.058   0.509   7.009  0.6074 -0.0834 -0.3252
    1DIPC   PO410166  26.968   0.060   6.968  0.3324 -0.2646  0.0400
    1DIPC   GL110167  26.649  -0.038   6.615 -0.0279  0.0066 -0.1038
    1DIPC   GL210168  26.415  -0.329   6.669 -0.3148  0.2478  0.2667
    1DIPC   C1A10169  26.520  -0.122   6.223  0.0068  0.1329 -0.0023
    1DIPC   D2A10170  26.321  -0.039   5.754  0.1440  0.2372 -0.0337
    1DIPC   D3A10171  26.278   0.420   5.584  0.0793  0.1608 -0.0315
    1DIPC   C4A10172  26.218   0.316   5.095 -0.1857  0.1155 -0.1104
    1DIPC   C1B10173  26.619  -0.558   6.414 -0.1076 -0.1965  0.5472
    1DIPC   D2B10174  26.730  -0.711   6.047  0.3326 -0.4906  0.2061
    1DIPC   D3B10175  26.839  -0.427   5.753 -0.0752 -0.0112  0.0973
    1DIPC   C4B10176  26.643  -0.302   5.483 -0.0080 -0.0288  0.2837
    1DIPC   NC310177  21.148  18.199   5.499  0.1449 -0.0553 -0.1505
    1DIPC   PO410178  21.453  17.810   5.474 -0.1153 -0.3372 -0.2086
    1DIPC   GL110179  21.438  17.717   5.108 -0.0532  0.0303 -0.0712
    1DIPC   GL210180  21.695  17.490   5.083  0.0378 -0.2173  0.1948
    1DIPC   C1A10181  21.454  17.808   4.667 -0.1267  0.1434 -0.1217
    1DIPC   D2A10182  21.589  18.174   4.485  0.2440 -0.3319 -0.0144
    1DIPC   D3A10183  21.833  17.939   4.326 -0.0514  0.2030  0.0174
    1DIPC   C4A10184  21.734  18.092   3.978 -0.1637  0.0604 -0.2724
    1DIPC   C1B10185  21.862  17.480   4.634  0.1662  0.2468 -0.0985
    1DIPC   D2B10186  21.877  17.403   4.139  0.1412  0.0145 -0.1636
    1DIPC   D3B10187  22.188  17.690   4.030 -0.0420  0.0673 -0.0479
    1DIPC   C4B10188  22.255  17.870   3.618  0.2629  0.0203 -0.0749
    1DIPC   NC310189  11.427  17.380   6.483  0.0640  0.0800  0.2598
    1DIPC   PO410190  11.352  16.886   6.466 -0.1692  0.2561 -0.1151
    1DIPC   GL110191  11.670  16.946   6.157 -0.2082  0.2593 -0.0508
    1DIPC   GL210192  11.952  17.062   6.335 -0.3036 -0.0414  0.0130
    1DIPC   C1A10193  11.779  17.010   5.727  0.1765  0.0690  0.1614
    1DIPC   D2A10194  11.794  17.137   5.319 -0.1015  0.0417 -0.2387
    1DIPC   D3A10195  11.883  17.492   5.240  0.1332  0.2299 -0.1731
    1DIPC   C4A10196  12.049  17.669   4.888  0.0719 -0.2934 -0.1643
    1DIPC   C1B10197  11.970  17.327   6.064  0.0528 -0.0668  0.3813
    1DIPC   D2B10198  12.139  17.319   5.672  0.0057  0.0196  0.0027
    1DIPC   D3B10199  12.327  16.932   5.920 -0.1612 -0.0002  0.3359
    1DIPC   C4B10200  12.050  16.605   6.062 -0.0444  0.3840  0.0048
    1DIPC   NC310201  21.596  20.301   6.598 -0.0246 -0.1543 -0.1981
    1DIPC   PO410202  21.465  20.312   6.081  0.0964 -0.0952 -0.0100
    1DIPC   GL110203  21.716  20.585   5.741  0.1759  0.2006  0.2354
    1DIPC   GL210204  21.991  20.850   5.735  0.1677 -0.0096  0.1008
    1DIPC   C1A10205  21.611  20.817   5.287  0.2258 -0.0134 -0.0932
    1DIPC   D2A10206  21.619  21.220   5.051 -0.0839 -0.2516 -0.0359
    1DIPC   D3A10207  21.746  20.829   4.785  0.2135 -0.2295  0.0825
    1DIPC   C4A10208  21.579  20.868   4.385  0.1040  0.0204  0.0270
    1DIPC   C1B10209  22.054  20.605   5.308  0.4176  0.2872 -0.2989
    1DIPC   D2B10210  22.300  20.653   4.895  0.0072  0.0530  0.0523
    1DIPC   D3B10211  22.247  20.990   4.597  0.2927 -0.1966 -0.2461
    1DIPC   C4B10212  22.460  20.930   4.238  0.1704 -0.0493  0.0453
    1DIPC   NC310213  14.400  20.712   6.034 -0.2245 -0.1207 -0.0897
    1DIPC   PO410214  14.342  20.272   6.257 -0.1162 -0.2923  0.1270
    1DIPC   GL110215  14.805  20.326   5.930  0.0421 -0.1723  0.1916
    1DIPC   GL210216  15.089  20.015   5.912 -0.2735 -0.0480  0.0435
    1DIPC   C1A10217  14.740  20.498   5.483 -0.0518 -0.2890 -0.4714
    1DIPC   D2A10218  14.910  20.417   5.127 -0.1652  0.1005  0.1982
    1DIPC   D3A10219  14.520  20.200   5.070  0.0565 -0.1477 -0.2490
    1DIPC   C4A10220  14.232  19.919   4.690 -0.0267 -0.0175  0.1336
    1DIPC   C1B10221  15.042  19.983   5.383  0.2383  0.2421  0.0398
    1DIPC   D2B10222  14.949  19.925   4.913 -0.0389  0.0279 -0.1035
    1DIPC   D3B10223  14.814  19.642   4.614  0.1565 -0.0601 -0.1511
    1DIPC   C4B10224  15.133  19.455   4.357  0.2908 -0.0024 -0.0607
    1DIPC   NC310225   1.060   6.856   6.755 -0.0906 -0.0507  0.0842
    1DIPC   PO410226   1.362   7.200   6.580 -0.0195  0.1620 -0.0324
    1DIPC   GL110227   1.386   6.988   6.177  0.1113  0.1185 -0.0068
    1DIPC   GL210228   1.685   6.786   6.104 -0.0947  0.1070  0.1678
    1DIPC   C1A10229   1.181   6.920   5.895  0.1523  0.2903 -0.2187
    1DIPC   D2A10230   0.980   6.998   5.509  0.1097 -0.2075 -0.1153
    1DIPC   D3A10231   1.116   6.563   5.476  0.2826 -0.0639  0.0820
    1DIPC   C4A10232   1.344   6.418   5.803 -0.1994  0.1264 -0.2779
    1DIPC   C1B10233   1.663   6.737   5.713 -0.1065  0.2995  0.4833
    1DIPC   D2B10234   1.518   6.747   5.279 -0.2063  0.2568 -0.2230
    1DIPC   D3B10235   1.448   6.346   5.110 -0.2302  0.0794  0.0571
    1DIPC   C4B10236   1.439   6.403   4.616  0.1211  0.0382  0.0628
    1DIPC   NC310237  25.378  26.542   6.881 -0.2373  0.1001 -0.0750
    1DIPC   PO410238  25.000  26.465   6.961  0.3043  0.4315 -0.0499
    1DIPC   GL110239  25.010  26.658   6.529 -0.3339 -0.2125  0.1697
    1DIPC   GL210240  24.702  26.517   6.232 -0.1679  0.4063 -0.0086
    1DIPC   C1A10241  24.962  27.132   6.548 -0.0421  0.1305  0.2773
    1DIPC   D2A10242  24.609  27.357   6.273  0.3005 -0.1536 -0.2449
    1DIPC   D3A10243  24.405  27.685   5.912  0.1587 -0.3373  0.1352
    1DIPC   C4A10244  24.161  27.565   5.605  0.1610 -0.2840 -0.2344
    1DIPC   C1B10245  24.666  26.893   6.097  0.2694  0.0905 -0.0021
    1DIPC   D2B10246  24.958  27.287   5.942 -0.0581 -0.2106 -0.1291
    1DIPC   D3B10247  25.081  26.951   5.802 -0.1358 -0.1273 -0.2546
    1DIPC   C4B10248  25.187  26.886   5.457 -0.2987 -0.1317  0.0767
    1DIPC   NC310249   8.694   0.966   7.185 -0.0958  0.1340  0.1479
    1DIPC   PO410250   8.210   1.044   7.035 -0.1460  0.1878 -0.0363
    1DIPC   GL110251   8.496   1.145   6.775 -0.1139 -0.0711 -0.4220
    1DIPC   GL210252   8.607   0.978   6.477  0.2051  0.0215 -0.0300
    1DIPC   C1A10253   8.881   1.469   6.636 -0.0046 -0.2866  0.0031
    1DIPC   D2A10254   8.856   1.908   6.418  0.2241 -0.2599  0.0042
    1DIPC   D3A10255   8.776   1.928   5.976  0.0965  0.0811 -0.0427
    1DIPC   C4A10256   8.821   1.806   5.625 -0.1445 -0.0082  0.1354
    1DIPC   C1B10257   8.759   1.085   6.138 -0.0527  0.1401  0.0498
    1DIPC   D2B10258   9.027   1.443   6.119 -0.3764 -0.0503  0.0346
    1DIPC   D3B10259   8.984   1.306   5.644 -0.2456  0.0050 -0.2160
    1DIPC   C4B10260   9.186   1.616   5.370  0.0205  0.1993  0.1190
    1DIPC   NC310261  12.028   3.085   6.881  0.2515 -0.0082  0.1635
    1DIPC   PO410262  11.897   2.713   6.741 -0.0271 -0.0271  0.1493
    1DIPC   GL110263  12.054   2.888   6.337  0.0670 -0.1929  0.2379
    1DIPC   GL210264  11.818   3.176   6.314 -0.1089 -0.2340  0.3495
    1DIPC   C1A10265  12.166   2.802   5.979 -0.2294 -0.1829  0.3921
    1DIPC   D2A10266  12.185   2.414   5.823 -0.0133  0.2700 -0.0913
    1DIPC   D3A10267  12.027   2.344   5.423 -0.0136 -0.4125 -0.2133
    1DIPC   C4A10268  12.318   2.222   5.038  0.3063 -0.3468  0.0257
    1DIPC   C1B10269  11.718   3.153   5.959 -0.1057  0.0653  0.0207
    1DIPC   D2B10270  11.555   3.111   5.578  0.2282 -0.1733 -0.1265
    1DIPC   D3B10271  11.133   3.368   5.400  0.0042  0.1596  0.1718
    1DIPC   C4B10272  11.121   3.864   5.485  0.1395 -0.1004 -0.0849
    1DIPC   NC310273   3.132  29.105   6.566  0.2821 -0.0614 -0.2190
    1DIPC   PO410274   2.876  28.724   6.527  0.2543 -0.2234  0.2486
    1DIPC   GL110275   2.940  28.954   6.076 -0.2464 -0.2128  0.0676
    1DIPC   GL210276   3.078  29.161   5.964 -0.2669 -0.0005  0.3067
    1DIPC   C1A10277   2.677  29.262   5.728  0.1213  0.2010  0.0802
    1DIPC   D2A10278   2.641  29.355   5.355  0.2447 -0.2600 -0.0063
    1DIPC   D3A10279   2.652  28.993   5.338 -0.0555  0.0167 -0.2125
    1DIPC   C4A10280   2.884  28.793   5.600 -0.1549 -0.0177 -0.1794
    1DIPC   C1B10281   3.134  29.297   5.503  0.2362  0.1073  0.1728
    1DIPC   D2B10282   3.095  29.137   5.073  0.0006  0.0607  0.0901
    1DIPC   D3B10283   2.897  29.366   4.766  0.0532 -0.2209 -0.0101
    1DIPC   C4B10284   2.731  29.331   4.416  0.0679  0.0187 -0.1071
    1DIPC   NC310285  21.748  19.803   5.690  0.1796 -0.1424  0.0351
    1DIPC   PO410286  22.149  19.721   5.814 -0.0459 -0.0938 -0.1156
    1DIPC   GL110287  22.052  19.705   5.276 -0.0389 -0.0654 -0.3741
    1DIPC   GL210288  22.187  20.075   5.198  0.0664 -0.1531  0.1403
    1DIPC   C1A10289  21.927  19.589   4.739 -0.3543 -0.1381 -0.1398
    1DIPC   D2A10290  21.535  19.366   4.450 -0.2764  0.0940  0.0098
    1DIPC   D3A10291  21.141  19.609   4.408  0.0213  0.2856  0.1011
    1DIPC   C4A10292  21.025  19.870   4.080  0.0252 -0.2260  0.0786
    1DIPC   C1B10293  22.180  20.104   4.783  0.0136  0.1057  0.3393
    1DIPC   D2B10294  22.040  20.020   4.400  0.0118  0.1308 -0.0832
    1DIPC   D3B10295  22.097  19.932   3.860  0.0590  0.2356  0.0197
    1DIPC   C4B10296  21.820  19.586   3.728 -0.0228 -0.0127 -0.1491
    1DIPC   NC310297   8.193   3.851   7.971  0.1695  0.0590 -0.2845
    1DIPC   PO410298   8.211   3.714   7.480 -0.3755  0.0166 -0.3708
    1DIPC   GL110299   8.080   3.700   7.071 -0.1479 -0.2717 -0.1878
    1DIPC   GL210300   8.208   3.635   6.830 -0.0495  0.1023 -0.0818
    1DIPC   C1A10301   7.901   4.021   6.723  0.1181 -0.3252 -0.0741
    1DIPC   D2A10302   7.535   4.249   6.537  0.0144  0.0147 -0.1441
    1DIPC   D3A10303   7.465   3.928   6.280 -0.3279  0.1234  0.1967
    1DIPC   C4A10304   7.028   3.849   6.023 -0.0152 -0.1117 -0.2939
    1DIPC   C1B10305   8.385   3.289   6.576  0.0825  0.1516  0.0646
    1DIPC   D2B10306   8.740   3.222   6.673  0.2624  0.1011  0.0633
    1DIPC   D3B10307   8.746   3.272   6.216 -0.1359  0.1661 -0.4619
    1DIPC   C4B10308   8.878   3.563   5.898 -0.1218  0.1900 -0.3128
    1DIPC   NC310309  13.702  28.100   7.125  0.1572 -0.1935 -0.1824
    1DIPC   PO410310  13.921  28.259   6.686  0.0568 -0.1755 -0.0464
    1DIPC   GL110311  13.913  28.364   6.341  0.0590 -0.0914  0.0161
    1DIPC   GL210312  13.894  28.691   6.430 -0.0072  0.3540  0.0401
    1DIPC   C1A10313  14.073  28.138   5.996  0.3357  0.1382 -0.0990
    1DIPC   D2A10314  13.875  28.181   5.630  0.1015  0.1235  0.2716
    1DIPC   D3A10315  14.166  28.478   5.525  0.0076  0.0565  0.0764
    1DIPC   C4A10316  14.227  28.380   5.136  0.2084 -0.1872 -0.3041
    1DIPC   C1B10317  14.316  28.624   6.177 -0.1252 -0.0304 -0.0828
    1DIPC   D2B10318  14.695  28.758   5.967 -0.1990 -0.1748 -0.2949
    1DIPC   D3B10319  15.003  28.445   5.952  0.0962  0.2270  0.4886
    1DIPC   C4B10320  14.999  28.112   5.636  0.1349  0.0459  0.1048
    1DIPC   NC310321  26.496  12.906   6.913  0.1810  0.0173 -0.1329
    1DIPC   PO410322  26.753  12.515   6.791 -0.2174 -0.1369 -0.3338
    1DIPC   GL110323  26.961  12.357   6.392 -0.1762 -0.1466 -0.0110
    1DIPC   GL210324  27.217  12.383   6.362  0.0669 -0.2389 -0.0469
    1DIPC   C1A10325  26.966  12.030   6.075 -0.0697  0.0134  0.1919
    1DIPC   D2A10326  27.225  11.835   5.806 -0.0021  0.1339  0.1450
    1DIPC   D3A10327  27.219  11.870   5.355  0.1918 -0.0739 -0.1954
    1DIPC   C4A10328  26.966  12.017   5.110  0.0637  0.0169  0.0095
    1DIPC   C1B10329  27.303  12.376   5.869  0.0336  0.1300 -0.2250
    1DIPC   D2B10330  27.145  12.424   5.482  0.1810 -0.0366  0.1630
    1DIPC   D3B10331  26.728  12.252   5.663 -0.0216  0.0977 -0.1050
    1DIPC   C4B10332  26.782  11.803   5.536 -0.1579  0.0654  0.0757
    1DIPC   NC310333  10.776  25.266   6.505 -0.0956  0.1639 -0.3097
    1DIPC   PO410334  10.434  24.895   6.678 -0.0251  0.1396  0.0476
    1DIPC   GL110335  10.173  24.811   6.290 -0.3034 -0.4576 -0.1495
    1DIPC   GL210336  10.012  25.066   6.087  0.0909 -0.1752 -0.0309
    1DIPC   C1A10337  10.093  24.557   5.936  0.0104 -0.1841 -0.2639
    1DIPC   D2A10338   9.811  24.611   5.571  0.0145  0.2618  0.0448
    1DIPC   D3A10339   9.442  24.780   5.504  0.2478 -0.4233  0.3882
    1DIPC   C4A10340   9.241  24.943   5.140  0.0822  0.1331 -0.2140
    1DIPC   C1B10341   9.609  24.922   5.974  0.1095  0.1904 -0.2671
    1DIPC   D2B10342   9.135  24.874   5.945 -0.1651  0.0863 -0.2371
    1DIPC   D3B10343   9.398  24.467   5.951 -0.0081 -0.1628  0.3590
    1DIPC   C4B10344   9.493  24.176   5.588  0.1089  0.0833 -0.0750
    1DIPC   NC310345   9.102  27.821   7.766  0.1212 -0.1012 -0.1010
    1DIPC   PO410346   9.164  27.830   7.338  0.1651  0.2826  0.1471
    1DIPC   GL110347   9.102  27.727   6.936 -0.2137 -0.1348  0.2033
    1DIPC   GL210348   8.919  27.498   6.923 -0.0648  0.1424 -0.1916
    1DIPC   C1A10349   9.175  27.960   6.535 -0.0736 -0.2643  0.0604
    1DIPC   D2A10350   8.983  28.346   6.250  0.5423  0.1697  0.0666
    1DIPC   D3A10351   9.151  28.323   5.832 -0.1768  0.0265 -0.2186
    1DIPC   C4A10352   9.258  27.944   5.623 -0.1182  0.1451  0.0706
    1DIPC   C1B10353   8.684  27.803   6.652 -0.1369 -0.0955 -0.1480
    1DIPC   D2B10354   8.520  28.069   6.380 -0.1811 -0.1306  0.0640
    1DIPC   D3B10355   8.138  27.839   6.501  0.0774  0.0945 -0.3226
    1DIPC   C4B10356   7.793  27.736   6.171 -0.2395 -0.2622 -0.1251
    1DIPC   NC310357   6.393   0.182   6.650  0.2685 -0.1818  0.1624
    1DIPC   PO410358   6.778   0.518   6.792 -0.1523 -0.0865  0.0199
    1DIPC   GL110359   6.760   0.342   6.379  0.2321 -0.1147  0.0032
    1DIPC   GL210360   6.668   0.665   6.308 -0.2543  0.2305  0.1341
    1DIPC   C1A10361   6.848   0.346   5.934  0.3102  0.1820 -0.2735
    1DIPC   D2A10362   6.835   0.381   5.525  0.1472  0.0145  0.0386
    1DIPC   D3A10363   6.622   0.602   5.161  0.3302  0.0134 -0.0398
    1DIPC   C4A10364   6.643   0.313   4.860  0.1188 -0.2704 -0.0360
    1DIPC   C1B10365   7.002   0.806   6.047 -0.2443 -0.1445 -0.0946
    1DIPC   D2B10366   7.260   0.668   5.689  0.1053 -0.0074 -0.3257
    1DIPC   D3B10367   7.188   0.884   5.349 -0.1626  0.0577 -0.0954
    1DIPC   C4B10368   7.145   0.578   5.065  0.0597 -0.1388 -0.0305
    1DIPC   NC310369  13.675  16.865   7.031 -0.2899  0.0956 -0.1705
    1DIPC   PO410370  13.999  17.046   6.763 -0.0002  0.3235 -0.0728
    1DIPC   GL110371  14.106  17.197   6.331  0.1580  0.3083 -0.0045
    1DIPC   GL210372  13.943  17.531   6.270 -0.1504  0.0348  0.2248
    1DIPC   C1A10373  14.008  17.124   5.844  0.1029 -0.2442 -0.0425
    1DIPC   D2A10374  14.149  17.204   5.449 -0.0238  0.0697 -0.1014
    1DIPC   D3A10375  14.180  17.671   5.353  0.2998 -0.0143 -0.0391
    1DIPC   C4A10376  13.828  17.900   5.287 -0.1451 -0.1968  0.3156
    1DIPC   C1B10377  13.646  17.401   6.041  0.0382  0.2652  0.0246
    1DIPC   D2B10378  13.296  17.539   5.827 -0.0717  0.1544  0.0514
    1DIPC   D3B10379  13.297  17.713   5.522  0.1600 -0.1242  0.0100
    1DIPC   C4B10380  13.501  17.469   5.164 -0.2417  0.0517  0.2620
    1DIPC   NC310381  27.739  24.241   6.640  0.1976  0.0028 -0.3471
    1DIPC   PO410382  27.997  23.922   6.545  0.5823  0.1009  0.0613
    1DIPC   GL110383  27.944  24.107   6.125  0.4487  0.4462 -0.2021
    1DIPC   GL210384  27.799  24.384   6.150 -0.1859  0.0511  0.1295
    1DIPC   C1A10385  28.068  24.061   5.693 -0.0202 -0.0213  0.1062
    1DIPC   D2A10386  28.502  23.954   5.657  0.0515  0.0421 -0.1335
    1DIPC   D3A10387  28.396  24.044   5.210 -0.1488 -0.0984  0.5215
    1DIPC   C4A10388  28.059  24.095   5.169  0.1297  0.1838 -0.2234
    1DIPC   C1B10389  27.462  24.287   5.808  0.1593  0.1353 -0.0825
    1DIPC   D2B10390  27.179  24.186   5.423  0.0312 -0.0408 -0.2227
    1DIPC   D3B10391  27.220  24.611   5.526 -0.0581  0.1225 -0.1033
    1DIPC   C4B10392  27.375  24.896   5.228  0.0945 -0.2605  0.1247
    1DIPC   NC310393  28.282   7.711   6.763 -0.2005  0.1979 -0.3486
    1DIPC   PO410394  27.984   7.482   6.466  0.4658 -0.1233  0.2324
    1DIPC   GL110395  28.143   7.201   6.036 -0.1264 -0.1157  0.0854
    1DIPC   GL210396  27.985   7.091   5.697 -0.0208 -0.2344 -0.1767
    1DIPC   C1A10397  28.425   7.306   5.629 -0.3934 -0.1337 -0.1272
    1DIPC   D2A10398  28.530   7.387   5.229 -0.2398  0.2816 -0.0720
    1DIPC   D3A10399  28.521   6.952   5.002  0.1224  0.3151 -0.2703
    1DIPC   C4A10400  28.413   6.982   4.526 -0.0367  0.0175 -0.3328
    1DIPC   C1B10401  28.132   6.810   5.409  0.1891 -0.3972 -0.0572
    1DIPC   D2B10402  28.164   6.391   5.111  0.1151  0.0092  0.1626
    1DIPC   D3B10403  28.066   6.703   4.845 -0.1244 -0.1063  0.0886
    1DIPC   C4B10404  28.051   7.199   5.055 -0.3028  0.0150  0.1739
    1DIPC   NC310405   3.001  28.417   6.156  0.1428  0.0390 -0.2966
    1DIPC   PO410406   3.437  28.730   6.212  0.0039 -0.1829  0.1122
    1DIPC   GL110407   3.334  28.764   5.810 -0.4259  0.0822 -0.2643
    1DIPC   GL210408   3.273  28.439   5.751 -0.1270 -0.0866  0.0074
    1DIPC   C1A10409   3.427  28.787   5.338  0.3474 -0.1271 -0.1483
    1DIPC   D2A10410   3.547  28.851   4.952 -0.1265 -0.0640 -0.1912
    1DIPC   D3A10411   3.870  28.529   5.150 -0.3739  0.1333 -0.0201
    1DIPC   C4A10412   3.989  28.233   4.796  0.0026  0.0570  0.0398
    1DIPC   C1B10413   3.015  28.103   5.522  0.0653 -0.1361  0.1476
    1DIPC   D2B10414   2.705  27.777   5.771 -0.0072  0.1780  0.3027
    1DIPC   D3B10415   2.637  27.391   5.553  0.1120 -0.1734 -0.1286
    1DIPC   C4B10416   2.484  27.255   5.120 -0.2838  0.1101  0.1442
    1DIPC   NC310417   2.526  27.867   6.219  0.1252  0.3686 -0.1824
    1DIPC   PO410418   2.596  28.208   6.034  0.2043 -0.0085 -0.1297
    1DIPC   GL110419   2.535  28.421   5.640  0.0182 -0.2277 -0.2510
    1DIPC   GL210420   2.392  28.692   5.655  0.3326 -0.0782  0.0238
    1DIPC   C1A10421   2.723  28.542   5.193 -0.1736 -0.1859  0.3507
    1DIPC   D2A10422   2.719  28.889   4.786 -0.1173 -0.1313  0.0142
    1DIPC   D3A10423   3.101  28.704   4.826 -0.1025 -0.0285 -0.2314
    1DIPC   C4A10424   3.500  28.429   4.728  0.2371  0.0202  0.0704
    1DIPC   C1B10425   2.136  28.740   5.332  0.3699 -0.3361 -0.0053
    1DIPC   D2B10426   2.234  28.736   4.819 -0.2430  0.1898 -0.2760
    1DIPC   D3B10427   2.563  28.512   4.530 -0.3246  0.0456 -0.1148
    1DIPC   C4B10428   2.928  28.695   4.301 -0.1959 -0.0366  0.1259
    1DIPC   NC310429   8.623  23.383   6.993 -0.2728  0.0786 -0.1056
    1DIPC   PO410430   8.314  23.115   6.750 -0.1087 -0.1561 -0.0944
    1DIPC   GL110431   8.237  23.152   6.303  0.5025  0.2295 -0.0872
    1DIPC   GL210432   7.916  23.240   6.305  0.1038  0.3759 -0.3264
    1DIPC   C1A10433   8.178  23.141   5.850 -0.1124 -0.2952  0.2453
    1DIPC   D2A10434   8.419  23.019   5.490 -0.0670 -0.3914  0.1036
    1DIPC   D3A10435   8.126  23.056   5.153  0.0980 -0.3372 -0.1412
    1DIPC   C4A10436   7.830  23.294   4.925  0.0425 -0.4688  0.0254
    1DIPC   C1B10437   8.036  23.621   6.100 -0.1713 -0.0841 -0.1195
    1DIPC   D2B10438   8.281  23.910   5.810 -0.1556  0.0091  0.0529
    1DIPC   D3B10439   8.241  24.056   5.375  0.2626 -0.0080  0.0186
    1DIPC   C4B10440   8.578  24.255   5.098  0.0152 -0.0466  0.2243
    1DIPC   NC310441  20.282   0.960   7.051 -0.1183  0.2117  0.0560
    1DIPC   PO410442  20.596   0.633   7.226 -0.1373 -0.2412  0.0343
    1DIPC   GL110443  20.478   0.492   6.854  0.1702 -0.1356 -0.0530
    1DIPC   GL210444  20.161   0.383   6.775 -0.1948  0.3255 -0.1606
    1DIPC   C1A10445  20.464   0.634   6.402  0.1105  0.1344  0.0656
    1DIPC   D2A10446  20.475   0.537   5.968  0.0697  0.1486  0.3557
    1DIPC   D3A10447  20.445   0.132   5.763  0.1436  0.1852  0.0150
    1DIPC   C4A10448  20.360  -0.298   5.955  0.0634 -0.0025  0.1850
    1DIPC   C1B10449  19.983   0.124   6.561  0.0403 -0.0133  0.0223
    1DIPC   D2B10450  19.958  -0.013   6.009  0.3980 -0.0820  0.0850
    1DIPC   D3B10451  19.819  -0.441   5.771  0.0734 -0.0838  0.1591
    1DIPC   C4B10452  19.835  -0.609   5.390 -0.1071 -0.1264  0.2965
    1DIPC   NC310453  12.927  16.962   6.598 -0.1580  0.0843 -0.0184
    1DIPC   PO410454  13.267  16.802   6.689 -0.1104  0.1208  0.0744
    1DIPC   GL110455  13.243  16.873   6.203 -0.1159  0.0129 -0.0920
    1DIPC   GL210456  13.134  17.206   6.224 -0.0732 -0.1054 -0.0756
    1DIPC   C1A10457  13.432  17.015   5.811  0.0605  0.0570 -0.1869
    1DIPC   D2A10458  13.604  17.026   5.356 -0.1885 -0.1733  0.0471
    1DIPC   D3A10459  13.813  16.923   4.952 -0.0228 -0.0288 -0.2088
    1DIPC   C4A10460  14.294  17.042   5.012 -0.0419 -0.1168  0.2441
    1DIPC   C1B10461  12.947  17.168   5.853  0.0301 -0.1102 -0.0877
    1DIPC   D2B10462  12.739  17.003   5.571 -0.0049 -0.3290  0.1127
    1DIPC   D3B10463  12.932  17.319   5.290  0.0069 -0.0235  0.1891
    1DIPC   C4B10464  12.682  17.538   4.967  0.2621 -0.0759 -0.3562
    1DIPC   NC310465  18.660   6.982   7.133 -0.0443 -0.1782  0.3974
    1DIPC   PO410466  18.199   7.057   7.040  0.1388 -0.1486 -0.3607
    1DIPC   GL110467  18.329   6.981   6.666 -0.0226 -0.2720 -0.0288
    1DIPC   GL210468  18.171   6.733   6.613  0.2799 -0.0461  0.3151
    1DIPC   C1A10469  18.459   6.970   6.188  0.1835  0.3508 -0.0074
    1DIPC   D2A10470  18.673   6.953   5.755 -0.0324 -0.1213 -0.2444
    1DIPC   D3A10471  18.348   6.796   5.530 -0.0026  0.2280 -0.3054
    1DIPC   C4A10472  18.289   6.926   5.151  0.3252  0.0793  0.0567
    1DIPC   C1B10473  18.077   6.576   6.270  0.2040 -0.2168 -0.0703
    1DIPC   D2B10474  18.025   6.514   5.823 -0.1889  0.1282 -0.1481
    1DIPC   D3B10475  17.909   6.109   5.635 -0.0615  0.0283 -0.2238
    1DIPC   C4B10476  18.035   5.679   5.810  0.0307 -0.2327  0.1937
    1DIPC   NC310477  13.435  22.745   5.978  0.0048  0.0570 -0.0312
    1DIPC   PO410478  13.132  22.502   5.995 -0.1600 -0.3397  0.2261
    1DIPC   GL110479  13.165  22.578   5.495  0.3926  0.1411 -0.0147
    1DIPC   GL210480  13.067  22.835   5.407  0.2715  0.3206 -0.0655
    1DIPC   C1A10481  13.302  22.509   5.068  0.2656 -0.1242  0.0684
    1DIPC   D2A10482  13.239  22.731   4.699  0.0032 -0.0065  0.0492
    1DIPC   D3A10483  12.960  22.491   4.476  0.2648 -0.0889  0.0601
    1DIPC   C4A10484  12.554  22.358   4.236 -0.1537 -0.2256  0.2657
    1DIPC   C1B10485  13.064  23.201   5.125  0.0412 -0.0144  0.1340
    1DIPC   D2B10486  13.030  23.320   4.686  0.2511 -0.1792 -0.1226
    1DIPC   D3B10487  13.147  23.637   4.907 -0.0127 -0.2021  0.4038
    1DIPC   C4B10488  13.366  23.813   5.302 -0.2444 -0.2684 -0.0412
    1DIPC   NC310489  10.287   9.971   6.724 -0.5321 -0.0922 -0.4339
    1DIPC   PO410490  10.591  10.311   6.823 -0.0126  0.0580  0.3505
    1DIPC   GL110491  10.750  10.559   6.413  0.1430  0.0847 -0.0868
    1DIPC   GL210492  11.146  10.781   6.412 -0.1600  0.0105  0.0039
    1DIPC   C1A10493  10.609  10.668   5.941  0.2647 -0.1627  0.4347
    1DIPC   D2A10494  10.461  10.705   5.549 -0.0778 -0.0315  0.2435
    1DIPC   D3A10495  10.464  10.733   5.061 -0.0495 -0.3262 -0.0183
    1DIPC   C4A10496  10.551  11.108   4.807 -0.0074 -0.0236 -0.0626
    1DIPC   C1B10497  11.081  10.725   5.974 -0.0773 -0.4003 -0.3390
    1DIPC   D2B10498  11.225  10.638   5.616 -0.0451 -0.1129  0.1063
    1DIPC   D3B10499  11.413  10.497   5.260  0.2639 -0.0188  0.2803
    1DIPC   C4B10500  11.756  10.276   5.264 -0.0020 -0.0655 -0.1890
    1DIPC   NC310501  10.900  11.716   7.062 -0.1303  0.3743 -0.2183
    1DIPC   PO410502  11.311  12.013   6.963 -0.0375 -0.0535 -0.2083
    1DIPC   GL110503  11.381  11.955   6.475 -0.1746  0.1814 -0.1947
    1DIPC   GL210504  11.682  11.954   6.323  0.0361  0.0651 -0.1196
    1DIPC   C1A10505  10.973  12.020   6.225  0.1151  0.0905 -0.2730
    1DIPC   D2A10506  10.928  12.157   5.854 -0.1566  0.1155 -0.2525
    1DIPC   D3A10507  10.421  12.126   5.645  0.0596  0.0118 -0.0624
    1DIPC   C4A10508  10.290  12.175   5.215  0.6152  0.1445  0.0695
    1DIPC   C1B10509  11.732  12.110   5.902 -0.0371 -0.0132  0.2559
    1DIPC   D2B10510  11.812  12.400   5.562 -0.2270  0.0957 -0.1087
    1DIPC   D3B10511  11.880  12.577   5.961  0.2478  0.0634 -0.0177
    1DIPC   C4B10512  11.887  12.398   6.368 -0.0240 -0.1945  0.2258
    1DIPC   NC310513  16.068   1.367   7.077 -0.0136 -0.6028  0.0224
    1DIPC   PO410514  16.230   0.952   6.978 -0.0003 -0.0031 -0.1877
    1DIPC   GL110515  15.917   0.900   6.635 -0.0049 -0.0210 -0.3494
    1DIPC   GL210516  15.717   1.209   6.483  0.4147  0.0420 -0.4371
    1DIPC   C1A10517  15.629   0.626   6.358 -0.0272  0.1918  0.1150
    1DIPC   D2A10518  15.627   0.173   6.214  0.2568  0.0675 -0.1623
    1DIPC   D3A10519  15.541   0.429   5.882 -0.1575  0.2095  0.1496
    1DIPC   C4A10520  15.921   0.707   5.815  0.0943 -0.1145  0.1744
    1DIPC   C1B10521  15.724   1.657   6.430  0.0866 -0.1656 -0.3185
    1DIPC   D2B10522  15.697   1.975   6.206  0.2295 -0.1314 -0.0259
    1DIPC   D3B10523  15.757   2.018   5.788 -0.2135 -0.0552  0.1763
    1DIPC   C4B10524  15.527   2.243   5.452  0.1510  0.0529  0.0416
    1DIPC   NC310525   7.571  21.686   6.412  0.3884  0.4308 -0.0124
    1DIPC   PO410526   7.816  21.344   6.393  0.3133 -0.0114 -0.5921
    1DIPC   GL110527   7.848  21.331   6.040  0.1268 -0.3349  0.1736
    1DIPC   GL210528   8.089  21.525   5.900  0.0382 -0.3077  0.1104
    1DIPC   C1A10529   8.071  21.074   5.745 -0.0713 -0.0712  0.0043
    1DIPC   D2A10530   8.415  21.047   5.549 -0.1549 -0.0201 -0.0217
    1DIPC   D3A10531   8.405  20.581   5.410 -0.0907 -0.0630  0.0474
    1DIPC   C4A10532   8.249  20.409   5.103 -0.0686  0.0714 -0.0362
    1DIPC   C1B10533   8.350  21.549   5.529  0.3318  0.2550  0.2942
    1DIPC   D2B10534   8.490  21.771   5.256 -0.1623 -0.1385 -0.2363
    1DIPC   D3B10535   8.343  21.466   5.020 -0.1220  0.0158 -0.3249
    1DIPC   C4B10536   7.986  21.357   5.189 -0.0034 -0.1466 -0.1270
    1DIPC   NC310537  19.157  27.700   7.229  0.0950  0.0241 -0.1864
    1DIPC   PO410538  19.596  27.820   7.210  0.4119 -0.0484 -0.1101
    1DIPC   GL110539  19.626  27.572   6.808 -0.3358 -0.3096 -0.3229
    1DIPC   GL210540  19.400  27.589   6.667  0.3872  0.2623 -0.0381
    1DIPC   C1A10541  19.854  27.299   6.608  0.0304  0.1928  0.1587
    1DIPC   D2A10542  20.126  27.317   6.223  0.1946  0.2426  0.1013
    1DIPC   D3A10543  20.378  27.221   5.803  0.2790 -0.0023 -0.0077
    1DIPC   C4A10544  20.425  27.483   5.468  0.2868 -0.2413  0.0165
    1DIPC   C1B10545  19.680  27.636   6.259  0.1663 -0.1546 -0.4262
    1DIPC   D2B10546  20.033  27.667   5.844 -0.0358 -0.3210 -0.0299
    1DIPC   D3B10547  20.322  27.916   5.820 -0.0910  0.0463  0.0156
    1DIPC   C4B10548  20.702  27.723   5.895 -0.0561 -0.0101  0.0628
    1DIPC   NC310549  22.473  13.461   6.152  0.0867  0.2029 -0.2691
    1DIPC   PO410550  22.256  13.104   5.905  0.0394  0.1032  0.0837
    1DIPC   GL110551  21.970  13.136   5.608 -0.2298 -0.1180 -0.0057
    1DIPC   GL210552  21.753  13.430   5.551 -0.0230  0.1225 -0.1766
    1DIPC   C1A10553  21.969  13.146   5.126  0.0015  0.2164 -0.3173
    1DIPC   D2A10554  21.934  12.993   4.666  0.3284 -0.0733  0.0714
    1DIPC   D3A10555  22.019  12.845   4.199 -0.0048  0.0405  0.0076
    1DIPC   C4A10556  22.233  12.923   3.867 -0.2790 -0.0813  0.0914
    1DIPC   C1B10557  21.483  13.164   5.325 -0.0670  0.1335  0.3587
    1DIPC   D2B10558  21.304  12.977   4.984 -0.2405  0.2043 -0.1989
    1DIPC   D3B10559  21.500  13.294   4.838 -0.0436 -0.2428  0.2238
    1DIPC   C4B10560  21.447  13.309   4.370 -0.0696 -0.0748  0.0671
    1DIPC   NC310561  13.443   2.958   6.645 -0.1200 -0.0698 -0.0457
    1DIPC   PO410562  13.185   2.582   6.486  0.2390  0.2114  0.2272
    1DIPC   GL110563  13.164   2.726   6.077  0.0393  0.1557  0.0146
    1DIPC   GL210564  13.226   3.057   6.153 -0.3191 -0.0205 -0.4863
    1DIPC   C1A10565  13.120   2.571   5.637  0.2072 -0.0056 -0.0247
    1DIPC   D2A10566  13.053   2.441   5.201  0.0597  0.1654 -0.5040
    1DIPC   D3A10567  12.707   2.609   5.011 -0.0367 -0.2059  0.0736
    1DIPC   C4A10568  12.597   2.403   4.571 -0.1720 -0.1840  0.0573
    1DIPC   C1B10569  13.149   3.098   5.790 -0.1889  0.0006  0.3356
    1DIPC   D2B10570  13.037   3.004   5.401 -0.0119  0.1618 -0.1511
    1DIPC   D3B10571  12.809   3.380   5.182 -0.0247 -0.1963  0.1990
    1DIPC   C4B10572  12.724   3.799   5.357 -0.1319 -0.0358  0.0219
    1DIPC   NC310573  18.294  12.631   5.991  0.0485 -0.0340  0.0328
    1DIPC   PO410574  18.727  12.348   6.125 -0.4124 -0.0507  0.1177
    1DIPC   GL110575  18.681  12.405   5.719 -0.2050  0.0176  0.3614
    1DIPC   GL210576  18.606  12.631   5.515  0.0817 -0.1449 -0.0207
    1DIPC   C1A10577  18.517  12.095   5.386  0.1379 -0.1517  0.0518
    1DIPC   D2A10578  18.279  11.808   5.074  0.1827  0.0964 -0.2354
    1DIPC   D3A10579  18.363  11.450   4.780 -0.1918 -0.0099  0.2047
    1DIPC   C4A10580  18.416  11.355   4.396  0.0184  0.0400  0.1174
    1DIPC   C1B10581  18.576  12.887   5.125  0.2031 -0.1000 -0.2761
    1DIPC   D2B10582  18.632  12.747   4.638  0.1796  0.0111 -0.0462
    1DIPC   D3B10583  18.629  12.644   4.190  0.3422 -0.1221  0.3043
    1DIPC   C4B10584  18.481  12.163   4.181  0.1641  0.2709 -0.0309
    1DIPC   NC310585   5.076  26.413   6.585 -0.2493 -0.0936 -0.0951
    1DIPC   PO410586   4.779  25.910   6.548  0.1171 -0.1267  0.2550
    1DIPC   GL110587   4.814  25.678   6.255  0.0998  0.0843  0.0587
    1DIPC   GL210588   4.479  25.614   6.069 -0.2536  0.3451  0.0184
    1DIPC   C1A10589   4.947  25.538   5.811 -0.1295 -0.0472 -0.0724
    1DIPC   D2A10590   4.766  25.447   5.451 -0.3618 -0.1648 -0.1413
    1DIPC   D3A10591   4.544  25.721   5.594 -0.0304  0.0139  0.1668
    1DIPC   C4A10592   4.231  25.927   5.336 -0.3639 -0.0072  0.3080
    1DIPC   C1B10593   4.567  25.191   5.829  0.1151  0.1340  0.2012
    1DIPC   D2B10594   4.845  25.037   5.663  0.0124 -0.0173  0.0068
    1DIPC   D3B10595   5.262  24.932   5.761  0.0604  0.0236  0.1675
    1DIPC   C4B10596   5.529  24.927   5.453 -0.2415  0.2270 -0.1695
    1DIPC   NC310597  20.953  11.076   6.239 -0.0557  0.2338  0.1756
    1DIPC   PO410598  20.482  11.256   6.163 -0.0088 -0.1180  0.1928
    1DIPC   GL110599  20.254  11.155   5.848 -0.2789 -0.0259 -0.2467
    1DIPC   GL210600  20.047  10.842   5.779  0.1372  0.1207 -0.0872
    1DIPC   C1A10601  20.025  11.373   5.582 -0.1585  0.0629  0.0253
    1DIPC   D2A10602  19.968  11.391   5.137 -0.1292 -0.0373 -0.0897
    1DIPC   D3A10603  19.601  11.299   4.810  0.0653  0.2011  0.0059
    1DIPC   C4A10604  19.415  10.920   4.702 -0.0980  0.2438 -0.2942
    1DIPC   C1B10605  20.106  10.933   5.294 -0.0679 -0.0096 -0.5001
    1DIPC   D2B10606  19.863  10.865   5.024 -0.0633  0.1949 -0.0397
    1DIPC   D3B10607  19.781  10.377   4.967 -0.2033  0.0724 -0.2717
    1DIPC   C4B10608  19.976   9.984   4.753  0.0125  0.3676  0.1540
    1DIPC   NC310609   6.766   4.422   7.236 -0.2111  0.2428  0.1663
    1DIPC   PO410610   7.118   4.251   7.078 -0.1777  0.0545 -0.0616
    1DIPC   GL110611   6.841   4.479   6.770  0.1673  0.3072 -0.2218
    1DIPC   GL210612   7.074   4.770   6.793 -0.1972 -0.1729  0.2298
    1DIPC   C1A10613   6.713   4.909   6.538  0.0435 -0.1612  0.0170
    1DIPC   D2A10614   6.529   5.149   6.244  0.0106  0.1180 -0.0537
    1DIPC   D3A10615   6.929   4.989   5.920 -0.2275 -0.3933  0.1389
    1DIPC   C4A10616   7.200   5.238   5.756 -0.0073  0.0329 -0.0699
    1DIPC   C1B10617   7.073   4.653   6.340  0.1198 -0.2453 -0.1303
    1DIPC   D2B10618   6.969   4.276   6.211 -0.1605  0.0283 -0.0358
    1DIPC   D3B10619   7.034   4.490   5.875 -0.0385 -0.0621  0.0170
    1DIPC   C4B10620   7.280   4.735   5.538 -0.0964  0.0360  0.0496
    1DIPC   NC310621   9.584  17.706   6.938 -0.0750 -0.0183 -0.4105
    1DIPC   PO410622  10.013  17.485   6.807 -0.0429  0.1646 -0.0024
    1DIPC   GL110623  10.021  17.651   6.328  0.0180  0.0866 -0.3082
    1DIPC   GL210624  10.166  18.135   6.237  0.2166 -0.4392  0.1126
    1DIPC   C1A10625  10.095  17.542   5.916  0.1033 -0.0129  0.1978
    1DIPC   D2A10626  10.459  17.333   5.650 -0.1560 -0.0295  0.2316
    1DIPC   D3A10627  10.724  17.614   5.456  0.3982  0.2638  0.3460
    1DIPC   C4A10628  10.881  17.509   5.062  0.3014 -0.0505 -0.3208
    1DIPC   C1B10629   9.935  18.023   5.954  0.0653  0.1274 -0.0481
    1DIPC   D2B10630   9.858  18.158   5.617 -0.1871 -0.2136  0.1185
    1DIPC   D3B10631  10.212  18.316   5.430  0.1390 -0.1484 -0.3769
    1DIPC   C4B10632  10.289  18.705   5.358 -0.0117 -0.0011  0.2059
    1DIPC   NC310633  10.789   6.081   7.108  0.0077 -0.2561  0.0736
    1DIPC   PO410634  10.992   6.375   7.370  0.3799 -0.3067  0.4766
    1DIPC   GL110635  10.907   6.478   6.815 -0.1306  0.0263  0.3239
    1DIPC   GL210636  10.834   6.122   6.544 -0.1101 -0.1620  0.0652
    1DIPC   C1A10637  11.123   6.466   6.395 -0.1756 -0.2472  0.2403
    1DIPC   D2A10638  10.943   6.432   6.012 -0.0899  0.0046 -0.1627
    1DIPC   D3A10639  11.004   6.267   5.502  0.1761 -0.2526 -0.4138
    1DIPC   C4A10640  10.767   6.036   5.228 -0.2402 -0.3594 -0.1175
    1DIPC   C1B10641  10.840   5.926   6.123  0.0548  0.0020  0.0034
    1DIPC   D2B10642  10.783   5.937   5.715  0.2109  0.1469  0.2679
    1DIPC   D3B10643  10.945   5.496   5.561 -0.0421  0.1662  0.1091
    1DIPC   C4B10644  11.168   5.252   5.259  0.0146 -0.1101 -0.1015
    1DIPC   NC310645  13.644   2.079   7.670 -0.4273 -0.0646  0.0989
    1DIPC   PO410646  13.643   1.992   7.163  0.1718  0.0405  0.0387
    1DIPC   GL110647  13.557   1.954   6.679 -0.2864  0.0225 -0.0439
    1DIPC   GL210648  13.801   1.745   6.621 -0.0135 -0.1033 -0.2698
    1DIPC   C1A10649  13.334   1.963   6.292  0.0980 -0.0356 -0.1631
    1DIPC   D2A10650  13.253   2.195   5.975 -0.0774 -0.0610 -0.0853
    1DIPC   D3A10651  13.214   2.099   5.579 -0.1046  0.1114  0.2662
    1DIPC   C4A10652  13.545   2.039   5.519  0.1672 -0.0441  0.1398
    1DIPC   C1B10653  13.629   1.287   6.578 -0.5311  0.1683  0.1438
    1DIPC   D2B10654  13.247   0.887   6.481 -0.3404 -0.1655  0.0703
    1DIPC   D3B10655  12.881   0.980   6.186  0.0066 -0.1310 -0.0976
    1DIPC   C4B10656  12.767   0.639   5.965  0.1655  0.1474 -0.1318
    1DIPC   NC310657  16.482  16.796   6.586 -0.0049  0.1582 -0.0365
    1DIPC   PO410658  15.967  16.625   6.545 -0.0245  0.0146  0.1405
    1DIPC   GL110659  15.780  16.361   6.242  0.0946 -0.1044  0.1443
    1DIPC   GL210660  15.482  16.328   6.247  0.2124  0.0965 -0.0781
    1DIPC   C1A10661  15.855  16.370   5.880 -0.0072  0.0522 -0.0258
    1DIPC   D2A10662  15.945  16.361   5.481 -0.1265 -0.3421 -0.1973
    1DIPC   D3A10663  16.179  16.277   5.119 -0.1267 -0.2214 -0.0956
    1DIPC   C4A10664  16.275  16.614   4.875  0.2648  0.0673 -0.1371
    1DIPC   C1B10665  15.397  16.066   5.878 -0.0171 -0.1057  0.1566
    1DIPC   D2B10666  15.326  15.980   5.404 -0.0786 -0.2860 -0.0933
    1DIPC   D3B10667  15.303  15.983   4.961 -0.2067 -0.3154 -0.3515
    1DIPC   C4B10668  15.273  16.271   4.646 -0.2171 -0.0419  0.1504
    1DIPC   NC310669  22.866   2.791   7.579 -0.1201 -0.1868  0.2015
    1DIPC   PO410670  23.329   2.498   7.659 -0.0724 -0.1693 -0.2068
    1DIPC   GL110671  23.413   2.865   7.329 -0.0396  0.2350 -0.0715
    1DIPC   GL210672  23.045   3.103   7.252 -0.1108 -0.1211  0.0293
    1DIPC   C1A10673  23.483   3.333   7.191 -0.2313 -0.3232  0.0503
    1DIPC   D2A10674  23.367   3.629   7.057  0.0681  0.1580 -0.2915
    1DIPC   D3A10675  23.730   3.843   6.944  0.0805 -0.0743  0.0334
    1DIPC   C4A10676  23.947   3.763   6.546  0.1210 -0.1835  0.2463
    1DIPC   C1B10677  23.179   3.062   6.888  0.1548  0.3044  0.0883
    1DIPC   D2B10678  22.748   3.123   6.715 -0.1652 -0.0586  0.0769
    1DIPC   D3B10679  22.458   3.365   7.024 -0.0076 -0.1998  0.2448
    1DIPC   C4B10680  22.110   3.673   6.969 -0.0619 -0.1249 -0.0753
    1DIPC   NC310681  23.227  28.878   6.890  0.0756  0.0345  0.0988
    1DIPC   PO410682  23.372  28.487   6.971 -0.0664 -0.1086  0.1764
    1DIPC   GL110683  23.200  28.307   6.629 -0.0564 -0.1817 -0.2379
    1DIPC   GL210684  22.824  28.204   6.791 -0.1772  0.0125 -0.0691
    1DIPC   C1A10685  23.004  28.367   6.160  0.0376 -0.0568  0.0214
    1DIPC   D2A10686  23.034  28.225   5.748 -0.0729  0.1972  0.1132
    1DIPC   D3A10687  22.755  28.120   5.442  0.0231  0.0054 -0.2955
    1DIPC   C4A10688  22.783  27.784   5.186 -0.1915  0.0737 -0.2556
    1DIPC   C1B10689  22.507  27.980   6.647  0.2978 -0.1541  0.0301
    1DIPC   D2B10690  22.249  27.868   6.879 -0.2695  0.0807  0.2051
    1DIPC   D3B10691  22.186  27.456   6.686  0.0331  0.0211  0.3090
    1DIPC   C4B10692  21.786  27.245   6.581 -0.1167 -0.0776  0.0708
    1DIPC   NC310693  27.655   9.681   6.755 -0.2801 -0.0984 -0.0080
    1DIPC   PO410694  27.600   9.920   6.260  0.0325 -0.1685  0.2173
    1DIPC   GL110695  27.504   9.762   5.787 -0.1646  0.1891 -0.0355
    1DIPC   GL210696  27.290   9.844   5.649  0.0585 -0.0296  0.2940
    1DIPC   C1A10697  27.666   9.583   5.350  0.0436  0.2363  0.1637
    1DIPC   D2A10698  27.542   9.773   5.024 -0.1045  0.0841  0.2121
    1DIPC   D3A10699  27.903   9.934   4.735  0.2185  0.0183  0.2067
    1DIPC   C4A10700  27.700   9.757   4.326  0.1903  0.1260 -0.3932
    1DIPC   C1B10701  27.049   9.889   5.229 -0.0757  0.2898  0.1988
    1DIPC   D2B10702  27.094   9.689   4.785 -0.0333  0.0442 -0.0309
    1DIPC   D3B10703  27.250   9.299   4.977 -0.0832  0.1445  0.1415
    1DIPC   C4B10704  27.682   9.103   5.194 -0.1757  0.5064  0.0922
    1DIPC   NC310705   9.846  21.611   6.790 -0.2110 -0.4428  0.1072
    1DIPC   PO410706   9.531  21.480   6.408  0.2067 -0.0609  0.1314
    1DIPC   GL110707   9.508  21.548   6.063  0.0377 -0.3125  0.0536
    1DIPC   GL210708   9.842  21.632   5.907 -0.2223  0.2163  0.0043
    1DIPC   C1A10709   9.511  21.545   5.536  0.1342 -0.1381  0.0278
    1DIPC   D2A10710   9.563  21.406   5.053 -0.0205  0.1848  0.1285
    1DIPC   D3A10711   9.121  21.562   5.067  0.0526 -0.1102  0.0937
    1DIPC   C4A10712   8.754  21.334   4.784 -0.3361 -0.0630  0.4418
    1DIPC   C1B10713  10.300  21.638   5.755 -0.1220  0.2693 -0.1242
    1DIPC   D2B10714  10.472  21.500   5.453 -0.2405 -0.1843 -0.0781
    1DIPC   D3B10715  10.486  21.182   5.842  0.4514  0.2254  0.5275
    1DIPC   C4B10716  10.114  21.225   5.983  0.1044  0.0807 -0.1074
    1DIPC   NC310717  15.925  15.985   6.548  0.2263 -0.2569  0.3227
    1DIPC   PO410718  15.515  15.898   6.516  0.1223  0.1364 -0.2687
    1DIPC   GL110719  15.684  15.667   6.179  0.1226  0.1188  0.0049
    1DIPC   GL210720  15.891  15.879   6.042 -0.0514  0.0826  0.3013
    1DIPC   C1A10721  15.485  15.475   5.740 -0.2449 -0.0220  0.2303
    1DIPC   D2A10722  15.343  15.461   5.305  0.0900 -0.2691  0.0962
    1DIPC   D3A10723  15.585  15.007   5.298 -0.1819  0.0950 -0.0705
    1DIPC   C4A10724  16.055  14.794   5.201 -0.1743  0.1471  0.1943
    1DIPC   C1B10725  15.771  15.908   5.622  0.0682  0.2494 -0.0808
    1DIPC   D2B10726  15.722  15.830   5.148 -0.1710 -0.3082 -0.0771
    1DIPC   D3B10727  15.795  16.163   4.735 -0.2948  0.1982 -0.4554
    1DIPC   C4B10728  15.704  16.604   4.693 -0.0373 -0.0463  0.0286
    1DIPC   NC310729  18.922  13.439   5.805  0.0146 -0.0968  0.2134
    1DIPC   PO410730  18.603  13.769   5.922  0.1284  0.1718 -0.0755
    1DIPC   GL110731  18.427  13.550   5.577 -0.0990  0.2173 -0.1003
    1DIPC   GL210732  18.104  13.626   5.456  0.1340  0.1678 -0.0744
    1DIPC   C1A10733  18.506  13.467   5.046  0.0426 -0.1246 -0.0678
    1DIPC   D2A10734  18.397  13.204   4.732  0.0102 -0.0184  0.3131
    1DIPC   D3A10735  18.564  13.510   4.350  0.0126 -0.0376 -0.2891
    1DIPC   C4A10736  18.631  13.936   4.444 -0.1717  0.1910  0.0471
    1DIPC   C1B10737  18.034  13.556   5.097 -0.0908  0.1543  0.3421
    1DIPC   D2B10738  18.118  13.609   4.626  0.0085  0.1181  0.1083
    1DIPC   D3B10739  18.080  13.523   4.169 -0.0331 -0.4404  0.1440
    1DIPC   C4B10740  18.008  13.054   4.104  0.0890  0.0002  0.2012
    1DIPC   NC310741  27.114   5.397   6.848  0.1978 -0.1954  0.2703
    1DIPC   PO410742  27.169   5.811   6.641  0.1936 -0.1455 -0.0915
    1DIPC   GL110743  27.346   5.848   6.288 -0.1833 -0.0742  0.1224
    1DIPC   GL210744  27.455   6.121   6.291 -0.0300 -0.2025  0.2173
    1DIPC   C1A10745  27.153   5.845   5.884  0.0315 -0.0161  0.1960
    1DIPC   D2A10746  26.913   5.977   5.468  0.1268 -0.0131  0.1061
    1DIPC   D3A10747  27.457   5.938   5.467  0.1937 -0.3955 -0.2573
    1DIPC   C4A10748  27.624   5.696   5.723  0.0608  0.0098  0.0820
    1DIPC   C1B10749  27.450   6.223   5.878  0.1389 -0.1907 -0.1457
    1DIPC   D2B10750  27.479   6.412   5.553 -0.0608  0.0606  0.1352
    1DIPC   D3B10751  27.585   6.519   5.067  0.0050  0.2806  0.3090
    1DIPC   C4B10752  27.273   6.558   4.816  0.2143 -0.1908  0.1229
    1DIPC   NC310753   7.674  28.807   7.423 -0.0460  0.1679 -0.0930
    1DIPC   PO410754   8.099  28.927   7.215 -0.0213 -0.0028 -0.2963
    1DIPC   GL110755   8.165  29.306   6.939 -0.1113 -0.0486  0.1672
    1DIPC   GL210756   7.894  29.154   6.798  0.1378 -0.0727 -0.0797
    1DIPC   C1A10757   8.390  29.441   6.598 -0.0065 -0.1916 -0.0365
    1DIPC   D2A10758   8.876  29.392   6.565  0.3854 -0.0713 -0.4683
    1DIPC   D3A10759   9.226  29.205   6.303  0.0073  0.2115  0.0957
    1DIPC   C4A10760   9.276  28.713   6.086 -0.3064 -0.1625 -0.1004
    1DIPC   C1B10761   7.803  29.444   6.434 -0.1919  0.0904  0.0414
    1DIPC   D2B10762   8.014  29.612   6.084  0.2119 -0.0274 -0.2613
    1DIPC   D3B10763   8.274  29.350   5.657  0.3568  0.0748 -0.0303
    1DIPC   C4B10764   8.677  29.124   5.596 -0.0652  0.1114  0.2727
    1DIPC   NC310765  28.099  23.624   6.979  0.1609 -0.1571 -0.0334
    1DIPC   PO410766  27.797  23.403   6.649 -0.1748  0.0433 -0.2250
    1DIPC   GL110767  27.693  23.581   6.258  0.0707  0.3054  0.5888
    1DIPC   GL210768  27.879  23.260   6.130 -0.0474 -0.0183  0.0645
    1DIPC   C1A10769  27.663  23.804   5.862  0.0724  0.0798  0.0160
    1DIPC   D2A10770  27.616  23.968   5.453  0.0158  0.2190 -0.4289
    1DIPC   D3A10771  27.647  24.364   5.249  0.2750  0.2884 -0.0965
    1DIPC   C4A10772  27.363  24.482   4.950  0.1445 -0.2015  0.0197
    1DIPC   C1B10773  27.994  23.039   5.738 -0.2708  0.4465  0.0071
    1DIPC   D2B10774  28.143  22.666   5.622  0.0069  0.1057  0.0255
    1DIPC   D3B10775  27.817  22.626   5.314 -0.1670 -0.4033 -0.3192
    1DIPC   C4B10776  27.875  22.325   4.919  0.3496  0.0478  0.0219
    1DIPC   NC310777  12.167  13.604   7.231 -0.2166 -0.2979 -0.1099
    1DIPC   PO410778  12.201  14.009   7.140  0.2391 -0.2121 -0.3907
    1DIPC   GL110779  12.288  13.953   6.741  0.2349 -0.3608  0.1013
    1DIPC   GL210780  12.310  13.577   6.688 -0.2591 -0.1873 -0.2001
    1DIPC   C1A10781  12.537  14.226   6.423 -0.1183  0.0302 -0.2195
    1DIPC   D2A10782  12.627  14.322   6.079 -0.0991 -0.3423  0.2300
    1DIPC   D3A10783  12.399  14.692   5.987 -0.3913 -0.2786 -0.0441
    1DIPC   C4A10784  12.085  14.658   6.306  0.2156  0.3371  0.1689
    1DIPC   C1B10785  12.090  13.658   6.341  0.1420 -0.0552 -0.2047
    1DIPC   D2B10786  11.772  13.913   6.165 -0.0928  0.0576  0.3039
    1DIPC   D3B10787  12.178  14.139   6.139  0.1212  0.2923 -0.2697
    1DIPC   C4B10788  12.218  14.255   5.750 -0.1739  0.1762  0.0503
    1DIPC   NC310789  18.601   9.842   6.739 -0.1548 -0.0232  0.0942
    1DIPC   PO410790  18.412  10.193   6.605  0.0468  0.0097  0.1232
    1DIPC   GL110791  18.119  10.145   6.334 -0.0677 -0.0653  0.2675
    1DIPC   GL210792  17.800  10.070   6.363  0.0209  0.2412  0.0863
    1DIPC   C1A10793  18.173  10.034   5.927 -0.1011 -0.0154 -0.0061
    1DIPC   D2A10794  17.824   9.991   5.719  0.2211 -0.0328  0.0879
    1DIPC   D3A10795  17.521   9.645   5.555  0.0013  0.1113 -0.1594
    1DIPC   C4A10796  17.181   9.426   5.805 -0.2724 -0.0734  0.0194
    1DIPC   C1B10797  17.842   9.650   6.071 -0.1586 -0.2287  0.4357
    1DIPC   D2B10798  17.768   9.328   5.899 -0.0823 -0.2336  0.3543
    1DIPC   D3B10799  17.701   8.988   5.683 -0.0503  0.2198  0.1606
    1DIPC   C4B10800  17.852   8.564   5.712 -0.6063  0.1927 -0.0712
    1DIPC   NC310801  23.763  24.026   6.606  0.0095 -0.4028  0.0939
    1DIPC   PO410802  23.618  23.767   6.284  0.1482  0.2587 -0.1393
    1DIPC   GL110803  23.958  23.924   6.002 -0.0919  0.1575  0.3496
    1DIPC   GL210804  23.650  24.008   5.858  0.2123 -0.2109  0.1018
    1DIPC   C1A10805  24.107  23.939   5.560 -0.1034  0.1259 -0.3236
    1DIPC   D2A10806  24.232  24.081   5.130  0.0128 -0.1438  0.0311
    1DIPC   D3A10807  23.995  24.178   4.705  0.2549 -0.3076  0.2759
    1DIPC   C4A10808  23.847  24.061   4.238 -0.2158  0.0168 -0.3521
    1DIPC   C1B10809  23.513  24.193   5.367  0.3904 -0.3460 -0.3258
    1DIPC   D2B10810  23.644  24.376   5.007  0.2844 -0.2195  0.1184
    1DIPC   D3B10811  23.208  24.160   4.898 -0.0873  0.0163 -0.0781
    1DIPC   C4B10812  23.137  23.846   5.112 -0.0934 -0.1449  0.3990
    1DIPC   NC310813  19.201  10.750   6.486 -0.2174 -0.0867  0.1926
    1DIPC   PO410814  19.563  10.875   6.231  0.2787 -0.2994 -0.1361
    1DIPC   GL110815  19.239  10.988   5.955  0.1294  0.1871  0.0670
    1DIPC   GL210816  18.895  11.065   6.010 -0.1403 -0.2271 -0.0314
    1DIPC   C1A10817  19.086  10.848   5.577 -0.0141  0.1567 -0.2010
    1DIPC   D2A10818  18.767  10.881   5.370 -0.0266  0.0583 -0.3194
    1DIPC   D3A10819  18.835  10.470   5.545 -0.1770  0.1537  0.3044
    1DIPC   C4A10820  18.621  10.298   5.741  0.1745  0.1531  0.1112
    1DIPC   C1B10821  18.672  11.274   5.653  0.1551  0.1487 -0.0412
    1DIPC   D2B10822  18.467  11.348   5.243 -0.2555 -0.0924  0.0284
    1DIPC   D3B10823  18.043  11.459   5.369  0.0400 -0.1976  0.0696
    1DIPC   C4B10824  17.786  11.215   5.113 -0.0949  0.1442  0.0603
    1DIPC   NC310825  23.811  28.636   6.917  0.0574  0.0396  0.4306
    1DIPC   PO410826  24.106  29.041   6.740  0.1386 -0.3569 -0.1024
    1DIPC   GL110827  23.933  29.086   6.338  0.2106 -0.0285 -0.0593
    1DIPC   GL210828  24.175  29.027   6.192  0.2629 -0.0692 -0.0898
    1DIPC   C1A10829  23.593  29.001   6.178  0.0861 -0.2616  0.1668
    1DIPC   D2A10830  23.384  29.063   5.813  0.2085 -0.2132  0.1292
    1DIPC   D3A10831  23.338  29.036   5.348  0.2965 -0.2186 -0.2314
    1DIPC   C4A10832  23.555  28.670   5.077 -0.3060  0.1224  0.0566
    1DIPC   C1B10833  23.861  29.175   5.794  0.1698  0.1244 -0.1049
    1DIPC   D2B10834  23.712  28.796   5.506 -0.4375 -0.0788  0.0182
    1DIPC   D3B10835  23.880  29.110   5.278  0.0907  0.0795  0.0794
    1DIPC   C4B10836  24.084  29.519   5.367  0.0012 -0.0779 -0.0489
    1DIPC   NC310837  26.642   2.404   6.409 -0.1593 -0.1090  0.1858
    1DIPC   PO410838  26.267   2.133   6.555  0.0280 -0.3546  0.2161
    1DIPC   GL110839  26.064   1.802   6.295 -0.1276 -0.0728 -0.0766
    1DIPC   GL210840  26.058   1.803   6.034 -0.0672 -0.0996  0.2353
    1DIPC   C1A10841  25.574   1.559   6.237  0.0244  0.0599  0.0770
    1DIPC   D2A10842  25.184   1.430   6.078  0.0874 -0.1373  0.0777
    1DIPC   D3A10843  24.802   1.745   6.072 -0.3000  0.3844 -0.0298
    1DIPC   C4A10844  24.827   2.136   5.745  0.0025  0.2548  0.0825
    1DIPC   C1B10845  25.908   1.626   5.751 -0.0862  0.2026  0.0692
    1DIPC   D2B10846  25.686   1.306   5.723  0.1382 -0.3516  0.1570
    1DIPC   D3B10847  25.573   1.484   5.333  0.0126  0.0296 -0.2118
    1DIPC   C4B10848  25.765   1.184   4.992 -0.0838 -0.2771  0.0866
    1DIPC   NC310849  15.878  11.082   6.687  0.1204  0.3241  0.0653
    1DIPC   PO410850  16.097  11.094   6.322  0.2012  0.1082  0.1863
    1DIPC   GL110851  15.907  10.770   5.996  0.1636  0.0548 -0.2305
    1DIPC   GL210852  15.734  10.934   5.802 -0.3209  0.0323  0.3247
    1DIPC   C1A10853  16.219  10.445   5.806  0.3089 -0.0440  0.1590
    1DIPC   D2A10854  16.563  10.112   5.767  0.4567  0.5016 -0.0522
    1DIPC   D3A10855  16.940  10.336   5.862 -0.0880  0.1742  0.1145
    1DIPC   C4A10856  17.160  10.578   5.598 -0.2002  0.0823 -0.1667
    1DIPC   C1B10857  15.604  11.038   5.437  0.0934 -0.1567 -0.1971
    1DIPC   D2B10858  15.357  11.298   5.264  0.1101 -0.3312 -0.1699
    1DIPC   D3B10859  15.224  11.376   4.873 -0.0090  0.1451  0.2611
    1DIPC   C4B10860  14.761  11.304   4.753 -0.1780 -0.0681 -0.0671
    1DIPC   NC310861  15.294  27.761   6.529  0.1193  0.2116  0.1603
    1DIPC   PO410862  15.627  28.018   6.557  0.2523  0.1564  0.0910
    1DIPC   GL110863  15.920  27.609   6.469 -0.6747  0.0598  0.1582
    1DIPC   GL210864  15.754  27.574   6.163  0.1837 -0.1445  0.0112
    1DIPC   C1A10865  16.199  27.267   6.151  0.1925 -0.2969  0.1794
    1DIPC   D2A10866  16.429  27.127   5.784  0.1638  0.2660  0.1680
    1DIPC   D3A10867  16.035  26.910   5.708 -0.0199  0.0123 -0.1249
    1DIPC   C4A10868  16.042  26.496   5.635 -0.0750  0.3048 -0.0573
    1DIPC   C1B10869  15.410  27.400   5.904 -0.0800 -0.2139 -0.0283
    1DIPC   D2B10870  15.135  27.061   5.920 -0.2019  0.2188  0.1676
    1DIPC   D3B10871  14.716  27.072   5.746  0.2405 -0.0785  0.3550
    1DIPC   C4B10872  14.518  26.780   5.493  0.0019  0.0434  0.2062
    1DIPC   NC310873  20.683  15.686   6.178 -0.3020 -0.1524  0.0195
    1DIPC   PO410874  20.869  15.335   5.811 -0.0147  0.0813  0.0641
    1DIPC   GL110875  20.773  15.418   5.445  0.0517 -0.2741 -0.0267
    1DIPC   GL210876  20.936  15.682   5.218 -0.0100 -0.2465 -0.0436
    1DIPC   C1A10877  20.855  15.139   5.195  0.3589 -0.1359  0.0203
    1DIPC   D2A10878  21.167  14.839   4.964  0.1365  0.0730  0.2248
    1DIPC   D3A10879  21.586  14.994   4.768  0.2434 -0.2278  0.1850
    1DIPC   C4A10880  21.329  15.335   4.427 -0.1630 -0.0254 -0.0471
    1DIPC   C1B10881  20.859  15.543   4.907  0.0641  0.1102  0.0162
    1DIPC   D2B10882  20.940  15.230   4.679  0.0968 -0.3739  0.2256
    1DIPC   D3B10883  20.619  15.318   4.414 -0.5315 -0.1802 -0.0621
    1DIPC   C4B10884  20.674  15.288   4.027 -0.0138  0.1149  0.0410
    1DIPC   NC310885   2.479   4.707   6.704  0.0821 -0.0022  0.2255
    1DIPC   PO410886   2.913   4.556   6.740 -0.2315 -0.1627 -0.4168
    1DIPC   GL110887   2.862   4.658   6.345 -0.0808 -0.1856  0.0780
    1DIPC   GL210888   3.173   4.855   6.277 -0.0337  0.0030  0.1572
    1DIPC   C1A10889   2.597   4.444   6.034  0.1026  0.2019  0.1282
    1DIPC   D2A10890   2.775   4.425   5.555  0.0334 -0.1123 -0.0783
    1DIPC   D3A10891   2.905   4.089   5.375 -0.1920 -0.0875  0.2415
    1DIPC   C4A10892   3.294   4.169   5.044 -0.0416  0.0785 -0.3285
    1DIPC   C1B10893   3.198   4.448   5.958 -0.1876 -0.1560  0.0013
    1DIPC   D2B10894   3.410   4.379   5.539 -0.0823  0.0315 -0.1345
    1DIPC   D3B10895   3.170   4.613   5.244  0.0120  0.0762 -0.2448
    1DIPC   C4B10896   3.158   4.993   5.322  0.2673  0.1270  0.0218
    1DIPC   NC310897  29.754   8.311   7.016  0.0541  0.2706 -0.2233
    1DIPC   PO410898  30.166   8.416   6.962  0.2109 -0.1676  0.1587
    1DIPC   GL110899  30.184   8.375   6.580 -0.0451  0.0475 -0.0332
    1DIPC   GL210900  29.844   8.192   6.471 -0.0640  0.0584 -0.0780
    1DIPC   C1A10901  30.327   8.270   6.147  0.0130  0.2299 -0.2068
    1DIPC   D2A10902  30.443   8.069   5.864 -0.2334  0.1720 -0.0567
    1DIPC   D3A10903  30.255   7.788   5.653 -0.2582  0.0439  0.1151
    1DIPC   C4A10904  30.309   7.742   5.234  0.2360 -0.0477  0.1779
    1DIPC   C1B10905  29.864   8.431   6.115  0.0129 -0.4197 -0.1797
    1DIPC   D2B10906  29.679   8.681   6.050  0.1352  0.1183  0.0573
    1DIPC   D3B10907  29.607   8.996   5.723 -0.2461  0.1038 -0.1757
    1DIPC   C4B10908  29.208   9.159   5.660  0.0562  0.1438 -0.1462
    1DIPC   NC310909   5.869  27.124   6.878  0.2733  0.0742 -0.1414
    1DIPC   PO410910   6.295  27.264   6.871 -0.0565  0.0122 -0.0674
    1DIPC   GL110911   6.234  27.205   6.409  0.3358 -0.0150  0.0772
    1DIPC   GL210912   6.164  27.482   6.225  0.2068  0.3052 -0.0399
    1DIPC   C1A10913   6.101  26.904   6.143  0.0499 -0.0948 -0.1491
    1DIPC   D2A10914   6.222  26.670   5.796  0.0118 -0.3941 -0.0889
    1DIPC   D3A10915   5.934  26.744   5.458 -0.0073  0.1871  0.1569
    1DIPC   C4A10916   6.124  26.716   5.177  0.2975 -0.0715  0.5468
    1DIPC   C1B10917   6.237  27.248   5.830 -0.0586 -0.0188 -0.1455
    1DIPC   D2B10918   6.262  27.147   5.453 -0.1395  0.0096  0.2358
    1DIPC   D3B10919   6.679  27.432   5.275 -0.1334  0.1374  0.0963
    1DIPC   C4B10920   6.624  27.230   4.901  0.0074 -0.0749  0.1556
    1DIPC   NC310921  14.678  16.660   7.058 -0.2023  0.1632 -0.1111
    1DIPC   PO410922  14.782  17.046   7.000 -0.2199 -0.1133 -0.0819
    1DIPC   GL110923  14.874  17.195   6.572  0.3789 -0.0411  0.0867
    1DIPC   GL210924  14.494  17.387   6.607 -0.3109  0.1032  0.2182
    1DIPC   C1A10925  14.692  17.105   6.211 -0.1526  0.2252  0.1684
    1DIPC   D2A10926  14.870  16.912   5.832 -0.1179 -0.0990 -0.0966
    1DIPC   D3A10927  14.500  16.864   5.515  0.1723  0.1213  0.1224
    1DIPC   C4A10928  14.443  16.525   5.160  0.0523  0.3600 -0.0260
    1DIPC   C1B10929  14.433  17.622   6.220 -0.1430  0.0546 -0.0565
    1DIPC   D2B10930  14.278  17.637   5.861 -0.0464  0.2616 -0.0973
    1DIPC   D3B10931  14.575  17.333   5.755  0.2050 -0.1699  0.1563
    1DIPC   C4B10932  14.945  17.340   5.579 -0.0988 -0.4894 -0.0565
    1DIPC   NC310933  16.662   5.534   6.866  0.2495 -0.1704 -0.0610
    1DIPC   PO410934  16.557   5.128   7.007 -0.1586  0.1687 -0.1103
    1DIPC   GL110935  16.369   4.836   6.681 -0.1111  0.0873  0.0518
    1DIPC   GL210936  16.025   4.756   6.495 -0.2543  0.0155 -0.2761
    1DIPC   C1A10937  16.367   4.450   6.762 -0.0072 -0.1298  0.1805
    1DIPC   D2A10938  16.126   4.087   6.912  0.3960 -0.2794 -0.0164
    1DIPC   D3A10939  15.786   4.118   6.595 -0.3492 -0.3523 -0.0824
    1DIPC   C4A10940  15.898   3.838   6.417 -0.1635  0.0645 -0.0650
    1DIPC   C1B10941  15.976   4.818   6.077 -0.1443  0.1955 -0.0207
    1DIPC   D2B10942  16.217   4.969   5.707  0.3758  0.1720  0.1055
    1DIPC   D3B10943  15.974   4.869   5.445  0.1691  0.2743  0.2838
    1DIPC   C4B10944  15.765   5.227   5.308 -0.3842  0.0348 -0.0940
    1DIPC   NC310945   7.563  27.701   7.376  0.0499  0.1223  0.0419
    1DIPC   PO410946   7.888  27.846   7.015 -0.1169  0.2730 -0.2893
    1DIPC   GL110947   7.777  28.120   6.724  0.1486  0.3560  0.0721
    1DIPC   GL210948   7.567  27.940   6.574 -0.0928  0.1240 -0.2357
    1DIPC   C1A10949   7.972  28.297   6.341  0.2572  0.1605  0.0194
    1DIPC   D2A10950   8.218  27.996   5.990  0.1211  0.1065 -0.2814
    1DIPC   D3A10951   8.207  28.266   5.609  0.0511  0.2378  0.0355
    1DIPC   C4A10952   8.326  28.506   5.212  0.4406  0.1498 -0.1452
    1DIPC   C1B10953   7.486  28.294   6.351 -0.0289  0.2726 -0.0206
    1DIPC   D2B10954   7.449  28.537   6.046 -0.3370  0.1183  0.2982
    1DIPC   D3B10955   7.549  28.728   5.645  0.1024 -0.1308  0.3072
    1DIPC   C4B10956   7.858  28.635   5.364 -0.2477  0.2866 -0.1262
    1DIPC   NC310957  17.437  21.821   6.487  0.1021  0.2480 -0.0112
    1DIPC   PO410958  17.411  21.541   6.184  0.1245  0.0223  0.2191
    1DIPC   GL110959  17.387  21.801   5.918 -0.3431 -0.1148 -0.1143
    1DIPC   GL210960  17.658  21.926   5.844 -0.0606  0.0963 -0.1163
    1DIPC   C1A10961  17.358  21.705   5.493  0.0242 -0.0996 -0.0838
    1DIPC   D2A10962  17.481  21.512   5.004  0.1170 -0.2160  0.3579
    1DIPC   D3A10963  17.644  21.131   4.932 -0.0322  0.1080 -0.1523
    1DIPC   C4A10964  17.783  20.820   5.187 -0.1172  0.2203 -0.0807
    1DIPC   C1B10965  17.903  21.774   5.591 -0.0071  0.1827 -0.1494
    1DIPC   D2B10966  18.169  21.954   5.242 -0.0575 -0.1332  0.1829
    1DIPC   D3B10967  17.930  21.967   4.855  0.0314 -0.0363 -0.1158
    1DIPC   C4B10968  17.916  21.584   4.700  0.1119  0.2821  0.0972
    1DIPC   NC310969  10.253  25.277   7.083  0.2564  0.0682 -0.1216
    1DIPC   PO410970   9.863  25.122   6.892  0.1603  0.0405 -0.0378
    1DIPC   GL110971   9.733  25.269   6.508 -0.2133  0.0222  0.0852
    1DIPC   GL210972   9.643  25.568   6.533 -0.1362 -0.3498  0.0636
    1DIPC   C1A10973   9.836  25.483   6.061  0.3706 -0.1283 -0.1748
    1DIPC   D2A10974   9.527  25.743   6.014 -0.1869 -0.1405  0.0484
    1DIPC   D3A10975   9.532  26.106   5.754  0.0196 -0.0065 -0.0991
    1DIPC   C4A10976   9.762  26.070   5.391 -0.0054 -0.0225 -0.3486
    1DIPC   C1B10977   9.941  25.814   6.368 -0.1719 -0.2373  0.0561
    1DIPC   D2B10978  10.019  25.920   5.920 -0.1892 -0.0920 -0.1637
    1DIPC   D3B10979   9.790  25.625   5.581  0.0645  0.0424  0.1453
    1DIPC   C4B10980   9.373  25.720   5.378  0.2217  0.1036 -0.0015
    1DIPC   NC310981   9.682  19.862   7.020  0.0780  0.0764  0.1214
    1DIPC   PO410982  10.084  19.988   6.901 -0.0116  0.0278  0.2849
    1DIPC   GL110983  10.040  19.763   6.472 -0.1378 -0.0333  0.2768
    1DIPC   GL210984   9.972  19.304   6.405  0.1426 -0.1480 -0.4159
    1DIPC   C1A10985   9.832  19.609   6.036  0.0683  0.2400  0.0368
    1DIPC   D2A10986   9.909  19.436   5.703  0.0193 -0.1144  0.1257
    1DIPC   D3A10987   9.859  19.004   5.735  0.1395 -0.0927  0.0036
    1DIPC   C4A10988   9.845  18.674   5.484 -0.0599  0.2178 -0.0789
    1DIPC   C1B10989   9.620  19.140   6.152  0.2251 -0.0851  0.1257
    1DIPC   D2B10990   9.193  19.019   6.052  0.2211 -0.2339 -0.0778
    1DIPC   D3B10991   9.430  18.772   5.803  0.1287 -0.0719  0.1397
    1DIPC   C4B10992   9.658  18.524   5.897 -0.0324  0.1507  0.0233
    1DIPC   NC310993  23.615  12.333   5.720 -0.0414 -0.1762 -0.0473
    1DIPC   PO410994  23.525  12.153   5.360 -0.0739  0.2804 -0.1680
    1DIPC   GL110995  23.556  12.199   4.941 -0.1273  0.0515  0.1330
    1DIPC   GL210996  23.373  12.404   4.813 -0.1154 -0.1312 -0.2486
    1DIPC   C1A10997  23.649  12.176   4.520 -0.1904 -0.1474 -0.4743
    1DIPC   D2A10998  23.640  12.029   4.197  0.2861 -0.0451 -0.1876
    1DIPC   D3A10999  23.687  12.333   3.937  0.0024  0.2062 -0.3495
    1DIPC   C4A11000  23.714  12.124   3.604 -0.0635 -0.1634  0.3849
    1DIPC   C1B11001  23.599  12.731   4.538  0.0079 -0.1068 -0.0665
    1DIPC   D2B11002  23.661  13.153   4.204  0.1598 -0.0842 -0.0496
    1DIPC   D3B11003  23.325  13.243   3.875  0.1304  0.1670  0.1017
    1DIPC   C4B11004  22.940  13.064   3.926 -0.1792  0.1892 -0.1674
    1DIPC   NC311005  20.210  21.836   6.279 -0.2784  0.1824 -0.0551
    1DIPC   PO411006  20.556  21.648   6.123 -0.0038  0.2081  0.4379
    1DIPC   GL111007  20.673  21.755   5.813  0.0409 -0.3345  0.1733
    1DIPC   GL211008  20.973  21.603   5.679 -0.3597 -0.1596  0.2446
    1DIPC   C1A11009  20.491  21.855   5.397 -0.0061 -0.0393 -0.0118
    1DIPC   D2A11010  20.538  21.764   4.924 -0.1548  0.3490  0.2523
    1DIPC   D3A11011  20.385  22.176   5.030  0.0268 -0.1957  0.1222
    1DIPC   C4A11012  20.383  22.613   4.877  0.1088  0.5167  0.0026
    1DIPC   C1B11013  20.687  21.413   5.318  0.1786  0.1768  0.0485
    1DIPC   D2B11014  20.723  21.292   4.907  0.1115  0.1545 -0.3098
    1DIPC   D3B11015  20.399  21.314   4.524  0.1889 -0.1735  0.0311
    1DIPC   C4B11016  20.511  21.036   4.237  0.2059  0.0345 -0.2872
    1DIPC   NC311017   7.912  10.966   6.921 -0.3303 -0.1302  0.2299
    1DIPC   PO411018   7.994  11.361   7.134  0.1871 -0.0150  0.1455
    1DIPC   GL111019   7.773  11.415   6.705 -0.2291  0.1301  0.2607
    1DIPC   GL211020   7.482  11.329   6.756  0.0213  0.1554  0.3115
    1DIPC   C1A11021   7.987  11.164   6.287  0.1695  0.2798  0.1108
    1DIPC   D2A11022   8.228  10.811   6.225 -0.0307 -0.1813 -0.1475
    1DIPC   D3A11023   8.555  10.789   6.475  0.2502 -0.2792 -0.1090
    1DIPC   C4A11024   8.940  10.949   6.198 -0.0106 -0.1926 -0.2690
    1DIPC   C1B11025   7.446  11.234   6.316  0.2389  0.2448 -0.2641
    1DIPC   D2B11026   7.695  11.320   5.869  0.2903 -0.2088  0.1610
    1DIPC   D3B11027   8.032  11.603   5.929  0.1530 -0.0955  0.0422
    1DIPC   C4B11028   8.088  11.638   6.392  0.2915  0.0465 -0.1659
    1DIPC   NC311029  13.013  23.839   6.924 -0.2184 -0.1196 -0.0693
    1DIPC   PO411030  12.943  24.076   6.530 -0.2444  0.1074  0.0219
    1DIPC   GL111031  13.094  24.110   6.067  0.1855  0.2846  0.1749
    1DIPC   GL211032  13.285  24.306   5.924 -0.1833  0.0019 -0.0910
    1DIPC   C1A11033  12.965  23.976   5.590 -0.0861  0.1035  0.0967
    1DIPC   D2A11034  12.771  24.068   5.116  0.0984  0.2184  0.1372
    1DIPC   D3A11035  13.219  24.158   4.930  0.1568 -0.0058  0.2374
    1DIPC   C4A11036  13.094  24.538   4.519  0.2459 -0.0126 -0.0958
    1DIPC   C1B11037  13.281  24.370   5.512  0.0364 -0.0138  0.1558
    1DIPC   D2B11038  13.189  24.698   5.250 -0.4665 -0.0130 -0.0725
    1DIPC   D3B11039  12.925  24.866   4.863 -0.2173  0.2592 -0.4440
    1DIPC   C4B11040  12.446  24.829   4.828 -0.1238  0.0684 -0.1547
    1DIPC   NC311041   9.443   1.568   7.246  0.1732 -0.1152 -0.0572
    1DIPC   PO411042   9.038   1.811   7.256  0.1291  0.0229 -0.0812
    1DIPC   GL111043   8.795   1.969   6.889  0.1311  0.0128 -0.0520
    1DIPC   GL211044   8.782   2.366   6.978  0.1720  0.2953  0.1044
    1DIPC   C1A11045   8.467   2.199   6.571  0.1443 -0.0524 -0.1581
    1DIPC   D2A11046   8.497   2.448   6.186 -0.1312 -0.1305 -0.1902
    1DIPC   D3A11047   8.448   2.722   5.977 -0.2527  0.3755 -0.4427
    1DIPC   C4A11048   8.371   2.711   5.515  0.3146  0.0414 -0.2315
    1DIPC   C1B11049   8.837   2.764   6.967  0.0521  0.2794  0.0685
    1DIPC   D2B11050   9.047   3.110   7.150 -0.2103 -0.0958 -0.3074
    1DIPC   D3B11051   9.299   3.354   6.900  0.0720 -0.0182  0.3705
    1DIPC   C4B11052   9.164   3.359   6.484 -0.2937  0.2815 -0.1591
    1DIPC   NC311053  23.030   0.148   6.714 -0.0335 -0.1838 -0.0632
    1DIPC   PO411054  23.127  -0.147   6.531 -0.2803  0.1470  0.0311
    1DIPC   GL111055  23.235  -0.366   6.240 -0.1152  0.2137  0.1368
    1DIPC   GL211056  23.020  -0.528   6.097  0.1175 -0.1093  0.0786
    1DIPC   C1A11057  23.453  -0.293   5.941  0.1256 -0.0647  0.2535
    1DIPC   D2A11058  23.484  -0.305   5.474 -0.0782 -0.1550  0.2594
    1DIPC   D3A11059  23.140  -0.164   5.576  0.0465  0.2164 -0.0532
    1DIPC   C4A11060  22.969   0.197   5.388 -0.1947 -0.1121 -0.0569
    1DIPC   C1B11061  22.875  -0.554   5.759 -0.2326  0.0824 -0.0672
    1DIPC   D2B11062  22.942  -0.531   5.206  0.0258 -0.0194  0.0828
    1DIPC   D3B11063  22.775  -0.103   5.073  0.2550 -0.3797 -0.1311
    1DIPC   C4B11064  22.748   0.194   4.654  0.0556 -0.3908 -0.0389
    1DIPC   NC311065  23.228  17.118   5.303  0.3267  0.3501 -0.3563
    1DIPC   PO411066  22.912  16.999   5.465 -0.2585 -0.1729 -0.1701
    1DIPC   GL111067  22.616  17.255   5.191 -0.1389  0.3670  0.2757
    1DIPC   GL211068  22.193  17.289   5.197  0.1105 -0.0550 -0.0985
    1DIPC   C1A11069  22.528  17.316   4.813  0.3539  0.2121  0.1739
    1DIPC   D2A11070  22.291  17.404   4.414  0.0632  0.0107 -0.0550
    1DIPC   D3A11071  22.354  17.205   4.032 -0.1268  0.0170  0.2425
    1DIPC   C4A11072  22.470  17.413   3.695  0.1335 -0.1074  0.1588
    1DIPC   C1B11073  22.287  16.919   4.898  0.0258 -0.1492  0.0236
    1DIPC   D2B11074  22.521  16.530   4.796 -0.3214 -0.0339  0.1987
    1DIPC   D3B11075  22.431  16.797   4.308 -0.0241  0.0381  0.2125
    1DIPC   C4B11076  22.452  16.595   3.975  0.1361 -0.1470  0.0360
    1DIPC   NC311077   1.660   5.650   6.385  0.1413  0.0443  0.2762
    1DIPC   PO411078   1.681   5.291   6.678  0.2059  0.0385  0.0424
    1DIPC   GL111079   1.920   5.198   6.318  0.2267  0.0525 -0.0943
    1DIPC   GL211080   1.717   4.917   6.069  0.2052 -0.1341 -0.1604
    1DIPC   C1A11081   1.980   5.274   5.846 -0.0811  0.0386  0.0693
    1DIPC   D2A11082   1.883   4.989   5.445 -0.2416  0.2059  0.3517
    1DIPC   D3A11083   2.036   5.390   5.282 -0.3223 -0.0017 -0.1324
    1DIPC   C4A11084   2.382   5.391   5.056 -0.1754 -0.1073 -0.1759
    1DIPC   C1B11085   1.221   4.951   6.167  0.2650 -0.1811  0.0986
    1DIPC   D2B11086   0.756   5.316   6.136 -0.1377  0.0420  0.1158
    1DIPC   D3B11087   0.702   5.562   5.731 -0.1515  0.0362  0.4497
    1DIPC   C4B11088   1.056   5.563   5.412  0.3465  0.3992  0.1618
    1DIPC   NC311089  29.282   1.093   7.408  0.1949 -0.1908  0.1761
    1DIPC   PO411090  29.196   1.196   6.979  0.1874  0.0615  0.1139
    1DIPC   GL111091  29.020   1.134   6.592  0.1097  0.0186  0.0879
    1DIPC   GL211092  28.786   1.214   6.522  0.2341 -0.3325 -0.2059
    1DIPC   C1A11093  29.063   0.967   6.219 -0.0802  0.1176  0.0066
    1DIPC   D2A11094  29.282   0.666   5.953 -0.1383 -0.2250  0.2984
    1DIPC   D3A11095  29.595   0.823   5.614  0.0639  0.0278 -0.1161
    1DIPC   C4A11096  29.588   0.630   5.226 -0.1327  0.1670  0.0241
    1DIPC   C1B11097  28.859   1.382   6.109  0.1072 -0.0975 -0.1205
    1DIPC   D2B11098  28.956   1.269   5.803  0.3590 -0.0688  0.1785
    1DIPC   D3B11099  29.121   1.623   5.582 -0.1345 -0.2938  0.0601
    1DIPC   C4B11100  29.169   1.551   5.133 -0.0473 -0.0223  0.0390
    1DIPC   NC311101   7.090  23.509   6.657  0.1360 -0.0438  0.0540
    1DIPC   PO411102   7.381  23.315   6.395  0.0512 -0.2929 -0.1753
    1DIPC   GL111103   7.556  23.412   5.993  0.2872 -0.1607  0.2435
    1DIPC   GL211104   7.288  23.379   5.753 -0.0973  0.0254 -0.0896
    1DIPC   C1A11105   7.863  23.432   5.642 -0.0116 -0.2729  0.2014
    1DIPC   D2A11106   8.346  23.496   5.552  0.1048  0.3669  0.0438
    1DIPC   D3A11107   8.327  23.576   5.135 -0.2960  0.5242  0.0517
    1DIPC   C4A11108   8.622  23.627   4.882 -0.0251 -0.0399  0.0632
    1DIPC   C1B11109   7.049  23.657   5.613  0.1225  0.2255 -0.0535
    1DIPC   D2B11110   6.954  23.977   5.304  0.2450 -0.0484 -0.1814
    1DIPC   D3B11111   7.311  24.069   5.177 -0.3203 -0.1411 -0.1459
    1DIPC   C4B11112   7.490  24.404   4.807 -0.2513  0.2375  0.2119
    1DIPC   NC311113  27.213  26.056   7.068  0.1915  0.3266 -0.0722
    1DIPC   PO411114  27.268  25.935   6.715 -0.0316 -0.2918 -0.1332
    1DIPC   GL111115  27.139  25.820   6.386  0.0136 -0.2476 -0.5279
    1DIPC   GL211116  26.887  25.755   6.372 -0.1886 -0.1711 -0.1399
    1DIPC   C1A11117  27.149  25.962   5.935  0.0583  0.3195 -0.0611
    1DIPC   D2A11118  27.104  26.403   5.772 -0.0791  0.1447  0.0653
    1DIPC   D3A11119  26.806  26.213   5.600 -0.3000  0.1919 -0.1194
    1DIPC   C4A11120  26.764  26.145   5.159  0.1081  0.5707  0.2409
    1DIPC   C1B11121  26.784  26.161   6.224 -0.0732 -0.3143 -0.3693
    1DIPC   D2B11122  26.582  26.555   6.221  0.2358  0.3987  0.3400
    1DIPC   D3B11123  26.376  26.669   5.783 -0.2993 -0.0913 -0.0200
    1DIPC   C4B11124  26.339  26.446   5.375 -0.0253 -0.0306  0.3721
    1DIPC   NC311125  19.806  10.327   6.383 -0.2312 -0.1408  0.0919
    1DIPC   PO411126  20.306  10.509   6.409 -0.1231  0.1195  0.0085
    1DIPC   GL111127  20.255  10.385   5.924  0.2667 -0.0127  0.3457
    1DIPC   GL211128  20.504  10.279   5.753 -0.1559  0.1704 -0.0913
    1DIPC   C1A11129  20.075   9.991   5.730 -0.1903 -0.0492 -0.0819
    1DIPC   D2A11130  19.916   9.671   5.929  0.3458  0.1355  0.0179
    1DIPC   D3A11131  19.939   9.227   5.903  0.0690  0.2213  0.2854
    1DIPC   C4A11132  19.566   8.931   6.028  0.0138  0.2072 -0.2340
    1DIPC   C1B11133  20.698  10.062   5.446 -0.1756  0.1391 -0.0175
    1DIPC   D2B11134  20.541  10.165   4.989  0.0888  0.5867 -0.1225
    1DIPC   D3B11135  20.515   9.751   4.821 -0.1085  0.1074 -0.1335
    1DIPC   C4B11136  20.227   9.513   4.888  0.3257 -0.2028  0.1051
    1DIPC   NC311137   9.071   9.078   7.248 -0.0337 -0.0653 -0.0820
    1DIPC   PO411138   9.145   8.865   6.890  0.1639  0.0766  0.0674
    1DIPC   GL111139   8.894   8.914   6.478 -0.1646  0.2606  0.0710
    1DIPC   GL211140   8.516   8.902   6.473  0.0787 -0.0749  0.0638
    1DIPC   C1A11141   8.755   8.939   6.072  0.1330  0.1814 -0.3736
    1DIPC   D2A11142   8.587   9.029   5.634  0.0288  0.0450 -0.3698
    1DIPC   D3A11143   8.731   9.147   5.239 -0.4111 -0.2337 -0.0295
    1DIPC   C4A11144   9.159   9.011   5.061  0.3307 -0.1386 -0.0432
    1DIPC   C1B11145   8.162   8.763   6.136 -0.0450  0.1048  0.1959
    1DIPC   D2B11146   8.250   8.632   5.696  0.1227 -0.1227  0.0128
    1DIPC   D3B11147   8.098   8.303   5.711  0.1052  0.1224  0.2619
    1DIPC   C4B11148   7.801   8.047   5.422  0.1234  0.1332  0.0818
    1DIPC   NC311149  13.044   3.093   7.153 -0.1434 -0.2376  0.2223
    1DIPC   PO411150  12.906   2.995   6.712  0.4403 -0.1225  0.6582
    1DIPC   GL111151  12.729   2.924   6.268  0.0772 -0.3685  0.3457
    1DIPC   GL211152  12.534   3.151   6.231  0.3945 -0.1467  0.1417
    1DIPC   C1A11153  12.632   2.605   5.820 -0.1278 -0.0389  0.2213
    1DIPC   D2A11154  12.400   2.704   5.407 -0.2318 -0.3653 -0.0043
    1DIPC   D3A11155  12.089   3.035   5.511  0.0911  0.1336  0.1959
    1DIPC   C4A11156  11.712   2.960   5.124 -0.1665 -0.2560 -0.0181
    1DIPC   C1B11157  12.187   3.365   5.967 -0.0041  0.0581 -0.2099
    1DIPC   D2B11158  11.918   3.497   5.702  0.0215  0.0711 -0.1396
    1DIPC   D3B11159  12.303   3.494   5.435  0.2534 -0.0790 -0.0053
    1DIPC   C4B11160  12.346   3.233   5.068  0.0968 -0.0036 -0.0707
    1DIPC   NC311161  11.807   3.396   7.571 -0.0105 -0.5705 -0.3354
    1DIPC   PO411162  11.683   3.103   7.281  0.0971 -0.0616 -0.4220
    1DIPC   GL111163  11.513   3.192   6.953 -0.0364 -0.1110 -0.3141
    1DIPC   GL211164  11.540   3.011   6.727 -0.0255 -0.1266  0.3062
    1DIPC   C1A11165  11.073   3.089   6.824 -0.0032 -0.2457  0.0336
    1DIPC   D2A11166  10.727   3.269   6.757 -0.0409 -0.2543 -0.1575
    1DIPC   D3A11167  10.795   2.916   6.417  0.0134 -0.1113 -0.0606
    1DIPC   C4A11168  10.612   2.937   6.015  0.0488  0.1212  0.1658
    1DIPC   C1B11169  11.359   2.958   6.328  0.2562  0.1456  0.1107
    1DIPC   D2B11170  11.369   2.698   6.081 -0.1196 -0.1351  0.4016
    1DIPC   D3B11171  11.676   2.680   5.696  0.0099  0.1292  0.2758
    1DIPC   C4B11172  11.385   2.537   5.284 -0.0045  0.0346  0.1419
    1DIPC   NC311173  15.947   9.588   6.442 -0.0824  0.0368  0.2573
    1DIPC   PO411174  15.504   9.496   6.517 -0.2253 -0.0306 -0.3029
    1DIPC   GL111175  15.499   9.448   6.145 -0.2609 -0.2266 -0.1778
    1DIPC   GL211176  15.273   9.654   6.071  0.0009 -0.0350  0.0055
    1DIPC   C1A11177  15.814   9.146   5.942 -0.4145  0.0024  0.1404
    1DIPC   D2A11178  16.153   8.845   5.870 -0.1524  0.3432  0.1245
    1DIPC   D3A11179  16.284   9.005   5.584 -0.0777  0.0625  0.0967
    1DIPC   C4A11180  16.243   9.053   5.159 -0.2632  0.1376  0.1114
    1DIPC   C1B11181  15.414   9.356   5.695 -0.1575  0.1157 -0.1640
    1DIPC   D2B11182  15.472   9.012   5.450  0.3756  0.1528 -0.3110
    1DIPC   D3B11183  15.757   8.864   5.110 -0.0271  0.1568  0.1730
    1DIPC   C4B11184  15.860   9.099   4.622  0.0263  0.0463 -0.2733
    1DIPC   NC311185   2.289  23.883   7.689  0.0546 -0.0707 -0.1704
    1DIPC   PO411186   2.438  23.903   7.296  0.1338  0.2671 -0.2489
    1DIPC   GL111187   2.539  23.937   6.942  0.0170  0.2568 -0.2183
    1DIPC   GL211188   2.790  23.934   6.687 -0.2698 -0.0279 -0.1880
    1DIPC   C1A11189   2.342  24.064   6.508 -0.1115  0.1220 -0.0602
    1DIPC   D2A11190   1.925  24.297   6.477  0.1051 -0.3583 -0.0772
    1DIPC   D3A11191   1.645  24.644   6.304  0.2878  0.0506 -0.0893
    1DIPC   C4A11192   1.937  24.881   6.197  0.0919 -0.0375  0.1207
    1DIPC   C1B11193   2.728  24.134   6.171  0.3023  0.0675 -0.0727
    1DIPC   D2B11194   2.897  24.035   5.710  0.2573  0.4235  0.1082
    1DIPC   D3B11195   2.689  23.994   5.321 -0.0659 -0.0301  0.2412
    1DIPC   C4B11196   2.350  23.767   5.354 -0.1845 -0.2945  0.0909
    1DIPC   NC311197  17.624  24.980   7.227 -0.1450  0.2866  0.0358
    1DIPC   PO411198  17.909  24.689   6.989  0.2020 -0.1931 -0.1865
    1DIPC   GL111199  18.012  24.768   6.586 -0.1767 -0.0241 -0.0315
    1DIPC   GL211200  18.317  24.907   6.630  0.1965  0.0727 -0.1926
    1DIPC   C1A11201  18.067  24.934   6.160 -0.0718  0.0825 -0.1011
    1DIPC   D2A11202  17.959  24.640   5.749  0.0093 -0.0920 -0.1153
    1DIPC   D3A11203  17.872  24.894   5.378  0.0392  0.2541  0.1372
    1DIPC   C4A11204  17.616  25.202   5.236 -0.0021 -0.0577 -0.2208
    1DIPC   C1B11205  18.358  25.263   6.547  0.0481  0.2891  0.0634
    1DIPC   D2B11206  18.549  25.701   6.495 -0.1202  0.1599 -0.0162
    1DIPC   D3B11207  18.886  25.875   6.242  0.0852 -0.0233 -0.1843
    1DIPC   C4B11208  19.033  25.629   6.003 -0.0582 -0.0944 -0.0319
    1DIPC   NC311209  17.233  24.090   6.996  0.0961  0.2212 -0.1252
    1DIPC   PO411210  16.988  24.341   6.717 -0.2014 -0.1056 -0.0221
    1DIPC   GL111211  16.894  24.128   6.335 -0.3417  0.3422  0.2606
    1DIPC   GL211212  16.688  24.211   6.012  0.0970  0.0603  0.2404
    1DIPC   C1A11213  17.159  24.162   6.018  0.2191  0.2243  0.2284
    1DIPC   D2A11214  17.523  24.446   5.942 -0.2558  0.2975  0.0549
    1DIPC   D3A11215  17.615  24.336   5.555  0.3010 -0.1197 -0.0207
    1DIPC   C4A11216  17.341  24.150   5.334 -0.3507 -0.1375 -0.2077
    1DIPC   C1B11217  16.858  24.235   5.631  0.1071  0.2535  0.1639
    1DIPC   D2B11218  16.714  24.564   5.271 -0.0590 -0.0712  0.0999
    1DIPC   D3B11219  16.940  24.633   4.901  0.0809  0.2096 -0.3369
    1DIPC   C4B11220  17.177  24.654   4.512 -0.0997 -0.0556 -0.0990
    1DIPC   NC311221  22.991  14.186   5.765 -0.2763 -0.3076 -0.0791
    1DIPC   PO411222  22.646  14.046   5.380 -0.3644 -0.0015 -0.0510
    1DIPC   GL111223  22.388  13.840   5.089  0.0502  0.1339  0.1394
    1DIPC   GL211224  22.214  13.596   5.232  0.0635  0.3647  0.2765
    1DIPC   C1A11225  22.503  13.706   4.632  0.0651 -0.0359  0.0752
    1DIPC   D2A11226  22.373  13.883   4.232 -0.0769  0.2570 -0.1432
    1DIPC   D3A11227  22.114  13.783   3.935 -0.2602 -0.3387 -0.0039
    1DIPC   C4A11228  21.729  13.684   4.061 -0.0667  0.1330  0.1514
    1DIPC   C1B11229  21.970  13.553   4.874  0.0467  0.0143 -0.0686
    1DIPC   D2B11230  21.975  13.700   4.483 -0.0520  0.0328  0.1995
    1DIPC   D3B11231  22.150  13.379   4.238  0.1587  0.0920  0.0331
    1DIPC   C4B11232  22.464  13.410   3.851 -0.1148 -0.0541  0.0344
    1DIPC   NC311233  14.566  27.496   6.898 -0.1482 -0.0166 -0.0268
    1DIPC   PO411234  14.747  27.709   6.502  0.1021  0.0131  0.1599
    1DIPC   GL111235  14.984  27.885   6.143  0.3097  0.0706 -0.0014
    1DIPC   GL211236  15.296  28.122   6.200 -0.1816 -0.2465 -0.0405
    1DIPC   C1A11237  14.983  27.622   5.686 -0.0928 -0.1706  0.2494
    1DIPC   D2A11238  15.183  27.251   5.450  0.0248  0.2124  0.0171
    1DIPC   D3A11239  15.626  27.196   5.559 -0.2921  0.2484  0.0540
    1DIPC   C4A11240  15.976  27.062   5.233  0.1174 -0.0022  0.0808
    1DIPC   C1B11241  15.427  27.923   5.862 -0.0131  0.3149  0.3542
    1DIPC   D2B11242  15.392  27.801   5.339  0.2879 -0.0383 -0.1635
    1DIPC   D3B11243  15.022  27.891   5.184  0.1966  0.3118  0.0508
    1DIPC   C4B11244  14.818  28.267   5.147 -0.2133 -0.0767 -0.1330
    1DIPC   NC311245   0.441   7.436   6.766  0.1098  0.0585  0.0259
    1DIPC   PO411246   0.349   7.154   6.458  0.2619  0.1021  0.0607
    1DIPC   GL111247   0.354   7.524   6.125  0.0458 -0.0140  0.1189
    1DIPC   GL211248   0.154   7.372   5.905  0.2615 -0.0674 -0.0831
    1DIPC   C1A11249   0.132   7.865   5.977 -0.0577 -0.1276 -0.1586
    1DIPC   D2A11250  -0.057   7.815   5.604  0.5057  0.1292 -0.0772
    1DIPC   D3A11251   0.199   8.198   5.448 -0.0951  0.2677  0.1697
    1DIPC   C4A11252   0.165   8.589   5.632  0.1729  0.0811  0.0723
    1DIPC   C1B11253  -0.229   7.509   5.941  0.3447 -0.2085 -0.0104
    1DIPC   D2B11254  -0.694   7.509   6.153  0.1113 -0.0354 -0.1754
    1DIPC   D3B11255  -0.922   7.390   5.865  0.0923 -0.4593 -0.0625
    1DIPC   C4B11256  -0.788   7.100   5.549 -0.1447 -0.2442 -0.1523
    1DIPC   NC311257  15.251  14.511   6.848  0.3025  0.0516 -0.2281
    1DIPC   PO411258  15.486  14.407   6.485  0.0781 -0.0465 -0.2237
    1DIPC   GL111259  15.232  14.584   6.093  0.3588 -0.0982 -0.4067
    1DIPC   GL211260  15.460  14.542   5.864 -0.2143  0.1278  0.2689
    1DIPC   C1A11261  15.289  14.984   5.705 -0.0027 -0.1655  0.0394
    1DIPC   D2A11262  15.089  14.998   5.308  0.0415  0.0164  0.0075
    1DIPC   D3A11263  15.067  14.714   5.030 -0.0867 -0.0554  0.0626
    1DIPC   C4A11264  15.032  14.415   5.174  0.1693 -0.0470 -0.1243
    1DIPC   C1B11265  15.431  14.513   5.436  0.0599 -0.0175  0.3206
    1DIPC   D2B11266  15.586  14.663   4.980 -0.1704  0.0682 -0.1152
    1DIPC   D3B11267  15.670  14.373   4.584 -0.0892 -0.1702  0.4903
    1DIPC   C4B11268  15.507  14.468   4.184 -0.2305  0.2895  0.1166
    1DIPC   NC311269  18.216  19.727   6.427  0.1693 -0.0206  0.1067
    1DIPC   PO411270  18.681  19.631   6.291 -0.3564  0.0958 -0.0589
    1DIPC   GL111271  18.697  19.430   5.955  0.2040  0.0811  0.1288
    1DIPC   GL211272  19.082  19.457   6.035  0.0697 -0.3923  0.0540
    1DIPC   C1A11273  18.728  19.283   5.530  0.0100  0.0405 -0.0707
    1DIPC   D2A11274  18.646  19.069   5.204 -0.0569  0.2041 -0.0453
    1DIPC   D3A11275  18.471  19.464   5.134  0.1696  0.0078 -0.0721
    1DIPC   C4A11276  18.304  19.556   4.710 -0.1747  0.0791  0.0050
    1DIPC   C1B11277  19.189  19.794   5.630  0.2220 -0.3540  0.0334
    1DIPC   D2B11278  19.034  19.664   5.180 -0.0957 -0.0815  0.0194
    1DIPC   D3B11279  19.429  19.645   5.089 -0.2087 -0.2835 -0.3244
    1DIPC   C4B11280  19.762  19.532   4.649  0.2244  0.0357 -0.2193
    1DIPC   NC311281   8.634   1.941   7.537 -0.2013  0.2055  0.0250
    1DIPC   PO411282   8.261   2.294   7.521 -0.1000  0.5156 -0.1298
    1DIPC   GL111283   8.305   2.331   7.103 -0.2828  0.0470 -0.2654
    1DIPC   GL211284   8.324   2.069   6.997 -0.1732  0.0832 -0.1370
    1DIPC   C1A11285   7.994   2.341   6.757  0.2198  0.3311  0.0405
    1DIPC   D2A11286   7.565   2.217   6.713  0.1699  0.0436  0.0658
    1DIPC   D3A11287   7.791   2.143   6.274  0.1197  0.1315  0.0262
    1DIPC   C4A11288   8.175   2.103   6.228 -0.3181  0.1459 -0.0300
    1DIPC   C1B11289   8.403   1.681   6.638  0.2566  0.1889  0.2575
    1DIPC   D2B11290   8.315   1.371   6.301 -0.1771  0.1319  0.3422
    1DIPC   D3B11291   8.533   1.435   5.860 -0.0502 -0.1220  0.0709
    1DIPC   C4B11292   8.330   1.776   5.767 -0.1349 -0.1187 -0.2671
    1DIPC   NC311293  12.843  22.016   6.562 -0.1655  0.2290 -0.1254
    1DIPC   PO411294  12.478  22.026   6.219  0.0617 -0.0243  0.0498
    1DIPC   GL111295  12.739  22.171   5.796  0.1550 -0.0299  0.1202
    1DIPC   GL211296  13.027  22.059   5.712 -0.2049  0.2036  0.0269
    1DIPC   C1A11297  12.819  22.283   5.345 -0.0094  0.1887 -0.2645
    1DIPC   D2A11298  12.833  22.432   4.949 -0.0286 -0.0744  0.0547
    1DIPC   D3A11299  12.575  22.102   4.716  0.0878  0.0886 -0.0449
    1DIPC   C4A11300  12.098  21.971   4.795  0.1235  0.0394  0.1573
    1DIPC   C1B11301  13.280  22.069   5.292  0.1236 -0.0539 -0.0212
    1DIPC   D2B11302  13.163  22.019   4.830  0.0815 -0.0884 -0.1234
    1DIPC   D3B11303  13.604  21.842   4.874 -0.0869 -0.1265  0.0723
    1DIPC   C4B11304  13.548  21.548   5.165  0.0759 -0.1924 -0.0171
    1DIPC   NC311305   5.322  27.110   6.154 -0.0342 -0.2032 -0.2530
    1DIPC   PO411306   4.925  26.916   6.327  0.0410  0.1069  0.0726
    1DIPC   GL111307   4.985  26.847   5.908  0.0439  0.0178 -0.0175
    1DIPC   GL211308   4.836  27.139   5.799 -0.2476 -0.2955  0.1445
    1DIPC   C1A11309   5.113  26.870   5.468  0.1429 -0.0945 -0.0014
    1DIPC   D2A11310   5.125  27.234   5.167 -0.1540  0.0458  0.1491
    1DIPC   D3A11311   5.153  27.695   5.264 -0.3168 -0.0490 -0.0060
    1DIPC   C4A11312   5.011  27.715   5.629 -0.0591 -0.1783 -0.1998
    1DIPC   C1B11313   4.724  27.342   5.456  0.3303 -0.2112  0.0359
    1DIPC   D2B11314   4.573  27.414   4.997 -0.1403  0.2019 -0.4437
    1DIPC   D3B11315   4.144  27.437   4.944 -0.1916 -0.0746 -0.3208
    1DIPC   C4B11316   3.849  27.145   4.751  0.0037 -0.1721  0.0200
    1DIPC   NC311317   4.606   7.139   6.777  0.0357  0.1763 -0.2101
    1DIPC   PO411318   4.168   7.350   6.645  0.0581 -0.3209  0.0294
    1DIPC   GL111319   4.438   7.099   6.324 -0.1120  0.0390  0.2669
    1DIPC   GL211320   4.276   6.833   6.380 -0.2140 -0.2355 -0.0181
    1DIPC   C1A11321   4.717   6.847   6.017  0.1416 -0.0468 -0.0796
    1DIPC   D2A11322   5.085   6.785   5.980 -0.1158 -0.1673  0.1322
    1DIPC   D3A11323   4.997   6.372   5.703  0.2502  0.1067  0.1238
    1DIPC   C4A11324   5.369   6.413   5.403  0.0071  0.0828  0.0271
    1DIPC   C1B11325   4.137   6.383   6.154 -0.1264 -0.3711 -0.0116
    1DIPC   D2B11326   3.986   6.308   5.750  0.0186  0.1492 -0.1267
    1DIPC   D3B11327   3.863   6.011   5.366 -0.2944  0.0516 -0.3139
    1DIPC   C4B11328   4.189   5.707   5.363  0.1347  0.1495  0.1752
    1DIPC   NC311329  11.006  16.618   6.710 -0.3103  0.2186 -0.1890
    1DIPC   PO411330  11.056  16.111   6.778  0.0167  0.3149  0.0124
    1DIPC   GL111331  11.009  16.281   6.301  0.0442 -0.2786  0.1310
    1DIPC   GL211332  11.298  16.351   6.339 -0.1291  0.1155  0.0191
    1DIPC   C1A11333  10.986  16.423   5.860  0.2348  0.2254  0.0271
    1DIPC   D2A11334  11.085  16.596   5.458  0.1092  0.0419 -0.0766
    1DIPC   D3A11335  10.842  16.569   5.121 -0.0828  0.0336 -0.0962
    1DIPC   C4A11336  10.901  16.750   4.721 -0.1111 -0.1332 -0.0531
    1DIPC   C1B11337  11.569  16.531   5.862  0.2208  0.0392  0.0822
    1DIPC   D2B11338  11.603  16.652   5.416 -0.1040  0.2601 -0.2450
    1DIPC   D3B11339  11.312  16.967   5.202  0.2397 -0.2053  0.3499
    1DIPC   C4B11340  10.916  17.062   5.240  0.1468  0.0015  0.1122
    1DIPC   NC311341  23.119  11.825   5.416 -0.1645  0.0276 -0.1765
    1DIPC   PO411342  22.684  11.975   5.440  0.2373  0.1462 -0.1555
    1DIPC   GL111343  22.658  11.793   5.103 -0.0909 -0.1841 -0.0518
    1DIPC   GL211344  22.393  11.783   5.110  0.1903 -0.1497 -0.0949
    1DIPC   C1A11345  22.809  11.431   4.934  0.1022 -0.1486  0.0939
    1DIPC   D2A11346  22.691  11.163   4.694 -0.0908  0.0416  0.1512
    1DIPC   D3A11347  22.661  10.846   4.437 -0.2231  0.0399  0.0169
    1DIPC   C4A11348  22.520  10.388   4.620 -0.1037  0.1578  0.1351
    1DIPC   C1B11349  22.250  11.294   5.074 -0.3593  0.1008 -0.2901
    1DIPC   D2B11350  22.007  11.064   4.745 -0.1175 -0.1083 -0.3605
    1DIPC   D3B11351  22.088  11.282   4.486  0.0729  0.0047  0.0370
    1DIPC   C4B11352  22.380  11.231   4.286  0.3110 -0.0668  0.1825
    1DIPC   NC311353  20.426  14.147   6.176  0.0095 -0.1083  0.1317
    1DIPC   PO411354  20.549  14.501   5.807 -0.2414  0.0215  0.0439
    1DIPC   GL111355  20.776  14.356   5.481  0.1669 -0.2661 -0.1762
    1DIPC   GL211356  20.826  14.628   5.350  0.1515  0.3549  0.0194
    1DIPC   C1A11357  21.145  14.320   5.120  0.0620 -0.2930  0.2700
    1DIPC   D2A11358  21.019  14.379   4.596  0.1444 -0.1857  0.3420
    1DIPC   D3A11359  21.145  14.801   4.437  0.0988 -0.2073  0.0180
    1DIPC   C4A11360  21.061  15.030   4.154 -0.2361  0.0489 -0.1626
    1DIPC   C1B11361  20.468  14.813   5.224 -0.0108 -0.1766  0.6183
    1DIPC   D2B11362  20.197  14.601   4.857 -0.2672  0.1740 -0.1423
    1DIPC   D3B11363  20.116  14.845   4.553 -0.0454  0.1854  0.0045
    1DIPC   C4B11364  20.380  14.855   4.198 -0.2703  0.2026 -0.0066
    1DIPC   NC311365  19.766   6.728   7.233 -0.1481 -0.4234  0.2104
    1DIPC   PO411366  19.773   7.119   7.031  0.0016 -0.1157 -0.4914
    1DIPC   GL111367  19.579   7.009   6.676  0.1835 -0.1136  0.3224
    1DIPC   GL211368  19.436   7.288   6.439 -0.0115  0.2515 -0.0543
    1DIPC   C1A11369  19.489   6.610   6.395  0.1196 -0.2568  0.0940
    1DIPC   D2A11370  19.414   6.364   5.955  0.1967  0.0224  0.1373
    1DIPC   D3A11371  19.075   6.634   5.748 -0.0614  0.1662  0.0341
    1DIPC   C4A11372  18.782   6.508   5.401 -0.2341 -0.1063 -0.0523
    1DIPC   C1B11373  19.346   7.471   6.042  0.4000  0.1256  0.2454
    1DIPC   D2B11374  19.635   7.513   5.721 -0.1891 -0.0501  0.0271
    1DIPC   D3B11375  19.833   7.133   5.649  0.1502 -0.1681  0.0488
    1DIPC   C4B11376  19.959   7.065   5.308  0.0536  0.1465 -0.1582
    1DIPC   NC311377  13.433  24.088   6.763 -0.0732 -0.6274  0.0453
    1DIPC   PO411378  13.342  23.765   6.454 -0.3834 -0.1226 -0.1432
    1DIPC   GL111379  13.542  23.799   6.178  0.0274  0.3205 -0.0270
    1DIPC   GL211380  13.411  23.817   5.834  0.0066 -0.2114 -0.4371
    1DIPC   C1A11381  13.930  24.057   6.029 -0.0399 -0.1704  0.1976
    1DIPC   D2A11382  14.231  24.177   5.826 -0.0959 -0.1164 -0.1055
    1DIPC   D3A11383  14.353  23.851   5.491  0.0942  0.3307  0.4256
    1DIPC   C4A11384  14.296  23.702   5.175  0.2502 -0.3042 -0.0514
    1DIPC   C1B11385  13.708  24.003   5.531 -0.0100 -0.3489 -0.1088
    1DIPC   D2B11386  13.976  24.061   5.139  0.1581  0.3535  0.1904
    1DIPC   D3B11387  13.659  24.454   5.153  0.3283 -0.1948 -0.1950
    1DIPC   C4B11388  13.591  24.693   4.748  0.0073  0.0244 -0.0892
    1DIPC   NC311389  16.818   9.462   6.561  0.1884 -0.1711 -0.2157
    1DIPC   PO411390  16.403   9.726   6.554 -0.2543 -0.1075  0.1639
    1DIPC   GL111391  16.610   9.652   6.158  0.0242 -0.1545  0.2776
    1DIPC   GL211392  16.901   9.756   6.014 -0.3280  0.0458  0.2945
    1DIPC   C1A11393  16.587   9.393   5.719 -0.1238 -0.1923  0.0769
    1DIPC   D2A11394  16.729   9.250   5.331 -0.3161 -0.0274  0.4041
    1DIPC   D3A11395  17.076   9.441   5.289  0.0349  0.0559 -0.0218
    1DIPC   C4A11396  17.444   9.276   5.208  0.0652  0.0468 -0.0752
    1DIPC   C1B11397  16.966   9.900   5.585 -0.2377  0.0888 -0.0114
    1DIPC   D2B11398  16.849  10.117   5.250  0.1523  0.1507 -0.1906
    1DIPC   D3B11399  17.262   9.861   5.107  0.2166 -0.1168  0.0804
    1DIPC   C4B11400  17.211   9.578   4.777 -0.2679  0.0031  0.0495
    1DIPC   NC311401   9.520   7.335   6.747 -0.1224 -0.2617 -0.1933
    1DIPC   PO411402   9.711   6.947   6.583  0.1055  0.1258 -0.3930
    1DIPC   GL111403   9.501   7.068   6.275  0.0405 -0.1085 -0.0024
    1DIPC   GL211404   9.268   6.820   6.545 -0.1082  0.0293 -0.2003
    1DIPC   C1A11405   9.088   7.170   6.253 -0.0472 -0.0295 -0.0862
    1DIPC   D2A11406   8.688   7.060   6.476 -0.0266  0.0820  0.0923
    1DIPC   D3A11407   8.482   6.805   6.262 -0.1456  0.0194 -0.0483
    1DIPC   C4A11408   8.583   6.408   5.937  0.0287 -0.0245  0.0689
    1DIPC   C1B11409   8.966   6.696   6.262 -0.0635 -0.0520  0.1055
    1DIPC   D2B11410   9.216   6.767   5.954 -0.0811  0.0185  0.1197
    1DIPC   D3B11411   9.380   7.137   5.783  0.2545 -0.1901 -0.0261
    1DIPC   C4B11412   9.743   6.968   5.477  0.1243 -0.0286 -0.0655
    1DIPC   NC311413   1.125  28.883   6.913 -0.3306 -0.2669 -0.0041
    1DIPC   PO411414   1.019  28.608   6.496 -0.0915 -0.1098 -0.1647
    1DIPC   GL111415   0.851  28.678   6.124 -0.0444  0.1447 -0.0373
    1DIPC   GL211416   0.808  28.976   5.910  0.0894 -0.0775 -0.1965
    1DIPC   C1A11417   1.093  28.569   5.796  0.1138 -0.0177 -0.1129
    1DIPC   D2A11418   1.196  28.211   5.583 -0.3479 -0.2267 -0.2190
    1DIPC   D3A11419   1.206  27.798   5.604 -0.1243  0.1101  0.2310
    1DIPC   C4A11420   0.936  27.613   5.318 -0.1437  0.2061  0.2436
    1DIPC   C1B11421   0.551  29.181   5.645  0.1626  0.1186  0.0164
    1DIPC   D2B11422   0.244  29.054   5.420 -0.1082 -0.0903 -0.0576
    1DIPC   D3B11423   0.475  29.170   4.933 -0.3148  0.0211  0.1447
    1DIPC   C4B11424   0.871  29.242   4.712  0.0929  0.1094 -0.1050
    1DIPC   NC311425  21.355  18.889   5.995 -0.1355 -0.1053  0.1367
    1DIPC   PO411426  21.107  18.879   5.536 -0.1401  0.1179 -0.0877
    1DIPC   GL111427  20.867  19.061   5.219 -0.2635  0.0805 -0.1549
    1DIPC   GL211428  20.552  18.914   5.212  0.2730  0.3669  0.1387
    1DIPC   C1A11429  20.728  19.215   4.857 -0.1212  0.0755  0.0357
    1DIPC   D2A11430  20.608  19.385   4.397 -0.1818 -0.0748  0.0779
    1DIPC   D3A11431  20.549  19.832   4.423  0.0618  0.2710  0.2583
    1DIPC   C4A11432  20.144  19.961   4.517  0.0524 -0.0170 -0.3171
    1DIPC   C1B11433  20.243  19.276   5.165 -0.0222  0.0916  0.1973
    1DIPC   D2B11434  19.856  19.408   5.282  0.5969 -0.0697 -0.0837
    1DIPC   D3B11435  19.822  19.094   4.925 -0.0981 -0.0705 -0.0427
    1DIPC   C4B11436  19.481  18.840   4.988 -0.0617 -0.0021  0.1709
    1DIPC   NC311437  23.809  22.616   5.793 -0.1214 -0.1309  0.0822
    1DIPC   PO411438  24.052  22.263   5.599 -0.2753 -0.1286 -0.1319
    1DIPC   GL111439  24.187  22.548   5.320  0.0151  0.1659  0.0650
    1DIPC   GL211440  24.273  22.851   5.332 -0.0733  0.2238 -0.2256
    1DIPC   C1A11441  23.972  22.731   4.918  0.1249  0.0329 -0.0938
    1DIPC   D2A11442  23.636  22.850   4.628 -0.2008  0.0493  0.4193
    1DIPC   D3A11443  23.554  22.473   4.843  0.1022  0.0457  0.0073
    1DIPC   C4A11444  23.787  22.209   5.063 -0.0161  0.0081 -0.0276
    1DIPC   C1B11445  24.540  22.897   5.021 -0.0721  0.1339 -0.0222
    1DIPC   D2B11446  24.336  22.882   4.620  0.0624 -0.1429 -0.0103
    1DIPC   D3B11447  24.467  22.756   4.281  0.0202 -0.2078 -0.1124
    1DIPC   C4B11448  24.177  22.693   3.914  0.0580 -0.0768 -0.0621
    1DIPC   NC311449  25.849  11.748   6.441  0.0198 -0.1321  0.2676
    1DIPC   PO411450  25.606  11.537   6.067  0.0671 -0.1388 -0.0672
    1DIPC   GL111451  25.739  11.711   5.713  0.1044 -0.0578 -0.1957
    1DIPC   GL211452  26.003  11.861   5.854 -0.2856 -0.1136  0.1441
    1DIPC   C1A11453  25.938  11.819   5.371  0.0638  0.4245  0.0910
    1DIPC   D2A11454  25.870  11.891   5.006  0.2566 -0.0552  0.0654
    1DIPC   D3A11455  25.596  12.142   4.785 -0.1400  0.0647 -0.0288
    1DIPC   C4A11456  25.774  12.274   4.411 -0.1021  0.1090  0.1332
    1DIPC   C1B11457  26.320  12.024   5.541 -0.0001 -0.1383 -0.1277
    1DIPC   D2B11458  26.340  12.363   5.243  0.3845 -0.2197  0.2023
    1DIPC   D3B11459  26.661  12.363   4.938 -0.1510 -0.0806  0.0544
    1DIPC   C4B11460  26.769  12.393   4.593  0.0983 -0.1181  0.1136
    1DIPC   NC311461  16.113  28.123   6.510  0.0216  0.2062  0.2445
    1DIPC   PO411462  16.591  28.323   6.468  0.0316 -0.1288  0.3982
    1DIPC   GL111463  16.337  28.392   6.105 -0.2696 -0.0880 -0.0482
    1DIPC   GL211464  16.611  28.323   5.831 -0.0929  0.1625  0.0681
    1DIPC   C1A11465  16.113  28.225   5.787  0.1019 -0.0553  0.0661
    1DIPC   D2A11466  15.736  28.216   5.466 -0.4489  0.0915  0.0161
    1DIPC   D3A11467  16.052  27.959   5.148  0.2296 -0.4297  0.2145
    1DIPC   C4A11468  16.007  27.593   4.883 -0.1654  0.0472  0.2710
    1DIPC   C1B11469  16.616  28.731   5.559 -0.0416 -0.3007 -0.0819
    1DIPC   D2B11470  16.379  28.963   5.336 -0.1130  0.2078 -0.0900
    1DIPC   D3B11471  16.653  28.774   4.979  0.4139  0.3620  0.3430
    1DIPC   C4B11472  17.018  28.720   4.969 -0.4287 -0.0260 -0.0480
    1DIPC   NC311473  18.507  16.897   6.367 -0.1460  0.1031  0.0815
    1DIPC   PO411474  18.363  16.589   6.545 -0.0366 -0.0545 -0.2980
    1DIPC   GL111475  18.489  16.501   6.114  0.0356 -0.0022  0.0729
    1DIPC   GL211476  18.323  16.796   5.884 -0.1562 -0.0254  0.0069
    1DIPC   C1A11477  18.658  16.417   5.733 -0.1126 -0.3131  0.2173
    1DIPC   D2A11478  18.607  16.429   5.338  0.0892 -0.2200 -0.1716
    1DIPC   D3A11479  18.963  16.326   5.056  0.2195 -0.0853  0.0419
    1DIPC   C4A11480  19.422  16.418   5.113 -0.2865  0.1515 -0.1776
    1DIPC   C1B11481  18.098  16.869   5.424 -0.0019  0.1679  0.1964
    1DIPC   D2B11482  18.392  17.025   5.070 -0.2253 -0.1634 -0.1600
    1DIPC   D3B11483  18.669  17.226   4.725  0.0009  0.0592  0.0421
    1DIPC   C4B11484  19.063  17.120   4.752 -0.3617  0.1236  0.3199
    1DIPC   NC311485  14.407  26.198   6.749 -0.1822  0.0375 -0.1617
    1DIPC   PO411486  14.806  25.906   6.838  0.0573 -0.1475 -0.0539
    1DIPC   GL111487  14.868  25.830   6.400 -0.1231  0.1785  0.2005
    1DIPC   GL211488  15.210  25.586   6.311 -0.2427 -0.4109 -0.1479
    1DIPC   C1A11489  14.796  26.003   5.969 -0.1231  0.3864  0.0910
    1DIPC   D2A11490  14.722  26.335   5.696 -0.2022 -0.2520  0.1872
    1DIPC   D3A11491  15.026  26.053   5.489  0.0086  0.0159  0.0422
    1DIPC   C4A11492  15.458  26.241   5.520  0.0433  0.0082  0.0939
    1DIPC   C1B11493  15.238  25.215   6.012 -0.0049  0.0882 -0.0318
    1DIPC   D2B11494  15.445  25.013   5.786  0.1291  0.0145  0.0181
    1DIPC   D3B11495  15.802  25.185   5.966 -0.0724  0.2478  0.3626
    1DIPC   C4B11496  15.711  25.609   6.133 -0.0440 -0.0333  0.1531
    1DIPC   NC311497  20.992  12.900   5.820 -0.0074  0.0972 -0.2511
    1DIPC   PO411498  20.454  12.936   5.688 -0.1216  0.1774  0.1239
    1DIPC   GL111499  20.261  12.993   5.247  0.0471 -0.0745 -0.2866
    1DIPC   GL211500  20.441  12.796   5.173  0.0544  0.1043 -0.4512
    1DIPC   C1A11501  19.955  13.032   4.879  0.0507 -0.1837  0.0160
    1DIPC   D2A11502  19.725  12.966   4.551 -0.1722 -0.0340 -0.1228
    1DIPC   D3A11503  19.793  13.306   4.349  0.0174  0.0272 -0.3097
    1DIPC   C4A11504  19.903  13.545   3.895  0.0421 -0.3205 -0.3325
    1DIPC   C1B11505  20.617  12.926   4.848  0.0798  0.2283  0.0408
    1DIPC   D2B11506  20.581  12.678   4.523  0.1768 -0.1038 -0.0308
    1DIPC   D3B11507  20.609  13.058   4.324  0.1595  0.2401  0.3154
    1DIPC   C4B11508  20.776  12.897   4.014  0.0824 -0.1738  0.1472
    1DIPC   NC311509  19.957  27.692   7.494  0.1278 -0.1043 -0.1931
    1DIPC   PO411510  20.054  27.701   7.099 -0.1304 -0.0724 -0.0989
    1DIPC   GL111511  20.279  27.574   6.683 -0.0828 -0.0344 -0.3102
    1DIPC   GL211512  20.347  27.236   6.787  0.5529  0.0905 -0.0752
    1DIPC   C1A11513  20.138  27.814   6.311  0.1069  0.0913  0.2339
    1DIPC   D2A11514  20.033  28.255   6.108 -0.0943 -0.0633  0.2566
    1DIPC   D3A11515  20.050  28.307   5.621  0.1834 -0.0216  0.1470
    1DIPC   C4A11516  19.673  28.367   5.476  0.0698  0.1059  0.1584
    1DIPC   C1B11517  20.281  26.865   6.556  0.0229  0.1887 -0.3198
    1DIPC   D2B11518  20.508  26.835   6.078  0.2508  0.2063  0.1696
    1DIPC   D3B11519  20.909  26.637   5.838  0.0127  0.0648  0.2351
    1DIPC   C4B11520  21.242  26.794   5.863  0.0237  0.2603  0.0090
    1DIPC   NC311521  16.817   1.114   7.002 -0.0286  0.1239 -0.2434
    1DIPC   PO411522  16.811   0.833   6.752 -0.2695  0.2764  0.1679
    1DIPC   GL111523  16.807   0.667   6.388  0.2477  0.0445  0.1194
    1DIPC   GL211524  16.999   0.923   6.250 -0.0109 -0.0434 -0.2799
    1DIPC   C1A11525  17.159   0.419   6.118 -0.6405 -0.1243  0.0910
    1DIPC   D2A11526  17.491   0.356   5.787 -0.0043 -0.2078  0.3155
    1DIPC   D3A11527  17.621  -0.086   5.744  0.1817 -0.0639 -0.0556
    1DIPC   C4A11528  17.984  -0.156   5.784 -0.2048 -0.3734 -0.0877
    1DIPC   C1B11529  16.885   0.963   5.843  0.0347  0.1707  0.0308
    1DIPC   D2B11530  16.725   0.800   5.470 -0.0061 -0.0133 -0.1967
    1DIPC   D3B11531  16.494   0.728   5.905  0.1958 -0.2947  0.1297
    1DIPC   C4B11532  16.480   1.018   6.240 -0.4822 -0.2378  0.1880
    1DIPC   NC311533  23.530  11.468   6.127 -0.3856  0.0138 -0.1799
    1DIPC   PO411534  23.230  11.444   5.859 -0.0555 -0.1405 -0.0957
    1DIPC   GL111535  23.255  11.175   5.435 -0.2215 -0.3653 -0.2221
    1DIPC   GL211536  23.275  11.337   5.227  0.1721  0.2501  0.0059
    1DIPC   C1A11537  23.264  10.717   5.260 -0.0681 -0.0981  0.1643
    1DIPC   D2A11538  23.051  10.321   5.339  0.0879  0.2120 -0.0824
    1DIPC   D3A11539  22.810  10.724   5.447 -0.0754 -0.2337 -0.0609
    1DIPC   C4A11540  22.663  11.051   5.197 -0.1934 -0.1113 -0.2592
    1DIPC   C1B11541  23.274  11.408   4.733  0.0965 -0.0239  0.0042
    1DIPC   D2B11542  23.241  11.657   4.387 -0.2260  0.1644 -0.0671
    1DIPC   D3B11543  22.760  11.576   4.308 -0.3116  0.1075 -0.1966
    1DIPC   C4B11544  22.453  11.627   4.668 -0.2009 -0.1585  0.0706
    1DIPC   NC311545  22.650  24.348   6.276 -0.2011  0.0173  0.3095
    1DIPC   PO411546  22.505  24.697   6.277 -0.0195  0.0652  0.0941
    1DIPC   GL111547  22.673  24.924   6.040 -0.1751 -0.2331  0.0825
    1DIPC   GL211548  23.012  25.077   6.211 -0.3100  0.2188 -0.3904
    1DIPC   C1A11549  22.566  25.357   5.976 -0.2279 -0.0557 -0.3110
    1DIPC   D2A11550  22.592  25.663   5.716  0.1249 -0.2119 -0.3121
    1DIPC   D3A11551  22.765  25.850   6.013  0.1665 -0.3009 -0.0977
    1DIPC   C4A11552  22.992  25.573   6.281  0.1122 -0.1640  0.1228
    1DIPC   C1B11553  22.985  25.172   5.791 -0.0180 -0.0134 -0.1456
    1DIPC   D2B11554  23.016  25.455   5.456 -0.4004 -0.1224  0.1691
    1DIPC   D3B11555  23.136  25.034   5.243  0.0283 -0.0626 -0.0171
    1DIPC   C4B11556  23.207  24.563   5.270 -0.2741  0.0542  0.0981
    1DIPC   NC311557  25.780   2.799   6.944 -0.0085 -0.2334 -0.0382
    1DIPC   PO411558  25.825   2.344   6.825  0.3678 -0.1356  0.0840
    1DIPC   GL111559  25.714   2.252   6.431  0.2267  0.1445  0.0125
    1DIPC   GL211560  25.860   2.497   6.343  0.0041  0.2603 -0.0164
    1DIPC   C1A11561  25.757   2.193   5.960 -0.0071  0.5088 -0.1500
    1DIPC   D2A11562  26.115   2.122   5.640  0.0615 -0.1673 -0.2201
    1DIPC   D3A11563  26.346   1.709   5.431 -0.2473 -0.0054  0.1332
    1DIPC   C4A11564  26.109   1.521   5.134  0.1566 -0.3577 -0.1662
    1DIPC   C1B11565  26.065   2.648   5.982 -0.0504 -0.0925 -0.0839
    1DIPC   D2B11566  26.229   2.674   5.552 -0.1183 -0.0161  0.0424
    1DIPC   D3B11567  25.981   2.776   5.179  0.0852  0.0688  0.1083
    1DIPC   C4B11568  25.600   2.582   4.962  0.1377  0.1971  0.1110
    1DIPC   NC311569  23.400  19.107   5.608 -0.1521  0.0932  0.2219
    1DIPC   PO411570  23.324  18.661   5.582  0.2324 -0.3705 -0.0263
    1DIPC   GL111571  23.557  18.415   5.090  0.0066  0.1043 -0.3983
    1DIPC   GL211572  23.670  18.586   4.865 -0.4268  0.1498 -0.0391
    1DIPC   C1A11573  23.543  18.094   4.833  0.0804  0.1149  0.2783
    1DIPC   D2A11574  23.670  18.166   4.337  0.2852  0.0257  0.1870
    1DIPC   D3A11575  23.406  18.462   4.464  0.0510  0.1605  0.2607
    1DIPC   C4A11576  23.600  18.894   4.294  0.0957 -0.0975  0.1673
    1DIPC   C1B11577  23.645  19.023   4.762  0.1152 -0.0503 -0.3448
    1DIPC   D2B11578  23.366  19.287   4.597 -0.3428 -0.1403  0.1915
    1DIPC   D3B11579  23.222  19.596   4.953 -0.1293  0.1323 -0.1737
    1DIPC   C4B11580  23.410  20.062   5.098  0.2802 -0.1140 -0.2633
    1DIPC   NC311581   0.764  24.218   6.705 -0.0737  0.2286 -0.0492
    1DIPC   PO411582   0.497  24.433   6.443 -0.2638 -0.0683  0.0443
    1DIPC   GL111583   0.917  24.603   6.285 -0.0683  0.0585 -0.1068
    1DIPC   GL211584   1.186  24.477   6.360  0.2787 -0.2094 -0.2505
    1DIPC   C1A11585   1.243  24.755   5.930 -0.2343 -0.0332  0.1483
    1DIPC   D2A11586   1.252  24.717   5.491 -0.1694 -0.2477 -0.0802
    1DIPC   D3A11587   1.512  24.308   5.335 -0.2266  0.1026  0.1478
    1DIPC   C4A11588   1.385  23.887   5.444  0.1492 -0.1354 -0.2149
    1DIPC   C1B11589   1.105  24.300   5.960  0.0631  0.0268  0.2383
    1DIPC   D2B11590   0.821  24.356   5.639 -0.3431 -0.0087 -0.1660
    1DIPC   D3B11591   1.015  24.370   5.151 -0.0391 -0.2596  0.1550
    1DIPC   C4B11592   0.994  24.040   4.910 -0.2251 -0.1010 -0.0238
    1DIPC   NC311593  16.127  18.100   6.357  0.2339  0.2838  0.3602
    1DIPC   PO411594  16.560  18.142   6.330  0.2124 -0.1666  0.3430
    1DIPC   GL111595  16.684  18.029   6.009 -0.1396  0.0024 -0.0397
    1DIPC   GL211596  16.400  17.850   5.965 -0.1329  0.1381 -0.0011
    1DIPC   C1A11597  16.870  17.995   5.613 -0.3021  0.0148  0.0930
    1DIPC   D2A11598  17.012  17.849   5.246 -0.4151 -0.1014  0.1001
    1DIPC   D3A11599  17.400  17.824   5.052  0.2484  0.2278 -0.0889
    1DIPC   C4A11600  17.545  18.261   4.823  0.0034 -0.0518  0.1873
    1DIPC   C1B11601  16.362  18.133   5.588 -0.3045  0.2660  0.0020
    1DIPC   D2B11602  16.615  18.174   5.268  0.1641 -0.0155  0.1119
    1DIPC   D3B11603  16.336  18.263   4.784 -0.0152 -0.0503 -0.1617
    1DIPC   C4B11604  15.880  18.193   4.833  0.1445  0.2889  0.0184
    1DIPC   NC311605  21.939  26.760   7.346  0.0720 -0.1695  0.1038
    1DIPC   PO411606  22.341  26.951   7.368 -0.1467  0.1739 -0.3317
    1DIPC   GL111607  22.528  26.847   6.996  0.3448 -0.1558 -0.0370
    1DIPC   GL211608  22.534  27.190   6.900  0.1542 -0.2470  0.4368
    1DIPC   C1A11609  22.755  26.888   6.578  0.0948  0.1380 -0.1009
    1DIPC   D2A11610  22.715  27.080   6.164  0.2035  0.3212 -0.2618
    1DIPC   D3A11611  22.507  26.721   6.134  0.2239  0.1261 -0.1209
    1DIPC   C4A11612  22.638  26.379   6.218 -0.1303 -0.0188 -0.2183
    1DIPC   C1B11613  22.724  27.469   6.584 -0.1888  0.2037  0.1520
    1DIPC   D2B11614  23.119  27.425   6.369  0.1946 -0.0057  0.0282
    1DIPC   D3B11615  22.960  27.381   5.817  0.0469 -0.3018 -0.0945
    1DIPC   C4B11616  22.684  27.672   5.670  0.2448  0.1378  0.1004
    1DIPC   NC311617  20.630  28.658   7.310  0.4227 -0.0431 -0.1947
    1DIPC   PO411618  20.832  28.721   7.003  0.0239 -0.1271  0.1602
    1DIPC   GL111619  20.799  28.849   6.550 -0.3768  0.2097  0.1301
    1DIPC   GL211620  20.618  28.614   6.491 -0.1772 -0.0263  0.0475
    1DIPC   C1A11621  20.894  28.703   6.097 -0.1121  0.1189  0.0754
    1DIPC   D2A11622  20.837  28.813   5.641 -0.0361 -0.0811  0.1854
    1DIPC   D3A11623  20.461  28.646   5.448  0.0388  0.0164  0.0722
    1DIPC   C4A11624  20.294  28.987   5.210  0.0343  0.1152  0.2184
    1DIPC   C1B11625  20.528  28.305   6.183  0.1339  0.3688  0.1151
    1DIPC   D2B11626  20.663  28.262   5.707 -0.1074 -0.1707  0.0188
    1DIPC   D3B11627  20.429  28.054   5.386 -0.1958  0.0300  0.0112
    1DIPC   C4B11628  20.728  27.899   5.334  0.1417 -0.0898 -0.2513
    1DIPC   NC311629  18.060  13.647   5.952 -0.1531  0.2566 -0.0005
    1DIPC   PO411630  17.520  13.657   5.962 -0.1963 -0.0770  0.0429
    1DIPC   GL111631  17.245  13.426   5.660  0.3163  0.2067 -0.1467
    1DIPC   GL211632  17.022  13.623   5.487  0.1634 -0.3359 -0.0637
    1DIPC   C1A11633  17.458  13.190   5.245 -0.3475  0.1814 -0.3143
    1DIPC   D2A11634  17.777  13.085   5.045  0.3689  0.0239  0.1963
    1DIPC   D3A11635  17.835  13.049   4.647 -0.2841 -0.0941 -0.0367
    1DIPC   C4A11636  17.566  13.045   4.316  0.0585 -0.4235  0.0937
    1DIPC   C1B11637  17.370  13.683   5.182 -0.1117  0.3942  0.3630
    1DIPC   D2B11638  17.431  13.427   4.790 -0.0466  0.1345  0.0218
    1DIPC   D3B11639  17.661  13.536   4.415  0.3242 -0.0174  0.1746
    1DIPC   C4B11640  17.697  13.921   4.258 -0.1306 -0.1687  0.2033
    1DIPC   NC311641  24.385   6.868   6.686 -0.1971  0.0856 -0.0613
    1DIPC   PO411642  24.085   7.140   6.572  0.0366 -0.1187  0.0091
    1DIPC   GL111643  24.425   7.122   6.251 -0.2093  0.0401  0.0017
    1DIPC   GL211644  24.468   7.426   5.946 -0.0071  0.2358 -0.0342
    1DIPC   C1A11645  24.535   6.731   5.977 -0.0656  0.1929 -0.0944
    1DIPC   D2A11646  24.934   6.537   5.695 -0.1781  0.0191  0.1649
    1DIPC   D3A11647  24.776   6.466   5.261  0.3355 -0.0080  0.1528
    1DIPC   C4A11648  24.860   6.799   4.938  0.1418  0.0637 -0.2941
    1DIPC   C1B11649  24.510   7.222   5.580  0.1737  0.2121  0.0703
    1DIPC   D2B11650  24.374   6.886   5.372 -0.1142  0.2021  0.0219
    1DIPC   D3B11651  24.001   6.911   5.548 -0.2766 -0.1591  0.1210
    1DIPC   C4B11652  24.113   6.977   5.937 -0.0084 -0.0242  0.0908
    1DIPC   NC311653  22.017   7.956   6.847  0.2439 -0.1145 -0.3432
    1DIPC   PO411654  21.789   8.202   6.968 -0.1259 -0.1721 -0.1258
    1DIPC   GL111655  21.747   8.139   6.465 -0.0782 -0.1766 -0.0578
    1DIPC   GL211656  21.607   8.320   6.223  0.1641 -0.2375 -0.1094
    1DIPC   C1A11657  21.705   7.756   6.173  0.0225 -0.2615  0.0905
    1DIPC   D2A11658  21.981   7.574   5.901 -0.1571  0.1445 -0.1034
    1DIPC   D3A11659  21.883   7.919   5.660  0.0751  0.0843  0.1264
    1DIPC   C4A11660  21.417   7.921   5.776 -0.2547  0.1477 -0.0922
    1DIPC   C1B11661  21.777   8.358   5.817 -0.1652 -0.2326  0.2619
    1DIPC   D2B11662  21.821   8.358   5.362  0.0339  0.0071 -0.2256
    1DIPC   D3B11663  22.224   8.249   5.250 -0.0041 -0.0407 -0.3321
    1DIPC   C4B11664  22.469   8.444   5.022  0.0008  0.0882 -0.2575
    1DIPC   NC311665  20.140  19.600   6.195  0.1678 -0.0167 -0.1480
    1DIPC   PO411666  20.490  19.854   6.194  0.1117  0.2388  0.2952
    1DIPC   GL111667  20.264  19.886   5.770 -0.1369  0.1787  0.2659
    1DIPC   GL211668  20.346  19.711   5.426 -0.0352 -0.1674 -0.0066
    1DIPC   C1A11669  20.135  20.203   5.521 -0.1061  0.0831  0.1003
    1DIPC   D2A11670  19.791  20.395   5.219 -0.0869  0.0057  0.3389
    1DIPC   D3A11671  19.322  20.493   5.342 -0.6173  0.1055  0.2415
    1DIPC   C4A11672  19.007  20.210   5.501 -0.0104 -0.3667 -0.0420
    1DIPC   C1B11673  20.156  19.741   5.005 -0.0259 -0.0558 -0.1156
    1DIPC   D2B11674  20.177  19.323   4.640 -0.6570 -0.0924 -0.0501
    1DIPC   D3B11675  19.899  18.937   4.508 -0.0776  0.0996  0.0780
    1DIPC   C4B11676  19.586  18.961   4.164  0.0650  0.3235  0.0652
    1DIPC   NC311677   7.636   3.584   7.350 -0.0655  0.0985 -0.0079
    1DIPC   PO411678   8.044   3.228   7.327 -0.1337 -0.1675 -0.0179
    1DIPC   GL111679   7.869   3.245   6.934  0.0725 -0.3561  0.1461
    1DIPC   GL211680   7.670   3.376   6.912 -0.0743 -0.0437  0.0897
    1DIPC   C1A11681   7.845   3.106   6.498 -0.0018 -0.0050 -0.0396
    1DIPC   D2A11682   8.119   3.043   6.153 -0.2392  0.1505 -0.2008
    1DIPC   D3A11683   7.931   2.958   5.731 -0.1173 -0.1104  0.1195
    1DIPC   C4A11684   7.609   2.708   5.510 -0.1794 -0.1746 -0.3170
    1DIPC   C1B11685   7.380   3.101   6.687  0.0121  0.2312  0.1787
    1DIPC   D2B11686   7.132   2.841   6.275 -0.1038  0.0371 -0.3938
    1DIPC   D3B11687   7.125   2.868   5.794 -0.0265  0.0509  0.0746
    1DIPC   C4B11688   6.875   3.138   5.571 -0.0351  0.2723 -0.0616
    1DIPC   NC311689   6.871  16.103   7.090 -0.1987 -0.0105 -0.0036
    1DIPC   PO411690   7.316  16.237   6.866 -0.0819  0.1315  0.1586
    1DIPC   GL111691   7.440  16.251   6.536  0.0057 -0.0632  0.1263
    1DIPC   GL211692   7.534  15.962   6.464 -0.0522 -0.0118 -0.2781
    1DIPC   C1A11693   7.742  16.558   6.366 -0.1889 -0.0719 -0.2536
    1DIPC   D2A11694   8.260  16.529   6.385  0.0654  0.3026 -0.2475
    1DIPC   D3A11695   8.033  16.514   5.941 -0.0390 -0.1363 -0.0465
    1DIPC   C4A11696   7.659  16.420   5.920  0.2627  0.1078 -0.1475
    1DIPC   C1B11697   7.620  15.930   6.088  0.1401  0.1461 -0.0568
    1DIPC   D2B11698   7.627  15.812   5.599 -0.1120 -0.1942 -0.3176
    1DIPC   D3B11699   7.544  16.183   5.431 -0.3179  0.0288  0.1225
    1DIPC   C4B11700   7.606  16.255   4.990 -0.0225 -0.1157  0.0465
    1DIPC   NC311701  27.369   4.458   6.556 -0.1240  0.1034 -0.1483
    1DIPC   PO411702  26.922   4.421   6.664 -0.1279 -0.0044 -0.0445
    1DIPC   GL111703  26.962   4.344   6.216 -0.3175  0.1266 -0.1105
    1DIPC   GL211704  26.594   4.354   6.281 -0.2501  0.0725  0.2230
    1DIPC   C1A11705  27.201   4.437   5.823  0.0348  0.0482 -0.0397
    1DIPC   D2A11706  27.139   4.374   5.371  0.4065  0.0223  0.0437
    1DIPC   D3A11707  27.052   4.840   5.543 -0.3557  0.1331 -0.1677
    1DIPC   C4A11708  26.682   5.027   5.470 -0.1037 -0.0493  0.0701
    1DIPC   C1B11709  26.576   4.235   5.900 -0.4118 -0.0915 -0.2389
    1DIPC   D2B11710  26.649   4.040   5.578 -0.2979 -0.0268  0.0318
    1DIPC   D3B11711  26.686   4.467   5.487  0.0292 -0.0309  0.2343
    1DIPC   C4B11712  26.497   4.481   5.163  0.3475  0.1121 -0.2947
    1DIPC   NC311713  24.048  19.965   5.905 -0.0140  0.1416 -0.2633
    1DIPC   PO411714  24.213  19.762   5.614  0.0204  0.2459 -0.1348
    1DIPC   GL111715  24.134  20.138   5.379  0.0717 -0.4644  0.1862
    1DIPC   GL211716  24.286  20.407   5.307 -0.2116  0.3440 -0.1493
    1DIPC   C1A11717  23.902  20.218   4.972 -0.0135  0.0218  0.2291
    1DIPC   D2A11718  23.843  20.557   4.918 -0.0219 -0.4823  0.1520
    1DIPC   D3A11719  23.857  20.636   4.399  0.0751  0.1744  0.1426
    1DIPC   C4A11720  24.195  20.769   4.177 -0.1151 -0.1554  0.0008
    1DIPC   C1B11721  24.344  20.368   4.893 -0.1684  0.1258  0.2413
    1DIPC   D2B11722  24.358  20.406   4.470  0.3056  0.0159  0.0021
    1DIPC   D3B11723  23.978  20.289   4.104 -0.0402  0.3628  0.1977
    1DIPC   C4B11724  23.687  20.411   3.917 -0.2150  0.1290  0.2489
    1DIPC   NC311725   6.081   9.774   6.584 -0.0390  0.1201 -0.1845
    1DIPC   PO411726   6.541   9.558   6.574 -0.0496  0.0558  0.2096
    1DIPC   GL111727   6.565   9.491   6.096 -0.0445  0.3462 -0.1962
    1DIPC   GL211728   6.206   9.536   6.138 -0.2044  0.0453  0.1614
    1DIPC   C1A11729   6.580   9.174   5.837  0.1556  0.0079 -0.0058
    1DIPC   D2A11730   6.372   8.931   5.610 -0.0249  0.2445  0.2279
    1DIPC   D3A11731   6.712   8.725   5.318 -0.1995 -0.0271 -0.0328
    1DIPC   C4A11732   6.652   8.282   5.210 -0.1578 -0.5488  0.1058
    1DIPC   C1B11733   6.118   9.156   6.009 -0.1555 -0.0492 -0.1010
    1DIPC   D2B11734   5.835   8.839   5.992  0.0143  0.0668 -0.0264
    1DIPC   D3B11735   5.637   9.173   5.804 -0.1857  0.0241  0.1485
    1DIPC   C4B11736   5.947   9.254   5.532  0.1740 -0.3298 -0.1522
    1DIPC   NC311737   0.216   1.173   6.419  0.3475  0.1938  0.3249
    1DIPC   PO411738   0.043   1.138   6.787  0.2860 -0.0423 -0.1268
    1DIPC   GL111739  -0.262   1.308   6.556  0.1086  0.0522  0.1432
    1DIPC   GL211740  -0.324   1.593   6.343 -0.1890 -0.1287 -0.0943
    1DIPC   C1A11741  -0.338   1.228   6.072 -0.2194  0.0899  0.0449
    1DIPC   D2A11742  -0.279   1.351   5.615  0.0592 -0.6589 -0.2299
    1DIPC   D3A11743  -0.569   1.148   5.338 -0.0625  0.0411 -0.1464
    1DIPC   C4A11744  -0.468   1.004   4.991  0.2034  0.1850  0.0954
    1DIPC   C1B11745  -0.476   1.891   6.128 -0.1056 -0.1006 -0.2184
    1DIPC   D2B11746  -0.446   2.362   6.082 -0.1700 -0.0887  0.3637
    1DIPC   D3B11747  -0.572   2.490   5.716  0.0691 -0.1033  0.1207
    1DIPC   C4B11748  -0.326   2.750   5.428  0.2646  0.5139  0.2951
    1DIPC   NC311749  18.016  23.256   6.728 -0.2372 -0.1785  0.0430
    1DIPC   PO411750  17.772  23.083   6.414 -0.2656 -0.3364 -0.0056
    1DIPC   GL111751  17.783  23.140   5.944 -0.3221  0.0230 -0.4398
    1DIPC   GL211752  17.438  23.313   5.851  0.1584  0.0301  0.2090
    1DIPC   C1A11753  17.865  23.065   5.505 -0.3444  0.2724 -0.1948
    1DIPC   D2A11754  18.035  22.931   5.029 -0.2967 -0.1445  0.1496
    1DIPC   D3A11755  17.767  23.052   4.575 -0.0045  0.0258 -0.2231
    1DIPC   C4A11756  17.679  23.159   4.158 -0.1085  0.1864 -0.2284
    1DIPC   C1B11757  17.539  23.422   5.409 -0.0330 -0.1278  0.0094
    1DIPC   D2B11758  17.392  23.719   5.084  0.2076  0.0069 -0.3521
    1DIPC   D3B11759  17.766  23.897   5.037  0.0403  0.0355  0.0133
    1DIPC   C4B11760  17.753  24.363   5.072  0.0543  0.1953  0.2326
    1DIPC   NC311761  23.108   5.389   7.197  0.3963  0.1049 -0.1249
    1DIPC   PO411762  22.712   5.368   7.097 -0.0667 -0.0945 -0.1455
    1DIPC   GL111763  22.753   5.232   6.730  0.0045 -0.1149  0.1338
    1DIPC   GL211764  22.525   4.983   6.836 -0.0959  0.2069 -0.3142
    1DIPC   C1A11765  22.988   4.991   6.421 -0.0620 -0.1510  0.1117
    1DIPC   D2A11766  23.183   4.780   6.189 -0.0231 -0.0226 -0.0864
    1DIPC   D3A11767  23.159   4.583   5.745 -0.0633 -0.0299  0.0881
    1DIPC   C4A11768  23.532   4.747   5.564  0.0713 -0.0342  0.0530
    1DIPC   C1B11769  22.237   4.633   6.958 -0.0217 -0.0452 -0.0536
    1DIPC   D2B11770  21.919   4.353   7.005 -0.0019  0.1105  0.0677
    1DIPC   D3B11771  22.128   4.124   6.732 -0.0824 -0.0581  0.0275
    1DIPC   C4B11772  22.029   3.752   6.417  0.0678  0.2323 -0.1213
    1DIPC   NC311773  20.276   8.210   6.770  0.0873 -0.2116 -0.0554
    1DIPC   PO411774  19.918   8.445   6.531  0.1133  0.1425  0.0895
    1DIPC   GL111775  20.014   8.522   6.045  0.2188 -0.3738  0.0457
    1DIPC   GL211776  19.904   8.313   5.942  0.1753  0.0819 -0.0830
    1DIPC   C1A11777  20.317   8.753   5.846  0.0359  0.3072  0.2799
    1DIPC   D2A11778  20.523   9.085   5.751  0.3928  0.0321 -0.0807
    1DIPC   D3A11779  20.254   9.158   5.370  0.2845 -0.1002  0.0216
    1DIPC   C4A11780  19.949   9.488   5.419 -0.2481 -0.3080  0.2694
    1DIPC   C1B11781  20.127   8.271   5.529 -0.0283  0.1014  0.1377
    1DIPC   D2B11782  20.321   7.939   5.312 -0.0645  0.1587 -0.0597
    1DIPC   D3B11783  20.678   7.952   4.930 -0.0877 -0.3683 -0.2725
    1DIPC   C4B11784  20.683   8.321   4.599 -0.3517 -0.3832 -0.0078
    1DIPC   NC311785  24.508  27.995   7.139 -0.1205  0.1243 -0.3408
    1DIPC   PO411786  24.414  28.291   6.867  0.1807  0.0739 -0.0837
    1DIPC   GL111787  24.651  28.014   6.596 -0.4010 -0.0845  0.0544
    1DIPC   GL211788  24.525  27.976   6.327 -0.2526  0.1055  0.2747
    1DIPC   C1A11789  24.924  27.710   6.151  0.0533 -0.1675 -0.0199
    1DIPC   D2A11790  24.845  27.681   5.695 -0.0451 -0.0589  0.0631
    1DIPC   D3A11791  25.082  27.355   5.453  0.0994  0.0864  0.4249
    1DIPC   C4A11792  24.838  27.065   5.089  0.0074  0.1960  0.0581
    1DIPC   C1B11793  24.006  28.059   6.336 -0.1768 -0.1331 -0.2025
    1DIPC   D2B11794  23.548  28.101   6.371 -0.0281  0.0630 -0.0408
    1DIPC   D3B11795  23.535  28.074   5.978 -0.0482  0.1819  0.2490
    1DIPC   C4B11796  23.772  27.902   5.814 -0.2674 -0.2000  0.3979
    1DIPC   NC311797  23.483  27.170   7.292 -0.0272 -0.2631 -0.1359
    1DIPC   PO411798  23.228  26.779   7.354 -0.0694 -0.0858  0.2363
    1DIPC   GL111799  22.955  26.594   7.059 -0.2796 -0.1568 -0.1552
    1DIPC   GL211800  23.197  26.582   6.730 -0.1042 -0.0247 -0.2685
    1DIPC   C1A11801  22.766  26.309   6.751  0.2093  0.2622 -0.1628
    1DIPC   D2A11802  22.731  25.979   6.481 -0.0244 -0.1353  0.0016
    1DIPC   D3A11803  22.524  25.692   6.437 -0.1475  0.4430 -0.1618
    1DIPC   C4A11804  22.216  25.733   6.143  0.1872  0.1400  0.0802
    1DIPC   C1B11805  23.241  26.727   6.387 -0.0855 -0.2868 -0.1368
    1DIPC   D2B11806  22.986  26.690   6.005 -0.0323 -0.2217  0.0960
    1DIPC   D3B11807  22.720  26.516   5.711 -0.2915  0.0993 -0.0791
    1DIPC   C4B11808  22.501  26.171   5.794  0.1775 -0.1033  0.1405
    1DIPC   NC311809  11.888  14.395   7.334  0.2354 -0.1505  0.2454
    1DIPC   PO411810  11.640  14.723   7.118 -0.2172  0.1401 -0.0046
    1DIPC   GL111811  11.632  14.598   6.645 -0.0073 -0.3280  0.2542
    1DIPC   GL211812  11.767  14.337   6.472  0.4683 -0.3992  0.2737
    1DIPC   C1A11813  11.462  14.730   6.338 -0.0227 -0.2609  0.1198
    1DIPC   D2A11814  11.143  14.923   6.157  0.0857  0.1924  0.2366
    1DIPC   D3A11815  11.418  14.853   5.825 -0.1085 -0.0134  0.0186
    1DIPC   C4A11816  11.539  14.835   5.446 -0.2676  0.0338  0.0748
    1DIPC   C1B11817  11.717  14.417   6.039 -0.2218  0.0872  0.1548
    1DIPC   D2B11818  11.662  14.307   5.542 -0.2018  0.2073  0.0037
    1DIPC   D3B11819  11.387  14.013   5.494 -0.1274 -0.1735  0.0233
    1DIPC   C4B11820  10.977  14.043   5.549  0.4374 -0.1637 -0.0279
    1DIPC   NC311821  13.231  20.210   6.822 -0.2650  0.2207  0.1550
    1DIPC   PO411822  13.655  20.510   6.617  0.3202 -0.1930  0.1749
    1DIPC   GL111823  13.702  20.417   6.080  0.5879  0.1667  0.0296
    1DIPC   GL211824  13.938  20.196   5.922 -0.0929 -0.0922  0.0858
    1DIPC   C1A11825  13.621  20.432   5.666  0.0836 -0.2179  0.0663
    1DIPC   D2A11826  13.394  20.168   5.312 -0.0909  0.3409 -0.2559
    1DIPC   D3A11827  12.952  20.347   5.217  0.0639 -0.0516 -0.3802
    1DIPC   C4A11828  12.540  20.320   5.488 -0.1438  0.1407 -0.0317
    1DIPC   C1B11829  14.248  20.335   5.584 -0.0257  0.3117  0.0987
    1DIPC   D2B11830  14.302  20.777   5.567 -0.0930  0.1151  0.0738
    1DIPC   D3B11831  14.374  20.806   5.193 -0.0052  0.0951  0.2461
    1DIPC   C4B11832  14.226  20.587   4.897  0.1626 -0.1422  0.1898
    1DIPC   NC311833   3.154   4.145   6.928  0.0364 -0.1585 -0.1347
    1DIPC   PO411834   3.256   3.693   7.191 -0.0580  0.0922  0.2002
    1DIPC   GL111835   3.354   3.748   6.683  0.1355 -0.3507  0.3269
    1DIPC   GL211836   3.453   3.406   6.574 -0.1502 -0.1190 -0.0678
    1DIPC   C1A11837   3.585   3.979   6.442 -0.3835 -0.1030 -0.1503
    1DIPC   D2A11838   3.611   3.889   6.055  0.0097  0.0129  0.2044
    1DIPC   D3A11839   3.233   3.937   5.767 -0.1183 -0.0034 -0.1572
    1DIPC   C4A11840   2.886   4.034   5.924 -0.0294  0.1114 -0.1319
    1DIPC   C1B11841   3.739   3.401   6.279 -0.1168 -0.0816  0.0891
    1DIPC   D2B11842   3.845   3.482   5.882 -0.0172  0.1667 -0.0736
    1DIPC   D3B11843   3.917   3.750   5.550 -0.0224  0.3329 -0.2605
    1DIPC   C4B11844   3.604   3.907   5.429  0.1232 -0.4707  0.0718
    1DIPC   NC311845  19.211   1.164   7.511 -0.1841  0.3171 -0.0773
    1DIPC   PO411846  18.870   1.056   7.372 -0.2148 -0.2646 -0.1072
    1DIPC   GL111847  18.715   0.726   7.081 -0.0961 -0.4008  0.2574
    1DIPC   GL211848  19.041   0.599   7.072  0.3601  0.5726  0.5320
    1DIPC   C1A11849  18.725   0.472   6.713 -0.1160 -0.1115 -0.1192
    1DIPC   D2A11850  18.508   0.274   6.356 -0.0746  0.3171  0.4616
    1DIPC   D3A11851  18.647   0.415   5.992 -0.1089  0.1097  0.0662
    1DIPC   C4A11852  18.680   0.784   5.763 -0.1446  0.0621  0.0923
    1DIPC   C1B11853  19.263   0.636   6.699  0.4079  0.1251  0.1619
    1DIPC   D2B11854  19.495   0.385   6.405  0.0600 -0.1710  0.2383
    1DIPC   D3B11855  19.640   0.244   6.901  0.2219  0.0352 -0.0835
    1DIPC   C4B11856  19.485  -0.154   6.960 -0.1033  0.1931  0.2006
    1DIPC   NC311857  12.720  12.051   6.768  0.0274  0.3225 -0.4173
    1DIPC   PO411858  13.158  12.145   6.847  0.0677 -0.3214 -0.1172
    1DIPC   GL111859  13.086  12.078   6.476  0.1072  0.1992 -0.0277
    1DIPC   GL211860  12.809  11.886   6.283  0.0831 -0.0077 -0.1917
    1DIPC   C1A11861  13.086  12.232   6.122  0.0969 -0.1550 -0.0404
    1DIPC   D2A11862  13.153  12.216   5.707  0.0114  0.1876 -0.0181
    1DIPC   D3A11863  12.841  12.177   5.535  0.0831 -0.3505  0.1355
    1DIPC   C4A11864  12.587  12.091   5.204  0.0338  0.3523 -0.1474
    1DIPC   C1B11865  12.596  12.079   5.927 -0.0774 -0.0277 -0.3766
    1DIPC   D2B11866  12.237  12.089   5.703 -0.0019  0.0992  0.2894
    1DIPC   D3B11867  12.478  12.485   5.510 -0.0308 -0.0760 -0.1124
    1DIPC   C4B11868  12.574  12.643   5.021 -0.1886 -0.2386  0.1000
    1DIPC   NC311869  16.616  10.982   6.357 -0.1178  0.1278  0.0655
    1DIPC   PO411870  16.884  10.702   6.201  0.0462 -0.1881  0.1578
    1DIPC   GL111871  16.680  10.801   5.827  0.2968 -0.1125  0.3251
    1DIPC   GL211872  16.420  10.919   5.845  0.1019 -0.2475  0.3291
    1DIPC   C1A11873  16.610  10.597   5.486 -0.1818  0.0831  0.2900
    1DIPC   D2A11874  16.352  10.371   5.324  0.4451  0.0148 -0.3521
    1DIPC   D3A11875  16.339  10.533   5.034 -0.1043  0.0325  0.0243
    1DIPC   C4A11876  16.407  10.383   4.667  0.1037 -0.0037  0.2861
    1DIPC   C1B11877  16.091  10.928   5.433  0.2714 -0.2794 -0.0563
    1DIPC   D2B11878  16.043  11.160   5.205  0.0178  0.1751  0.0962
    1DIPC   D3B11879  15.686  10.790   4.982 -0.1918 -0.0402 -0.0113
    1DIPC   C4B11880  15.280  10.888   5.020  0.3054 -0.1883  0.1147
    1DIPC   NC311881  16.876  27.618   6.671  0.3308  0.1591 -0.1988
    1DIPC   PO411882  16.500  27.850   6.848  0.2840  0.1754  0.0180
    1DIPC   GL111883  16.520  27.809   6.286  0.1338 -0.1401 -0.0600
    1DIPC   GL211884  16.217  27.772   6.073  0.2474  0.2068 -0.1960
    1DIPC   C1A11885  16.753  27.873   5.982 -0.1342 -0.2401  0.2665
    1DIPC   D2A11886  16.711  27.519   5.600 -0.0749  0.2233 -0.0997
    1DIPC   D3A11887  16.398  27.884   5.569 -0.0486 -0.3063  0.1760
    1DIPC   C4A11888  16.419  28.192   5.337  0.3777  0.0511 -0.2054
    1DIPC   C1B11889  15.922  27.731   5.706 -0.1577 -0.1682  0.0579
    1DIPC   D2B11890  15.945  27.533   5.360  0.0707  0.0559 -0.1478
    1DIPC   D3B11891  15.547  27.446   5.054  0.3115  0.1711 -0.1518
    1DIPC   C4B11892  15.479  27.026   5.060  0.0993 -0.1481 -0.5021
    1DIPC   NC311893  22.874  19.112   6.083 -0.1292 -0.1844  0.1454
    1DIPC   PO411894  22.886  19.033   5.699 -0.2322  0.0522 -0.1154
    1DIPC   GL111895  22.946  18.917   5.358 -0.0305  0.2442  0.0992
    1DIPC   GL211896  23.303  18.912   5.132 -0.1332  0.0078  0.3623
    1DIPC   C1A11897  22.930  19.191   4.927 -0.0427 -0.2308 -0.2284
    1DIPC   D2A11898  22.877  19.414   4.563 -0.0524  0.0117 -0.2514
    1DIPC   D3A11899  23.010  19.202   4.319  0.2527  0.0663 -0.0934
    1DIPC   C4A11900  22.792  19.157   3.915 -0.3301  0.0728  0.2237
    1DIPC   C1B11901  23.091  18.793   4.697  0.0219 -0.2614  0.1788
    1DIPC   D2B11902  22.989  18.649   4.191  0.1455  0.2169  0.0568
    1DIPC   D3B11903  22.538  18.839   4.198 -0.1669  0.0201 -0.0527
    1DIPC   C4B11904  22.270  19.141   4.001 -0.3147  0.1540  0.0653
    1DIPC   NC311905  13.984  20.153   6.613 -0.1458 -0.4512 -0.2293
    1DIPC   PO411906  13.671  19.972   6.759  0.0649  0.1230 -0.2904
    1DIPC   GL111907  13.484  20.010   6.374 -0.2069  0.2878  0.1851
    1DIPC   GL211908  13.309  20.241   6.356  0.2289 -0.1527 -0.0674
    1DIPC   C1A11909  13.485  19.918   5.891 -0.0815 -0.0823 -0.1570
    1DIPC   D2A11910  13.445  19.696   5.561  0.1108 -0.2923 -0.0024
    1DIPC   D3A11911  13.782  19.903   5.468 -0.0135  0.1617 -0.0117
    1DIPC   C4A11912  14.008  19.720   5.763 -0.1114  0.2447  0.4090
    1DIPC   C1B11913  13.137  20.367   5.968  0.1082  0.1159  0.1070
    1DIPC   D2B11914  13.071  20.620   5.635  0.0944  0.1964  0.1775
    1DIPC   D3B11915  13.382  20.782   5.299 -0.3327  0.0285  0.0619
    1DIPC   C4B11916  13.328  21.039   4.950 -0.0614 -0.2019  0.0731
    1DIPC   NC311917  22.718  21.887   5.998 -0.3549  0.1007 -0.0452
    1DIPC   PO411918  22.606  21.609   5.727  0.0460  0.0617  0.1650
    1DIPC   GL111919  22.568  21.356   5.361 -0.0272  0.0501 -0.0854
    1DIPC   GL211920  22.887  21.525   5.140  0.1312  0.2540  0.1154
    1DIPC   C1A11921  22.415  21.368   4.931  0.0467  0.1170 -0.3335
    1DIPC   D2A11922  22.601  21.311   4.545  0.1171  0.1664 -0.0505
    1DIPC   D3A11923  22.338  21.552   4.333  0.1394 -0.4146  0.4815
    1DIPC   C4A11924  22.081  21.265   4.135  0.1154  0.1621  0.1354
    1DIPC   C1B11925  22.819  21.732   4.791  0.4838  0.4101 -0.1069
    1DIPC   D2B11926  22.744  21.830   4.444 -0.0332  0.0174  0.0861
    1DIPC   D3B11927  22.676  22.009   4.095 -0.0194  0.2934 -0.1329
    1DIPC   C4B11928  22.329  21.855   3.916 -0.4240  0.2709 -0.3661
    1DIPC   NC311929  25.376   5.319   6.803  0.0562 -0.1539  0.2304
    1DIPC   PO411930  25.006   5.615   6.826  0.1808  0.1448 -0.4585
    1DIPC   GL111931  24.768   5.628   6.396 -0.1151 -0.0057 -0.1870
    1DIPC   GL211932  24.552   5.430   6.354  0.2165  0.0891  0.0948
    1DIPC   C1A11933  24.807   5.552   5.930  0.2096 -0.0917 -0.0040
    1DIPC   D2A11934  24.701   5.367   5.426 -0.2865  0.1999  0.3115
    1DIPC   D3A11935  24.903   4.979   5.595  0.0569  0.0382  0.0304
    1DIPC   C4A11936  25.073   4.662   5.286  0.2893 -0.1145 -0.2084
    1DIPC   C1B11937  24.369   5.743   6.066 -0.1583  0.2566 -0.2088
    1DIPC   D2B11938  24.328   5.683   5.604  0.1779 -0.1448  0.0923
    1DIPC   D3B11939  24.518   6.062   5.437  0.0897 -0.2101  0.0545
    1DIPC   C4B11940  24.316   6.408   5.650 -0.0083 -0.1068  0.0250
    1DIPC   NC311941   3.724   7.016   6.488 -0.1790  0.0076  0.0677
    1DIPC   PO411942   3.513   6.615   6.367  0.0135 -0.0832 -0.1419
    1DIPC   GL111943   3.779   6.729   5.975  0.1505 -0.1318 -0.0689
    1DIPC   GL211944   3.956   6.996   6.012 -0.1083  0.0008 -0.0358
    1DIPC   C1A11945   3.902   6.900   5.476 -0.0209 -0.1472  0.3289
    1DIPC   D2A11946   3.585   6.872   5.167 -0.1744  0.0857  0.0175
    1DIPC   D3A11947   3.175   6.806   5.137  0.2616  0.2479 -0.1643
    1DIPC   C4A11948   3.054   7.002   5.456  0.4216 -0.0953 -0.2531
    1DIPC   C1B11949   4.234   6.753   5.803 -0.1094  0.2706 -0.0915
    1DIPC   D2B11950   4.592   6.630   5.618  0.0652 -0.2015  0.1046
    1DIPC   D3B11951   4.952   6.813   5.474  0.2141 -0.1028  0.0424
    1DIPC   C4B11952   5.229   6.972   5.223 -0.2960  0.0329  0.1568
    1DIPC   NC311953  25.309   7.377   6.640 -0.0329 -0.2253 -0.0952
    1DIPC   PO411954  25.164   7.775   6.472  0.1572  0.0273  0.2505
    1DIPC   GL111955  25.244   7.968   6.031  0.3843  0.2176  0.3642
    1DIPC   GL211956  25.171   8.251   5.748  0.0522 -0.2592  0.1549
    1DIPC   C1A11957  25.371   7.743   5.689 -0.2722  0.1730  0.1108
    1DIPC   D2A11958  25.279   7.476   5.335  0.0370  0.1580  0.0243
    1DIPC   D3A11959  25.240   7.129   4.971  0.2996  0.0703  0.1282
    1DIPC   C4A11960  25.563   7.073   4.689 -0.1840 -0.0038  0.4447
    1DIPC   C1B11961  25.189   8.062   5.357 -0.0896  0.0223 -0.0794
    1DIPC   D2B11962  25.016   8.000   4.970 -0.2900 -0.1564  0.0032
    1DIPC   D3B11963  25.217   8.294   4.889  0.1354  0.0051 -0.0121
    1DIPC   C4B11964  25.044   8.586   4.596  0.0952  0.1106  0.0998
    1DIPC   NC311965  13.674  10.309   6.723 -0.4985 -0.1114 -0.2068
    1DIPC   PO411966  13.530  10.682   6.782 -0.1323  0.1209  0.3349
    1DIPC   GL111967  13.623  10.724   6.406 -0.2341  0.0261  0.1753
    1DIPC   GL211968  13.927  10.559   6.369 -0.1758 -0.0400  0.0231
    1DIPC   C1A11969  13.512  10.550   5.927 -0.1130 -0.3331  0.0985
    1DIPC   D2A11970  13.665  10.365   5.496  0.0456 -0.2179  0.1024
    1DIPC   D3A11971  13.484  10.533   5.109 -0.0879  0.0271  0.2826
    1DIPC   C4A11972  13.095  10.341   5.017  0.2674  0.0067 -0.2260
    1DIPC   C1B11973  13.767  10.201   6.082 -0.1933 -0.0027  0.3146
    1DIPC   D2B11974  13.549   9.849   6.099  0.0167 -0.3039  0.1460
    1DIPC   D3B11975  13.258  10.134   5.920 -0.2356  0.5175  0.2372
    1DIPC   C4B11976  13.210  10.200   5.493 -0.1094  0.1290 -0.0980
    1DIPC   NC311977   4.703   2.093   6.864 -0.0640  0.1645 -0.0364
    1DIPC   PO411978   5.093   2.382   6.730 -0.0872  0.0420  0.1027
    1DIPC   GL111979   5.060   2.127   6.439 -0.1067  0.2246  0.0236
    1DIPC   GL211980   5.375   2.040   6.428 -0.0192  0.1867  0.0055
    1DIPC   C1A11981   4.983   2.161   5.996  0.3118 -0.0068 -0.1520
    1DIPC   D2A11982   4.963   2.217   5.522  0.1763 -0.0462  0.0248
    1DIPC   D3A11983   4.638   2.244   5.185 -0.0963 -0.0220 -0.2905
    1DIPC   C4A11984   4.686   2.548   4.940  0.1729 -0.2994  0.1707
    1DIPC   C1B11985   5.488   2.191   6.062  0.0399 -0.0843  0.1353
    1DIPC   D2B11986   5.462   2.299   5.624  0.2406  0.2446 -0.0591
    1DIPC   D3B11987   5.406   2.654   5.484  0.0980  0.0674  0.0474
    1DIPC   C4B11988   4.986   2.724   5.397 -0.1890  0.0450 -0.1862
    1DIPC   NC311989  26.292  10.259   6.570 -0.0600 -0.0173 -0.0332
    1DIPC   PO411990  26.281   9.978   6.219 -0.1303 -0.1360  0.1962
    1DIPC   GL111991  26.364   9.960   5.787  0.0623  0.1116  0.1801
    1DIPC   GL211992  26.101  10.152   5.570 -0.3215 -0.0222 -0.0675
    1DIPC   C1A11993  26.385   9.740   5.367 -0.1845  0.1463  0.3548
    1DIPC   D2A11994  26.150   9.439   5.131 -0.0079 -0.1091 -0.2514
    1DIPC   D3A11995  25.749   9.356   4.995  0.0679 -0.1594  0.0269
    1DIPC   C4A11996  25.694   9.344   4.619  0.1897  0.0238  0.0382
    1DIPC   C1B11997  26.170  10.125   5.126  0.4345  0.1485  0.1210
    1DIPC   D2B11998  26.208  10.469   4.938 -0.1381  0.1392 -0.1279
    1DIPC   D3B11999  26.272  10.270   4.557 -0.6485 -0.0158  0.0100
    1DIPC   C4B12000  26.047  10.090   4.451  0.2474 -0.1179 -0.1304
    1DIPC   NC312001  24.837   2.738   7.499 -0.1675 -0.2245  0.0963
    1DIPC   PO412002  24.956   2.630   7.126  0.1103 -0.0089  0.0448
    1DIPC   GL112003  24.866   2.667   6.732  0.0203 -0.1725  0.1038
    1DIPC   GL212004  24.704   2.481   6.703 -0.0771 -0.1779  0.3209
    1DIPC   C1A12005  24.896   2.809   6.338  0.1234  0.0682  0.1849
    1DIPC   D2A12006  24.690   3.033   5.985  0.2146 -0.4723  0.3484
    1DIPC   D3A12007  24.424   2.923   5.538 -0.1396 -0.1250 -0.1852
    1DIPC   C4A12008  24.191   2.979   5.195 -0.1631 -0.1251  0.2232
    1DIPC   C1B12009  24.385   2.651   6.485 -0.1820 -0.1175 -0.0484
    1DIPC   D2B12010  24.207   2.871   6.088 -0.0095 -0.0948 -0.1477
    1DIPC   D3B12011  24.298   3.282   6.076 -0.1381 -0.1075 -0.0938
    1DIPC   C4B12012  24.387   3.667   6.278 -0.0972  0.2023 -0.3451
    1DIPC   NC312013  10.909   8.717   6.614  0.0295  0.0776  0.0105
    1DIPC   PO412014  10.535   8.473   6.466  0.4162 -0.2172 -0.0850
    1DIPC   GL112015  10.623   8.311   6.093 -0.0765 -0.3277  0.1095
    1DIPC   GL212016  10.959   8.275   5.885  0.1082 -0.2120 -0.0508
    1DIPC   C1A12017  10.372   8.219   5.823  0.0181  0.1798 -0.1605
    1DIPC   D2A12018  10.261   8.143   5.391 -0.0716 -0.0616 -0.1689
    1DIPC   D3A12019   9.886   8.147   5.580  0.0766  0.1826  0.1401
    1DIPC   C4A12020   9.605   8.378   5.719  0.1125 -0.0131  0.0089
    1DIPC   C1B12021  11.265   8.376   5.513  0.1251  0.0026 -0.0900
    1DIPC   D2B12022  11.662   8.462   5.418  0.0970  0.1203 -0.2761
    1DIPC   D3B12023  12.099   8.160   5.401  0.2543 -0.0178 -0.0623
    1DIPC   C4B12024  12.371   8.459   5.297 -0.0790 -0.0303  0.0513
    1DIPC   NC312025  16.844  14.216   6.181 -0.1106 -0.0457  0.3209
    1DIPC   PO412026  16.530  14.433   5.868  0.0906  0.0544 -0.2625
    1DIPC   GL112027  16.434  14.512   5.483  0.0843  0.2570 -0.0791
    1DIPC   GL212028  16.637  14.748   5.469 -0.0176  0.1716  0.1882
    1DIPC   C1A12029  16.423  14.404   5.075  0.0826  0.0927  0.0210
    1DIPC   D2A12030  16.582  14.061   4.779  0.0031 -0.0492 -0.0812
    1DIPC   D3A12031  16.429  14.193   4.411  0.0387  0.2046 -0.0176
    1DIPC   C4A12032  16.063  14.350   4.237 -0.1266 -0.3405 -0.1104
    1DIPC   C1B12033  16.589  14.891   5.049 -0.0002  0.0530  0.0442
    1DIPC   D2B12034  16.631  15.195   4.708  0.1316 -0.0926  0.1131
    1DIPC   D3B12035  16.345  15.056   4.513  0.1342 -0.1744  0.2040
    1DIPC   C4B12036  16.197  14.666   4.648 -0.0842  0.0608 -0.1712
    1DIPC   NC312037  21.059  22.892   6.086  0.2006 -0.4142 -0.1483
    1DIPC   PO412038  20.793  23.193   6.187  0.3099  0.1322  0.1057
    1DIPC   GL112039  20.890  23.314   5.702  0.4531 -0.0198  0.0285
    1DIPC   GL212040  20.848  23.005   5.634  0.1314  0.1796  0.4075
    1DIPC   C1A12041  21.029  23.309   5.222 -0.0951 -0.1782 -0.2818
    1DIPC   D2A12042  20.970  23.222   4.719 -0.1089  0.0296 -0.2968
    1DIPC   D3A12043  21.207  23.569   4.751  0.0295 -0.0958 -0.1029
    1DIPC   C4A12044  21.004  23.806   5.017  0.0758 -0.1699 -0.1751
    1DIPC   C1B12045  20.460  23.193   5.631 -0.1124 -0.1680 -0.0808
    1DIPC   D2B12046  20.225  23.532   5.666 -0.0237  0.0014 -0.2303
    1DIPC   D3B12047  19.952  23.344   5.354  0.3404 -0.2439  0.1174
    1DIPC   C4B12048  20.181  23.069   5.018 -0.2467 -0.0355 -0.0093
    1DIPC   NC312049   4.969  29.449   6.792 -0.1234  0.1323 -0.2446
    1DIPC   PO412050   5.052  29.344   6.427  0.1874 -0.0150 -0.3269
    1DIPC   GL112051   5.145  29.445   6.051  0.1690  0.1338  0.1558
    1DIPC   GL212052   4.988  29.663   5.881  0.1725  0.1058 -0.4653
    1DIPC   C1A12053   5.471  29.470   5.643 -0.0550 -0.0826 -0.0367
    1DIPC   D2A12054   5.570  29.892   5.426 -0.0147  0.1129  0.0232
    1DIPC   D3A12055   5.609  29.948   5.020 -0.2885 -0.1354  0.0615
    1DIPC   C4A12056   5.894  29.581   4.819  0.0894  0.0564 -0.1347
    1DIPC   C1B12057   5.409  29.915   5.937 -0.0324  0.1904 -0.2051
    1DIPC   D2B12058   5.816  29.812   5.862 -0.0466 -0.0817 -0.3460
    1DIPC   D3B12059   6.004  29.539   5.480  0.3864 -0.1414  0.0876
    1DIPC   C4B12060   5.832  29.099   5.429  0.0300 -0.1403 -0.1268
    1DIPC   NC312061   7.644  23.837   6.583  0.0992  0.0538 -0.1120
    1DIPC   PO412062   7.633  24.212   6.790  0.1610  0.0395 -0.1275
    1DIPC   GL112063   7.574  24.339   6.383 -0.0857  0.1514 -0.0530
    1DIPC   GL212064   7.723  24.100   6.198  0.0859  0.2316  0.1678
    1DIPC   C1A12065   7.601  24.480   5.906  0.0111  0.1359  0.1044
    1DIPC   D2A12066   7.653  24.955   5.778  0.0043  0.1491 -0.1844
    1DIPC   D3A12067   7.807  25.360   5.456 -0.0736 -0.1356 -0.3332
    1DIPC   C4A12068   8.120  25.172   5.158  0.0493 -0.1499  0.2227
    1DIPC   C1B12069   7.840  24.062   5.857  0.0142 -0.0409 -0.2400
    1DIPC   D2B12070   7.900  24.443   5.573 -0.5924 -0.2118  0.1344
    1DIPC   D3B12071   7.934  24.289   5.098 -0.1445 -0.1462  0.2567
    1DIPC   C4B12072   7.777  23.992   4.773 -0.2236 -0.2321 -0.2258
    1DIPC   NC312073   2.838   3.494   7.318 -0.2888 -0.0151 -0.1079
    1DIPC   PO412074   2.872   3.397   6.864  0.1638 -0.1148 -0.0752
    1DIPC   GL112075   2.959   3.436   6.415 -0.1827  0.2896  0.0652
    1DIPC   GL212076   2.994   3.697   6.280  0.2396  0.2528  0.1412
    1DIPC   C1A12077   2.982   3.347   5.908 -0.2231 -0.0156  0.4828
    1DIPC   D2A12078   2.853   3.628   5.585  0.2302  0.2075  0.0141
    1DIPC   D3A12079   3.110   3.649   5.141  0.0130 -0.2122 -0.0463
    1DIPC   C4A12080   2.867   3.788   4.808 -0.0038  0.0708  0.0783
    1DIPC   C1B12081   3.156   4.127   6.328 -0.0783  0.0400  0.1990
    1DIPC   D2B12082   3.360   4.415   6.521  0.0422  0.1049 -0.2157
    1DIPC   D3B12083   3.675   4.512   6.214  0.2692 -0.0785  0.1069
    1DIPC   C4B12084   4.061   4.837   6.190  0.0246 -0.2595  0.2232
    1DIPC   NC312085  11.730  19.243   6.868  0.1058  0.2349  0.0798
    1DIPC   PO412086  11.381  19.574   6.655 -0.0406  0.1222  0.0102
    1DIPC   GL112087  11.546  19.694   6.188 -0.2534  0.0205 -0.2259
    1DIPC   GL212088  11.568  20.017   6.187 -0.1828  0.2146  0.2732
    1DIPC   C1A12089  11.668  19.556   5.881  0.0844  0.1789 -0.0627
    1DIPC   D2A12090  11.582  19.214   5.870 -0.2075 -0.1156  0.1248
    1DIPC   D3A12091  11.828  19.302   5.452  0.3193  0.2267  0.2665
    1DIPC   C4A12092  12.199  19.420   5.444 -0.2300 -0.4596 -0.0722
    1DIPC   C1B12093  11.639  20.053   5.729 -0.1881  0.3071  0.0693
    1DIPC   D2B12094  11.762  19.800   5.360 -0.2626  0.1542  0.2672
    1DIPC   D3B12095  11.605  19.586   4.994 -0.0057 -0.1042 -0.1803
    1DIPC   C4B12096  11.203  19.821   5.041 -0.3341  0.1611 -0.1559
    1DIPC   NC312097   4.247   1.558   6.722  0.0911  0.4434 -0.5155
    1DIPC   PO412098   3.872   1.387   6.590 -0.2096 -0.1153  0.0696
    1DIPC   GL112099   3.751   1.456   6.193 -0.1243 -0.1004 -0.1566
    1DIPC   GL212100   3.772   1.468   5.961  0.2409  0.2890  0.0441
    1DIPC   C1A12101   3.317   1.624   6.011  0.0558 -0.1291  0.0775
    1DIPC   D2A12102   2.829   1.701   6.025  0.0814 -0.0542  0.0260
    1DIPC   D3A12103   2.967   1.478   5.571 -0.2873 -0.1437 -0.1862
    1DIPC   C4A12104   2.814   1.347   5.108 -0.2979  0.1553 -0.0104
    1DIPC   C1B12105   4.143   1.394   5.689  0.0728  0.1656 -0.4005
    1DIPC   D2B12106   4.291   1.285   5.250  0.1334  0.0283 -0.0063
    1DIPC   D3B12107   4.121   1.756   5.032 -0.1955 -0.0353 -0.1592
    1DIPC   C4B12108   3.635   1.983   5.174  0.1634 -0.1529  0.1116
    1DIPC   NC312109  15.511  28.519   6.428  0.2735  0.2172  0.1376
    1DIPC   PO412110  15.210  28.752   6.208 -0.0568  0.0045 -0.0020
    1DIPC   GL112111  15.105  29.129   5.990  0.0793 -0.1685  0.3833
    1DIPC   GL212112  15.430  29.109   5.802  0.6272 -0.0987  0.1693
    1DIPC   C1A12113  14.695  29.235   5.737  0.0672 -0.1711  0.1852
    1DIPC   D2A12114  14.789  29.273   5.338  0.1760  0.0038 -0.1564
    1DIPC   D3A12115  14.587  28.874   5.229  0.0325 -0.0811  0.1025
    1DIPC   C4A12116  14.208  28.900   5.163  0.4648  0.0591  0.2798
    1DIPC   C1B12117  15.132  29.505   5.645 -0.3197 -0.2226  0.2302
    1DIPC   D2B12118  15.114  29.923   5.797 -0.0462 -0.0248 -0.2365
    1DIPC   D3B12119  15.395  29.953   5.443  0.4575  0.0284 -0.1011
    1DIPC   C4B12120  15.255  30.032   4.964 -0.0357 -0.0022  0.1791
    1DIPC   NC312121   3.852  27.884   6.492  0.0167  0.2536  0.3692
    1DIPC   PO412122   3.426  27.878   6.458  0.1022  0.1740  0.2171
    1DIPC   GL112123   3.279  27.496   6.216  0.2171 -0.3726  0.1055
    1DIPC   GL212124   2.933  27.280   6.357 -0.0665  0.0122 -0.3535
    1DIPC   C1A12125   3.415  27.093   6.000  0.2838 -0.0646  0.3079
    1DIPC   D2A12126   3.660  26.770   5.742 -0.3827 -0.0147  0.0143
    1DIPC   D3A12127   3.252  26.694   5.507 -0.4349 -0.1245 -0.1461
    1DIPC   C4A12128   2.802  26.877   5.478  0.2494  0.1002 -0.2104
    1DIPC   C1B12129   2.936  27.317   5.898  0.0996  0.2243  0.0928
    1DIPC   D2B12130   3.261  27.550   5.701 -0.2894 -0.2237  0.2522
    1DIPC   D3B12131   3.135  27.292   5.296 -0.1419 -0.5425  0.1327
    1DIPC   C4B12132   3.338  26.989   5.073  0.0112 -0.0340  0.0388
    1DIPC   NC312133  22.910  24.736   6.573  0.2002 -0.0657  0.0430
    1DIPC   PO412134  23.085  24.467   6.424 -0.0554 -0.0166 -0.5217
    1DIPC   GL112135  23.063  24.610   6.078 -0.3020  0.0412  0.1006
    1DIPC   GL212136  23.429  24.825   6.055 -0.0044 -0.0777 -0.1855
    1DIPC   C1A12137  22.893  24.636   5.682  0.1359 -0.3311  0.1157
    1DIPC   D2A12138  22.504  24.492   5.514  0.0551  0.0581 -0.1522
    1DIPC   D3A12139  22.932  24.197   5.450 -0.1102  0.0832 -0.3773
    1DIPC   C4A12140  23.323  24.377   5.778 -0.0561 -0.3547  0.0490
    1DIPC   C1B12141  23.444  24.929   5.647 -0.1361  0.1045 -0.0575
    1DIPC   D2B12142  23.703  24.759   5.348 -0.1691 -0.1219  0.3365
    1DIPC   D3B12143  23.620  24.986   4.966 -0.2889  0.1094  0.3615
    1DIPC   C4B12144  23.855  25.448   4.936 -0.0225  0.0260  0.1805
    1DIPC   NC312145  18.584  29.035   7.074  0.0417  0.1747 -0.0305
    1DIPC   PO412146  18.798  29.099   7.352  0.0392  0.1150  0.0617
    1DIPC   GL112147  19.072  29.189   6.942 -0.0411 -0.1340  0.0667
    1DIPC   GL212148  19.352  28.953   6.746  0.1986  0.1072 -0.3120
    1DIPC   C1A12149  19.314  29.390   6.527  0.0486 -0.0277 -0.2719
    1DIPC   D2A12150  19.653  29.605   6.442 -0.0056 -0.0018  0.2618
    1DIPC   D3A12151  20.082  29.447   6.360 -0.0569  0.1304  0.0425
    1DIPC   C4A12152  20.064  29.033   6.153  0.1952 -0.2260 -0.1449
    1DIPC   C1B12153  19.407  28.927   6.350  0.1368  0.2321 -0.2231
    1DIPC   D2B12154  19.554  29.083   6.060 -0.0452  0.0330 -0.0868
    1DIPC   D3B12155  19.317  29.181   5.650  0.1078  0.1266  0.1997
    1DIPC   C4B12156  19.337  28.965   5.256  0.0749  0.0370 -0.2205
    1DIPC   NC312157   3.239   0.935   7.097  0.1938 -0.0378  0.0856
    1DIPC   PO412158   3.233   0.861   6.587  0.0421  0.0337  0.1305
    1DIPC   GL112159   3.374   0.598   6.234  0.1941 -0.0182 -0.1666
    1DIPC   GL212160   3.557   0.333   6.344 -0.0270  0.2167  0.1053
    1DIPC   C1A12161   3.321   0.583   5.820  0.0199  0.0845  0.1692
    1DIPC   D2A12162   3.653   0.507   5.523  0.3365  0.1308 -0.1123
    1DIPC   D3A12163   3.429   0.115   5.465  0.0641 -0.0070  0.0519
    1DIPC   C4A12164   3.180  -0.084   5.213  0.0630 -0.0066 -0.0549
    1DIPC   C1B12165   3.704   0.223   5.923 -0.1337 -0.0740  0.0988
    1DIPC   D2B12166   4.085   0.165   5.675  0.2690 -0.0641  0.0616
    1DIPC   D3B12167   4.017   0.164   5.203 -0.0087 -0.0781 -0.1872
    1DIPC   C4B12168   3.670   0.404   5.009  0.2307 -0.1014 -0.0102
    1DIPC   NC312169  22.987  16.138   5.846  0.0595  0.1949 -0.1411
    1DIPC   PO412170  23.011  15.902   5.369  0.1170  0.0218 -0.3702
    1DIPC   GL112171  23.068  16.093   4.964 -0.2570 -0.0149 -0.4899
    1DIPC   GL212172  22.822  16.163   4.801 -0.0273  0.0261 -0.1690
    1DIPC   C1A12173  23.194  15.953   4.510 -0.1746 -0.2062 -0.1669
    1DIPC   D2A12174  23.386  16.198   4.189 -0.1707 -0.0131 -0.1047
    1DIPC   D3A12175  23.342  15.800   3.882  0.1632 -0.0019  0.0384
    1DIPC   C4A12176  23.611  15.728   3.481 -0.0889 -0.2288 -0.0059
    1DIPC   C1B12177  22.607  15.856   4.566  0.0193 -0.2293  0.4095
    1DIPC   D2B12178  22.518  15.498   4.344 -0.1891 -0.1141  0.1719
    1DIPC   D3B12179  22.802  15.786   4.097  0.3676 -0.1001 -0.0822
    1DIPC   C4B12180  22.757  16.218   4.205 -0.0810  0.0913  0.1287
    1DIPC   NC312181  10.857  13.882   7.156 -0.2567  0.2613 -0.0661
    1DIPC   PO412182  11.252  13.687   7.256  0.3513 -0.1461 -0.1222
    1DIPC   GL112183  11.339  13.772   6.822  0.2913  0.0637 -0.0004
    1DIPC   GL212184  11.034  13.648   6.674 -0.0077  0.2301 -0.0155
    1DIPC   C1A12185  11.377  13.985   6.456  0.3202 -0.0936  0.1880
    1DIPC   D2A12186  11.319  13.920   6.039 -0.2002  0.3363 -0.0589
    1DIPC   D3A12187  11.175  13.590   5.711 -0.1725 -0.0878 -0.3315
    1DIPC   C4A12188  11.083  13.204   5.870 -0.0448  0.0539 -0.0695
    1DIPC   C1B12189  11.192  13.395   6.327  0.1854 -0.2426 -0.1747
    1DIPC   D2B12190  11.528  13.431   6.070  0.2561  0.0707 -0.2489
    1DIPC   D3B12191  11.675  13.391   5.693  0.0837 -0.1564  0.0272
    1DIPC   C4B12192  11.495  13.559   5.305  0.1511 -0.1897  0.4189
    1DIPC   NC312193  27.241  24.588   6.478  0.1604 -0.1178 -0.1044
    1DIPC   PO412194  27.135  24.917   6.644 -0.0600  0.0453  0.2786
    1DIPC   GL112195  27.187  25.001   6.215 -0.0585  0.0801  0.1010
    1DIPC   GL212196  26.880  25.244   6.233 -0.2147 -0.0503  0.0680
    1DIPC   C1A12197  26.930  24.851   5.879 -0.0283 -0.1525 -0.0981
    1DIPC   D2A12198  26.623  24.779   5.598  0.2999 -0.0480 -0.0763
    1DIPC   D3A12199  26.667  25.004   5.170  0.1629  0.1427  0.0830
    1DIPC   C4A12200  26.482  24.725   4.873 -0.1483 -0.0917  0.1591
    1DIPC   C1B12201  27.182  25.465   5.951  0.0174 -0.3797  0.4650
    1DIPC   D2B12202  27.460  25.617   5.622  0.0791 -0.0244  0.3766
    1DIPC   D3B12203  27.396  26.075   5.528  0.2128  0.0436  0.2167
    1DIPC   C4B12204  27.263  26.317   5.213  0.0935 -0.1284  0.1064
    1DIPC   NC312205  15.510  13.988   6.295 -0.0737 -0.3169 -0.0936
    1DIPC   PO412206  15.834  14.209   6.169 -0.0717 -0.2086 -0.2509
    1DIPC   GL112207  15.553  14.065   5.769 -0.5943  0.1620 -0.1415
    1DIPC   GL212208  15.241  13.976   5.748 -0.2395  0.1396  0.2364
    1DIPC   C1A12209  15.542  13.978   5.367 -0.1280  0.1434  0.0616
    1DIPC   D2A12210  15.432  14.125   4.884  0.0914 -0.0565 -0.2225
    1DIPC   D3A12211  15.051  14.099   4.745  0.3342  0.0034  0.2079
    1DIPC   C4A12212  14.745  14.318   4.676 -0.1652  0.0086  0.0778
    1DIPC   C1B12213  15.022  14.265   5.617 -0.2325 -0.2648 -0.0446
    1DIPC   D2B12214  14.853  14.658   5.573 -0.3077 -0.0503 -0.0522
    1DIPC   D3B12215  14.549  14.556   5.251 -0.1981 -0.2254 -0.0206
    1DIPC   C4B12216  14.198  14.653   5.432  0.2381 -0.1572 -0.1807
    1DIPC   NC312217   0.124  24.746   6.228 -0.1241  0.0230 -0.3264
    1DIPC   PO412218  -0.340  24.763   6.436  0.1287 -0.0086 -0.0625
    1DIPC   GL112219  -0.279  25.088   6.136 -0.0641 -0.0571  0.1122
    1DIPC   GL212220  -0.425  25.018   5.827 -0.2266  0.0964 -0.0938
    1DIPC   C1A12221  -0.110  25.487   6.094 -0.1118 -0.1002  0.0295
    1DIPC   D2A12222  -0.033  25.796   5.715  0.0201 -0.5628  0.0790
    1DIPC   D3A12223   0.158  25.483   5.546 -0.0948 -0.0831  0.0505
    1DIPC   C4A12224   0.642  25.353   5.538 -0.1551  0.2608 -0.1539
    1DIPC   C1B12225  -0.415  25.317   5.404  0.1746 -0.0967 -0.2440
    1DIPC   D2B12226  -0.305  25.377   5.040 -0.2082  0.1578  0.1775
    1DIPC   D3B12227  -0.028  25.836   5.173  0.1680  0.3301  0.0867
    1DIPC   C4B12228   0.295  26.112   4.986  0.0842  0.2999 -0.4570
    1DIPC   NC312229   4.000  29.553   7.024  0.1658 -0.2413  0.0055
    1DIPC   PO412230   4.079  29.570   6.602  0.0800 -0.2487 -0.1947
    1DIPC   GL112231   4.099  29.515   6.154 -0.0179  0.3565  0.0522
    1DIPC   GL212232   4.438  29.540   5.864  0.2427  0.5078 -0.1075
    1DIPC   C1A12233   3.990  29.481   5.697 -0.2433 -0.1464 -0.0209
    1DIPC   D2A12234   4.135  29.472   5.253  0.1393 -0.1114  0.2042
    1DIPC   D3A12235   4.193  29.645   4.847 -0.2609 -0.0702 -0.1455
    1DIPC   C4A12236   3.853  29.792   4.743  0.0410 -0.0970 -0.1005
    1DIPC   C1B12237   4.396  29.159   5.648  0.1120 -0.0338 -0.1805
    1DIPC   D2B12238   4.349  28.691   5.603 -0.0519  0.0377  0.0149
    1DIPC   D3B12239   4.266  28.883   5.246  0.4323  0.1440 -0.1909
    1DIPC   C4B12240   4.144  28.689   4.803  0.0063 -0.2457  0.2862
    1DIPC   NC312241   2.415   0.581   7.336  0.3181  0.2998  0.2214
    1DIPC   PO412242   2.378   0.433   6.834  0.2310  0.1304 -0.0766
    1DIPC   GL112243   2.455   0.680   6.387  0.0757  0.2515 -0.1626
    1DIPC   GL212244   2.798   0.733   6.297 -0.2144  0.2249  0.0614
    1DIPC   C1A12245   2.469   0.527   5.979 -0.2170 -0.3066  0.1653
    1DIPC   D2A12246   2.348   0.450   5.527 -0.2926 -0.1160  0.0291
    1DIPC   D3A12247   2.457   0.486   5.184 -0.5777  0.0042 -0.2386
    1DIPC   C4A12248   2.025   0.445   4.912 -0.1876 -0.0069  0.2729
    1DIPC   C1B12249   2.917   0.833   5.861 -0.0467 -0.0694 -0.0364
    1DIPC   D2B12250   2.774   0.964   5.432 -0.0960 -0.1172  0.0511
    1DIPC   D3B12251   2.908   0.881   5.025 -0.2734  0.1019 -0.4498
    1DIPC   C4B12252   2.836   1.170   4.611  0.0098 -0.0218 -0.2945
    1DIPC   NC312253  24.736  22.798   6.481  0.1671  0.0475  0.1542
    1DIPC   PO412254  24.814  22.746   6.085 -0.0084  0.1578  0.0747
    1DIPC   GL112255  24.749  22.726   5.641  0.0230  0.0524 -0.1910
    1DIPC   GL212256  24.692  23.053   5.625  0.1078  0.1043  0.1978
    1DIPC   C1A12257  24.965  22.727   5.152 -0.1786  0.1339 -0.0113
    1DIPC   D2A12258  24.885  22.557   4.798  0.0793  0.4233  0.2134
    1DIPC   D3A12259  24.978  22.995   4.692 -0.1761  0.0068 -0.0637
    1DIPC   C4A12260  25.063  23.004   4.228  0.3589  0.1193  0.2725
    1DIPC   C1B12261  24.751  23.297   5.299 -0.1397 -0.2071  0.0050
    1DIPC   D2B12262  24.454  23.471   4.945  0.3942  0.0039  0.0453
    1DIPC   D3B12263  24.419  23.353   4.498 -0.2838  0.4899 -0.2010
    1DIPC   C4B12264  24.207  23.149   4.191  0.0633 -0.1545 -0.1402
    1DIPC   NC312265   5.063   1.147   6.954  0.2968  0.1466 -0.1309
    1DIPC   PO412266   5.263   0.977   6.621  0.1357  0.0707 -0.0904
    1DIPC   GL112267   5.096   0.827   6.344 -0.0484 -0.4128 -0.3411
    1DIPC   GL212268   4.807   1.054   6.157  0.1746 -0.0213  0.0116
    1DIPC   C1A12269   5.228   0.599   5.880  0.3926  0.1940 -0.1133
    1DIPC   D2A12270   5.119   0.314   5.571  0.2372 -0.1164  0.0749
    1DIPC   D3A12271   5.082  -0.114   5.400  0.1109 -0.1112 -0.1571
    1DIPC   C4A12272   4.656  -0.317   5.137  0.1579  0.0909  0.1404
    1DIPC   C1B12273   4.641   1.396   5.947  0.2684 -0.0768  0.3297
    1DIPC   D2B12274   4.612   1.461   5.575  0.1487 -0.1853  0.3205
    1DIPC   D3B12275   4.476   1.842   5.372  0.0134  0.0693 -0.4282
    1DIPC   C4B12276   4.159   2.096   5.536 -0.0095  0.2112  0.1118
    1DIPC   NC312277  19.202   1.807   6.911  0.0347  0.0006  0.0996
    1DIPC   PO412278  19.318   1.490   6.685  0.1607  0.0346 -0.1394
    1DIPC   GL112279  19.130   1.318   6.371 -0.0089 -0.0165  0.0021
    1DIPC   GL212280  19.021   1.006   6.490  0.1597  0.0057 -0.0654
    1DIPC   C1A12281  19.120   1.174   6.015 -0.0987 -0.1767  0.0072
    1DIPC   D2A12282  19.378   1.075   5.633  0.0110 -0.2038 -0.0843
    1DIPC   D3A12283  19.541   0.825   5.941 -0.0688 -0.3220  0.2544
    1DIPC   C4A12284  19.476   0.950   6.343 -0.0216  0.1483 -0.1422
    1DIPC   C1B12285  19.080   0.667   6.295 -0.0919 -0.0430  0.0836
    1DIPC   D2B12286  19.143   0.584   5.888  0.1543  0.2680 -0.1585
    1DIPC   D3B12287  19.572   0.301   5.862 -0.0857 -0.0152 -0.0232
    1DIPC   C4B12288  19.473  -0.137   5.921  0.0327  0.1006 -0.3940
    1DIPC   NC312289  19.696  22.595   6.754 -0.0651 -0.0106 -0.2929
    1DIPC   PO412290  19.746  23.066   6.709  0.0863  0.0470 -0.0054
    1DIPC   GL112291  19.731  23.182   6.264 -0.0603 -0.0225  0.1968
    1DIPC   GL212292  19.724  23.475   6.139  0.1209  0.1626  0.4454
    1DIPC   C1A12293  19.911  23.053   5.864 -0.0755 -0.0344 -0.0171
    1DIPC   D2A12294  19.868  22.851   5.400 -0.1694 -0.3364 -0.1923
    1DIPC   D3A12295  19.704  23.064   5.026 -0.0845  0.0627  0.1370
    1DIPC   C4A12296  19.862  22.881   4.682  0.2302  0.1495  0.1545
    1DIPC   C1B12297  19.572  23.361   5.758  0.5380 -0.2511  0.0549
    1DIPC   D2B12298  19.468  23.242   5.499  0.1741 -0.2847 -0.0519
    1DIPC   D3B12299  19.527  23.662   5.301  0.4347 -0.0540  0.2368
    1DIPC   C4B12300  19.491  23.846   4.952  0.0747 -0.1435 -0.2587
    1DIPC   NC312301  19.395  23.353   6.632  0.1621  0.1364  0.1347
    1DIPC   PO412302  19.014  23.590   6.438 -0.0149  0.0102 -0.2155
    1DIPC   GL112303  18.718  23.530   6.169  0.1991  0.1217  0.1396
    1DIPC   GL212304  18.690  23.871   6.052 -0.3584 -0.2414  0.1832
    1DIPC   C1A12305  18.424  23.403   5.804  0.1596  0.0373  0.1792
    1DIPC   D2A12306  18.120  23.465   5.411 -0.0354  0.1571  0.1542
    1DIPC   D3A12307  18.177  23.983   5.401 -0.1149 -0.1125 -0.0513
    1DIPC   C4A12308  18.192  24.444   5.286  0.0475 -0.0706 -0.0705
    1DIPC   C1B12309  18.678  23.865   5.571  0.1936 -0.0385  0.4111
    1DIPC   D2B12310  19.067  23.749   5.174 -0.0538 -0.0295  0.0153
    1DIPC   D3B12311  19.150  23.270   5.016  0.2010 -0.3775  0.3224
    1DIPC   C4B12312  18.846  23.159   4.687  0.0699  0.0227 -0.1834
    1DIPC   NC312313  26.888  21.920   5.742 -0.2814 -0.0335 -0.1711
    1DIPC   PO412314  27.051  22.328   5.965  0.0457 -0.0094 -0.0893
    1DIPC   GL112315  27.011  22.513   5.517 -0.1347  0.1960 -0.0303
    1DIPC   GL212316  27.256  22.761   5.386 -0.1174  0.0332 -0.2255
    1DIPC   C1A12317  26.831  22.590   5.007 -0.2691 -0.0698 -0.2944
    1DIPC   D2A12318  26.528  22.624   4.601 -0.0750  0.0190  0.2810
    1DIPC   D3A12319  26.841  22.683   4.331 -0.0572  0.1023  0.0867
    1DIPC   C4A12320  26.937  22.531   3.899  0.2564 -0.0935 -0.0621
    1DIPC   C1B12321  27.341  22.570   5.029 -0.1964  0.1967  0.1877
    1DIPC   D2B12322  27.228  22.482   4.593 -0.0161  0.1870 -0.3403
    1DIPC   D3B12323  27.574  22.567   4.594 -0.0385 -0.0506 -0.2309
    1DIPC   C4B12324  27.926  22.601   4.413  0.2395 -0.2673  0.0184
    1DIPC   NC312325  15.853  19.185   6.904 -0.3059  0.3150 -0.1701
    1DIPC   PO412326  15.823  19.238   6.549 -0.1975 -0.1355  0.0625
    1DIPC   GL112327  15.692  19.006   6.252  0.1223  0.1736  0.1646
    1DIPC   GL212328  15.518  19.073   5.882  0.0264 -0.0627  0.1660
    1DIPC   C1A12329  15.786  18.634   5.894 -0.1063 -0.0378  0.2451
    1DIPC   D2A12330  15.910  18.182   5.869  0.0360  0.3889  0.0346
    1DIPC   D3A12331  16.301  18.403   5.971  0.0919 -0.0137 -0.0772
    1DIPC   C4A12332  16.411  18.668   5.574 -0.2309 -0.0377  0.0242
    1DIPC   C1B12333  15.659  19.354   5.589 -0.2877 -0.0813  0.0071
    1DIPC   D2B12334  15.524  19.678   5.399 -0.0500  0.0573  0.0280
    1DIPC   D3B12335  15.540  20.021   5.663 -0.1676 -0.1547 -0.0458
    1DIPC   C4B12336  15.800  20.405   5.590 -0.0146  0.0286 -0.1129
    1DIPC   NC312337   2.049   2.249   6.435  0.0205 -0.0523 -0.1981
    1DIPC   PO412338   2.364   2.456   6.655 -0.0496  0.4262  0.0948
    1DIPC   GL112339   2.557   2.104   6.373  0.1033 -0.0168  0.1192
    1DIPC   GL212340   2.951   2.104   6.281 -0.1244 -0.2345 -0.1616
    1DIPC   C1A12341   2.345   1.744   6.145  0.2507  0.0296 -0.0476
    1DIPC   D2A12342   2.150   1.690   5.770  0.0198  0.3717 -0.1433
    1DIPC   D3A12343   2.135   2.020   5.385 -0.1135 -0.0601  0.2045
    1DIPC   C4A12344   1.884   2.223   4.937 -0.0099 -0.1321  0.0284
    1DIPC   C1B12345   2.959   2.139   5.759 -0.3967  0.2428 -0.1874
    1DIPC   D2B12346   3.207   2.007   5.390  0.2483 -0.2864 -0.2925
    1DIPC   D3B12347   2.747   1.807   5.207  0.0794  0.0864  0.1663
    1DIPC   C4B12348   2.827   1.662   4.727  0.1875 -0.0107  0.0822
    1DIPC   NC312349   6.956  28.276   7.155  0.1112 -0.1641 -0.0221
    1DIPC   PO412350   7.247  28.630   7.302  0.2924  0.0804  0.2047
    1DIPC   GL112351   7.464  28.926   7.000 -0.2306 -0.1066  0.2271
    1DIPC   GL212352   7.444  28.896   6.630 -0.1175  0.0952  0.0340
    1DIPC   C1A12353   7.413  29.361   6.750  0.1286  0.1683  0.1552
    1DIPC   D2A12354   7.143  29.213   6.411  0.3014  0.0027 -0.2116
    1DIPC   D3A12355   7.067  28.768   6.279  0.1638  0.0497 -0.1689
    1DIPC   C4A12356   6.986  28.387   6.469  0.0063 -0.1330 -0.1215
    1DIPC   C1B12357   7.571  29.092   6.224  0.0450 -0.0821 -0.1647
    1DIPC   D2B12358   7.784  29.225   5.821  0.0302  0.3263 -0.1861
    1DIPC   D3B12359   7.543  29.493   5.510  0.0211 -0.0573  0.0086
    1DIPC   C4B12360   7.789  29.685   5.213  0.0739  0.1058  0.1773
    1DIPC   NC312361  25.408   2.461   7.039 -0.1738 -0.1608 -0.2196
    1DIPC   PO412362  25.346   2.814   6.834  0.1795 -0.1589  0.1119
    1DIPC   GL112363  25.325   2.652   6.465 -0.0499 -0.1099 -0.0662
    1DIPC   GL212364  25.206   2.393   6.540  0.0827 -0.0917 -0.1955
    1DIPC   C1A12365  25.418   2.492   6.099  0.0303  0.0291 -0.0933
    1DIPC   D2A12366  25.600   2.649   5.695 -0.4699  0.2347 -0.0525
    1DIPC   D3A12367  25.751   2.404   5.368  0.3442  0.0219 -0.2382
    1DIPC   C4A12368  25.728   1.953   5.392 -0.1731 -0.5627  0.0841
    1DIPC   C1B12369  24.918   2.319   6.157  0.0554 -0.1398  0.0090
    1DIPC   D2B12370  24.538   2.457   5.964 -0.0310 -0.2893 -0.2207
    1DIPC   D3B12371  24.945   2.628   5.729  0.0279 -0.2867 -0.3027
    1DIPC   C4B12372  24.801   2.521   5.307  0.1874 -0.3602 -0.0875
    1DIPC   NC312373  21.536  23.436   6.485 -0.0319  0.1188  0.0963
    1DIPC   PO412374  21.152  23.650   6.463  0.0276 -0.1683  0.0187
    1DIPC   GL112375  20.855  23.818   6.131  0.4949 -0.1788  0.1023
    1DIPC   GL212376  20.601  23.670   6.020 -0.3041  0.1530 -0.1613
    1DIPC   C1A12377  20.796  24.150   5.777 -0.0654  0.2129  0.0735
    1DIPC   D2A12378  20.873  24.208   5.253 -0.1501  0.0691 -0.1297
    1DIPC   D3A12379  21.074  24.612   5.230 -0.0748 -0.1740 -0.2660
    1DIPC   C4A12380  20.793  24.953   5.188  0.2556  0.0743 -0.1277
    1DIPC   C1B12381  20.717  23.759   5.545  0.2651  0.3447  0.3039
    1DIPC   D2B12382  20.497  23.504   5.263 -0.0731  0.0431 -0.0831
    1DIPC   D3B12383  20.550  23.581   4.836 -0.1800  0.0647 -0.4222
    1DIPC   C4B12384  20.196  23.388   4.425 -0.1278 -0.0867 -0.1815
    1DIPC   NC312385  19.675  12.155   6.277  0.1202 -0.2026 -0.1409
    1DIPC   PO412386  19.510  11.704   6.307  0.0063 -0.1112  0.0228
    1DIPC   GL112387  19.393  11.743   5.881  0.2392  0.1331  0.1477
    1DIPC   GL212388  19.185  11.560   5.817  0.3862  0.1642 -0.1832
    1DIPC   C1A12389  19.569  11.474   5.461  0.1438 -0.3754 -0.1877
    1DIPC   D2A12390  19.513  11.125   5.297  0.1520  0.0619  0.0527
    1DIPC   D3A12391  19.594  10.764   5.627 -0.1385  0.0014  0.0607
    1DIPC   C4A12392  19.857  10.443   5.496  0.1519  0.1550 -0.2238
    1DIPC   C1B12393  19.081  11.322   5.397 -0.0445 -0.1041  0.0320
    1DIPC   D2B12394  19.114  11.083   5.045 -0.2636  0.0846 -0.0717
    1DIPC   D3B12395  19.068  11.204   4.606 -0.0496  0.0612  0.3040
    1DIPC   C4B12396  18.952  10.873   4.289 -0.2737  0.0180 -0.1020
    1DIPC   NC312397  10.368  22.341   6.977 -0.2057 -0.0382 -0.0388
    1DIPC   PO412398  10.600  22.159   6.594  0.0072  0.0385  0.1600
    1DIPC   GL112399  10.609  22.175   6.101  0.3910  0.0274  0.1231
    1DIPC   GL212400  10.282  22.155   6.029 -0.0596 -0.0651 -0.1427
    1DIPC   C1A12401  10.651  22.010   5.686  0.1561 -0.3390 -0.1667
    1DIPC   D2A12402  10.651  21.866   5.152  0.0154  0.5781 -0.1543
    1DIPC   D3A12403  10.402  21.529   4.976 -0.0081  0.2399 -0.0265
    1DIPC   C4A12404  10.452  21.605   4.531  0.4358  0.0441 -0.0480
    1DIPC   C1B12405  10.088  22.051   5.595 -0.3184 -0.1277 -0.1976
    1DIPC   D2B12406  10.100  21.823   5.245  0.0641 -0.0529 -0.1030
    1DIPC   D3B12407  10.007  21.511   5.415  0.1204 -0.1382 -0.1671
    1DIPC   C4B12408  10.027  21.190   5.140 -0.2095 -0.1438  0.1669
    1DIPC   NC312409   8.736  23.236   6.473  0.0749  0.1275 -0.1207
    1DIPC   PO412410   9.209  23.112   6.306  0.0664  0.0816 -0.1525
    1DIPC   GL112411   9.152  23.398   5.921 -0.4517 -0.0589 -0.2858
    1DIPC   GL212412   9.395  23.192   5.736 -0.1080  0.0953  0.0615
    1DIPC   C1A12413   9.239  23.582   5.490  0.2270  0.1787 -0.1768
    1DIPC   D2A12414   9.495  23.751   5.319 -0.0217  0.0406  0.1407
    1DIPC   D3A12415   9.508  23.823   4.817 -0.0372 -0.0939  0.1840
    1DIPC   C4A12416   9.991  23.811   4.688  0.1882  0.2785 -0.0883
    1DIPC   C1B12417   9.247  23.058   5.338 -0.1573 -0.1181  0.0889
    1DIPC   D2B12418   9.112  23.056   4.858  0.3292 -0.3088 -0.0109
    1DIPC   D3B12419   9.090  23.555   4.926  0.1773 -0.0694  0.0457
    1DIPC   C4B12420   8.977  23.938   4.680 -0.0052 -0.0354 -0.1307
    1DIPC   NC312421  28.514  12.138   6.421  0.0599 -0.1515 -0.3250
    1DIPC   PO412422  28.670  11.825   6.487  0.1952 -0.2956  0.2815
    1DIPC   GL112423  28.467  11.576   6.175 -0.0915  0.0803 -0.2990
    1DIPC   GL212424  28.260  11.400   6.288  0.1096 -0.3636  0.0959
    1DIPC   C1A12425  28.570  11.480   5.752 -0.0422  0.0478  0.0146
    1DIPC   D2A12426  28.549  11.598   5.304 -0.0838 -0.4929 -0.2796
    1DIPC   D3A12427  28.533  11.953   5.042 -0.1623 -0.0549  0.0838
    1DIPC   C4A12428  28.872  11.850   4.870  0.0064  0.2608  0.0702
    1DIPC   C1B12429  28.051  11.233   5.996 -0.1606  0.1563  0.1936
    1DIPC   D2B12430  27.701  11.154   5.668  0.2321  0.5506 -0.0625
    1DIPC   D3B12431  27.600  11.551   5.558 -0.1222 -0.1685  0.1932
    1DIPC   C4B12432  27.886  11.826   5.438 -0.0173 -0.0366  0.1169
    1DIPC   NC312433  22.984  29.190   6.590  0.3035 -0.0051  0.0062
    1DIPC   PO412434  22.858  28.718   6.626  0.0398 -0.2367  0.2152
    1DIPC   GL112435  23.172  28.789   6.371  0.0281  0.1592 -0.0746
    1DIPC   GL212436  23.484  28.673   6.467 -0.0968  0.1890  0.2488
    1DIPC   C1A12437  23.381  28.587   5.964 -0.1813 -0.0380 -0.1043
    1DIPC   D2A12438  23.484  28.374   5.586  0.0765  0.0406  0.2701
    1DIPC   D3A12439  23.864  28.321   5.492  0.1628  0.0609  0.1632
    1DIPC   C4A12440  24.193  28.196   5.587 -0.0864  0.0060 -0.0544
    1DIPC   C1B12441  23.765  28.556   6.294  0.2640 -0.3784  0.3762
    1DIPC   D2B12442  23.899  28.370   5.984  0.0335  0.0046 -0.0188
    1DIPC   D3B12443  24.129  28.733   5.829 -0.1360  0.0843 -0.4065
    1DIPC   C4B12444  24.231  28.704   5.305 -0.1670  0.1755 -0.3465
    1DIPC   NC312445   6.113   6.726   6.970  0.1908  0.3005 -0.0199
    1DIPC   PO412446   6.070   6.293   7.043  0.0642 -0.2436 -0.0752
    1DIPC   GL112447   6.380   6.374   6.660  0.1516  0.3708 -0.0162
    1DIPC   GL212448   6.612   6.155   6.640 -0.1251  0.0280  0.0174
    1DIPC   C1A12449   6.557   6.669   6.348  0.1619  0.1319  0.1290
    1DIPC   D2A12450   6.819   6.846   6.157  0.0023  0.1447 -0.2644
    1DIPC   D3A12451   6.786   6.855   5.703 -0.0189 -0.0845  0.1706
    1DIPC   C4A12452   6.544   6.561   5.469  0.3836  0.0218  0.2427
    1DIPC   C1B12453   6.512   6.149   6.197 -0.1524 -0.0272  0.2058
    1DIPC   D2B12454   6.570   6.201   5.841 -0.1153  0.2060 -0.0273
    1DIPC   D3B12455   6.511   5.805   5.599 -0.1527  0.0846 -0.0468
    1DIPC   C4B12456   6.717   5.425   5.756  0.1462  0.2037  0.0659
    1DIPC   NC312457  21.106   0.665   7.196 -0.0034  0.1620 -0.0885
    1DIPC   PO412458  20.933   0.749   6.900 -0.1038 -0.1440 -0.0140
    1DIPC   GL112459  20.867   0.839   6.490 -0.2231 -0.1365  0.0226
    1DIPC   GL212460  21.156   0.920   6.385  0.0978  0.3045 -0.0995
    1DIPC   C1A12461  20.703   1.046   6.119 -0.1224 -0.1280 -0.1944
    1DIPC   D2A12462  20.521   1.042   5.669 -0.3118  0.0081  0.0472
    1DIPC   D3A12463  20.997   1.062   5.598 -0.0165 -0.1752 -0.1535
    1DIPC   C4A12464  20.956   0.699   5.629  0.1622 -0.1341 -0.0424
    1DIPC   C1B12465  21.035   0.573   6.118 -0.4144 -0.0911 -0.0339
    1DIPC   D2B12466  21.005   0.245   5.761  0.1150 -0.2532 -0.2263
    1DIPC   D3B12467  20.879   0.270   5.341  0.0260 -0.0480 -0.0116
    1DIPC   C4B12468  21.215   0.284   5.042 -0.1193 -0.0960  0.0250
    1DIPC   NC312469  12.145  15.373   7.071  0.1041 -0.3234  0.2044
    1DIPC   PO412470  11.806  15.178   7.255  0.1934 -0.0355 -0.2088
    1DIPC   GL112471  11.935  14.961   6.829 -0.3319 -0.2670 -0.1820
    1DIPC   GL212472  11.844  15.047   6.497  0.2942 -0.2757 -0.1514
    1DIPC   C1A12473  12.391  14.722   6.640  0.0179 -0.0890  0.3118
    1DIPC   D2A12474  12.782  14.606   6.446 -0.1278  0.0274 -0.1304
    1DIPC   D3A12475  12.899  14.764   6.164  0.1623 -0.1168  0.1943
    1DIPC   C4A12476  12.808  14.993   5.755  0.1561 -0.0594 -0.3293
    1DIPC   C1B12477  11.827  14.970   5.992  0.1293 -0.1341  0.2660
    1DIPC   D2B12478  12.024  14.727   5.647 -0.1134 -0.0946  0.0677
    1DIPC   D3B12479  12.155  15.005   5.271 -0.0401  0.0126  0.1392
    1DIPC   C4B12480  12.181  15.175   4.858 -0.0313  0.3126 -0.1868
    1DIPC   NC312481  22.664  10.832   6.710  0.0745  0.1146  0.0160
    1DIPC   PO412482  22.695  10.790   6.236 -0.1702  0.1739  0.1662
    1DIPC   GL112483  22.680  10.394   5.962 -0.0064 -0.2589 -0.0199
    1DIPC   GL212484  22.495  10.265   6.051  0.0155 -0.1000  0.1276
    1DIPC   C1A12485  22.601  10.288   5.547  0.2372  0.2951  0.1291
    1DIPC   D2A12486  22.638  10.235   5.131 -0.1005 -0.0162 -0.0628
    1DIPC   D3A12487  22.207  10.336   5.220 -0.0559 -0.1577  0.0352
    1DIPC   C4A12488  21.946  10.526   4.995  0.0182 -0.0820  0.0991
    1DIPC   C1B12489  22.142  10.383   5.695 -0.3133 -0.2158 -0.1767
    1DIPC   D2B12490  21.938  10.747   5.481 -0.0123  0.0802 -0.1080
    1DIPC   D3B12491  22.339  10.812   5.483  0.0276  0.0886 -0.0042
    1DIPC   C4B12492  22.437  10.705   4.980 -0.0440  0.0464  0.0824
    1DIPC   NC312493  18.083  16.175   6.375  0.0421 -0.1003 -0.1614
    1DIPC   PO412494  18.405  15.863   6.344 -0.1014 -0.0036  0.2181
    1DIPC   GL112495  18.188  15.914   5.966 -0.0928  0.2547 -0.0729
    1DIPC   GL212496  17.860  16.018   5.953 -0.2055 -0.2792  0.0431
    1DIPC   C1A12497  18.285  16.048   5.578 -0.1440 -0.0700 -0.0377
    1DIPC   D2A12498  18.281  15.667   5.187  0.1535  0.0431  0.3004
    1DIPC   D3A12499  18.400  15.214   5.289 -0.2155  0.0559 -0.0285
    1DIPC   C4A12500  18.225  14.939   5.105  0.0938 -0.0539  0.1466
    1DIPC   C1B12501  17.491  16.067   5.753  0.1292 -0.1559  0.1145
    1DIPC   D2B12502  17.379  16.054   5.420  0.2409 -0.0921 -0.0617
    1DIPC   D3B12503  17.351  16.003   5.080 -0.5191  0.0755 -0.0394
    1DIPC   C4B12504  17.097  15.991   4.756 -0.0584  0.2058  0.1695
    1DIPC   NC312505  11.867  28.363   6.777  0.1993 -0.0602 -0.0704
    1DIPC   PO412506  11.747  27.975   6.694  0.3403 -0.0545  0.3290
    1DIPC   GL112507  11.729  27.667   6.272 -0.1151  0.2712 -0.1608
    1DIPC   GL212508  11.571  27.224   6.202  0.1909  0.0777 -0.2439
    1DIPC   C1A12509  11.808  27.838   5.857  0.3653  0.3372  0.1962
    1DIPC   D2A12510  11.952  27.980   5.518 -0.0459  0.1793  0.1019
    1DIPC   D3A12511  11.991  28.361   5.544 -0.2922 -0.0390  0.0423
    1DIPC   C4A12512  12.145  28.603   5.909 -0.1042 -0.1458  0.0860
    1DIPC   C1B12513  11.578  27.411   5.812 -0.0073  0.3261  0.0705
    1DIPC   D2B12514  11.549  27.589   5.402 -0.0442 -0.1982 -0.1243
    1DIPC   D3B12515  11.637  27.162   5.399 -0.0212 -0.1130 -0.1765
    1DIPC   C4B12516  11.690  26.884   5.738 -0.0666  0.0707 -0.2123
    1DIPC   NC312517  18.779  14.114   6.212  0.1707  0.0307 -0.1840
    1DIPC   PO412518  19.056  14.463   6.134  0.0130  0.0027 -0.3423
    1DIPC   GL112519  19.057  14.542   5.714 -0.2686  0.0406  0.1241
    1DIPC   GL212520  19.011  14.862   5.681 -0.0367  0.0766 -0.0862
    1DIPC   C1A12521  18.901  14.425   5.315 -0.0121  0.1577  0.0809
    1DIPC   D2A12522  18.927  14.350   4.846 -0.0758 -0.0232 -0.3078
    1DIPC   D3A12523  19.190  14.589   4.770 -0.2574 -0.1210  0.2743
    1DIPC   C4A12524  19.083  14.760   4.371  0.1549 -0.1823 -0.0458
    1DIPC   C1B12525  18.748  14.948   5.391 -0.2203  0.1414  0.0447
    1DIPC   D2B12526  18.700  14.890   4.878  0.0459  0.1872  0.0367
    1DIPC   D3B12527  18.486  14.891   4.539  0.0458  0.0230  0.6759
    1DIPC   C4B12528  18.451  15.293   4.319  0.0726  0.0319 -0.1826
    1DIPC   NC312529  19.507  14.500   6.612 -0.1697  0.0689  0.2604
    1DIPC   PO412530  19.547  14.829   6.336 -0.1404  0.4151 -0.3272
    1DIPC   GL112531  19.513  14.869   5.890 -0.2017  0.2276 -0.0441
    1DIPC   GL212532  19.780  14.682   5.635  0.0834 -0.0441  0.0827
    1DIPC   C1A12533  19.545  15.120   5.573  0.0782 -0.3253  0.0051
    1DIPC   D2A12534  19.735  15.208   5.214 -0.2206  0.0037  0.1273
    1DIPC   D3A12535  19.776  15.195   4.751 -0.1738  0.2503  0.1445
    1DIPC   C4A12536  19.652  15.513   4.544 -0.3779 -0.1242  0.2750
    1DIPC   C1B12537  19.868  14.633   5.253  0.0610  0.2767 -0.0835
    1DIPC   D2B12538  19.728  14.739   4.942 -0.0452 -0.1581 -0.0018
    1DIPC   D3B12539  19.655  14.512   4.612  0.2704  0.2509 -0.1258
    1DIPC   C4B12540  19.764  14.625   4.205  0.0826 -0.2055  0.2038
    1DIPC   NC312541  17.343   6.717   6.943 -0.1763 -0.0226  0.3800
    1DIPC   PO412542  17.750   6.809   6.980 -0.0385  0.1861 -0.0347
    1DIPC   GL112543  17.671   6.660   6.559  0.0189  0.0435  0.0611
    1DIPC   GL212544  17.793   6.941   6.354 -0.3906  0.0245  0.2288
    1DIPC   C1A12545  17.562   6.421   6.236  0.2740 -0.1753  0.0294
    1DIPC   D2A12546  17.362   6.117   6.135  0.2565  0.2103  0.2595
    1DIPC   D3A12547  17.091   6.259   5.753 -0.2051  0.0181  0.1402
    1DIPC   C4A12548  17.051   6.546   5.425 -0.1894  0.0484 -0.0402
    1DIPC   C1B12549  17.541   6.920   6.070 -0.2924  0.0651 -0.0315
    1DIPC   D2B12550  17.465   7.078   5.709 -0.3026 -0.0030  0.2512
    1DIPC   D3B12551  17.502   7.420   5.592  0.1065  0.0817  0.1571
    1DIPC   C4B12552  17.228   7.564   5.295 -0.2253 -0.1996 -0.0844
    1DIPC   NC312553  28.588  24.064   6.118  0.1335 -0.0169 -0.0126
    1DIPC   PO412554  28.740  23.718   6.249  0.3216  0.1284 -0.0920
    1DIPC   GL112555  28.689  23.574   5.852  0.0774  0.2402  0.0957
    1DIPC   GL212556  28.643  23.230   5.935 -0.0023 -0.0714  0.0372
    1DIPC   C1A12557  28.799  23.612   5.516  0.0990 -0.2497  0.0077
    1DIPC   D2A12558  28.839  23.761   5.068 -0.0172 -0.1133  0.2224
    1DIPC   D3A12559  28.738  23.486   4.660 -0.0672  0.2931 -0.2424
    1DIPC   C4A12560  28.900  23.332   4.277 -0.2396 -0.2490  0.1021
    1DIPC   C1B12561  28.564  23.193   5.562  0.0445  0.0146  0.1060
    1DIPC   D2B12562  28.613  23.218   5.059 -0.0398  0.0062 -0.1134
    1DIPC   D3B12563  28.573  23.053   4.641 -0.1728  0.0212 -0.0056
    1DIPC   C4B12564  28.242  22.749   4.725 -0.0220  0.0239 -0.1258
    1DIPC   NC312565  28.889   6.732   6.651 -0.0257  0.0262  0.1507
    1DIPC   PO412566  28.932   6.400   6.432  0.0220 -0.0130 -0.0901
    1DIPC   GL112567  28.932   6.191   6.074  0.1421 -0.0384 -0.0342
    1DIPC   GL212568  29.036   5.851   6.056 -0.0564 -0.0284 -0.0464
    1DIPC   C1A12569  29.257   6.270   5.807 -0.2853 -0.0295  0.0244
    1DIPC   D2A12570  29.610   6.035   5.511  0.1343 -0.2667  0.3331
    1DIPC   D3A12571  29.318   5.766   5.212 -0.3515 -0.0217 -0.1599
    1DIPC   C4A12572  29.587   5.552   4.832 -0.0309  0.1553 -0.1304
    1DIPC   C1B12573  29.490   5.753   5.897 -0.1209 -0.0430  0.2333
    1DIPC   D2B12574  29.593   5.520   5.525  0.0533 -0.1980 -0.0569
    1DIPC   D3B12575  29.864   5.518   5.330 -0.2429 -0.0980  0.1803
    1DIPC   C4B12576  29.873   5.846   5.167  0.2936 -0.0133 -0.0853
    1DIPC   NC312577  23.592   8.419   6.582 -0.0065  0.3666  0.1014
    1DIPC   PO412578  23.864   8.087   6.295  0.0962  0.1991  0.1971
    1DIPC   GL112579  23.965   7.793   6.023 -0.0509 -0.0089  0.2147
    1DIPC   GL212580  23.645   7.641   5.940 -0.1135 -0.1866  0.2479
    1DIPC   C1A12581  24.095   7.487   5.637  0.1960 -0.1670 -0.1348
    1DIPC   D2A12582  24.139   7.345   5.173 -0.0206  0.1048  0.2247
    1DIPC   D3A12583  24.046   7.020   4.925  0.0207  0.0921 -0.1415
    1DIPC   C4A12584  24.374   6.718   4.927 -0.2070  0.0331 -0.1341
    1DIPC   C1B12585  23.509   7.876   5.761 -0.0594  0.2020 -0.3369
    1DIPC   D2B12586  23.098   8.101   5.839 -0.0976 -0.2157  0.2424
    1DIPC   D3B12587  23.126   7.951   5.372  0.1695  0.1841 -0.0642
    1DIPC   C4B12588  22.780   7.801   5.085 -0.3908  0.0884 -0.2731
    1DIPC   NC312589  14.138  14.166   6.685 -0.3231 -0.3792  0.1255
    1DIPC   PO412590  14.664  13.980   6.683 -0.0895 -0.0200 -0.1468
    1DIPC   GL112591  14.693  13.679   6.329  0.0183  0.0078 -0.0606
    1DIPC   GL212592  14.916  13.823   6.127 -0.0730  0.1778  0.2142
    1DIPC   C1A12593  14.373  13.610   6.131  0.1841 -0.1005 -0.1309
    1DIPC   D2A12594  14.089  13.447   5.733  0.1097 -0.1899  0.2273
    1DIPC   D3A12595  13.788  13.124   5.595  0.1121 -0.0791  0.1337
    1DIPC   C4A12596  13.310  13.198   5.528 -0.1995 -0.2015  0.1180
    1DIPC   C1B12597  14.736  13.741   5.692 -0.3318  0.1003 -0.2340
    1DIPC   D2B12598  14.431  13.594   5.454  0.3251  0.1859 -0.0018
    1DIPC   D3B12599  14.675  13.407   5.146  0.0421  0.1871 -0.2782
    1DIPC   C4B12600  14.975  13.185   5.281 -0.0847 -0.1939 -0.0592
    1DIPC   NC312601  10.475   4.314   7.534  0.1659  0.0016 -0.1968
    1DIPC   PO412602  10.602   3.819   7.349 -0.0587  0.3934 -0.0887
    1DIPC   GL112603  10.719   3.782   6.885 -0.0218  0.1387  0.1635
    1DIPC   GL212604  10.477   3.968   6.574 -0.0872  0.0193  0.3776
    1DIPC   C1A12605  10.900   3.722   6.466  0.0305 -0.1719  0.0882
    1DIPC   D2A12606  10.981   3.667   5.935 -0.0127  0.3072  0.2350
    1DIPC   D3A12607  11.062   3.222   6.013 -0.2484 -0.1832  0.0099
    1DIPC   C4A12608  11.109   2.899   5.697 -0.0676 -0.0310  0.0162
    1DIPC   C1B12609  10.342   3.535   6.578 -0.0682 -0.1170 -0.0796
    1DIPC   D2B12610  10.496   3.418   6.141 -0.0384  0.0424  0.1018
    1DIPC   D3B12611  10.520   3.827   6.082 -0.1027 -0.2393  0.4925
    1DIPC   C4B12612  10.191   4.061   5.845 -0.0443 -0.2358  0.0778
    1DIPC   NC312613  21.712  22.110   6.143 -0.1570  0.0953  0.0334
    1DIPC   PO412614  21.384  22.245   6.341 -0.0481  0.3478  0.1735
    1DIPC   GL112615  21.421  22.485   5.897  0.1036 -0.1535 -0.0207
    1DIPC   GL212616  21.715  22.602   5.835 -0.6062 -0.4267  0.1239
    1DIPC   C1A12617  21.249  22.455   5.479 -0.1337  0.0301  0.3595
    1DIPC   D2A12618  20.911  22.473   5.086 -0.0440  0.1545  0.3347
    1DIPC   D3A12619  20.861  22.110   4.813 -0.2343 -0.0474  0.2928
    1DIPC   C4A12620  20.382  22.174   4.531  0.3362 -0.1781 -0.0381
    1DIPC   C1B12621  21.734  22.597   5.353 -0.1750  0.0884  0.2181
    1DIPC   D2B12622  21.443  22.582   4.999 -0.1809 -0.4337  0.0908
    1DIPC   D3B12623  21.277  22.759   4.703 -0.0240  0.1358 -0.0612
    1DIPC   C4B12624  21.356  23.092   4.458 -0.2281 -0.1655 -0.3599
    1DIPC   NC312625   8.225   5.997   7.437 -0.0671  0.1560 -0.1771
    1DIPC   PO412626   8.327   6.177   7.026  0.0103  0.1168  0.0328
    1DIPC   GL112627   8.275   5.886   6.702  0.2429  0.0740 -0.2921
    1DIPC   GL212628   8.023   5.943   6.439  0.0377 -0.1412 -0.2329
    1DIPC   C1A12629   8.205   5.482   6.249 -0.1616 -0.0512  0.1496
    1DIPC   D2A12630   8.361   5.375   5.869  0.0212  0.2532 -0.0856
    1DIPC   D3A12631   8.447   5.543   5.461  0.1301 -0.3205 -0.1660
    1DIPC   C4A12632   8.720   5.309   5.233 -0.0845  0.0674  0.1132
    1DIPC   C1B12633   8.020   6.077   5.980  0.2610  0.1020 -0.0943
    1DIPC   D2B12634   8.055   5.892   5.655 -0.0043 -0.1934 -0.1655
    1DIPC   D3B12635   7.818   5.503   5.342 -0.0591  0.1658  0.1267
    1DIPC   C4B12636   7.666   5.076   5.559 -0.1576  0.0796 -0.0404
    1DIPC   NC312637  17.093   6.706   7.609 -0.0803  0.2702  0.3429
    1DIPC   PO412638  16.938   6.842   7.213 -0.0425  0.1603 -0.0327
    1DIPC   GL112639  16.908   6.856   6.719 -0.1647 -0.0705  0.0100
    1DIPC   GL212640  16.700   6.672   6.512 -0.1341  0.0687  0.0565
    1DIPC   C1A12641  16.846   7.217   6.425 -0.1794 -0.2311 -0.0476
    1DIPC   D2A12642  16.715   7.232   5.999  0.3433 -0.1380  0.1239
    1DIPC   D3A12643  16.960   7.415   5.652  0.0235  0.0161 -0.3885
    1DIPC   C4A12644  16.770   7.350   5.312 -0.1206 -0.0040  0.1935
    1DIPC   C1B12645  16.334   6.949   6.329 -0.0703 -0.0591 -0.4639
    1DIPC   D2B12646  16.149   7.222   6.009 -0.0034 -0.0704 -0.1787
    1DIPC   D3B12647  16.351   7.317   5.648 -0.0945 -0.1520 -0.0203
    1DIPC   C4B12648  16.174   7.128   5.263 -0.1685  0.0215  0.0382
    1DIPC   NC312649  22.873   0.281   7.641  0.1062 -0.1527  0.1357
    1DIPC   PO412650  22.673   0.160   7.185 -0.0079 -0.0034 -0.4016
    1DIPC   GL112651  22.618   0.361   6.808 -0.0212  0.4022  0.0929
    1DIPC   GL212652  22.477   0.064   6.765  0.0199 -0.1798  0.1659
    1DIPC   C1A12653  22.303   0.632   6.610 -0.0104  0.0231 -0.2131
    1DIPC   D2A12654  22.112   0.801   6.290  0.2529 -0.0487 -0.2743
    1DIPC   D3A12655  22.069   1.075   6.092  0.2121 -0.0447 -0.0665
    1DIPC   C4A12656  21.783   1.378   5.895  0.1489 -0.0908 -0.1593
    1DIPC   C1B12657  22.431   0.168   6.346 -0.1654  0.2069  0.1401
    1DIPC   D2B12658  22.870   0.370   6.321  0.0311  0.3582  0.1245
    1DIPC   D3B12659  22.597   0.705   6.166  0.0986 -0.1319 -0.0064
    1DIPC   C4B12660  22.358   0.724   5.785 -0.0497 -0.4218  0.1769
    1DIPC   NC312661  23.027  21.478   5.659  0.0364 -0.0208 -0.1496
    1DIPC   PO412662  23.043  21.899   5.539 -0.1252  0.0048 -0.3823
    1DIPC   GL112663  22.705  22.032   5.230 -0.0633  0.0580 -0.0729
    1DIPC   GL212664  22.466  21.829   5.112  0.2151 -0.1151  0.0863
    1DIPC   C1A12665  22.672  22.278   4.845 -0.1886 -0.0389 -0.3167
    1DIPC   D2A12666  22.618  22.402   4.405 -0.0290 -0.1375 -0.0949
    1DIPC   D3A12667  22.725  22.835   4.294  0.3996 -0.0941 -0.0690
    1DIPC   C4A12668  22.528  22.932   3.872  0.0071 -0.1204  0.0312
    1DIPC   C1B12669  22.288  21.815   4.745 -0.0890 -0.4561  0.0546
    1DIPC   D2B12670  22.006  21.881   4.388 -0.1767 -0.0265 -0.1869
    1DIPC   D3B12671  22.142  22.321   4.384 -0.2008  0.0555 -0.0019
    1DIPC   C4B12672  22.326  22.380   3.992  0.1608  0.2175  0.3937
    1DIPC   NC312673   1.632  29.669   6.766  0.1521  0.2319 -0.0383
    1DIPC   PO412674   1.580  29.774   6.328  0.0970 -0.2214  0.1689
    1DIPC   GL112675   1.335  29.830   6.026  0.1740  0.0707  0.0954
    1DIPC   GL212676   1.089  29.517   6.128  0.2179 -0.2505 -0.1645
    1DIPC   C1A12677   1.361  29.747   5.571  0.0496 -0.0305  0.0199
    1DIPC   D2A12678   1.311  29.419   5.307  0.1154  0.1655  0.3548
    1DIPC   D3A12679   1.161  29.598   4.931 -0.0849  0.1330 -0.3632
    1DIPC   C4A12680   0.756  29.769   4.770 -0.1827 -0.0558 -0.3299
    1DIPC   C1B12681   0.965  29.509   5.697 -0.1472 -0.3118 -0.0753
    1DIPC   D2B12682   0.802  29.353   5.295  0.1274 -0.1291  0.2519
    1DIPC   D3B12683   0.447  29.625   5.199  0.0717 -0.4610 -0.2022
    1DIPC   C4B12684   0.061  29.446   5.118 -0.0367  0.4901 -0.0646
    1DIPC   NC312685  20.028  12.699   5.688  0.1706 -0.1162  0.0638
    1DIPC   PO412686  20.296  12.270   5.666 -0.1137  0.0397  0.0097
    1DIPC   GL112687  20.459  12.310   5.266 -0.0850  0.0186  0.5029
    1DIPC   GL212688  20.801  12.375   5.423 -0.0924 -0.0964  0.0706
    1DIPC   C1A12689  20.585  12.273   4.851  0.1613 -0.0259 -0.0907
    1DIPC   D2A12690  20.445  12.162   4.463  0.2159 -0.2714  0.2158
    1DIPC   D3A12691  20.072  12.335   4.439  0.0872 -0.1346  0.0918
    1DIPC   C4A12692  20.019  12.575   4.814  0.1049  0.4023 -0.5086
    1DIPC   C1B12693  20.929  12.063   5.174 -0.0498 -0.1772  0.1366
    1DIPC   D2B12694  21.180  11.903   4.764  0.1855  0.1554 -0.2354
    1DIPC   D3B12695  20.916  12.188   4.495 -0.1262 -0.0842 -0.0550
    1DIPC   C4B12696  21.016  12.562   4.278  0.1867  0.0739 -0.0172
    1DIPC   NC312697  16.230  21.672   6.456  0.1090  0.3502 -0.2789
    1DIPC   PO412698  16.135  21.364   6.075 -0.0282  0.4694  0.0125
    1DIPC   GL112699  16.200  21.023   5.811  0.1758 -0.1449 -0.0512
    1DIPC   GL212700  16.285  20.768   5.986 -0.0567 -0.1200  0.0529
    1DIPC   C1A12701  16.096  20.941   5.486  0.2195 -0.2764  0.1947
    1DIPC   D2A12702  16.258  21.161   5.019  0.1881 -0.1091 -0.0922
    1DIPC   D3A12703  15.963  20.942   4.841 -0.1678 -0.2342 -0.3049
    1DIPC   C4A12704  15.988  20.466   5.044 -0.0805 -0.1047 -0.0670
    1DIPC   C1B12705  16.650  20.982   5.650  0.0343 -0.3091 -0.2747
    1DIPC   D2B12706  16.901  20.959   5.278 -0.1019 -0.2871 -0.2343
    1DIPC   D3B12707  16.950  20.617   4.996 -0.0922  0.1324  0.3548
    1DIPC   C4B12708  16.931  20.609   4.579  0.1664 -0.1303  0.2462
    1DIPC   NC312709  24.606  19.434   5.545  0.0996 -0.1636 -0.0142
    1DIPC   PO412710  24.249  19.251   5.638  0.0997  0.1736  0.0659
    1DIPC   GL112711  24.095  19.366   5.180  0.2004 -0.0577 -0.0821
    1DIPC   GL212712  24.414  19.436   5.110  0.2216  0.2945  0.1798
    1DIPC   C1A12713  24.004  19.389   4.744  0.0373 -0.0491 -0.3290
    1DIPC   D2A12714  23.802  19.574   4.316  0.0989  0.1034 -0.1279
    1DIPC   D3A12715  24.016  19.741   3.953  0.2847  0.1743  0.0861
    1DIPC   C4A12716  24.195  19.418   3.747  0.0737 -0.2334  0.3928
    1DIPC   C1B12717  24.363  19.831   4.922  0.0126 -0.0581  0.0824
    1DIPC   D2B12718  24.089  20.014   4.551  0.1970  0.0252  0.3837
    1DIPC   D3B12719  23.720  19.843   4.734  0.1318  0.0640  0.4473
    1DIPC   C4B12720  23.360  19.760   4.483  0.1460 -0.2701 -0.1795
    1DIPC   NC312721  23.259  20.104   5.887  0.4190 -0.0096 -0.0235
    1DIPC   PO412722  23.268  20.600   5.876  0.0680  0.0586  0.0367
    1DIPC   GL112723  23.374  20.782   5.444  0.1293 -0.2225  0.0967
    1DIPC   GL212724  23.310  21.153   5.321 -0.1527 -0.1071  0.1102
    1DIPC   C1A12725  23.296  20.694   5.117 -0.1443 -0.1171 -0.1991
    1DIPC   D2A12726  23.048  20.443   4.846 -0.2257  0.0772  0.2515
    1DIPC   D3A12727  23.410  20.280   4.580 -0.0895 -0.2163 -0.2173
    1DIPC   C4A12728  23.485  20.105   4.190  0.0517 -0.0696 -0.2313
    1DIPC   C1B12729  23.211  21.207   4.905 -0.2391  0.2259  0.1525
    1DIPC   D2B12730  23.405  21.191   4.548 -0.1140  0.3440  0.0539
    1DIPC   D3B12731  23.441  20.828   4.613  0.2098  0.2021  0.1152
    1DIPC   C4B12732  23.340  20.659   4.188  0.2429 -0.1480 -0.1628
    1DIPC   NC312733  29.063  25.613   6.383 -0.1256 -0.1706 -0.1467
    1DIPC   PO412734  29.050  25.157   6.364  0.0704  0.0278  0.2489
    1DIPC   GL112735  29.035  25.345   5.951 -0.0794 -0.2109 -0.2053
    1DIPC   GL212736  29.311  25.641   5.900 -0.0978 -0.0828 -0.3339
    1DIPC   C1A12737  28.935  25.505   5.563  0.0962  0.2702 -0.0743
    1DIPC   D2A12738  28.962  25.572   5.154  0.1845  0.1817 -0.0922
    1DIPC   D3A12739  28.961  25.469   4.794 -0.1779  0.2584  0.2564
    1DIPC   C4A12740  28.541  25.379   4.590 -0.2932  0.2682  0.1911
    1DIPC   C1B12741  29.339  25.813   5.431  0.4178 -0.2101 -0.1602
    1DIPC   D2B12742  29.378  26.162   5.214 -0.1545 -0.1068 -0.0896
    1DIPC   D3B12743  29.349  25.791   4.887  0.0772 -0.2023 -0.0078
    1DIPC   C4B12744  29.402  25.617   4.455  0.0576  0.3803  0.1098
    1DIPC   NC312745   8.489  21.945   6.637  0.0073  0.5609  0.3509
    1DIPC   PO412746   8.225  21.730   6.332  0.1606  0.0044  0.1199
    1DIPC   GL112747   7.995  22.037   6.027 -0.2582 -0.1736  0.0173
    1DIPC   GL212748   8.301  22.001   5.844  0.1290  0.0934 -0.0212
    1DIPC   C1A12749   7.993  22.431   5.855  0.3474 -0.0404 -0.0314
    1DIPC   D2A12750   8.086  22.677   5.478 -0.0934 -0.0308  0.1960
    1DIPC   D3A12751   7.774  22.327   5.258  0.0441  0.0894  0.1691
    1DIPC   C4A12752   7.802  22.145   4.707  0.0072 -0.2310  0.1314
    1DIPC   C1B12753   8.004  21.956   5.550  0.0853 -0.1506  0.2268
    1DIPC   D2B12754   7.636  21.698   5.268  0.0133  0.3816 -0.3790
    1DIPC   D3B12755   7.210  21.642   5.096  0.0372 -0.2545 -0.0375
    1DIPC   C4B12756   7.056  21.262   4.992 -0.2630  0.0539  0.0940
    1DIPC   NC312757  19.085   4.011   7.193 -0.0920  0.0732  0.0643
    1DIPC   PO412758  19.444   3.951   6.875  0.3781 -0.1752 -0.0164
    1DIPC   GL112759  19.290   3.797   6.432 -0.1564 -0.1541  0.0348
    1DIPC   GL212760  19.059   3.479   6.339  0.0107 -0.0131  0.0216
    1DIPC   C1A12761  19.530   3.801   6.119 -0.1197 -0.2125 -0.0301
    1DIPC   D2A12762  19.643   3.811   5.633 -0.2498  0.1175 -0.1460
    1DIPC   D3A12763  19.943   3.721   5.411  0.0564 -0.3457 -0.0403
    1DIPC   C4A12764  20.145   3.951   5.259 -0.0000 -0.1052 -0.0692
    1DIPC   C1B12765  19.053   3.507   5.945 -0.1760 -0.0359 -0.0052
    1DIPC   D2B12766  19.071   3.506   5.512  0.0645 -0.1270 -0.1034
    1DIPC   D3B12767  18.647   3.369   5.519  0.1565  0.2128  0.1430
    1DIPC   C4B12768  18.437   3.085   5.220 -0.0381  0.0493 -0.1567
    1DIPC   NC312769   3.735   2.688   7.255 -0.0278 -0.0658 -0.0975
    1DIPC   PO412770   3.649   2.935   6.821  0.2286  0.1204 -0.0935
    1DIPC   GL112771   3.694   2.859   6.475  0.0008  0.1516 -0.1705
    1DIPC   GL212772   3.438   2.888   6.269 -0.0636 -0.0228 -0.1756
    1DIPC   C1A12773   3.797   2.809   5.968  0.0889 -0.0747  0.1536
    1DIPC   D2A12774   3.600   2.889   5.519  0.0998  0.0309 -0.2888
    1DIPC   D3A12775   3.410   2.818   5.166 -0.0751 -0.1754 -0.1889
    1DIPC   C4A12776   3.287   2.430   5.128  0.0193  0.2120  0.2710
    1DIPC   C1B12777   3.463   3.175   5.940 -0.0293 -0.3868  0.2035
    1DIPC   D2B12778   3.489   3.424   5.540  0.1034 -0.0638 -0.1763
    1DIPC   D3B12779   3.501   3.273   5.111  0.0923  0.1025 -0.1951
    1DIPC   C4B12780   3.204   3.253   4.864 -0.1889  0.0315  0.0039
    1DIPC   NC312781  24.575  13.134   5.417  0.0179  0.0677  0.2577
    1DIPC   PO412782  24.381  12.749   5.350 -0.0556 -0.0974  0.3112
    1DIPC   GL112783  24.750  12.688   5.100  0.0527 -0.0321  0.0929
    1DIPC   GL212784  24.498  12.911   4.816 -0.3411 -0.1256 -0.0764
    1DIPC   C1A12785  24.999  12.503   4.814  0.1444  0.1352  0.0053
    1DIPC   D2A12786  25.219  12.257   4.432 -0.1122 -0.2053  0.2184
    1DIPC   D3A12787  25.373  12.330   3.992 -0.3487  0.0352  0.0220
    1DIPC   C4A12788  25.228  12.678   3.750 -0.0789 -0.1384 -0.0051
    1DIPC   C1B12789  24.634  12.774   4.387 -0.0112 -0.0816  0.0426
    1DIPC   D2B12790  24.856  12.475   4.105  0.1296  0.2729 -0.2479
    1DIPC   D3B12791  24.791  12.853   3.876  0.0081  0.4607 -0.0759
    1DIPC   C4B12792  24.976  13.173   4.125 -0.0929 -0.3102 -0.4341
    1DIPC   NC312793  13.768  18.978   7.167 -0.0657  0.1962 -0.2246
    1DIPC   PO412794  14.011  19.081   6.804  0.4458 -0.1055  0.1639
    1DIPC   GL112795  13.979  19.004   6.387 -0.2411 -0.0656  0.1533
    1DIPC   GL212796  14.012  19.300   6.208 -0.3635 -0.3740  0.1087
    1DIPC   C1A12797  14.164  18.865   6.015  0.0514  0.1513 -0.0729
    1DIPC   D2A12798  14.286  18.691   5.669 -0.3214  0.0989  0.1659
    1DIPC   D3A12799  14.213  18.940   5.259  0.2501  0.1311 -0.0001
    1DIPC   C4A12800  13.831  18.843   4.942  0.4662  0.0769  0.0861
    1DIPC   C1B12801  13.729  19.101   5.852  0.1845 -0.0849  0.0539
    1DIPC   D2B12802  13.775  18.822   5.466  0.0072 -0.1657  0.0453
    1DIPC   D3B12803  13.768  18.485   5.629 -0.1019  0.0336  0.0264
    1DIPC   C4B12804  13.948  18.382   5.936  0.3250 -0.0914 -0.0101
    1DIPC   NC312805  14.927  14.280   6.348  0.0694 -0.1890 -0.0203
    1DIPC   PO412806  14.870  14.714   6.416  0.1988 -0.1892 -0.1495
    1DIPC   GL112807  14.680  14.596   6.041  0.0345  0.0514 -0.2097
    1DIPC   GL212808  14.317  14.793   5.901  0.0702  0.0480 -0.1933
    1DIPC   C1A12809  14.575  14.260   5.801  0.2715 -0.2518  0.1183
    1DIPC   D2A12810  14.378  14.168   5.440  0.0659 -0.0246 -0.1052
    1DIPC   D3A12811  14.196  13.893   5.034 -0.0612 -0.0754  0.0149
    1DIPC   C4A12812  14.536  13.650   4.705 -0.1013 -0.0120 -0.0113
    1DIPC   C1B12813  14.119  14.338   5.957 -0.1203  0.0054 -0.3270
    1DIPC   D2B12814  14.173  13.939   5.819 -0.2528  0.0081  0.1943
    1DIPC   D3B12815  13.956  13.951   5.533 -0.1224  0.2070  0.2376
    1DIPC   C4B12816  13.900  14.293   5.224 -0.0766 -0.1850 -0.4290
    1DIPC   NC312817  14.824  12.262   7.052 -0.2071  0.0936 -0.2023
    1DIPC   PO412818  15.048  11.910   6.735 -0.1241  0.0231 -0.0477
    1DIPC   GL112819  14.831  11.833   6.342  0.2849 -0.0911  0.3957
    1DIPC   GL212820  14.895  11.527   6.256  0.1405 -0.0394  0.3830
    1DIPC   C1A12821  14.702  12.119   5.981  0.0538 -0.1736  0.4351
    1DIPC   D2A12822  14.587  12.038   5.503 -0.2133  0.3281  0.1414
    1DIPC   D3A12823  14.729  12.263   5.122  0.0075 -0.0510 -0.2342
    1DIPC   C4A12824  14.435  12.262   4.754 -0.0960  0.0783 -0.1081
    1DIPC   C1B12825  14.760  11.551   5.857  0.1786  0.0256  0.0765
    1DIPC   D2B12826  14.890  11.379   5.480 -0.3422 -0.5289 -0.0743
    1DIPC   D3B12827  14.759  11.051   5.292  0.1364  0.0103  0.1142
    1DIPC   C4B12828  14.325  10.885   5.344  0.0008  0.0200  0.1719
    1DIPC   NC312829  17.247  23.212   6.404  0.0754  0.1994 -0.0499
    1DIPC   PO412830  17.373  22.846   6.185 -0.0513  0.1245 -0.0592
    1DIPC   GL112831  17.128  22.874   5.862  0.4389  0.3011 -0.1285
    1DIPC   GL212832  17.298  22.877   5.593 -0.0420 -0.2936 -0.2550
    1DIPC   C1A12833  16.820  22.992   5.540  0.3376 -0.0226  0.2780
    1DIPC   D2A12834  16.585  22.893   5.178  0.1447  0.0601 -0.1132
    1DIPC   D3A12835  16.353  22.662   5.007  0.1739  0.0029 -0.0439
    1DIPC   C4A12836  16.115  22.979   4.828  0.1911 -0.0850  0.2462
    1DIPC   C1B12837  17.098  22.795   5.209 -0.0734  0.3582 -0.2542
    1DIPC   D2B12838  17.095  22.889   4.717  0.1593 -0.1844  0.2070
    1DIPC   D3B12839  17.422  23.165   5.034 -0.1037 -0.1129 -0.0166
    1DIPC   C4B12840  17.887  23.442   4.964  0.1476  0.0044  0.0867
    1DIPC   NC312841  27.561   3.753   6.968  0.1450 -0.1351 -0.4112
    1DIPC   PO412842  27.657   4.070   6.715 -0.0801  0.3746  0.0383
    1DIPC   GL112843  27.566   4.068   6.228  0.3217 -0.2196 -0.0744
    1DIPC   GL212844  27.844   4.121   6.050  0.1212  0.0196  0.0465
    1DIPC   C1A12845  27.512   3.731   5.943 -0.1260  0.2363 -0.0505
    1DIPC   D2A12846  27.236   3.507   5.707 -0.1918 -0.0943  0.0393
    1DIPC   D3A12847  27.503   3.519   5.307  0.1005 -0.0948 -0.1085
    1DIPC   C4A12848  27.340   3.708   4.944  0.0124  0.1844  0.0134
    1DIPC   C1B12849  27.842   4.319   5.622  0.0224 -0.2101 -0.5130
    1DIPC   D2B12850  27.737   4.494   5.177 -0.1411 -0.2252  0.4280
    1DIPC   D3B12851  27.414   4.520   4.949  0.1944  0.2869 -0.0478
    1DIPC   C4B12852  27.375   4.856   4.685 -0.1393  0.2397 -0.0742
    1DIPC   NC312853  21.692  11.903   6.238 -0.1028 -0.1373 -0.2572
    1DIPC   PO412854  21.970  11.642   6.001  0.0392 -0.1517 -0.2365
    1DIPC   GL112855  21.841  11.527   5.526 -0.1373 -0.0521 -0.1300
    1DIPC   GL212856  21.933  11.673   5.232  0.4155  0.3663  0.2529
    1DIPC   C1A12857  21.713  11.242   5.227 -0.2464 -0.2476  0.2578
    1DIPC   D2A12858  21.579  11.194   4.781  0.1075 -0.1530  0.3272
    1DIPC   D3A12859  21.463  10.984   4.394  0.2969  0.0619  0.1454
    1DIPC   C4A12860  21.857  10.957   4.106  0.1139 -0.0510  0.0646
    1DIPC   C1B12861  21.939  11.672   4.855  0.1241 -0.0702  0.1887
    1DIPC   D2B12862  21.642  11.636   4.575  0.1824  0.0073 -0.0203
    1DIPC   D3B12863  21.621  11.416   4.222  0.0901  0.0948 -0.1195
    1DIPC   C4B12864  21.984  11.438   4.034  0.0669  0.0348  0.1800
    1DIPC   NC312865   6.520  25.183   6.388  0.1392 -0.2816 -0.2719
    1DIPC   PO412866   6.694  25.546   6.162  0.0625  0.2005  0.0558
    1DIPC   GL112867   7.084  25.654   6.033 -0.4734  0.1011 -0.1459
    1DIPC   GL212868   7.329  25.393   5.876 -0.1195  0.4500 -0.1277
    1DIPC   C1A12869   7.221  25.963   5.994 -0.2158  0.2336  0.1065
    1DIPC   D2A12870   7.172  26.130   5.619  0.4455  0.0440 -0.2440
    1DIPC   D3A12871   7.496  26.091   5.480  0.2188 -0.0517 -0.0794
    1DIPC   C4A12872   7.553  25.756   5.682  0.0463  0.2523  0.1526
    1DIPC   C1B12873   7.195  25.496   5.440  0.1094 -0.1604  0.2292
    1DIPC   D2B12874   7.121  25.858   5.126 -0.1364  0.0407 -0.0780
    1DIPC   D3B12875   6.864  25.502   4.954  0.0041  0.1637 -0.2628
    1DIPC   C4B12876   6.791  25.358   4.512 -0.0568  0.0438  0.0011
    1DIPC   NC312877  12.731  20.410   6.794  0.0605  0.4465  0.0966
    1DIPC   PO412878  13.115  20.652   6.591 -0.1658  0.3736 -0.3243
    1DIPC   GL112879  13.076  20.780   6.159  0.1382  0.2185 -0.0289
    1DIPC   GL212880  13.358  20.942   6.008 -0.1283  0.5230  0.0098
    1DIPC   C1A12881  12.684  20.655   6.015 -0.3017  0.1527 -0.0409
    1DIPC   D2A12882  12.401  20.868   5.842  0.4638 -0.0451 -0.1978
    1DIPC   D3A12883  12.656  20.916   5.505 -0.3962 -0.2304  0.1143
    1DIPC   C4A12884  12.828  20.811   5.022 -0.5552  0.1381  0.2038
    1DIPC   C1B12885  13.021  21.139   5.789 -0.1058 -0.0598  0.1730
    1DIPC   D2B12886  13.017  21.159   5.313 -0.0351 -0.0640  0.0541
    1DIPC   D3B12887  13.127  21.488   4.939  0.1247  0.1343 -0.0518
    1DIPC   C4B12888  13.342  21.337   4.554  0.0844 -0.3495  0.0893
    1DIPC   NC312889  11.352  12.482   6.909 -0.1388 -0.0066  0.1879
    1DIPC   PO412890  11.691  12.860   6.989 -0.0254  0.2019  0.3238
    1DIPC   GL112891  11.561  12.816   6.568  0.1080 -0.0441  0.1235
    1DIPC   GL212892  11.178  12.837   6.523 -0.0807  0.2575 -0.0700
    1DIPC   C1A12893  11.539  12.899   6.173  0.3676 -0.0642 -0.0731
    1DIPC   D2A12894  11.552  12.911   5.736 -0.1284 -0.0364 -0.0866
    1DIPC   D3A12895  11.310  13.049   5.371 -0.1974 -0.0129  0.0241
    1DIPC   C4A12896  10.952  13.128   5.388  0.0990  0.0278  0.1956
    1DIPC   C1B12897  10.921  12.846   6.159  0.2167 -0.1191 -0.1762
    1DIPC   D2B12898  11.094  12.684   5.773 -0.1566 -0.1152 -0.1257
    1DIPC   D3B12899  11.377  12.483   5.843 -0.0882  0.0773 -0.1920
    1DIPC   C4B12900  11.417  12.387   6.201 -0.0146  0.1168 -0.2204
    1DIPC   NC312901  15.480   8.350   6.883 -0.0734  0.1905 -0.1112
    1DIPC   PO412902  15.487   8.769   6.659  0.0505 -0.0013 -0.1043
    1DIPC   GL112903  15.310   8.731   6.202 -0.0909 -0.0248 -0.1873
    1DIPC   GL212904  15.424   8.887   5.959  0.3957 -0.0424  0.2105
    1DIPC   C1A12905  15.214   8.369   5.907  0.0211 -0.1559 -0.1604
    1DIPC   D2A12906  15.278   8.148   5.648 -0.2146 -0.0992  0.0389
    1DIPC   D3A12907  15.329   8.257   5.293  0.0188  0.1916  0.1000
    1DIPC   C4A12908  15.239   8.724   5.147  0.1998 -0.1499  0.2344
    1DIPC   C1B12909  15.799   8.572   6.126  0.4032  0.0906 -0.0376
    1DIPC   D2B12910  16.265   8.435   6.363 -0.1560 -0.1460  0.1769
    1DIPC   D3B12911  15.875   8.138   6.454 -0.1101  0.2973  0.1058
    1DIPC   C4B12912  16.139   7.783   6.541  0.3693  0.0561 -0.0669
    1DIPC   NC312913  15.500   7.496   7.286  0.0607  0.0877  0.1105
    1DIPC   PO412914  15.569   7.278   7.050  0.0886 -0.0826  0.0738
    1DIPC   GL112915  15.664   7.372   6.641 -0.4482  0.1576 -0.1041
    1DIPC   GL212916  15.706   7.177   6.375  0.2204 -0.0638 -0.3932
    1DIPC   C1A12917  15.746   7.671   6.236  0.0632 -0.0884  0.3941
    1DIPC   D2A12918  16.073   7.927   6.050 -0.0542 -0.2391 -0.0578
    1DIPC   D3A12919  15.827   8.194   5.751  0.1887 -0.0155 -0.2817
    1DIPC   C4A12920  15.825   8.051   5.359 -0.1743  0.0659  0.2534
    1DIPC   C1B12921  15.617   7.328   5.930 -0.3472  0.4352 -0.0802
    1DIPC   D2B12922  15.807   7.248   5.559 -0.0804 -0.2795  0.1776
    1DIPC   D3B12923  15.820   6.842   5.312  0.1160  0.2470 -0.0021
    1DIPC   C4B12924  16.059   6.520   5.304  0.2974 -0.1692 -0.0642
    1DIPC   NC312925  17.541  14.434   5.617  0.2347 -0.0070 -0.3527
    1DIPC   PO412926  17.513  14.973   5.723  0.1562  0.0129 -0.0158
    1DIPC   GL112927  17.621  14.785   5.266  0.3878 -0.1968 -0.0480
    1DIPC   GL212928  17.422  14.470   5.125  0.1120 -0.1808  0.0788
    1DIPC   C1A12929  17.748  14.944   4.837  0.3407 -0.3385  0.2359
    1DIPC   D2A12930  17.984  15.011   4.467 -0.3879 -0.0020  0.1891
    1DIPC   D3A12931  17.932  15.411   4.275 -0.0472  0.1520  0.1932
    1DIPC   C4A12932  18.252  15.444   3.852 -0.1349  0.2710  0.0472
    1DIPC   C1B12933  17.477  14.403   4.722  0.3901  0.0652  0.0953
    1DIPC   D2B12934  17.260  14.130   4.413  0.3353 -0.2797  0.0187
    1DIPC   D3B12935  16.856  14.042   4.265 -0.2249  0.2382 -0.0012
    1DIPC   C4B12936  16.873  14.225   3.948  0.0417  0.0585  0.2135
    1DIPC   NC312937   5.661  25.821   6.934 -0.1432 -0.0112 -0.1189
    1DIPC   PO412938   5.791  25.788   6.519  0.3674 -0.2664  0.0293
    1DIPC   GL112939   5.723  26.161   6.283  0.0030  0.0476  0.1800
    1DIPC   GL212940   5.593  26.082   5.975  0.0558 -0.0465 -0.3028
    1DIPC   C1A12941   5.792  26.577   5.940 -0.0411  0.0406 -0.0531
    1DIPC   D2A12942   5.517  26.804   5.789  0.0273 -0.2328 -0.1931
    1DIPC   D3A12943   5.270  26.449   5.658  0.1106  0.0598 -0.0310
    1DIPC   C4A12944   5.122  26.027   5.708 -0.2781 -0.1462 -0.0358
    1DIPC   C1B12945   6.082  26.055   5.978 -0.0511 -0.1081  0.0034
    1DIPC   D2B12946   6.470  26.298   6.039 -0.0035  0.1167  0.0453
    1DIPC   D3B12947   6.677  25.950   5.872 -0.0746 -0.0050  0.1953
    1DIPC   C4B12948   6.751  25.736   5.458  0.0285 -0.0984 -0.2501
    1DIPC   NC312949   3.099  25.917   7.123  0.0649 -0.0256 -0.1113
    1DIPC   PO412950   2.959  26.179   6.913 -0.1571 -0.0251 -0.2192
    1DIPC   GL112951   2.929  26.068   6.424  0.2356  0.3188 -0.3673
    1DIPC   GL212952   3.170  26.118   6.238 -0.0135  0.0902  0.1402
    1DIPC   C1A12953   2.652  26.131   6.126  0.2408  0.3604 -0.5412
    1DIPC   D2A12954   2.530  25.913   5.757 -0.0150 -0.0414 -0.0085
    1DIPC   D3A12955   2.285  25.829   6.046 -0.0745 -0.1193 -0.0947
    1DIPC   C4A12956   1.863  25.869   5.964 -0.3059  0.1552  0.1273
    1DIPC   C1B12957   3.159  25.923   5.806 -0.0052 -0.2766 -0.1629
    1DIPC   D2B12958   3.215  25.703   5.473 -0.0139  0.0506  0.4756
    1DIPC   D3B12959   3.654  25.829   5.238  0.2674 -0.1543  0.0421
    1DIPC   C4B12960   3.947  25.588   5.126  0.4077  0.0326  0.1382
    1DIPC   NC312961  16.084   9.295   6.890 -0.2415 -0.0557 -0.1936
    1DIPC   PO412962  16.391   9.259   6.432 -0.3589 -0.2424 -0.2112
    1DIPC   GL112963  16.504   9.102   6.093  0.1998 -0.2629  0.1642
    1DIPC   GL212964  16.845   9.196   6.046 -0.0866 -0.0791 -0.1056
    1DIPC   C1A12965  16.594   8.659   5.999  0.0739 -0.0036  0.1516
    1DIPC   D2A12966  16.389   8.354   5.720 -0.0599 -0.0196 -0.2632
    1DIPC   D3A12967  16.045   8.579   5.448  0.1127  0.0462  0.0092
    1DIPC   C4A12968  15.593   8.543   5.551 -0.1893  0.0827  0.0557
    1DIPC   C1B12969  16.822   8.905   5.665 -0.2101 -0.3741  0.0488
    1DIPC   D2B12970  17.091   8.957   5.432  0.1013  0.0687  0.2711
    1DIPC   D3B12971  17.278   8.801   5.079 -0.3890 -0.1801 -0.0163
    1DIPC   C4B12972  17.598   8.748   5.137  0.0058 -0.0457  0.0106
    1DIPC   NC312973  15.352   1.094   7.294  0.1737 -0.2573  0.1404
    1DIPC   PO412974  14.974   1.250   7.254  0.2053 -0.2710 -0.1411
    1DIPC   GL112975  14.921   1.127   6.787 -0.0349 -0.0544 -0.0273
    1DIPC   GL212976  14.742   0.920   6.578  0.0195  0.0536 -0.3639
    1DIPC   C1A12977  15.102   1.050   6.328 -0.0610  0.1453  0.2740
    1DIPC   D2A12978  15.042   1.202   5.925  0.1047 -0.4049  0.4085
    1DIPC   D3A12979  14.798   1.610   5.850 -0.1433  0.1237  0.0816
    1DIPC   C4A12980  14.415   1.757   5.900 -0.4456 -0.0248  0.1403
    1DIPC   C1B12981  14.713   0.806   6.139  0.1742  0.1029  0.2342
    1DIPC   D2B12982  14.813   0.752   5.657  0.0021  0.0353  0.1032
    1DIPC   D3B12983  14.867   1.115   5.485 -0.1475 -0.2616  0.1574
    1DIPC   C4B12984  15.132   1.029   5.110  0.2733  0.0630 -0.1407
    1DIPC   NC312985  22.079   6.058   6.955 -0.0579 -0.3004 -0.1453
    1DIPC   PO412986  22.371   6.303   6.954 -0.1195 -0.2402 -0.0467
    1DIPC   GL112987  22.431   6.311   6.583  0.0382  0.2472 -0.2874
    1DIPC   GL212988  22.118   6.448   6.548  0.0732  0.2026  0.0484
    1DIPC   C1A12989  22.809   6.437   6.495 -0.3489  0.2902  0.1716
    1DIPC   D2A12990  23.134   6.453   6.336 -0.3944 -0.0608 -0.0787
    1DIPC   D3A12991  23.311   6.184   6.698  0.0046 -0.2008 -0.0006
    1DIPC   C4A12992  23.459   5.863   6.524 -0.0256  0.0596 -0.0513
    1DIPC   C1B12993  22.272   6.392   6.128 -0.0562 -0.0367  0.0279
    1DIPC   D2B12994  22.390   6.213   5.735  0.0224 -0.0811 -0.4010
    1DIPC   D3B12995  22.481   5.804   5.762  0.2919  0.0639  0.0946
    1DIPC   C4B12996  22.201   5.568   6.048 -0.0571  0.2100 -0.1737
    1DIPC   NC312997   2.670   2.976   6.693  0.1067  0.0787 -0.0686
    1DIPC   PO412998   2.254   2.947   6.512  0.1752  0.1758  0.0060
    1DIPC   GL112999   2.338   3.198   6.194 -0.0853  0.2801 -0.0048
    1DIPC   GL213000   1.895   3.182   6.074  0.0361 -0.3798  0.1236
    1DIPC   C1A13001   2.527   3.302   5.780 -0.0515  0.0861 -0.3269
    1DIPC   D2A13002   2.324   3.494   5.383 -0.2477  0.1736 -0.2829
    1DIPC   D3A13003   2.692   3.374   5.154  0.2850  0.0485 -0.0198
    1DIPC   C4A13004   3.020   3.140   5.489 -0.4586  0.0299 -0.0953
    1DIPC   C1B13005   2.138   2.872   5.818 -0.2841 -0.1124  0.1435
    1DIPC   D2B13006   2.243   2.490   5.589  0.1552  0.3559 -0.3950
    1DIPC   D3B13007   2.401   2.261   5.809  0.0456  0.3113  0.1360
    1DIPC   C4B13008   2.534   1.877   5.667 -0.1295 -0.0759 -0.1566
    1DIPC   NC313009   4.784  23.742   7.015  0.0737  0.1015 -0.1791
    1DIPC   PO413010   4.391  23.776   6.847 -0.1533  0.0888 -0.1542
    1DIPC   GL113011   4.230  23.766   6.460  0.0020  0.1642  0.1021
    1DIPC   GL213012   4.385  23.817   6.229  0.0951  0.0343  0.0425
    1DIPC   C1A13013   3.940  23.829   6.060 -0.0495  0.1982  0.1448
    1DIPC   D2A13014   3.784  23.731   5.648 -0.0396  0.1824  0.0918
    1DIPC   D3A13015   4.006  23.499   5.453 -0.1642  0.0147 -0.2548
    1DIPC   C4A13016   3.863  23.195   5.266 -0.0168 -0.0345 -0.0242
    1DIPC   C1B13017   4.753  23.652   5.975 -0.2626  0.1495  0.0404
    1DIPC   D2B13018   5.085  23.452   5.933 -0.0949  0.0091  0.0276
    1DIPC   D3B13019   5.062  23.166   5.625 -0.1635 -0.1662  0.1732
    1DIPC   C4B13020   4.902  23.461   5.342  0.1039  0.2515  0.0445
    1DIPC   NC313021  12.384  17.519   6.694 -0.1583  0.0014  0.1776
    1DIPC   PO413022  12.483  17.178   6.461 -0.0243 -0.2462 -0.2233
    1DIPC   GL113023  12.519  17.377   6.049 -0.0136  0.0448  0.2081
    1DIPC   GL213024  12.826  17.675   6.093  0.0516 -0.2013  0.0689
    1DIPC   C1A13025  12.581  17.520   5.687 -0.1600  0.0231 -0.0836
    1DIPC   D2A13026  12.333  17.606   5.307  0.2157  0.1087 -0.1914
    1DIPC   D3A13027  12.351  17.190   5.191  0.0248  0.0347 -0.1770
    1DIPC   C4A13028  12.147  17.195   4.914 -0.0895  0.2149 -0.1654
    1DIPC   C1B13029  12.996  18.017   5.850 -0.2838  0.0355 -0.0581
    1DIPC   D2B13030  13.441  18.200   5.873  0.1561 -0.4113  0.0809
    1DIPC   D3B13031  13.345  18.286   5.372 -0.0055 -0.2489 -0.3045
    1DIPC   C4B13032  12.871  18.251   5.329 -0.2518 -0.0439  0.4078
    1DIPC   NC313033  18.317   4.837   7.151  0.3123 -0.0033 -0.1243
    1DIPC   PO413034  18.554   5.081   6.876  0.2338 -0.0480 -0.0833
    1DIPC   GL113035  18.810   5.115   6.505 -0.1413 -0.0713 -0.2213
    1DIPC   GL213036  19.224   5.181   6.563  0.1471 -0.0656  0.3494
    1DIPC   C1A13037  18.817   5.167   6.086  0.1781  0.2797  0.0293
    1DIPC   D2A13038  19.043   5.094   5.719  0.0055  0.3863  0.1367
    1DIPC   D3A13039  18.669   5.139   5.515 -0.2923 -0.0455  0.0039
    1DIPC   C4A13040  18.334   5.363   5.355 -0.2662 -0.1242  0.0959
    1DIPC   C1B13041  19.220   5.453   6.165  0.0288  0.3425  0.2989
    1DIPC   D2B13042  19.426   5.852   5.993 -0.0396  0.2892  0.0059
    1DIPC   D3B13043  19.208   5.963   6.285 -0.1550  0.0789 -0.1523
    1DIPC   C4B13044  18.732   6.110   6.331 -0.0463  0.1314  0.0577
    1DIPC   NC313045  27.664  11.049   6.938  0.3861 -0.3194  0.1729
    1DIPC   PO413046  27.381  11.012   6.588  0.2163  0.0767  0.3471
    1DIPC   GL113047  27.317  11.280   6.267  0.0474 -0.1795  0.1877
    1DIPC   GL213048  26.974  11.353   6.109 -0.0536 -0.0721 -0.1307
    1DIPC   C1A13049  27.673  11.565   6.171  0.1031 -0.0468 -0.1733
    1DIPC   D2A13050  28.029  11.753   5.966  0.0383 -0.2846  0.0399
    1DIPC   D3A13051  27.708  12.012   5.885 -0.2165 -0.0675  0.0921
    1DIPC   C4A13052  27.787  12.316   5.544 -0.0547  0.3043  0.4141
    1DIPC   C1B13053  27.152  11.268   5.714 -0.0941  0.2836 -0.0065
    1DIPC   D2B13054  27.295  11.136   5.213 -0.1905 -0.1200  0.0078
    1DIPC   D3B13055  27.548  11.021   4.898  0.1187  0.3372 -0.0030
    1DIPC   C4B13056  27.426  11.139   4.496 -0.1535 -0.0286  0.1547
    1DIPC   NC313057  12.282   2.345   7.480 -0.1782 -0.0014  0.0700
    1DIPC   PO413058  12.261   2.396   6.963 -0.1112  0.1820  0.1703
    1DIPC   GL113059  12.317   2.130   6.564  0.3623 -0.0454 -0.2201
    1DIPC   GL213060  12.229   2.431   6.360  0.0289 -0.1142  0.1984
    1DIPC   C1A13061  12.534   1.898   6.206 -0.0951 -0.0369  0.0933
    1DIPC   D2A13062  12.872   1.846   6.021 -0.0059 -0.0433  0.3251
    1DIPC   D3A13063  12.697   1.999   5.731 -0.0793 -0.0133 -0.0763
    1DIPC   C4A13064  12.692   2.220   5.377 -0.2099  0.1353 -0.4246
    1DIPC   C1B13065  11.827   2.431   6.171 -0.1266 -0.2727  0.0039
    1DIPC   D2B13066  11.605   2.075   5.884  0.2732  0.0588  0.1630
    1DIPC   D3B13067  11.284   2.326   5.738 -0.2361  0.1763  0.1637
    1DIPC   C4B13068  10.906   2.493   5.930 -0.3788 -0.1541 -0.0615
    1DIPC   NC313069  18.305  27.430   6.979  0.1122  0.4307 -0.2615
    1DIPC   PO413070  18.417  27.799   6.802 -0.3286 -0.1483  0.1433
    1DIPC   GL113071  18.596  27.768   6.381 -0.1993 -0.1828 -0.1349
    1DIPC   GL213072  18.910  27.989   6.335 -0.0699  0.0314  0.0997
    1DIPC   C1A13073  18.732  27.718   5.949  0.5345  0.1453  0.3030
    1DIPC   D2A13074  18.821  27.781   5.650  0.3371  0.0640 -0.2686
    1DIPC   D3A13075  18.932  27.385   5.594 -0.1338 -0.0566 -0.2683
    1DIPC   C4A13076  19.125  27.262   5.192 -0.0502  0.3036 -0.1372
    1DIPC   C1B13077  19.209  27.733   6.103 -0.1886 -0.1995  0.0733
    1DIPC   D2B13078  19.507  27.622   5.755  0.0483  0.1929 -0.2183
    1DIPC   D3B13079  19.821  27.794   5.328 -0.2270  0.1236 -0.2389
    1DIPC   C4B13080  19.951  27.389   5.042  0.0285 -0.1560  0.1383
    1DIPC   NC313081  19.202  19.828   6.311  0.0133  0.0151  0.0223
    1DIPC   PO413082  19.606  20.039   6.198  0.2719  0.0792 -0.3749
    1DIPC   GL113083  19.532  19.690   5.908 -0.3310  0.0797  0.2253
    1DIPC   GL213084  19.814  19.649   5.759 -0.2237  0.1794 -0.0127
    1DIPC   C1A13085  19.444  19.336   5.711  0.0353  0.2579 -0.0326
    1DIPC   D2A13086  19.568  18.938   5.577 -0.0140 -0.3646  0.2598
    1DIPC   D3A13087  19.935  18.752   5.293  0.1898  0.0560  0.2516
    1DIPC   C4A13088  19.849  18.549   4.947 -0.1113 -0.1193 -0.1052
    1DIPC   C1B13089  19.669  19.941   5.363  0.0705 -0.0031 -0.2194
    1DIPC   D2B13090  19.793  20.016   4.915  0.0385 -0.0098  0.1134
    1DIPC   D3B13091  19.777  20.411   4.589  0.0639 -0.1851  0.0283
    1DIPC   C4B13092  19.776  20.371   4.139  0.1154 -0.1056  0.0906
    1DIPC   NC313093  15.087  26.855   6.475  0.0051  0.3125  0.0509
    1DIPC   PO413094  14.769  26.707   6.177  0.0143 -0.0011 -0.1178
    1DIPC   GL113095  14.422  26.704   5.988 -0.2185  0.1822 -0.2331
    1DIPC   GL213096  14.338  27.011   6.140 -0.2743 -0.2472 -0.1183
    1DIPC   C1A13097  14.062  26.695   5.686  0.0508  0.0557 -0.1281
    1DIPC   D2A13098  13.791  26.408   5.459  0.1362 -0.0179  0.0011
    1DIPC   D3A13099  13.986  26.116   5.466  0.1349  0.0846 -0.3023
    1DIPC   C4A13100  14.232  26.269   5.823  0.0641  0.5425  0.0198
    1DIPC   C1B13101  14.216  27.150   5.767  0.1589 -0.1043  0.0825
    1DIPC   D2B13102  14.044  27.284   5.423  0.0235  0.2345 -0.0875
    1DIPC   D3B13103  14.322  27.337   5.037  0.0428  0.0646 -0.0933
    1DIPC   C4B13104  14.452  27.003   4.879 -0.3428  0.0081 -0.0793
    1DIPC   NC313105   6.160  26.254   6.579 -0.2529  0.0229 -0.1349
    1DIPC   PO413106   6.504  26.365   6.879 -0.1261  0.1333 -0.1824
    1DIPC   GL113107   6.716  26.555   6.504 -0.1525 -0.3417 -0.0321
    1DIPC   GL213108   6.426  26.725   6.440 -0.3234  0.2447 -0.4893
    1DIPC   C1A13109   6.904  26.604   6.073  0.1162  0.0013 -0.2073
    1DIPC   D2A13110   6.901  26.515   5.627  0.0237 -0.0416  0.3614
    1DIPC   D3A13111   6.541  26.290   5.466 -0.1882 -0.3425  0.1245
    1DIPC   C4A13112   6.075  26.259   5.368  0.1353  0.2642 -0.1436
    1DIPC   C1B13113   6.574  26.994   6.048 -0.0731  0.1842 -0.0353
    1DIPC   D2B13114   6.791  27.060   5.626  0.1422 -0.0961 -0.0941
    1DIPC   D3B13115   6.610  26.807   5.349 -0.4498 -0.1902 -0.2940
    1DIPC   C4B13116   6.673  26.696   4.868  0.3778 -0.2075  0.0391
    1DIPC   NC313117  24.242  26.734   7.073 -0.0132 -0.1013 -0.1245
    1DIPC   PO413118  23.970  27.097   7.146  0.1425  0.0308  0.0774
    1DIPC   GL113119  24.089  27.237   6.721  0.0268  0.0725 -0.0456
    1DIPC   GL213120  24.119  27.458   6.433  0.2206  0.1823 -0.0984
    1DIPC   C1A13121  24.228  26.942   6.448  0.2584  0.0093  0.1124
    1DIPC   D2A13122  24.129  26.929   6.047  0.2756  0.0359  0.0907
    1DIPC   D3A13123  24.385  27.208   5.839  0.1822 -0.0192 -0.1125
    1DIPC   C4A13124  24.692  27.055   5.587 -0.1495  0.1027 -0.1126
    1DIPC   C1B13125  23.976  27.472   6.048  0.0296  0.1425 -0.3627
    1DIPC   D2B13126  23.930  27.158   5.638 -0.0370  0.2724 -0.2285
    1DIPC   D3B13127  23.725  27.384   5.312  0.2076  0.2581 -0.0614
    1DIPC   C4B13128  23.404  27.109   4.995  0.1091 -0.1465  0.2431
    1DIPC   NC313129  15.872  22.595   6.566  0.0127 -0.1336  0.0898
    1DIPC   PO413130  16.101  22.178   6.592  0.2562  0.1653 -0.2321
    1DIPC   GL113131  16.105  22.097   6.223  0.1586  0.0558 -0.1287
    1DIPC   GL213132  16.091  21.808   5.988  0.1014  0.4219 -0.3517
    1DIPC   C1A13133  15.966  22.268   5.858 -0.0575 -0.1293 -0.3425
    1DIPC   D2A13134  15.666  22.347   5.607  0.0355 -0.2283  0.0726
    1DIPC   D3A13135  15.846  22.615   5.215 -0.1664 -0.2069 -0.2034
    1DIPC   C4A13136  16.100  22.961   5.278  0.1723  0.0334  0.0638
    1DIPC   C1B13137  15.837  21.838   5.649  0.1169 -0.1151  0.1124
    1DIPC   D2B13138  15.494  21.558   5.548 -0.0733 -0.1651  0.0569
    1DIPC   D3B13139  15.232  21.251   5.197 -0.1785 -0.0613 -0.0502
    1DIPC   C4B13140  14.889  21.372   5.334  0.0526 -0.1048  0.0848
    1DIPC   NC313141  24.976  29.653   6.668 -0.0708  0.1511 -0.1795
    1DIPC   PO413142  24.612  29.836   6.587  0.2561 -0.0567  0.1280
    1DIPC   GL113143  24.789  29.825   6.255 -0.1302 -0.1077 -0.0635
    1DIPC   GL213144  24.845  30.161   6.149  0.1232  0.0330 -0.0065
    1DIPC   C1A13145  25.058  29.639   5.886 -0.1352 -0.0149 -0.1356
    1DIPC   D2A13146  24.991  29.710   5.518 -0.1369  0.0333  0.0065
    1DIPC   D3A13147  24.574  29.553   5.413 -0.2342  0.0051 -0.4380
    1DIPC   C4A13148  24.451  29.172   5.270  0.0750 -0.5412 -0.0284
    1DIPC   C1B13149  24.954  30.585   5.924  0.3066 -0.2164 -0.1738
    1DIPC   D2B13150  25.385  30.719   5.878 -0.1004  0.0630  0.1519
    1DIPC   D3B13151  25.176  30.980   5.597 -0.0423 -0.2728 -0.2101
    1DIPC   C4B13152  25.190  31.131   5.165  0.1856  0.0806 -0.2246
    1DIPC   NC313153   8.613   3.861   7.173 -0.2546  0.2014 -0.2672
    1DIPC   PO413154   9.107   3.725   7.335  0.1180  0.2811  0.0115
    1DIPC   GL113155   9.162   4.132   7.088  0.2831 -0.0582  0.0661
    1DIPC   GL213156   9.447   3.990   6.956 -0.0799 -0.0328 -0.0529
    1DIPC   C1A13157   9.233   4.426   6.687  0.2558  0.0504 -0.1918
    1DIPC   D2A13158   9.464   4.796   6.703 -0.1282 -0.0290  0.0495
    1DIPC   D3A13159   9.388   4.696   6.314  0.0183  0.1455 -0.2563
    1DIPC   C4A13160   9.310   4.226   6.234 -0.3716  0.2504 -0.0106
    1DIPC   C1B13161   9.199   3.913   6.586 -0.0899 -0.1348  0.0816
    1DIPC   D2B13162   8.653   3.698   6.543  0.2098 -0.0630  0.0363
    1DIPC   D3B13163   8.345   4.026   6.503 -0.1641  0.0699  0.0762
    1DIPC   C4B13164   8.040   4.077   6.131  0.1756 -0.4774 -0.2069
    1DIPC   NC313165  13.149  16.321   6.815 -0.0912 -0.1640 -0.0729
    1DIPC   PO413166  12.922  16.449   6.491 -0.0389 -0.1570  0.3690
    1DIPC   GL113167  13.022  16.450   6.108 -0.1168 -0.1158 -0.0834
    1DIPC   GL213168  12.742  16.563   6.028 -0.2083  0.3270 -0.3220
    1DIPC   C1A13169  13.173  16.630   5.655 -0.1892  0.0247 -0.0817
    1DIPC   D2A13170  13.187  16.829   5.206  0.1388 -0.1162 -0.1867
    1DIPC   D3A13171  13.282  17.088   4.978  0.1646  0.3049 -0.0077
    1DIPC   C4A13172  13.253  16.925   4.484  0.1606  0.1226  0.0177
    1DIPC   C1B13173  12.531  16.491   5.680  0.1419  0.1561  0.0278
    1DIPC   D2B13174  12.139  16.744   5.453  0.0903 -0.0846 -0.1726
    1DIPC   D3B13175  12.645  16.690   5.226  0.0916  0.0409 -0.1435
    1DIPC   C4B13176  12.797  16.890   4.913 -0.0273  0.0378 -0.0870
    1DIPC   NC313177  27.025  27.897   7.233  0.0441  0.2576 -0.2275
    1DIPC   PO413178  27.130  28.378   7.182 -0.1846  0.1586 -0.0012
    1DIPC   GL113179  27.111  28.438   6.729  0.1083 -0.4224  0.0457
    1DIPC   GL213180  27.338  28.285   6.471  0.2449 -0.1998  0.0546
    1DIPC   C1A13181  26.866  28.776   6.470  0.0425 -0.1408  0.1841
    1DIPC   D2A13182  26.426  28.773   6.381  0.0654 -0.0488  0.1564
    1DIPC   D3A13183  26.633  28.611   6.060  0.0160 -0.2502 -0.1161
    1DIPC   C4A13184  26.575  28.350   5.692  0.0278  0.2514  0.1431
    1DIPC   C1B13185  27.476  28.154   6.094 -0.3769  0.2193  0.0025
    1DIPC   D2B13186  27.487  27.840   5.722 -0.0497 -0.0158  0.1500
    1DIPC   D3B13187  27.233  27.742   5.475  0.0196 -0.0561  0.3232
    1DIPC   C4B13188  26.971  27.469   5.501  0.0570  0.3241  0.0380
    1DIPC   NC313189  19.396  21.511   6.235  0.1095 -0.1102  0.2495
    1DIPC   PO413190  19.115  21.851   6.375  0.0053  0.1140  0.1350
    1DIPC   GL113191  19.327  21.940   5.974 -0.0548 -0.3657  0.0539
    1DIPC   GL213192  19.506  22.299   6.005 -0.1174  0.0363  0.0165
    1DIPC   C1A13193  19.579  21.885   5.635  0.3015  0.0054  0.1207
    1DIPC   D2A13194  19.603  21.558   5.228 -0.2644 -0.0335 -0.2773
    1DIPC   D3A13195  19.849  21.430   5.433  0.1756  0.0875 -0.1781
    1DIPC   C4A13196  20.187  21.508   5.242  0.1423 -0.0622 -0.1193
    1DIPC   C1B13197  19.135  22.294   5.765  0.0394  0.1506  0.3985
    1DIPC   D2B13198  18.799  22.527   5.573  0.0315  0.0701  0.0398
    1DIPC   D3B13199  19.015  22.820   5.223  0.0304  0.3406 -0.2581
    1DIPC   C4B13200  19.303  22.755   4.928 -0.0880 -0.0320  0.0612
    1DIPC   NC313201   9.070   6.683   7.084 -0.1620  0.2878  0.0309
    1DIPC   PO413202   9.210   6.359   6.759  0.2901  0.0383  0.2045
    1DIPC   GL113203   9.374   6.238   6.375  0.0655 -0.1292  0.1431
    1DIPC   GL213204   9.543   6.472   6.204 -0.0317  0.0706  0.3421
    1DIPC   C1A13205   9.538   6.079   5.918  0.0712  0.1341  0.0427
    1DIPC   D2A13206   9.509   5.983   5.584 -0.0578 -0.0504 -0.1050
    1DIPC   D3A13207   9.600   5.597   5.246  0.2083 -0.0296  0.2817
    1DIPC   C4A13208   9.745   5.203   5.518  0.1586  0.0691  0.1278
    1DIPC   C1B13209   9.795   6.499   5.859  0.3470 -0.3637 -0.1220
    1DIPC   D2B13210   9.966   6.187   5.586  0.2568 -0.5563 -0.0946
    1DIPC   D3B13211   9.844   6.508   5.259  0.2288  0.0126 -0.1986
    1DIPC   C4B13212  10.268   6.691   4.992 -0.2733 -0.1289 -0.0349
    1DIPC   NC313213  18.019   0.140   7.342 -0.0318 -0.2809 -0.0060
    1DIPC   PO413214  18.210   0.590   7.171  0.0394  0.0559  0.0031
    1DIPC   GL113215  18.239   0.686   6.697  0.1376 -0.0746 -0.2577
    1DIPC   GL213216  17.993   0.557   6.509  0.0212 -0.1275  0.1905
    1DIPC   C1A13217  18.544   0.796   6.375  0.0275 -0.0860  0.3178
    1DIPC   D2A13218  18.521   1.150   6.029 -0.0441 -0.2101  0.2916
    1DIPC   D3A13219  18.182   1.523   6.095  0.3897 -0.1742  0.2365
    1DIPC   C4A13220  18.419   1.904   6.001  0.1409 -0.1795 -0.2944
    1DIPC   C1B13221  18.113   0.807   6.154 -0.1650  0.2092 -0.0724
    1DIPC   D2B13222  18.085   1.114   5.798 -0.0473  0.0101  0.3033
    1DIPC   D3B13223  18.223   1.350   5.519  0.3024  0.0979  0.0568
    1DIPC   C4B13224  18.432   1.216   5.110  0.1936  0.2428 -0.2331
    1DIPC   NC313225  16.627   3.147   6.884 -0.2678  0.1809  0.1342
    1DIPC   PO413226  16.969   2.929   7.072 -0.4007 -0.3373 -0.0464
    1DIPC   GL113227  17.032   2.940   6.578  0.0211  0.0910  0.1281
    1DIPC   GL213228  17.343   2.722   6.372 -0.2280 -0.0392 -0.1088
    1DIPC   C1A13229  16.988   3.064   6.133 -0.0263 -0.1795 -0.0733
    1DIPC   D2A13230  16.667   3.309   5.901  0.2283  0.1099 -0.1138
    1DIPC   D3A13231  16.718   3.270   5.457 -0.1391 -0.2298 -0.1551
    1DIPC   C4A13232  16.483   3.205   5.144  0.0085  0.1148  0.0783
    1DIPC   C1B13233  17.222   2.679   5.901 -0.1125  0.1281  0.0513
    1DIPC   D2B13234  17.232   2.972   5.543  0.0866 -0.1574 -0.1514
    1DIPC   D3B13235  17.300   2.563   5.409  0.1906  0.2561  0.0766
    1DIPC   C4B13236  17.499   2.183   5.688 -0.1672 -0.1045 -0.0625
    1DIPC   NC313237  22.118  14.928   5.773  0.2008  0.0932  0.1033
    1DIPC   PO413238  22.102  14.673   5.536 -0.1316  0.2185 -0.0781
    1DIPC   GL113239  22.380  14.669   5.251 -0.0467 -0.2299  0.0907
    1DIPC   GL213240  22.325  14.367   5.156 -0.1133 -0.2538  0.2935
    1DIPC   C1A13241  22.619  14.694   4.894  0.0576 -0.3086 -0.0136
    1DIPC   D2A13242  23.110  14.597   4.818  0.1495 -0.0300  0.2100
    1DIPC   D3A13243  22.833  14.249   4.933 -0.1946 -0.0269 -0.0044
    1DIPC   C4A13244  22.392  14.181   4.690 -0.3468 -0.0458 -0.2671
    1DIPC   C1B13245  22.073  14.631   4.826 -0.1969 -0.0789 -0.0219
    1DIPC   D2B13246  21.829  14.713   4.476 -0.0070  0.0755  0.1094
    1DIPC   D3B13247  21.668  14.947   4.109 -0.0309  0.1969 -0.1870
    1DIPC   C4B13248  21.316  14.734   3.867  0.0338 -0.1292 -0.0944
    1DIPC   NC313249  17.704  22.545   6.414 -0.1167 -0.0784 -0.0428
    1DIPC   PO413250  17.548  22.224   6.226  0.0722 -0.1174  0.3624
    1DIPC   GL113251  17.257  22.375   5.953 -0.0646  0.1746 -0.3130
    1DIPC   GL213252  17.371  22.365   5.645 -0.1250 -0.1021  0.1501
    1DIPC   C1A13253  16.832  22.503   5.663 -0.1120  0.1786  0.0172
    1DIPC   D2A13254  16.613  22.313   5.303  0.2153 -0.0523 -0.0158
    1DIPC   D3A13255  16.825  22.316   4.954 -0.0318  0.2726  0.0993
    1DIPC   C4A13256  17.216  22.317   5.189 -0.3755 -0.1160  0.0966
    1DIPC   C1B13257  17.025  22.065   5.541  0.1619  0.0135 -0.1015
    1DIPC   D2B13258  16.774  21.847   5.129  0.5229 -0.0691  0.2217
    1DIPC   D3B13259  17.035  21.802   4.782  0.2256 -0.0595 -0.1799
    1DIPC   C4B13260  17.505  21.870   4.626 -0.0656 -0.1975 -0.1425
    1DIPC   NC313261  16.286  14.602   6.340  0.1837  0.0575 -0.1757
    1DIPC   PO413262  16.316  15.078   6.366 -0.0844  0.1053 -0.3866
    1DIPC   GL113263  16.482  14.949   5.863 -0.0919 -0.4284  0.1741
    1DIPC   GL213264  16.190  14.803   5.861 -0.2197  0.1327  0.0982
    1DIPC   C1A13265  16.353  15.148   5.389  0.1049  0.4082  0.1491
    1DIPC   D2A13266  16.515  15.423   5.185  0.1977 -0.2692  0.0092
    1DIPC   D3A13267  16.873  15.247   5.369 -0.2365 -0.2209  0.0443
    1DIPC   C4A13268  17.074  15.008   4.988  0.0936  0.2028  0.1881
    1DIPC   C1B13269  15.853  14.641   5.647 -0.2447  0.0151 -0.0813
    1DIPC   D2B13270  15.947  14.235   5.519 -0.1365 -0.2068  0.1289
    1DIPC   D3B13271  15.865  14.282   5.060 -0.2977 -0.2793  0.1137
    1DIPC   C4B13272  16.050  14.126   4.742 -0.0145  0.1816 -0.3205
    1DIPC   NC313273  13.167  19.706   6.716 -0.2411  0.2940 -0.1304
    1DIPC   PO413274  12.731  19.861   6.892 -0.0511  0.1458  0.0969
    1DIPC   GL113275  12.879  20.008   6.502  0.1636 -0.3998 -0.0661
    1DIPC   GL213276  12.721  20.183   6.349 -0.2450 -0.2023 -0.0775
    1DIPC   C1A13277  13.089  19.931   6.117  0.1958  0.0468 -0.1684
    1DIPC   D2A13278  12.918  19.993   5.627 -0.2148  0.0566 -0.1374
    1DIPC   D3A13279  12.900  19.776   5.334 -0.2217 -0.0858  0.2043
    1DIPC   C4A13280  12.510  19.704   5.217 -0.1650 -0.0443  0.3422
    1DIPC   C1B13281  12.514  20.163   5.981 -0.0774 -0.2034  0.0757
    1DIPC   D2B13282  12.332  19.849   5.660 -0.0371 -0.1836  0.0288
    1DIPC   D3B13283  12.192  20.046   5.281 -0.1185 -0.1956 -0.0515
    1DIPC   C4B13284  12.550  20.088   4.932  0.3345 -0.0244  0.1982
    1DIPC   NC313285  21.504   1.416   7.021  0.4575  0.0175  0.1453
    1DIPC   PO413286  21.122   1.387   7.007  0.2559  0.0917 -0.0956
    1DIPC   GL113287  21.077   1.426   6.590 -0.1507  0.0247  0.5363
    1DIPC   GL213288  21.439   1.319   6.465 -0.0272  0.0951  0.1343
    1DIPC   C1A13289  21.078   1.354   6.106 -0.2187 -0.2706 -0.1240
    1DIPC   D2A13290  21.329   1.430   5.679 -0.1515  0.1184 -0.0436
    1DIPC   D3A13291  21.074   1.746   5.450 -0.1359  0.1384  0.0508
    1DIPC   C4A13292  20.668   1.646   5.378 -0.0406 -0.1401 -0.3106
    1DIPC   C1B13293  21.821   1.512   6.433  0.1172  0.1653  0.2391
    1DIPC   D2B13294  22.257   1.355   6.442 -0.0186  0.0168  0.1339
    1DIPC   D3B13295  22.167   1.856   6.481  0.0786  0.0989 -0.1170
    1DIPC   C4B13296  21.744   2.077   6.360 -0.4650 -0.0875  0.0225
    1DIPC   NC313297   6.566   8.282   6.857  0.3122  0.2787  0.0026
    1DIPC   PO413298   6.396   8.696   6.997  0.3760  0.0026 -0.3669
    1DIPC   GL113299   6.250   8.569   6.550 -0.1650  0.0586  0.2703
    1DIPC   GL213300   6.104   8.817   6.388  0.2015 -0.2542 -0.0849
    1DIPC   C1A13301   5.937   8.332   6.222 -0.0676 -0.0647  0.1027
    1DIPC   D2A13302   5.767   8.346   5.797 -0.0530 -0.1455  0.1880
    1DIPC   D3A13303   5.882   8.266   5.290 -0.2510 -0.3399 -0.3087
    1DIPC   C4A13304   6.241   8.650   5.151  0.1028  0.2888 -0.0284
    1DIPC   C1B13305   6.289   8.681   6.029 -0.2417 -0.2696  0.1855
    1DIPC   D2B13306   6.736   8.641   5.856 -0.0583  0.4358  0.2157
    1DIPC   D3B13307   7.109   8.448   5.645 -0.1719  0.1681 -0.0506
    1DIPC   C4B13308   7.322   8.630   5.277  0.4734 -0.0921  0.1556
    1DIPC   NC313309  16.121  26.160   6.422 -0.0418 -0.1337  0.0756
    1DIPC   PO413310  15.764  26.105   6.681  0.0951  0.1100  0.1999
    1DIPC   GL113311  15.630  26.182   6.307 -0.0863 -0.1131  0.1265
    1DIPC   GL213312  15.820  26.378   6.095  0.2318  0.0576  0.2177
    1DIPC   C1A13313  15.358  26.025   6.010  0.0436 -0.1515 -0.1616
    1DIPC   D2A13314  15.278  25.699   5.690 -0.0275 -0.2499 -0.0621
    1DIPC   D3A13315  15.668  25.390   5.531  0.1812 -0.2800 -0.1369
    1DIPC   C4A13316  16.002  25.617   5.558 -0.0576 -0.1739 -0.0443
    1DIPC   C1B13317  15.918  26.064   5.774 -0.1506 -0.0160 -0.2264
    1DIPC   D2B13318  16.203  26.054   5.451 -0.2362 -0.0806 -0.1152
    1DIPC   D3B13319  16.134  25.740   5.125  0.1255  0.1096  0.1210
    1DIPC   C4B13320  15.877  25.389   5.048 -0.0042  0.2634  0.0915
    1DIPC   NC313321   1.956  27.829   7.165 -0.2035  0.0236 -0.0370
    1DIPC   PO413322   2.048  27.509   6.851 -0.0161  0.1366 -0.2935
    1DIPC   GL113323   2.343  27.221   6.526  0.1528 -0.1388 -0.0300
    1DIPC   GL213324   2.047  27.048   6.252 -0.2976  0.1314 -0.3554
    1DIPC   C1A13325   2.513  27.172   6.091 -0.0181  0.1124 -0.1397
    1DIPC   D2A13326   2.369  26.981   5.681  0.0009 -0.0989 -0.1346
    1DIPC   D3A13327   2.325  26.844   5.323 -0.2182  0.1829  0.0339
    1DIPC   C4A13328   2.187  26.375   5.268  0.1059  0.3293  0.1211
    1DIPC   C1B13329   1.887  26.803   5.899 -0.0923  0.1250 -0.0293
    1DIPC   D2B13330   1.804  26.728   5.477 -0.2962  0.1070  0.0324
    1DIPC   D3B13331   1.682  26.422   5.166 -0.0953  0.0428  0.3560
    1DIPC   C4B13332   1.829  25.989   5.043  0.1192 -0.2839 -0.1358
    1DIPC   NC313333   4.911   4.603   7.199 -0.0362  0.0259  0.1075
    1DIPC   PO413334   5.137   5.008   6.940  0.3205  0.0017 -0.1290
    1DIPC   GL113335   4.967   5.151   6.475  0.3448  0.1731 -0.1735
    1DIPC   GL213336   5.034   4.989   6.208 -0.0606  0.0982 -0.0431
    1DIPC   C1A13337   5.238   5.385   6.229  0.0736 -0.0233  0.0770
    1DIPC   D2A13338   5.506   5.386   5.954 -0.2982 -0.2231  0.0771
    1DIPC   D3A13339   5.578   5.620   5.558 -0.1004  0.0348 -0.0401
    1DIPC   C4A13340   5.880   5.668   5.429  0.1863  0.0651 -0.0046
    1DIPC   C1B13341   5.190   5.017   5.806  0.1059  0.2781 -0.2943
    1DIPC   D2B13342   5.251   5.195   5.419  0.0036  0.1738  0.0002
    1DIPC   D3B13343   5.537   5.072   4.996  0.1619  0.3379  0.2214
    1DIPC   C4B13344   5.338   4.938   4.645  0.2176  0.0578  0.1124
    1DIPC   NC313345  17.025  21.118   6.301  0.1511  0.2860 -0.2935
    1DIPC   PO413346  16.729  21.536   6.408 -0.2139 -0.1455 -0.3873
    1DIPC   GL113347  16.631  21.311   6.056  0.0880  0.3430  0.0640
    1DIPC   GL213348  16.507  21.427   5.776 -0.0307 -0.3127 -0.3254
    1DIPC   C1A13349  16.936  21.414   5.593 -0.2006 -0.5238 -0.2039
    1DIPC   D2A13350  17.038  21.375   5.094  0.0141  0.2623  0.1313
    1DIPC   D3A13351  17.349  21.132   5.390  0.1889  0.1141  0.0599
    1DIPC   C4A13352  17.759  21.341   5.432 -0.0129  0.2880  0.0460
    1DIPC   C1B13353  16.515  21.583   5.442  0.1946  0.1978  0.0687
    1DIPC   D2B13354  16.236  21.713   5.047 -0.0239  0.0268 -0.1928
    1DIPC   D3B13355  16.050  21.481   4.759 -0.2440 -0.1206  0.2444
    1DIPC   C4B13356  15.911  21.277   4.451  0.2918 -0.0545 -0.1765
    1DIPC   NC313357  13.516   3.906   6.979  0.0248  0.0157 -0.2586
    1DIPC   PO413358  13.134   3.966   6.913  0.2457  0.1396  0.1246
    1DIPC   GL113359  13.222   3.828   6.441  0.1983 -0.2265  0.2060
    1DIPC   GL213360  12.838   3.892   6.291 -0.0907  0.0268  0.2135
    1DIPC   C1A13361  13.290   3.770   5.998 -0.1745  0.4293 -0.0908
    1DIPC   D2A13362  13.161   3.649   5.554  0.1015 -0.3788  0.3485
    1DIPC   D3A13363  13.448   3.379   5.451 -0.1868  0.0165 -0.0924
    1DIPC   C4A13364  13.887   3.296   5.406  0.1213  0.2174  0.2395
    1DIPC   C1B13365  12.605   4.241   6.295 -0.2776 -0.1554 -0.0149
    1DIPC   D2B13366  12.570   4.612   6.104  0.1826  0.1003 -0.3507
    1DIPC   D3B13367  12.232   4.424   5.909  0.0281  0.1760  0.0453
    1DIPC   C4B13368  12.118   4.086   5.788 -0.1007  0.0756 -0.1988
    1DIPC   NC313369  15.634  12.722   6.589  0.5871  0.0862  0.0973
    1DIPC   PO413370  15.217  12.817   6.467 -0.1821  0.0997  0.3362
    1DIPC   GL113371  15.122  12.935   6.055  0.0022  0.1073 -0.2045
    1DIPC   GL213372  15.245  13.080   5.832 -0.0452  0.0252 -0.0208
    1DIPC   C1A13373  14.826  12.805   5.634  0.2320  0.0226  0.0705
    1DIPC   D2A13374  14.893  12.720   5.174 -0.2239 -0.1277  0.0068
    1DIPC   D3A13375  14.570  12.689   4.914  0.2456 -0.2555  0.0265
    1DIPC   C4A13376  14.277  13.025   4.826 -0.1350 -0.1350  0.2043
    1DIPC   C1B13377  15.389  12.798   5.516  0.1216 -0.0510 -0.1954
    1DIPC   D2B13378  15.353  12.850   5.075  0.1335  0.1739 -0.0465
    1DIPC   D3B13379  15.768  12.848   4.910  0.1316  0.0345  0.1437
    1DIPC   C4B13380  16.171  12.720   5.033  0.0122  0.1022  0.3483
    1DIPC   NC313381  19.786   7.623   7.019  0.1435 -0.0190  0.0594
    1DIPC   PO413382  19.854   7.940   6.784  0.1669  0.1549 -0.1046
    1DIPC   GL113383  19.757   7.769   6.407 -0.1173  0.0750 -0.1029
    1DIPC   GL213384  19.458   7.851   6.312  0.2517  0.0346 -0.0110
    1DIPC   C1A13385  19.945   7.437   6.120 -0.2304  0.1929 -0.0774
    1DIPC   D2A13386  20.179   7.146   5.982 -0.0894 -0.0920 -0.0763
    1DIPC   D3A13387  20.068   6.920   6.318  0.1437  0.1148  0.0078
    1DIPC   C4A13388  19.945   6.524   6.580 -0.0083 -0.1560 -0.1428
    1DIPC   C1B13389  19.544   7.955   5.863 -0.0698  0.0423  0.3386
    1DIPC   D2B13390  19.593   7.936   5.488 -0.2643  0.2660 -0.0034
    1DIPC   D3B13391  19.184   7.992   5.452 -0.2064 -0.1581 -0.3451
    1DIPC   C4B13392  18.954   8.028   5.163  0.3316 -0.0198  0.0803
    1DIPC   NC313393  14.297   0.842   6.809  0.2118 -0.3286 -0.1064
    1DIPC   PO413394  14.512   0.488   6.755 -0.0629 -0.0450 -0.2487
    1DIPC   GL113395  14.900   0.384   6.530  0.1196  0.0547  0.1472
    1DIPC   GL213396  15.193   0.588   6.545 -0.2559 -0.0462  0.4944
    1DIPC   C1A13397  14.726   0.310   6.137  0.1494  0.1236 -0.0883
    1DIPC   D2A13398  14.360   0.153   6.005  0.0832  0.1823  0.1414
    1DIPC   D3A13399  14.203  -0.135   6.390  0.2707 -0.3133  0.2188
    1DIPC   C4A13400  13.806  -0.183   6.300  0.1377 -0.1399 -0.0918
    1DIPC   C1B13401  15.153   0.671   6.025 -0.0420  0.0307 -0.0400
    1DIPC   D2B13402  15.320   0.877   5.650 -0.1393 -0.2384  0.2043
    1DIPC   D3B13403  15.574   1.121   5.986 -0.0862 -0.2406 -0.0580
    1DIPC   C4B13404  15.711   1.526   5.828  0.1214 -0.1143 -0.3253
    1DIPC   NC313405  20.785  24.679   6.596 -0.4251 -0.0852  0.2156
    1DIPC   PO413406  21.215  24.571   6.572  0.0207  0.0087 -0.2482
    1DIPC   GL113407  21.083  24.400   6.124 -0.1646 -0.1905  0.0379
    1DIPC   GL213408  20.762  24.447   6.110  0.1755  0.0898 -0.2660
    1DIPC   C1A13409  20.973  24.559   5.680  0.1607 -0.0324  0.0818
    1DIPC   D2A13410  20.729  24.906   5.650  0.1201  0.0269 -0.2442
    1DIPC   D3A13411  20.282  25.017   5.600 -0.0462  0.0036  0.0145
    1DIPC   C4A13412  20.038  24.911   5.225  0.0624  0.0732  0.1563
    1DIPC   C1B13413  20.475  24.512   5.836 -0.2625 -0.0062 -0.0397
    1DIPC   D2B13414  20.125  24.430   5.530  0.2641 -0.1527 -0.0462
    1DIPC   D3B13415  20.536  24.550   5.344  0.3403 -0.2439  0.1084
    1DIPC   C4B13416  20.532  24.588   4.908  0.0957  0.1155 -0.2081
    1DIPC   NC313417   0.023  24.585   6.734  0.3092 -0.0994  0.0119
    1DIPC   PO413418  -0.012  24.162   6.464 -0.0727 -0.0649  0.1282
    1DIPC   GL113419   0.106  24.137   6.017 -0.1047  0.2906  0.1215
    1DIPC   GL213420  -0.103  24.298   5.677 -0.0533  0.4046 -0.0081
    1DIPC   C1A13421   0.431  24.010   5.699  0.1459 -0.0377  0.1930
    1DIPC   D2A13422   0.397  23.825   5.422  0.1242 -0.4042  0.0195
    1DIPC   D3A13423   0.509  24.149   5.009  0.3350  0.1081 -0.1214
    1DIPC   C4A13424   0.666  24.389   4.658 -0.2610 -0.0302 -0.1156
    1DIPC   C1B13425  -0.125  23.901   5.420  0.3315 -0.0736 -0.0492
    1DIPC   D2B13426   0.110  23.802   5.009  0.0546 -0.3643  0.4279
    1DIPC   D3B13427  -0.068  23.538   4.693 -0.0338  0.0452  0.1633
    1DIPC   C4B13428   0.097  23.624   4.191  0.0905 -0.0862  0.2904
    1DIPC   NC313429  27.794   3.407   7.228  0.0677  0.0143  0.2299
    1DIPC   PO413430  27.681   3.174   6.876 -0.0313  0.2622 -0.0927
    1DIPC   GL113431  27.402   3.406   6.647 -0.0781  0.2471  0.2592
    1DIPC   GL213432  27.691   3.597   6.412 -0.3102  0.1656 -0.0401
    1DIPC   C1A13433  27.167   3.603   6.252 -0.2135 -0.1887 -0.2948
    1DIPC   D2A13434  27.109   3.976   5.929 -0.1278  0.0855 -0.0674
    1DIPC   D3A13435  27.364   3.964   5.552  0.1083  0.2985  0.3575
    1DIPC   C4A13436  26.996   3.830   5.280  0.1742 -0.0242 -0.1615
    1DIPC   C1B13437  27.588   3.301   6.114 -0.2984  0.1507 -0.2943
    1DIPC   D2B13438  27.680   2.951   6.002 -0.2794 -0.1225 -0.0583
    1DIPC   D3B13439  27.598   2.588   6.120  0.1615 -0.1789  0.0413
    1DIPC   C4B13440  27.483   2.204   5.969  0.1584 -0.0590  0.0936
    1DIPC   NC313441  13.204  26.255   6.767 -0.1431  0.1755 -0.0766
    1DIPC   PO413442  13.037  26.766   6.747  0.0878  0.1906 -0.0815
    1DIPC   GL113443  13.095  26.671   6.303 -0.1802  0.2279 -0.1670
    1DIPC   GL213444  12.949  26.403   6.254 -0.0934 -0.0428 -0.0971
    1DIPC   C1A13445  13.342  26.887   6.055  0.3134  0.1133 -0.1926
    1DIPC   D2A13446  13.527  27.242   5.839 -0.0089  0.3301 -0.1686
    1DIPC   D3A13447  13.128  27.349   5.973  0.1435 -0.0647  0.0925
    1DIPC   C4A13448  12.989  27.770   5.806  0.0158 -0.0454  0.1409
    1DIPC   C1B13449  13.021  26.569   5.764 -0.1402  0.0760 -0.1993
    1DIPC   D2B13450  12.980  26.523   5.341 -0.0445 -0.0108 -0.4544
    1DIPC   D3B13451  13.414  26.448   5.132 -0.2844  0.3632 -0.0322
    1DIPC   C4B13452  13.497  26.206   4.694 -0.0698  0.3888 -0.0380
    1DIPC   NC313453   3.298   2.380   6.554  0.1109  0.1062  0.0226
    1DIPC   PO413454   2.882   2.531   6.647  0.2129  0.1930  0.0550
    1DIPC   GL113455   2.948   2.577   6.242 -0.1282 -0.0357 -0.0987
    1DIPC   GL213456   2.801   2.943   6.214 -0.0258  0.1144 -0.0431
    1DIPC   C1A13457   3.109   2.770   5.867 -0.3321 -0.2851  0.0832
    1DIPC   D2A13458   3.015   2.591   5.523  0.0217 -0.3638  0.0281
    1DIPC   D3A13459   2.719   2.316   5.377  0.0971 -0.0115 -0.1303
    1DIPC   C4A13460   2.736   2.240   4.912  0.0323 -0.2436 -0.0520
    1DIPC   C1B13461   2.616   2.782   5.787 -0.1703 -0.0181  0.0146
    1DIPC   D2B13462   2.603   2.906   5.306 -0.1201  0.1993 -0.3705
    1DIPC   D3B13463   2.209   3.011   5.191  0.0526 -0.2340  0.1821
    1DIPC   C4B13464   1.790   2.658   5.218  0.1927 -0.1351  0.0893
    1DIPC   NC313465   9.198   8.308   6.772  0.0345 -0.3004 -0.0368
    1DIPC   PO413466   9.395   8.564   6.477 -0.1186  0.1179  0.0427
    1DIPC   GL113467   8.994   8.528   6.228 -0.4784  0.0406  0.1332
    1DIPC   GL213468   8.683   8.458   6.333  0.1356  0.0688  0.0597
    1DIPC   C1A13469   8.773   8.512   5.759  0.0568 -0.2318 -0.2822
    1DIPC   D2A13470   8.720   8.625   5.344 -0.1464  0.1095 -0.3095
    1DIPC   D3A13471   8.456   8.327   5.285 -0.1216  0.0119  0.0856
    1DIPC   C4A13472   8.239   8.306   4.892 -0.2515  0.3581 -0.0140
    1DIPC   C1B13473   8.413   8.244   6.124 -0.3038 -0.0515 -0.0478
    1DIPC   D2B13474   8.508   7.968   5.768 -0.0709 -0.0872 -0.3242
    1DIPC   D3B13475   8.173   7.569   5.968  0.1874 -0.2665 -0.1043
    1DIPC   C4B13476   8.449   7.267   6.080  0.0443  0.1404  0.1064
    1DIPC   NC313477   0.445  23.901   6.604 -0.0060  0.2134  0.0268
    1DIPC   PO413478   0.370  23.392   6.547 -0.0525  0.1188  0.0682
    1DIPC   GL113479   0.297  23.638   6.154 -0.3254 -0.1976 -0.4172
    1DIPC   GL213480   0.570  23.436   5.922  0.0505 -0.0602 -0.0966
    1DIPC   C1A13481   0.144  23.593   5.757  0.1475 -0.1787  0.1637
    1DIPC   D2A13482   0.072  23.351   5.353 -0.0722 -0.2615 -0.0538
    1DIPC   D3A13483   0.370  23.310   4.909 -0.1625  0.1561 -0.2252
    1DIPC   C4A13484   0.627  22.979   4.786  0.0111 -0.2276  0.4722
    1DIPC   C1B13485   0.642  23.415   5.507 -0.3459  0.0827  0.1445
    1DIPC   D2B13486   0.908  23.271   5.160  0.0149 -0.0757  0.0095
    1DIPC   D3B13487   1.206  23.557   5.160  0.0272  0.0105 -0.1012
    1DIPC   C4B13488   1.570  23.429   4.987 -0.0842 -0.2510 -0.1138
    1DIPC   NC313489  20.427   7.085   6.650  0.0370 -0.0491  0.0576
    1DIPC   PO413490  20.765   7.239   6.803  0.0549  0.0266  0.0054
    1DIPC   GL113491  20.923   7.260   6.505 -0.0193 -0.1977 -0.1471
    1DIPC   GL213492  21.002   7.596   6.445 -0.2192 -0.0387  0.1189
    1DIPC   C1A13493  21.104   7.215   6.008  0.1165 -0.1417 -0.3747
    1DIPC   D2A13494  21.477   7.368   5.821 -0.1658 -0.2580  0.0429
    1DIPC   D3A13495  21.657   7.442   5.501  0.0114 -0.0291 -0.1490
    1DIPC   C4A13496  22.084   7.424   5.415  0.0382  0.0053 -0.2101
    1DIPC   C1B13497  21.176   7.695   6.153 -0.0176 -0.1017 -0.0857
    1DIPC   D2B13498  21.011   7.626   5.720 -0.0971  0.0666 -0.0997
    1DIPC   D3B13499  21.175   7.250   5.472  0.0288 -0.4824 -0.2231
    1DIPC   C4B13500  21.087   7.194   5.071  0.0582 -0.3110  0.2520
    1DIPC   NC313501  22.398  20.081   6.027  0.0494  0.1588  0.0996
    1DIPC   PO413502  22.854  19.912   6.053 -0.2487  0.1566  0.1877
    1DIPC   GL113503  22.772  20.021   5.617 -0.2853 -0.3201  0.0974
    1DIPC   GL213504  22.493  19.918   5.553 -0.3753  0.0847  0.0406
    1DIPC   C1A13505  22.915  19.927   5.173  0.3704 -0.0449  0.0788
    1DIPC   D2A13506  22.920  19.965   4.713  0.0530 -0.0492 -0.0735
    1DIPC   D3A13507  22.993  20.179   4.345  0.2576 -0.2163  0.0966
    1DIPC   C4A13508  22.834  20.553   4.199 -0.0171  0.0579 -0.0591
    1DIPC   C1B13509  22.524  19.615   5.324 -0.1293  0.1161 -0.2369
    1DIPC   D2B13510  22.523  19.214   5.313  0.2280 -0.2815  0.0625
    1DIPC   D3B13511  22.378  19.393   4.911 -0.0728 -0.2433  0.1590
    1DIPC   C4B13512  22.516  19.734   4.840  0.2181  0.3071  0.1078
    1DIPC   NC313513  15.528  11.907   6.511  0.2444  0.0857 -0.1364
    1DIPC   PO413514  15.336  11.639   6.357 -0.0404  0.0464  0.0507
    1DIPC   GL113515  15.205  11.880   6.021  0.2374  0.1452 -0.1130
    1DIPC   GL213516  15.192  12.256   5.983 -0.2463  0.1360 -0.0864
    1DIPC   C1A13517  15.080  11.868   5.626 -0.2662 -0.0944  0.0677
    1DIPC   D2A13518  15.097  11.791   5.173  0.0371  0.2733  0.1685
    1DIPC   D3A13519  15.354  11.916   4.862 -0.0795  0.0842 -0.0663
    1DIPC   C4A13520  15.715  11.789   4.684  0.2797  0.1702  0.0502
    1DIPC   C1B13521  15.510  12.266   5.631  0.0003  0.1633 -0.1402
    1DIPC   D2B13522  15.579  11.959   5.304  0.0771  0.2285  0.1190
    1DIPC   D3B13523  15.203  12.272   5.227 -0.1542 -0.1597  0.0197
    1DIPC   C4B13524  14.936  12.342   5.552 -0.2252  0.2385  0.0714
    1DIPC   NC313525  18.948  10.194   6.505  0.3080  0.1733 -0.0062
    1DIPC   PO413526  19.355  10.266   6.458 -0.0467 -0.0459 -0.1203
    1DIPC   GL113527  19.416  10.403   5.952  0.1316  0.0584 -0.3185
    1DIPC   GL213528  19.689  10.254   5.915  0.1881  0.0657  0.0474
    1DIPC   C1A13529  19.369  10.361   5.500 -0.1732  0.0039  0.0336
    1DIPC   D2A13530  19.312  10.618   5.098 -0.1758  0.1426  0.1265
    1DIPC   D3A13531  18.971  10.633   4.801 -0.1058  0.1121  0.2262
    1DIPC   C4A13532  18.570  11.052   4.863 -0.0988 -0.0537  0.0027
    1DIPC   C1B13533  19.498   9.842   5.788  0.1417  0.0113 -0.2517
    1DIPC   D2B13534  19.544   9.452   5.682 -0.0703 -0.0989  0.2418
    1DIPC   D3B13535  19.472   9.496   5.285  0.0204 -0.1433  0.2034
    1DIPC   C4B13536  19.402   9.266   4.849 -0.0985 -0.1123 -0.2055
    1DIPC   NC313537  24.688   4.837   6.875  0.0547 -0.1039  0.2815
    1DIPC   PO413538  25.186   4.785   6.636  0.0449  0.2769  0.1461
    1DIPC   GL113539  25.325   4.937   6.237  0.1040 -0.2585 -0.1282
    1DIPC   GL213540  24.967   5.115   6.053  0.3262 -0.0706 -0.1582
    1DIPC   C1A13541  25.432   4.819   5.814 -0.1954 -0.0358 -0.5138
    1DIPC   D2A13542  25.723   4.966   5.604  0.0074  0.2437 -0.2286
    1DIPC   D3A13543  25.535   4.810   5.187  0.1585  0.0649  0.1823
    1DIPC   C4A13544  25.762   4.684   4.864 -0.2074  0.0567 -0.1892
    1DIPC   C1B13545  24.577   5.080   5.997  0.0709 -0.4187  0.0672
    1DIPC   D2B13546  24.124   5.205   5.846 -0.1109  0.0478  0.1793
    1DIPC   D3B13547  23.758   5.160   5.514  0.0940 -0.2258  0.0287
    1DIPC   C4B13548  23.815   4.961   5.155 -0.2457  0.2571  0.1570
    1DIPC   NC313549  11.292   3.426   7.351 -0.1824  0.1006 -0.2217
    1DIPC   PO413550  11.234   3.953   7.113 -0.1138  0.0025 -0.0770
    1DIPC   GL113551  11.304   3.663   6.778 -0.2311  0.0757 -0.2212
    1DIPC   GL213552  11.462   3.910   6.511 -0.1308  0.2409  0.0832
    1DIPC   C1A13553  11.309   3.432   6.468 -0.1552 -0.1390 -0.0070
    1DIPC   D2A13554  11.507   3.599   6.022  0.0026 -0.2194  0.0711
    1DIPC   D3A13555  11.593   3.887   5.812  0.0978  0.0910 -0.1775
    1DIPC   C4A13556  11.277   4.160   5.890  0.0482  0.0521 -0.1234
    1DIPC   C1B13557  11.180   4.148   6.380  0.0855 -0.1778 -0.1331
    1DIPC   D2B13558  11.091   4.485   6.420  0.1963  0.0911  0.0360
    1DIPC   D3B13559  10.741   4.311   6.147  0.0229 -0.4078 -0.0091
    1DIPC   C4B13560  10.722   4.172   5.710  0.2470  0.1755 -0.0928
    1DIPC   NC313561   4.195   9.161   6.177  0.2074  0.0035  0.0772
    1DIPC   PO413562   4.401   8.827   6.313  0.1827  0.0063  0.0744
    1DIPC   GL113563   4.318   8.593   5.939  0.2416 -0.0229 -0.0930
    1DIPC   GL213564   4.028   8.329   5.917 -0.1516  0.0966  0.2215
    1DIPC   C1A13565   4.311   8.362   5.492 -0.0036 -0.1082  0.0634
    1DIPC   D2A13566   4.493   8.075   5.226 -0.1738 -0.0642 -0.4164
    1DIPC   D3A13567   4.518   7.801   4.905  0.2297  0.3298  0.0195
    1DIPC   C4A13568   4.499   7.398   4.989  0.0218 -0.0790  0.1315
    1DIPC   C1B13569   4.285   7.961   5.861  0.1513  0.1092 -0.5436
    1DIPC   D2B13570   4.514   7.716   6.196 -0.1024  0.2846 -0.0293
    1DIPC   D3B13571   4.963   7.699   6.005  0.0378 -0.2450  0.0893
    1DIPC   C4B13572   4.886   7.307   5.926 -0.0247 -0.1385  0.0261
    1DIPC   NC313573  22.141  16.008   6.002 -0.0149 -0.0651  0.2290
    1DIPC   PO413574  22.273  15.958   5.532  0.2918 -0.4680 -0.1368
    1DIPC   GL113575  22.254  15.785   5.155  0.0630  0.0013  0.2491
    1DIPC   GL213576  22.123  15.522   5.214  0.2131  0.2593  0.0017
    1DIPC   C1A13577  22.149  16.119   4.820 -0.1014 -0.3495  0.1569
    1DIPC   D2A13578  22.215  16.307   4.366 -0.0138  0.0818  0.1483
    1DIPC   D3A13579  21.850  16.336   4.054  0.1912  0.1325 -0.3188
    1DIPC   C4A13580  22.026  16.404   3.672  0.2279  0.0259 -0.2640
    1DIPC   C1B13581  21.734  15.430   5.046 -0.1862 -0.2347 -0.1016
    1DIPC   D2B13582  21.336  15.386   4.962 -0.0617  0.0326  0.0174
    1DIPC   D3B13583  21.283  15.787   4.700  0.0564 -0.2444 -0.1250
    1DIPC   C4B13584  21.290  16.234   4.716 -0.2875 -0.1319  0.0199
    1DIPC   NC313585  22.371  22.999   6.296 -0.0914  0.3117  0.0727
    1DIPC   PO413586  22.082  22.862   6.011  0.1223 -0.2578  0.0038
    1DIPC   GL113587  21.985  22.949   5.596 -0.0683 -0.0774 -0.0131
    1DIPC   GL213588  22.220  23.215   5.458  0.2885 -0.3402 -0.0102
    1DIPC   C1A13589  21.788  23.090   5.250  0.0506 -0.1413 -0.0561
    1DIPC   D2A13590  21.506  23.237   4.930 -0.1133  0.0569 -0.0703
    1DIPC   D3A13591  21.843  22.991   4.737  0.1860 -0.2839 -0.2092
    1DIPC   C4A13592  21.883  23.058   4.358 -0.0519  0.0102 -0.0797
    1DIPC   C1B13593  22.255  23.050   5.020 -0.0940  0.1442 -0.0436
    1DIPC   D2B13594  22.242  22.636   4.981 -0.1141  0.0038  0.2619
    1DIPC   D3B13595  22.292  22.812   4.558  0.2404  0.0920 -0.2342
    1DIPC   C4B13596  22.372  23.266   4.563  0.0230  0.0429  0.0674
    1DIPC   NC313597  19.853   5.002   7.561 -0.2469 -0.0639  0.1122
    1DIPC   PO413598  19.899   5.260   7.138  0.3383 -0.1680  0.0167
    1DIPC   GL113599  19.758   5.222   6.708  0.1528 -0.0888  0.1512
    1DIPC   GL213600  19.978   4.980   6.542  0.1099  0.0495  0.1365
    1DIPC   C1A13601  19.635   5.246   6.281 -0.2540  0.0334 -0.1129
    1DIPC   D2A13602  19.579   5.160   5.843 -0.2391 -0.0638 -0.2684
    1DIPC   D3A13603  19.863   5.531   5.815  0.1956  0.0668  0.1424
    1DIPC   C4A13604  19.739   5.762   5.493 -0.1023  0.0850 -0.0756
    1DIPC   C1B13605  20.085   5.103   6.123 -0.2005  0.2716 -0.2129
    1DIPC   D2B13606  20.215   5.217   5.806 -0.0303  0.1143 -0.1614
    1DIPC   D3B13607  20.239   4.882   5.425  0.1926 -0.2455 -0.0243
    1DIPC   C4B13608  19.977   4.901   4.986  0.0204 -0.0325  0.2312
    1DIPC   NC313609  21.368  28.358   7.858  0.0214 -0.0410  0.2496
    1DIPC   PO413610  21.363  28.038   7.503  0.0057 -0.0744 -0.1312
    1DIPC   GL113611  21.244  27.871   7.115 -0.0816 -0.2516  0.1096
    1DIPC   GL213612  21.208  28.081   6.795 -0.3348  0.0582  0.1148
    1DIPC   C1A13613  21.220  27.628   6.730 -0.4424 -0.0838  0.1415
    1DIPC   D2A13614  21.392  27.359   6.320 -0.4464  0.0570 -0.3584
    1DIPC   D3A13615  21.448  27.580   5.924 -0.0511  0.3258 -0.3032
    1DIPC   C4A13616  21.257  27.464   5.553  0.3204 -0.1522 -0.1991
    1DIPC   C1B13617  21.538  28.039   6.545 -0.0687  0.1617  0.0740
    1DIPC   D2B13618  21.660  28.051   6.109 -0.0962 -0.1747  0.0970
    1DIPC   D3B13619  21.573  28.084   5.707 -0.0087 -0.1069 -0.0528
    1DIPC   C4B13620  21.728  27.730   5.445  0.1906 -0.0436  0.4197
    1DIPC   NC313621  27.131  10.047   6.068 -0.0052  0.1506 -0.1031
    1DIPC   PO413622  26.792   9.796   5.926 -0.0728  0.2624  0.1330
    1DIPC   GL113623  26.665   9.455   5.633 -0.1084 -0.3173 -0.2514
    1DIPC   GL213624  27.012   9.456   5.481 -0.2160 -0.4986  0.0157
    1DIPC   C1A13625  26.445   9.195   5.494  0.0118 -0.1038 -0.1722
    1DIPC   D2A13626  26.520   8.727   5.568 -0.0645 -0.3810  0.0605
    1DIPC   D3A13627  26.583   8.417   5.341  0.0550 -0.1153 -0.0526
    1DIPC   C4A13628  26.430   8.581   4.999 -0.3536 -0.1161 -0.3884
    1DIPC   C1B13629  26.759   9.498   5.068  0.0039  0.3017  0.2496
    1DIPC   D2B13630  26.812   9.299   4.659  0.2134 -0.1351 -0.1504
    1DIPC   D3B13631  26.701   8.880   4.632 -0.0066  0.0652 -0.3101
    1DIPC   C4B13632  26.459   8.786   4.232  0.1401 -0.2139  0.0020
    1DIPC   NC313633  24.513  10.073   6.371  0.0376  0.3474  0.0428
    1DIPC   PO413634  24.619  10.177   5.934  0.1389 -0.1055 -0.0762
    1DIPC   GL113635  24.614  10.330   5.532 -0.0959  0.0078  0.1656
    1DIPC   GL213636  24.587  10.138   5.456  0.2005  0.0403 -0.1459
    1DIPC   C1A13637  24.622  10.498   5.018 -0.2596  0.0446  0.1897
    1DIPC   D2A13638  24.770  10.291   4.586  0.0789 -0.0150  0.0592
    1DIPC   D3A13639  24.409  10.103   4.557  0.1518  0.2183  0.1269
    1DIPC   C4A13640  24.419   9.761   4.256  0.0522 -0.0932 -0.4119
    1DIPC   C1B13641  24.173  10.069   5.230 -0.0073 -0.0541  0.0278
    1DIPC   D2B13642  24.061   9.826   4.811 -0.1156 -0.0527  0.1929
    1DIPC   D3B13643  24.424   9.456   4.698  0.2383 -0.0463 -0.2432
    1DIPC   C4B13644  24.515   9.208   5.080  0.3544 -0.0397 -0.0275
    1DIPC   NC313645   3.669  24.372   6.854  0.3714  0.1493 -0.2975
    1DIPC   PO413646   3.259  24.663   6.942 -0.0671 -0.1461  0.0658
    1DIPC   GL113647   3.133  24.448   6.607  0.0507  0.0896  0.3420
    1DIPC   GL213648   2.865  24.406   6.584  0.0414  0.2392 -0.2623
    1DIPC   C1A13649   3.166  24.090   6.288  0.1257  0.4834  0.0707
    1DIPC   D2A13650   3.381  23.930   5.974 -0.1387  0.2860 -0.3509
    1DIPC   D3A13651   3.509  24.312   6.018 -0.0102  0.0709  0.1979
    1DIPC   C4A13652   3.232  24.751   6.243 -0.0105 -0.0183 -0.1990
    1DIPC   C1B13653   2.703  24.700   6.233  0.1471  0.0969 -0.2031
    1DIPC   D2B13654   2.829  24.567   5.808  0.0173  0.0012 -0.1525
    1DIPC   D3B13655   2.504  24.539   5.479  0.0065  0.2385 -0.1273
    1DIPC   C4B13656   2.223  24.251   5.251 -0.2326 -0.1924 -0.2821
    1DIPC   NC313657  17.121  26.902   7.016  0.2447 -0.0027 -0.0254
    1DIPC   PO413658  16.738  26.630   7.216  0.2377 -0.1658  0.3854
    1DIPC   GL113659  16.788  26.714   6.661 -0.0005 -0.1768  0.0244
    1DIPC   GL213660  17.084  26.685   6.547  0.0713  0.0882  0.2465
    1DIPC   C1A13661  16.707  27.076   6.339 -0.0037  0.1737  0.0071
    1DIPC   D2A13662  16.692  27.395   6.142 -0.0392 -0.1285 -0.1057
    1DIPC   D3A13663  17.135  27.572   6.274  0.0864  0.3085  0.0614
    1DIPC   C4A13664  17.460  27.431   6.015  0.2368 -0.4328 -0.0231
    1DIPC   C1B13665  16.970  26.642   6.165 -0.0270 -0.1047 -0.1753
    1DIPC   D2B13666  16.723  26.685   5.887 -0.1786  0.0032 -0.1948
    1DIPC   D3B13667  17.097  26.505   5.625 -0.0063  0.1113  0.3239
    1DIPC   C4B13668  17.248  26.844   5.301 -0.0291  0.1184 -0.0287
    1DIPC   NC313669   7.764  10.392   6.735  0.3064  0.0822  0.1770
    1DIPC   PO413670   8.129  10.600   6.701 -0.3198  0.2514 -0.0353
    1DIPC   GL113671   8.244  10.277   6.536  0.0573 -0.0007  0.3523
    1DIPC   GL213672   8.085  10.196   6.338 -0.2359 -0.2151 -0.1006
    1DIPC   C1A13673   8.427  10.389   6.024  0.2792 -0.2412 -0.0502
    1DIPC   D2A13674   8.586  10.780   5.873  0.0001 -0.0093 -0.0978
    1DIPC   D3A13675   8.646  10.902   5.415  0.1154 -0.1195 -0.0060
    1DIPC   C4A13676   8.296  11.055   5.282 -0.2731  0.1004  0.1467
    1DIPC   C1B13677   7.960  10.276   5.977  0.0780  0.0735  0.1370
    1DIPC   D2B13678   7.628  10.492   5.609 -0.1478  0.0334 -0.5901
    1DIPC   D3B13679   7.882  10.330   5.215 -0.1670 -0.0979 -0.0528
    1DIPC   C4B13680   8.061   9.870   5.018  0.3310 -0.1124 -0.1215
    1CHOL   ROH13681   3.560   9.118   5.491 -0.0608 -0.1775  0.0009
    1CHOL    R113682   3.696   9.140   5.244 -0.0318  0.0760  0.0377
    1CHOL    R213683   3.630   8.987   5.023  0.3311 -0.0761  0.0322
    1CHOL    R313684   3.610   9.229   4.901 -0.1168 -0.1166  0.0064
    1CHOL    R413685   3.648   9.038   4.682  0.6749 -0.0511  0.0498
    1CHOL    R513686   3.766   9.217   4.720  0.1795  0.2655  0.2179
    1CHOL    C113687   3.640   9.295   4.369  0.4545 -0.0747  0.0358
    1CHOL    C213688   3.456   9.256   4.057  0.2313  0.1236  0.0755
    1CHOL   ROH13689  26.798  28.957   5.517  0.0494  0.1771  0.0749
    1CHOL    R113690  26.958  28.762   5.646 -0.0459  0.0827  0.0527
    1CHOL    R213691  27.004  28.512   5.538 -0.1262  0.0903 -0.0014
    1CHOL    R313692  27.265  28.582   5.572 -0.1043 -0.0183  0.0561
    1CHOL    R413693  27.273  28.301   5.488 -0.1957  0.0189 -0.0755
    1CHOL    R513694  27.367  28.386   5.665 -0.1817 -0.0985 -0.0265
    1CHOL    C113695  27.674  28.242   5.491 -0.2156 -0.1248 -0.0646
    1CHOL    C213696  28.075  28.330   5.426 -0.0021  0.0904  0.0273
    1CHOL   ROH13697  28.248  11.569   2.866  0.0710  0.1333  0.1543
    1CHOL    R113698  28.217  11.770   3.063  0.1801  0.0704  0.2371
    1CHOL    R213699  27.978  11.815   3.193  0.1765  0.2122  0.1809
    1CHOL    R313700  28.131  11.784   3.416  0.0808 -0.0188  0.2173
    1CHOL    R413701  27.950  12.007   3.480  0.3198  0.1870  0.2124
    1CHOL    R513702  28.168  12.008   3.494  0.3230 -0.0738  0.2739
    1CHOL    C113703  28.077  12.089   3.855  0.3136 -0.0445  0.2649
    1CHOL    C213704  28.101  12.217   4.208  0.3248  0.5380  0.0111
    1CHOL   ROH13705   5.100  17.897   6.166  0.2980 -0.0766  0.1843
    1CHOL    R113706   5.270  17.881   5.940  0.2226  0.0168  0.1199
    1CHOL    R213707   5.228  17.700   5.736  0.2309  0.0100  0.1228
    1CHOL    R313708   5.235  17.922   5.580  0.0692  0.0243  0.1350
    1CHOL    R413709   5.274  17.700   5.393  0.0718  0.0538  0.1012
    1CHOL    R513710   5.402  17.874   5.415  0.0120  0.1038  0.0536
    1CHOL    C113711   5.307  17.909   5.048 -0.1727  0.0930  0.1000
    1CHOL    C213712   5.419  18.054   4.675  0.1044  0.0834 -0.1009
    1CHOL   ROH13713  27.781  16.735   2.184 -0.1049  0.1102 -0.0149
    1CHOL    R113714  27.636  16.713   2.426 -0.0573 -0.0270  0.0031
    1CHOL    R213715  27.728  16.567   2.643  0.0447 -0.0509 -0.0491
    1CHOL    R313716  27.689  16.801   2.775 -0.0392 -0.1040  0.0181
    1CHOL    R413717  27.629  16.594   2.973  0.1146 -0.1699 -0.0184
    1CHOL    R513718  27.500  16.760   2.916  0.0214 -0.2251  0.0566
    1CHOL    C113719  27.535  16.830   3.289  0.0767 -0.2889  0.0624
    1CHOL    C213720  27.369  16.571   3.443 -0.0876 -0.2470 -0.5231
    1CHOL   ROH13721   1.651  13.863   6.205 -0.0583  0.2542 -0.0043
    1CHOL    R113722   1.638  13.691   5.981  0.1635  0.1903  0.0306
    1CHOL    R213723   1.429  13.697   5.800  0.0572 -0.2424  0.1355
    1CHOL    R313724   1.629  13.728   5.619 -0.0899  0.1165  0.0259
    1CHOL    R413725   1.397  13.644   5.460 -0.0160 -0.4392  0.1716
    1CHOL    R513726   1.594  13.551   5.461  0.1959 -0.0284  0.1114
    1CHOL    C113727   1.566  13.642   5.092 -0.1967 -0.2170  0.0898
    1CHOL    C213728   1.254  13.622   4.910 -0.0726 -0.0897 -0.5133
    1CHOL   ROH13729  29.250  21.477   2.470 -0.0214  0.0411 -0.1047
    1CHOL    R113730  29.213  21.561   2.738 -0.0348 -0.0107 -0.0919
    1CHOL    R213731  28.971  21.660   2.831 -0.0598 -0.1211 -0.0647
    1CHOL    R313732  29.001  21.465   3.018  0.0247 -0.1291 -0.0835
    1CHOL    R413733  28.827  21.662   3.145  0.2852  0.0103  0.0991
    1CHOL    R513734  29.013  21.583   3.225  0.3354 -0.1077 -0.0999
    1CHOL    C113735  28.772  21.481   3.503  0.5658  0.0793  0.1768
    1CHOL    C213736  28.519  21.492   3.805 -0.1032  0.0638 -0.0441
    1CHOL   ROH13737  16.820  18.236   3.506 -0.1017  0.2083  0.0023
    1CHOL    R113738  16.750  18.216   3.780  0.0568  0.2359  0.0456
    1CHOL    R213739  16.771  18.429   3.954 -0.1354  0.3433 -0.0600
    1CHOL    R313740  16.509  18.374   4.003 -0.0435  0.0210  0.0917
    1CHOL    R413741  16.577  18.588   4.192 -0.2374  0.2213 -0.0602
    1CHOL    R513742  16.488  18.395   4.241  0.0406  0.1256  0.0907
    1CHOL    C113743  16.219  18.628   4.378 -0.2102 -0.1523  0.0821
    1CHOL    C213744  16.045  18.974   4.437  0.2326  0.3859  0.0433
    1CHOL   ROH13745  26.671  21.662   5.336 -0.3198 -0.1682 -0.1939
    1CHOL    R113746  26.834  21.586   5.118 -0.4303 -0.2512 -0.2486
    1CHOL    R213747  26.730  21.521   4.870 -0.5238  0.2429 -0.3496
    1CHOL    R313748  26.903  21.711   4.783 -0.1134  0.0008 -0.0941
    1CHOL    R413749  26.875  21.528   4.556 -0.4107  0.2835 -0.2966
    1CHOL    R513750  27.061  21.591   4.649 -0.3050 -0.1785 -0.1660
    1CHOL    C113751  27.122  21.711   4.292  0.0402  0.0799 -0.0258
    1CHOL    C213752  27.198  21.439   3.942 -0.1862  0.4336 -0.0310
    1CHOL   ROH13753  13.507  22.258   5.816  0.0287  0.0653 -0.0109
    1CHOL    R113754  13.623  22.307   5.562  0.0156 -0.0352 -0.0361
    1CHOL    R213755  13.887  22.246   5.506  0.0322  0.0141 -0.0011
    1CHOL    R313756  13.777  22.107   5.300  0.0774 -0.1292  0.0698
    1CHOL    R413757  14.018  22.232   5.187 -0.0271 -0.0013 -0.0252
    1CHOL    R513758  13.815  22.246   5.108 -0.0583 -0.1637  0.0147
    1CHOL    C113759  13.992  22.092   4.807 -0.0193 -0.1446  0.0273
    1CHOL    C213760  13.986  21.978   4.392  0.0600  0.1983 -0.0246
    1CHOL   ROH13761  12.144  29.769   5.271  0.1992 -0.2618  0.1225
    1CHOL    R113762  12.074  29.991   5.432  0.1532 -0.2355  0.0669
    1CHOL    R213763  12.203  30.234   5.413  0.1039 -0.2136  0.0072
    1CHOL    R313764  11.950  30.328   5.377  0.0851 -0.2737 -0.0179
    1CHOL    R413765  12.093  30.548   5.509 -0.0019 -0.2712  0.0766
    1CHOL    R513766  11.906  30.458   5.574  0.0088 -0.3429  0.0114
    1CHOL    C113767  11.793  30.819   5.531 -0.0811 -0.3611  0.0934
    1CHOL    C213768  11.950  31.073   5.799  0.2105 -0.0096 -0.0319
    1CHOL   ROH13769   1.010  17.436   2.575 -0.2243 -0.0324 -0.0178
    1CHOL    R113770   1.139  17.439   2.827 -0.0929 -0.0421 -0.0828
    1CHOL    R213771   1.054  17.599   3.036  0.0304 -0.0249 -0.0347
    1CHOL    R313772   1.049  17.364   3.171  0.0715 -0.0259 -0.0379
    1CHOL    R413773   1.005  17.568   3.376 -0.4444 -0.0797 -0.1028
    1CHOL    R513774   1.157  17.412   3.379 -0.2897  0.0820  0.1245
    1CHOL    C113775   0.971  17.329   3.702 -0.6824 -0.1127 -0.1454
    1CHOL    C213776   1.032  17.666   3.891 -0.1484 -0.0934 -0.3013
    1CHOL   ROH13777  27.750  14.325   1.999  0.0080 -0.1624 -0.0057
    1CHOL    R113778  27.774  14.392   2.273  0.1017 -0.0235 -0.0461
    1CHOL    R213779  27.803  14.652   2.361 -0.1402  0.0515 -0.1723
    1CHOL    R313780  27.587  14.591   2.514  0.0191 -0.1367 -0.0160
    1CHOL    R413781  27.687  14.843   2.625 -0.1308 -0.0393 -0.1023
    1CHOL    R513782  27.648  14.659   2.735  0.1124 -0.0687 -0.0631
    1CHOL    C113783  27.416  14.897   2.921  0.0244 -0.2687  0.0853
    1CHOL    C213784  27.296  14.921   3.288  0.1630 -0.0647  0.2011
    1CHOL   ROH13785  10.109  17.033   3.324  0.0476  0.0811  0.1754
    1CHOL    R113786   9.982  17.087   3.571 -0.0439  0.3533  0.0718
    1CHOL    R213787  10.057  16.964   3.807 -0.4685  0.2205  0.1408
    1CHOL    R313788  10.081  17.220   3.895 -0.0329  0.1901  0.1380
    1CHOL    R413789  10.179  17.056   4.118 -0.2946  0.0119  0.1373
    1CHOL    R513790  10.024  17.209   4.128 -0.0455  0.2813  0.1441
    1CHOL    C113791  10.271  17.349   4.381  0.2157 -0.1384  0.1326
    1CHOL    C213792  10.182  17.350   4.705 -0.2479  0.0237  0.0523
    1CHOL   ROH13793   4.664   4.828   5.197  0.0840 -0.1783 -0.1154
    1CHOL    R113794   4.436   4.923   5.060  0.0922 -0.1684 -0.1209
    1CHOL    R213795   4.252   4.754   4.941  0.0270 -0.1622 -0.0213
    1CHOL    R313796   4.075   4.893   5.094  0.0863 -0.0458 -0.0555
    1CHOL    R413797   3.920   4.806   4.860 -0.0490 -0.3775  0.1409
    1CHOL    R513798   3.939   5.010   4.935 -0.0646 -0.2764 -0.1065
    1CHOL    C113799   3.560   4.966   4.956 -0.0377 -0.3934  0.2032
    1CHOL    C213800   3.393   5.257   4.918  0.2610 -0.0281  0.2603
    1CHOL   ROH13801  23.287  18.346   3.981  0.0591 -0.1474  0.0085
    1CHOL    R113802  23.480  18.157   3.896  0.1192 -0.1545  0.1569
    1CHOL    R213803  23.663  18.211   3.696 -0.0084 -0.3080 -0.0030
    1CHOL    R313804  23.843  18.135   3.885  0.1280  0.0299  0.0090
    1CHOL    R413805  23.984  18.099   3.632  0.0006 -0.2669 -0.0291
    1CHOL    R513806  23.958  17.950   3.788  0.1468 -0.0637  0.1999
    1CHOL    C113807  24.339  17.963   3.772  0.1342  0.0743 -0.0329
    1CHOL    C213808  24.671  17.921   4.052 -0.0861  0.0226 -0.0681
    1CHOL   ROH13809  26.098  19.054   5.267 -0.0200  0.0538  0.1118
    1CHOL    R113810  26.044  19.221   5.045 -0.0146  0.0115  0.0788
    1CHOL    R213811  26.244  19.344   4.899 -0.0081 -0.0654  0.0225
    1CHOL    R313812  26.122  19.220   4.689 -0.0620 -0.0902  0.0680
    1CHOL    R413813  26.305  19.413   4.566 -0.0688 -0.1259 -0.0015
    1CHOL    R513814  26.091  19.394   4.527 -0.0791 -0.1137  0.0452
    1CHOL    C113815  26.227  19.338   4.175 -0.1543 -0.1844  0.0273
    1CHOL    C213816  26.175  19.465   3.831  0.0872 -0.0748 -0.1090
    1CHOL   ROH13817  28.585  14.372   5.849  0.0411 -0.1784  0.0635
    1CHOL    R113818  28.525  14.445   5.582  0.0200 -0.0540  0.1024
    1CHOL    R213819  28.710  14.424   5.377 -0.0217 -0.0302  0.0659
    1CHOL    R313820  28.512  14.279   5.259 -0.0857  0.0791  0.0362
    1CHOL    R413821  28.729  14.284   5.061 -0.0691  0.0059  0.0463
    1CHOL    R513822  28.522  14.343   5.028 -0.0428  0.1095  0.0441
    1CHOL    C113823  28.555  14.067   4.767 -0.1567  0.1294  0.0071
    1CHOL    C213824  28.560  14.098   4.449  0.0307  0.1416 -0.3359
    1CHOL   ROH13825   1.495  16.042   2.950 -0.1797 -0.0914 -0.0943
    1CHOL    R113826   1.330  16.100   3.173  0.0092  0.1491 -0.0126
    1CHOL    R213827   1.257  15.908   3.358 -0.2468  0.2319 -0.0239
    1CHOL    R313828   1.361  16.085   3.535  0.1382  0.0201 -0.0279
    1CHOL    R413829   1.237  15.879   3.701 -0.2076  0.2251 -0.0223
    1CHOL    R513830   1.201  16.093   3.713  0.1961  0.2984  0.0164
    1CHOL    C113831   1.324  16.028   4.068  0.1766  0.0224 -0.0251
    1CHOL    C213832   1.504  15.843   4.332  0.1309 -0.0370  0.0133
    1CHOL   ROH13833  10.792  13.618   3.372  0.1645 -0.1872 -0.0937
    1CHOL    R113834  10.713  13.674   3.638  0.1215  0.0112 -0.1467
    1CHOL    R213835  10.773  13.506   3.850 -0.1804  0.0101 -0.0598
    1CHOL    R313836  10.880  13.732   3.956  0.0626 -0.0835 -0.0974
    1CHOL    R413837  10.826  13.559   4.187 -0.1442  0.0146 -0.0658
    1CHOL    R513838  10.759  13.765   4.160  0.0817  0.0882 -0.1101
    1CHOL    C113839  10.958  13.802   4.484  0.1049 -0.0706 -0.1046
    1CHOL    C213840  10.802  13.558   4.823  0.1202 -0.3332 -0.0702
    1CHOL   ROH13841  29.173  13.156   2.839  0.0521 -0.1342 -0.1026
    1CHOL    R113842  29.188  13.283   3.092 -0.0601 -0.0290 -0.1483
    1CHOL    R213843  28.965  13.382   3.222 -0.1542 -0.2174 -0.1669
    1CHOL    R313844  29.054  13.225   3.425  0.0277 -0.0530 -0.1164
    1CHOL    R413845  28.946  13.464   3.557 -0.1795 -0.0967 -0.1970
    1CHOL    R513846  29.145  13.380   3.584 -0.0919  0.1015 -0.1933
    1CHOL    C113847  29.018  13.364   3.943 -0.0230  0.1279 -0.1671
    1CHOL    C213848  29.118  13.420   4.373  0.2051 -0.1291 -0.0125
    1CHOL   ROH13849   3.325  15.816   5.794 -0.2355  0.1432  0.2314
    1CHOL    R113850   3.367  15.826   5.514 -0.1279 -0.0257  0.2403
    1CHOL    R213851   3.292  15.621   5.345 -0.1330 -0.0958  0.3251
    1CHOL    R313852   3.160  15.820   5.215 -0.0194 -0.1221  0.1669
    1CHOL    R413853   3.186  15.605   5.017  0.1008 -0.1821  0.2517
    1CHOL    R513854   3.247  15.813   4.992  0.1393 -0.1981  0.2317
    1CHOL    C113855   3.000  15.782   4.703  0.3436 -0.2571  0.0605
    1CHOL    C213856   2.726  15.914   4.479 -0.1764 -0.0750 -0.0551
    1CHOL   ROH13857   6.398  18.846   2.909 -0.0105 -0.1066  0.1914
    1CHOL    R113858   6.467  18.902   3.178 -0.0393  0.0844  0.1608
    1CHOL    R213859   6.346  19.103   3.324 -0.2170  0.0427  0.0776
    1CHOL    R313860   6.298  18.902   3.500 -0.0141  0.0761  0.1738
    1CHOL    R413861   6.310  19.143   3.665 -0.1334  0.1509  0.0738
    1CHOL    R513862   6.424  18.961   3.694  0.0079  0.2444  0.1095
    1CHOL    C113863   6.243  18.977   4.029  0.1058  0.2451  0.1620
    1CHOL    C213864   6.323  18.749   4.342 -0.2025 -0.3984 -0.1501
    1CHOL   ROH13865  27.149  19.417   1.813 -0.2064 -0.0274 -0.0440
    1CHOL    R113866  26.994  19.504   2.033 -0.2777 -0.1212 -0.0572
    1CHOL    R213867  26.870  19.328   2.205 -0.0566 -0.2007  0.0221
    1CHOL    R313868  27.006  19.468   2.395 -0.1902  0.0252 -0.0440
    1CHOL    R413869  26.849  19.270   2.546  0.0681 -0.1209  0.0444
    1CHOL    R513870  26.851  19.486   2.577 -0.1863 -0.1037 -0.0249
    1CHOL    C113871  26.964  19.368   2.922  0.0150  0.1378 -0.0048
    1CHOL    C213872  26.855  19.296   3.280  0.1140 -0.0026  0.1931
    1CHOL   ROH13873  25.738   2.971   6.333  0.0781  0.0669  0.0991
    1CHOL    R113874  25.634   2.957   6.070 -0.0669 -0.0227  0.1593
    1CHOL    R213875  25.363   2.960   6.016 -0.0948  0.2057  0.2938
    1CHOL    R313876  25.431   3.168   5.854  0.0337  0.0249  0.1104
    1CHOL    R413877  25.166   3.084   5.760 -0.0923  0.2088  0.2938
    1CHOL    R513878  25.346   3.106   5.639 -0.1239 -0.0523  0.1935
    1CHOL    C113879  25.115   3.350   5.459  0.0297  0.0409  0.1216
    1CHOL    C213880  24.852   3.195   5.387 -0.2352  0.2860  0.2046
    1CHOL   ROH13881   1.429  24.738   5.025 -0.0892 -0.0628 -0.0478
    1CHOL    R113882   1.221  24.921   4.969 -0.0325  0.0363  0.0601
    1CHOL    R213883   0.973  24.842   4.879 -0.0228  0.1727 -0.1002
    1CHOL    R313884   0.885  24.987   5.092 -0.0587 -0.0145  0.0140
    1CHOL    R413885   0.652  24.965   4.915 -0.0366  0.1146 -0.0250
    1CHOL    R513886   0.737  25.149   4.997 -0.0632  0.0531  0.1386
    1CHOL    C113887   0.383  25.173   5.136 -0.0783 -0.0948  0.1260
    1CHOL    C213888  -0.030  25.048   5.239  0.1555 -0.1209  0.1312
    1CHOL   ROH13889   8.696  18.121   2.910 -0.0056  0.1765 -0.0252
    1CHOL    R113890   8.848  18.296   3.074  0.0324  0.0488  0.0770
    1CHOL    R213891   8.753  18.394   3.314  0.0035  0.0281  0.0716
    1CHOL    R313892   8.986  18.290   3.411 -0.0828 -0.1214  0.1233
    1CHOL    R413893   8.851  18.406   3.645 -0.0184  0.0628  0.0771
    1CHOL    R513894   9.055  18.447   3.578  0.0235 -0.1162  0.0782
    1CHOL    C113895   9.126  18.315   3.929 -0.1121 -0.0573  0.1289
    1CHOL    C213896   8.970  18.462   4.372  0.0654  0.0311 -0.1959
    1CHOL   ROH13897   4.723   3.608   3.817  0.0161 -0.0237  0.1199
    1CHOL    R113898   4.706   3.688   4.088 -0.0872 -0.0156  0.1115
    1CHOL    R213899   4.540   3.892   4.173 -0.1240 -0.0156  0.0437
    1CHOL    R313900   4.446   3.702   4.343 -0.1836 -0.0131  0.0137
    1CHOL    R413901   4.345   3.955   4.452 -0.1355 -0.0033  0.0327
    1CHOL    R513902   4.459   3.804   4.560 -0.1807 -0.0412  0.0262
    1CHOL    C113903   4.144   3.812   4.773 -0.1983  0.0062 -0.0019
    1CHOL    C213904   4.151   3.686   5.085  0.1680 -0.0101  0.2719
    1CHOL   ROH13905  24.822  13.816   5.155  0.1458  0.3125  0.0468
    1CHOL    R113906  24.700  13.849   4.901 -0.0316  0.2227  0.1191
    1CHOL    R213907  24.712  14.086   4.760 -0.1216  0.1694  0.0227
    1CHOL    R313908  24.811  13.926   4.563 -0.2663  0.0932  0.0105
    1CHOL    R413909  24.775  14.187   4.435  0.0495  0.1599  0.0512
    1CHOL    R513910  24.695  13.997   4.366 -0.1539  0.2601  0.0026
    1CHOL    C113911  24.903  14.096   4.062  0.0132  0.0828  0.0563
    1CHOL    C213912  25.167  13.924   3.875  0.0113 -0.1288  0.0851
    1CHOL   ROH13913   8.144  11.087   3.260 -0.0330 -0.2301  0.0268
    1CHOL    R113914   8.044  11.131   3.521 -0.0602 -0.1123 -0.0031
    1CHOL    R213915   7.978  10.924   3.692 -0.0160 -0.0361  0.1069
    1CHOL    R313916   8.147  11.052   3.861 -0.0597  0.1022  0.0477
    1CHOL    R413917   7.911  10.992   4.024  0.0622 -0.1299  0.1426
    1CHOL    R513918   8.004  11.188   3.998 -0.1263 -0.0408  0.1217
    1CHOL    C113919   8.031  11.152   4.376  0.0666 -0.0547  0.1078
    1CHOL    C213920   8.203  11.165   4.715 -0.1741  0.1569 -0.0318
    1CHOL   ROH13921  26.515  18.030   5.223 -0.1119 -0.0358 -0.0794
    1CHOL    R113922  26.541  18.258   5.056  0.0446 -0.0586 -0.0870
    1CHOL    R213923  26.698  18.259   4.829 -0.0592 -0.2131 -0.1603
    1CHOL    R313924  26.469  18.341   4.709 -0.0282  0.0234 -0.0508
    1CHOL    R413925  26.667  18.334   4.493 -0.1616 -0.2710 -0.1638
    1CHOL    R513926  26.540  18.502   4.547  0.0707 -0.1084 -0.1376
    1CHOL    C113927  26.433  18.454   4.185 -0.1921 -0.0828 -0.0631
    1CHOL    C213928  26.102  18.232   4.039 -0.1474  0.1175 -0.0965
    1CHOL   ROH13929   5.764   2.010   5.147 -0.0373  0.1729  0.1331
    1CHOL    R113930   5.779   1.750   5.260  0.0807  0.0758 -0.1012
    1CHOL    R213931   5.976   1.569   5.189  0.3086  0.3149 -0.0926
    1CHOL    R313932   6.020   1.562   5.457  0.0584  0.0978 -0.0528
    1CHOL    R413933   6.190   1.350   5.350  0.3469  0.3471 -0.0991
    1CHOL    R513934   6.043   1.329   5.508  0.2102  0.0658 -0.2549
    1CHOL    C113935   6.356   1.217   5.695  0.1344  0.1620 -0.0656
    1CHOL    C213936   6.635   1.140   6.082  0.0996  0.1912 -0.2303
    1CHOL   ROH13937   0.020  18.373   2.312 -0.0876 -0.2993 -0.0038
    1CHOL    R113938  -0.051  18.439   2.579  0.0436 -0.1489 -0.0039
    1CHOL    R213939  -0.286  18.352   2.695  0.0227  0.0526  0.1084
    1CHOL    R313940  -0.118  18.256   2.886  0.0227  0.0134  0.0888
    1CHOL    R413941  -0.378  18.278   3.020  0.0317  0.0282  0.1053
    1CHOL    R513942  -0.190  18.364   3.088  0.0452  0.0002  0.1042
    1CHOL    C113943  -0.273  18.146   3.389  0.0367 -0.0227  0.0852
    1CHOL    C213944  -0.384  18.137   3.719  0.0916  0.2161 -0.1232
    1CHOL   ROH13945  13.413  20.855   3.471 -0.0396  0.1668  0.0054
    1CHOL    R113946  13.372  20.727   3.720 -0.1191  0.0563 -0.0642
    1CHOL    R213947  13.457  20.836   3.959 -0.1004 -0.1008  0.0003
    1CHOL    R313948  13.196  20.803   4.030 -0.1222 -0.0311 -0.0441
    1CHOL    R413949  13.320  20.933   4.262 -0.1061 -0.1408  0.0111
    1CHOL    R513950  13.204  20.748   4.263 -0.1711 -0.1022 -0.0579
    1CHOL    C113951  12.996  20.958   4.504 -0.1297 -0.0986 -0.0242
    1CHOL    C213952  12.784  21.212   4.715 -0.2969  0.0186 -0.0541
    1CHOL   ROH13953   0.626  16.589   2.557  0.0065 -0.1032  0.1261
    1CHOL    R113954   0.555  16.672   2.818  0.1433 -0.0393  0.1436
    1CHOL    R213955   0.293  16.686   2.904  0.1713  0.2189  0.1989
    1CHOL    R313956   0.385  16.527   3.105  0.0573  0.1204  0.1742
    1CHOL    R413957   0.200  16.714   3.235  0.0996  0.1540  0.1843
    1CHOL    R513958   0.407  16.676   3.292  0.0700  0.0538  0.2253
    1CHOL    C113959   0.231  16.582   3.617 -0.0491  0.0236  0.1527
    1CHOL    C213960   0.496  16.735   3.923  0.0294 -0.2627 -0.2034
    1CHOL   ROH13961   1.880  19.191   6.055  0.0885  0.0496 -0.0708
    1CHOL    R113962   2.076  19.197   5.851  0.0909 -0.0382 -0.0710
    1CHOL    R213963   2.146  18.973   5.705 -0.0216 -0.0658 -0.0821
    1CHOL    R313964   2.088  19.134   5.493  0.0577 -0.0259 -0.0744
    1CHOL    R413965   2.236  18.909   5.377 -0.0337 -0.0813 -0.0828
    1CHOL    R513966   2.282  19.120   5.353  0.0588 -0.0992 -0.0661
    1CHOL    C113967   2.233  19.022   4.988  0.0337 -0.0528 -0.0759
    1CHOL    C213968   2.462  19.008   4.727  0.1743 -0.1196 -0.4444
    1CHOL   ROH13969  18.855   7.434   3.834  0.1880  0.1279  0.0317
    1CHOL    R113970  19.043   7.572   3.994  0.1801  0.0493  0.1097
    1CHOL    R213971  19.172   7.801   3.908  0.2765  0.0223  0.1813
    1CHOL    R313972  19.072   7.905   4.139  0.2359  0.0210  0.1644
    1CHOL    R413973  19.322   8.052   4.093  0.2979 -0.0511  0.2644
    1CHOL    R513974  19.266   7.945   4.274  0.2061 -0.0595  0.2318
    1CHOL    C113975  19.316   8.296   4.416  0.2721 -0.0951  0.2970
    1CHOL    C213976  19.359   8.194   4.806  0.0715  0.2799 -0.1573
    1CHOL   ROH13977   5.317  13.087   3.451 -0.0588  0.2326  0.0778
    1CHOL    R113978   5.303  13.223   3.700 -0.2861  0.1916  0.0915
    1CHOL    R213979   5.064  13.273   3.829 -0.3742 -0.2657  0.1279
    1CHOL    R313980   5.187  13.148   4.036 -0.1103 -0.0556  0.0991
    1CHOL    R413981   4.932  13.241   4.147 -0.0718 -0.1261  0.2678
    1CHOL    R513982   5.131  13.280   4.227 -0.0150  0.0438  0.0610
    1CHOL    C113983   4.972  13.105   4.527  0.3519  0.1524  0.3222
    1CHOL    C213984   4.656  13.283   4.522  0.2522  0.0706  0.1073
    1CHOL   ROH13985   4.253  21.864   3.097  0.0636  0.0301  0.0044
    1CHOL    R113986   4.317  21.738   3.342  0.1220  0.0151 -0.0177
    1CHOL    R213987   4.360  21.879   3.576  0.1197 -0.0017 -0.0032
    1CHOL    R313988   4.169  21.713   3.673  0.1670 -0.0555 -0.0036
    1CHOL    R413989   4.360  21.744   3.894  0.0585  0.1433  0.0585
    1CHOL    R513990   4.290  21.556   3.808  0.1909  0.0693  0.1176
    1CHOL    C113991   4.180  21.510   4.171  0.0672  0.1774  0.0940
    1CHOL    C213992   4.417  21.476   4.529  0.0246  0.0429 -0.1331
    1CHOL   ROH13993   5.141  12.089   6.749  0.0745  0.0653 -0.0003
    1CHOL    R113994   5.241  12.118   6.486 -0.0027  0.1052 -0.0261
    1CHOL    R213995   5.224  11.917   6.297  0.1985  0.0264  0.0342
    1CHOL    R313996   5.104  12.110   6.149 -0.0543 -0.1532 -0.0007
    1CHOL    R413997   5.265  11.957   5.957  0.3757  0.1908  0.0734
    1CHOL    R513998   5.270  12.173   5.988 -0.0476  0.1988  0.1370
    1CHOL    C113999   5.176  12.162   5.619  0.2415  0.1180  0.0635
    1CHOL    C214000   5.345  12.223   5.292 -0.0413 -0.0892 -0.0308
    1CHOL   ROH14001   2.903  23.525   3.678 -0.0155  0.1447 -0.1479
    1CHOL    R114002   2.627  23.501   3.737 -0.0133  0.2339 -0.1014
    1CHOL    R214003   2.530  23.329   3.930 -0.0499  0.1289 -0.2143
    1CHOL    R314004   2.412  23.554   4.026  0.0809  0.1118 -0.0071
    1CHOL    R414005   2.367  23.351   4.234  0.0828 -0.0200 -0.1306
    1CHOL    R514006   2.215  23.475   4.137  0.0924  0.1127  0.0163
    1CHOL    C114007   2.162  23.576   4.501  0.2828 -0.1228  0.1127
    1CHOL    C214008   1.964  23.349   4.748  0.2974 -0.0051 -0.2633
    1CHOL   ROH14009   6.885  23.567   5.031  0.0787  0.1485  0.1830
    1CHOL    R114010   6.964  23.316   4.927 -0.0559  0.1553  0.0603
    1CHOL    R214011   7.057  23.285   4.668  0.1099  0.2665  0.1037
    1CHOL    R314012   7.269  23.170   4.793 -0.0770 -0.0031  0.1825
    1CHOL    R414013   7.316  23.123   4.507  0.0043  0.0007  0.1962
    1CHOL    R514014   7.313  22.972   4.665 -0.2419 -0.0299  0.1659
    1CHOL    C114015   7.667  22.921   4.531 -0.2326 -0.4075  0.3242
    1CHOL    C214016   7.734  22.512   4.373  0.0634 -0.0135 -0.2257
    1CHOL   ROH14017   7.112  17.010   3.182 -0.0579  0.0073 -0.2420
    1CHOL    R114018   7.125  17.148   3.429 -0.0784 -0.0350 -0.2177
    1CHOL    R214019   6.899  17.214   3.575 -0.0855 -0.1067 -0.2008
    1CHOL    R314020   7.028  17.082   3.774 -0.0550 -0.1151 -0.2254
    1CHOL    R414021   6.824  17.242   3.911 -0.0132 -0.0869 -0.1859
    1CHOL    R514022   7.038  17.240   3.953 -0.0010 -0.1076 -0.2319
    1CHOL    C114023   6.902  17.134   4.294  0.0575 -0.0832 -0.2004
    1CHOL    C214024   6.955  17.303   4.657 -0.0212 -0.0738 -0.1639
    1CHOL   ROH14025   3.002  10.828   6.190  0.0093  0.1437 -0.0230
    1CHOL    R114026   2.918  10.945   5.946 -0.1096 -0.0405 -0.0721
    1CHOL    R214027   3.096  11.056   5.766 -0.2206  0.0569 -0.1198
    1CHOL    R314028   2.975  10.886   5.591 -0.0582 -0.1355 -0.0488
    1CHOL    R414029   3.122  11.075   5.422 -0.2519 -0.0515 -0.1290
    1CHOL    R514030   2.910  11.025   5.408 -0.2061 -0.2705 -0.1025
    1CHOL    C114031   3.024  10.927   5.057 -0.1177 -0.2954 -0.0677
    1CHOL    C214032   3.046  10.643   4.726  0.0334 -0.1345  0.0206
    1CHOL   ROH14033  28.364   8.601   5.808 -0.0172 -0.0279  0.1402
    1CHOL    R114034  28.537   8.464   5.631 -0.0390 -0.0606  0.1436
    1CHOL    R214035  28.445   8.283   5.443 -0.0789  0.0265  0.0771
    1CHOL    R314036  28.582   8.441   5.270  0.0291  0.0101  0.1474
    1CHOL    R414037  28.553   8.186   5.129  0.2075 -0.0371  0.1927
    1CHOL    R514038  28.739   8.294   5.165  0.1531  0.0169  0.3193
    1CHOL    C114039  28.744   8.278   4.784  0.4758 -0.0895  0.3260
    1CHOL    C214040  29.022   8.034   4.602 -0.0237  0.2279 -0.2460
    1CHOL   ROH14041  27.327  23.716   2.664  0.0332 -0.4728 -0.0019
    1CHOL    R114042  27.493  23.702   2.893  0.1224 -0.0495 -0.0318
    1CHOL    R214043  27.543  23.922   3.054 -0.3975  0.0998 -0.0424
    1CHOL    R314044  27.454  23.757   3.251  0.0456 -0.1350 -0.0288
    1CHOL    R414045  27.613  23.960   3.390 -0.3233  0.1742 -0.0670
    1CHOL    R514046  27.637  23.744   3.405  0.1457  0.2210 -0.1173
    1CHOL    C114047  27.570  23.827   3.771  0.1356 -0.0030 -0.0684
    1CHOL    C214048  27.509  23.767   4.131 -0.1118  0.1612 -0.1807
    1CHOL   ROH14049  29.387  11.061   6.195  0.0198 -0.0269 -0.0301
    1CHOL    R114050  29.485  11.089   5.931  0.1020  0.0560  0.0076
    1CHOL    R214051  29.337  11.019   5.709  0.1905  0.0689 -0.0627
    1CHOL    R314052  29.391  11.274   5.632  0.1543  0.1005  0.0202
    1CHOL    R414053  29.355  11.128   5.381  0.1282  0.1970 -0.0233
    1CHOL    R514054  29.526  11.250   5.436  0.1218  0.1899 -0.0088
    1CHOL    C114055  29.416  11.430   5.119  0.0578  0.3014  0.0775
    1CHOL    C214056  29.283  11.548   4.772 -0.1801 -0.3160 -0.1733
    1CHOL   ROH14057  26.873  23.959   5.097 -0.1493 -0.1839 -0.1458
    1CHOL    R114058  27.095  23.943   4.921 -0.0963 -0.1731 -0.0818
    1CHOL    R214059  27.356  23.968   5.008 -0.1185 -0.1769 -0.0021
    1CHOL    R314060  27.386  23.729   4.882 -0.0849 -0.1703 -0.0052
    1CHOL    R414061  27.645  23.778   5.010 -0.0565 -0.0830 -0.1060
    1CHOL    R514062  27.611  23.733   4.799 -0.1189 -0.1005 -0.0889
    1CHOL    C114063  27.842  23.444   4.892  0.0111 -0.0223 -0.1693
    1CHOL    C214064  28.093  23.216   4.709 -0.2525  0.3056  0.1550
    1CHOL   ROH14065  26.694  23.071   3.116 -0.0897  0.0189  0.2843
    1CHOL    R114066  26.946  23.011   3.228 -0.0443 -0.0859  0.1289
    1CHOL    R214067  26.997  23.031   3.499  0.1842  0.0853  0.0732
    1CHOL    R314068  27.078  22.773   3.470 -0.0320 -0.0018  0.2073
    1CHOL    R414069  27.221  22.870   3.707  0.4116  0.1628 -0.1062
    1CHOL    R514070  27.309  22.776   3.532  0.0758 -0.0808 -0.1610
    1CHOL    C114071  27.427  22.534   3.801  0.3408  0.1264 -0.0847
    1CHOL    C214072  27.503  22.403   4.145  0.4884  0.0704  0.2895
    1CHOL   ROH14073  19.325  15.933   3.066  0.1577 -0.0581 -0.0332
    1CHOL    R114074  19.515  15.799   3.229  0.0902 -0.1411 -0.0210
    1CHOL    R214075  19.583  15.888   3.482  0.1357 -0.1533 -0.0251
    1CHOL    R314076  19.515  15.634   3.553  0.0031 -0.1129 -0.0074
    1CHOL    R414077  19.668  15.737   3.781  0.0143 -0.1671  0.0026
    1CHOL    R514078  19.706  15.552   3.671 -0.0582 -0.1947  0.0304
    1CHOL    C114079  19.655  15.411   4.022 -0.1808 -0.1372  0.0353
    1CHOL    C214080  19.944  15.111   4.156  0.2470 -0.2690  0.0310
    1CHOL   ROH14081  27.222  12.247   2.547  0.0899  0.2623  0.0071
    1CHOL    R114082  27.238  12.393   2.789 -0.0714  0.2634  0.0193
    1CHOL    R214083  27.017  12.514   2.905 -0.2026  0.0484  0.0105
    1CHOL    R314084  27.093  12.369   3.122 -0.0815  0.1005  0.0021
    1CHOL    R414085  26.924  12.581   3.231 -0.0971  0.0572  0.0386
    1CHOL    R514086  27.126  12.532   3.294 -0.0645  0.1256 -0.0307
    1CHOL    C114087  26.941  12.485   3.624  0.0782  0.1112  0.0472
    1CHOL    C214088  26.782  12.740   3.845 -0.2466  0.5545 -0.1280
    1CHOL   ROH14089   2.971  11.685   2.882  0.2682 -0.4464  0.0387
    1CHOL    R114090   3.060  11.712   3.150  0.1786 -0.1969  0.0470
    1CHOL    R214091   3.062  11.954   3.282 -0.0336 -0.0982 -0.1153
    1CHOL    R314092   2.916  11.818   3.467  0.0143 -0.0809 -0.0658
    1CHOL    R414093   3.036  12.041   3.616  0.1065 -0.1165 -0.0998
    1CHOL    R514094   3.049  11.829   3.666  0.0882 -0.1167 -0.1165
    1CHOL    C114095   2.885  11.963   3.984  0.2331 -0.1107 -0.0443
    1CHOL    C214096   2.772  11.756   4.271  0.1579 -0.0781  0.2385
    1CHOL   ROH14097  25.277   5.453   6.294  0.0229 -0.0582  0.1213
    1CHOL    R114098  25.346   5.521   6.028 -0.0398 -0.0448  0.1076
    1CHOL    R214099  25.437   5.335   5.845 -0.0400 -0.0295  0.0879
    1CHOL    R314100  25.234   5.432   5.694 -0.0879 -0.0657  0.1301
    1CHOL    R414101  25.383   5.255   5.514 -0.1524 -0.1104  0.1258
    1CHOL    R514102  25.330   5.464   5.477 -0.1613 -0.1212  0.0907
    1CHOL    C114103  25.159   5.300   5.178 -0.2629 -0.1915  0.1875
    1CHOL    C214104  24.974   5.397   4.878  0.2372 -0.0814 -0.2378
    1CHOL   ROH14105   1.652  14.374   6.302  0.1104 -0.2179  0.0629
    1CHOL    R114106   1.868  14.332   6.124  0.1252 -0.0730  0.0453
    1CHOL    R214107   1.867  14.132   5.932  0.2327 -0.0574  0.0272
    1CHOL    R314108   1.919  14.339   5.764  0.0985 -0.0104  0.0426
    1CHOL    R414109   1.974  14.099   5.606  0.1795  0.0355  0.0000
    1CHOL    R514110   2.109  14.267   5.637  0.1066  0.0960 -0.0073
    1CHOL    C114111   2.085  14.273   5.257  0.0225  0.1338 -0.0014
    1CHOL    C214112   2.172  14.272   4.930  0.1882  0.0417  0.1723
    1CHOL   ROH14113  26.879  21.250   5.470  0.0953 -0.0585 -0.2038
    1CHOL    R114114  27.010  21.144   5.243  0.0113 -0.0207 -0.2704
    1CHOL    R214115  26.887  21.123   4.997 -0.0243  0.1785 -0.2700
    1CHOL    R314116  27.104  21.263   4.912  0.0514  0.0928 -0.2193
    1CHOL    R414117  27.009  21.118   4.674  0.1378  0.0091 -0.2074
    1CHOL    R514118  27.212  21.115   4.757  0.0974 -0.0014 -0.1014
    1CHOL    C114119  27.285  21.246   4.406  0.3035 -0.1699 -0.1235
    1CHOL    C214120  27.121  20.948   4.121  0.0379  0.2523 -0.3675
    1CHOL   ROH14121  19.065   9.273   3.574 -0.1182 -0.3013  0.1846
    1CHOL    R114122  19.046   9.250   3.856 -0.0994 -0.1669  0.1974
    1CHOL    R214123  19.266   9.273   4.022 -0.0747 -0.1788  0.1641
    1CHOL    R314124  19.114   9.462   4.143  0.0130 -0.0638  0.0967
    1CHOL    R414125  19.330   9.406   4.334 -0.1368 -0.2686  0.2156
    1CHOL    R514126  19.116   9.400   4.375 -0.1692 -0.0939  0.0930
    1CHOL    C114127  19.225   9.661   4.630 -0.0904 -0.2129  0.1822
    1CHOL    C214128  19.536   9.746   4.855  0.1459 -0.1472  0.4559
    1CHOL   ROH14129  16.288  26.415   3.253 -0.1918 -0.1115 -0.1341
    1CHOL    R114130  16.239  26.341   3.522 -0.1913  0.1117 -0.0712
    1CHOL    R214131  16.425  26.205   3.675 -0.3317 -0.0859 -0.0815
    1CHOL    R314132  16.387  26.412   3.847  0.0573  0.0696 -0.1705
    1CHOL    R414133  16.567  26.229   3.989 -0.4483 -0.3436 -0.0059
    1CHOL    R514134  16.378  26.309   4.063 -0.3201  0.1390 -0.1403
    1CHOL    C114135  16.614  26.437   4.333 -0.1510 -0.3477 -0.0455
    1CHOL    C214136  16.656  26.541   4.747  0.2260 -0.1792 -0.3380
    1CHOL   ROH14137  26.106  15.352   5.183  0.1583  0.0397 -0.0085
    1CHOL    R114138  26.101  15.284   4.908  0.1605 -0.0893  0.0235
    1CHOL    R214139  26.133  15.471   4.708 -0.1126 -0.1404 -0.0675
    1CHOL    R314140  26.330  15.303   4.626  0.0612  0.0510 -0.0501
    1CHOL    R414141  26.286  15.482   4.398 -0.2738 -0.1393 -0.1485
    1CHOL    R514142  26.283  15.264   4.394 -0.0049 -0.1527 -0.0073
    1CHOL    C114143  26.560  15.332   4.141 -0.2045  0.0410 -0.1794
    1CHOL    C214144  26.511  15.035   3.845  0.0264  0.0577 -0.0527
    1CHOL   ROH14145   0.895   7.545   6.075  0.1284  0.1039  0.0169
    1CHOL    R114146   0.910   7.509   5.795 -0.0491  0.3149 -0.0221
    1CHOL    R214147   0.930   7.721   5.619  0.3052  0.4374  0.1588
    1CHOL    R314148   1.150   7.586   5.531  0.0127  0.0702 -0.0402
    1CHOL    R414149   1.043   7.720   5.292  0.2356  0.5849  0.1326
    1CHOL    R514150   1.087   7.507   5.314 -0.2054  0.4532 -0.1270
    1CHOL    C114151   1.314   7.592   5.019 -0.0795  0.3261 -0.0694
    1CHOL    C214152   1.029   7.682   4.737 -0.3269  0.0074  0.1120
    1CHOL   ROH14153   1.913  12.088   6.282 -0.0622 -0.2481 -0.1660
    1CHOL    R114154   2.047  12.139   6.038 -0.0657 -0.1175 -0.1410
    1CHOL    R214155   1.992  12.001   5.806 -0.0738  0.0112 -0.2165
    1CHOL    R314156   1.954  12.250   5.704 -0.0690  0.0686 -0.0801
    1CHOL    R414157   2.006  12.080   5.470 -0.0224  0.2007 -0.1705
    1CHOL    R514158   2.111  12.264   5.523 -0.0389  0.1774 -0.0478
    1CHOL    C114159   1.980  12.360   5.179  0.0120  0.3648 -0.0157
    1CHOL    C214160   1.833  12.194   4.843 -0.1148  0.1431  0.1089
    1CHOL   ROH14161   8.893  11.263   6.687  0.1594 -0.0598  0.1538
    1CHOL    R114162   8.987  11.436   6.483  0.1183 -0.0561  0.1373
    1CHOL    R214163   9.237  11.407   6.368  0.0725 -0.0911  0.0435
    1CHOL    R314164   9.093  11.402   6.137 -0.0130 -0.0412  0.0954
    1CHOL    R414165   9.350  11.521   6.062 -0.0017 -0.1262  0.0029
    1CHOL    R514166   9.153  11.605   6.025  0.0135 -0.0606  0.0757
    1CHOL    C114167   9.282  11.583   5.667 -0.1252 -0.0997  0.0279
    1CHOL    C214168   9.434  11.715   5.376  0.0384 -0.2445  0.1489
    1CHOL   ROH14169  13.192  14.037   3.447 -0.2385  0.0355 -0.0031
    1CHOL    R114170  13.123  14.157   3.694 -0.1244 -0.0137  0.0542
    1CHOL    R214171  13.178  14.039   3.938  0.0741 -0.0196  0.0105
    1CHOL    R314172  13.301  14.277   3.988  0.0229  0.0187 -0.0470
    1CHOL    R414173  13.287  14.143   4.249  0.0518  0.0795 -0.0150
    1CHOL    R514174  13.216  14.343   4.202  0.0092  0.0522 -0.0637
    1CHOL    C114175  13.466  14.426   4.478 -0.0093  0.1731 -0.0839
    1CHOL    C214176  13.859  14.495   4.508  0.1923  0.1155  0.0759
    1CHOL   ROH14177  28.471  13.911   2.574 -0.3635  0.0737 -0.1060
    1CHOL    R114178  28.295  13.973   2.787 -0.2514  0.0633 -0.0077
    1CHOL    R214179  28.374  13.965   3.052 -0.1308 -0.0265 -0.0385
    1CHOL    R314180  28.280  14.220   3.054 -0.0614 -0.0026  0.0634
    1CHOL    R414181  28.266  14.134   3.333 -0.1549 -0.1260  0.0110
    1CHOL    R514182  28.103  14.217   3.215 -0.0987 -0.0263  0.0153
    1CHOL    C114183  28.115  14.471   3.499 -0.1036 -0.1616  0.1356
    1CHOL    C214184  28.166  14.693   3.805 -0.1547 -0.1069 -0.1828
    1CHOL   ROH14185  11.392  28.062   4.186 -0.0900 -0.0022  0.0297
    1CHOL    R114186  11.576  28.249   4.292 -0.2152  0.0613  0.1381
    1CHOL    R214187  11.586  28.311   4.562 -0.1280 -0.2324  0.2086
    1CHOL    R314188  11.849  28.245   4.533 -0.0760  0.0527 -0.0190
    1CHOL    R414189  11.820  28.316   4.816  0.0044 -0.3438  0.0903
    1CHOL    R514190  11.964  28.399   4.676 -0.1482 -0.0216  0.1186
    1CHOL    C114191  12.202  28.256   4.938  0.1303 -0.1410 -0.1921
    1CHOL    C214192  12.449  28.432   5.197 -0.1093 -0.0451 -0.2023
    1CHOL   ROH14193   6.028  23.096   6.559 -0.0805 -0.3880 -0.0427
    1CHOL    R114194   6.152  23.008   6.320 -0.1516 -0.3482 -0.0951
    1CHOL    R214195   6.017  22.992   6.080 -0.1221  0.0776 -0.1479
    1CHOL    R314196   6.221  23.148   5.991  0.1345 -0.1358  0.0494
    1CHOL    R414197   6.120  23.011   5.751 -0.0759  0.2837 -0.1218
    1CHOL    R514198   6.327  23.015   5.822 -0.0645 -0.1213 -0.0941
    1CHOL    C114199   6.371  23.169   5.476  0.1919  0.2033  0.0787
    1CHOL    C214200   6.671  23.082   5.209  0.0047 -0.1517 -0.0321
    1CHOL   ROH14201  23.021  16.760   4.988 -0.2326  0.0400  0.1156
    1CHOL    R114202  22.866  16.925   4.819 -0.1243  0.0309  0.0049
    1CHOL    R214203  22.963  17.161   4.711 -0.0999  0.1013  0.1702
    1CHOL    R314204  22.887  17.047   4.477  0.1808  0.1360  0.0585
    1CHOL    R414205  22.938  17.327   4.410  0.0786  0.1846  0.2005
    1CHOL    R514206  22.756  17.216   4.369  0.1817  0.0929 -0.0051
    1CHOL    C114207  22.852  17.318   4.014  0.4460  0.2659  0.1133
    1CHOL    C214208  23.040  17.394   3.731 -0.2473  0.0413  0.0473
    1CHOL   ROH14209   5.324   9.731   3.310 -0.0109  0.0456 -0.0286
    1CHOL    R114210   5.191   9.746   3.559 -0.0882  0.0831 -0.0722
    1CHOL    R214211   5.263   9.591   3.776 -0.2463  0.0152 -0.0696
    1CHOL    R314212   5.280   9.831   3.902 -0.1606 -0.0115 -0.0287
    1CHOL    R414213   5.354   9.634   4.106 -0.2336 -0.0774 -0.0603
    1CHOL    R514214   5.201   9.788   4.124 -0.1799 -0.0228 -0.0361
    1CHOL    C114215   5.424   9.886   4.417 -0.1457 -0.1564 -0.0166
    1CHOL    C214216   5.840   9.901   4.610 -0.1310  0.1082  0.0297
    1CHOL   ROH14217  27.380  19.514   5.576 -0.2915  0.2533 -0.1364
    1CHOL    R114218  27.504  19.362   5.372 -0.1198  0.1937  0.0108
    1CHOL    R214219  27.403  19.347   5.116 -0.0542 -0.0986  0.0021
    1CHOL    R314220  27.653  19.429   5.047 -0.1083  0.0575 -0.0133
    1CHOL    R414221  27.515  19.384   4.791 -0.0289 -0.2601 -0.0090
    1CHOL    R514222  27.706  19.299   4.853  0.0353 -0.0537  0.0965
    1CHOL    C114223  27.815  19.483   4.537 -0.0649 -0.2073 -0.0301
    1CHOL    C214224  28.033  19.499   4.185  0.0634  0.1072 -0.0824
    1CHOL   ROH14225  27.102  21.964   5.212  0.1291 -0.2916  0.0490
    1CHOL    R114226  27.150  22.054   4.948 -0.0303 -0.2274  0.0421
    1CHOL    R214227  27.404  22.098   4.849 -0.0996 -0.0301 -0.0414
    1CHOL    R314228  27.322  21.929   4.653 -0.0419 -0.0671 -0.0354
    1CHOL    R414229  27.587  22.020   4.566 -0.0421 -0.0202 -0.0082
    1CHOL    R514230  27.402  22.029   4.451 -0.0325 -0.0677 -0.0357
    1CHOL    C114231  27.616  21.817   4.217  0.0453 -0.0495  0.0168
    1CHOL    C214232  27.877  22.016   4.016  0.1034 -0.0394  0.2558
    1CHOL   ROH14233   1.252  18.907   2.579  0.2165  0.0974  0.0976
    1CHOL    R114234   1.170  19.052   2.808  0.0409 -0.0806  0.1501
    1CHOL    R214235   0.997  18.948   2.996 -0.0154 -0.2695 -0.0062
    1CHOL    R314236   1.197  19.013   3.169 -0.1315 -0.2988  0.1423
    1CHOL    R414237   0.950  19.092   3.307 -0.2175 -0.0462 -0.1369
    1CHOL    R514238   1.124  19.218   3.269 -0.0929 -0.1848 -0.0540
    1CHOL    C114239   1.110  19.238   3.649 -0.4441  0.0565 -0.0735
    1CHOL    C214240   1.203  19.117   3.950 -0.2725 -0.2022  0.1969
    1CHOL   ROH14241  13.789  14.774   6.191 -0.1111 -0.0317  0.1446
    1CHOL    R114242  13.818  14.822   5.914  0.0016 -0.1620  0.1342
    1CHOL    R214243  13.755  14.632   5.723 -0.2906 -0.1162  0.1914
    1CHOL    R314244  13.599  14.831   5.623  0.0484  0.1158  0.1025
    1CHOL    R414245  13.700  14.691   5.387 -0.3037 -0.2851  0.1618
    1CHOL    R514246  13.714  14.905   5.427  0.1270 -0.2633 -0.0085
    1CHOL    C114247  13.522  14.913   5.098  0.0067 -0.1658  0.0612
    1CHOL    C214248  13.545  14.779   4.759  0.0023 -0.1317  0.0597
    1CHOL   ROH14249  24.728  19.187   4.641  0.0013  0.2747 -0.1412
    1CHOL    R114250  24.844  19.176   4.383 -0.0382  0.0705 -0.1537
    1CHOL    R214251  24.714  19.065   4.166 -0.1925  0.1517 -0.1138
    1CHOL    R314252  24.766  19.306   4.052  0.0662  0.0672 -0.1772
    1CHOL    R414253  24.807  19.111   3.837  0.1859 -0.0429 -0.0391
    1CHOL    R514254  24.949  19.263   3.903  0.1973 -0.0987  0.0358
    1CHOL    C114255  24.910  19.365   3.538  0.6491 -0.2356 -0.0551
    1CHOL    C214256  25.192  19.167   3.343  0.1661  0.2055 -0.0915
    1CHOL   ROH14257   8.110  15.999   6.441  0.0747 -0.3429 -0.0207
    1CHOL    R114258   8.070  16.118   6.187  0.1168 -0.1707  0.0524
    1CHOL    R214259   8.256  16.101   5.984  0.0232 -0.2869 -0.0233
    1CHOL    R314260   8.045  16.004   5.842 -0.1442  0.0255  0.0027
    1CHOL    R414261   8.238  16.090   5.639 -0.0598 -0.2037 -0.0221
    1CHOL    R514262   8.028  16.150   5.653  0.0192  0.0845  0.0303
    1CHOL    C114263   8.029  15.993   5.305 -0.2652  0.1379  0.0031
    1CHOL    C214264   7.845  15.790   5.043  0.0425 -0.1996  0.1092
    1CHOL   ROH14265  12.830  13.572   6.604 -0.1025 -0.1346 -0.1180
    1CHOL    R114266  12.756  13.593   6.331 -0.1407  0.0342 -0.0950
    1CHOL    R214267  12.576  13.783   6.240 -0.0517  0.1765  0.0270
    1CHOL    R314268  12.779  13.846   6.070 -0.0486  0.1445  0.0178
    1CHOL    R414269  12.535  13.883   5.912 -0.0529  0.1676  0.0240
    1CHOL    R514270  12.707  13.761   5.858 -0.0679  0.1428  0.0232
    1CHOL    C114271  12.701  14.001   5.562 -0.0506  0.1322  0.0135
    1CHOL    C214272  12.721  13.880   5.126  0.2500  0.3339 -0.3757
    1CHOL   ROH14273  23.720   9.882   3.634  0.0533 -0.0228  0.2614
    1CHOL    R114274  23.491   9.975   3.772 -0.0612  0.0506  0.0229
    1CHOL    R214275  23.504  10.085   4.025 -0.3102 -0.1313  0.1103
    1CHOL    R314276  23.375  10.292   3.906 -0.0107  0.0467  0.0816
    1CHOL    R414277  23.317  10.323   4.192  0.0373  0.1664  0.0896
    1CHOL    R514278  23.171  10.315   4.030  0.0161  0.3566  0.0875
    1CHOL    C114279  23.087  10.657   4.178  0.5207  0.5069  0.0507
    1CHOL    C214280  23.050  11.086   4.329  0.0099  0.0356 -0.0532
    1CHOL   ROH14281   7.732  14.742   3.161  0.0338  0.4803  0.0790
    1CHOL    R114282   7.635  14.871   3.393 -0.1132  0.2187  0.1700
    1CHOL    R214283   7.550  14.733   3.617  0.1412 -0.0305  0.1265
    1CHOL    R314284   7.731  14.892   3.743 -0.0612  0.1782  0.1558
    1CHOL    R414285   7.626  14.719   3.954  0.2407 -0.0573  0.1023
    1CHOL    R514286   7.633  14.936   3.957 -0.0735 -0.0516  0.1932
    1CHOL    C114287   7.839  14.860   4.269  0.1086  0.1232  0.1158
    1CHOL    C214288   7.891  15.043   4.620  0.2595 -0.2699  0.0503
    1CHOL   ROH14289   4.750  19.059   6.220  0.3042  0.0693  0.1751
    1CHOL    R114290   4.774  19.119   5.944  0.1205 -0.1771  0.1030
    1CHOL    R214291   4.924  19.331   5.850 -0.2857  0.0053 -0.1578
    1CHOL    R314292   5.042  19.138   5.700  0.0280  0.0542  0.0148
    1CHOL    R414293   5.072  19.384   5.543 -0.3230 -0.0136 -0.1795
    1CHOL    R514294   4.986  19.196   5.474 -0.0340 -0.2081 -0.0431
    1CHOL    C114295   5.269  19.233   5.222 -0.0502  0.0214 -0.0301
    1CHOL    C214296   5.059  19.282   4.958 -0.0342  0.2551 -0.0212
    1CHOL   ROH14297  27.769  18.553   5.584 -0.0969  0.0055 -0.0187
    1CHOL    R114298  27.903  18.551   5.335  0.1394 -0.0649  0.1062
    1CHOL    R214299  28.068  18.344   5.256 -0.0949 -0.2730  0.1656
    1CHOL    R314300  27.905  18.340   5.038  0.1039  0.0803 -0.0001
    1CHOL    R414301  28.137  18.178   4.961 -0.1687 -0.4656  0.2542
    1CHOL    R514302  28.055  18.348   4.852  0.3232 -0.2768  0.1474
    1CHOL    C114303  28.024  18.077   4.585 -0.0249 -0.2461  0.1502
    1CHOL    C214304  28.129  18.048   4.267 -0.2221  0.2837 -0.0354
    1CHOL   ROH14305  29.219  19.437   2.366 -0.0455  0.0100 -0.1454
    1CHOL    R114306  29.248  19.373   2.640 -0.0023 -0.0152 -0.1541
    1CHOL    R214307  29.145  19.532   2.841  0.2032  0.0788 -0.1102
    1CHOL    R314308  29.026  19.301   2.919  0.0297  0.1784 -0.0796
    1CHOL    R414309  29.070  19.449   3.168  0.3624  0.0633 -0.0781
    1CHOL    R514310  29.134  19.245   3.126  0.1246  0.0145 -0.1775
    1CHOL    C114311  28.914  19.183   3.432  0.2924  0.1477 -0.0307
    1CHOL    C214312  28.924  19.153   3.864 -0.3311 -0.4034 -0.3758
    1CHOL   ROH14313  13.367   9.753   3.519 -0.2209  0.0573 -0.1022
    1CHOL    R114314  13.481   9.658   3.760 -0.1472  0.0578 -0.1365
    1CHOL    R214315  13.729   9.743   3.851 -0.1324  0.0783 -0.1983
    1CHOL    R314316  13.589   9.803   4.076 -0.0777  0.0535 -0.1575
    1CHOL    R414317  13.869   9.822   4.157 -0.0544  0.0383 -0.2236
    1CHOL    R514318  13.715   9.704   4.254 -0.0347  0.0285 -0.2003
    1CHOL    C114319  13.820   9.925   4.546  0.0423 -0.0083 -0.2001
    1CHOL    C214320  13.917   9.974   4.973 -0.2155 -0.2210 -0.1007
    1CHOL   ROH14321  29.579  14.165   6.020  0.1690 -0.3596  0.2626
    1CHOL    R114322  29.566  14.189   5.739  0.0399 -0.1446  0.2851
    1CHOL    R214323  29.783  14.267   5.586 -0.0364 -0.0079  0.2463
    1CHOL    R314324  29.730  14.036   5.452 -0.0743  0.0886  0.0908
    1CHOL    R414325  29.869  14.204   5.257  0.1893  0.1015  0.2825
    1CHOL    R514326  29.676  14.106   5.230  0.1473  0.2326  0.0791
    1CHOL    C114327  29.870  13.951   4.940  0.2854  0.2559  0.1576
    1CHOL    C214328  29.986  13.632   4.674 -0.3633 -0.0015 -0.2216
    1CHOL   ROH14329  10.337  17.376   3.132  0.0570  0.1776 -0.0164
    1CHOL    R114330  10.171  17.557   3.272 -0.0378  0.0276  0.0677
    1CHOL    R214331   9.932  17.480   3.389  0.0950 -0.1936  0.2029
    1CHOL    R314332  10.043  17.590   3.612  0.1173 -0.0816  0.1370
    1CHOL    R414333   9.784  17.486   3.702  0.1907 -0.1634  0.2481
    1CHOL    R514334   9.859  17.689   3.727  0.1129 -0.1253  0.1652
    1CHOL    C114335   9.802  17.593   4.092  0.2675 -0.0404  0.2125
    1CHOL    C214336   9.763  17.427   4.459  0.2068  0.0188  0.1900
    1CHOL   ROH14337  14.835  10.047   6.165  0.0521 -0.2417  0.1321
    1CHOL    R114338  14.633   9.993   5.975  0.0490 -0.2988  0.1511
    1CHOL    R214339  14.605  10.139   5.742 -0.2108 -0.0925  0.3024
    1CHOL    R314340  14.618   9.893   5.626  0.0521  0.0332  0.0526
    1CHOL    R414341  14.455  10.053   5.443 -0.3633 -0.0283  0.3598
    1CHOL    R514342  14.401   9.861   5.530  0.0069 -0.1992  0.2279
    1CHOL    C114343  14.379   9.773   5.160 -0.2051  0.1271  0.1588
    1CHOL    C214344  14.314   9.624   4.830  0.0989  0.0184  0.2766
    1CHOL   ROH14345   6.542  19.935   3.165  0.1390  0.1529  0.1873
    1CHOL    R114346   6.571  19.810   3.417  0.0798  0.2826  0.2603
    1CHOL    R214347   6.440  19.900   3.644 -0.2109  0.2231  0.1247
    1CHOL    R314348   6.353  19.643   3.656  0.0743  0.1245  0.1447
    1CHOL    R414349   6.370  19.729   3.936  0.0128  0.1510  0.1372
    1CHOL    R514350   6.463  19.552   3.849  0.1981  0.2503  0.1327
    1CHOL    C114351   6.247  19.389   4.118  0.4108  0.0163  0.1633
    1CHOL    C214352   6.227  19.237   4.481 -0.1621 -0.1671  0.0003
    1CHOL   ROH14353   0.824  19.553   5.849 -0.0848 -0.1104 -0.1342
    1CHOL    R114354   0.948  19.692   5.636 -0.1872  0.0487 -0.0926
    1CHOL    R214355   1.011  19.570   5.396  0.2456  0.0646  0.0026
    1CHOL    R314356   0.866  19.775   5.291 -0.0863 -0.2601 -0.1937
    1CHOL    R414357   1.104  19.756   5.120  0.1587  0.2198  0.0771
    1CHOL    R514358   1.031  19.935   5.222 -0.3460  0.0892 -0.0323
    1CHOL    C114359   1.022  20.056   4.860 -0.2035  0.0056 -0.0639
    1CHOL    C214360   1.353  20.308   5.103 -0.0679 -0.0671 -0.0644
    1CHOL   ROH14361  14.178  19.800   3.388  0.0404 -0.2311 -0.1166
    1CHOL    R114362  14.180  19.892   3.656  0.1012  0.0129 -0.1993
    1CHOL    R214363  13.968  20.029   3.767  0.0602 -0.0317 -0.2284
    1CHOL    R314364  13.983  19.835   3.957  0.2785  0.1502 -0.0541
    1CHOL    R414365  13.848  20.060   4.090 -0.3146  0.0048 -0.3654
    1CHOL    R514366  14.026  19.955   4.160 -0.1552  0.4190 -0.1047
    1CHOL    C114367  13.793  19.895   4.456 -0.3279  0.1969 -0.2815
    1CHOL    C214368  13.832  20.230   4.607  0.3906 -0.0570 -0.1039
    1CHOL   ROH14369  25.229  25.256   3.507  0.1796 -0.0718 -0.0923
    1CHOL    R114370  25.152  25.076   3.712  0.1591 -0.1208 -0.1416
    1CHOL    R214371  25.336  24.934   3.862  0.1616  0.0853  0.0633
    1CHOL    R314372  25.204  25.047   4.071 -0.1628 -0.0115 -0.0841
    1CHOL    R414373  25.344  24.817   4.187 -0.0277  0.1644  0.0969
    1CHOL    R514374  25.131  24.861   4.203 -0.0912 -0.0601 -0.1167
    1CHOL    C114375  25.225  24.855   4.573 -0.4424  0.1196 -0.0219
    1CHOL    C214376  25.494  24.540   4.539 -0.1149 -0.0884 -0.1486
    1CHOL   ROH14377  28.092  10.625   3.066 -0.1126 -0.0087  0.0852
    1CHOL    R114378  28.101  10.814   3.277  0.0561 -0.0270  0.0990
    1CHOL    R214379  27.890  10.851   3.452  0.0069  0.2753  0.0003
    1CHOL    R314380  28.081  10.805   3.640 -0.1461 -0.0266  0.0861
    1CHOL    R414381  27.936  11.040   3.738  0.3690  0.3764 -0.1205
    1CHOL    R514382  28.151  11.024   3.709  0.3411 -0.1368 -0.0485
    1CHOL    C114383  28.141  11.107   4.081  0.4365  0.1518 -0.1102
    1CHOL    C214384  28.475  11.310   4.415  0.2411 -0.2524  0.1206
    1CHOL   ROH14385   7.088  14.768   6.831 -0.0514  0.0542 -0.0866
    1CHOL    R114386   7.056  14.819   6.554  0.0148  0.0075 -0.1033
    1CHOL    R214387   7.256  14.930   6.399  0.0777 -0.0832 -0.0903
    1CHOL    R314388   7.215  14.710   6.246  0.0399 -0.1032 -0.0512
    1CHOL    R414389   7.259  14.927   6.054 -0.0143 -0.1287 -0.0907
    1CHOL    R514390   7.089  14.790   6.059 -0.0104 -0.1299 -0.0281
    1CHOL    C114391   7.222  14.718   5.708 -0.1032 -0.1740 -0.0541
    1CHOL    C214392   7.180  14.863   5.326 -0.0248 -0.6073 -0.0155
    1CHOL   ROH14393   7.159  10.401   6.114 -0.0932  0.0317 -0.0709
    1CHOL    R114394   7.215  10.443   5.840  0.0061 -0.3140 -0.1088
    1CHOL    R214395   7.117  10.279   5.641 -0.4083 -0.2379  0.0229
    1CHOL    R314396   7.023  10.513   5.539  0.1558 -0.0722 -0.1511
    1CHOL    R414397   7.028  10.328   5.311 -0.4723 -0.3343  0.0252
    1CHOL    R514398   7.121  10.525   5.321  0.0716 -0.5572 -0.2283
    1CHOL    C114399   6.889  10.577   5.022  0.0199 -0.2349 -0.1368
    1CHOL    C214400   6.530  10.737   4.825  0.1061  0.1044 -0.0069
    1CHOL   ROH14401   7.791  19.466   3.033  0.2568  0.0903 -0.1135
    1CHOL    R114402   7.758  19.405   3.308  0.0722  0.0951 -0.1336
    1CHOL    R214403   7.965  19.420   3.490  0.0086 -0.1334 -0.0393
    1CHOL    R314404   7.793  19.582   3.624  0.1106  0.0289 -0.1004
    1CHOL    R414405   7.911  19.412   3.831 -0.1225 -0.0884 -0.0584
    1CHOL    R514406   7.698  19.441   3.793 -0.0842  0.1130 -0.1352
    1CHOL    C114407   7.717  19.559   4.156 -0.1032  0.0903 -0.1267
    1CHOL    C214408   7.620  19.547   4.554 -0.0556 -0.0021 -0.2332
    1CHOL   ROH14409  27.570  17.381   5.387 -0.0087  0.0119 -0.0337
    1CHOL    R114410  27.687  17.474   5.147  0.2831 -0.0848  0.0652
    1CHOL    R214411  27.873  17.328   5.005 -0.0310 -0.4508  0.0050
    1CHOL    R314412  27.699  17.365   4.800  0.0913  0.1354 -0.0134
    1CHOL    R414413  27.950  17.283   4.671 -0.1093 -0.5342 -0.0027
    1CHOL    R514414  27.833  17.461   4.626  0.3998 -0.1663  0.0470
    1CHOL    C114415  27.831  17.293   4.284 -0.0400 -0.0327 -0.0245
    1CHOL    C214416  27.902  17.567   4.157 -0.2612 -0.1957 -0.0532
    1CHOL   ROH14417   2.864  14.537   6.270 -0.0464 -0.1353 -0.0461
    1CHOL    R114418   2.890  14.600   5.995 -0.0124 -0.1689 -0.0507
    1CHOL    R214419   3.110  14.732   5.893 -0.1400  0.0987  0.0110
    1CHOL    R314420   3.122  14.518   5.726  0.2143  0.0673  0.0681
    1CHOL    R414421   3.145  14.750   5.550 -0.1626  0.0639  0.0070
    1CHOL    R514422   3.002  14.588   5.531  0.1009 -0.1800  0.0463
    1CHOL    C114423   3.176  14.560   5.193  0.1569  0.0141  0.0581
    1CHOL    C214424   3.037  14.657   4.900 -0.1109  0.0922  0.0646
    1CHOL   ROH14425  27.716   0.286   5.107 -0.1798  0.1514 -0.0900
    1CHOL    R114426  27.893   0.505   5.085 -0.1417  0.1122 -0.1857
    1CHOL    R214427  28.046   0.594   5.298 -0.1945  0.2382 -0.1957
    1CHOL    R314428  28.251   0.560   5.122 -0.1459  0.0838 -0.1099
    1CHOL    R414429  28.362   0.729   5.334 -0.1280  0.0622 -0.1102
    1CHOL    R514430  28.364   0.771   5.120 -0.0219  0.0156 -0.1153
    1CHOL    C114431  28.739   0.776   5.191 -0.0439 -0.1851  0.0202
    1CHOL    C214432  29.112   0.640   5.394  0.0220 -0.1173 -0.2658
    1CHOL   ROH14433  18.927   3.961   4.074  0.1054 -0.0891  0.0449
    1CHOL    R114434  18.725   3.971   4.272  0.0613 -0.0052 -0.0026
    1CHOL    R214435  18.518   3.788   4.283  0.0302  0.0259  0.0020
    1CHOL    R314436  18.605   3.754   4.538 -0.0286  0.0842  0.0294
    1CHOL    R414437  18.326   3.666   4.543  0.0089 -0.0279 -0.0396
    1CHOL    R514438  18.417   3.814   4.674 -0.0892  0.0193 -0.0282
    1CHOL    C114439  18.296   3.562   4.934 -0.0588 -0.0043 -0.0382
    1CHOL    C214440  18.186   3.484   5.336 -0.0115  0.3444 -0.0403
    1CHOL   ROH14441   0.365   4.523   5.087 -0.0416 -0.1001  0.1072
    1CHOL    R114442   0.504   4.280   5.129 -0.1038 -0.1585 -0.0237
    1CHOL    R214443   0.565   4.106   4.923  0.0298  0.0356 -0.1474
    1CHOL    R314444   0.818   4.132   5.020 -0.0376 -0.0903  0.0710
    1CHOL    R414445   0.837   3.917   4.821  0.1043  0.1814 -0.2244
    1CHOL    R514446   0.902   3.908   5.029 -0.0418 -0.1073 -0.1836
    1CHOL    C114447   1.232   3.832   4.853  0.0845  0.1482 -0.0642
    1CHOL    C214448   1.529   3.672   4.897  0.3317 -0.3147 -0.1213
    1CHOL   ROH14449   8.717  10.410   3.509 -0.0336  0.0454 -0.1071
    1CHOL    R114450   8.820  10.381   3.771 -0.1548  0.0585 -0.0578
    1CHOL    R214451   8.657  10.356   3.993 -0.2592 -0.1985 -0.1617
    1CHOL    R314452   8.804  10.132   4.036 -0.0419 -0.0592 -0.1598
    1CHOL    R414453   8.755  10.240   4.304 -0.1594 -0.1063 -0.1579
    1CHOL    R514454   8.949  10.189   4.218 -0.1026  0.0814 -0.1522
    1CHOL    C114455   8.950   9.961   4.524  0.1028  0.0782 -0.1539
    1CHOL    C214456   9.132   9.794   4.762 -0.1511 -0.1803 -0.2001
    1CHOL   ROH14457  21.955  11.309   3.567 -0.1827 -0.0961  0.0171
    1CHOL    R114458  22.177  11.135   3.581  0.0152  0.1601  0.1275
    1CHOL    R214459  22.331  11.106   3.809 -0.3321  0.0264  0.3472
    1CHOL    R314460  22.273  10.843   3.777  0.0465 -0.0121 -0.1373
    1CHOL    R414461  22.514  10.846   3.942 -0.3359  0.0781  0.4573
    1CHOL    R514462  22.486  10.737   3.756  0.2383  0.2720  0.2327
    1CHOL    C114463  22.567  10.446   3.989  0.0175  0.0722  0.0665
    1CHOL    C214464  22.690  10.186   4.109 -0.0287  0.3880 -0.1237
    1CHOL   ROH14465  21.423  13.658   5.228 -0.0274  0.1409 -0.0570
    1CHOL    R114466  21.422  13.836   5.009  0.0826  0.1057 -0.0872
    1CHOL    R214467  21.540  13.775   4.767  0.0838  0.0100 -0.0653
    1CHOL    R314468  21.294  13.836   4.668  0.1226  0.1078 -0.1014
    1CHOL    R414469  21.479  13.886   4.445  0.1495 -0.1503 -0.1342
    1CHOL    R514470  21.333  14.026   4.527  0.2418 -0.0053 -0.2209
    1CHOL    C114471  21.213  14.009   4.166  0.2245 -0.1518 -0.2082
    1CHOL    C214472  21.020  14.393   4.130  0.1010  0.0337  0.2836
    1CHOL   ROH14473   9.994  22.143   3.374  0.1267  0.0857 -0.0174
    1CHOL    R114474   9.953  22.323   3.588  0.0886  0.0899 -0.0284
    1CHOL    R214475  10.004  22.254   3.851 -0.0281  0.0710 -0.0111
    1CHOL    R314476  10.159  22.478   3.846  0.0285  0.0340  0.0545
    1CHOL    R414477  10.171  22.386   4.124 -0.0673 -0.0030  0.0488
    1CHOL    R514478  10.115  22.585   4.055 -0.0008  0.0199  0.0566
    1CHOL    C114479  10.413  22.673   4.278 -0.0367 -0.0806  0.1454
    1CHOL    C214480  10.523  22.988   4.483  0.0077 -0.0665 -0.2049
    1CHOL   ROH14481  25.637  10.217   5.253  0.2278 -0.0502  0.0869
    1CHOL    R114482  25.727  10.344   5.017  0.1884 -0.1759  0.0038
    1CHOL    R214483  25.656  10.258   4.764 -0.0624 -0.1564  0.0683
    1CHOL    R314484  25.575  10.516   4.734  0.1565 -0.0839  0.0757
    1CHOL    R414485  25.658  10.434   4.466  0.1546 -0.1250  0.0862
    1CHOL    R514486  25.727  10.609   4.576  0.2737 -0.1918  0.1218
    1CHOL    C114487  25.584  10.778   4.266  0.4865 -0.0386  0.1035
    1CHOL    C214488  25.854  11.028   4.080 -0.0277 -0.4215 -0.0236
    1CHOL   ROH14489   6.242  23.865   3.970  0.1084 -0.0680  0.1609
    1CHOL    R114490   6.286  24.059   4.172 -0.0190  0.1486 -0.0153
    1CHOL    R214491   6.082  24.214   4.276 -0.2103 -0.2082  0.1572
    1CHOL    R314492   6.173  24.116   4.513  0.3151  0.1135  0.1053
    1CHOL    R414493   6.051  24.375   4.581 -0.3686 -0.1906  0.1328
    1CHOL    R514494   6.253  24.309   4.630 -0.1124  0.3975 -0.0417
    1CHOL    C114495   6.118  24.376   4.981  0.0325  0.1219  0.0698
    1CHOL    C214496   5.974  24.632   5.185 -0.1477 -0.0864  0.1282
    1CHOL   ROH14497  16.076  21.782   3.443  0.1430  0.0739  0.0130
    1CHOL    R114498  15.916  21.847   3.668  0.0122  0.0326 -0.0658
    1CHOL    R214499  16.019  21.970   3.893 -0.0906 -0.1179  0.0717
    1CHOL    R314500  15.820  22.150   3.845  0.0204 -0.0117  0.0119
    1CHOL    R414501  15.841  22.138   4.137 -0.2111 -0.1677  0.0179
    1CHOL    R514502  15.661  22.110   4.019 -0.1303 -0.0312 -0.1336
    1CHOL    C114503  15.552  22.404   4.235 -0.1770 -0.0966 -0.0696
    1CHOL    C214504  15.209  22.368   4.494  0.3533  0.0086  0.1245
    1CHOL   ROH14505   0.663  11.679   2.733  0.3887 -0.3332  0.2049
    1CHOL    R114506   0.685  11.606   3.006  0.0437 -0.2477  0.2591
    1CHOL    R214507   0.700  11.792   3.209 -0.0281 -0.1858  0.1985
    1CHOL    R314508   0.489  11.654   3.309 -0.2423  0.0164  0.0423
    1CHOL    R414509   0.575  11.826   3.530 -0.2252 -0.0598  0.1117
    1CHOL    R514510   0.549  11.610   3.537 -0.4429 -0.0441  0.0915
    1CHOL    C114511   0.304  11.715   3.810 -0.5411  0.2033 -0.0854
    1CHOL    C214512   0.300  11.633   4.247 -0.1275 -0.0624  0.2016
    1CHOL   ROH14513  11.991  13.354   3.586  0.0434 -0.1416 -0.0094
    1CHOL    R114514  12.031  13.442   3.852  0.2044 -0.1893 -0.0164
    1CHOL    R214515  11.825  13.461   4.036  0.2358  0.1745 -0.0069
    1CHOL    R314516  11.988  13.303   4.185 -0.0208 -0.0982 -0.0066
    1CHOL    R414517  11.879  13.497   4.375  0.1256 -0.0640  0.0375
    1CHOL    R514518  12.090  13.453   4.342  0.0887 -0.2994  0.1159
    1CHOL    C114519  12.064  13.369   4.713 -0.1796 -0.4587  0.0637
    1CHOL    C214520  12.240  13.024   4.928  0.2458  0.0444 -0.2532
    1CHOL   ROH14521  13.293   8.703   6.132 -0.2474  0.1333  0.0883
    1CHOL    R114522  13.279   8.717   5.849  0.0620  0.1637  0.0692
    1CHOL    R214523  13.041   8.686   5.710  0.2673 -0.2713 -0.2248
    1CHOL    R314524  13.112   8.926   5.603 -0.0608 -0.1014 -0.0736
    1CHOL    R414525  12.951   8.796   5.395  0.1554 -0.1971 -0.1666
    1CHOL    R514526  13.151   8.878   5.372  0.0376  0.1028 -0.0951
    1CHOL    C114527  12.965   9.085   5.111 -0.2177  0.0056  0.0092
    1CHOL    C214528  13.119   9.358   4.886  0.0241  0.1616 -0.0547
    1CHOL   ROH14529  12.486  15.685   5.852  0.0940 -0.2000 -0.0753
    1CHOL    R114530  12.570  15.835   5.628  0.1054 -0.2008 -0.0714
    1CHOL    R214531  12.454  15.809   5.379  0.0776 -0.1588 -0.0634
    1CHOL    R314532  12.421  16.078   5.401  0.1348 -0.1533 -0.0396
    1CHOL    R414533  12.394  16.023   5.114 -0.3138 -0.1784  0.0040
    1CHOL    R514534  12.529  16.167   5.207 -0.1563 -0.1809 -0.2179
    1CHOL    C114535  12.327  16.400   4.981 -0.4882 -0.1847  0.0655
    1CHOL    C214536  12.301  16.760   4.811  0.2225  0.3485 -0.2380
    1CHOL   ROH14537   0.082  17.931   2.492 -0.0963 -0.0105 -0.0093
    1CHOL    R114538   0.002  17.756   2.700 -0.0479  0.0176  0.0329
    1CHOL    R214539   0.136  17.740   2.941  0.0234  0.0310 -0.0084
    1CHOL    R314540  -0.110  17.788   3.044  0.0594  0.0604  0.0653
    1CHOL    R414541   0.034  17.650   3.259  0.0169 -0.2354 -0.0831
    1CHOL    R514542  -0.159  17.594   3.175 -0.0260 -0.0508 -0.1224
    1CHOL    C114543  -0.257  17.644   3.541  0.0468 -0.3629 -0.0574
    1CHOL    C214544  -0.237  17.739   3.970  0.1755  0.0891  0.0793
    1CHOL   ROH14545   5.426  21.750   3.205  0.0947  0.1340 -0.0391
    1CHOL    R114546   5.402  21.711   3.484  0.1148 -0.0302 -0.0606
    1CHOL    R214547   5.605  21.601   3.637  0.2610  0.2079 -0.0875
    1CHOL    R314548   5.572  21.828   3.784 -0.1039  0.0957  0.0189
    1CHOL    R414549   5.578  21.612   3.982  0.2256 -0.0061 -0.0812
    1CHOL    R514550   5.424  21.764   3.961 -0.0205 -0.2304 -0.0157
    1CHOL    C114551   5.533  21.832   4.320 -0.1375 -0.2361  0.0223
    1CHOL    C214552   5.592  21.996   4.713 -0.1993  0.1962 -0.0471
    1CHOL   ROH14553   5.178  15.835   6.329 -0.1140  0.2479 -0.2081
    1CHOL    R114554   5.249  15.885   6.059 -0.1561  0.2236 -0.2233
    1CHOL    R214555   5.369  15.694   5.900  0.0609  0.2937 -0.1425
    1CHOL    R314556   5.161  15.749   5.734  0.0071  0.0018 -0.1780
    1CHOL    R414557   5.366  15.633   5.559  0.1558  0.1640 -0.1213
    1CHOL    R514558   5.265  15.823   5.531 -0.0580  0.0453 -0.1980
    1CHOL    C114559   5.169  15.649   5.205  0.1605 -0.1856 -0.1422
    1CHOL    C214560   5.027  15.514   4.885  0.0233 -0.0715 -0.0160
    1CHOL   ROH14561  25.776  20.611   5.356  0.0727 -0.0793  0.1829
    1CHOL    R114562  25.765  20.400   5.168 -0.0346 -0.0043  0.1041
    1CHOL    R214563  25.639  20.426   4.924  0.0131  0.1642  0.0959
    1CHOL    R314564  25.880  20.344   4.827 -0.0243  0.0485  0.0986
    1CHOL    R414565  25.730  20.429   4.590  0.0078  0.0931  0.0935
    1CHOL    R514566  25.827  20.237   4.620 -0.0766  0.0522  0.1095
    1CHOL    C114567  26.009  20.355   4.306 -0.0308 -0.0570  0.0946
    1CHOL    C214568  26.327  20.390   4.163 -0.1974  0.0653 -0.2751
    1CHOL   ROH14569   1.297  18.479   2.729 -0.0763 -0.2503 -0.0562
    1CHOL    R114570   1.257  18.607   2.979  0.0724 -0.1762 -0.0693
    1CHOL    R214571   1.048  18.543   3.147 -0.0352  0.1197 -0.0862
    1CHOL    R314572   1.247  18.508   3.329 -0.0991 -0.1396 -0.0621
    1CHOL    R414573   1.026  18.624   3.482  0.0738  0.2960 -0.1207
    1CHOL    R514574   1.231  18.699   3.472  0.2065 -0.0458 -0.1413
    1CHOL    C114575   1.200  18.639   3.848  0.0774  0.1553 -0.1182
    1CHOL    C214576   0.872  18.479   3.976 -0.0830 -0.1723  0.0669
    1CHOL   ROH14577   2.850  10.485   6.485 -0.1000 -0.2895 -0.1108
    1CHOL    R114578   2.751  10.413   6.230  0.0688 -0.2114 -0.1989
    1CHOL    R214579   2.574  10.571   6.088 -0.0256 -0.2843 -0.1549
    1CHOL    R314580   2.763  10.550   5.893  0.0690  0.0284 -0.1045
    1CHOL    R414581   2.520  10.637   5.753 -0.0076 -0.2156 -0.1451
    1CHOL    R514582   2.643  10.464   5.704  0.2298 -0.0493 -0.1775
    1CHOL    C114583   2.666  10.656   5.376  0.0917  0.1181 -0.0921
    1CHOL    C214584   2.572  10.669   5.036  0.1747 -0.3282  0.0245
    1CHOL   ROH14585  27.099  14.053   5.598 -0.2068  0.1654  0.0841
    1CHOL    R114586  26.986  14.066   5.339 -0.1534  0.0546  0.0553
    1CHOL    R214587  27.125  14.158   5.120 -0.1522  0.0852  0.0723
    1CHOL    R314588  27.053  13.918   5.013 -0.0011  0.0271  0.0976
    1CHOL    R414589  27.056  14.103   4.786 -0.2971  0.0562  0.1059
    1CHOL    R514590  26.891  13.974   4.846 -0.1513 -0.0988  0.1945
    1CHOL    C114591  26.949  13.847   4.491 -0.2396 -0.0151  0.1492
    1CHOL    C214592  26.965  13.808   4.137  0.1553  0.2246 -0.1695
    1CHOL   ROH14593  16.941  14.363   5.132  0.1195  0.1020 -0.2018
    1CHOL    R114594  16.929  14.530   4.903 -0.1576  0.0937 -0.1976
    1CHOL    R214595  16.938  14.430   4.646 -0.0631  0.1089 -0.2011
    1CHOL    R314596  16.708  14.571   4.617 -0.2737 -0.2134 -0.1562
    1CHOL    R414597  16.818  14.552   4.346  0.0900  0.5525 -0.0894
    1CHOL    R514598  16.760  14.735   4.450 -0.3414  0.2444  0.2467
    1CHOL    C114599  16.533  14.756   4.144 -0.0185  0.5082  0.0179
    1CHOL    C214600  16.412  14.561   3.833  0.2794 -0.1222  0.0345
    1CHOL   ROH14601  12.919  17.949   3.228 -0.1499  0.1341 -0.1114
    1CHOL    R114602  13.020  18.097   3.448 -0.2516  0.1339 -0.0638
    1CHOL    R214603  12.856  18.235   3.622 -0.3586 -0.1246  0.0474
    1CHOL    R314604  12.985  18.088   3.810 -0.1544 -0.0833 -0.0584
    1CHOL    R414605  12.890  18.324   3.954 -0.0931 -0.1055  0.0169
    1CHOL    R514606  13.094  18.250   3.948 -0.0773 -0.0500 -0.1580
    1CHOL    C114607  13.032  18.237   4.324  0.2532 -0.0555 -0.1001
    1CHOL    C214608  12.929  17.968   4.624  0.3450  0.0084 -0.2007
    1CHOL   ROH14609  27.535  10.306   5.903 -0.0796 -0.0199 -0.1533
    1CHOL    R114610  27.579  10.536   5.744 -0.1720 -0.0322 -0.1983
    1CHOL    R214611  27.831  10.637   5.694 -0.2255  0.2644  0.0719
    1CHOL    R314612  27.754  10.614   5.435  0.1174  0.0447 -0.0172
    1CHOL    R414613  27.994  10.781   5.426 -0.1492  0.4396  0.2110
    1CHOL    R514614  27.800  10.829   5.340 -0.1289  0.0879 -0.0354
    1CHOL    C114615  28.017  10.844   5.027  0.2168  0.3355  0.2084
    1CHOL    C214616  28.048  10.976   4.672 -0.0347  0.1052 -0.4506
    1CHOL   ROH14617   0.800  12.789   2.743  0.1559  0.0238  0.0297
    1CHOL    R114618   0.894  12.798   3.010 -0.0248  0.0570  0.0941
    1CHOL    R214619   0.756  12.926   3.212 -0.1457  0.1149 -0.0209
    1CHOL    R314620   0.778  12.685   3.335 -0.2665  0.1324  0.0352
    1CHOL    R414621   0.638  12.855   3.529 -0.0247  0.2944  0.0658
    1CHOL    R514622   0.819  12.739   3.565 -0.0962  0.1637 -0.0033
    1CHOL    C114623   0.589  12.588   3.829 -0.0677  0.4155  0.1689
    1CHOL    C214624   0.489  12.833   4.131  0.0091  0.0869  0.0180
    1CHOL   ROH14625   5.408  18.591   2.822  0.0001  0.0981  0.0459
    1CHOL    R114626   5.425  18.662   3.096 -0.0372  0.1643  0.0315
    1CHOL    R214627   5.203  18.712   3.251 -0.0719 -0.0476  0.0544
    1CHOL    R314628   5.313  18.523   3.413  0.1547  0.0955  0.0712
    1CHOL    R414629   5.122  18.667   3.584  0.0321 -0.0678  0.0767
    1CHOL    R514630   5.334  18.632   3.625  0.0783  0.1599  0.0467
    1CHOL    C114631   5.179  18.463   3.930  0.3054  0.0550  0.1053
    1CHOL    C214632   5.318  18.381   4.299  0.1332 -0.2171 -0.2258
    1CHOL   ROH14633   7.864  28.707   6.584  0.0753 -0.1143 -0.0486
    1CHOL    R114634   8.027  28.800   6.371 -0.0201  0.0399 -0.0551
    1CHOL    R214635   8.076  29.068   6.328 -0.0276  0.0702  0.1275
    1CHOL    R314636   8.336  28.989   6.338 -0.0255  0.0496 -0.0570
    1CHOL    R414637   8.336  29.227   6.166 -0.0968  0.2020  0.1438
    1CHOL    R514638   8.419  29.031   6.117 -0.1252  0.2370 -0.0626
    1CHOL    C114639   8.732  29.246   6.081 -0.1352  0.2594 -0.0198
    1CHOL    C214640   8.833  29.516   5.758 -0.1453 -0.1889 -0.0568
    1CHOL   ROH14641  15.482  24.174   6.208 -0.1642  0.1102  0.0283
    1CHOL    R114642  15.383  24.205   5.945 -0.0507  0.0991 -0.0163
    1CHOL    R214643  15.493  24.072   5.729 -0.0388 -0.0105  0.0544
    1CHOL    R314644  15.236  23.990   5.691 -0.0685  0.1144 -0.0182
    1CHOL    R414645  15.324  24.084   5.427  0.1788 -0.2781 -0.0824
    1CHOL    R514646  15.146  24.148   5.535  0.1443 -0.0191 -0.2851
    1CHOL    C114647  14.985  24.014   5.216  0.2776 -0.3167 -0.2303
    1CHOL    C214648  14.765  23.795   4.949 -0.1288  0.0409 -0.1157
    1CHOL   ROH14649  23.442   2.512   5.186 -0.0672 -0.0134  0.1944
    1CHOL    R114650  23.542   2.645   5.415  0.0176 -0.0936  0.2025
    1CHOL    R214651  23.807   2.719   5.441 -0.0025 -0.0021  0.0776
    1CHOL    R314652  23.700   2.964   5.488 -0.0679 -0.0654  0.2781
    1CHOL    R414653  23.946   2.959   5.647  0.3134  0.1096 -0.2526
    1CHOL    R514654  23.746   3.006   5.719  0.4230 -0.0131  0.1887
    1CHOL    C114655  23.926   3.329   5.811  0.4358  0.1152 -0.2564
    1CHOL    C214656  23.803   3.550   6.123  0.1493  0.0724 -0.2023
    1CHOL   ROH14657  10.662  11.745   6.476 -0.2385 -0.0777  0.0362
    1CHOL    R114658  10.619  11.630   6.221 -0.1424  0.0462 -0.0371
    1CHOL    R214659  10.596  11.782   5.991  0.0141  0.1560  0.0147
    1CHOL    R314660  10.796  11.620   5.903  0.0156  0.1406  0.0476
    1CHOL    R414661  10.665  11.713   5.659  0.0048  0.0623  0.0320
    1CHOL    R514662  10.703  11.506   5.714  0.0159  0.0834  0.0856
    1CHOL    C114663  10.892  11.520   5.384  0.0008 -0.0066  0.0730
    1CHOL    C214664  10.849  11.364   5.060  0.2351 -0.1513 -0.2169
    1CHOL   ROH14665  12.021  11.742   3.392  0.2318  0.2541 -0.2317
    1CHOL    R114666  12.183  11.864   3.589  0.0982  0.3325 -0.1699
    1CHOL    R214667  12.095  12.077   3.742 -0.1979  0.0624  0.0497
    1CHOL    R314668  12.166  11.916   3.949  0.1169 -0.0188 -0.1144
    1CHOL    R414669  12.188  12.187   4.056 -0.1774 -0.0694  0.0906
    1CHOL    R514670  12.342  12.034   4.060  0.0255  0.1213 -0.1134
    1CHOL    C114671  12.308  12.099   4.434  0.1301 -0.2223 -0.0396
    1CHOL    C214672  12.408  12.050   4.726 -0.1140 -0.1251  0.0904
    1CHOL   ROH14673  11.066  12.125   3.584 -0.0608  0.1994 -0.0503
    1CHOL    R114674  11.085  12.283   3.818 -0.0456  0.1211  0.0015
    1CHOL    R214675  10.964  12.212   4.056  0.0035  0.0211 -0.0036
    1CHOL    R314676  11.215  12.242   4.155  0.0153  0.0232 -0.0336
    1CHOL    R414677  11.045  12.214   4.392  0.0473 -0.0045 -0.0137
    1CHOL    R514678  11.186  12.375   4.352  0.0353  0.0051 -0.0181
    1CHOL    C114679  11.328  12.243   4.681  0.0839 -0.0174 -0.0476
    1CHOL    C214680  11.558  12.112   5.038 -0.0205 -0.0312 -0.0578
    1CHOL   ROH14681   0.756  19.049   5.864 -0.0448  0.1032 -0.0416
    1CHOL    R114682   0.857  19.168   5.627  0.0005  0.1034 -0.0221
    1CHOL    R214683   1.111  19.117   5.532  0.0132  0.0911  0.0183
    1CHOL    R314684   0.978  19.053   5.304  0.0466  0.1044 -0.0053
    1CHOL    R414685   1.257  19.086   5.220  0.1165 -0.2141  0.0937
    1CHOL    R514686   1.083  19.186   5.134  0.2498 -0.0858 -0.0317
    1CHOL    C114687   1.216  19.007   4.825  0.2081 -0.3794  0.1154
    1CHOL    C214688   1.248  18.964   4.398 -0.0104  0.1971 -0.0730
    1CHOL   ROH14689  26.114  13.955   2.124 -0.2427 -0.0401  0.0540
    1CHOL    R114690  26.118  13.975   2.406 -0.0744 -0.0356  0.0526
    1CHOL    R214691  26.342  13.914   2.556 -0.0220 -0.1617 -0.0681
    1CHOL    R314692  26.304  14.164   2.655  0.1754 -0.1354 -0.0564
    1CHOL    R414693  26.259  13.986   2.884 -0.3051 -0.1292 -0.1442
    1CHOL    R514694  26.123  14.140   2.810 -0.0325  0.0558 -0.2653
    1CHOL    C114695  26.176  14.263   3.168 -0.2846 -0.0857 -0.1775
    1CHOL    C214696  26.201  14.051   3.578  0.2614  0.1503  0.0484
    1CHOL   ROH14697   3.956  17.506   5.979 -0.0441  0.0250 -0.0156
    1CHOL    R114698   4.062  17.608   5.737  0.0330 -0.0043  0.0037
    1CHOL    R214699   4.286  17.502   5.616 -0.0138 -0.1201  0.0038
    1CHOL    R314700   4.121  17.482   5.401 -0.0154 -0.0003 -0.0046
    1CHOL    R414701   4.378  17.571   5.290 -0.0571  0.1627  0.0505
    1CHOL    R514702   4.184  17.667   5.261 -0.0822  0.1246  0.1351
    1CHOL    C114703   4.277  17.594   4.898 -0.0838  0.4400  0.0698
    1CHOL    C214704   4.526  17.578   4.569  0.0393  0.1489  0.1619
    1CHOL   ROH14705  17.865  25.557   4.187 -0.0672  0.2118  0.0747
    1CHOL    R114706  17.748  25.419   4.404 -0.0700  0.0602 -0.0218
    1CHOL    R214707  17.529  25.253   4.374 -0.0232  0.0183 -0.1520
    1CHOL    R314708  17.690  25.071   4.496  0.0036 -0.0072 -0.2258
    1CHOL    R414709  17.433  25.048   4.635  0.0616  0.0243 -0.1161
    1CHOL    R514710  17.628  25.082   4.727  0.1052 -0.0057 -0.1990
    1CHOL    C114711  17.528  24.758   4.902  0.1361  0.0037 -0.1646
    1CHOL    C214712  17.305  24.638   5.228  0.1112 -0.1240  0.1826
    1CHOL   ROH14713  26.589  11.432   2.819 -0.2215  0.0068  0.0879
    1CHOL    R114714  26.664  11.575   3.051 -0.2041  0.0299  0.0689
    1CHOL    R214715  26.478  11.691   3.221 -0.2004 -0.0734  0.1493
    1CHOL    R314716  26.607  11.544   3.410 -0.0530 -0.0235  0.0885
    1CHOL    R414717  26.456  11.743   3.561  0.0943  0.0358  0.1542
    1CHOL    R514718  26.669  11.703   3.577  0.1037  0.0229 -0.0136
    1CHOL    C114719  26.564  11.636   3.937  0.4045  0.1461  0.1001
    1CHOL    C214720  26.713  11.891   4.231 -0.0543 -0.4692  0.3650
    1CHOL   ROH14721   8.112  20.137   6.093 -0.1832 -0.1130  0.1475
    1CHOL    R114722   8.283  19.987   5.924 -0.0314 -0.0044  0.2030
    1CHOL    R214723   8.366  19.731   5.986 -0.1273 -0.0617  0.0930
    1CHOL    R314724   8.265  19.673   5.741  0.1127  0.1359 -0.0585
    1CHOL    R414725   8.489  19.486   5.776 -0.1348 -0.1311  0.1688
    1CHOL    R514726   8.458  19.622   5.608  0.2298 -0.0357  0.1683
    1CHOL    C114727   8.465  19.288   5.423  0.0860  0.0139  0.0707
    1CHOL    C214728   8.354  18.981   5.294 -0.1048 -0.1769  0.1212
    1CHOL   ROH14729   3.785  14.667   2.856  0.3283  0.0753 -0.0221
    1CHOL    R114730   3.651  14.727   3.098  0.1256  0.0783 -0.1333
    1CHOL    R214731   3.731  14.624   3.342 -0.1612 -0.0287 -0.0834
    1CHOL    R314732   3.735  14.886   3.415 -0.0961 -0.0500 -0.0059
    1CHOL    R414733   3.652  14.743   3.657  0.2229 -0.1400  0.0616
    1CHOL    R514734   3.548  14.910   3.562  0.0825 -0.1174  0.2421
    1CHOL    C114735   3.610  15.058   3.908  0.5076 -0.2248  0.2187
    1CHOL    C214736   3.523  15.246   4.210 -0.1812 -0.2674 -0.0428
    1CHOL   ROH14737  19.944  12.393   5.290 -0.1118 -0.0339  0.0050
    1CHOL    R114738  20.013  12.178   5.119 -0.1358 -0.0368 -0.0007
    1CHOL    R214739  19.827  11.998   5.024 -0.1829  0.0832 -0.1358
    1CHOL    R314740  19.927  12.071   4.782 -0.0140  0.0765 -0.0697
    1CHOL    R414741  19.989  11.785   4.805 -0.1380  0.0455 -0.0669
    1CHOL    R514742  20.130  11.945   4.761 -0.0485 -0.0012  0.0345
    1CHOL    C114743  20.177  11.730   4.450  0.0466  0.0174  0.0354
    1CHOL    C214744  19.917  11.330   4.460  0.1005  0.0831  0.1581
    1CHOL   ROH14745  24.360  15.131   4.688 -0.1199 -0.3528 -0.0062
    1CHOL    R114746  24.446  15.157   4.420 -0.1290  0.1192  0.0276
    1CHOL    R214747  24.424  14.951   4.237  0.2405  0.2976 -0.2244
    1CHOL    R314748  24.292  15.138   4.090 -0.0619  0.2583 -0.0129
    1CHOL    R414749  24.358  14.926   3.899  0.1981  0.5289 -0.2351
    1CHOL    R514750  24.405  15.138   3.879 -0.1064  0.6218 -0.0436
    1CHOL    C114751  24.195  15.088   3.564 -0.1108  0.6266 -0.0429
    1CHOL    C214752  24.173  15.062   3.247 -0.1460  0.0344  0.0308
    1CHOL   ROH14753  10.196  15.135   3.243  0.1784 -0.0611 -0.0118
    1CHOL    R114754  10.023  15.142   3.466  0.0515  0.2324 -0.1147
    1CHOL    R214755  10.065  14.989   3.693 -0.3924  0.0784 -0.1247
    1CHOL    R314756  10.048  15.230   3.818  0.0215  0.0889 -0.0762
    1CHOL    R414757  10.091  15.036   4.034 -0.1124 -0.0028 -0.1323
    1CHOL    R514758   9.930  15.183   4.021  0.0809  0.2257 -0.0090
    1CHOL    C114759  10.090  15.288   4.351  0.4392 -0.0403 -0.0913
    1CHOL    C214760  10.263  15.435   4.624 -0.0636 -0.1853 -0.2499
    1CHOL   ROH14761   9.592   9.703   5.393 -0.0877 -0.1357 -0.0412
    1CHOL    R114762   9.555   9.658   5.116  0.1028 -0.1644 -0.0630
    1CHOL    R214763   9.709   9.479   4.972  0.0168 -0.3894  0.1224
    1CHOL    R314764   9.466   9.377   4.903 -0.0501 -0.1170 -0.0635
    1CHOL    R414765   9.660   9.224   4.744 -0.0894 -0.3814  0.1351
    1CHOL    R514766   9.486   9.331   4.669  0.0993 -0.1879 -0.0392
    1CHOL    C114767   9.404   8.979   4.547 -0.2138 -0.1208 -0.0322
    1CHOL    C214768   9.491   8.654   4.364  0.1828  0.0443 -0.2436
    1CHOL   ROH14769  25.056  18.399   1.869  0.1758 -0.0004 -0.0756
    1CHOL    R114770  25.140  18.290   2.116  0.0346  0.0365 -0.0107
    1CHOL    R214771  25.011  18.344   2.354 -0.1977 -0.0549 -0.1166
    1CHOL    R314772  24.999  18.073   2.372 -0.0488 -0.0647 -0.1400
    1CHOL    R414773  25.082  18.161   2.639 -0.1803 -0.0293 -0.1038
    1CHOL    R514774  25.183  18.015   2.513 -0.0550  0.0340 -0.0852
    1CHOL    C114775  25.112  17.800   2.821 -0.0302 -0.0236 -0.1183
    1CHOL    C214776  25.223  17.515   2.973 -0.1157 -0.0413 -0.2041
    1CHOL   ROH14777  27.207  20.545   2.391 -0.0064  0.0410 -0.1516
    1CHOL    R114778  27.141  20.378   2.610 -0.1391  0.1465 -0.1109
    1CHOL    R214779  27.330  20.286   2.790 -0.1958 -0.0424 -0.1506
    1CHOL    R314780  27.163  20.397   2.973 -0.0228  0.1728 -0.1180
    1CHOL    R414781  27.365  20.257   3.132 -0.1564 -0.0797 -0.1573
    1CHOL    R514782  27.149  20.234   3.147 -0.1884  0.1890 -0.1116
    1CHOL    C114783  27.228  20.344   3.504  0.0291  0.1007 -0.1306
    1CHOL    C214784  27.387  19.993   3.778  0.2764  0.1092  0.1496
    1CHOL   ROH14785   8.414  15.345   3.009  0.0908 -0.3772 -0.1269
    1CHOL    R114786   8.393  15.331   3.291  0.1744 -0.2903 -0.1151
    1CHOL    R214787   8.567  15.182   3.447  0.2503 -0.2041 -0.1145
    1CHOL    R314788   8.602  15.418   3.577  0.2385 -0.1545 -0.2025
    1CHOL    R414789   8.677  15.214   3.772  0.1498 -0.0865 -0.0924
    1CHOL    R514790   8.532  15.374   3.801  0.1602 -0.0544 -0.2056
    1CHOL    C114791   8.773  15.455   4.084  0.0801  0.0286 -0.1621
    1CHOL    C214792   8.799  15.575   4.503 -0.1727  0.0146 -0.0362
    1CHOL   ROH14793  26.985  23.960   2.809  0.0169  0.2573 -0.0784
    1CHOL    R114794  27.108  23.905   3.057 -0.0319  0.0916 -0.0896
    1CHOL    R214795  27.166  24.102   3.242  0.1520  0.0030 -0.0468
    1CHOL    R314796  27.022  23.942   3.409  0.0030  0.0988 -0.0824
    1CHOL    R414797  27.175  24.117   3.588 -0.0724  0.1207 -0.0442
    1CHOL    R514798  27.169  23.899   3.592 -0.1299  0.1259  0.0303
    1CHOL    C114799  27.045  23.975   3.945 -0.3428  0.2796 -0.0761
    1CHOL    C214800  26.940  23.979   4.380 -0.0472 -0.0549 -0.0458
    1CHOL   ROH14801   3.917  14.978   6.215 -0.0900 -0.2144 -0.1779
    1CHOL    R114802   4.026  15.041   5.962 -0.0579 -0.0657 -0.1279
    1CHOL    R214803   4.062  14.851   5.764  0.1000  0.0221 -0.1840
    1CHOL    R314804   3.916  15.026   5.615  0.0418 -0.0076 -0.1627
    1CHOL    R414805   4.140  14.948   5.441  0.1668  0.2197 -0.1102
    1CHOL    R514806   4.080  15.152   5.494  0.0088  0.1584 -0.0405
    1CHOL    C114807   4.048  15.169   5.114  0.1511  0.3068 -0.0471
    1CHOL    C214808   4.252  14.860   4.893 -0.0816 -0.0743  0.1693
    1CHOL   ROH14809   6.968  13.288   6.749  0.0454 -0.0359 -0.0248
    1CHOL    R114810   6.980  13.381   6.481  0.0774 -0.0081 -0.0137
    1CHOL    R214811   7.211  13.484   6.370  0.1150 -0.0808 -0.0034
    1CHOL    R314812   7.165  13.296   6.180  0.0426 -0.0408 -0.0259
    1CHOL    R414813   7.274  13.524   6.033  0.1688 -0.0784  0.0068
    1CHOL    R514814   7.088  13.419   5.991  0.1216  0.0156 -0.0222
    1CHOL    C114815   7.267  13.370   5.658  0.1320 -0.0394 -0.0084
    1CHOL    C214816   7.241  13.379   5.314 -0.2028  0.1233  0.3545
    1CHOL   ROH14817   5.013   1.648   6.226  0.1625 -0.0938  0.1978
    1CHOL    R114818   5.178   1.641   5.996 -0.1643 -0.3484 -0.0398
    1CHOL    R214819   5.076   1.619   5.740 -0.5892  0.1135  0.0738
    1CHOL    R314820   5.224   1.844   5.697 -0.0570 -0.2226  0.0611
    1CHOL    R414821   5.129   1.765   5.431 -0.5059  0.1421  0.1017
    1CHOL    R514822   5.336   1.802   5.490 -0.3447 -0.4040 -0.0636
    1CHOL    C114823   5.299   2.060   5.211  0.0423 -0.1567  0.1059
    1CHOL    C214824   5.095   2.299   4.991  0.0330 -0.0357  0.0086
    1CHOL   ROH14825   2.684   8.019   4.153  0.3442  0.3616 -0.0662
    1CHOL    R114826   2.645   8.240   4.325  0.0865  0.2666  0.0011
    1CHOL    R214827   2.400   8.364   4.354 -0.0483 -0.0037  0.0112
    1CHOL    R314828   2.443   8.315   4.618 -0.0319 -0.0396  0.0027
    1CHOL    R414829   2.236   8.523   4.613  0.1383  0.1427  0.0420
    1CHOL    R514830   2.425   8.531   4.721  0.1731 -0.0175  0.0031
    1CHOL    C114831   2.181   8.570   5.012  0.2624  0.1943  0.0519
    1CHOL    C214832   2.100   8.825   5.376  0.1122 -0.3313  0.0491
    1CHOL   ROH14833   2.528  19.596   2.909 -0.1209  0.1523  0.0394
    1CHOL    R114834   2.576  19.425   3.129 -0.0405  0.0736 -0.0381
    1CHOL    R214835   2.649  19.519   3.378  0.0241 -0.0128 -0.0207
    1CHOL    R314836   2.434  19.374   3.460  0.0600 -0.0624 -0.0160
    1CHOL    R414837   2.592  19.416   3.703  0.0461 -0.0203 -0.0196
    1CHOL    R514838   2.523  19.225   3.625  0.0928 -0.0366 -0.0134
    1CHOL    C114839   2.358  19.219   3.969  0.0926 -0.0713 -0.0147
    1CHOL    C214840   2.550  19.317   4.330  0.0004  0.0292 -0.0449
    1CHOL   ROH14841  27.547   3.039   5.432 -0.1389 -0.1862  0.1446
    1CHOL    R114842  27.454   2.895   5.206 -0.0914 -0.0187  0.0143
    1CHOL    R214843  27.613   2.847   4.984  0.0359 -0.0512  0.1048
    1CHOL    R314844  27.546   2.588   5.033 -0.2060 -0.0186 -0.0444
    1CHOL    R414845  27.666   2.584   4.767  0.1326 -0.0362  0.1112
    1CHOL    R514846  27.471   2.505   4.822  0.0074  0.0833 -0.1594
    1CHOL    C114847  27.634   2.188   4.686 -0.0381  0.0030 -0.0252
    1CHOL    C214848  27.547   1.896   4.975 -0.0056  0.1290 -0.0191
    1CHOL   ROH14849   8.104  21.687   3.417  0.0359  0.0581 -0.0012
    1CHOL    R114850   8.056  21.511   3.634  0.0858  0.1063  0.0493
    1CHOL    R214851   8.201  21.522   3.869  0.0337  0.2640  0.0768
    1CHOL    R314852   7.955  21.543   3.982 -0.0010  0.1726  0.0180
    1CHOL    R414853   8.133  21.477   4.205 -0.0425  0.1816  0.0503
    1CHOL    R514854   7.951  21.371   4.149  0.0031  0.1413 -0.0158
    1CHOL    C114855   7.862  21.469   4.506 -0.1195  0.0478 -0.0202
    1CHOL    C214856   7.884  21.690   4.845 -0.0754  0.2803  0.1398
    1CHOL   ROH14857   8.175   8.815   3.800  0.1137 -0.0498 -0.1179
    1CHOL    R114858   8.108   8.897   4.062 -0.0175 -0.2486 -0.0869
    1CHOL    R214859   8.101   8.722   4.276  0.3442 -0.3273 -0.1341
    1CHOL    R314860   8.271   8.903   4.387  0.0154 -0.0236 -0.1053
    1CHOL    R414861   8.170   8.746   4.614  0.5590 -0.4955 -0.1635
    1CHOL    R514862   8.166   8.963   4.594  0.0279 -0.4695  0.0431
    1CHOL    C114863   8.369   8.929   4.915  0.3752 -0.3085 -0.1536
    1CHOL    C214864   8.250   8.859   5.216  0.2382 -0.0539  0.0374
    1CHOL   ROH14865  29.471  20.174   2.696  0.0128 -0.2000  0.0104
    1CHOL    R114866  29.291  20.160   2.914  0.0143 -0.1591  0.0150
    1CHOL    R214867  29.272  19.939   3.078  0.1155 -0.0751  0.1456
    1CHOL    R314868  29.314  20.121   3.275  0.0269  0.0619  0.0390
    1CHOL    R414869  29.127  19.927   3.392 -0.0520  0.1639  0.0800
    1CHOL    R514870  29.100  20.143   3.382 -0.0272  0.1594 -0.0885
    1CHOL    C114871  29.083  20.091   3.759 -0.2325  0.4315 -0.0583
    1CHOL    C214872  28.833  20.172   3.961  0.1245 -0.1257 -0.0198
    1CHOL   ROH14873   7.190  10.406   3.311  0.0801 -0.0741 -0.1243
    1CHOL    R114874   7.210  10.490   3.581  0.1862 -0.1250 -0.1156
    1CHOL    R214875   6.999  10.470   3.759  0.2040 -0.0097 -0.0803
    1CHOL    R314876   7.182  10.336   3.909  0.1431 -0.1539 -0.1330
    1CHOL    R414877   6.979  10.423   4.101  0.2651  0.0022 -0.0746
    1CHOL    R514878   7.193  10.459   4.114  0.2975 -0.1644 -0.1344
    1CHOL    C114879   7.138  10.269   4.440  0.2436 -0.1262 -0.1209
    1CHOL    C214880   7.071  10.191   4.798 -0.2480  0.2886  0.1091
    1CHOL   ROH14881  12.199  24.626   4.252  0.0133  0.2380  0.0424
    1CHOL    R114882  12.428  24.746   4.368  0.0291  0.1655  0.0883
    1CHOL    R214883  12.622  24.871   4.218  0.1203  0.0734  0.1227
    1CHOL    R314884  12.572  25.080   4.385  0.1511  0.1129  0.0820
    1CHOL    R414885  12.845  25.126   4.290  0.1505  0.0622  0.0669
    1CHOL    R514886  12.780  25.118   4.497  0.1565  0.1121  0.0681
    1CHOL    C114887  12.927  25.469   4.489  0.1971  0.0926 -0.0039
    1CHOL    C214888  12.884  25.864   4.710  0.1276  0.0453  0.0724
    1CHOL   ROH14889   7.392   5.387   3.865 -0.0771 -0.1225  0.0237
    1CHOL    R114890   7.350   5.550   4.093 -0.0973  0.0450 -0.0971
    1CHOL    R214891   7.103   5.656   4.157 -0.1584 -0.1045 -0.0661
    1CHOL    R314892   7.150   5.534   4.396  0.0684  0.1386  0.0177
    1CHOL    R414893   6.937   5.728   4.451 -0.1209 -0.0520 -0.0583
    1CHOL    R514894   7.127   5.709   4.557 -0.0598  0.2426 -0.1147
    1CHOL    C114895   6.884   5.656   4.847  0.1138  0.2068  0.0249
    1CHOL    C214896   6.793   5.803   5.116 -0.0725 -0.0555 -0.0566
    1CHOL   ROH14897  10.937   8.740   6.107  0.0336  0.1498  0.0140
    1CHOL    R114898  11.026   8.722   5.839  0.0637  0.1101  0.0260
    1CHOL    R214899  10.855   8.748   5.623  0.0633 -0.0646  0.0007
    1CHOL    R314900  11.031   8.939   5.547 -0.0451  0.0138 -0.0471
    1CHOL    R414901  10.902   8.855   5.298 -0.0590 -0.0504 -0.0123
    1CHOL    R514902  11.116   8.862   5.337 -0.0573  0.0506 -0.0625
    1CHOL    C114903  11.096   9.097   5.037 -0.2319  0.0315 -0.0647
    1CHOL    C214904  11.271   9.211   4.717 -0.1448 -0.1707 -0.1107
    1CHOL   ROH14905   6.071  13.789   3.235  0.0022  0.0535  0.0302
    1CHOL    R114906   6.048  13.727   3.511 -0.1433 -0.0089  0.0055
    1CHOL    R214907   6.208  13.845   3.703 -0.0668 -0.2415  0.0893
    1CHOL    R314908   5.969  13.908   3.816 -0.0330 -0.0155  0.0381
    1CHOL    R414909   6.149  13.864   4.043 -0.1364 -0.2420  0.0771
    1CHOL    R514910   5.956  13.768   4.010 -0.2276 -0.0380  0.0100
    1CHOL    C114911   5.890  13.934   4.347 -0.1452 -0.0303  0.0221
    1CHOL    C214912   5.753  13.665   4.598 -0.2313 -0.0583  0.0276
    1CHOL   ROH14913   1.181  20.846   3.092 -0.0545  0.0262  0.1382
    1CHOL    R114914   1.150  20.798   3.369  0.1187  0.0378  0.1613
    1CHOL    R214915   1.342  20.868   3.555  0.1168  0.3033  0.0689
    1CHOL    R314916   1.134  21.000   3.672  0.0049  0.0782  0.1291
    1CHOL    R414917   1.293  20.895   3.896  0.1839  0.2484  0.0829
    1CHOL    R514918   1.079  20.865   3.863  0.2050  0.0157  0.1445
    1CHOL    C114919   1.070  21.034   4.205  0.1179  0.0049  0.1477
    1CHOL    C214920   1.232  20.765   4.400 -0.2769  0.1020 -0.1067
    1CHOL   ROH14921   6.459  17.193   6.601 -0.3661  0.2799 -0.0671
    1CHOL    R114922   6.462  17.307   6.342 -0.0237  0.2295 -0.0906
    1CHOL    R214923   6.695  17.344   6.198  0.1264 -0.2530  0.0048
    1CHOL    R314924   6.562  17.202   6.008 -0.0709 -0.0360 -0.0226
    1CHOL    R414925   6.736  17.383   5.857  0.3335 -0.3876  0.0127
    1CHOL    R514926   6.520  17.360   5.834  0.2954  0.0157 -0.0673
    1CHOL    C114927   6.634  17.273   5.481  0.2687 -0.2622 -0.0084
    1CHOL    C214928   6.678  17.143   5.209 -0.2815  0.0800 -0.1175
    1CHOL   ROH14929   6.929  16.291   6.589  0.1320  0.0829  0.1239
    1CHOL    R114930   6.988  16.359   6.321  0.1508 -0.0075  0.1052
    1CHOL    R214931   7.166  16.215   6.166  0.0359 -0.1572  0.1148
    1CHOL    R314932   6.955  16.201   5.995  0.0097 -0.0464  0.1366
    1CHOL    R414933   7.191  16.226   5.822 -0.0141  0.1079  0.1176
    1CHOL    R514934   7.013  16.352   5.818 -0.0292  0.0964  0.2414
    1CHOL    C114935   7.008  16.220   5.460 -0.0678  0.3662  0.1396
    1CHOL    C214936   7.083  16.261   5.050 -0.3738  0.1404 -0.0577
    1CHOL   ROH14937   2.362  13.247   6.180 -0.0282  0.2031  0.0625
    1CHOL    R114938   2.404  13.069   5.964 -0.0520  0.1268  0.1205
    1CHOL    R214939   2.334  13.131   5.703 -0.0480  0.0487  0.1016
    1CHOL    R314940   2.594  13.070   5.653 -0.0563  0.0011  0.1164
    1CHOL    R414941   2.474  13.107   5.389 -0.1106 -0.2749  0.0957
    1CHOL    R514942   2.586  12.933   5.457 -0.0937 -0.2048  0.2568
    1CHOL    C114943   2.800  13.035   5.158 -0.1548 -0.5080  0.1062
    1CHOL    C214944   2.795  12.939   4.778 -0.3527 -0.0573  0.0139
    1CHOL   ROH14945   9.254  13.878   6.507 -0.0039  0.1164 -0.1634
    1CHOL    R114946   9.093  13.817   6.282 -0.0528  0.0091 -0.0999
    1CHOL    R214947   9.114  13.953   6.042 -0.2283  0.0159 -0.1144
    1CHOL    R314948   9.147  13.703   5.941 -0.1110  0.0316 -0.1163
    1CHOL    R414949   9.196  13.882   5.714  0.0484  0.0576 -0.0574
    1CHOL    R514950   9.055  13.716   5.720  0.0672  0.0390 -0.1898
    1CHOL    C114951   9.274  13.606   5.428  0.3197  0.0966 -0.0259
    1CHOL    C214952   9.333  13.383   5.168 -0.2030  0.4065 -0.0200
    1CHOL   ROH14953  16.572   5.280   6.407 -0.1488  0.1537 -0.0883
    1CHOL    R114954  16.741   5.285   6.180 -0.0531  0.0525 -0.0207
    1CHOL    R214955  16.665   5.180   5.936  0.0795 -0.1280  0.0113
    1CHOL    R314956  16.730   5.428   5.846  0.0475 -0.1667 -0.1196
    1CHOL    R414957  16.643   5.283   5.606  0.1221 -0.3188 -0.0522
    1CHOL    R514958  16.832   5.389   5.632  0.0949 -0.2680 -0.0776
    1CHOL    C114959  16.692   5.576   5.330  0.1170 -0.4662 -0.2119
    1CHOL    C214960  16.728   5.590   4.985 -0.0376 -0.0593  0.1498
    1CHOL   ROH14961  28.649  12.557   2.975  0.0877 -0.0703  0.0733
    1CHOL    R114962  28.468  12.624   3.181  0.0731 -0.0152  0.0438
    1CHOL    R214963  28.382  12.441   3.369 -0.0249  0.0065  0.0237
    1CHOL    R314964  28.472  12.628   3.545  0.0098 -0.0309  0.0443
    1CHOL    R414965  28.333  12.429   3.711 -0.0531 -0.0079  0.0184
    1CHOL    R514966  28.297  12.645   3.708  0.0031  0.0011  0.0325
    1CHOL    C114967  28.388  12.598   4.075 -0.0364 -0.0514  0.0346
    1CHOL    C214968  28.429  12.654   4.337 -0.0652 -0.2258 -0.2769
    1CHOL   ROH14969   9.599  16.598   6.090  0.1570  0.0821  0.0251
    1CHOL    R114970   9.455  16.617   5.847  0.1680  0.1575  0.0237
    1CHOL    R214971   9.574  16.585   5.600  0.1367 -0.0049  0.0252
    1CHOL    R314972   9.380  16.398   5.566 -0.0324  0.1592  0.0753
    1CHOL    R414973   9.502  16.427   5.301  0.2030 -0.2467  0.1352
    1CHOL    R514974   9.290  16.444   5.349  0.1822  0.0250 -0.0435
    1CHOL    C114975   9.277  16.160   5.096  0.0826 -0.2335  0.2463
    1CHOL    C214976   9.173  16.182   4.712  0.0217 -0.0114  0.0732
    1CHOL   ROH14977  12.387  18.610   5.925  0.1284  0.0427 -0.0688
    1CHOL    R114978  12.488  18.547   5.668  0.2326  0.2053 -0.0681
    1CHOL    R214979  12.324  18.483   5.455  0.3358 -0.2207 -0.0271
    1CHOL    R314980  12.459  18.684   5.332 -0.1324  0.0643 -0.0978
    1CHOL    R414981  12.315  18.547   5.116  0.1602 -0.3345 -0.0459
    1CHOL    R514982  12.529  18.590   5.123  0.0724  0.1627 -0.0747
    1CHOL    C114983  12.436  18.774   4.802 -0.3816 -0.1334 -0.1232
    1CHOL    C214984  12.339  18.472   4.620 -0.1652  0.4378 -0.0492
    1CHOL   ROH14985  19.178   6.583   3.932 -0.1203  0.0173 -0.0497
    1CHOL    R114986  19.352   6.612   4.153  0.0444  0.1183 -0.1889
    1CHOL    R214987  19.445   6.858   4.238 -0.0921  0.1829 -0.2176
    1CHOL    R314988  19.342   6.779   4.477  0.1741  0.0432 -0.1459
    1CHOL    R414989  19.497   7.019   4.539  0.1091  0.1017 -0.2080
    1CHOL    R514990  19.516   6.824   4.635  0.3015  0.0763 -0.2937
    1CHOL    C114991  19.431   7.039   4.939  0.4761 -0.0767 -0.1352
    1CHOL    C214992  19.507   7.269   5.191 -0.1337  0.1101 -0.2053
    1CHOL   ROH14993  26.226  25.627   3.442 -0.0687  0.0206  0.2441
    1CHOL    R114994  26.116  25.662   3.700 -0.1571  0.0208  0.2074
    1CHOL    R214995  26.023  25.451   3.852 -0.0097 -0.0073  0.2649
    1CHOL    R314996  26.194  25.551   4.038 -0.1343  0.2103  0.2648
    1CHOL    R414997  25.982  25.424   4.194  0.0233 -0.0537  0.2647
    1CHOL    R514998  26.052  25.629   4.214 -0.2328  0.0359  0.2628
    1CHOL    C114999  26.118  25.502   4.568 -0.0744  0.1235  0.2646
    1CHOL    C215000  25.822  25.358   4.848 -0.4150  0.0069  0.1837
    1CHOL   ROH15001   2.828  21.870   6.773 -0.0124  0.1705 -0.0069
    1CHOL    R115002   2.951  21.901   6.520 -0.0686  0.0546 -0.0491
    1CHOL    R215003   2.850  21.783   6.291 -0.1534 -0.0032  0.0157
    1CHOL    R315004   2.857  22.038   6.196 -0.1195 -0.0367 -0.0728
    1CHOL    R415005   2.885  21.869   5.958  0.1793 -0.1162  0.0170
    1CHOL    R515006   3.017  22.031   6.018  0.0725 -0.0605  0.0993
    1CHOL    C115007   2.911  22.159   5.675  0.4048 -0.2138 -0.0653
    1CHOL    C215008   2.955  22.332   5.314  0.1840 -0.2112  0.2216
    1CHOL   ROH15009  16.695   4.535   5.689 -0.0821  0.1041  0.0762
    1CHOL    R115010  16.472   4.378   5.613  0.0463 -0.0031 -0.0841
    1CHOL    R215011  16.211   4.467   5.638 -0.0343 -0.2919  0.1434
    1CHOL    R315012  16.199   4.404   5.374 -0.0605  0.0934  0.0461
    1CHOL    R415013  15.922   4.384   5.469 -0.0175 -0.2923  0.1136
    1CHOL    R515014  16.034   4.230   5.363  0.0870 -0.0392 -0.1584
    1CHOL    C115015  15.741   4.277   5.123 -0.0322  0.0692  0.0050
    1CHOL    C215016  15.484   4.074   5.189  0.1535  0.2529  0.0202
    1CHOL   ROH15017   4.643  15.006   2.772 -0.0113  0.0150  0.0892
    1CHOL    R115018   4.728  15.188   2.971  0.0253 -0.0503  0.1330
    1CHOL    R215019   4.559  15.377   3.080  0.0917  0.0227  0.1030
    1CHOL    R315020   4.637  15.265   3.315 -0.0335 -0.0405  0.1161
    1CHOL    R415021   4.525  15.525   3.391  0.0261 -0.0108  0.1129
    1CHOL    R515022   4.722  15.448   3.443 -0.0173 -0.0869  0.1750
    1CHOL    C115023   4.579  15.505   3.792 -0.1295 -0.0897  0.1309
    1CHOL    C215024   4.451  15.750   4.195  0.0064 -0.0284  0.0603
    1CHOL   ROH15025   9.313  21.917   5.818 -0.0859 -0.0506 -0.0283
    1CHOL    R115026   9.343  22.029   5.560 -0.2309 -0.0780 -0.0579
    1CHOL    R215027   9.576  22.005   5.414 -0.1678  0.2532 -0.0170
    1CHOL    R315028   9.409  21.905   5.224  0.0158 -0.0765 -0.0116
    1CHOL    R415029   9.638  22.010   5.074 -0.1563  0.3142 -0.0143
    1CHOL    R515030   9.428  22.058   5.041 -0.2483 -0.0643 -0.0330
    1CHOL    C115031   9.518  21.918   4.698  0.0230  0.0405 -0.0076
    1CHOL    C215032   9.347  21.967   4.457  0.2737  0.0210 -0.1680
    1CHOL   ROH15033   5.963  13.079   6.635  0.4271  0.0253  0.0914
    1CHOL    R115034   6.062  12.958   6.399  0.1848 -0.0440  0.0214
    1CHOL    R215035   5.903  12.909   6.178  0.0129  0.1206  0.1053
    1CHOL    R315036   6.096  13.050   6.049  0.0697 -0.0407  0.0107
    1CHOL    R415037   5.959  12.902   5.837 -0.1094  0.0148  0.0867
    1CHOL    R515038   6.173  12.903   5.876 -0.0940 -0.1293  0.0118
    1CHOL    C115039   6.172  13.031   5.517 -0.1274 -0.1982 -0.0129
    1CHOL    C215040   6.194  12.754   5.206  0.0465  0.2114  0.4351
    1CHOL   ROH15041  19.435   8.524   6.304  0.0830  0.1446 -0.1254
    1CHOL    R115042  19.455   8.407   6.048  0.1123  0.0834 -0.0961
    1CHOL    R215043  19.287   8.474   5.840  0.2246  0.1405 -0.1755
    1CHOL    R315044  19.520   8.522   5.709  0.3038 -0.0146 -0.0929
    1CHOL    R415045  19.312   8.542   5.502  0.3673  0.3932 -0.1158
    1CHOL    R515046  19.491   8.416   5.495  0.2244  0.1964 -0.1856
    1CHOL    C115047  19.546   8.626   5.182  0.5248  0.3948 -0.0034
    1CHOL    C215048  19.636   8.805   4.787  0.0826 -0.2829  0.1094
    1CHOL   ROH15049   3.165  17.081   5.830 -0.1781  0.0385 -0.0161
    1CHOL    R115050   3.283  17.157   5.584 -0.0667 -0.0818  0.0004
    1CHOL    R215051   3.171  17.093   5.339 -0.0816  0.0064 -0.0090
    1CHOL    R315052   3.189  17.361   5.297  0.1707 -0.0101 -0.0313
    1CHOL    R415053   3.215  17.242   5.030 -0.3870 -0.0595 -0.0884
    1CHOL    R515054   3.352  17.383   5.124 -0.0635 -0.2141 -0.2953
    1CHOL    C115055   3.257  17.581   4.811 -0.3278 -0.1133 -0.1556
    1CHOL    C215056   3.330  17.846   4.494 -0.1317 -0.0552  0.1264
    1CHOL   ROH15057  14.153  11.014   6.184  0.0242  0.1578 -0.0401
    1CHOL    R115058  14.090  10.995   5.908  0.0397 -0.0758 -0.0310
    1CHOL    R215059  13.936  10.791   5.804 -0.1489 -0.0454  0.1694
    1CHOL    R315060  13.787  10.996   5.706  0.0616  0.0005 -0.0617
    1CHOL    R415061  13.791  10.797   5.490 -0.0665 -0.2018  0.1275
    1CHOL    R515062  13.847  11.007   5.474  0.1276 -0.2688 -0.0578
    1CHOL    C115063  13.567  10.993   5.216  0.1791 -0.2498 -0.1138
    1CHOL    C215064  13.504  10.947   4.790  0.1174  0.0915 -0.0160
    1CHOL   ROH15065  21.888  14.351   2.481 -0.0784 -0.0058  0.0114
    1CHOL    R115066  21.873  14.306   2.760 -0.0172 -0.0027  0.0148
    1CHOL    R215067  21.729  14.469   2.930 -0.0078 -0.0221  0.0383
    1CHOL    R315068  21.611  14.236   3.003  0.0413 -0.0379  0.0687
    1CHOL    R415069  21.498  14.436   3.185  0.0568 -0.0469  0.0944
    1CHOL    R515070  21.595  14.249   3.242  0.0969 -0.0352  0.0743
    1CHOL    C115071  21.253  14.197   3.402  0.1405 -0.0762  0.1557
    1CHOL    C215072  21.140  14.257   3.670  0.3464 -0.0513  0.1672
    1CHOL   ROH15073  11.219   9.831   6.001  0.1447 -0.0697  0.0594
    1CHOL    R115074  11.456   9.776   5.856  0.1735  0.1387  0.0225
    1CHOL    R215075  11.457   9.622   5.626  0.3049 -0.0665  0.1534
    1CHOL    R315076  11.581   9.840   5.520 -0.0445  0.0253 -0.0814
    1CHOL    R415077  11.670   9.616   5.353  0.2981 -0.0110  0.1474
    1CHOL    R515078  11.797   9.760   5.455  0.0805  0.3002 -0.0103
    1CHOL    C115079  11.909   9.816   5.095 -0.0337  0.1076 -0.0764
    1CHOL    C215080  11.849   9.927   4.661  0.0635 -0.0396 -0.0592
    1CHOL   ROH15081   7.716  22.964   5.860 -0.3867  0.3299  0.0317
    1CHOL    R115082   7.554  22.971   5.628 -0.1996  0.1477 -0.1087
    1CHOL    R215083   7.659  22.986   5.373  0.0062  0.0280 -0.0326
    1CHOL    R315084   7.506  22.766   5.332  0.1035 -0.0407 -0.0307
    1CHOL    R415085   7.579  22.856   5.063 -0.0436  0.0654 -0.0358
    1CHOL    R515086   7.378  22.817   5.137  0.0031 -0.0564  0.0304
    1CHOL    C115087   7.389  22.573   4.844  0.0187  0.0230 -0.0359
    1CHOL    C215088   7.141  22.414   4.536 -0.0168  0.0464 -0.1494
    1CHOL   ROH15089   2.457   5.403   5.926 -0.1443 -0.1398  0.0265
    1CHOL    R115090   2.485   5.166   5.774 -0.0143 -0.0905 -0.0279
    1CHOL    R215091   2.337   5.118   5.545  0.0885 -0.0731 -0.0970
    1CHOL    R315092   2.582   5.080   5.434  0.1428  0.0298 -0.0147
    1CHOL    R415093   2.400   4.917   5.271  0.2340  0.0914 -0.1861
    1CHOL    R515094   2.583   4.849   5.369  0.2045  0.0642 -0.1456
    1CHOL    C115095   2.667   4.765   5.007  0.3697  0.2835 -0.1605
    1CHOL    C215096   2.679   4.434   5.060  0.0915  0.1671 -0.0240
    1CHOL   ROH15097  27.928   8.175   2.874 -0.1311 -0.0018  0.0328
    1CHOL    R115098  28.012   8.103   3.134  0.0592  0.1606  0.0173
    1CHOL    R215099  28.132   8.283   3.306 -0.2331  0.3908 -0.0187
    1CHOL    R315100  27.934   8.204   3.475 -0.0554  0.0287  0.0326
    1CHOL    R415101  28.134   8.328   3.649 -0.2583  0.4855 -0.0303
    1CHOL    R515102  28.048   8.129   3.671  0.1409  0.3051  0.0345
    1CHOL    C115103  27.948   8.281   4.006 -0.1064  0.2006  0.0110
    1CHOL    C215104  28.109   8.267   4.374 -0.0507  0.0415  0.0808
    1CHOL   ROH15105   9.397  15.050   6.386 -0.1574 -0.0646 -0.0706
    1CHOL    R115106   9.295  14.911   6.161 -0.1338 -0.1100 -0.0544
    1CHOL    R215107   9.252  15.033   5.916 -0.2247 -0.1285 -0.0529
    1CHOL    R315108   9.410  14.832   5.824 -0.1505 -0.0615 -0.0700
    1CHOL    R415109   9.297  14.954   5.583 -0.1049 -0.0215 -0.0622
    1CHOL    R515110   9.291  14.743   5.637 -0.0696 -0.0353 -0.1301
    1CHOL    C115111   9.472  14.719   5.303  0.0344  0.1036 -0.0836
    1CHOL    C215112   9.229  14.692   5.117 -0.1978  0.3270 -0.0821
    1CHOL   ROH15113   5.758   7.108   3.647 -0.0758 -0.0282  0.1317
    1CHOL    R115114   5.691   7.036   3.913  0.0220 -0.0747  0.1431
    1CHOL    R215115   5.698   6.775   4.003  0.2583 -0.0629  0.1512
    1CHOL    R315116   5.860   6.880   4.195  0.1947  0.0806  0.1293
    1CHOL    R415117   5.725   6.655   4.326  0.5437 -0.1641  0.0932
    1CHOL    R515118   5.733   6.861   4.397  0.2921 -0.1753  0.1734
    1CHOL    C115119   5.893   6.683   4.694  0.6502 -0.0882  0.0389
    1CHOL    C215120   5.739   6.783   5.086 -0.0176 -0.2019 -0.0164
    1CHOL   ROH15121  23.024   9.208   6.064  0.0809 -0.0460  0.0344
    1CHOL    R115122  22.956   9.306   5.807 -0.2058 -0.1936  0.0507
    1CHOL    R215123  23.145   9.354   5.611 -0.3444  0.2968  0.0245
    1CHOL    R315124  22.987   9.190   5.464  0.0368 -0.0999  0.0391
    1CHOL    R415125  23.182   9.298   5.272 -0.2909  0.4583  0.0027
    1CHOL    R515126  22.964   9.302   5.253 -0.3218 -0.1100  0.0669
    1CHOL    C115127  23.055   9.111   4.936  0.0984  0.1798  0.0038
    1CHOL    C215128  23.213   9.052   4.599 -0.1792 -0.0421 -0.0163
    1CHOL   ROH15129  24.491  13.940   1.959  0.0208 -0.1512  0.0765
    1CHOL    R115130  24.496  13.936   2.242  0.0231 -0.0949  0.0775
    1CHOL    R215131  24.642  13.751   2.385 -0.0683 -0.1398  0.1147
    1CHOL    R315132  24.749  13.972   2.502  0.0456 -0.1685  0.0656
    1CHOL    R415133  24.705  13.785   2.724  0.0572 -0.1393  0.0914
    1CHOL    R515134  24.634  13.991   2.711  0.1225 -0.1162  0.1031
    1CHOL    C115135  24.842  14.013   3.030  0.2373 -0.1658  0.0317
    1CHOL    C215136  24.813  13.764   3.227 -0.2502  0.0615  0.0630
    1CHOL   ROH15137  29.736  12.366   2.889 -0.2478 -0.1585 -0.1903
    1CHOL    R115138  29.626  12.485   3.122 -0.0255 -0.0225 -0.1506
    1CHOL    R215139  29.401  12.385   3.247  0.0073  0.1351  0.0420
    1CHOL    R315140  29.563  12.383   3.466  0.1612  0.1252 -0.0714
    1CHOL    R415141  29.297  12.446   3.571  0.2499  0.2017  0.1088
    1CHOL    R515142  29.480  12.561   3.603  0.3001  0.1623 -0.0343
    1CHOL    C115143  29.389  12.481   3.965  0.5358  0.2313  0.0413
    1CHOL    C215144  29.355  12.446   4.340  0.1674  0.2791  0.0792
    1CHOL   ROH15145   3.204  12.610   6.491  0.1549 -0.2038  0.1510
    1CHOL    R115146   3.389  12.587   6.279  0.1093 -0.0955  0.0994
    1CHOL    R215147   3.327  12.464   6.039  0.1010 -0.0900  0.1041
    1CHOL    R315148   3.410  12.699   5.933 -0.0268 -0.0423  0.1060
    1CHOL    R415149   3.420  12.510   5.710  0.0856 -0.0526  0.1047
    1CHOL    R515150   3.583  12.638   5.779  0.0170  0.0434  0.1124
    1CHOL    C115151   3.554  12.759   5.419 -0.0433  0.0138  0.1068
    1CHOL    C215152   3.659  12.666   5.178 -0.0269 -0.2263  0.0205
    1CHOL   ROH15153  15.061  21.622   6.156  0.0200 -0.2688 -0.0484
    1CHOL    R115154  15.015  21.760   5.913 -0.0353 -0.0796  0.0667
    1CHOL    R215155  14.847  21.663   5.717  0.1466 -0.0781 -0.0945
    1CHOL    R315156  14.730  21.908   5.742 -0.1341 -0.2271  0.1024
    1CHOL    R415157  14.721  21.849   5.454  0.4035  0.2094 -0.0206
    1CHOL    R515158  14.803  22.028   5.548  0.0771  0.1531  0.4042
    1CHOL    C115159  14.537  22.186   5.324  0.2894  0.2370  0.2073
    1CHOL    C215160  14.445  22.237   4.980  0.0910  0.1434  0.0488
    1CHOL   ROH15161  17.928   4.976   3.993  0.0119 -0.2207  0.0274
    1CHOL    R115162  18.030   5.065   4.242  0.1045 -0.0400 -0.0744
    1CHOL    R215163  18.206   5.278   4.262 -0.1560  0.2009 -0.2639
    1CHOL    R315164  18.020   5.373   4.436 -0.1402 -0.0144 -0.1245
    1CHOL    R415165  18.277   5.415   4.571 -0.0970  0.1604 -0.2590
    1CHOL    R515166  18.103   5.310   4.652  0.0369 -0.0154 -0.1917
    1CHOL    C115167  18.144   5.584   4.915 -0.0479 -0.0652 -0.1252
    1CHOL    C215168  18.203   5.950   5.157  0.0590  0.1075  0.2578
    1CHOL   ROH15169  29.622  13.198   5.955  0.3059 -0.2155  0.0491
    1CHOL    R115170  29.481  13.149   5.715  0.1822 -0.1229  0.1012
    1CHOL    R215171  29.583  12.993   5.511  0.0655 -0.0716 -0.0015
    1CHOL    R315172  29.349  12.858   5.540  0.0644 -0.0528  0.0739
    1CHOL    R415173  29.454  12.770   5.281  0.0315 -0.1566  0.1002
    1CHOL    R515174  29.256  12.852   5.320  0.0404 -0.1363  0.0881
    1CHOL    C115175  29.158  12.513   5.175  0.0105 -0.1884  0.2302
    1CHOL    C215176  29.120  12.338   4.872  0.1415  0.1925  0.0325
    1CHOL   ROH15177   3.386  24.083   3.999  0.1377 -0.1556 -0.1259
    1CHOL    R115178   3.426  23.956   4.249  0.1408  0.0879  0.0003
    1CHOL    R215179   3.382  24.085   4.490 -0.2370  0.2063 -0.1213
    1CHOL    R315180   3.222  23.871   4.538  0.0449 -0.0030 -0.0950
    1CHOL    R415181   3.281  23.980   4.803 -0.1712  0.1567 -0.1171
    1CHOL    R515182   3.310  23.775   4.739  0.1282  0.1770 -0.0467
    1CHOL    C115183   3.071  23.718   5.031  0.1318 -0.0689 -0.0900
    1CHOL    C215184   2.861  23.359   5.152  0.2059  0.1360  0.3451
    1CHOL   ROH15185   2.685  13.632   6.257 -0.1418 -0.0579  0.1036
    1CHOL    R115186   2.734  13.470   6.030 -0.1413  0.0045  0.0604
    1CHOL    R215187   2.598  13.501   5.792 -0.0019  0.1975  0.0112
    1CHOL    R315188   2.848  13.521   5.689  0.0618  0.0680  0.1340
    1CHOL    R415189   2.673  13.492   5.455  0.1464  0.1735  0.0432
    1CHOL    R515190   2.847  13.370   5.503  0.0639  0.0725  0.1237
    1CHOL    C115191   2.952  13.504   5.161  0.2926  0.0381  0.1772
    1CHOL    C215192   2.963  13.418   4.781 -0.1035 -0.0273  0.0748
    1CHOL   ROH15193   6.826  20.934   3.357 -0.1868 -0.0093 -0.0323
    1CHOL    R115194   6.865  20.820   3.613 -0.0881  0.0594 -0.0147
    1CHOL    R215195   6.855  20.970   3.845 -0.1587  0.0988 -0.0323
    1CHOL    R315196   6.670  20.784   3.919 -0.0379 -0.0054  0.0065
    1CHOL    R415197   6.755  20.908   4.170 -0.2670  0.2192 -0.0429
    1CHOL    R515198   6.754  20.695   4.125 -0.0692  0.1962  0.0997
    1CHOL    C115199   6.523  20.698   4.428 -0.2165  0.1917 -0.0127
    1CHOL    C215200   6.506  20.459   4.677 -0.3286  0.0832  0.1957
    1CHOL   ROH15201  16.174   9.522   5.942  0.0069  0.2514 -0.1512
    1CHOL    R115202  16.030   9.568   5.702 -0.0257  0.1506 -0.1514
    1CHOL    R215203  16.115   9.473   5.457 -0.0211  0.1092 -0.1336
    1CHOL    R315204  15.866   9.364   5.450  0.0069  0.0407 -0.0848
    1CHOL    R415205  15.930   9.420   5.170 -0.1441  0.2484 -0.0813
    1CHOL    R515206  15.753   9.485   5.277 -0.1129  0.1246  0.0501
    1CHOL    C115207  15.589   9.287   4.995 -0.1897  0.2651 -0.0050
    1CHOL    C215208  15.277   9.217   4.705  0.2258 -0.2884  0.0355
    1CHOL   ROH15209   5.632  21.688   6.475  0.1294  0.2263  0.0332
    1CHOL    R115210   5.701  21.653   6.202 -0.0996  0.1050 -0.0117
    1CHOL    R215211   5.564  21.778   5.997 -0.0083  0.3569  0.0724
    1CHOL    R315212   5.812  21.864   5.928  0.1137 -0.0846 -0.0728
    1CHOL    R415213   5.642  21.941   5.702  0.0590  0.4519  0.1429
    1CHOL    R515214   5.826  21.825   5.692 -0.1776  0.0842 -0.1204
    1CHOL    C115215   5.921  22.117   5.466  0.2127  0.0927  0.0475
    1CHOL    C215216   6.247  22.145   5.271 -0.1700  0.1066 -0.1421
    1CHOL   ROH15217   3.904  16.576   6.105  0.1663  0.1094 -0.0387
    1CHOL    R115218   3.995  16.661   5.851  0.1089 -0.0465 -0.1124
    1CHOL    R215219   4.081  16.485   5.656 -0.1675 -0.1827 -0.1118
    1CHOL    R315220   3.895  16.613   5.504 -0.1296 -0.0459 -0.0464
    1CHOL    R415221   4.029  16.429   5.319 -0.3151 -0.1357 -0.0985
    1CHOL    R515222   4.003  16.644   5.293 -0.1740 -0.1129 -0.0810
    1CHOL    C115223   3.825  16.516   4.980 -0.3655  0.0201 -0.0293
    1CHOL    C215224   3.991  16.692   4.703  0.0804 -0.1927 -0.3353
    1CHOL   ROH15225   4.929  14.432   6.267 -0.1459 -0.2710  0.0699
    1CHOL    R115226   4.997  14.403   5.993 -0.0575 -0.0791  0.0699
    1CHOL    R215227   4.994  14.158   5.864  0.0392  0.0034 -0.0883
    1CHOL    R315228   4.830  14.289   5.691  0.0603  0.0747 -0.0554
    1CHOL    R415229   4.941  14.067   5.535 -0.2562 -0.1292 -0.0083
    1CHOL    R515230   4.945  14.278   5.481 -0.0765 -0.1569 -0.1241
    1CHOL    C115231   4.758  14.136   5.181 -0.4083 -0.1392  0.0692
    1CHOL    C215232   4.882  14.051   4.974 -0.0978 -0.0668 -0.0921
    1CHOL   ROH15233  23.217  12.845   4.837 -0.1892 -0.0406 -0.1344
    1CHOL    R115234  23.292  13.117   4.863  0.0706 -0.1032 -0.1957
    1CHOL    R215235  23.483  13.234   4.703 -0.0368 -0.2420 -0.4339
    1CHOL    R315236  23.285  13.414   4.653  0.0409 -0.0738 -0.1527
    1CHOL    R415237  23.506  13.499   4.482 -0.0145 -0.0549 -0.2104
    1CHOL    R515238  23.399  13.622   4.625  0.1489 -0.1170 -0.0337
    1CHOL    C115239  23.334  13.822   4.307  0.0714  0.2120  0.1838
    1CHOL    C215240  23.260  14.207   4.156  0.5076  0.2115  0.0711
    1CHOL   ROH15241  22.061   8.591   6.122 -0.1314  0.0509  0.0787
    1CHOL    R115242  22.156   8.748   5.906 -0.0678 -0.1069 -0.0094
    1CHOL    R215243  22.157   8.656   5.645 -0.2813 -0.1837  0.0132
    1CHOL    R315244  22.019   8.885   5.598 -0.0688 -0.0522  0.0158
    1CHOL    R415245  22.053   8.764   5.334 -0.0691 -0.0128 -0.0004
    1CHOL    R515246  22.107   8.967   5.391  0.0816 -0.0731  0.0716
    1CHOL    C115247  21.863   9.042   5.108  0.2541  0.2102 -0.0060
    1CHOL    C215248  22.024   9.299   5.017  0.1089 -0.3053 -0.0531
    1CHOL   ROH15249   7.656   7.792   3.920  0.0635 -0.1566 -0.0368
    1CHOL    R115250   7.733   7.917   4.162 -0.0085 -0.0264 -0.0821
    1CHOL    R215251   7.575   7.913   4.388 -0.0161 -0.0125 -0.0935
    1CHOL    R315252   7.800   7.814   4.504  0.0244  0.1415 -0.0353
    1CHOL    R415253   7.611   7.850   4.726 -0.1706 -0.2505 -0.1178
    1CHOL    R515254   7.814   7.929   4.714 -0.2424 -0.0088  0.0751
    1CHOL    C115255   7.844   7.720   5.032 -0.2226 -0.2444 -0.0772
    1CHOL    C215256   8.231   7.813   5.342 -0.0793  0.1116  0.3262
    1CHOL   ROH15257   1.528   3.449   6.277  0.1841  0.0011  0.0363
    1CHOL    R115258   1.520   3.584   6.028  0.2708 -0.0893 -0.0155
    1CHOL    R215259   1.601   3.466   5.792  0.0710 -0.2794  0.0119
    1CHOL    R315260   1.353   3.538   5.708  0.1289 -0.0273  0.0475
    1CHOL    R415261   1.481   3.426   5.470  0.0224 -0.0721  0.0023
    1CHOL    R515262   1.386   3.622   5.486  0.1973  0.0142  0.0699
    1CHOL    C115263   1.179   3.471   5.204  0.0484  0.2853  0.0302
    1CHOL    C215264   0.973   3.372   4.864 -0.5300  0.0243 -0.1361
    1CHOL   ROH15265  10.653  16.294   3.151 -0.0742  0.0772  0.0206
    1CHOL    R115266  10.718  16.212   3.414 -0.0571  0.0869  0.0196
    1CHOL    R215267  10.905  16.344   3.569  0.0014  0.0536 -0.0206
    1CHOL    R315268  10.701  16.357   3.747  0.0302  0.1262  0.0071
    1CHOL    R415269  10.938  16.311   3.912  0.0577  0.2173 -0.0095
    1CHOL    R515270  10.755  16.194   3.913  0.0652  0.2083  0.0760
    1CHOL    C115271  10.765  16.304   4.278  0.1176  0.3811  0.0230
    1CHOL    C215272  11.016  16.155   4.527 -0.1449 -0.3406  0.0814
    1CHOL   ROH15273  12.374  14.229   5.305 -0.2337  0.1866  0.0423
    1CHOL    R115274  12.240  14.457   5.204 -0.2222  0.1751 -0.0021
    1CHOL    R215275  12.085  14.450   4.976 -0.1221  0.1690 -0.0780
    1CHOL    R315276  11.896  14.555   5.140 -0.2076  0.1241 -0.1492
    1CHOL    R415277  11.788  14.590   4.869 -0.2628 -0.1812 -0.1577
    1CHOL    R515278  11.813  14.746   5.020 -0.3947 -0.0445 -0.2841
    1CHOL    C115279  11.437  14.771   4.960 -0.4251 -0.4274 -0.2709
    1CHOL    C215280  11.212  15.045   5.085 -0.0505 -0.1296 -0.2329
    1CHOL   ROH15281   0.850  13.194   6.269 -0.0889  0.1734 -0.1288
    1CHOL    R115282   0.818  12.999   6.067 -0.1556  0.1810 -0.1258
    1CHOL    R215283   0.793  13.065   5.800  0.1521  0.1746 -0.1593
    1CHOL    R315284   1.002  12.893   5.771 -0.0302 -0.0878  0.0447
    1CHOL    R415285   0.908  12.942   5.497  0.2380 -0.0395 -0.0420
    1CHOL    R515286   0.935  12.748   5.592 -0.0697 -0.0521  0.0301
    1CHOL    C115287   1.170  12.709   5.295  0.1170 -0.4104  0.2177
    1CHOL    C215288   1.196  12.684   4.912  0.0535  0.0329  0.0590
    1CHOL   ROH15289  29.735  18.150   5.846  0.0466 -0.1559  0.0741
    1CHOL    R115290  29.676  18.203   5.574 -0.0708 -0.0222  0.1240
    1CHOL    R215291  29.855  18.151   5.370 -0.0698  0.2777  0.0372
    1CHOL    R315292  29.646  18.010   5.267  0.0285  0.1565  0.0019
    1CHOL    R415293  29.816  18.072   5.036 -0.0060  0.2972  0.0253
    1CHOL    R515294  29.603  18.115   5.056 -0.0306  0.1541  0.0173
    1CHOL    C115295  29.597  17.895   4.744  0.1234  0.1949 -0.0149
    1CHOL    C215296  29.632  17.820   4.427  0.0792 -0.0937 -0.0924
    1CHOL   ROH15297  27.211   5.077   6.204  0.1834 -0.0020  0.0513
    1CHOL    R115298  27.194   5.097   5.922  0.2413 -0.0948  0.0393
    1CHOL    R215299  27.101   5.324   5.794 -0.0375 -0.2475 -0.0476
    1CHOL    R315300  27.338   5.308   5.663  0.0307  0.0470  0.0364
    1CHOL    R415301  27.165   5.467   5.486 -0.2290 -0.4734 -0.1944
    1CHOL    R515302  27.277   5.287   5.432  0.1254 -0.3326  0.0411
    1CHOL    C115303  27.426   5.535   5.184 -0.2762 -0.3283 -0.2011
    1CHOL    C215304  27.571   5.733   4.917  0.2869 -0.1693  0.0680
    1CHOL   ROH15305   4.186  10.646   6.476 -0.3560  0.0290 -0.1213
    1CHOL    R115306   4.221  10.732   6.209 -0.1894  0.0621 -0.0892
    1CHOL    R215307   4.467  10.809   6.109 -0.1122 -0.0072  0.0497
    1CHOL    R315308   4.412  10.622   5.919 -0.0795  0.0456 -0.0121
    1CHOL    R415309   4.576  10.824   5.781 -0.0929  0.1117  0.0611
    1CHOL    R515310   4.380  10.750   5.718 -0.0827  0.1078  0.0259
    1CHOL    C115311   4.588  10.659   5.412 -0.0510  0.2304  0.0096
    1CHOL    C215312   4.776  10.666   4.961 -0.0084  0.0513 -0.2174
    1CHOL   ROH15313  29.449  16.234   5.844 -0.0861 -0.0471 -0.0501
    1CHOL    R115314  29.377  16.159   5.581 -0.0549 -0.0569 -0.0557
    1CHOL    R215315  29.457  16.301   5.358 -0.0871 -0.0251 -0.0459
    1CHOL    R315316  29.551  16.059   5.278 -0.0155  0.0043 -0.0539
    1CHOL    R415317  29.614  16.241   5.056 -0.1451  0.0163 -0.0846
    1CHOL    R515318  29.504  16.053   5.043 -0.0772 -0.0283 -0.0420
    1CHOL    C115319  29.793  15.978   4.805 -0.1112  0.0685 -0.1147
    1CHOL    C215320  29.880  15.947   4.414 -0.1311  0.2162 -0.1182
    1CHOL   ROH15321   1.461  20.818   6.387  0.0671  0.0028  0.1905
    1CHOL    R115322   1.666  20.884   6.203  0.0733 -0.1996  0.1210
    1CHOL    R215323   1.707  20.743   5.968 -0.1834 -0.2074  0.0725
    1CHOL    R315324   1.685  20.989   5.855  0.0515 -0.1558  0.1346
    1CHOL    R415325   1.782  20.818   5.639 -0.2331 -0.2121  0.0604
    1CHOL    R515326   1.872  21.004   5.707  0.0054 -0.3312  0.0636
    1CHOL    C115327   1.805  21.092   5.342 -0.0415 -0.1664  0.1117
    1CHOL    C215328   1.918  20.948   4.950 -0.0869 -0.2561 -0.2869
    1CHOL   ROH15329  10.596  21.260   3.387 -0.1403 -0.2921 -0.0258
    1CHOL    R115330  10.774  21.365   3.580 -0.0675 -0.2499 -0.1161
    1CHOL    R215331  10.695  21.545   3.773  0.0297 -0.1240 -0.1926
    1CHOL    R315332  10.804  21.363   3.942  0.0048 -0.0719 -0.1195
    1CHOL    R415333  10.792  21.612   4.098  0.1249  0.0181 -0.2493
    1CHOL    R515334  10.969  21.487   4.065  0.0756 -0.0608 -0.2231
    1CHOL    C115335  10.952  21.479   4.446  0.1572  0.1499 -0.2138
    1CHOL    C215336  10.839  21.429   4.775 -0.0090 -0.1131  0.1236
    1CHOL   ROH15337   6.307  14.108   6.626  0.1583  0.1124 -0.0157
    1CHOL    R115338   6.399  14.016   6.375  0.1115  0.1230 -0.0365
    1CHOL    R215339   6.229  13.971   6.161  0.0648  0.0800  0.0108
    1CHOL    R315340   6.399  14.139   6.032 -0.0039  0.1109 -0.0413
    1CHOL    R415341   6.331  13.936   5.833 -0.0309  0.1016 -0.0220
    1CHOL    R515342   6.531  13.996   5.894 -0.0219  0.1354 -0.0841
    1CHOL    C115343   6.549  14.073   5.521 -0.1513  0.1432 -0.0899
    1CHOL    C215344   6.466  13.968   5.110 -0.3491 -0.2067 -0.3343
    1CHOL   ROH15345  26.550  17.574   5.259 -0.0582  0.0216 -0.2302
    1CHOL    R115346  26.557  17.593   4.976  0.0568 -0.0793 -0.2360
    1CHOL    R215347  26.634  17.824   4.844 -0.0861 -0.0546 -0.2892
    1CHOL    R315348  26.810  17.656   4.722  0.1227  0.0511 -0.1372
    1CHOL    R415349  26.765  17.869   4.527  0.0947 -0.0329 -0.2115
    1CHOL    R515350  26.743  17.656   4.493  0.2804 -0.0531 -0.1803
    1CHOL    C115351  27.006  17.738   4.229  0.3963  0.0791 -0.0235
    1CHOL    C215352  27.169  17.816   4.001 -0.0755 -0.2707 -0.3738
    1CHOL   ROH15353  10.946   3.807   4.280  0.0714 -0.0163 -0.0366
    1CHOL    R115354  11.026   4.012   4.458  0.0905 -0.0147 -0.0468
    1CHOL    R215355  10.848   4.194   4.565  0.0995 -0.0235 -0.0169
    1CHOL    R315356  10.951   4.107   4.801  0.1400 -0.0213 -0.0339
    1CHOL    R415357  10.787   4.340   4.872  0.1321 -0.0335 -0.0060
    1CHOL    R515358  10.997   4.309   4.923  0.1426 -0.0195 -0.0368
    1CHOL    C115359  10.849   4.344   5.273  0.1890 -0.0373 -0.0156
    1CHOL    C215360  11.212   4.389   5.462 -0.0526  0.2393  0.2174
    1CHOL   ROH15361  12.848  15.912   6.050 -0.0607  0.3634 -0.0800
    1CHOL    R115362  12.880  16.100   5.841  0.3058  0.2807 -0.1042
    1CHOL    R215363  13.106  16.109   5.683  0.2695 -0.2806 -0.2048
    1CHOL    R315364  12.926  16.089   5.480  0.1210  0.1438 -0.1256
    1CHOL    R415365  13.148  16.245   5.368  0.4263 -0.3241 -0.2040
    1CHOL    R515366  12.937  16.302   5.370  0.5406  0.1455 -0.0984
    1CHOL    C115367  13.003  16.305   4.994  0.3782  0.0493 -0.1292
    1CHOL    C215368  13.106  16.482   4.718 -0.1541  0.0959  0.0910
    1CHOL   ROH15369   5.141  16.463   2.833 -0.0315  0.0127  0.1129
    1CHOL    R115370   5.115  16.309   3.069  0.1655  0.0340  0.1505
    1CHOL    R215371   5.312  16.299   3.263  0.2193  0.2607  0.1131
    1CHOL    R315372   5.109  16.374   3.427  0.1807  0.1020  0.1378
    1CHOL    R415373   5.312  16.264   3.607  0.1687  0.0106  0.0892
    1CHOL    R515374   5.103  16.204   3.596  0.1842 -0.0207  0.0139
    1CHOL    C115375   5.121  16.314   3.961  0.1028 -0.2842  0.0984
    1CHOL    C215376   5.243  16.429   4.384  0.2326 -0.1108  0.1649
    1CHOL   ROH15377   0.704  15.544   2.364 -0.1558  0.1586 -0.0683
    1CHOL    R115378   0.612  15.602   2.625 -0.0371  0.0229  0.0042
    1CHOL    R215379   0.348  15.663   2.679  0.0135  0.1101  0.1360
    1CHOL    R315380   0.371  15.460   2.858 -0.0226 -0.0233 -0.0072
    1CHOL    R415381   0.168  15.639   2.973  0.0586 -0.0235  0.1541
    1CHOL    R515382   0.349  15.567   3.071  0.0561 -0.1570  0.0724
    1CHOL    C115383   0.084  15.433   3.312  0.0510 -0.2265  0.0303
    1CHOL    C215384  -0.020  15.149   3.719 -0.4274  0.0699  0.1686
    1CHOL   ROH15385  29.433  23.293   4.325 -0.0345  0.1606  0.0698
    1CHOL    R115386  29.385  23.446   4.092  0.0304  0.1146  0.0262
    1CHOL    R215387  29.416  23.343   3.838 -0.0122  0.0293  0.0560
    1CHOL    R315388  29.160  23.430   3.807  0.0240  0.1287  0.0300
    1CHOL    R415389  29.244  23.348   3.538 -0.0193 -0.0185  0.0590
    1CHOL    R515390  29.161  23.542   3.595  0.0666  0.0424 -0.0163
    1CHOL    C115391  28.904  23.433   3.334  0.0108  0.0470  0.0364
    1CHOL    C215392  28.843  23.299   2.921 -0.1648  0.2834 -0.4015
    1CHOL   ROH15393   5.945  15.222   6.518  0.3279 -0.2700  0.1905
    1CHOL    R115394   6.028  15.102   6.275  0.0659 -0.3907  0.1574
    1CHOL    R215395   5.860  14.947   6.121 -0.3078  0.0718  0.0802
    1CHOL    R315396   5.932  15.121   5.925  0.1457 -0.0237  0.1497
    1CHOL    R415397   5.939  14.858   5.796 -0.2749 -0.0317  0.1159
    1CHOL    R515398   6.100  15.004   5.800  0.0100 -0.3293  0.2377
    1CHOL    C115399   6.053  14.969   5.423  0.1701 -0.1816  0.2020
    1CHOL    C215400   6.206  14.872   4.988  0.2318  0.0144 -0.0764
    1CHOL   ROH15401   0.704  27.994   6.114 -0.0005  0.0794 -0.0455
    1CHOL    R115402   0.787  28.019   5.845 -0.0353  0.0895 -0.0558
    1CHOL    R215403   0.640  27.918   5.633 -0.0040 -0.0101 -0.0332
    1CHOL    R315404   0.659  28.174   5.542 -0.1395 -0.0103 -0.0625
    1CHOL    R415405   0.600  28.014   5.304 -0.0514 -0.0653 -0.0434
    1CHOL    R515406   0.766  28.154   5.329 -0.1273  0.0249 -0.0579
    1CHOL    C115407   0.594  28.310   5.026 -0.2062 -0.0977 -0.0769
    1CHOL    C215408   0.371  28.602   4.972 -0.3064 -0.2049 -0.1919
    1CHOL   ROH15409  23.686  20.832   2.786  0.0066 -0.0982 -0.4034
    1CHOL    R115410  23.816  20.651   2.960 -0.0921 -0.1216 -0.3541
    1CHOL    R215411  23.832  20.380   2.908  0.0922 -0.0859 -0.4758
    1CHOL    R315412  24.099  20.422   2.939  0.0431  0.0238 -0.1670
    1CHOL    R415413  24.046  20.171   3.082 -0.0271  0.0096 -0.2084
    1CHOL    R515414  24.145  20.348   3.162 -0.1893  0.0582 -0.1026
    1CHOL    C115415  24.421  20.089   3.213 -0.1423  0.1683  0.2372
    1CHOL    C215416  24.514  19.658   3.385  0.0665  0.1307  0.1663
    1CHOL   ROH15417   0.678  10.931   6.446 -0.0275  0.0836  0.0077
    1CHOL    R115418   0.656  10.962   6.165  0.2429  0.0828 -0.0165
    1CHOL    R215419   0.875  10.958   5.997  0.3625 -0.4975  0.1339
    1CHOL    R315420   0.733  10.764   5.871 -0.0404 -0.1827  0.0816
    1CHOL    R415421   0.886  10.894   5.658  0.3188 -0.4939  0.1321
    1CHOL    R515422   0.671  10.862   5.661  0.2331 -0.0193  0.0699
    1CHOL    C115423   0.759  10.675   5.341 -0.0847 -0.1962  0.0818
    1CHOL    C215424   0.935  10.629   5.003 -0.3273 -0.1879 -0.2067
    1CHOL   ROH15425  15.227   8.284   3.951 -0.0022 -0.2943  0.0659
    1CHOL    R115426  15.243   8.338   4.228 -0.0262 -0.3513  0.0781
    1CHOL    R215427  15.100   8.542   4.348  0.1908 -0.1841  0.0541
    1CHOL    R315428  15.014   8.341   4.511 -0.1201 -0.0976  0.0028
    1CHOL    R415429  14.965   8.587   4.663  0.3734 -0.0543  0.1161
    1CHOL    R515430  15.076   8.412   4.731  0.0851 -0.2898  0.0121
    1CHOL    C115431  14.805   8.425   4.999  0.1878  0.1025  0.1039
    1CHOL    C215432  14.463   8.438   5.191 -0.0259  0.0581 -0.0009
    1CHOL   ROH15433   9.716   4.738   4.583 -0.2834  0.0982  0.1299
    1CHOL    R115434   9.875   4.673   4.807 -0.0834 -0.0254 -0.0443
    1CHOL    R215435   9.862   4.814   5.044  0.1715 -0.1152  0.0241
    1CHOL    R315436   9.817   4.568   5.151  0.2197 -0.1472 -0.0270
    1CHOL    R415437   9.892   4.737   5.380  0.1043 -0.1591  0.0206
    1CHOL    R515438   9.983   4.547   5.323  0.1803 -0.1218  0.0150
    1CHOL    C115439   9.866   4.461   5.676  0.1105 -0.2147 -0.0294
    1CHOL    C215440   9.759   4.191   6.016 -0.3559  0.0334  0.0907
    1CHOL   ROH15441  28.649   9.918   5.782 -0.0800 -0.0010 -0.1262
    1CHOL    R115442  28.768   9.989   5.535 -0.0088 -0.0124 -0.0960
    1CHOL    R215443  28.620  10.028   5.304  0.0480  0.0573 -0.1232
    1CHOL    R315444  28.747  10.268   5.302  0.1227  0.0183 -0.0715
    1CHOL    R415445  28.668  10.223   5.023  0.1654  0.0754 -0.0906
    1CHOL    R515446  28.868  10.270   5.095  0.1641  0.0052 -0.0460
    1CHOL    C115447  28.814  10.563   4.857  0.3039  0.0495 -0.0232
    1CHOL    C215448  28.767  10.485   4.552  0.0479 -0.1158 -0.0459
    1CHOL   ROH15449   4.715  10.828   3.193  0.1513  0.1330 -0.0674
    1CHOL    R115450   4.740  10.770   3.469 -0.0720  0.2066 -0.0292
    1CHOL    R215451   4.941  10.609   3.571 -0.3366 -0.0331  0.1417
    1CHOL    R315452   4.988  10.824   3.730 -0.1280 -0.0280  0.0750
    1CHOL    R415453   5.008  10.594   3.909 -0.0339 -0.0071  0.0847
    1CHOL    R515454   4.882  10.769   3.938  0.0447  0.0316  0.1782
    1CHOL    C115455   5.092  10.787   4.256  0.3382  0.0129 -0.0111
    1CHOL    C215456   5.046  10.839   4.565  0.1101  0.0213  0.0491
    1CHOL   ROH15457  11.272   7.522   4.787 -0.2246 -0.0194 -0.0524
    1CHOL    R115458  11.298   7.421   5.050 -0.0790  0.0777 -0.0286
    1CHOL    R215459  11.087   7.304   5.186 -0.0071  0.1364  0.1341
    1CHOL    R315460  11.263   7.098   5.214  0.0013  0.1394  0.1123
    1CHOL    R415461  11.072   7.063   5.433 -0.0208  0.0802  0.0800
    1CHOL    R515462  11.289   7.074   5.450 -0.0248  0.0886  0.1093
    1CHOL    C115463  11.228   6.730   5.603 -0.0211  0.0503  0.0279
    1CHOL    C215464  11.369   6.748   6.036  0.3223  0.1110 -0.0251
    1CHOL   ROH15465   2.448  20.860   6.513 -0.0876 -0.1108  0.0333
    1CHOL    R115466   2.565  20.952   6.272 -0.1440 -0.0467  0.0305
    1CHOL    R215467   2.739  20.798   6.124 -0.2309 -0.0321 -0.0845
    1CHOL    R315468   2.564  20.850   5.923 -0.2824  0.0886 -0.0104
    1CHOL    R415469   2.829  20.882   5.801 -0.3077 -0.0387 -0.1082
    1CHOL    R515470   2.667  21.028   5.799 -0.2321  0.0511 -0.0259
    1CHOL    C115471   2.717  20.980   5.424 -0.4007  0.0711 -0.0525
    1CHOL    C215472   2.780  21.375   5.180 -0.0724  0.1477 -0.0249
    1CHOL   ROH15473  28.794  18.700   5.711 -0.0370 -0.0813  0.0261
    1CHOL    R115474  28.901  18.733   5.451 -0.0435 -0.1161  0.0196
    1CHOL    R215475  28.985  18.521   5.297 -0.0694 -0.1360  0.0393
    1CHOL    R315476  28.814  18.628   5.114 -0.0632 -0.1393  0.0306
    1CHOL    R415477  29.022  18.494   4.954 -0.0272 -0.1114  0.0415
    1CHOL    R515478  28.958  18.703   4.936 -0.0475 -0.1122  0.0502
    1CHOL    C115479  28.884  18.579   4.583  0.0032 -0.1001  0.0345
    1CHOL    C215480  29.046  18.871   4.320  0.2305 -0.2269 -0.0191
    1CHOL   ROH15481  10.051  19.232   4.713  0.0836 -0.1080  0.0759
    1CHOL    R115482  10.019  19.450   4.535 -0.0164 -0.0422  0.1787
    1CHOL    R215483   9.913  19.421   4.281  0.1455  0.0000  0.1246
    1CHOL    R315484   9.742  19.614   4.366 -0.0713 -0.1827  0.1202
    1CHOL    R415485   9.799  19.684   4.088  0.0956  0.0163  0.1713
    1CHOL    R515486   9.819  19.814   4.261 -0.1293 -0.0568  0.2810
    1CHOL    C115487   9.571  20.018   4.055 -0.1370 -0.1456  0.1944
    1CHOL    C215488   9.584  20.299   3.770  0.2722 -0.1820 -0.1385
    1CHOL   ROH15489  14.598   8.939   3.401  0.0656 -0.2463  0.1398
    1CHOL    R115490  14.409   8.986   3.607  0.0595 -0.1009  0.1030
    1CHOL    R215491  14.213   8.803   3.672 -0.0660  0.0276  0.0980
    1CHOL    R315492  14.317   8.829   3.922 -0.0888 -0.0017  0.1099
    1CHOL    R415493  14.043   8.737   3.966 -0.1074  0.0387  0.0758
    1CHOL    R515494  14.136   8.913   4.054 -0.0896  0.0190  0.0947
    1CHOL    C115495  14.042   8.723   4.371 -0.1529  0.0177  0.0741
    1CHOL    C215496  13.920   8.992   4.674  0.2879  0.2177 -0.3419
    1CHOL   ROH15497  28.191  23.672   6.047 -0.0504  0.0583 -0.0828
    1CHOL    R115498  28.206  23.519   5.809 -0.4175  0.0549 -0.1109
    1CHOL    R215499  28.021  23.541   5.605 -0.3487  0.5794 -0.1370
    1CHOL    R315500  28.242  23.586   5.453 -0.1957  0.0422 -0.0911
    1CHOL    R415501  28.021  23.574   5.261 -0.1710  0.5053 -0.1439
    1CHOL    R515502  28.205  23.458   5.255 -0.4319  0.0812 -0.0696
    1CHOL    C115503  28.229  23.635   4.918  0.0760 -0.0422 -0.1048
    1CHOL    C215504  28.120  23.829   4.712 -0.1366 -0.1513  0.1204
    1DPPC   NC315505   5.886  11.248   2.470 -0.0137 -0.0017  0.1503
    1DPPC   PO415506   5.647  11.550   2.788 -0.0644  0.2199  0.0468
    1DPPC   GL115507   5.363  11.277   3.091 -0.2479  0.2415  0.0521
    1DPPC   GL215508   5.678  11.136   3.240 -0.0156 -0.0172 -0.1198
    1DPPC   C1A15509   5.203  11.213   3.514 -0.2942  0.1391  0.0852
    1DPPC   C2A15510   5.230  11.210   3.972 -0.0078  0.1936 -0.1263
    1DPPC   C3A15511   5.032  11.289   4.349  0.0305 -0.0894 -0.0469
    1DPPC   C4A15512   4.615  11.427   4.540 -0.1050  0.1803 -0.0988
    1DPPC   C1B15513   5.846  11.069   3.686 -0.0880 -0.3364 -0.1524
    1DPPC   C2B15514   5.761  11.163   4.156  0.0264  0.0619 -0.0584
    1DPPC   C3B15515   5.488  11.133   4.553 -0.1875 -0.4059  0.0239
    1DPPC   C4B15516   5.626  11.377   5.018  0.0137  0.2859 -0.2777
    1DPPC   NC315517   2.707  12.359   2.084  0.0035  0.0665  0.1483
    1DPPC   PO415518   2.631  12.336   2.532  0.3337  0.0807  0.2638
    1DPPC   GL115519   2.767  12.290   2.916  0.2622 -0.3577 -0.3880
    1DPPC   GL215520   3.056  12.217   2.900 -0.2457  0.0555  0.2223
    1DPPC   C1A15521   2.703  12.294   3.299  0.0647  0.0793 -0.0572
    1DPPC   C2A15522   2.506  12.303   3.746 -0.3140  0.0577 -0.0459
    1DPPC   C3A15523   2.427  12.608   4.055 -0.1610 -0.0729 -0.1548
    1DPPC   C4A15524   2.469  12.633   4.523  0.1204  0.3162  0.1541
    1DPPC   C1B15525   3.248  12.417   3.236 -0.1650  0.1390  0.0466
    1DPPC   C2B15526   3.383  12.498   3.704  0.1823  0.1298  0.2441
    1DPPC   C3B15527   3.362  12.629   4.171  0.0494  0.0045 -0.1342
    1DPPC   C4B15528   3.151  12.583   4.533  0.0128 -0.1325 -0.0988
    1DPPC   NC315529   5.896  14.518   2.239 -0.0437 -0.1498  0.1207
    1DPPC   PO415530   6.110  14.354   2.512 -0.5894  0.1163  0.0674
    1DPPC   GL115531   6.156  14.345   2.992  0.2463  0.4561 -0.1117
    1DPPC   GL215532   5.840  14.212   3.113  0.0482  0.1264 -0.2763
    1DPPC   C1A15533   6.237  14.375   3.368  0.3734  0.0197  0.2704
    1DPPC   C2A15534   6.048  14.413   3.754 -0.1080  0.3074  0.2030
    1DPPC   C3A15535   5.923  14.389   4.048 -0.0253  0.0936  0.1079
    1DPPC   C4A15536   5.710  14.506   4.455 -0.1297  0.2775 -0.0656
    1DPPC   C1B15537   5.634  14.169   3.471  0.0876 -0.2779 -0.0277
    1DPPC   C2B15538   5.499  14.141   3.906  0.0209 -0.1104  0.3173
    1DPPC   C3B15539   5.315  14.221   4.225 -0.2160 -0.0808  0.0391
    1DPPC   C4B15540   5.104  14.298   4.588 -0.2361  0.3100 -0.0614
    1DPPC   NC315541  26.066  18.286   0.835 -0.1099  0.1594 -0.1905
    1DPPC   PO415542  26.259  18.468   1.265  0.1902  0.0863 -0.2398
    1DPPC   GL115543  26.080  18.396   1.712 -0.1945  0.1931 -0.2098
    1DPPC   GL215544  26.088  18.619   1.923 -0.4045 -0.1517  0.2310
    1DPPC   C1A15545  26.000  18.137   2.020 -0.1889  0.0363  0.3124
    1DPPC   C2A15546  25.982  18.282   2.336 -0.0823  0.1260  0.0664
    1DPPC   C3A15547  26.114  18.616   2.613  0.0909 -0.0811 -0.0358
    1DPPC   C4A15548  26.344  18.624   3.005  0.0293 -0.1730 -0.1093
    1DPPC   C1B15549  26.465  18.523   2.239  0.1031 -0.0899  0.0879
    1DPPC   C2B15550  26.485  18.320   2.598 -0.2732 -0.1396  0.0153
    1DPPC   C3B15551  26.163  18.146   2.878 -0.0915  0.1979  0.3916
    1DPPC   C4B15552  26.111  18.105   3.249  0.0246 -0.2434 -0.1224
    1DPPC   NC315553  28.666  12.687   1.906 -0.4094  0.1430  0.4585
    1DPPC   PO415554  28.220  12.618   2.034 -0.0592 -0.0298 -0.0795
    1DPPC   GL115555  28.054  12.742   2.494  0.1736  0.1970  0.4494
    1DPPC   GL215556  28.201  12.776   2.778 -0.5885  0.1641  0.0812
    1DPPC   C1A15557  27.758  12.627   2.728 -0.1860 -0.0938 -0.2918
    1DPPC   C2A15558  27.523  12.693   3.133 -0.3349 -0.0089  0.0348
    1DPPC   C3A15559  27.454  12.836   3.542 -0.2707  0.1305  0.0287
    1DPPC   C4A15560  27.245  12.738   3.913 -0.0308  0.0777  0.0198
    1DPPC   C1B15561  28.017  12.891   3.112 -0.2011 -0.0110  0.3247
    1DPPC   C2B15562  27.980  13.075   3.515 -0.0266  0.1519  0.0467
    1DPPC   C3B15563  28.155  13.039   3.894  0.0586 -0.2034 -0.0033
    1DPPC   C4B15564  28.195  13.178   4.279 -0.1529 -0.1734  0.0329
    1DPPC   NC315565   3.729  11.522   2.663  0.0050  0.0414 -0.1271
    1DPPC   PO415566   4.143  11.596   2.680 -0.2468 -0.0101 -0.1621
    1DPPC   GL115567   4.041  11.689   3.046 -0.1380  0.0615 -0.0136
    1DPPC   GL215568   3.816  11.917   3.021  0.0475  0.0614  0.1944
    1DPPC   C1A15569   4.056  11.447   3.298  0.1724  0.1083  0.1001
    1DPPC   C2A15570   4.250  11.318   3.721 -0.0231 -0.0251  0.3640
    1DPPC   C3A15571   4.259  11.375   4.099 -0.1499  0.1059 -0.0372
    1DPPC   C4A15572   4.150  11.428   4.373 -0.1777 -0.3548 -0.0824
    1DPPC   C1B15573   3.517  11.996   3.233 -0.1341  0.2611 -0.0750
    1DPPC   C2B15574   3.524  12.000   3.568  0.1828 -0.1906 -0.1229
    1DPPC   C3B15575   3.401  12.120   4.102 -0.0650 -0.1600  0.0610
    1DPPC   C4B15576   3.119  12.035   4.493 -0.1987 -0.0843 -0.0047
    1DPPC   NC315577   5.869  21.183   2.591  0.0255  0.3247  0.0848
    1DPPC   PO415578   5.867  21.577   2.814 -0.1133  0.1451  0.1247
    1DPPC   GL115579   6.047  21.543   3.159  0.0881 -0.1992 -0.2434
    1DPPC   GL215580   5.940  21.804   3.324 -0.0212 -0.0944  0.0506
    1DPPC   C1A15581   6.054  21.385   3.471  0.2573  0.1083 -0.0219
    1DPPC   C2A15582   6.059  21.531   3.856  0.1111  0.0388 -0.2547
    1DPPC   C3A15583   5.998  21.500   4.285 -0.1024  0.3629  0.1152
    1DPPC   C4A15584   5.868  21.634   4.662  0.0759  0.3993  0.0041
    1DPPC   C1B15585   6.017  22.027   3.650  0.0648  0.0022 -0.2136
    1DPPC   C2B15586   5.990  21.999   4.005  0.1646 -0.0730  0.1667
    1DPPC   C3B15587   6.003  22.116   4.317 -0.3337 -0.1713  0.0084
    1DPPC   C4B15588   5.880  22.382   4.772 -0.2057  0.2198 -0.1300
    1DPPC   NC315589   5.655  19.911   2.500  0.1397 -0.2919 -0.0504
    1DPPC   PO415590   5.380  19.552   2.363  0.0314 -0.0032  0.4687
    1DPPC   GL115591   5.306  19.656   2.778  0.1133  0.0825 -0.0251
    1DPPC   GL215592   5.151  19.889   2.880  0.1775 -0.1761  0.1355
    1DPPC   C1A15593   5.340  19.575   3.227  0.0934 -0.1985  0.0940
    1DPPC   C2A15594   5.440  19.563   3.586  0.1197  0.3245 -0.1851
    1DPPC   C3A15595   5.441  19.565   4.013  0.0601  0.0095 -0.1134
    1DPPC   C4A15596   5.262  19.437   4.482  0.0472  0.1259  0.1054
    1DPPC   C1B15597   4.926  19.896   3.220 -0.0820  0.0287 -0.0937
    1DPPC   C2B15598   4.986  19.783   3.653  0.1180  0.0129  0.1889
    1DPPC   C3B15599   5.072  19.905   4.061  0.1600 -0.0567 -0.1504
    1DPPC   C4B15600   4.896  19.844   4.487 -0.2630 -0.0218  0.0321
    1DPPC   NC315601   0.774   2.567   3.557  0.0269 -0.2006  0.1502
    1DPPC   PO415602   0.590   3.005   3.458 -0.0388 -0.2338 -0.1372
    1DPPC   GL115603   0.429   2.873   3.884  0.1345  0.0427  0.0173
    1DPPC   GL215604   0.429   2.552   4.010 -0.0223 -0.0734  0.2259
    1DPPC   C1A15605   0.554   2.964   4.240 -0.0064 -0.3090 -0.3132
    1DPPC   C2A15606   0.770   2.938   4.671 -0.1925  0.0266 -0.0336
    1DPPC   C3A15607   0.583   2.886   4.930  0.0477 -0.0133  0.0016
    1DPPC   C4A15608   0.448   2.530   4.961 -0.4085  0.3486 -0.3415
    1DPPC   C1B15609   0.707   2.502   4.372 -0.1237  0.0173 -0.0496
    1DPPC   C2B15610   1.062   2.516   4.551  0.0946  0.2793 -0.0686
    1DPPC   C3B15611   1.491   2.566   4.823 -0.0599 -0.0442  0.2451
    1DPPC   C4B15612   1.913   2.741   4.683  0.2660 -0.2739 -0.1243
    1DPPC   NC315613  25.716  24.822   2.735 -0.1356 -0.3157  0.1723
    1DPPC   PO415614  25.286  24.747   2.768  0.0817 -0.3099 -0.2647
    1DPPC   GL115615  25.369  24.888   3.130 -0.2000  0.2527  0.1252
    1DPPC   GL215616  25.103  24.729   3.271  0.0146  0.0289  0.2295
    1DPPC   C1A15617  25.654  24.999   3.485 -0.1952  0.0684 -0.1559
    1DPPC   C2A15618  26.145  25.064   3.492  0.1659  0.2780 -0.0901
    1DPPC   C3A15619  26.509  24.775   3.522  0.1071 -0.3398  0.2492
    1DPPC   C4A15620  26.721  24.532   3.814 -0.1684  0.3584  0.0073
    1DPPC   C1B15621  25.420  24.561   3.517  0.1327 -0.0141  0.2809
    1DPPC   C2B15622  25.480  24.419   3.945  0.1130 -0.0153 -0.0142
    1DPPC   C3B15623  25.105  24.390   4.196 -0.1212 -0.1634  0.2784
    1DPPC   C4B15624  24.694  24.500   4.353  0.0443 -0.3351 -0.1328
    1DPPC   NC315625  21.497  17.176   1.921 -0.2229  0.1634  0.0743
    1DPPC   PO415626  21.483  16.767   1.987 -0.0862  0.2411  0.0853
    1DPPC   GL115627  21.637  16.520   2.369  0.1944  0.0517 -0.1209
    1DPPC   GL215628  21.345  16.420   2.495 -0.0617  0.4119  0.0373
    1DPPC   C1A15629  21.722  16.430   2.843  0.1853 -0.1851 -0.1744
    1DPPC   C2A15630  21.855  16.623   3.154  0.0663 -0.0835 -0.0407
    1DPPC   C3A15631  22.320  16.596   3.298 -0.1912 -0.1453  0.2560
    1DPPC   C4A15632  22.591  16.838   3.602  0.0806 -0.1147  0.0838
    1DPPC   C1B15633  21.116  16.181   2.868 -0.0660  0.3177 -0.0686
    1DPPC   C2B15634  20.876  15.850   3.005 -0.0072 -0.2361  0.1380
    1DPPC   C3B15635  20.388  15.758   3.133 -0.4205  0.1639 -0.1832
    1DPPC   C4B15636  20.003  15.912   3.214  0.0035  0.0396  0.0400
    1DPPC   NC315637   8.002  15.098   2.295  0.1467  0.0324 -0.2552
    1DPPC   PO415638   7.900  15.155   2.785 -0.0601  0.1395 -0.0781
    1DPPC   GL115639   7.833  15.251   3.157 -0.4866 -0.2535 -0.3428
    1DPPC   GL215640   7.593  15.396   3.181  0.0108  0.1139 -0.0702
    1DPPC   C1A15641   7.952  15.301   3.579 -0.0753 -0.0134  0.0584
    1DPPC   C2A15642   7.985  15.426   4.015 -0.1738  0.1513  0.0070
    1DPPC   C3A15643   8.347  15.371   4.279  0.0175  0.0681  0.1293
    1DPPC   C4A15644   8.624  15.127   4.416 -0.1992  0.0545 -0.0594
    1DPPC   C1B15645   7.415  15.270   3.518  0.3102  0.3070  0.0030
    1DPPC   C2B15646   7.388  15.334   4.005 -0.0639 -0.0470  0.0977
    1DPPC   C3B15647   7.412  15.256   4.418 -0.1250 -0.0573  0.0404
    1DPPC   C4B15648   7.308  15.096   4.808  0.2518 -0.0657 -0.0688
    1DPPC   NC315649   7.484  12.588   2.561 -0.1089  0.1190 -0.2272
    1DPPC   PO415650   7.325  12.909   2.761 -0.0628  0.0521 -0.1666
    1DPPC   GL115651   7.185  12.896   3.126  0.0113  0.4938  0.2615
    1DPPC   GL215652   7.043  12.682   3.250  0.0666 -0.0795  0.2242
    1DPPC   C1A15653   7.543  12.981   3.420  0.0514 -0.2283 -0.0008
    1DPPC   C2A15654   7.636  12.938   3.933  0.1244  0.1200  0.2775
    1DPPC   C3A15655   7.453  12.879   4.353 -0.0185  0.0009 -0.0197
    1DPPC   C4A15656   7.260  12.680   4.744  0.4044 -0.0215  0.1794
    1DPPC   C1B15657   7.068  12.799   3.628  0.2597  0.0043 -0.0438
    1DPPC   C2B15658   7.066  12.855   3.981  0.0265  0.1253 -0.1395
    1DPPC   C3B15659   6.932  12.637   4.316 -0.1057 -0.0202 -0.1151
    1DPPC   C4B15660   6.831  12.405   4.703 -0.0445  0.0056 -0.2318
    1DPPC   NC315661   1.354  22.933   2.354 -0.1260  0.0779 -0.2429
    1DPPC   PO415662   1.175  22.836   2.738  0.0686  0.0404 -0.3103
    1DPPC   GL115663   1.285  22.879   3.166 -0.0579  0.0022  0.2967
    1DPPC   GL215664   1.406  22.605   3.278 -0.0080  0.1187  0.3376
    1DPPC   C1A15665   1.185  23.156   3.411  0.0265 -0.0913  0.0378
    1DPPC   C2A15666   1.253  23.253   3.850  0.1260  0.0019 -0.4476
    1DPPC   C3A15667   1.203  23.473   4.192 -0.1222 -0.0469  0.1008
    1DPPC   C4A15668   1.283  23.859   4.502  0.0608 -0.1803  0.2398
    1DPPC   C1B15669   1.149  22.753   3.702  0.2959  0.3165  0.0917
    1DPPC   C2B15670   1.082  22.800   4.111 -0.1788  0.1595  0.0391
    1DPPC   C3B15671   0.941  23.014   4.348  0.1738 -0.0816  0.3999
    1DPPC   C4B15672   0.960  23.342   4.657  0.0100  0.1130 -0.2624
    1DPPC   NC315673   7.791  19.537   2.542 -0.3456 -0.0457  0.0890
    1DPPC   PO415674   7.299  19.438   2.459  0.1350  0.3122 -0.0527
    1DPPC   GL115675   7.324  19.312   2.864  0.1249 -0.1676  0.0593
    1DPPC   GL215676   7.521  19.075   2.859 -0.0524  0.1604  0.1826
    1DPPC   C1A15677   7.218  19.480   3.215 -0.1423 -0.2795  0.2073
    1DPPC   C2A15678   7.370  19.766   3.495 -0.1030  0.0578 -0.2608
    1DPPC   C3A15679   7.385  20.013   3.797 -0.1549 -0.3370 -0.0964
    1DPPC   C4A15680   7.347  19.906   4.243  0.3468 -0.0837 -0.1558
    1DPPC   C1B15681   7.360  19.024   3.268 -0.2667  0.0861  0.0187
    1DPPC   C2B15682   7.319  19.195   3.611  0.1091 -0.1944 -0.2379
    1DPPC   C3B15683   7.386  19.123   4.060  0.0874  0.0679 -0.0742
    1DPPC   C4B15684   7.433  19.056   4.573  0.0360  0.1277 -0.0161
    1DPPC   NC315685   4.037  12.583   2.525 -0.0845 -0.2680 -0.0717
    1DPPC   PO415686   3.977  12.124   2.599  0.1405 -0.2048 -0.2414
    1DPPC   GL115687   4.194  12.339   2.917 -0.1098 -0.4291  0.1755
    1DPPC   GL215688   4.302  12.107   3.119  0.2375 -0.3042  0.1397
    1DPPC   C1A15689   4.296  12.544   3.359  0.0229 -0.2345 -0.0495
    1DPPC   C2A15690   4.057  12.738   3.604 -0.4528 -0.2964  0.0895
    1DPPC   C3A15691   3.953  12.692   4.082 -0.0061 -0.1454  0.1186
    1DPPC   C4A15692   3.962  12.811   4.571 -0.2473 -0.3172 -0.3238
    1DPPC   C1B15693   4.019  11.969   3.499  0.2965 -0.0157  0.2019
    1DPPC   C2B15694   4.036  11.809   3.878  0.3156 -0.0932  0.2209
    1DPPC   C3B15695   3.798  11.779   4.111  0.2964 -0.0246 -0.0602
    1DPPC   C4B15696   3.657  11.807   4.493  0.1944  0.1132  0.4884
    1DPPC   NC315697  29.487  18.874   1.578 -0.1392 -0.1565 -0.1117
    1DPPC   PO415698  29.278  19.138   1.833  0.0136 -0.0144 -0.0471
    1DPPC   GL115699  29.101  18.997   2.207 -0.0598  0.0607 -0.2922
    1DPPC   GL215700  28.776  19.281   2.103 -0.1245  0.0532 -0.2272
    1DPPC   C1A15701  28.906  18.897   2.461 -0.0162 -0.2309  0.1662
    1DPPC   C2A15702  28.835  18.891   2.897 -0.1519  0.1571  0.2030
    1DPPC   C3A15703  28.609  18.836   3.226  0.0912 -0.0132  0.0796
    1DPPC   C4A15704  28.834  18.723   3.579 -0.0532  0.1477  0.0950
    1DPPC   C1B15705  28.700  19.337   2.569 -0.0125  0.1768 -0.1344
    1DPPC   C2B15706  28.569  19.278   3.031 -0.2189 -0.0310 -0.3290
    1DPPC   C3B15707  28.411  19.320   3.437  0.0702  0.0753  0.3156
    1DPPC   C4B15708  28.430  19.516   3.889 -0.0652  0.0021 -0.4155
    1DPPC   NC315709   9.867  17.593   2.165 -0.3604  0.1721  0.0195
    1DPPC   PO415710   9.608  17.453   2.579  0.1433 -0.2656  0.1301
    1DPPC   GL115711   9.514  17.571   2.956 -0.1245 -0.0588 -0.0627
    1DPPC   GL215712   9.330  17.293   3.040  0.1028 -0.0156 -0.1986
    1DPPC   C1A15713   9.455  17.796   3.347  0.1001 -0.2601  0.1157
    1DPPC   C2A15714   9.460  17.946   3.756  0.1787 -0.0049  0.2264
    1DPPC   C3A15715   9.390  17.890   4.133 -0.0964  0.0150  0.1893
    1DPPC   C4A15716   9.615  17.892   4.447 -0.0908  0.1897 -0.1440
    1DPPC   C1B15717   9.254  17.431   3.595  0.0586  0.1821 -0.0966
    1DPPC   C2B15718   9.212  17.400   4.063 -0.2098 -0.1935  0.0923
    1DPPC   C3B15719   9.276  17.473   4.469 -0.0007 -0.1167  0.1453
    1DPPC   C4B15720   9.330  17.701   4.871  0.1107  0.0727  0.0113
    1DPPC   NC315721   3.440  21.874   2.188  0.0731 -0.0716  0.0401
    1DPPC   PO415722   3.653  21.686   2.610 -0.1051 -0.2459  0.2192
    1DPPC   GL115723   3.749  21.712   2.959 -0.2522  0.3033 -0.0527
    1DPPC   GL215724   3.741  22.020   3.108  0.2935  0.2288 -0.1228
    1DPPC   C1A15725   3.813  21.525   3.390  0.1940 -0.1330 -0.2085
    1DPPC   C2A15726   3.792  21.408   3.844 -0.0135 -0.1843 -0.0111
    1DPPC   C3A15727   3.644  21.424   4.245 -0.0377 -0.1648  0.1970
    1DPPC   C4A15728   3.890  21.565   4.557 -0.1165 -0.0341  0.0025
    1DPPC   C1B15729   3.776  22.092   3.568  0.2402 -0.0020  0.4450
    1DPPC   C2B15730   3.819  21.952   4.070  0.2310  0.3235  0.1007
    1DPPC   C3B15731   3.531  21.917   4.414 -0.0974 -0.2453 -0.1141
    1DPPC   C4B15732   3.441  21.653   4.829  0.1251 -0.1651  0.2790
    1DPPC   NC315733  28.491  18.346   1.603  0.1206  0.0384  0.2398
    1DPPC   PO415734  28.427  18.762   1.613  0.2441  0.1793 -0.0851
    1DPPC   GL115735  28.315  18.732   2.054  0.2644  0.0864  0.0665
    1DPPC   GL215736  28.379  18.979   2.254  0.1706  0.3545 -0.1265
    1DPPC   C1A15737  28.034  18.648   2.420 -0.0174  0.0316  0.2119
    1DPPC   C2A15738  28.045  18.496   2.695  0.3631 -0.0692  0.0719
    1DPPC   C3A15739  27.928  18.471   3.097 -0.0014 -0.0453 -0.1770
    1DPPC   C4A15740  27.878  18.359   3.455 -0.2998  0.0059  0.2072
    1DPPC   C1B15741  28.460  18.943   2.601  0.0740 -0.3927  0.0427
    1DPPC   C2B15742  28.253  18.896   2.922 -0.0124  0.0164  0.0056
    1DPPC   C3B15743  28.158  18.846   3.386 -0.3514 -0.2058  0.1173
    1DPPC   C4B15744  28.425  18.866   3.751 -0.0355 -0.1065 -0.1971
    1DPPC   NC315745   5.679  19.231   2.115  0.1143  0.2537  0.0055
    1DPPC   PO415746   5.486  18.904   2.388  0.0484 -0.0465 -0.1760
    1DPPC   GL115747   5.391  19.135   2.695  0.3328  0.1039 -0.2305
    1DPPC   GL215748   5.249  19.131   2.985  0.1064  0.0199 -0.1014
    1DPPC   C1A15749   5.740  19.431   2.946 -0.0518 -0.1914 -0.0956
    1DPPC   C2A15750   5.841  19.318   3.375 -0.0773 -0.4324  0.0465
    1DPPC   C3A15751   5.849  19.310   3.809 -0.1193  0.0031  0.2269
    1DPPC   C4A15752   5.782  19.207   4.180 -0.1120 -0.1309  0.5726
    1DPPC   C1B15753   5.406  19.096   3.416  0.0641  0.2579  0.0425
    1DPPC   C2B15754   5.391  19.079   3.894  0.2425 -0.0718 -0.1908
    1DPPC   C3B15755   5.366  18.883   4.313  0.5330 -0.0878 -0.1111
    1DPPC   C4B15756   5.422  19.051   4.729  0.0150  0.0213 -0.0467
    1DPPC   NC315757  26.198  11.639   1.786 -0.4846 -0.1983 -0.2648
    1DPPC   PO415758  26.446  11.928   2.129  0.2491  0.0055 -0.1942
    1DPPC   GL115759  26.483  12.027   2.506  0.0613 -0.0837 -0.0289
    1DPPC   GL215760  26.743  12.177   2.614  0.1212 -0.1085  0.0261
    1DPPC   C1A15761  26.270  12.102   2.833  0.3226  0.2180  0.0326
    1DPPC   C2A15762  26.063  12.006   3.214  0.3393 -0.2451 -0.3794
    1DPPC   C3A15763  25.992  12.063   3.624 -0.2138  0.0319 -0.2480
    1DPPC   C4A15764  26.016  12.245   3.928 -0.3039 -0.0687 -0.1930
    1DPPC   C1B15765  26.676  12.109   3.063 -0.4356 -0.0234 -0.0880
    1DPPC   C2B15766  26.547  12.209   3.393  0.3478  0.0209 -0.0157
    1DPPC   C3B15767  26.502  12.176   3.777  0.1685  0.4944  0.1775
    1DPPC   C4B15768  26.480  12.371   4.195  0.2134 -0.0341 -0.0287
    1DPPC   NC315769   7.275  13.854   2.419 -0.2020 -0.0944 -0.1412
    1DPPC   PO415770   7.380  13.888   2.887 -0.2523 -0.1267 -0.0048
    1DPPC   GL115771   7.544  13.752   3.210  0.0343 -0.4141  0.0133
    1DPPC   GL215772   7.711  13.498   3.303  0.2553  0.0356  0.0944
    1DPPC   C1A15773   7.454  13.738   3.657 -0.0834  0.0980  0.2209
    1DPPC   C2A15774   7.470  13.871   4.152 -0.0979  0.2312  0.2240
    1DPPC   C3A15775   7.698  13.857   4.443  0.0021  0.2882 -0.4012
    1DPPC   C4A15776   8.035  13.535   4.679  0.1032 -0.1590 -0.0858
    1DPPC   C1B15777   7.805  13.342   3.688 -0.2617  0.1281  0.0764
    1DPPC   C2B15778   7.787  13.392   4.096  0.1799  0.1063  0.1682
    1DPPC   C3B15779   7.589  13.343   4.492  0.2534  0.0689 -0.5455
    1DPPC   C4B15780   7.397  13.182   4.794  0.2395 -0.0401  0.1047
    1DPPC   NC315781   0.339  17.561   1.777 -0.0845  0.0009 -0.3653
    1DPPC   PO415782   0.430  17.963   1.859 -0.0955  0.2513 -0.1274
    1DPPC   GL115783   0.560  18.017   2.309 -0.1356 -0.0327 -0.0741
    1DPPC   GL215784   0.476  18.224   2.478 -0.0698  0.5619 -0.3298
    1DPPC   C1A15785   0.568  17.752   2.715 -0.1521  0.2789  0.1207
    1DPPC   C2A15786   0.588  17.620   3.170 -0.2416  0.5447  0.2004
    1DPPC   C3A15787   0.544  17.780   3.469  0.1059 -0.0597 -0.0497
    1DPPC   C4A15788   0.546  17.932   3.945 -0.0629 -0.1512  0.0965
    1DPPC   C1B15789   0.398  18.307   2.781 -0.1755  0.2454 -0.0534
    1DPPC   C2B15790   0.245  18.165   3.250 -0.0525  0.0400  0.3103
    1DPPC   C3B15791   0.119  18.003   3.671 -0.1095  0.0181 -0.1680
    1DPPC   C4B15792   0.230  17.572   3.708 -0.1403 -0.1618  0.3128
    1DPPC   NC315793   5.225  12.447   2.980 -0.0447 -0.2783 -0.1491
    1DPPC   PO415794   4.906  12.223   2.571 -0.1360  0.1621  0.3345
    1DPPC   GL115795   4.965  11.994   2.929 -0.0415  0.1213 -0.1340
    1DPPC   GL215796   4.896  12.172   3.248 -0.0322 -0.1733 -0.3155
    1DPPC   C1A15797   5.167  11.733   3.339  0.0993 -0.0567 -0.0438
    1DPPC   C2A15798   5.102  11.667   3.728  0.1787  0.1904 -0.2284
    1DPPC   C3A15799   4.951  11.727   4.104  0.1546 -0.0880 -0.1644
    1DPPC   C4A15800   5.046  11.887   4.461 -0.1130 -0.0142 -0.3321
    1DPPC   C1B15801   4.865  12.137   3.724  0.0327 -0.1530 -0.2284
    1DPPC   C2B15802   4.777  12.254   4.093 -0.1063  0.0651 -0.1409
    1DPPC   C3B15803   4.438  12.329   4.380 -0.1132  0.1735 -0.1837
    1DPPC   C4B15804   4.165  12.353   4.747  0.1227  0.1327  0.1631
    1DPPC   NC315805   2.345   9.540   2.121 -0.0837 -0.3671  0.1599
    1DPPC   PO415806   2.678   9.266   2.072 -0.2795 -0.0138  0.0188
    1DPPC   GL115807   2.656   9.383   2.564  0.0306  0.1825 -0.0581
    1DPPC   GL215808   2.282   9.363   2.636 -0.1377  0.0894  0.1759
    1DPPC   C1A15809   2.819   9.645   2.889 -0.0410  0.1583  0.1025
    1DPPC   C2A15810   3.133   9.932   3.078 -0.0483  0.1921 -0.1326
    1DPPC   C3A15811   3.330  10.082   3.414 -0.0009 -0.1058  0.2931
    1DPPC   C4A15812   3.650  10.284   3.509 -0.1029  0.1003  0.0914
    1DPPC   C1B15813   2.428   9.305   3.085 -0.0896 -0.2627 -0.1935
    1DPPC   C2B15814   2.884   9.385   3.321  0.1225  0.1575  0.0170
    1DPPC   C3B15815   3.249   9.635   3.434 -0.1747  0.2890 -0.1065
    1DPPC   C4B15816   3.402   9.695   3.826  0.2792  0.1051  0.0248
    1DPPC   NC315817  26.485  19.765   0.855  0.0415  0.0293 -0.3122
    1DPPC   PO415818  26.592  19.943   1.332  0.1606  0.0951 -0.1317
    1DPPC   GL115819  26.633  19.764   1.775  0.2453 -0.0869  0.1815
    1DPPC   GL215820  26.985  19.981   1.905 -0.1212 -0.1965 -0.0768
    1DPPC   C1A15821  26.614  19.814   2.262 -0.3759  0.3035  0.1063
    1DPPC   C2A15822  26.802  19.987   2.542  0.2329  0.0817 -0.0470
    1DPPC   C3A15823  26.717  20.178   2.868 -0.1089 -0.3421 -0.2173
    1DPPC   C4A15824  26.644  20.256   3.306  0.1757 -0.0987  0.0333
    1DPPC   C1B15825  26.805  20.273   2.154 -0.1303 -0.0559  0.0507
    1DPPC   C2B15826  26.719  20.622   2.476 -0.1654 -0.0362 -0.3241
    1DPPC   C3B15827  26.788  20.681   2.798 -0.0338 -0.1130 -0.1831
    1DPPC   C4B15828  26.781  20.694   3.115 -0.3869  0.1752 -0.3992
    1DPPC   NC315829  23.202  18.863   2.089  0.0417  0.1661 -0.0527
    1DPPC   PO415830  22.958  18.503   2.010 -0.3051  0.1057 -0.0796
    1DPPC   GL115831  22.966  18.261   2.492  0.2719 -0.1815  0.0460
    1DPPC   GL215832  23.149  18.119   2.626 -0.1131 -0.2284 -0.0522
    1DPPC   C1A15833  22.821  18.292   2.967  0.1064 -0.0937 -0.0784
    1DPPC   C2A15834  22.708  18.049   3.392 -0.1195  0.2000  0.2991
    1DPPC   C3A15835  23.123  17.910   3.606 -0.1304 -0.1626 -0.0657
    1DPPC   C4A15836  23.476  17.663   3.715 -0.2856 -0.0763 -0.0534
    1DPPC   C1B15837  23.189  17.957   3.069  0.1542 -0.2276 -0.0758
    1DPPC   C2B15838  23.527  17.957   3.315 -0.2307 -0.4125 -0.3635
    1DPPC   C3B15839  23.811  17.700   3.335  0.0512  0.1651  0.2183
    1DPPC   C4B15840  23.815  17.202   3.135 -0.0757  0.0305  0.0023
    1DPPC   NC315841  28.164  23.464   2.249 -0.0171 -0.0186 -0.1297
    1DPPC   PO415842  28.661  23.381   2.111  0.1689 -0.0887  0.2260
    1DPPC   GL115843  28.560  23.145   2.545 -0.2821 -0.1560  0.2015
    1DPPC   GL215844  28.419  23.455   2.709 -0.1123  0.1108  0.2158
    1DPPC   C1A15845  28.369  23.010   2.915  0.1431  0.1737  0.0554
    1DPPC   C2A15846  28.073  22.973   3.337 -0.1092 -0.0536 -0.0368
    1DPPC   C3A15847  28.208  22.960   3.807  0.0252 -0.2372  0.0118
    1DPPC   C4A15848  28.130  23.061   4.219  0.0764  0.0397  0.0043
    1DPPC   C1B15849  28.384  23.394   3.241  0.1881  0.5006  0.0753
    1DPPC   C2B15850  28.138  23.431   3.611 -0.0604  0.0650  0.3069
    1DPPC   C3B15851  27.927  23.508   4.008 -0.0407 -0.0127  0.1245
    1DPPC   C4B15852  27.780  23.499   4.392 -0.0332  0.0662 -0.1521
    1DPPC   NC315853   9.847  20.972   2.671  0.2284 -0.0180  0.0856
    1DPPC   PO415854  10.332  21.034   2.588  0.0634 -0.0111 -0.1364
    1DPPC   GL115855  10.252  21.025   3.041  0.1127  0.3270  0.0368
    1DPPC   GL215856  10.106  21.291   3.087 -0.1118 -0.3796 -0.1514
    1DPPC   C1A15857  10.428  20.798   3.458  0.2063  0.3036  0.0164
    1DPPC   C2A15858  10.606  20.493   3.648  0.2020 -0.0048  0.0258
    1DPPC   C3A15859  10.870  20.545   4.066  0.2743  0.2433  0.0946
    1DPPC   C4A15860  11.021  20.438   4.464 -0.1220 -0.4157  0.0505
    1DPPC   C1B15861  10.176  21.138   3.594 -0.4793 -0.2261  0.2178
    1DPPC   C2B15862  10.390  20.952   3.938  0.0920 -0.0777 -0.1593
    1DPPC   C3B15863  10.350  20.678   4.328 -0.3320  0.0159  0.4417
    1DPPC   C4B15864  10.135  20.715   4.728  0.1017 -0.2286 -0.1451
    1DPPC   NC315865  16.525  24.838   3.348 -0.0394  0.4118 -0.1839
    1DPPC   PO415866  16.273  24.394   3.366 -0.1073  0.1762  0.0119
    1DPPC   GL115867  16.230  24.299   3.812  0.0145  0.0161  0.0796
    1DPPC   GL215868  16.258  24.035   3.773  0.1314  0.3751 -0.1330
    1DPPC   C1A15869  16.419  24.278   4.249 -0.1317  0.0887 -0.0196
    1DPPC   C2A15870  16.499  24.487   4.650 -0.1242  0.2048 -0.1492
    1DPPC   C3A15871  16.385  24.673   4.939  0.0851  0.0394  0.0249
    1DPPC   C4A15872  16.220  25.052   4.910 -0.0513 -0.1681  0.0684
    1DPPC   C1B15873  16.303  23.767   4.122  0.0049  0.0402 -0.4340
    1DPPC   C2B15874  16.518  23.415   4.104 -0.0306  0.0290  0.1085
    1DPPC   C3B15875  16.875  23.341   4.374 -0.1954 -0.0183  0.4715
    1DPPC   C4B15876  17.361  23.293   4.513 -0.0973  0.0318  0.3343
    1DPPC   NC315877   0.757  10.623   2.585  0.0224  0.1261  0.0003
    1DPPC   PO415878   0.491  10.330   2.572  0.2327  0.3120  0.1948
    1DPPC   GL115879   0.331  10.454   2.967  0.1032 -0.3327 -0.1419
    1DPPC   GL215880   0.600  10.640   3.103 -0.0919  0.0547  0.1850
    1DPPC   C1A15881   0.336  10.235   3.323 -0.0010 -0.2820 -0.0134
    1DPPC   C2A15882   0.311  10.169   3.653 -0.1859 -0.0431  0.0324
    1DPPC   C3A15883   0.432  10.218   3.984  0.0583 -0.0204  0.0670
    1DPPC   C4A15884   0.827  10.071   4.211 -0.1917  0.1360 -0.1085
    1DPPC   C1B15885   0.710  10.905   3.446 -0.1452  0.2841 -0.2335
    1DPPC   C2B15886   1.050  11.092   3.674 -0.0378 -0.1014 -0.0347
    1DPPC   C3B15887   1.318  10.880   3.989  0.0284 -0.2336  0.0060
    1DPPC   C4B15888   1.659  10.649   4.160  0.1379 -0.0019  0.0894
    1DPPC   NC315889   2.377  13.758   2.061 -0.2754 -0.1973  0.0436
    1DPPC   PO415890   2.016  13.962   2.324  0.0815 -0.1295 -0.1988
    1DPPC   GL115891   2.058  13.817   2.801  0.0977  0.1956 -0.1990
    1DPPC   GL215892   1.961  13.499   2.972  0.3367 -0.0470 -0.0947
    1DPPC   C1A15893   1.794  13.931   3.179  0.1798  0.0443  0.1396
    1DPPC   C2A15894   1.589  14.008   3.592  0.1004  0.2471  0.0844
    1DPPC   C3A15895   1.483  13.900   3.975 -0.0799 -0.0753 -0.0780
    1DPPC   C4A15896   1.657  13.758   4.377 -0.1319 -0.0646 -0.1235
    1DPPC   C1B15897   2.176  13.593   3.259 -0.0987 -0.0740 -0.2957
    1DPPC   C2B15898   2.046  13.863   3.652  0.0115  0.1393  0.0293
    1DPPC   C3B15899   2.009  13.896   4.029 -0.0944  0.0408  0.0617
    1DPPC   C4B15900   1.952  14.216   4.370 -0.3272 -0.2133 -0.0222
    1DPPC   NC315901   4.338  12.781   2.026 -0.1658  0.0248  0.0585
    1DPPC   PO415902   4.092  13.036   2.392  0.1125  0.0742 -0.0808
    1DPPC   GL115903   3.883  13.070   2.768 -0.0592  0.0509 -0.1218
    1DPPC   GL215904   3.888  12.746   2.997  0.0611 -0.1300 -0.1972
    1DPPC   C1A15905   3.693  13.227   3.116 -0.0941  0.1039 -0.0349
    1DPPC   C2A15906   3.485  13.401   3.472  0.0644  0.1091 -0.0371
    1DPPC   C3A15907   3.428  13.401   3.872  0.3405  0.1339  0.1647
    1DPPC   C4A15908   3.199  13.512   4.273 -0.0022 -0.2473 -0.1890
    1DPPC   C1B15909   3.712  12.453   3.340 -0.2481 -0.2304 -0.2490
    1DPPC   C2B15910   3.866  12.292   3.814  0.0661  0.0734 -0.2833
    1DPPC   C3B15911   3.905  12.222   4.306 -0.3784 -0.0259 -0.0418
    1DPPC   C4B15912   3.716  12.308   4.590  0.1729 -0.3262 -0.0314
    1DPPC   NC315913  27.477  21.273   2.013  0.2008 -0.2912 -0.2584
    1DPPC   PO415914  27.199  20.832   1.923 -0.1276  0.0652  0.0509
    1DPPC   GL115915  27.182  21.021   2.358 -0.1140 -0.1237 -0.2975
    1DPPC   GL215916  27.251  21.290   2.576 -0.1244 -0.1904 -0.4405
    1DPPC   C1A15917  27.302  20.832   2.776  0.1853 -0.0843 -0.4854
    1DPPC   C2A15918  27.252  20.780   3.183 -0.0852  0.0123  0.1767
    1DPPC   C3A15919  27.344  20.912   3.559  0.1597 -0.3332 -0.0866
    1DPPC   C4A15920  27.437  20.579   3.852 -0.3455  0.0860  0.3113
    1DPPC   C1B15921  27.078  21.299   3.023  0.0574 -0.0195  0.0181
    1DPPC   C2B15922  26.960  21.222   3.505 -0.0132  0.0624  0.0430
    1DPPC   C3B15923  26.512  21.327   3.670  0.0529  0.1058 -0.1491
    1DPPC   C4B15924  26.244  21.340   4.054  0.0450 -0.0622 -0.5957
    1DPPC   NC315925  11.057  16.989   2.923  0.2780  0.0121  0.0535
    1DPPC   PO415926  10.743  17.258   2.790 -0.1442  0.4124 -0.4898
    1DPPC   GL115927  10.849  17.448   3.191  0.2742  0.1401 -0.0279
    1DPPC   GL215928  10.805  17.731   3.205  0.1390  0.1475  0.1861
    1DPPC   C1A15929  10.994  17.399   3.644  0.1617  0.0410 -0.1259
    1DPPC   C2A15930  11.123  17.208   4.106 -0.0847  0.0028  0.3022
    1DPPC   C3A15931  11.469  17.130   4.420  0.0932  0.1351  0.0086
    1DPPC   C4A15932  11.642  17.392   4.806 -0.3534  0.2606  0.1106
    1DPPC   C1B15933  10.524  17.618   3.646 -0.2375  0.1428 -0.0397
    1DPPC   C2B15934  10.265  17.734   4.025  0.1173 -0.2593  0.2332
    1DPPC   C3B15935  10.120  17.805   4.482  0.0450  0.0685 -0.0508
    1DPPC   C4B15936   9.961  18.043   4.864  0.0258 -0.1240  0.3786
    1DPPC   NC315937   1.350  18.725   1.489 -0.1550  0.2020  0.1057
    1DPPC   PO415938   1.409  18.665   1.997 -0.0236  0.3353 -0.1102
    1DPPC   GL115939   1.663  18.664   2.438  0.0278 -0.0168  0.0568
    1DPPC   GL215940   1.849  18.400   2.487 -0.1966  0.1988 -0.2455
    1DPPC   C1A15941   1.718  18.893   2.820 -0.2291  0.1449  0.0269
    1DPPC   C2A15942   1.666  19.058   3.232  0.1909  0.2996  0.1928
    1DPPC   C3A15943   1.600  18.988   3.631 -0.0114 -0.0539  0.0899
    1DPPC   C4A15944   1.574  18.849   4.076 -0.1835  0.1176  0.0841
    1DPPC   C1B15945   1.750  18.394   2.909 -0.0414 -0.1532 -0.1320
    1DPPC   C2B15946   1.713  18.430   3.334  0.1026 -0.0201  0.1483
    1DPPC   C3B15947   1.776  18.491   3.743  0.2092  0.1252  0.1755
    1DPPC   C4B15948   1.705  18.318   4.083  0.1395  0.1658  0.1474
    1DPPC   NC315949   8.403  13.672   2.768 -0.0158 -0.2334 -0.4477
    1DPPC   PO415950   8.739  13.330   2.838  0.4525  0.0785 -0.2026
    1DPPC   GL115951   8.935  13.511   3.183  0.0160  0.0233 -0.0125
    1DPPC   GL215952   8.752  13.744   3.196 -0.1514 -0.1568 -0.0522
    1DPPC   C1A15953   9.056  13.656   3.575 -0.2045 -0.1315  0.0939
    1DPPC   C2A15954   9.141  13.747   3.991 -0.1083  0.1022 -0.0072
    1DPPC   C3A15955   9.174  13.770   4.439  0.0284  0.1332  0.0290
    1DPPC   C4A15956   9.397  13.758   4.892 -0.1476 -0.1602  0.0052
    1DPPC   C1B15957   8.490  13.814   3.506 -0.2388 -0.1166  0.0500
    1DPPC   C2B15958   8.656  13.795   3.904  0.0030  0.1186  0.0849
    1DPPC   C3B15959   8.697  13.739   4.347 -0.0297  0.3200  0.2019
    1DPPC   C4B15960   8.512  13.751   4.712  0.1366  0.1248  0.0514
    1DPPC   NC315961  27.455  11.770   2.276 -0.1486  0.2228  0.0704
    1DPPC   PO415962  27.912  11.812   2.311  0.0855  0.1269  0.1592
    1DPPC   GL115963  27.844  11.822   2.733  0.2342 -0.0175  0.2128
    1DPPC   GL215964  27.709  11.515   2.813  0.1228  0.1079 -0.3224
    1DPPC   C1A15965  27.618  12.057   2.941 -0.1304 -0.1589  0.1168
    1DPPC   C2A15966  27.506  12.196   3.300  0.2756  0.0489  0.0665
    1DPPC   C3A15967  27.428  12.315   3.673 -0.0181  0.0462 -0.1045
    1DPPC   C4A15968  27.525  12.328   4.135  0.1339 -0.1221  0.0665
    1DPPC   C1B15969  27.551  11.615   3.253  0.2117  0.1120 -0.1065
    1DPPC   C2B15970  27.534  11.814   3.617 -0.1679 -0.1323  0.1831
    1DPPC   C3B15971  27.689  11.829   4.008  0.0647  0.0719  0.1273
    1DPPC   C4B15972  27.769  11.889   4.406  0.0741 -0.1257  0.0680
    1DPPC   NC315973  26.431   1.565   3.413  0.0187  0.0092 -0.0353
    1DPPC   PO415974  26.560   1.964   3.297 -0.3470 -0.0143  0.0161
    1DPPC   GL115975  26.689   2.371   3.480 -0.0128 -0.1283  0.0652
    1DPPC   GL215976  26.481   2.609   3.464  0.0022  0.0683  0.1629
    1DPPC   C1A15977  26.901   2.725   3.734  0.1296  0.1139 -0.2264
    1DPPC   C2A15978  27.196   2.670   4.170  0.0102  0.1241 -0.1635
    1DPPC   C3A15979  27.567   2.617   4.283 -0.3221 -0.0746 -0.1064
    1DPPC   C4A15980  27.991   2.393   4.352  0.1859  0.1892 -0.2340
    1DPPC   C1B15981  26.429   2.721   3.951  0.3131 -0.0860  0.1196
    1DPPC   C2B15982  26.309   3.056   4.151  0.0448  0.1961 -0.1420
    1DPPC   C3B15983  26.427   3.236   4.505  0.0028 -0.2158  0.0483
    1DPPC   C4B15984  26.796   3.157   4.611  0.0160 -0.0042 -0.0931
    1DPPC   NC315985   7.582  21.760   2.621  0.4653  0.1604 -0.0311
    1DPPC   PO415986   7.367  22.019   2.810  0.2232 -0.1178  0.3456
    1DPPC   GL115987   7.399  21.931   3.218  0.2705  0.0873 -0.0862
    1DPPC   GL215988   7.675  21.855   3.264  0.0802 -0.2706 -0.1587
    1DPPC   C1A15989   7.332  21.920   3.724  0.0488  0.2052  0.1074
    1DPPC   C2A15990   7.597  21.905   4.210  0.0515 -0.1224  0.0436
    1DPPC   C3A15991   7.927  21.966   4.296  0.1792 -0.0490 -0.1268
    1DPPC   C4A15992   8.195  22.359   4.429  0.1070  0.4186  0.0738
    1DPPC   C1B15993   7.814  21.987   3.707 -0.0803  0.0173 -0.0157
    1DPPC   C2B15994   8.219  22.018   3.850  0.0210  0.1600 -0.2433
    1DPPC   C3B15995   8.490  22.034   4.202 -0.1144 -0.1424 -0.1121
    1DPPC   C4B15996   8.724  22.326   4.476  0.3716 -0.0793  0.1766
    1DPPC   NC315997   9.194  21.320   2.803 -0.2735  0.2178 -0.2588
    1DPPC   PO415998   9.285  21.019   2.682  0.1206  0.1182 -0.2150
    1DPPC   GL115999   9.488  21.105   3.186 -0.3519 -0.2179  0.1249
    1DPPC   GL216000   9.814  20.953   3.342  0.0649  0.3646 -0.1825
    1DPPC   C1A16001   9.360  21.086   3.599 -0.0432  0.1932 -0.2072
    1DPPC   C2A16002   9.253  20.665   3.588  0.1749 -0.1003 -0.3270
    1DPPC   C3A16003   8.999  20.221   3.667  0.1827 -0.0028  0.0427
    1DPPC   C4A16004   8.677  20.003   3.585 -0.2841  0.1765 -0.0470
    1DPPC   C1B16005   9.722  20.795   3.842  0.0921  0.2314  0.1467
    1DPPC   C2B16006   9.771  20.810   4.331  0.1516  0.1429  0.1683
    1DPPC   C3B16007   9.703  21.205   4.583  0.3069 -0.1767 -0.0038
    1DPPC   C4B16008   9.927  21.578   4.754  0.0100  0.0566 -0.0490
    1DPPC   NC316009   6.465  15.318   2.694 -0.0282 -0.1685 -0.2491
    1DPPC   PO416010   6.189  15.598   2.646 -0.2180  0.0722  0.0169
    1DPPC   GL116011   6.109  15.916   3.001  0.3287 -0.0541  0.1026
    1DPPC   GL216012   6.039  16.134   2.881 -0.0829  0.0008  0.1767
    1DPPC   C1A16013   6.100  15.781   3.360 -0.0262  0.2410  0.1380
    1DPPC   C2A16014   5.986  15.850   3.803 -0.0428 -0.0694  0.1691
    1DPPC   C3A16015   5.938  15.961   4.178  0.0534  0.0424  0.1587
    1DPPC   C4A16016   6.186  16.116   4.473 -0.1942  0.2479  0.0106
    1DPPC   C1B16017   5.825  16.315   3.284 -0.0940 -0.0200  0.0200
    1DPPC   C2B16018   5.759  16.268   3.712  0.2047 -0.0467  0.0389
    1DPPC   C3B16019   5.711  16.363   4.118  0.2025 -0.0652 -0.0540
    1DPPC   C4B16020   5.691  16.292   4.577 -0.2466  0.1330 -0.0848
    1DPPC   NC316021  27.756  12.871   2.021 -0.0572  0.0291 -0.0522
    1DPPC   PO416022  28.208  13.102   2.109  0.2730 -0.1644 -0.0610
    1DPPC   GL116023  28.180  13.376   2.367  0.1950 -0.1269  0.0042
    1DPPC   GL216024  28.236  13.197   2.584 -0.2118 -0.1375 -0.0892
    1DPPC   C1A16025  27.974  13.595   2.602 -0.5686  0.1125  0.3574
    1DPPC   C2A16026  27.846  13.769   3.024 -0.2173  0.0767  0.0338
    1DPPC   C3A16027  27.682  13.867   3.399 -0.1346 -0.2102  0.0945
    1DPPC   C4A16028  27.519  14.167   3.720  0.0188  0.2219 -0.0206
    1DPPC   C1B16029  28.113  13.336   2.980 -0.4207 -0.0183 -0.0324
    1DPPC   C2B16030  28.059  13.552   3.496  0.1602 -0.3314 -0.0085
    1DPPC   C3B16031  28.071  13.575   3.924  0.1085  0.2047  0.0627
    1DPPC   C4B16032  28.273  13.911   4.094  0.1137  0.1063 -0.2176
    1DPPC   NC316033   1.096  22.072   2.268 -0.0495  0.0791  0.0317
    1DPPC   PO416034   1.398  22.415   2.413  0.1759  0.0198 -0.1906
    1DPPC   GL116035   1.172  22.322   2.862  0.2339 -0.2454  0.0285
    1DPPC   GL216036   1.044  22.023   2.797 -0.2925 -0.2566  0.0415
    1DPPC   C1A16037   1.010  22.287   3.219  0.1033  0.1743 -0.1009
    1DPPC   C2A16038   0.894  22.373   3.639 -0.1539  0.1209 -0.1351
    1DPPC   C3A16039   0.737  22.384   4.148  0.2182 -0.1308  0.1314
    1DPPC   C4A16040   0.804  22.487   4.565  0.2128  0.1419  0.0916
    1DPPC   C1B16041   1.130  21.782   3.095  0.1481 -0.1316 -0.2906
    1DPPC   C2B16042   1.226  21.790   3.508  0.0508  0.1905  0.1072
    1DPPC   C3B16043   1.250  21.797   3.963 -0.0551 -0.2786 -0.1916
    1DPPC   C4B16044   1.407  21.738   4.415 -0.2373  0.1326 -0.1321
    1DPPC   NC316045  28.180  13.443   1.727 -0.0392 -0.0302 -0.1637
    1DPPC   PO416046  27.885  13.200   1.641 -0.1718 -0.0306 -0.0195
    1DPPC   GL116047  27.779  13.372   2.020 -0.1611 -0.1516  0.0427
    1DPPC   GL216048  27.451  13.338   2.080  0.0187 -0.1650  0.4615
    1DPPC   C1A16049  27.579  13.749   2.276  0.0154 -0.0484 -0.3615
    1DPPC   C2A16050  27.342  13.769   2.554  0.6196  0.0374  0.1360
    1DPPC   C3A16051  27.309  13.859   3.019 -0.2415  0.0735 -0.0693
    1DPPC   C4A16052  27.061  14.010   3.390 -0.3569  0.0380 -0.3920
    1DPPC   C1B16053  27.207  13.259   2.433  0.2137 -0.0463 -0.3027
    1DPPC   C2B16054  26.994  13.378   2.717  0.1789  0.0117  0.2541
    1DPPC   C3B16055  26.986  13.474   3.106 -0.3302  0.4016 -0.2592
    1DPPC   C4B16056  27.016  13.552   3.397  0.2969  0.2474 -0.0220
    1DPPC   NC316057   5.165   4.725   3.357  0.4004  0.0856 -0.0944
    1DPPC   PO416058   4.932   4.389   3.434 -0.2876 -0.2062  0.0521
    1DPPC   GL116059   4.602   4.099   3.698 -0.3734 -0.3111  0.0334
    1DPPC   GL216060   4.541   4.348   3.790 -0.1227  0.0603  0.0957
    1DPPC   C1A16061   4.144   4.051   3.819 -0.0239 -0.0182 -0.0994
    1DPPC   C2A16062   3.981   3.908   4.063  0.2905  0.1946  0.2358
    1DPPC   C3A16063   3.856   3.608   4.341 -0.1273  0.0693  0.0724
    1DPPC   C4A16064   3.762   3.340   4.641 -0.2376 -0.0594  0.1026
    1DPPC   C1B16065   4.489   4.426   4.177  0.2490  0.2130  0.0455
    1DPPC   C2B16066   4.424   4.526   4.515 -0.1593  0.0139  0.5012
    1DPPC   C3B16067   4.022   4.401   4.586 -0.1387  0.2281  0.0843
    1DPPC   C4B16068   3.720   4.101   4.622 -0.3359  0.0584  0.1481
    1DPPC   NC316069   0.160  20.197   2.249  0.3287 -0.0226  0.0572
    1DPPC   PO416070   0.154  19.781   2.195 -0.1954  0.1882 -0.0243
    1DPPC   GL116071   0.115  19.845   2.621 -0.4518  0.0148  0.2110
    1DPPC   GL216072  -0.096  19.638   2.643 -0.3382  0.2747 -0.0330
    1DPPC   C1A16073   0.012  19.996   3.056 -0.0904 -0.4201  0.2488
    1DPPC   C2A16074  -0.092  19.982   3.496  0.0714  0.0489 -0.2261
    1DPPC   C3A16075  -0.223  19.945   3.925 -0.0945 -0.0683 -0.0092
    1DPPC   C4A16076   0.064  19.838   4.379 -0.0691  0.0027 -0.0269
    1DPPC   C1B16077  -0.218  19.571   3.069 -0.1218  0.3366  0.1103
    1DPPC   C2B16078  -0.329  19.546   3.443 -0.2026  0.1979  0.1270
    1DPPC   C3B16079  -0.530  19.580   3.750  0.1478 -0.0289 -0.4710
    1DPPC   C4B16080  -0.918  19.626   3.743  0.1270  0.2011 -0.2677
    1DPPC   NC316081  12.981  14.012   2.942  0.2560 -0.1536  0.1007
    1DPPC   PO416082  12.586  14.021   3.195 -0.0674 -0.0877 -0.3050
    1DPPC   GL116083  12.693  13.852   3.502 -0.3552  0.1400 -0.1095
    1DPPC   GL216084  12.921  13.632   3.515  0.0138 -0.1421  0.0287
    1DPPC   C1A16085  12.666  14.040   3.916 -0.3272 -0.1618 -0.0298
    1DPPC   C2A16086  12.769  14.134   4.337  0.0461 -0.1656 -0.3412
    1DPPC   C3A16087  12.882  13.969   4.669  0.1272 -0.1034  0.1570
    1DPPC   C4A16088  12.956  13.603   4.776  0.1693 -0.1093  0.2042
    1DPPC   C1B16089  13.217  13.281   3.720  0.1529 -0.0944 -0.0416
    1DPPC   C2B16090  13.394  13.261   3.944 -0.0978 -0.2529 -0.2568
    1DPPC   C3B16091  13.622  13.171   4.298  0.2015 -0.0248  0.0087
    1DPPC   C4B16092  13.780  13.083   4.657  0.2267 -0.0175 -0.2534
    1DPPC   NC316093  28.842  14.649   1.876  0.2602 -0.0401 -0.2257
    1DPPC   PO416094  29.052  14.310   1.749 -0.0011  0.2341 -0.2006
    1DPPC   GL116095  28.774  14.205   2.266 -0.0794  0.0090 -0.0095
    1DPPC   GL216096  28.942  13.985   2.375  0.1852 -0.5313 -0.0248
    1DPPC   C1A16097  28.639  14.487   2.677  0.2457 -0.3546 -0.0210
    1DPPC   C2A16098  28.605  14.573   3.057  0.0354  0.0704 -0.0366
    1DPPC   C3A16099  28.418  14.861   3.280 -0.0311  0.1707 -0.0303
    1DPPC   C4A16100  28.520  14.967   3.586  0.0975  0.0197 -0.0933
    1DPPC   C1B16101  29.001  14.125   2.861  0.1095  0.2742 -0.1108
    1DPPC   C2B16102  28.840  14.170   3.282  0.5622 -0.0335  0.0939
    1DPPC   C3B16103  28.856  14.068   3.727 -0.1092  0.0478 -0.0646
    1DPPC   C4B16104  28.718  13.807   4.048 -0.3041 -0.0157 -0.2114
    1DPPC   NC316105  11.341  13.522   2.857 -0.1474  0.0370  0.1443
    1DPPC   PO416106  11.788  13.709   3.059  0.0284 -0.0083 -0.1408
    1DPPC   GL116107  11.941  13.861   3.455  0.0762  0.0453  0.2676
    1DPPC   GL216108  12.149  13.912   3.650  0.1208  0.0540  0.1587
    1DPPC   C1A16109  11.713  13.874   3.811 -0.2147  0.0667  0.0245
    1DPPC   C2A16110  11.716  13.914   4.247  0.0757 -0.0505  0.0727
    1DPPC   C3A16111  11.832  14.048   4.631 -0.3330  0.0752  0.0075
    1DPPC   C4A16112  11.513  14.250   4.976  0.2201  0.0139  0.2262
    1DPPC   C1B16113  12.207  13.846   4.070 -0.2842  0.2242  0.1851
    1DPPC   C2B16114  12.365  13.793   4.501  0.0157  0.0599 -0.1116
    1DPPC   C3B16115  12.238  13.825   4.944  0.3354  0.0534 -0.0046
    1DPPC   C4B16116  11.926  13.981   5.159  0.0763  0.1707  0.2326
    1DPPC   NC316117   6.773  20.783   2.402  0.3342  0.0563 -0.0074
    1DPPC   PO416118   6.265  20.719   2.627  0.2732 -0.0952 -0.1142
    1DPPC   GL116119   6.371  20.467   2.920  0.1600  0.1566  0.0850
    1DPPC   GL216120   6.671  20.508   3.003  0.0517  0.1701  0.0930
    1DPPC   C1A16121   6.198  20.270   3.237  0.0211  0.3022  0.2088
    1DPPC   C2A16122   6.143  20.260   3.614 -0.1083 -0.2296 -0.0832
    1DPPC   C3A16123   6.136  20.193   4.017  0.1228 -0.1276 -0.1516
    1DPPC   C4A16124   6.145  20.118   4.507  0.0630 -0.0833 -0.0890
    1DPPC   C1B16125   6.637  20.373   3.454  0.0255  0.2306 -0.1645
    1DPPC   C2B16126   6.616  20.313   3.812  0.1792  0.0674  0.0102
    1DPPC   C3B16127   6.599  20.158   4.205  0.0350  0.2430 -0.1004
    1DPPC   C4B16128   6.861  20.103   4.592  0.0659 -0.0657  0.2180
    1DPPC   NC316129   1.923  20.883   2.121  0.1459  0.1167 -0.1169
    1DPPC   PO416130   1.977  21.059   2.528 -0.2752  0.0348 -0.2778
    1DPPC   GL116131   2.031  21.400   2.814  0.1597  0.3130 -0.2407
    1DPPC   GL216132   2.357  21.337   2.981  0.1814  0.0721 -0.0258
    1DPPC   C1A16133   2.035  21.465   3.324 -0.0950 -0.0168 -0.0328
    1DPPC   C2A16134   2.134  21.459   3.778 -0.1215  0.3300 -0.3073
    1DPPC   C3A16135   2.261  21.464   4.225 -0.2168  0.1345 -0.2395
    1DPPC   C4A16136   2.175  21.205   4.537 -0.2239 -0.0267  0.1879
    1DPPC   C1B16137   2.519  21.578   3.291 -0.2194  0.1500  0.3508
    1DPPC   C2B16138   2.656  21.454   3.696 -0.2264  0.2842  0.2899
    1DPPC   C3B16139   2.716  21.265   4.033  0.4087 -0.1329 -0.1659
    1DPPC   C4B16140   2.702  21.182   4.369  0.3139  0.1848 -0.1779
    1DPPC   NC316141   3.042  12.881   2.370  0.1742 -0.0349  0.1103
    1DPPC   PO416142   3.555  12.745   2.520 -0.3541 -0.1654 -0.0712
    1DPPC   GL116143   3.377  12.875   2.872  0.0943 -0.1168  0.2176
    1DPPC   GL216144   3.069  12.705   2.860  0.0977  0.1241  0.1108
    1DPPC   C1A16145   3.502  12.911   3.382  0.0117  0.2592 -0.2719
    1DPPC   C2A16146   3.568  12.949   3.774 -0.2053 -0.0017  0.0762
    1DPPC   C3A16147   3.598  13.055   4.205  0.3449  0.0143 -0.1677
    1DPPC   C4A16148   3.656  13.226   4.621 -0.0306 -0.0184 -0.1008
    1DPPC   C1B16149   2.951  12.846   3.316 -0.0770 -0.2168  0.0309
    1DPPC   C2B16150   2.945  12.701   3.718  0.0841 -0.0256  0.1389
    1DPPC   C3B16151   2.902  12.527   4.070 -0.1040  0.0627  0.2172
    1DPPC   C4B16152   2.546  12.176   4.317  0.2694 -0.1215  0.1918
    1DPPC   NC316153   9.904  12.152   2.997  0.3123 -0.0929  0.0484
    1DPPC   PO416154   9.503  12.001   3.022  0.2945  0.1293  0.2605
    1DPPC   GL116155   9.520  11.779   3.405 -0.0438  0.1829  0.1547
    1DPPC   GL216156   9.484  11.421   3.347  0.2491  0.0784  0.4224
    1DPPC   C1A16157   9.719  11.667   3.816  0.1974  0.1924  0.0004
    1DPPC   C2A16158   9.560  11.503   4.135  0.0671 -0.0346 -0.1697
    1DPPC   C3A16159   9.356  11.532   4.468 -0.1726  0.0066 -0.0945
    1DPPC   C4A16160   9.172  11.613   4.858  0.4077  0.1924 -0.1431
    1DPPC   C1B16161   9.577  11.171   3.709  0.2824  0.2108  0.1364
    1DPPC   C2B16162   9.570  10.982   4.062 -0.1462 -0.0889 -0.2448
    1DPPC   C3B16163   9.375  10.981   4.404 -0.0023  0.0971  0.3654
    1DPPC   C4B16164   9.166  11.138   4.736  0.2819  0.0608  0.1297
    1DPPC   NC316165  26.387  13.788   1.010 -0.2012 -0.2428 -0.4375
    1DPPC   PO416166  26.250  14.117   1.243 -0.2407 -0.0232  0.0624
    1DPPC   GL116167  26.211  14.344   1.679 -0.1680  0.1487  0.0649
    1DPPC   GL216168  25.845  14.351   1.810  0.1954 -0.0997  0.2004
    1DPPC   C1A16169  26.268  14.519   2.133  0.1186  0.1285 -0.3052
    1DPPC   C2A16170  26.076  14.600   2.561  0.3168 -0.2104  0.0530
    1DPPC   C3A16171  25.896  14.571   2.996 -0.0694  0.0368 -0.0608
    1DPPC   C4A16172  25.690  14.561   3.403  0.0701 -0.3087  0.2097
    1DPPC   C1B16173  25.815  14.323   2.202 -0.2090 -0.0010  0.0589
    1DPPC   C2B16174  25.611  14.322   2.610  0.0009  0.1481 -0.1789
    1DPPC   C3B16175  25.236  14.402   3.024 -0.0900  0.2796  0.1775
    1DPPC   C4B16176  25.100  14.672   3.356  0.2080  0.0955 -0.0275
    1DPPC   NC316177  28.927  12.092   2.257 -0.0963 -0.3282 -0.0218
    1DPPC   PO416178  28.999  12.434   2.197 -0.0253 -0.2346 -0.0296
    1DPPC   GL116179  28.986  12.667   2.606 -0.2048  0.0746 -0.1885
    1DPPC   GL216180  29.311  12.643   2.821 -0.1405 -0.0190  0.4394
    1DPPC   C1A16181  28.697  12.995   2.776  0.3233  0.1221 -0.4549
    1DPPC   C2A16182  28.508  13.082   3.111  0.3266  0.0134  0.0381
    1DPPC   C3A16183  28.510  13.126   3.549 -0.0977  0.0173 -0.0107
    1DPPC   C4A16184  28.486  13.373   3.869 -0.1526 -0.1412 -0.4873
    1DPPC   C1B16185  29.144  12.758   3.144  0.1336  0.0918 -0.0399
    1DPPC   C2B16186  28.926  12.753   3.402 -0.3598 -0.0567 -0.2731
    1DPPC   C3B16187  28.847  12.908   3.834  0.0234  0.1251  0.0548
    1DPPC   C4B16188  28.800  13.007   4.279 -0.2311 -0.0703  0.1121
    1DPPC   NC316189  23.956   2.654   3.024 -0.2274  0.1021  0.0065
    1DPPC   PO416190  24.100   3.152   3.116  0.2528  0.0573  0.1571
    1DPPC   GL116191  24.117   3.194   3.550 -0.0797  0.0706  0.1895
    1DPPC   GL216192  24.015   3.387   3.687 -0.2065 -0.3591  0.1755
    1DPPC   C1A16193  24.127   2.939   3.931  0.1887  0.1883 -0.2556
    1DPPC   C2A16194  24.349   2.936   4.257 -0.0465 -0.1019 -0.2616
    1DPPC   C3A16195  24.313   2.908   4.638  0.2924 -0.3048  0.1470
    1DPPC   C4A16196  24.605   2.932   4.918  0.0072  0.2553 -0.0456
    1DPPC   C1B16197  24.087   3.381   4.164  0.2955 -0.2009 -0.4131
    1DPPC   C2B16198  24.262   3.374   4.536 -0.2087  0.0103 -0.1135
    1DPPC   C3B16199  24.245   3.529   4.940  0.2649  0.0146 -0.1509
    1DPPC   C4B16200  24.177   3.427   5.372  0.4388  0.2498  0.2853
    1DPPC   NC316201   2.310  19.438   2.495 -0.2857 -0.0695 -0.3148
    1DPPC   PO416202   1.942  19.661   2.488 -0.1840  0.0611  0.1570
    1DPPC   GL116203   2.039  19.516   2.900 -0.3307  0.1418  0.2584
    1DPPC   GL216204   2.124  19.168   2.878 -0.1547 -0.1375 -0.0328
    1DPPC   C1A16205   1.999  19.459   3.270 -0.0163 -0.1878 -0.1976
    1DPPC   C2A16206   1.954  19.317   3.626 -0.0158  0.3996  0.0409
    1DPPC   C3A16207   1.766  19.348   4.038  0.1926 -0.0006 -0.1933
    1DPPC   C4A16208   1.562  19.400   4.362 -0.0589  0.0102 -0.2278
    1DPPC   C1B16209   2.148  19.008   3.262 -0.2305  0.1300 -0.1764
    1DPPC   C2B16210   2.210  18.831   3.574 -0.5364 -0.1121 -0.0437
    1DPPC   C3B16211   2.035  18.808   4.053 -0.0743  0.0065 -0.1032
    1DPPC   C4B16212   2.053  19.041   4.419 -0.0249 -0.1665 -0.1101
    1DPPC   NC316213  28.117  15.417   1.679  0.0823 -0.0635  0.2765
    1DPPC   PO416214  28.448  15.148   1.902  0.2186  0.0215  0.0964
    1DPPC   GL116215  28.442  14.866   2.330 -0.2966  0.3860  0.0410
    1DPPC   GL216216  28.158  14.747   2.086  0.1332  0.0144  0.1829
    1DPPC   C1A16217  28.356  14.924   2.764  0.1796 -0.1906  0.0528
    1DPPC   C2A16218  27.933  15.159   2.917 -0.2563 -0.0779  0.1517
    1DPPC   C3A16219  27.662  15.234   3.136  0.0183 -0.0827 -0.3500
    1DPPC   C4A16220  27.595  15.386   3.528  0.0801 -0.1721 -0.2101
    1DPPC   C1B16221  27.998  15.133   2.347  0.2346 -0.0679 -0.2309
    1DPPC   C2B16222  27.689  15.415   2.375  0.0265 -0.1740 -0.2240
    1DPPC   C3B16223  27.407  15.420   2.620  0.0950 -0.1777  0.0072
    1DPPC   C4B16224  27.165  15.345   2.947 -0.3558  0.1010  0.0424
    1DPPC   NC316225  13.091   0.148   3.110 -0.0018 -0.2269  0.3845
    1DPPC   PO416226  13.440   0.329   3.420 -0.0738  0.2643 -0.0745
    1DPPC   GL116227  13.421   0.668   3.675  0.0881 -0.0803  0.0006
    1DPPC   GL216228  13.470   0.916   3.561 -0.2985 -0.0410 -0.0443
    1DPPC   C1A16229  13.637   0.813   4.082  0.0396 -0.0382 -0.1277
    1DPPC   C2A16230  13.864   0.837   4.379 -0.1463 -0.1690 -0.3255
    1DPPC   C3A16231  13.920   1.165   4.655  0.0013  0.1770  0.2645
    1DPPC   C4A16232  13.860   1.270   5.185 -0.0448  0.0042 -0.0810
    1DPPC   C1B16233  13.425   1.213   3.903 -0.0580  0.2559  0.0284
    1DPPC   C2B16234  13.513   1.202   4.386  0.2511 -0.0424 -0.0552
    1DPPC   C3B16235  13.538   0.868   4.706 -0.0667  0.1197 -0.1704
    1DPPC   C4B16236  13.755   0.409   4.815 -0.0174  0.0658  0.2472
    1DPPC   NC316237   6.836  13.181   2.783 -0.0794 -0.1234 -0.0982
    1DPPC   PO416238   6.433  13.548   2.773 -0.1036 -0.1118  0.0674
    1DPPC   GL116239   6.609  13.439   3.136 -0.0035 -0.2768 -0.1223
    1DPPC   GL216240   6.735  13.136   3.241 -0.1658  0.1770 -0.3628
    1DPPC   C1A16241   6.613  13.576   3.551  0.0064  0.1820  0.1082
    1DPPC   C2A16242   6.667  13.625   3.908 -0.0725  0.2159  0.0158
    1DPPC   C3A16243   6.659  13.479   4.340  0.1017  0.2005  0.0464
    1DPPC   C4A16244   6.936  13.117   4.594 -0.0514  0.2064  0.2153
    1DPPC   C1B16245   6.629  13.112   3.643  0.0695  0.0839  0.3120
    1DPPC   C2B16246   6.580  13.080   4.035  0.1641 -0.1541 -0.0838
    1DPPC   C3B16247   6.459  13.002   4.469 -0.2803 -0.1890  0.1899
    1DPPC   C4B16248   6.577  13.012   4.917  0.0060 -0.0770 -0.0922
    1DPPC   NC316249   3.750  22.484   2.480  0.1931  0.0557  0.0376
    1DPPC   PO416250   3.285  22.609   2.602  0.0519 -0.3459  0.3319
    1DPPC   GL116251   3.105  22.499   3.031 -0.0731 -0.1794 -0.2190
    1DPPC   GL216252   2.864  22.587   3.238 -0.1912 -0.2297  0.1218
    1DPPC   C1A16253   3.280  22.324   3.413  0.1898  0.2510 -0.0057
    1DPPC   C2A16254   3.251  22.185   3.869 -0.2549  0.2067 -0.0922
    1DPPC   C3A16255   3.117  22.128   4.236 -0.0179 -0.3273 -0.1764
    1DPPC   C4A16256   3.178  22.217   4.735 -0.0311 -0.2293  0.0708
    1DPPC   C1B16257   2.758  22.362   3.615 -0.1560 -0.0778 -0.1253
    1DPPC   C2B16258   2.666  22.315   4.088 -0.2002  0.0110 -0.4019
    1DPPC   C3B16259   2.576  22.308   4.506 -0.2230  0.0844 -0.2116
    1DPPC   C4B16260   2.741  22.533   4.904 -0.0648 -0.2170  0.0803
    1DPPC   NC316261  26.801  23.099   2.565 -0.2119  0.1645  0.2062
    1DPPC   PO416262  27.206  23.222   2.425  0.0250 -0.1893 -0.4931
    1DPPC   GL116263  27.215  23.209   2.819  0.2373  0.0057  0.1429
    1DPPC   GL216264  26.979  23.405   2.896 -0.1057 -0.0787 -0.3039
    1DPPC   C1A16265  27.507  23.201   3.298 -0.4149  0.0389 -0.0439
    1DPPC   C2A16266  27.677  23.169   3.617  0.2075  0.2776  0.2166
    1DPPC   C3A16267  27.752  22.946   3.960  0.0858 -0.2372  0.1818
    1DPPC   C4A16268  28.008  22.514   3.941  0.3938 -0.1945 -0.2779
    1DPPC   C1B16269  27.054  23.474   3.301 -0.1313  0.3491 -0.0360
    1DPPC   C2B16270  27.278  23.434   3.648 -0.1131 -0.2434  0.0961
    1DPPC   C3B16271  27.367  23.288   4.059  0.0930  0.1143 -0.0419
    1DPPC   C4B16272  27.282  22.844   4.175 -0.0355  0.0092  0.0303
    1DPPC   NC316273   5.412  15.451   2.380 -0.1916  0.2367 -0.1395
    1DPPC   PO416274   5.683  15.177   2.620  0.0051  0.3708  0.0926
    1DPPC   GL116275   5.628  14.950   2.934  0.1341 -0.1779  0.1403
    1DPPC   GL216276   5.920  14.799   3.030  0.0029  0.3408 -0.0941
    1DPPC   C1A16277   5.512  14.666   3.326 -0.2337 -0.0116  0.1141
    1DPPC   C2A16278   5.561  14.625   3.699  0.1638 -0.0205  0.1422
    1DPPC   C3A16279   5.375  14.735   4.100 -0.1769  0.0873 -0.2192
    1DPPC   C4A16280   5.177  14.809   4.526  0.4433  0.0694  0.2918
    1DPPC   C1B16281   5.971  14.870   3.425 -0.0511 -0.0690  0.2950
    1DPPC   C2B16282   5.893  14.892   3.895  0.2183  0.0897 -0.0027
    1DPPC   C3B16283   5.708  14.973   4.343 -0.0321  0.1296 -0.2774
    1DPPC   C4B16284   5.747  15.087   4.787 -0.1093  0.0689 -0.0543
    1DPPC   NC316285  27.432  13.042   1.709  0.1420  0.0836 -0.0535
    1DPPC   PO416286  26.916  12.962   1.696 -0.1855 -0.0763 -0.0237
    1DPPC   GL116287  26.820  13.073   2.113 -0.0163  0.0988 -0.1951
    1DPPC   GL216288  26.646  13.380   2.013 -0.1265  0.1703 -0.0641
    1DPPC   C1A16289  26.531  13.360   2.473 -0.3435 -0.0398 -0.3043
    1DPPC   C2A16290  26.559  13.572   2.875  0.1539  0.0961  0.0933
    1DPPC   C3A16291  26.437  13.674   3.263  0.1010 -0.3635 -0.1279
    1DPPC   C4A16292  26.620  13.721   3.666 -0.2508  0.0416  0.1616
    1DPPC   C1B16293  26.941  13.664   2.228  0.2912  0.0776  0.2419
    1DPPC   C2B16294  26.837  13.872   2.543 -0.3646  0.1115 -0.3171
    1DPPC   C3B16295  26.838  13.963   2.976 -0.0599  0.2215  0.0091
    1DPPC   C4B16296  26.664  14.232   3.319 -0.1086 -0.1978 -0.0863
    1DPPC   NC316297   4.407  20.632   2.583 -0.1055  0.0746 -0.3603
    1DPPC   PO416298   4.179  20.330   2.470  0.0931 -0.1727  0.0239
    1DPPC   GL116299   4.242  20.254   2.921 -0.1142  0.0239  0.3089
    1DPPC   GL216300   4.019  19.976   3.008 -0.3185  0.2634  0.1018
    1DPPC   C1A16301   4.520  20.210   3.221 -0.1487 -0.0172 -0.2199
    1DPPC   C2A16302   4.519  20.211   3.523 -0.3803  0.2568  0.1631
    1DPPC   C3A16303   4.669  20.126   3.872 -0.0023  0.0384  0.4011
    1DPPC   C4A16304   4.712  20.249   4.233 -0.0671  0.3422  0.0114
    1DPPC   C1B16305   4.037  20.033   3.423  0.1875  0.1121  0.0615
    1DPPC   C2B16306   4.067  20.022   3.883  0.1154 -0.0944  0.1036
    1DPPC   C3B16307   4.056  19.997   4.271  0.0326  0.0895  0.0289
    1DPPC   C4B16308   4.277  20.258   4.523  0.2866  0.0164 -0.2274
    1DPPC   NC316309  28.690  13.512   1.666  0.0266  0.0248  0.1610
    1DPPC   PO416310  28.443  13.817   1.540  0.0789 -0.0581 -0.0624
    1DPPC   GL116311  28.251  14.061   1.915 -0.1844  0.1785 -0.1118
    1DPPC   GL216312  28.391  14.342   1.936 -0.2268  0.0193 -0.1447
    1DPPC   C1A16313  28.004  13.971   2.244 -0.3309 -0.0046 -0.2608
    1DPPC   C2A16314  27.739  14.058   2.644 -0.0214  0.1126 -0.0559
    1DPPC   C3A16315  27.631  14.236   3.083  0.1562 -0.0941 -0.0422
    1DPPC   C4A16316  27.565  14.538   3.361 -0.2422  0.2172  0.0201
    1DPPC   C1B16317  28.269  14.366   2.339 -0.0424 -0.0181 -0.0063
    1DPPC   C2B16318  28.114  14.490   2.697 -0.0557 -0.1451  0.1375
    1DPPC   C3B16319  27.950  14.700   3.129 -0.0693  0.2320  0.1728
    1DPPC   C4B16320  27.830  14.895   3.465  0.0327 -0.2477 -0.4509
    1DPPC   NC316321  29.607  16.738   1.653 -0.2389 -0.0003  0.0757
    1DPPC   PO416322  29.705  17.220   1.839  0.2234  0.1339 -0.1037
    1DPPC   GL116323  29.482  17.212   2.226  0.1012 -0.0312 -0.0618
    1DPPC   GL216324  29.472  17.557   2.324  0.1487  0.0145  0.3101
    1DPPC   C1A16325  29.196  16.968   2.544  0.0023 -0.0745  0.0606
    1DPPC   C2A16326  28.981  16.804   2.821 -0.0970  0.2652  0.0097
    1DPPC   C3A16327  29.001  16.815   3.258 -0.0823  0.3286 -0.1398
    1DPPC   C4A16328  28.879  16.940   3.698 -0.0148 -0.0751 -0.2805
    1DPPC   C1B16329  29.481  17.344   2.774  0.0201  0.1411  0.1252
    1DPPC   C2B16330  29.333  17.108   3.058  0.1095 -0.3020 -0.2184
    1DPPC   C3B16331  29.219  17.220   3.475  0.0465 -0.0748 -0.2575
    1DPPC   C4B16332  29.418  17.240   3.837  0.2905  0.2484 -0.1131
    1DPPC   NC316333   0.858  13.111   2.391  0.0985  0.0297  0.1055
    1DPPC   PO416334   0.476  12.908   2.253 -0.0154 -0.2012  0.1725
    1DPPC   GL116335   0.316  13.291   2.500 -0.0523 -0.0768  0.2820
    1DPPC   GL216336   0.529  13.265   2.756 -0.3048 -0.1795 -0.1841
    1DPPC   C1A16337  -0.073  13.423   2.834  0.1305  0.0731 -0.2248
    1DPPC   C2A16338  -0.172  13.486   3.280 -0.3529  0.1518  0.3403
    1DPPC   C3A16339  -0.173  13.502   3.673  0.1257 -0.0412 -0.5468
    1DPPC   C4A16340  -0.227  13.406   4.174 -0.1448 -0.1602 -0.1351
    1DPPC   C1B16341   0.275  13.104   3.037 -0.3291 -0.0993 -0.2233
    1DPPC   C2B16342   0.210  13.179   3.461  0.2659  0.0104  0.1266
    1DPPC   C3B16343   0.184  13.241   3.858  0.0004  0.2849  0.0870
    1DPPC   C4B16344   0.303  13.283   4.339 -0.1007  0.1415  0.3030
    1DPPC   NC316345   6.844  17.145   2.690  0.0399 -0.0268  0.2670
    1DPPC   PO416346   7.233  17.298   2.731 -0.1801 -0.3277 -0.3915
    1DPPC   GL116347   7.330  17.617   3.070 -0.2966  0.1937  0.0535
    1DPPC   GL216348   7.540  17.343   3.234  0.3167  0.0616  0.0213
    1DPPC   C1A16349   7.160  17.620   3.487  0.0786 -0.0539  0.1787
    1DPPC   C2A16350   7.069  17.713   3.843  0.0667 -0.0456 -0.0003
    1DPPC   C3A16351   7.112  17.720   4.259 -0.3868 -0.1516 -0.0989
    1DPPC   C4A16352   7.009  17.831   4.728  0.1136 -0.1640 -0.1180
    1DPPC   C1B16353   7.610  17.564   3.656  0.3032 -0.1452  0.2380
    1DPPC   C2B16354   7.520  17.622   4.029  0.1130 -0.1930 -0.2113
    1DPPC   C3B16355   7.611  17.650   4.485  0.0413  0.1304 -0.1589
    1DPPC   C4B16356   7.411  17.523   4.868 -0.0731  0.0125  0.1002
    1DPPC   NC316357  26.507  12.909   1.442  0.0001 -0.0371  0.4699
    1DPPC   PO416358  26.044  12.805   1.411  0.1637  0.2020  0.2051
    1DPPC   GL116359  25.952  12.907   1.899 -0.0260 -0.0822 -0.0984
    1DPPC   GL216360  25.767  13.191   1.962 -0.0189 -0.0546  0.0241
    1DPPC   C1A16361  25.916  12.659   2.298 -0.0370 -0.0334  0.1463
    1DPPC   C2A16362  25.915  12.400   2.614 -0.1146 -0.1170 -0.2259
    1DPPC   C3A16363  25.917  12.467   3.050  0.1403 -0.1970  0.0768
    1DPPC   C4A16364  25.765  12.622   3.521  0.3067 -0.0857 -0.1070
    1DPPC   C1B16365  26.069  13.423   2.168  0.0336 -0.1317 -0.3199
    1DPPC   C2B16366  26.076  13.499   2.525 -0.3737 -0.2231  0.0047
    1DPPC   C3B16367  25.801  13.763   2.736  0.0799 -0.2878 -0.2882
    1DPPC   C4B16368  25.713  14.096   3.132 -0.0406  0.1435  0.0575
    1DPPC   NC316369   1.784  19.931   2.063  0.0600 -0.0315  0.1477
    1DPPC   PO416370   1.436  19.912   2.392 -0.0867 -0.2129  0.0636
    1DPPC   GL116371   1.233  19.921   2.710 -0.0526  0.0886  0.1094
    1DPPC   GL216372   1.037  20.166   2.807 -0.1338 -0.0769 -0.1121
    1DPPC   C1A16373   1.206  19.867   3.172 -0.2319 -0.0030  0.4838
    1DPPC   C2A16374   1.125  19.971   3.544  0.1404 -0.1014  0.2160
    1DPPC   C3A16375   0.832  19.900   3.812 -0.0663  0.0240  0.1581
    1DPPC   C4A16376   0.403  19.806   3.850 -0.0370  0.2151 -0.0898
    1DPPC   C1B16377   0.901  20.409   3.206 -0.1647  0.1049 -0.2217
    1DPPC   C2B16378   0.881  20.446   3.585  0.1434  0.2411 -0.1087
    1DPPC   C3B16379   0.721  20.438   3.954 -0.2206  0.0438 -0.0026
    1DPPC   C4B16380   0.691  20.704   4.312 -0.0669  0.3181 -0.1190
    1DPPC   NC316381  15.829   6.137   3.205  0.0466  0.1733  0.1971
    1DPPC   PO416382  16.103   6.556   3.402  0.1888  0.3050  0.2133
    1DPPC   GL116383  16.135   6.594   3.872 -0.0334  0.1003 -0.1610
    1DPPC   GL216384  15.845   6.853   3.926 -0.2817 -0.0599 -0.1239
    1DPPC   C1A16385  16.271   6.789   4.219 -0.4071 -0.2442  0.3357
    1DPPC   C2A16386  16.136   7.078   4.607 -0.1624  0.0248  0.0615
    1DPPC   C3A16387  15.812   7.103   4.766  0.0864  0.2223  0.1138
    1DPPC   C4A16388  15.486   7.430   4.742  0.3017 -0.3748 -0.4323
    1DPPC   C1B16389  15.721   6.759   4.365  0.0400 -0.1589  0.0200
    1DPPC   C2B16390  16.053   6.485   4.655 -0.1613 -0.0172  0.2875
    1DPPC   C3B16391  16.254   6.114   4.939 -0.4414  0.1170  0.2281
    1DPPC   C4B16392  16.227   6.058   5.369  0.1681 -0.0590  0.3235
    1DPPC   NC316393   6.072  11.351   2.998  0.4599 -0.0331  0.0964
    1DPPC   PO416394   6.341  11.586   2.716  0.1477  0.2175  0.1707
    1DPPC   GL116395   6.507  11.812   3.096 -0.2582  0.3473 -0.1294
    1DPPC   GL216396   6.296  11.702   3.265  0.2173 -0.0097 -0.1302
    1DPPC   C1A16397   6.482  12.058   3.525 -0.0220  0.1829 -0.2556
    1DPPC   C2A16398   6.334  12.143   3.963  0.3550 -0.1165 -0.0380
    1DPPC   C3A16399   6.070  12.077   4.282  0.3961  0.0419  0.1059
    1DPPC   C4A16400   5.932  12.018   4.771  0.3533 -0.0985  0.1283
    1DPPC   C1B16401   6.155  11.610   3.634 -0.0308 -0.2001 -0.0056
    1DPPC   C2B16402   6.160  11.473   3.935 -0.1568  0.0632 -0.1848
    1DPPC   C3B16403   6.005  11.539   4.348 -0.2895 -0.1348  0.0845
    1DPPC   C4B16404   6.041  11.500   4.716  0.3149 -0.2373 -0.0792
    1DPPC   NC316405  28.117  24.811   2.353 -0.1905  0.0096 -0.1529
    1DPPC   PO416406  28.430  24.647   2.517  0.0179  0.2263  0.0003
    1DPPC   GL116407  28.507  24.776   2.912  0.4540  0.3349 -0.0636
    1DPPC   GL216408  28.843  24.848   3.032  0.0623 -0.2774 -0.1067
    1DPPC   C1A16409  28.423  24.791   3.363 -0.1220  0.0421 -0.1315
    1DPPC   C2A16410  28.189  24.713   3.851 -0.0912 -0.0756 -0.0041
    1DPPC   C3A16411  27.867  24.512   4.128  0.3257 -0.3134  0.3603
    1DPPC   C4A16412  27.885  24.031   4.248 -0.3044  0.0500  0.0732
    1DPPC   C1B16413  28.815  24.556   3.503  0.0693  0.2230 -0.2811
    1DPPC   C2B16414  28.927  24.470   3.947 -0.1560 -0.1605  0.2422
    1DPPC   C3B16415  28.792  24.362   4.296  0.1141  0.1078  0.0543
    1DPPC   C4B16416  28.349  24.290   4.359 -0.0538 -0.0167  0.0120
    1DPPC   NC316417   2.063  25.138   2.744 -0.1989 -0.2595  0.2665
    1DPPC   PO416418   2.059  25.373   3.142  0.2446 -0.1600  0.2473
    1DPPC   GL116419   2.115  25.220   3.594 -0.2198 -0.2192 -0.2885
    1DPPC   GL216420   2.018  25.311   3.890  0.1392 -0.1432 -0.0324
    1DPPC   C1A16421   2.249  24.783   3.962 -0.0955 -0.2546  0.0032
    1DPPC   C2A16422   2.234  24.663   4.385 -0.0104 -0.0113 -0.0466
    1DPPC   C3A16423   1.981  24.677   4.833 -0.1202  0.1943  0.1340
    1DPPC   C4A16424   1.897  24.661   5.237 -0.0949 -0.0895 -0.2661
    1DPPC   C1B16425   2.183  25.210   4.304 -0.1808 -0.1512 -0.1179
    1DPPC   C2B16426   2.342  25.072   4.694 -0.1480 -0.0787  0.1156
    1DPPC   C3B16427   2.425  25.226   5.147 -0.0612 -0.0109  0.1372
    1DPPC   C4B16428   2.620  25.094   5.486  0.1675  0.0675  0.1181
    1DPPC   NC316429   2.039  18.452   2.040  0.1499  0.0434 -0.0159
    1DPPC   PO416430   2.515  18.439   2.086  0.3964 -0.0687 -0.0245
    1DPPC   GL116431   2.357  18.251   2.433  0.5145 -0.0199  0.1786
    1DPPC   GL216432   2.600  18.198   2.632  0.3232  0.0427 -0.0280
    1DPPC   C1A16433   2.088  18.006   2.744  0.0900  0.1172  0.1122
    1DPPC   C2A16434   1.958  17.964   3.159 -0.0865  0.0007  0.4146
    1DPPC   C3A16435   1.929  17.944   3.557  0.0721  0.3428 -0.0761
    1DPPC   C4A16436   1.982  17.807   3.993  0.3111 -0.2546  0.1892
    1DPPC   C1B16437   2.592  18.036   2.993  0.0475 -0.1705  0.3218
    1DPPC   C2B16438   2.463  17.877   3.378 -0.0692  0.0585 -0.2081
    1DPPC   C3B16439   2.368  17.775   3.708  0.0758 -0.2970  0.1903
    1DPPC   C4B16440   2.457  17.899   4.199 -0.1635  0.0004  0.0536
    1DPPC   NC316441   4.900  11.028   2.746  0.0296  0.2264 -0.2132
    1DPPC   PO416442   5.127  10.702   2.499 -0.1346 -0.0852  0.0511
    1DPPC   GL116443   5.248  10.526   2.904 -0.1093 -0.2422 -0.1410
    1DPPC   GL216444   5.286  10.727   3.080  0.1843  0.2243 -0.0183
    1DPPC   C1A16445   5.327  10.213   3.259  0.0338 -0.0306  0.0835
    1DPPC   C2A16446   5.363  10.280   3.664 -0.0901 -0.0778 -0.0936
    1DPPC   C3A16447   5.335  10.300   4.143 -0.1196 -0.0040  0.0869
    1DPPC   C4A16448   4.987  10.183   4.400 -0.0886 -0.1957  0.1718
    1DPPC   C1B16449   5.422  10.798   3.532 -0.0149 -0.1827 -0.0708
    1DPPC   C2B16450   5.497  10.760   3.901 -0.0936  0.1514  0.0800
    1DPPC   C3B16451   5.686  10.720   4.296 -0.3405  0.1837 -0.2221
    1DPPC   C4B16452   5.722  10.326   4.480 -0.0687  0.0366 -0.0846
    1DPPC   NC316453  13.884  20.072   3.000  0.0925 -0.0126 -0.0234
    1DPPC   PO416454  13.950  19.547   2.938  0.2253  0.0949  0.0330
    1DPPC   GL116455  13.905  19.268   3.357 -0.0875 -0.1956  0.0253
    1DPPC   GL216456  14.088  18.958   3.543 -0.0086 -0.1582  0.0190
    1DPPC   C1A16457  13.891  19.374   3.813 -0.0729  0.0099  0.2223
    1DPPC   C2A16458  13.726  19.467   4.256  0.2638 -0.0779 -0.1469
    1DPPC   C3A16459  13.443  19.494   4.624 -0.0434  0.1528 -0.1787
    1DPPC   C4A16460  13.234  19.905   4.819  0.0189 -0.2005  0.0430
    1DPPC   C1B16461  14.026  18.555   3.811 -0.0395  0.0053 -0.1435
    1DPPC   C2B16462  14.078  18.450   4.204  0.0103 -0.1411 -0.0470
    1DPPC   C3B16463  13.925  18.484   4.582 -0.0065  0.2460  0.0953
    1DPPC   C4B16464  14.235  18.510   4.910  0.1663  0.1773 -0.0673
    1DPPC   NC316465   4.036  13.737   2.068  0.1284  0.0637  0.1852
    1DPPC   PO416466   3.784  14.017   2.317 -0.1051  0.1693 -0.0723
    1DPPC   GL116467   3.715  14.165   2.721 -0.2680  0.2146  0.0155
    1DPPC   GL216468   3.395  14.167   2.760 -0.3147  0.1346  0.0868
    1DPPC   C1A16469   3.759  14.151   3.200 -0.1634 -0.2795 -0.2457
    1DPPC   C2A16470   3.932  14.263   3.633  0.4617 -0.1255 -0.2157
    1DPPC   C3A16471   3.806  14.369   3.979  0.4945  0.0470  0.2576
    1DPPC   C4A16472   3.642  14.604   4.152  0.1426  0.0622  0.0108
    1DPPC   C1B16473   3.286  14.270   3.130 -0.1964 -0.1541 -0.2625
    1DPPC   C2B16474   3.404  14.275   3.491  0.0878  0.0792 -0.2294
    1DPPC   C3B16475   3.364  14.214   3.844 -0.2238 -0.1197  0.2650
    1DPPC   C4B16476   3.333  14.027   4.279 -0.0268 -0.0960 -0.2195
    1DPPC   NC316477   2.422  23.388   2.841  0.1052  0.1986 -0.1667
    1DPPC   PO416478   2.556  22.998   2.573  0.2983 -0.0541  0.2129
    1DPPC   GL116479   2.482  23.004   3.102  0.1939  0.0443  0.1894
    1DPPC   GL216480   2.343  22.674   3.208  0.2036  0.1860  0.0389
    1DPPC   C1A16481   2.680  22.941   3.576 -0.0529 -0.0717  0.1527
    1DPPC   C2A16482   2.696  22.843   3.965  0.0838  0.1565  0.0716
    1DPPC   C3A16483   2.484  22.830   4.314 -0.2159  0.0485  0.0162
    1DPPC   C4A16484   2.277  22.987   4.711 -0.1929  0.2006 -0.1027
    1DPPC   C1B16485   2.300  22.568   3.659 -0.2863 -0.0576  0.0523
    1DPPC   C2B16486   2.148  22.455   4.155 -0.3469  0.2656  0.1470
    1DPPC   C3B16487   2.148  22.483   4.532  0.1917  0.1753  0.2211
    1DPPC   C4B16488   2.227  22.493   4.995  0.1651  0.0656  0.1237
    1DPPC   NC316489   5.730  15.946   1.990 -0.3545 -0.0097  0.1313
    1DPPC   PO416490   5.421  15.946   2.306 -0.1309  0.1803  0.0906
    1DPPC   GL116491   5.200  15.978   2.695 -0.2752  0.0680  0.4013
    1DPPC   GL216492   4.951  15.693   2.724 -0.2098  0.1560  0.0597
    1DPPC   C1A16493   5.405  15.856   3.066 -0.0812  0.2887 -0.1131
    1DPPC   C2A16494   5.561  15.828   3.453  0.1276 -0.1148 -0.1605
    1DPPC   C3A16495   5.484  15.911   3.879  0.0667  0.1139  0.1849
    1DPPC   C4A16496   5.392  15.950   4.312 -0.1200  0.1501  0.0798
    1DPPC   C1B16497   4.809  15.834   3.102 -0.3263 -0.3748  0.0756
    1DPPC   C2B16498   4.586  15.993   3.496  0.1089 -0.0606 -0.0836
    1DPPC   C3B16499   4.621  16.104   3.843  0.0810  0.0519 -0.1902
    1DPPC   C4B16500   4.752  16.138   4.283  0.2880 -0.2919  0.0926
    1DPPC   NC316501   1.614  23.129   2.788  0.0453 -0.1846 -0.0816
    1DPPC   PO416502   1.952  23.490   2.648 -0.1760  0.0864  0.7003
    1DPPC   GL116503   1.969  23.550   3.085 -0.1461 -0.2732 -0.3462
    1DPPC   GL216504   2.041  23.338   3.122 -0.2339 -0.3144 -0.0894
    1DPPC   C1A16505   1.918  23.604   3.539 -0.1427  0.1527  0.2813
    1DPPC   C2A16506   1.790  23.389   3.930  0.1218 -0.2161 -0.0356
    1DPPC   C3A16507   1.703  23.442   4.288 -0.0989 -0.0887 -0.0564
    1DPPC   C4A16508   1.444  23.131   4.502 -0.1099  0.0165 -0.2101
    1DPPC   C1B16509   2.210  23.187   3.504  0.0724 -0.5070 -0.0782
    1DPPC   C2B16510   2.204  22.992   3.930  0.2518 -0.3299  0.2314
    1DPPC   C3B16511   1.977  23.012   4.354 -0.0294  0.2514  0.1449
    1DPPC   C4B16512   1.774  22.826   4.716  0.3274  0.2405 -0.2475
    1DPPC   NC316513  15.926   2.870   3.062  0.1439  0.1948 -0.0283
    1DPPC   PO416514  16.349   2.506   2.978 -0.3116 -0.0014  0.2295
    1DPPC   GL116515  16.289   2.654   3.382  0.0896 -0.1045  0.0522
    1DPPC   GL216516  15.973   2.514   3.425 -0.2183  0.1581  0.1144
    1DPPC   C1A16517  16.551   2.796   3.681 -0.0251 -0.1350  0.1194
    1DPPC   C2A16518  16.703   3.020   4.013 -0.0655 -0.0935  0.2071
    1DPPC   C3A16519  16.773   3.010   4.429  0.1194  0.0410  0.0635
    1DPPC   C4A16520  16.782   3.274   4.708  0.0479  0.4028  0.0272
    1DPPC   C1B16521  15.893   2.455   3.845 -0.5372 -0.1292 -0.2063
    1DPPC   C2B16522  15.849   2.405   4.321 -0.1771  0.0007 -0.1415
    1DPPC   C3B16523  16.157   2.676   4.584  0.1879  0.1432  0.1851
    1DPPC   C4B16524  16.614   2.785   4.831  0.1326  0.1858 -0.3253
    1DPPC   NC316525  12.594  19.346   2.517 -0.0538 -0.2268 -0.1558
    1DPPC   PO416526  12.685  18.954   2.508  0.0294  0.2490 -0.0500
    1DPPC   GL116527  12.533  18.833   2.967 -0.3509  0.1951  0.0499
    1DPPC   GL216528  12.207  18.814   3.185  0.2899 -0.0335  0.1416
    1DPPC   C1A16529  12.731  19.016   3.358  0.2737 -0.0381  0.4250
    1DPPC   C2A16530  12.795  18.927   3.858  0.1419 -0.1482 -0.0469
    1DPPC   C3A16531  12.765  18.657   4.268 -0.1585 -0.1900 -0.0902
    1DPPC   C4A16532  12.862  18.501   4.716  0.0803 -0.0346 -0.0030
    1DPPC   C1B16533  12.240  19.114   3.447  0.1787  0.2697 -0.3709
    1DPPC   C2B16534  12.012  19.237   3.925  0.0261  0.3571  0.1532
    1DPPC   C3B16535  12.000  19.139   4.275  0.1167  0.2485 -0.1693
    1DPPC   C4B16536  12.064  19.121   4.600 -0.1939 -0.1063  0.2431
    1DPPC   NC316537  28.390   9.743   2.465  0.2122 -0.2111  0.0104
    1DPPC   PO416538  28.007   9.538   2.662 -0.1491  0.0312  0.1447
    1DPPC   GL116539  28.031   9.258   3.043  0.2331 -0.2975  0.0934
    1DPPC   GL216540  27.831   9.144   3.188  0.0777 -0.2274  0.2988
    1DPPC   C1A16541  28.241   9.437   3.446  0.1557  0.0874 -0.1983
    1DPPC   C2A16542  28.419   9.642   3.850  0.0793 -0.0755 -0.1378
    1DPPC   C3A16543  28.650   9.619   4.249  0.0832 -0.3082  0.1015
    1DPPC   C4A16544  28.654   9.977   4.494 -0.0197  0.0558  0.0490
    1DPPC   C1B16545  27.805   9.167   3.677 -0.2355 -0.5430 -0.1665
    1DPPC   C2B16546  28.119   9.195   4.015  0.1282 -0.0938  0.2994
    1DPPC   C3B16547  28.146   9.474   4.253 -0.0466 -0.1762  0.0836
    1DPPC   C4B16548  28.379   9.208   4.505  0.0910 -0.0818  0.1331
    1DPPC   NC316549   8.867  17.845   1.904 -0.2206  0.1076 -0.3444
    1DPPC   PO416550   8.706  17.609   2.287  0.1261 -0.1357  0.0887
    1DPPC   GL116551   8.697  17.655   2.762 -0.1103 -0.1278  0.0253
    1DPPC   GL216552   9.032  17.740   2.831  0.1770 -0.0833 -0.0326
    1DPPC   C1A16553   8.453  17.613   3.104  0.1135 -0.0521 -0.0298
    1DPPC   C2A16554   8.429  17.679   3.546  0.0996 -0.2533  0.0839
    1DPPC   C3A16555   8.373  17.687   4.003 -0.0022 -0.0864  0.0086
    1DPPC   C4A16556   8.515  17.691   4.365  0.1396  0.1275 -0.1641
    1DPPC   C1B16557   8.932  17.690   3.325  0.1874  0.2470 -0.2191
    1DPPC   C2B16558   8.961  17.879   3.785  0.0018 -0.3303 -0.0519
    1DPPC   C3B16559   8.951  17.796   4.286 -0.1384 -0.0180 -0.1982
    1DPPC   C4B16560   8.835  17.969   4.669  0.1026 -0.5013  0.1415
    1DPPC   NC316561   0.913  20.397   2.410 -0.2433  0.1257 -0.1891
    1DPPC   PO416562   0.621  20.338   2.248 -0.0243 -0.1113 -0.0953
    1DPPC   GL116563   0.441  20.362   2.628  0.1563 -0.0560 -0.1275
    1DPPC   GL216564   0.654  20.522   2.839 -0.0777  0.3942 -0.1401
    1DPPC   C1A16565   0.135  20.510   2.963 -0.2621 -0.1314 -0.1707
    1DPPC   C2A16566  -0.010  20.468   3.395  0.1388  0.2026 -0.3450
    1DPPC   C3A16567  -0.309  20.367   3.690  0.0140 -0.0250  0.0015
    1DPPC   C4A16568  -0.451  20.426   4.069  0.1165  0.3261  0.0641
    1DPPC   C1B16569   0.487  20.624   3.277 -0.0645 -0.0245 -0.1696
    1DPPC   C2B16570   0.312  20.728   3.707  0.0236 -0.0604 -0.4136
    1DPPC   C3B16571  -0.140  20.831   3.808 -0.2520 -0.1171  0.2236
    1DPPC   C4B16572  -0.266  21.085   4.097  0.0931  0.2646 -0.3517
    1DPPC   NC316573  17.245   2.361   3.315  0.0903 -0.2739  0.1673
    1DPPC   PO416574  17.475   1.874   3.262  0.0066 -0.0805 -0.0029
    1DPPC   GL116575  17.310   1.971   3.694 -0.0414  0.0359 -0.1890
    1DPPC   GL216576  17.099   1.758   3.843  0.0909 -0.0514 -0.0442
    1DPPC   C1A16577  17.336   2.281   4.108 -0.2509  0.1162 -0.2283
    1DPPC   C2A16578  17.355   2.341   4.520  0.2022 -0.0394 -0.0540
    1DPPC   C3A16579  17.478   2.446   4.927 -0.2180 -0.0066 -0.0934
    1DPPC   C4A16580  17.582   2.861   5.043  0.1530  0.1181 -0.0489
    1DPPC   C1B16581  17.233   1.690   4.111  0.0652  0.0262 -0.2546
    1DPPC   C2B16582  16.989   1.428   4.426  0.0737  0.2590 -0.1565
    1DPPC   C3B16583  17.057   0.979   4.586 -0.2548  0.2337  0.2404
    1DPPC   C4B16584  17.014   0.827   5.052 -0.1363  0.0811  0.1513
    1DPPC   NC316585  27.186  12.535   1.624 -0.2573 -0.2407 -0.0852
    1DPPC   PO416586  27.260  12.652   2.011 -0.0344 -0.1522  0.0504
    1DPPC   GL116587  27.193  12.785   2.346  0.3010  0.1904  0.0640
    1DPPC   GL216588  26.915  12.607   2.443  0.0161  0.0385 -0.3642
    1DPPC   C1A16589  27.307  12.871   2.738 -0.0900 -0.0676 -0.0110
    1DPPC   C2A16590  27.145  12.992   3.082  0.0871  0.0691  0.1178
    1DPPC   C3A16591  27.034  13.040   3.505  0.2217  0.1911 -0.0971
    1DPPC   C4A16592  26.924  13.333   3.896 -0.1284 -0.1402  0.2400
    1DPPC   C1B16593  26.759  12.911   2.627 -0.1375  0.3540 -0.2438
    1DPPC   C2B16594  26.658  13.050   3.036  0.1066 -0.2250 -0.2672
    1DPPC   C3B16595  26.542  13.230   3.350 -0.2079 -0.1653  0.0531
    1DPPC   C4B16596  26.452  13.163   3.809 -0.1490  0.2111 -0.0747
    1DPPC   NC316597   4.360  18.750   1.840 -0.2861 -0.0313  0.3061
    1DPPC   PO416598   4.698  18.880   2.126 -0.0836  0.1645  0.0497
    1DPPC   GL116599   4.888  18.543   2.422 -0.0955 -0.0623  0.0685
    1DPPC   GL216600   4.995  18.771   2.582 -0.0730 -0.0350 -0.2185
    1DPPC   C1A16601   4.894  18.351   2.902 -0.1506 -0.0064 -0.1176
    1DPPC   C2A16602   4.846  18.339   3.320  0.0168  0.0350 -0.2666
    1DPPC   C3A16603   4.768  18.259   3.749  0.0885 -0.1039 -0.4017
    1DPPC   C4A16604   4.610  18.368   4.176 -0.1198 -0.1463  0.3213
    1DPPC   C1B16605   4.832  18.846   3.004  0.1429 -0.0699  0.0540
    1DPPC   C2B16606   4.724  18.828   3.336 -0.0450 -0.0523  0.1924
    1DPPC   C3B16607   4.679  18.778   3.776 -0.0274 -0.4949 -0.0030
    1DPPC   C4B16608   4.919  18.846   4.085 -0.2115  0.2308 -0.1451
    1DPPC   NC316609  28.788  16.967   1.587  0.0016  0.0162 -0.2218
    1DPPC   PO416610  28.695  17.392   1.654 -0.1832  0.2108  0.0270
    1DPPC   GL116611  28.593  17.220   2.069  0.1777 -0.1355 -0.0934
    1DPPC   GL216612  28.262  17.061   2.171  0.1673  0.1043 -0.2297
    1DPPC   C1A16613  28.448  17.439   2.506  0.0330 -0.1581  0.1120
    1DPPC   C2A16614  28.362  17.450   2.943 -0.0346  0.2661 -0.0210
    1DPPC   C3A16615  28.248  17.517   3.345 -0.0406 -0.2770 -0.0571
    1DPPC   C4A16616  28.166  17.507   3.738  0.1498  0.1919 -0.1565
    1DPPC   C1B16617  28.089  17.003   2.591 -0.1194  0.1537 -0.0971
    1DPPC   C2B16618  28.006  17.074   3.067  0.2606 -0.0999  0.1185
    1DPPC   C3B16619  27.890  17.248   3.419  0.0756  0.1761  0.1880
    1DPPC   C4B16620  27.781  17.094   3.824 -0.3241 -0.2260 -0.1487
    1DPPC   NC316621   9.052  16.316   2.213  0.1485  0.0461  0.1137
    1DPPC   PO416622   8.851  16.165   2.530 -0.0294  0.2645 -0.0488
    1DPPC   GL116623   8.684  16.210   2.829  0.1216  0.0425  0.1642
    1DPPC   GL216624   8.356  16.335   2.881  0.0976 -0.0413 -0.0513
    1DPPC   C1A16625   8.744  15.985   3.290 -0.0844  0.1790 -0.2306
    1DPPC   C2A16626   8.736  15.880   3.706  0.1314 -0.1371  0.1976
    1DPPC   C3A16627   8.621  15.924   4.103 -0.2960 -0.0707  0.1289
    1DPPC   C4A16628   8.675  16.097   4.467 -0.1307  0.0777 -0.2778
    1DPPC   C1B16629   8.421  16.342   3.293  0.0533 -0.4012  0.3117
    1DPPC   C2B16630   8.388  16.267   3.728  0.3336 -0.1601 -0.0793
    1DPPC   C3B16631   8.324  16.310   4.185  0.3368  0.0079  0.1850
    1DPPC   C4B16632   8.219  16.361   4.570 -0.0147 -0.1095  0.1145
    1DPPC   NC316633   4.699  14.984   1.771 -0.2816  0.0870 -0.4653
    1DPPC   PO416634   5.023  15.274   2.115  0.0980  0.1082  0.0843
    1DPPC   GL116635   5.135  15.170   2.676 -0.1247 -0.1452  0.0505
    1DPPC   GL216636   5.370  15.377   2.923  0.2682 -0.1825 -0.2387
    1DPPC   C1A16637   5.167  14.926   3.088  0.1152 -0.1129  0.0621
    1DPPC   C2A16638   5.073  15.028   3.554 -0.0810  0.0970 -0.3154
    1DPPC   C3A16639   5.050  15.253   3.937 -0.1098 -0.1395 -0.0289
    1DPPC   C4A16640   4.846  15.251   4.342  0.2742 -0.0842  0.1314
    1DPPC   C1B16641   5.172  15.422   3.235  0.0145  0.1039 -0.3465
    1DPPC   C2B16642   5.125  15.672   3.533  0.0778 -0.1119  0.1331
    1DPPC   C3B16643   5.012  15.790   3.894  0.0993 -0.1907 -0.0646
    1DPPC   C4B16644   5.003  15.689   4.338 -0.0462 -0.0948  0.0948
    1DPPC   NC316645  26.735  14.400   1.293 -0.1326  0.1044  0.3433
    1DPPC   PO416646  27.155  14.513   1.101 -0.0403  0.0747  0.1170
    1DPPC   GL116647  27.186  14.439   1.540  0.1417  0.0796 -0.0921
    1DPPC   GL216648  27.394  14.559   1.704 -0.1355  0.0048  0.1085
    1DPPC   C1A16649  26.954  14.490   1.880  0.0968 -0.1296  0.1733
    1DPPC   C2A16650  26.735  14.651   2.176 -0.0999 -0.0232  0.0734
    1DPPC   C3A16651  26.505  14.794   2.486 -0.0224 -0.2594  0.0871
    1DPPC   C4A16652  26.461  15.098   2.867 -0.1391 -0.1048 -0.1882
    1DPPC   C1B16653  27.364  14.664   2.112 -0.1496 -0.0703  0.1175
    1DPPC   C2B16654  27.101  14.733   2.577 -0.1280  0.2266  0.1595
    1DPPC   C3B16655  26.893  14.866   2.922  0.1231 -0.1832 -0.0603
    1DPPC   C4B16656  26.852  15.138   3.305  0.0482  0.2041  0.0171
    1DPPC   NC316657  29.534  14.465   1.703 -0.1968  0.1473 -0.2392
    1DPPC   PO416658  29.499  14.441   2.214 -0.3867  0.1435 -0.4026
    1DPPC   GL116659  29.293  14.455   2.613 -0.0524 -0.3129 -0.0441
    1DPPC   GL216660  29.032  14.619   2.405 -0.1299  0.0824 -0.1394
    1DPPC   C1A16661  29.398  14.405   3.061  0.2024  0.0271  0.4877
    1DPPC   C2A16662  29.352  14.307   3.318 -0.1012 -0.0246 -0.4671
    1DPPC   C3A16663  29.294  14.385   3.723  0.0224  0.0583 -0.0529
    1DPPC   C4A16664  29.334  14.352   4.181 -0.0134  0.0095  0.1908
    1DPPC   C1B16665  28.819  14.981   2.619 -0.0009  0.1280 -0.1136
    1DPPC   C2B16666  28.766  15.100   2.971  0.1682  0.1451  0.1543
    1DPPC   C3B16667  28.998  15.118   3.405  0.2292 -0.0798 -0.0040
    1DPPC   C4B16668  28.999  15.372   3.854  0.3743 -0.3443  0.0774
    1DPPC   NC316669  27.378  16.863   1.272 -0.0332  0.1480 -0.1530
    1DPPC   PO416670  27.345  16.392   1.454  0.2060 -0.1860 -0.1103
    1DPPC   GL116671  27.179  16.351   1.830 -0.0250 -0.0628  0.1911
    1DPPC   GL216672  26.801  16.555   1.832  0.1356  0.0344  0.0698
    1DPPC   C1A16673  27.323  16.297   2.199 -0.2206 -0.0085 -0.1009
    1DPPC   C2A16674  27.286  16.388   2.659  0.2933  0.0100 -0.2810
    1DPPC   C3A16675  27.111  16.390   3.033  0.1029 -0.1064  0.0902
    1DPPC   C4A16676  27.140  16.090   3.305 -0.4570  0.0148 -0.1286
    1DPPC   C1B16677  26.739  16.528   2.332 -0.2010 -0.0150  0.0037
    1DPPC   C2B16678  26.758  16.730   2.803 -0.2089  0.2026 -0.1397
    1DPPC   C3B16679  26.488  16.826   3.101 -0.1208 -0.1130 -0.1915
    1DPPC   C4B16680  26.197  17.095   3.159  0.2285  0.0056 -0.1953
    1DPPC   NC316681  16.181  10.272   2.841 -0.0320  0.0770 -0.1983
    1DPPC   PO416682  16.055  10.191   3.268  0.1503 -0.0600 -0.0141
    1DPPC   GL116683  16.326   9.902   3.564  0.1868 -0.0769 -0.2753
    1DPPC   GL216684  16.624  10.079   3.367 -0.1095  0.2984  0.0950
    1DPPC   C1A16685  16.324   9.915   4.101 -0.0631  0.0972  0.2395
    1DPPC   C2A16686  16.200   9.958   4.569 -0.1331  0.2285 -0.2592
    1DPPC   C3A16687  16.361   9.945   5.002  0.3598  0.0779 -0.3832
    1DPPC   C4A16688  16.497   9.782   5.381 -0.1961  0.0421 -0.0746
    1DPPC   C1B16689  16.548  10.375   3.781  0.0754 -0.1133  0.2098
    1DPPC   C2B16690  16.286  10.479   4.187  0.0086 -0.0745  0.0214
    1DPPC   C3B16691  16.138  10.759   4.454 -0.0502  0.2905  0.0988
    1DPPC   C4B16692  16.183  10.997   4.780 -0.2255 -0.2155  0.2349
    1DPPC   NC316693   7.184  17.691   1.733  0.0280  0.0478  0.2693
    1DPPC   PO416694   6.986  17.931   2.198  0.1589 -0.1215 -0.1270
    1DPPC   GL116695   6.802  17.956   2.583  0.1998  0.1022  0.0986
    1DPPC   GL216696   6.840  17.640   2.697 -0.0200  0.0533  0.1807
    1DPPC   C1A16697   7.032  18.019   3.016 -0.1659 -0.0473 -0.0052
    1DPPC   C2A16698   7.012  18.096   3.461 -0.1565 -0.0947 -0.2825
    1DPPC   C3A16699   7.029  18.175   4.028  0.0361  0.2597 -0.5770
    1DPPC   C4A16700   7.160  18.306   4.398 -0.1758  0.0176 -0.1047
    1DPPC   C1B16701   6.518  17.610   3.128 -0.1359 -0.1954 -0.1454
    1DPPC   C2B16702   6.497  17.550   3.592  0.0526 -0.2411  0.1038
    1DPPC   C3B16703   6.473  17.579   4.000  0.0192 -0.1497  0.0931
    1DPPC   C4B16704   6.533  17.445   4.423 -0.0014 -0.1231  0.2125
    1DPPC   NC316705  10.584  12.547   3.009  0.1519 -0.0110  0.0724
    1DPPC   PO416706  10.358  12.276   2.811 -0.1136  0.1466 -0.1789
    1DPPC   GL116707  10.354  12.160   3.282 -0.4757 -0.1830  0.1347
    1DPPC   GL216708  10.625  12.121   3.296  0.2942 -0.0179 -0.3304
    1DPPC   C1A16709  10.241  12.301   3.655  0.1068 -0.0419  0.2594
    1DPPC   C2A16710  10.273  12.240   4.010  0.2764  0.2152  0.2144
    1DPPC   C3A16711  10.238  12.242   4.416 -0.2235  0.1568  0.5166
    1DPPC   C4A16712  10.086  12.099   4.833 -0.1262  0.0621  0.5940
    1DPPC   C1B16713  10.622  11.963   3.760 -0.3721 -0.0646 -0.1101
    1DPPC   C2B16714  10.592  11.924   4.269  0.1593  0.1317  0.0155
    1DPPC   C3B16715  10.595  12.112   4.666 -0.0722  0.1849 -0.2508
    1DPPC   C4B16716  10.851  12.278   4.928 -0.1590 -0.0982 -0.0518
    1DPPC   NC316717   1.234  17.245   1.997 -0.2260  0.0838  0.2311
    1DPPC   PO416718   0.809  17.269   1.800 -0.3974 -0.6136 -0.1022
    1DPPC   GL116719   0.632  17.156   2.272  0.0554  0.3207  0.1032
    1DPPC   GL216720   0.915  16.992   2.337  0.0062  0.3123 -0.1597
    1DPPC   C1A16721   0.517  17.236   2.647  0.1654  0.0348  0.1467
    1DPPC   C2A16722   0.606  17.105   3.045 -0.3329  0.3356  0.0287
    1DPPC   C3A16723   0.505  17.214   3.470  0.1800 -0.0865 -0.0767
    1DPPC   C4A16724   0.539  17.214   3.927 -0.1283  0.0931  0.0738
    1DPPC   C1B16725   1.078  16.851   2.731  0.1027  0.1881  0.0826
    1DPPC   C2B16726   1.076  16.904   3.147 -0.0581  0.0841  0.0736
    1DPPC   C3B16727   0.858  16.884   3.464  0.2243  0.2356 -0.0507
    1DPPC   C4B16728   0.976  16.847   3.899 -0.0326 -0.2264 -0.1560
    1DPPC   NC316729  23.389  21.090   1.935  0.0545  0.2006 -0.1211
    1DPPC   PO416730  23.331  21.333   2.319 -0.0254 -0.1139 -0.0984
    1DPPC   GL116731  23.375  21.364   2.730 -0.1080  0.2570  0.0959
    1DPPC   GL216732  23.281  21.678   2.838  0.1285  0.1631 -0.0115
    1DPPC   C1A16733  23.628  21.244   3.055  0.1049 -0.0361  0.1599
    1DPPC   C2A16734  23.651  21.183   3.480  0.0004 -0.0405 -0.2426
    1DPPC   C3A16735  24.096  21.074   3.662 -0.0637  0.1127  0.0089
    1DPPC   C4A16736  24.563  21.005   3.755 -0.0349  0.1020 -0.0545
    1DPPC   C1B16737  23.179  21.417   3.208 -0.1775 -0.0865 -0.0594
    1DPPC   C2B16738  23.089  21.543   3.648 -0.0346  0.2079  0.3025
    1DPPC   C3B16739  22.708  21.827   3.583  0.0303  0.0597 -0.2654
    1DPPC   C4B16740  22.451  22.139   3.555 -0.2612 -0.3268  0.0916
    1DPPC   NC316741  27.889  19.509   1.683 -0.0172  0.0437 -0.1136
    1DPPC   PO416742  27.961  19.040   1.854 -0.0316  0.1807 -0.0059
    1DPPC   GL116743  27.698  19.081   2.256 -0.0129 -0.6624 -0.0911
    1DPPC   GL216744  27.314  19.158   2.246  0.1977 -0.1206 -0.0097
    1DPPC   C1A16745  27.774  19.038   2.671  0.3641  0.1175  0.0843
    1DPPC   C2A16746  27.757  18.954   3.148  0.1025 -0.0826 -0.0907
    1DPPC   C3A16747  27.702  18.910   3.521  0.2470 -0.1009  0.2557
    1DPPC   C4A16748  27.565  19.127   3.854 -0.2487  0.1576 -0.0763
    1DPPC   C1B16749  27.275  19.037   2.676 -0.1490 -0.0136 -0.1112
    1DPPC   C2B16750  26.950  18.825   3.059 -0.3369 -0.2660  0.0029
    1DPPC   C3B16751  26.711  18.781   3.363 -0.0669 -0.0766  0.1329
    1DPPC   C4B16752  26.737  18.649   3.741 -0.0794 -0.2147 -0.1657
    1DPPC   NC316753  28.807  19.092   1.629  0.1874  0.1049 -0.1683
    1DPPC   PO416754  29.034  18.686   1.573 -0.0277  0.0289 -0.2171
    1DPPC   GL116755  28.884  18.611   1.953  0.0129 -0.2616  0.0496
    1DPPC   GL216756  28.803  18.340   2.000 -0.0588  0.2397 -0.0388
    1DPPC   C1A16757  29.123  18.457   2.354  0.3268 -0.0497 -0.1926
    1DPPC   C2A16758  29.044  18.386   2.751 -0.0524  0.1888  0.2734
    1DPPC   C3A16759  28.922  18.350   3.185  0.0231 -0.0529 -0.1173
    1DPPC   C4A16760  28.979  18.253   3.550 -0.0328  0.1923  0.3268
    1DPPC   C1B16761  28.625  18.504   2.419  0.0999  0.1215  0.0695
    1DPPC   C2B16762  28.517  18.465   2.900 -0.0406  0.1654  0.5973
    1DPPC   C3B16763  28.395  18.345   3.289 -0.2119 -0.2085 -0.2478
    1DPPC   C4B16764  28.478  18.260   3.797  0.2694 -0.2587  0.0302
    1DPPC   NC316765   0.364  15.027   1.747  0.3882 -0.0766  0.0717
    1DPPC   PO416766   0.030  15.202   1.964 -0.0204 -0.0486 -0.0456
    1DPPC   GL116767  -0.241  15.256   2.439  0.1421 -0.3118 -0.4902
    1DPPC   GL216768  -0.472  14.988   2.535 -0.0923 -0.1858  0.0548
    1DPPC   C1A16769  -0.294  15.307   2.950 -0.1645 -0.0469 -0.1723
    1DPPC   C2A16770  -0.404  15.342   3.363 -0.3189 -0.1253  0.0384
    1DPPC   C3A16771  -0.347  15.486   3.811  0.2064  0.0042  0.0336
    1DPPC   C4A16772  -0.337  15.788   4.079 -0.0734  0.0206 -0.0048
    1DPPC   C1B16773  -0.577  14.893   2.950 -0.1096 -0.0957 -0.3562
    1DPPC   C2B16774  -0.804  14.647   3.357 -0.1505  0.1828 -0.3213
    1DPPC   C3B16775  -1.201  14.502   3.615 -0.2137  0.1484 -0.1235
    1DPPC   C4B16776  -1.357  14.283   3.885 -0.1423  0.1193 -0.1630
    1DPPC   NC316777  29.181  12.980   2.288 -0.3157 -0.2214 -0.0197
    1DPPC   PO416778  29.461  12.633   2.335  0.1554 -0.0774 -0.2197
    1DPPC   GL116779  29.670  12.967   2.582  0.2206 -0.0229 -0.3888
    1DPPC   GL216780  29.969  12.774   2.651  0.0071 -0.1499 -0.2405
    1DPPC   C1A16781  29.599  12.989   3.105  0.1930 -0.2711 -0.0588
    1DPPC   C2A16782  29.556  13.037   3.513 -0.2239  0.1595 -0.2218
    1DPPC   C3A16783  29.364  13.005   3.910 -0.0340  0.0580  0.0473
    1DPPC   C4A16784  29.265  12.932   4.294  0.1322  0.1725  0.1618
    1DPPC   C1B16785  30.136  12.585   3.008 -0.0326 -0.0022 -0.0911
    1DPPC   C2B16786  30.005  12.663   3.393  0.2005  0.0454  0.0335
    1DPPC   C3B16787  29.904  12.738   3.726  0.0957 -0.1056 -0.2054
    1DPPC   C4B16788  29.735  12.820   4.129 -0.1776 -0.0564  0.1811
    1DPPC   NC316789   5.293  18.132   1.845 -0.2248  0.2205 -0.1343
    1DPPC   PO416790   5.566  17.968   2.134  0.2248  0.2663  0.0564
    1DPPC   GL116791   5.627  17.957   2.582  0.0962  0.1638 -0.0481
    1DPPC   GL216792   5.791  18.111   2.719  0.0251  0.0009  0.1480
    1DPPC   C1A16793   5.304  18.096   2.854 -0.1976 -0.0892  0.3203
    1DPPC   C2A16794   5.219  18.075   3.151 -0.3393 -0.1120  0.0345
    1DPPC   C3A16795   5.198  18.108   3.608 -0.1211  0.0508 -0.1887
    1DPPC   C4A16796   5.157  17.944   4.027  0.0399 -0.1386  0.2931
    1DPPC   C1B16797   5.728  18.210   3.063 -0.1108  0.1570  0.1272
    1DPPC   C2B16798   5.712  18.265   3.468  0.0117  0.1039  0.1061
    1DPPC   C3B16799   5.618  18.223   3.866  0.0893  0.0417 -0.0857
    1DPPC   C4B16800   5.738  18.136   4.330 -0.1125 -0.1348 -0.1434
    1DPPC   NC316801  25.236   3.509   2.514 -0.0732 -0.1520 -0.2147
    1DPPC   PO416802  25.274   3.280   2.887 -0.0124  0.0434  0.0995
    1DPPC   GL116803  25.618   3.498   3.195 -0.0595 -0.1210  0.1600
    1DPPC   GL216804  25.386   3.684   3.241 -0.1564 -0.0485 -0.2859
    1DPPC   C1A16805  25.645   3.303   3.615 -0.1422  0.0743 -0.2526
    1DPPC   C2A16806  25.685   3.051   3.976  0.0827 -0.2612  0.0759
    1DPPC   C3A16807  25.768   2.824   4.181 -0.2174 -0.1611  0.3568
    1DPPC   C4A16808  26.068   2.717   4.485 -0.0056 -0.1660 -0.1287
    1DPPC   C1B16809  25.513   3.756   3.761 -0.2839  0.0695  0.1037
    1DPPC   C2B16810  25.749   3.539   4.030 -0.0620 -0.0804  0.1159
    1DPPC   C3B16811  25.902   3.344   4.362  0.2657 -0.0051  0.1202
    1DPPC   C4B16812  25.689   2.959   4.620 -0.2114  0.1893 -0.1570
    1DPPC   NC316813   9.256  14.577   2.136 -0.0208  0.0604 -0.1792
    1DPPC   PO416814   9.427  14.525   2.694 -0.0132 -0.0300  0.0590
    1DPPC   GL116815   9.389  14.197   2.960 -0.1202  0.0051  0.0580
    1DPPC   GL216816   9.073  14.122   3.035  0.1874  0.3779 -0.1969
    1DPPC   C1A16817   9.431  13.928   3.321  0.0801 -0.1226  0.1390
    1DPPC   C2A16818   9.375  14.001   3.641 -0.0144 -0.1477  0.0462
    1DPPC   C3A16819   9.495  14.134   4.068  0.0173 -0.1998 -0.2335
    1DPPC   C4A16820   9.709  14.349   4.332 -0.1473 -0.5574  0.1455
    1DPPC   C1B16821   8.909  14.168   3.432  0.2298  0.0709  0.0555
    1DPPC   C2B16822   8.957  14.170   3.851  0.1073  0.2073  0.2636
    1DPPC   C3B16823   9.051  14.253   4.302  0.1627  0.0175 -0.1594
    1DPPC   C4B16824   9.304  14.270   4.723  0.3144  0.2082  0.0053
    1DPPC   NC316825   7.280  14.509   2.933  0.0218  0.2958 -0.0101
    1DPPC   PO416826   7.008  14.178   2.703  0.1064  0.2410 -0.0170
    1DPPC   GL116827   6.912  14.131   3.084  0.1747  0.1189  0.1953
    1DPPC   GL216828   6.566  14.037   3.232 -0.2480 -0.2493 -0.1132
    1DPPC   C1A16829   7.006  13.822   3.391 -0.1489 -0.1599 -0.0270
    1DPPC   C2A16830   7.066  13.969   3.857  0.0716  0.0245  0.2654
    1DPPC   C3A16831   6.895  13.912   4.285 -0.1332  0.0495 -0.2356
    1DPPC   C4A16832   6.755  13.909   4.710  0.2710  0.1680  0.0083
    1DPPC   C1B16833   6.716  14.123   3.576  0.1998 -0.1364  0.2814
    1DPPC   C2B16834   6.547  14.213   3.982  0.0410 -0.0255 -0.2485
    1DPPC   C3B16835   6.473  14.201   4.353 -0.3470 -0.0085  0.1906
    1DPPC   C4B16836   6.267  14.121   4.664  0.2279 -0.1485 -0.4447
    1DPPC   NC316837  23.939   1.701   3.370  0.1558 -0.0573  0.2624
    1DPPC   PO416838  24.394   1.970   3.228 -0.1408 -0.2303  0.1152
    1DPPC   GL116839  24.255   2.224   3.531  0.0596  0.2274 -0.0211
    1DPPC   GL216840  24.173   2.576   3.484 -0.2937  0.0724  0.1712
    1DPPC   C1A16841  24.351   2.458   3.873 -0.0094  0.0194  0.1772
    1DPPC   C2A16842  24.628   2.522   4.101  0.0919 -0.1188  0.0332
    1DPPC   C3A16843  24.772   2.628   4.569 -0.3479 -0.3061  0.0219
    1DPPC   C4A16844  25.002   2.524   4.903  0.3580  0.4052  0.2682
    1DPPC   C1B16845  24.574   2.843   3.533 -0.1447 -0.0784 -0.0173
    1DPPC   C2B16846  24.520   3.262   3.813  0.1850  0.0425 -0.1335
    1DPPC   C3B16847  24.517   3.631   4.114  0.0045  0.0653  0.0079
    1DPPC   C4B16848  24.745   3.684   4.442 -0.0407 -0.0800 -0.2345
    1DPPC   NC316849  13.202  19.145   2.479 -0.0250 -0.0191 -0.1374
    1DPPC   PO416850  13.080  19.563   2.692  0.1474  0.0101  0.0123
    1DPPC   GL116851  13.148  19.643   3.070  0.1291  0.2699  0.3306
    1DPPC   GL216852  13.485  19.672   3.150  0.3279 -0.2996 -0.2237
    1DPPC   C1A16853  13.128  19.877   3.431  0.3614 -0.0843  0.0932
    1DPPC   C2A16854  13.075  19.935   3.806  0.2537 -0.1926  0.0563
    1DPPC   C3A16855  12.706  19.873   3.983  0.2018 -0.0801 -0.0960
    1DPPC   C4A16856  12.471  20.039   4.308 -0.1130 -0.1756  0.2382
    1DPPC   C1B16857  13.687  19.676   3.522  0.0313  0.1434  0.0727
    1DPPC   C2B16858  13.485  19.727   3.953 -0.1283 -0.1734 -0.3098
    1DPPC   C3B16859  13.308  19.808   4.230  0.1006  0.1222  0.4011
    1DPPC   C4B16860  12.973  19.986   4.357  0.0566  0.0109  0.0140
    1DPPC   NC316861   0.771  23.575   2.261 -0.4148 -0.2401 -0.1453
    1DPPC   PO416862   0.797  23.216   2.527  0.0850 -0.0692 -0.0440
    1DPPC   GL116863   0.981  23.249   2.941 -0.0978 -0.2067 -0.2472
    1DPPC   GL216864   0.806  23.066   3.071  0.1891 -0.1062 -0.3351
    1DPPC   C1A16865   1.092  23.692   3.252 -0.1405  0.0075  0.3544
    1DPPC   C2A16866   1.016  23.780   3.670  0.3098 -0.0825 -0.1844
    1DPPC   C3A16867   0.919  23.934   4.106 -0.0999 -0.1484 -0.0728
    1DPPC   C4A16868   1.083  24.279   4.392 -0.1707  0.1563 -0.2476
    1DPPC   C1B16869   0.752  22.762   3.369  0.2276  0.1489  0.0010
    1DPPC   C2B16870   0.625  22.789   3.771  0.1340 -0.0773 -0.3943
    1DPPC   C3B16871   0.479  22.867   4.192 -0.1692  0.0901  0.0593
    1DPPC   C4B16872   0.342  23.107   4.392  0.0984  0.3351  0.0421
    1DPPC   NC316873   8.224  10.429   2.803 -0.1340  0.1724  0.3176
    1DPPC   PO416874   7.968  10.758   2.895  0.2460 -0.1411  0.4382
    1DPPC   GL116875   7.615  10.713   3.131  0.0149  0.0643 -0.1996
    1DPPC   GL216876   7.656  10.458   3.168  0.0567  0.4032  0.1788
    1DPPC   C1A16877   7.510  10.911   3.548 -0.1353  0.1635  0.0224
    1DPPC   C2A16878   7.238  10.905   3.917  0.1521 -0.0312 -0.2296
    1DPPC   C3A16879   7.153  10.991   4.257 -0.0074 -0.1067  0.3159
    1DPPC   C4A16880   7.196  10.704   4.642 -0.0997 -0.0621 -0.0879
    1DPPC   C1B16881   7.725  10.438   3.586 -0.1682 -0.0644  0.1092
    1DPPC   C2B16882   7.686  10.589   3.903  0.0597  0.2806  0.0855
    1DPPC   C3B16883   7.584  10.759   4.252  0.1474  0.2094 -0.1003
    1DPPC   C4B16884   7.570  11.033   4.663  0.0829  0.4462 -0.4197
    1DPPC   NC316885   0.763  19.499   2.214  0.0664 -0.1631  0.0701
    1DPPC   PO416886   0.967  19.107   2.157 -0.0304 -0.1099  0.0768
    1DPPC   GL116887   0.739  19.101   2.587  0.2561  0.2086  0.3109
    1DPPC   GL216888   0.498  19.408   2.617  0.2546 -0.0443  0.2217
    1DPPC   C1A16889   0.481  19.026   3.008  0.1667  0.1307 -0.3432
    1DPPC   C2A16890   0.568  18.634   3.207 -0.1121 -0.1514  0.0556
    1DPPC   C3A16891   0.631  18.373   3.587  0.0351  0.4405  0.0581
    1DPPC   C4A16892   0.392  18.520   3.855  0.1960 -0.0801 -0.0540
    1DPPC   C1B16893   0.277  19.462   2.983 -0.2693  0.0565  0.0189
    1DPPC   C2B16894   0.206  19.613   3.380  0.3398 -0.0899 -0.0792
    1DPPC   C3B16895   0.063  19.421   3.780  0.1540 -0.2913  0.0230
    1DPPC   C4B16896   0.290  19.417   4.116  0.0432 -0.1572 -0.1366
    1DPPC   NC316897   0.059  18.258   1.822  0.3764  0.0045  0.1355
    1DPPC   PO416898   0.081  18.725   1.864 -0.0290 -0.0114  0.1569
    1DPPC   GL116899  -0.218  18.807   2.265  0.0009  0.0253  0.0497
    1DPPC   GL216900  -0.151  19.223   2.421 -0.0632  0.1508  0.1115
    1DPPC   C1A16901  -0.465  18.862   2.667  0.1102 -0.2620 -0.0956
    1DPPC   C2A16902  -0.551  18.745   3.136  0.0451  0.1573  0.2349
    1DPPC   C3A16903  -0.471  18.618   3.532  0.1364  0.1996  0.0073
    1DPPC   C4A16904  -0.665  18.512   3.951  0.5512 -0.1713  0.1805
    1DPPC   C1B16905  -0.119  19.156   2.872  0.0087  0.3881 -0.1648
    1DPPC   C2B16906  -0.154  19.103   3.318  0.0830 -0.0275  0.1607
    1DPPC   C3B16907  -0.445  19.106   3.639  0.1004  0.1349  0.0257
    1DPPC   C4B16908  -0.405  19.071   4.049  0.1244  0.1764 -0.0258
    1DPPC   NC316909  28.529  11.422   1.986  0.4581 -0.1201 -0.1766
    1DPPC   PO416910  28.913  11.557   2.153 -0.0123  0.1933 -0.2891
    1DPPC   GL116911  28.668  11.343   2.578 -0.1423  0.1034  0.0012
    1DPPC   GL216912  28.899  11.137   2.727  0.1585 -0.0681  0.0457
    1DPPC   C1A16913  28.774  11.539   3.003  0.0298  0.1781 -0.0305
    1DPPC   C2A16914  28.701  11.700   3.398  0.0387 -0.0035  0.2168
    1DPPC   C3A16915  28.603  11.958   3.714  0.0246  0.2298 -0.1465
    1DPPC   C4A16916  28.537  12.078   4.072  0.0711 -0.1233  0.0128
    1DPPC   C1B16917  28.920  11.070   3.205  0.0797  0.0560  0.0416
    1DPPC   C2B16918  28.795  11.078   3.587  0.3071 -0.2706 -0.1412
    1DPPC   C3B16919  28.901  11.128   3.995  0.0319 -0.0009 -0.1260
    1DPPC   C4B16920  28.943  11.093   4.491  0.1779  0.1354  0.3278
    1DPPC   NC316921   1.458  10.842   2.574  0.1196 -0.1375  0.1516
    1DPPC   PO416922   1.508  10.403   2.554 -0.5667  0.0684 -0.0316
    1DPPC   GL116923   1.596  10.406   2.858  0.1566  0.2770  0.0377
    1DPPC   GL216924   1.724  10.138   2.949 -0.1994 -0.2745 -0.2945
    1DPPC   C1A16925   1.833  10.644   3.212  0.1827  0.0869 -0.1006
    1DPPC   C2A16926   1.883  10.462   3.680  0.4094  0.2853  0.1900
    1DPPC   C3A16927   1.836  10.227   4.091  0.1391 -0.1238  0.1273
    1DPPC   C4A16928   1.867  10.012   4.506  0.0001 -0.1570  0.0202
    1DPPC   C1B16929   1.499  10.271   3.350 -0.2433  0.2280 -0.0233
    1DPPC   C2B16930   1.396  10.373   3.762 -0.0130  0.0144  0.0728
    1DPPC   C3B16931   1.276  10.368   4.210 -0.2158 -0.1046  0.3233
    1DPPC   C4B16932   1.043  10.608   4.497 -0.1343  0.1535 -0.2281
    1DPPC   NC316933   5.032  21.957   2.342  0.3076  0.0864 -0.0551
    1DPPC   PO416934   5.154  21.823   2.784  0.0988 -0.2203 -0.0406
    1DPPC   GL116935   4.908  21.889   3.162  0.0882  0.0204 -0.0131
    1DPPC   GL216936   4.681  22.158   3.331  0.1251 -0.0459  0.1056
    1DPPC   C1A16937   4.911  21.773   3.561 -0.0751 -0.3902  0.1617
    1DPPC   C2A16938   4.848  21.780   4.009 -0.1390 -0.1274 -0.0614
    1DPPC   C3A16939   4.655  21.869   4.372  0.0902 -0.0815  0.1992
    1DPPC   C4A16940   4.470  21.989   4.832 -0.1399 -0.1032 -0.1385
    1DPPC   C1B16941   4.678  22.297   3.791  0.1619 -0.2035  0.1433
    1DPPC   C2B16942   4.663  22.562   4.155  0.1476 -0.1537  0.3824
    1DPPC   C3B16943   4.574  22.460   4.582  0.3295 -0.0434 -0.1118
    1DPPC   C4B16944   4.682  22.515   4.874  0.0005 -0.1770  0.2110
    1DPPC   NC316945   2.823  13.209   2.024 -0.1427 -0.0702  0.2087
    1DPPC   PO416946   2.538  13.360   2.226 -0.0761  0.0405 -0.0456
    1DPPC   GL116947   2.478  13.619   2.548  0.0300 -0.2236  0.2895
    1DPPC   GL216948   2.702  13.394   2.798 -0.0015 -0.0195  0.1800
    1DPPC   C1A16949   2.558  13.821   3.026 -0.2427  0.1356  0.0914
    1DPPC   C2A16950   2.507  13.898   3.497 -0.0254  0.1812 -0.0523
    1DPPC   C3A16951   2.508  13.990   3.951 -0.2149 -0.2429 -0.2561
    1DPPC   C4A16952   2.422  13.968   4.453 -0.0039  0.1076 -0.0505
    1DPPC   C1B16953   2.611  13.217   3.205  0.2161 -0.1640  0.0620
    1DPPC   C2B16954   2.598  13.456   3.596  0.0174  0.0891  0.0877
    1DPPC   C3B16955   2.697  13.426   4.108 -0.0012 -0.0267  0.0812
    1DPPC   C4B16956   2.570  13.456   4.483 -0.0929  0.1216 -0.2509
    1DPPC   NC316957   6.969  16.232   2.354 -0.0866  0.1445  0.2524
    1DPPC   PO416958   6.857  16.640   2.419  0.0720  0.1745 -0.1317
    1DPPC   GL116959   6.880  16.507   2.838  0.1222  0.1243  0.4039
    1DPPC   GL216960   6.688  16.722   3.089  0.1149  0.1811 -0.1676
    1DPPC   C1A16961   7.017  16.404   3.207  0.0389  0.2035 -0.0897
    1DPPC   C2A16962   6.845  16.236   3.577  0.0182  0.2479  0.0986
    1DPPC   C3A16963   6.873  16.274   3.989 -0.2777  0.1713  0.2272
    1DPPC   C4A16964   6.780  16.139   4.313  0.2506 -0.2058  0.0093
    1DPPC   C1B16965   6.734  16.727   3.549 -0.2507 -0.0192 -0.2598
    1DPPC   C2B16966   6.714  16.740   3.984  0.0639 -0.0598 -0.0128
    1DPPC   C3B16967   6.977  16.636   4.371 -0.0686  0.1512 -0.1199
    1DPPC   C4B16968   7.237  16.437   4.616 -0.2153  0.1897 -0.0577
    1DPPC   NC316969   0.730  12.495   2.344 -0.0010  0.0160 -0.0544
    1DPPC   PO416970   1.244  12.484   2.403  0.0087  0.2549  0.1689
    1DPPC   GL116971   1.405  12.717   2.808 -0.1224  0.1129  0.0613
    1DPPC   GL216972   1.266  13.031   2.820  0.1002 -0.1893 -0.0984
    1DPPC   C1A16973   1.681  12.817   3.002  0.0131 -0.2693 -0.0899
    1DPPC   C2A16974   1.735  12.861   3.450  0.0759  0.0519  0.0528
    1DPPC   C3A16975   2.050  12.829   3.791 -0.0073  0.3722 -0.1000
    1DPPC   C4A16976   2.159  13.030   4.149 -0.2054  0.0439  0.2235
    1DPPC   C1B16977   1.273  12.998   3.301 -0.1336 -0.3323 -0.0055
    1DPPC   C2B16978   1.165  13.105   3.630  0.2775 -0.0320  0.1668
    1DPPC   C3B16979   1.032  12.689   4.003 -0.2176 -0.0885  0.1747
    1DPPC   C4B16980   1.278  12.841   4.393 -0.0121  0.2143  0.0163
    1DPPC   NC316981   6.700  12.167   2.681  0.0154  0.1786  0.5885
    1DPPC   PO416982   6.853  12.573   2.788  0.0740 -0.1010  0.1492
    1DPPC   GL116983   6.526  12.776   2.952  0.0216 -0.0790 -0.0828
    1DPPC   GL216984   6.316  13.043   2.994 -0.0131  0.0633 -0.1271
    1DPPC   C1A16985   6.554  12.663   3.384 -0.0988 -0.0195 -0.1781
    1DPPC   C2A16986   6.594  12.597   3.845 -0.0663  0.0686 -0.1606
    1DPPC   C3A16987   6.455  12.428   4.309  0.0826  0.1894  0.0520
    1DPPC   C4A16988   6.319  12.496   4.734  0.0220 -0.1670 -0.2700
    1DPPC   C1B16989   6.228  13.270   3.396 -0.0907  0.1622 -0.2422
    1DPPC   C2B16990   6.178  13.364   3.841 -0.1822 -0.4107  0.0911
    1DPPC   C3B16991   6.048  13.388   4.326  0.0745 -0.0099  0.0610
    1DPPC   C4B16992   6.318  13.455   4.652  0.1207 -0.0951 -0.2030
    1DPPC   NC316993   0.125  11.822   2.428  0.3306 -0.2483 -0.0316
    1DPPC   PO416994  -0.183  11.784   2.674  0.3369 -0.3246  0.1756
    1DPPC   GL116995  -0.258  11.928   3.042 -0.3372 -0.2903  0.0026
    1DPPC   GL216996  -0.614  11.915   3.096  0.3760  0.2092  0.2997
    1DPPC   C1A16997  -0.151  11.919   3.468  0.0493 -0.0854  0.1645
    1DPPC   C2A16998  -0.225  12.012   3.779  0.2222  0.3203  0.2217
    1DPPC   C3A16999  -0.050  11.959   4.156 -0.0066 -0.1262  0.0195
    1DPPC   C4A17000   0.196  12.027   4.460 -0.0276  0.0339 -0.2801
    1DPPC   C1B17001  -0.708  11.968   3.591  0.1588  0.1750 -0.3789
    1DPPC   C2B17002  -0.693  11.941   4.025 -0.1250  0.0319 -0.0918
    1DPPC   C3B17003  -0.754  12.068   4.445  0.2094 -0.0465 -0.2532
    1DPPC   C4B17004  -1.180  12.264   4.574 -0.1049  0.2241  0.0971
    1DPPC   NC317005   3.939  14.695   2.084 -0.1211 -0.2534  0.1272
    1DPPC   PO417006   3.727  14.950   2.382 -0.1368 -0.1996  0.0709
    1DPPC   GL117007   3.657  15.286   2.732 -0.4006  0.1614 -0.1959
    1DPPC   GL217008   3.653  15.232   3.108 -0.0514 -0.0744 -0.0710
    1DPPC   C1A17009   3.631  15.679   2.966  0.1072 -0.0787  0.2998
    1DPPC   C2A17010   3.650  15.912   3.412  0.1022 -0.1898  0.2592
    1DPPC   C3A17011   3.444  16.220   3.777  0.0177  0.0762  0.1923
    1DPPC   C4A17012   3.312  16.465   4.024  0.2718  0.3671 -0.1352
    1DPPC   C1B17013   3.698  15.397   3.532 -0.0970  0.1248 -0.1538
    1DPPC   C2B17014   3.591  15.738   3.877 -0.0958  0.0017 -0.0254
    1DPPC   C3B17015   3.654  15.945   4.238  0.0141 -0.0680  0.1219
    1DPPC   C4B17016   3.754  16.372   4.280 -0.0120  0.0559 -0.0479
    1DPPC   NC317017  27.435  24.112   2.413  0.1300  0.2817  0.2093
    1DPPC   PO417018  27.588  24.493   2.404  0.1115 -0.2646 -0.1357
    1DPPC   GL117019  27.669  24.386   2.774  0.1503  0.2845 -0.3282
    1DPPC   GL217020  27.393  24.439   2.931  0.3161 -0.0615  0.2658
    1DPPC   C1A17021  27.986  24.112   2.977  0.1362 -0.3432 -0.2628
    1DPPC   C2A17022  28.096  23.844   3.284 -0.3325 -0.1603 -0.0997
    1DPPC   C3A17023  28.064  23.969   3.665 -0.0052 -0.2517 -0.2367
    1DPPC   C4A17024  28.316  23.843   4.058  0.3302  0.0651  0.0886
    1DPPC   C1B17025  27.610  24.438   3.297  0.0954 -0.1667  0.0283
    1DPPC   C2B17026  27.608  24.346   3.662 -0.2786 -0.2156  0.2206
    1DPPC   C3B17027  27.455  24.244   4.070 -0.0225 -0.0426 -0.1044
    1DPPC   C4B17028  27.384  24.110   4.532  0.2459  0.1707 -0.0244
    1DPPC   NC317029   0.322  10.842   2.502 -0.0637  0.1109  0.0281
    1DPPC   PO417030   0.665  11.147   2.341 -0.1260  0.0436  0.0457
    1DPPC   GL117031   0.713  11.135   2.776 -0.4578  0.1601  0.2586
    1DPPC   GL217032   1.011  11.005   2.836  0.1865  0.3368 -0.2234
    1DPPC   C1A17033   0.462  11.197   3.146  0.0457  0.0719  0.1368
    1DPPC   C2A17034   0.383  11.156   3.639  0.0719  0.2891 -0.1888
    1DPPC   C3A17035   0.632  11.102   3.976  0.2576 -0.1891  0.0972
    1DPPC   C4A17036   0.986  11.133   4.218 -0.2149  0.0490 -0.0072
    1DPPC   C1B17037   1.142  10.909   3.145  0.0278 -0.2817 -0.1379
    1DPPC   C2B17038   1.404  10.829   3.427  0.1961  0.0008  0.0608
    1DPPC   C3B17039   1.761  10.942   3.791  0.3386  0.1082  0.3005
    1DPPC   C4B17040   1.761  11.139   4.143  0.2379 -0.0967 -0.0589
    1DPPC   NC317041   6.047  12.659   2.785  0.0307 -0.1716 -0.0976
    1DPPC   PO417042   5.623  12.561   2.693 -0.1262  0.1640 -0.0313
    1DPPC   GL117043   5.749  12.277   3.043 -0.2244 -0.2844  0.2591
    1DPPC   GL217044   5.492  12.070   3.069 -0.0619  0.0549  0.0060
    1DPPC   C1A17045   5.993  12.123   3.322 -0.0831  0.1581 -0.1377
    1DPPC   C2A17046   5.916  12.170   3.714 -0.2670 -0.0194  0.1847
    1DPPC   C3A17047   5.763  12.311   3.970 -0.1027  0.2800  0.1256
    1DPPC   C4A17048   5.727  12.357   4.477 -0.0211 -0.0712 -0.0725
    1DPPC   C1B17049   5.309  12.163   3.568  0.2606 -0.2551 -0.1413
    1DPPC   C2B17050   5.269  12.330   3.950  0.0745  0.0510  0.0718
    1DPPC   C3B17051   5.224  12.358   4.382 -0.2483  0.0016  0.1805
    1DPPC   C4B17052   5.268  12.331   4.804  0.3672 -0.2833  0.2770
    1DPPC   NC317053   4.244  16.141   2.150 -0.4967  0.2675 -0.1771
    1DPPC   PO417054   4.457  16.530   2.241 -0.0791  0.1322  0.4401
    1DPPC   GL117055   4.511  16.611   2.723  0.0364  0.1805  0.1279
    1DPPC   GL217056   4.661  16.912   2.682  0.1442  0.1573  0.1006
    1DPPC   C1A17057   4.619  16.373   3.081  0.0238  0.0918  0.1430
    1DPPC   C2A17058   4.507  16.465   3.465  0.0276 -0.0387 -0.0136
    1DPPC   C3A17059   4.191  16.464   3.804 -0.3756  0.0966  0.0812
    1DPPC   C4A17060   3.776  16.595   3.808  0.0243  0.1858  0.2692
    1DPPC   C1B17061   4.686  16.863   3.150 -0.1544  0.0949  0.2139
    1DPPC   C2B17062   4.422  16.981   3.569  0.2295 -0.1037  0.4451
    1DPPC   C3B17063   4.289  16.983   4.019 -0.0224 -0.1053  0.0106
    1DPPC   C4B17064   3.987  16.816   4.243  0.0100 -0.1938  0.0342
    1DPPC   NC317065   5.796   8.387   3.085 -0.1473  0.1150  0.0329
    1DPPC   PO417066   5.375   8.457   3.211  0.2097 -0.0167  0.0832
    1DPPC   GL117067   5.527   8.773   3.472 -0.1833  0.1310  0.2803
    1DPPC   GL217068   5.262   8.727   3.723  0.0321 -0.0013 -0.0572
    1DPPC   C1A17069   5.861   9.045   3.601  0.2970  0.0867  0.0191
    1DPPC   C2A17070   6.125   9.509   3.841 -0.0631  0.3440 -0.4178
    1DPPC   C3A17071   6.325   9.688   4.255 -0.1189  0.1108  0.3359
    1DPPC   C4A17072   6.298  10.063   4.498  0.1593  0.1235 -0.2300
    1DPPC   C1B17073   5.005   8.905   4.137  0.0652 -0.1336  0.0220
    1DPPC   C2B17074   4.745   8.855   4.426  0.0873  0.0843  0.1367
    1DPPC   C3B17075   4.310   8.784   4.499 -0.3007 -0.1637  0.1859
    1DPPC   C4B17076   3.872   8.654   4.537 -0.3625  0.0740 -0.4548
    1DPPC   NC317077   2.145  11.495   2.369 -0.1676 -0.0442 -0.0902
    1DPPC   PO417078   2.586  11.409   2.413 -0.0835  0.2792  0.2041
    1DPPC   GL117079   2.493  11.470   2.818  0.5103 -0.1021  0.0988
    1DPPC   GL217080   2.593  11.254   2.943 -0.0580 -0.0848  0.1747
    1DPPC   C1A17081   2.578  11.838   3.117  0.2039 -0.0222  0.2472
    1DPPC   C2A17082   2.451  11.833   3.554 -0.2176 -0.0526 -0.0024
    1DPPC   C3A17083   2.389  11.840   3.969 -0.1512 -0.0827  0.1204
    1DPPC   C4A17084   2.308  11.631   4.363 -0.1221  0.1667  0.2680
    1DPPC   C1B17085   2.667  11.404   3.395 -0.0730 -0.1443 -0.1277
    1DPPC   C2B17086   2.741  11.469   3.855 -0.0108 -0.1455  0.1338
    1DPPC   C3B17087   2.574  11.253   4.167 -0.2122 -0.2262  0.4298
    1DPPC   C4B17088   2.211  11.115   4.362  0.2289  0.1788 -0.1491
    1DPPC   NC317089  23.728   9.993   2.036 -0.2067  0.0591  0.2241
    1DPPC   PO417090  23.271  10.187   1.906 -0.1519 -0.0474  0.0231
    1DPPC   GL117091  23.433  10.331   2.324  0.1450 -0.1619 -0.1486
    1DPPC   GL217092  23.705  10.184   2.562 -0.3059 -0.0341 -0.2254
    1DPPC   C1A17093  23.357  10.544   2.705  0.1633 -0.1332  0.0740
    1DPPC   C2A17094  23.125  10.667   3.161  0.1195 -0.0262 -0.0757
    1DPPC   C3A17095  23.187  10.988   3.393  0.0299 -0.2213  0.3921
    1DPPC   C4A17096  22.904  11.083   3.745 -0.2591  0.1421 -0.0930
    1DPPC   C1B17097  23.476  10.200   3.008 -0.3157 -0.0177  0.0249
    1DPPC   C2B17098  23.257  10.195   3.431  0.2094  0.2801 -0.5345
    1DPPC   C3B17099  22.891  10.080   3.691 -0.1025 -0.2992 -0.0001
    1DPPC   C4B17100  22.390  10.051   3.726 -0.1208 -0.2119 -0.1985
    1DPPC   NC317101   0.383  21.144   2.147  0.0295 -0.0744  0.0291
    1DPPC   PO417102   0.574  20.814   2.442  0.2048 -0.0590  0.1019
    1DPPC   GL117103   0.411  20.991   2.881 -0.1564  0.2359 -0.0083
    1DPPC   GL217104   0.723  21.034   3.023 -0.3541 -0.4574  0.3094
    1DPPC   C1A17105   0.130  21.020   3.102  0.0310 -0.0861  0.0371
    1DPPC   C2A17106   0.147  21.166   3.501 -0.1145  0.3125  0.0988
    1DPPC   C3A17107   0.081  21.336   3.867  0.2773 -0.1524 -0.3051
    1DPPC   C4A17108   0.105  21.504   4.238  0.0203 -0.0339  0.1479
    1DPPC   C1B17109   0.689  21.021   3.479  0.0800  0.2491 -0.2635
    1DPPC   C2B17110   0.665  21.143   3.927 -0.2453  0.1104  0.2440
    1DPPC   C3B17111   0.449  21.188   4.298 -0.3457 -0.0112  0.2608
    1DPPC   C4B17112   0.184  20.909   4.236 -0.0876 -0.2075 -0.1841
    1DPPC   NC317113   6.612  20.101   2.696  0.2229 -0.0174  0.0317
    1DPPC   PO417114   6.937  20.326   2.582 -0.3074  0.2334  0.0410
    1DPPC   GL117115   7.064  20.153   2.978 -0.0351  0.3358 -0.2251
    1DPPC   GL217116   7.019  19.855   2.998  0.0831 -0.2015 -0.0488
    1DPPC   C1A17117   7.455  20.171   3.222 -0.0617  0.1968  0.0204
    1DPPC   C2A17118   7.835  20.025   3.440  0.0936  0.1774 -0.1449
    1DPPC   C3A17119   7.838  20.015   3.847 -0.2342 -0.0360  0.2941
    1DPPC   C4A17120   7.828  20.030   4.259  0.0559  0.0482  0.3635
    1DPPC   C1B17121   6.993  20.031   3.414 -0.0324 -0.2119  0.1496
    1DPPC   C2B17122   6.895  19.921   3.839  0.0025  0.2885  0.2473
    1DPPC   C3B17123   6.859  19.739   4.219 -0.2277  0.0943 -0.0626
    1DPPC   C4B17124   6.460  19.699   4.454  0.1226  0.1637 -0.1156
    1DPPC   NC317125   5.307  20.633   2.285 -0.0329  0.2076 -0.0621
    1DPPC   PO417126   5.552  20.271   2.193 -0.1570  0.4570  0.0245
    1DPPC   GL117127   5.460  20.335   2.694  0.0402 -0.0500 -0.0814
    1DPPC   GL217128   5.205  20.535   2.735 -0.1544 -0.2177 -0.1855
    1DPPC   C1A17129   5.799  20.412   2.967  0.2305 -0.0685  0.0837
    1DPPC   C2A17130   5.908  20.621   3.395  0.1238 -0.2930 -0.2083
    1DPPC   C3A17131   5.723  20.697   3.709  0.0613 -0.1351  0.0414
    1DPPC   C4A17132   5.562  20.624   4.149 -0.0168  0.1436  0.0407
    1DPPC   C1B17133   4.970  20.461   3.131 -0.0581  0.0857  0.2229
    1DPPC   C2B17134   5.097  20.376   3.625 -0.1028  0.0049  0.1021
    1DPPC   C3B17135   5.084  20.409   3.949 -0.0853 -0.1069 -0.2739
    1DPPC   C4B17136   5.137  20.465   4.408  0.0650 -0.1263 -0.2510
    1DPPC   NC317137   6.510  18.131   2.238 -0.2575 -0.2277  0.0902
    1DPPC   PO417138   6.260  17.876   2.544  0.0121 -0.2484 -0.0568
    1DPPC   GL117139   6.022  17.705   2.934 -0.0147 -0.0108  0.3587
    1DPPC   GL217140   6.050  17.418   3.053  0.0361 -0.1830  0.0878
    1DPPC   C1A17141   6.046  17.806   3.345 -0.3538 -0.1173 -0.1009
    1DPPC   C2A17142   6.053  17.894   3.739 -0.2957 -0.1152  0.0240
    1DPPC   C3A17143   6.154  17.833   4.269 -0.0258 -0.0072 -0.0190
    1DPPC   C4A17144   5.985  17.816   4.701  0.2890  0.1106  0.4857
    1DPPC   C1B17145   5.986  17.292   3.474 -0.0342 -0.1262 -0.2172
    1DPPC   C2B17146   5.990  17.405   3.831 -0.0617  0.0254 -0.1060
    1DPPC   C3B17147   5.984  17.320   4.276  0.4019 -0.2726  0.1253
    1DPPC   C4B17148   5.956  17.101   4.565  0.1280  0.0034 -0.1882
    1DPPC   NC317149   6.800  11.320   2.814 -0.0223 -0.0618 -0.1759
    1DPPC   PO417150   6.884  10.973   2.547 -0.0586  0.1301 -0.4168
    1DPPC   GL117151   6.908  10.776   3.007  0.1654  0.3096  0.1230
    1DPPC   GL217152   7.182  10.897   3.044 -0.1075 -0.0192  0.0615
    1DPPC   C1A17153   6.742  10.760   3.465  0.0827  0.5581  0.3866
    1DPPC   C2A17154   6.707  10.829   3.912 -0.3179 -0.1119 -0.1332
    1DPPC   C3A17155   6.693  10.793   4.398  0.1723  0.1033 -0.2293
    1DPPC   C4A17156   6.679  10.385   4.580  0.1327  0.1710 -0.3391
    1DPPC   C1B17157   7.090  11.181   3.431  0.2688 -0.3102  0.0519
    1DPPC   C2B17158   7.054  11.357   3.791 -0.0860  0.2387 -0.1482
    1DPPC   C3B17159   7.057  11.647   4.162  0.1235 -0.1911 -0.0654
    1DPPC   C4B17160   7.412  11.838   4.327 -0.1161 -0.0644  0.3091
    1DPPC   NC317161   1.127  14.393   2.072 -0.3458  0.0416  0.0180
    1DPPC   PO417162   1.101  14.826   2.238  0.2633  0.0262 -0.3407
    1DPPC   GL117163   0.927  14.895   2.635 -0.0297 -0.0352 -0.0146
    1DPPC   GL217164   0.626  15.056   2.660  0.1560  0.1200  0.2065
    1DPPC   C1A17165   1.167  14.802   2.938 -0.0930  0.1313 -0.3247
    1DPPC   C2A17166   1.135  14.998   3.191 -0.0449  0.0871 -0.1657
    1DPPC   C3A17167   0.980  14.967   3.583 -0.1771  0.0904 -0.2695
    1DPPC   C4A17168   0.877  14.594   3.836  0.1207  0.1533 -0.0893
    1DPPC   C1B17169   0.484  15.016   2.992  0.1181  0.3100  0.0090
    1DPPC   C2B17170   0.056  15.005   3.210  0.0775 -0.1205  0.0520
    1DPPC   C3B17171  -0.322  14.824   3.462  0.0594 -0.4273 -0.0648
    1DPPC   C4B17172  -0.405  14.909   3.907 -0.1436 -0.0003  0.2269
    1DPPC   NC317173  29.718  15.671   2.080 -0.1033  0.0702 -0.0259
    1DPPC   PO417174  30.017  15.881   2.192 -0.0083 -0.0015 -0.2408
    1DPPC   GL117175  29.832  16.086   2.441  0.0646  0.0388  0.0820
    1DPPC   GL217176  29.654  15.744   2.546 -0.0567  0.0199 -0.1524
    1DPPC   C1A17177  29.847  16.234   2.817  0.1158  0.0684 -0.0869
    1DPPC   C2A17178  29.793  16.285   3.197 -0.1971  0.1774 -0.1877
    1DPPC   C3A17179  29.631  16.293   3.573 -0.0630  0.1294  0.1854
    1DPPC   C4A17180  29.674  16.288   4.004 -0.1910  0.1083  0.0201
    1DPPC   C1B17181  29.489  15.775   2.925 -0.2186 -0.0351 -0.1290
    1DPPC   C2B17182  29.473  15.811   3.341  0.4569 -0.0387 -0.0485
    1DPPC   C3B17183  29.220  16.000   3.687 -0.0851 -0.1728  0.2825
    1DPPC   C4B17184  28.820  15.993   3.681  0.2140  0.0600 -0.0297
    1DPPC   NC317185   7.462  10.037   2.975  0.0306 -0.2873  0.1135
    1DPPC   PO417186   7.831  10.013   2.934  0.0667  0.2965 -0.1148
    1DPPC   GL117187   8.116  10.210   3.243 -0.2352 -0.0452 -0.1442
    1DPPC   GL217188   8.180  10.597   3.334  0.2553  0.1453  0.0334
    1DPPC   C1A17189   8.331  10.089   3.562 -0.2119 -0.2363 -0.1595
    1DPPC   C2A17190   8.183  10.108   3.981 -0.0389  0.2795 -0.1295
    1DPPC   C3A17191   8.301  10.167   4.384  0.2041 -0.0124  0.0862
    1DPPC   C4A17192   8.083  10.288   4.727  0.2153  0.0941  0.2292
    1DPPC   C1B17193   8.250  10.552   3.744  0.1404  0.0230  0.0809
    1DPPC   C2B17194   8.087  10.579   4.211  0.0746 -0.2124  0.1508
    1DPPC   C3B17195   7.977  10.719   4.582 -0.1860  0.2163 -0.0894
    1DPPC   C4B17196   8.006  10.774   4.971  0.0567 -0.1265  0.1894
    1DPPC   NC317197   3.872   8.827   2.556  0.0549 -0.0649  0.3161
    1DPPC   PO417198   4.327   8.987   2.723  0.1159 -0.0356 -0.0204
    1DPPC   GL117199   4.166   9.126   3.211 -0.1363 -0.1080 -0.2797
    1DPPC   GL217200   3.876   9.245   3.230 -0.0259 -0.1158 -0.1743
    1DPPC   C1A17201   4.279   9.351   3.561 -0.3969  0.1269  0.1834
    1DPPC   C2A17202   3.859   9.457   3.894 -0.2199  0.1335  0.1518
    1DPPC   C3A17203   3.642   9.791   4.255  0.0099  0.1759 -0.7434
    1DPPC   C4A17204   3.488   9.689   4.723  0.0025  0.1109  0.0949
    1DPPC   C1B17205   3.861   9.614   3.377  0.2004 -0.1532  0.0493
    1DPPC   C2B17206   3.852   9.903   3.727 -0.3219 -0.0580 -0.0308
    1DPPC   C3B17207   3.663  10.214   3.992 -0.2604 -0.2671  0.1748
    1DPPC   C4B17208   3.189  10.213   3.841 -0.0203  0.1515 -0.0408
    1DPPC   NC317209   1.824  21.977   1.722  0.3418 -0.0212  0.2175
    1DPPC   PO417210   1.631  21.987   2.135  0.1335 -0.0175 -0.2308
    1DPPC   GL117211   1.521  21.927   2.600  0.2941 -0.1977  0.4059
    1DPPC   GL217212   1.687  22.162   2.774  0.2712  0.2575 -0.1811
    1DPPC   C1A17213   1.562  21.619   2.871 -0.1448 -0.2010 -0.4349
    1DPPC   C2A17214   1.531  21.506   3.256  0.3622  0.0667  0.2322
    1DPPC   C3A17215   1.452  21.395   3.705  0.0572  0.2984  0.1975
    1DPPC   C4A17216   1.424  21.350   4.112 -0.1446  0.1614 -0.3081
    1DPPC   C1B17217   1.527  22.137   3.130  0.0283 -0.4176  0.0560
    1DPPC   C2B17218   1.445  22.232   3.569 -0.2859 -0.1693 -0.0498
    1DPPC   C3B17219   1.298  22.373   3.994  0.1593  0.2321  0.1134
    1DPPC   C4B17220   1.140  22.137   4.364 -0.1251  0.1246  0.1122
    1DPPC   NC317221  11.637   4.443   3.088  0.1772  0.0990  0.1030
    1DPPC   PO417222  11.607   4.362   3.609  0.0590  0.0632  0.1783
    1DPPC   GL117223  12.049   4.236   3.812  0.0026 -0.0561  0.1590
    1DPPC   GL217224  12.089   4.550   3.883 -0.2465 -0.0832 -0.3759
    1DPPC   C1A17225  12.342   4.223   4.172  0.0898 -0.2113  0.2600
    1DPPC   C2A17226  12.532   4.132   4.546 -0.0616  0.4611  0.1488
    1DPPC   C3A17227  12.812   3.865   4.699 -0.3173 -0.2282  0.1577
    1DPPC   C4A17228  13.094   4.104   4.695 -0.1984 -0.2156 -0.0056
    1DPPC   C1B17229  12.209   4.714   4.402  0.0622 -0.3535  0.0421
    1DPPC   C2B17230  12.407   4.624   4.667  0.0679 -0.2344  0.0404
    1DPPC   C3B17231  12.433   4.473   5.060  0.0410  0.2273  0.2303
    1DPPC   C4B17232  12.515   4.290   5.361  0.2174 -0.1539  0.0046
    1DPPC   NC317233   2.503  21.623   2.406  0.1215 -0.1208  0.1545
    1DPPC   PO417234   2.788  21.273   2.479 -0.0579 -0.0541 -0.2142
    1DPPC   GL117235   2.898  21.104   2.905  0.1210  0.0891 -0.0500
    1DPPC   GL217236   3.175  20.925   2.827  0.1444 -0.1494 -0.4122
    1DPPC   C1A17237   2.799  21.096   3.299  0.0729 -0.3209 -0.2439
    1DPPC   C2A17238   2.824  20.941   3.697  0.2814  0.2709  0.1517
    1DPPC   C3A17239   2.766  20.728   4.169  0.0766 -0.0090 -0.1386
    1DPPC   C4A17240   2.845  20.736   4.639 -0.0845  0.1816  0.2846
    1DPPC   C1B17241   3.117  20.746   3.279  0.0561 -0.1369 -0.0972
    1DPPC   C2B17242   3.247  20.704   3.632 -0.0189 -0.2412 -0.1184
    1DPPC   C3B17243   3.210  20.569   4.009  0.0167  0.1194 -0.2012
    1DPPC   C4B17244   3.303  20.500   4.431 -0.0988  0.1260  0.0334
    1DPPC   NC317245  25.733  13.272   1.453  0.2006 -0.0739 -0.1383
    1DPPC   PO417246  25.360  13.357   1.679  0.1147  0.1431  0.0484
    1DPPC   GL117247  25.286  13.648   1.964  0.0438  0.0106 -0.3728
    1DPPC   GL217248  25.592  13.952   1.921  0.0848  0.0499  0.0344
    1DPPC   C1A17249  25.226  13.761   2.428  0.3110  0.0498  0.1097
    1DPPC   C2A17250  25.293  13.844   2.894 -0.3702 -0.0559  0.0842
    1DPPC   C3A17251  25.275  13.873   3.381 -0.2036  0.0678  0.3804
    1DPPC   C4A17252  25.053  14.222   3.544  0.0848 -0.1694 -0.1015
    1DPPC   C1B17253  25.650  13.766   2.252  0.0002 -0.1064 -0.1329
    1DPPC   C2B17254  25.564  13.421   2.503 -0.1015  0.1127 -0.0616
    1DPPC   C3B17255  25.554  13.338   2.938  0.0126 -0.3424  0.3277
    1DPPC   C4B17256  25.282  13.410   3.221  0.0171 -0.0633 -0.0073
    1DPPC   NC317257   2.384  10.967   2.568 -0.0353 -0.1512  0.1808
    1DPPC   PO417258   1.888  11.141   2.544  0.5272  0.1107 -0.0969
    1DPPC   GL117259   1.978  11.503   2.846  0.0207 -0.1872 -0.0564
    1DPPC   GL217260   1.768  11.657   2.902  0.4393 -0.2703  0.0367
    1DPPC   C1A17261   2.184  11.497   3.244  0.0414  0.0368 -0.0645
    1DPPC   C2A17262   2.063  11.473   3.732 -0.0253  0.0996 -0.2685
    1DPPC   C3A17263   1.827  11.681   4.082 -0.0011  0.1660 -0.3555
    1DPPC   C4A17264   1.552  11.925   4.365 -0.2761  0.1687 -0.2093
    1DPPC   C1B17265   1.863  11.898   3.304 -0.0122  0.1305 -0.2576
    1DPPC   C2B17266   1.929  11.970   3.639  0.1759  0.1340 -0.2760
    1DPPC   C3B17267   2.031  12.168   4.023 -0.0967  0.0567 -0.0093
    1DPPC   C4B17268   2.016  12.156   4.367  0.1454 -0.1177 -0.0431
    1DPPC   NC317269   0.919  11.556   2.370 -0.0639 -0.1317 -0.2023
    1DPPC   PO417270   1.195  11.251   2.492 -0.0439 -0.2746  0.0610
    1DPPC   GL117271   1.281  11.410   2.819 -0.3079  0.2705 -0.1703
    1DPPC   GL217272   1.222  11.671   2.766  0.1669  0.3732 -0.1272
    1DPPC   C1A17273   1.040  11.484   3.259 -0.0853 -0.0334  0.0383
    1DPPC   C2A17274   1.041  11.643   3.604 -0.1719 -0.1229  0.1332
    1DPPC   C3A17275   0.758  11.578   3.983  0.2766  0.1326  0.1220
    1DPPC   C4A17276   0.732  11.495   4.446 -0.2118  0.2102  0.0101
    1DPPC   C1B17277   1.265  11.959   3.129  0.2700  0.3337  0.0095
    1DPPC   C2B17278   1.456  12.044   3.462 -0.0250 -0.1640  0.0610
    1DPPC   C3B17279   1.498  12.043   3.896  0.0831 -0.1134 -0.2188
    1DPPC   C4B17280   1.232  12.302   4.157 -0.0267 -0.1788  0.0889
    1DPPC   NC317281  27.035  24.800   2.250  0.1270 -0.1538 -0.1948
    1DPPC   PO417282  27.010  24.342   2.491  0.2252 -0.2175  0.4309
    1DPPC   GL117283  26.862  24.365   2.919 -0.0715 -0.2018 -0.2694
    1DPPC   GL217284  26.707  24.613   3.050  0.0949 -0.0988 -0.3115
    1DPPC   C1A17285  26.594  24.169   3.213  0.1029  0.1098  0.0386
    1DPPC   C2A17286  26.607  24.040   3.665  0.0520 -0.2035 -0.1553
    1DPPC   C3A17287  26.382  23.806   4.062 -0.1218  0.2687 -0.0745
    1DPPC   C4A17288  26.105  23.943   4.414 -0.0122 -0.0036 -0.0108
    1DPPC   C1B17289  27.089  24.566   3.337 -0.3289  0.3162  0.0049
    1DPPC   C2B17290  27.186  24.551   3.850 -0.1006 -0.0653  0.0077
    1DPPC   C3B17291  27.049  24.543   4.311  0.1122 -0.1401  0.0245
    1DPPC   C4B17292  26.914  24.406   4.670  0.0373  0.1940 -0.2368
    1DPPC   NC317293   2.106  12.902   2.417  0.3050 -0.1274 -0.1151
    1DPPC   PO417294   2.545  12.795   2.219  0.1594 -0.2777  0.2721
    1DPPC   GL117295   2.580  12.898   2.569  0.0626  0.0080  0.1913
    1DPPC   GL217296   2.286  13.134   2.800 -0.0866  0.1260  0.2265
    1DPPC   C1A17297   2.539  12.754   3.060 -0.2045  0.1757 -0.0874
    1DPPC   C2A17298   2.509  12.745   3.488 -0.1131  0.0709  0.0762
    1DPPC   C3A17299   2.583  13.024   3.855  0.1145  0.2178  0.3302
    1DPPC   C4A17300   2.720  12.978   4.308 -0.0692  0.1478  0.1004
    1DPPC   C1B17301   2.125  12.991   3.166  0.1386 -0.1219 -0.2525
    1DPPC   C2B17302   2.154  13.183   3.499  0.1440  0.1123 -0.0936
    1DPPC   C3B17303   2.224  13.469   3.953  0.1228  0.1849  0.2266
    1DPPC   C4B17304   2.107  13.541   4.361 -0.0377 -0.0775  0.3772
    1DPPC   NC317305  10.391  15.934   2.238 -0.1729  0.2369  0.1769
    1DPPC   PO417306   9.991  15.819   2.533 -0.0286  0.0964 -0.1164
    1DPPC   GL117307  10.086  15.838   2.944 -0.1182  0.4130 -0.2430
    1DPPC   GL217308  10.099  16.148   3.169  0.0696 -0.1292 -0.0815
    1DPPC   C1A17309  10.044  15.628   3.297  0.1671 -0.0660 -0.1427
    1DPPC   C2A17310  10.070  15.710   3.714 -0.0239  0.0463 -0.0909
    1DPPC   C3A17311  10.050  15.736   4.143 -0.1253  0.2746  0.1317
    1DPPC   C4A17312  10.159  15.913   4.540  0.1914 -0.0095  0.2817
    1DPPC   C1B17313  10.245  16.145   3.530 -0.1168  0.0997  0.2684
    1DPPC   C2B17314  10.240  16.135   3.948 -0.1866  0.1334 -0.1532
    1DPPC   C3B17315  10.200  16.367   4.330 -0.1614 -0.0834  0.0115
    1DPPC   C4B17316  10.094  16.445   4.673  0.0634  0.2053 -0.2900
    1DPPC   NC317317  21.108   1.037   3.098 -0.0444 -0.1247  0.0066
    1DPPC   PO417318  21.419   1.099   3.396 -0.0089  0.2543 -0.0530
    1DPPC   GL117319  21.403   1.232   3.775 -0.2251 -0.1040 -0.3509
    1DPPC   GL217320  21.804   1.254   3.823 -0.0049 -0.0702  0.1699
    1DPPC   C1A17321  21.465   1.036   4.150  0.1933 -0.0213  0.2593
    1DPPC   C2A17322  21.200   0.905   4.490 -0.0073 -0.2112  0.0060
    1DPPC   C3A17323  21.126   0.805   4.932  0.2786 -0.1050  0.0833
    1DPPC   C4A17324  21.409   0.676   5.317 -0.0998 -0.1177 -0.2887
    1DPPC   C1B17325  21.850   1.331   4.208 -0.2092  0.3382  0.0524
    1DPPC   C2B17326  21.965   1.264   4.692  0.4316 -0.0192  0.0907
    1DPPC   C3B17327  22.012   1.343   5.141  0.1954 -0.1372 -0.1044
    1DPPC   C4B17328  22.039   1.684   5.561 -0.0339  0.3088 -0.1012
    1DPPC   NC317329   4.982  17.627   1.505  0.1907 -0.1730 -0.1653
    1DPPC   PO417330   4.768  17.961   1.820  0.1205  0.3669  0.0304
    1DPPC   GL117331   4.748  18.063   2.222  0.0152 -0.1834  0.4720
    1DPPC   GL217332   4.955  18.042   2.499 -0.0502  0.1663  0.0746
    1DPPC   C1A17333   4.475  18.050   2.569 -0.0115 -0.0961 -0.1014
    1DPPC   C2A17334   4.537  18.043   3.026 -0.2297 -0.1441 -0.2792
    1DPPC   C3A17335   4.450  17.983   3.405 -0.0994 -0.1189  0.1018
    1DPPC   C4A17336   4.424  17.933   3.923 -0.2036 -0.1561  0.1420
    1DPPC   C1B17337   4.913  17.731   2.784  0.0925 -0.1388 -0.1310
    1DPPC   C2B17338   4.881  17.769   3.236  0.0906  0.1202 -0.3250
    1DPPC   C3B17339   4.835  17.622   3.711 -0.2265 -0.0891 -0.2219
    1DPPC   C4B17340   4.738  17.676   4.162 -0.0321 -0.1278  0.1305
    1DPPC   NC317341   4.588   3.374   2.900 -0.1736  0.0228  0.2196
    1DPPC   PO417342   4.521   3.801   3.058 -0.0605 -0.0676 -0.0361
    1DPPC   GL117343   4.321   3.726   3.470 -0.0135  0.0637 -0.2867
    1DPPC   GL217344   3.973   3.664   3.484  0.0918 -0.1798 -0.3074
    1DPPC   C1A17345   4.224   3.555   3.853 -0.0045 -0.2395 -0.0621
    1DPPC   C2A17346   4.362   3.222   4.107  0.2031 -0.0897 -0.1658
    1DPPC   C3A17347   4.308   3.258   4.435 -0.1396 -0.0168 -0.1284
    1DPPC   C4A17348   4.418   3.320   4.824 -0.0944 -0.2208 -0.1595
    1DPPC   C1B17349   3.707   3.518   3.847  0.3143 -0.1850  0.3984
    1DPPC   C2B17350   3.413   3.439   4.213 -0.1849 -0.3001  0.0044
    1DPPC   C3B17351   3.383   3.695   4.632  0.1425  0.2388 -0.0106
    1DPPC   C4B17352   3.641   3.703   4.964  0.0131  0.1047 -0.3144
    1DPPC   NC317353   1.977  14.481   2.492 -0.0450 -0.1092 -0.0588
    1DPPC   PO417354   1.570  14.299   2.292  0.0206 -0.2660 -0.1740
    1DPPC   GL117355   1.637  14.147   2.666  0.2788 -0.2151  0.0956
    1DPPC   GL217356   1.408  13.983   2.890 -0.0960 -0.0727  0.0450
    1DPPC   C1A17357   1.473  14.415   3.045  0.0679  0.0615 -0.0605
    1DPPC   C2A17358   1.322  14.461   3.549  0.2183 -0.0975  0.0019
    1DPPC   C3A17359   1.108  14.176   3.883 -0.1571  0.1789 -0.1761
    1DPPC   C4A17360   1.278  14.134   4.384  0.4010 -0.3866 -0.0111
    1DPPC   C1B17361   1.291  13.768   3.223 -0.1492  0.0562 -0.2155
    1DPPC   C2B17362   1.174  13.705   3.631 -0.1646  0.0863 -0.0328
    1DPPC   C3B17363   1.246  13.492   3.980  0.1283  0.0618  0.1032
    1DPPC   C4B17364   1.219  13.492   4.407  0.1306  0.0433 -0.0266
    1DPPC   NC317365  11.473  21.455   2.596 -0.2158 -0.1444 -0.0213
    1DPPC   PO417366  11.121  21.315   2.718 -0.1521 -0.0860  0.0389
    1DPPC   GL117367  11.086  21.362   3.160  0.0572 -0.0064  0.0363
    1DPPC   GL217368  10.960  21.715   3.206  0.0192 -0.1593  0.0473
    1DPPC   C1A17369  11.280  21.146   3.486  0.1374  0.0655  0.1834
    1DPPC   C2A17370  11.272  21.143   3.919  0.1695 -0.1202 -0.3120
    1DPPC   C3A17371  11.148  21.026   4.282  0.1342  0.0546 -0.3230
    1DPPC   C4A17372  11.016  20.940   4.615  0.0588 -0.4357 -0.0437
    1DPPC   C1B17373  11.229  21.624   3.599 -0.3753  0.1904  0.2396
    1DPPC   C2B17374  11.473  21.706   3.888 -0.0533 -0.2001 -0.1450
    1DPPC   C3B17375  11.578  21.433   4.177 -0.3710  0.1430  0.2873
    1DPPC   C4B17376  11.638  21.050   4.199  0.0227  0.1027 -0.0864
    1DPPC   NC317377   3.211  11.620   2.047 -0.0887 -0.2010  0.1115
    1DPPC   PO417378   3.322  11.419   2.476 -0.1508 -0.0602  0.2485
    1DPPC   GL117379   3.357  11.333   2.908 -0.2116  0.1861  0.0078
    1DPPC   GL217380   3.122  11.208   3.114 -0.0646 -0.0140 -0.0849
    1DPPC   C1A17381   3.585  11.551   3.299  0.2514  0.0601 -0.0955
    1DPPC   C2A17382   3.739  11.438   3.683  0.0074  0.0854  0.0934
    1DPPC   C3A17383   3.791  11.220   4.043  0.3166 -0.1617  0.0028
    1DPPC   C4A17384   3.638  11.341   4.385  0.0033 -0.0900 -0.0612
    1DPPC   C1B17385   3.154  11.379   3.499  0.0697 -0.1534 -0.1349
    1DPPC   C2B17386   3.351  11.599   3.962  0.2700  0.1638  0.0925
    1DPPC   C3B17387   3.212  11.603   4.357  0.1264  0.1111  0.2088
    1DPPC   C4B17388   3.014  11.382   4.744 -0.3423 -0.2775 -0.0361
    1DPPC   NC317389   1.490  16.319   1.925  0.1916  0.1297  0.0910
    1DPPC   PO417390   1.283  16.738   2.035  0.0356 -0.0360 -0.2158
    1DPPC   GL117391   1.449  16.801   2.361 -0.1571 -0.2383  0.2087
    1DPPC   GL217392   1.435  17.116   2.455 -0.0529 -0.1814 -0.0188
    1DPPC   C1A17393   1.858  16.944   2.678  0.0077  0.2591  0.1300
    1DPPC   C2A17394   1.911  16.787   3.106 -0.1861 -0.1660  0.0350
    1DPPC   C3A17395   1.892  16.786   3.497 -0.1527  0.1157 -0.2885
    1DPPC   C4A17396   1.801  16.839   4.000 -0.1852  0.3726  0.0053
    1DPPC   C1B17397   1.442  17.081   2.961 -0.1845 -0.0299  0.2442
    1DPPC   C2B17398   1.513  17.078   3.340 -0.1562  0.2314  0.3789
    1DPPC   C3B17399   1.463  17.126   3.712 -0.0814 -0.0954  0.0642
    1DPPC   C4B17400   1.355  17.209   4.104  0.2519  0.0878  0.0507
    1DPPC   NC317401   0.964  15.633   1.980  0.0023 -0.3174 -0.0970
    1DPPC   PO417402   1.237  15.953   2.133 -0.1353  0.1475 -0.3071
    1DPPC   GL117403   1.017  15.910   2.509  0.0207 -0.3097  0.1987
    1DPPC   GL217404   0.725  16.042   2.376 -0.2397  0.3342  0.2551
    1DPPC   C1A17405   0.948  15.863   2.972 -0.0571 -0.1752  0.0901
    1DPPC   C2A17406   0.809  15.758   3.350 -0.1563 -0.3409  0.1173
    1DPPC   C3A17407   0.730  15.902   3.691  0.3038  0.0249 -0.1986
    1DPPC   C4A17408   0.404  16.189   3.901  0.2206 -0.1712 -0.0730
    1DPPC   C1B17409   0.565  16.130   2.797 -0.0222 -0.0084  0.1758
    1DPPC   C2B17410   0.459  16.055   3.132  0.0257  0.0173 -0.0478
    1DPPC   C3B17411   0.288  15.893   3.453  0.2252 -0.0350 -0.1945
    1DPPC   C4B17412   0.016  15.835   3.747  0.1090  0.1637  0.0947
    1DPPC   NC317413   3.263  20.567   2.262 -0.2255  0.2608  0.4026
    1DPPC   PO417414   3.369  20.090   2.219  0.2357  0.1966  0.2586
    1DPPC   GL117415   3.261  20.031   2.530  0.0890 -0.0072  0.0521
    1DPPC   GL217416   2.961  19.789   2.452  0.0028 -0.1341 -0.0965
    1DPPC   C1A17417   3.531  19.850   2.893 -0.2153  0.1804 -0.0835
    1DPPC   C2A17418   3.620  19.816   3.332  0.1269  0.0584 -0.2049
    1DPPC   C3A17419   3.648  19.794   3.728 -0.1076 -0.0142  0.2701
    1DPPC   C4A17420   3.528  19.723   4.111 -0.2079  0.0175  0.0754
    1DPPC   C1B17421   3.032  19.664   2.849 -0.2187  0.1722 -0.1237
    1DPPC   C2B17422   3.186  19.665   3.245 -0.0498  0.0365  0.2444
    1DPPC   C3B17423   3.070  19.604   3.733  0.0929 -0.0852 -0.0174
    1DPPC   C4B17424   3.018  19.531   4.205 -0.2055  0.0348  0.3881
    1DPPC   NC317425   8.797  24.394   2.448 -0.4040  0.0822  0.0382
    1DPPC   PO417426   8.595  24.688   2.762 -0.0355  0.1327  0.2553
    1DPPC   GL117427   8.727  24.626   3.080  0.1718 -0.2467 -0.0761
    1DPPC   GL217428   8.610  25.038   3.184  0.0335 -0.1431 -0.5326
    1DPPC   C1A17429   8.957  24.713   3.409  0.1063 -0.3121  0.0422
    1DPPC   C2A17430   8.917  24.655   3.805  0.0686  0.2700  0.0830
    1DPPC   C3A17431   8.912  24.669   4.211 -0.0292  0.0160 -0.2346
    1DPPC   C4A17432   8.928  24.440   4.561 -0.0619  0.0687  0.0325
    1DPPC   C1B17433   8.674  25.062   3.586 -0.0166  0.0159 -0.0432
    1DPPC   C2B17434   8.517  24.908   4.008  0.0151  0.1387 -0.1904
    1DPPC   C3B17435   8.635  25.010   4.467 -0.0282  0.2541  0.1322
    1DPPC   C4B17436   8.755  24.777   4.947 -0.0600 -0.2700  0.1132
    1DPPC   NC317437  27.575  10.630   2.043 -0.2218  0.1668  0.0431
    1DPPC   PO417438  27.774  10.870   2.487  0.2146 -0.1620  0.3002
    1DPPC   GL117439  28.036  11.084   2.865 -0.0009 -0.0653 -0.1837
    1DPPC   GL217440  28.366  11.058   2.864  0.0705  0.2024  0.4245
    1DPPC   C1A17441  27.912  11.310   3.288 -0.0544 -0.1055 -0.0786
    1DPPC   C2A17442  27.899  11.493   3.698 -0.1030 -0.0731 -0.0842
    1DPPC   C3A17443  28.168  11.686   4.112  0.3713  0.2022  0.1020
    1DPPC   C4A17444  28.408  11.794   4.462  0.2634  0.0254  0.1218
    1DPPC   C1B17445  28.393  11.316   3.311  0.0372 -0.1376 -0.0297
    1DPPC   C2B17446  28.446  11.392   3.703 -0.1234 -0.0045  0.0777
    1DPPC   C3B17447  28.635  11.578   4.055  0.0878  0.0490  0.0550
    1DPPC   C4B17448  28.911  11.616   4.383 -0.0295 -0.0910  0.0161
    1DPPC   NC317449   2.911  17.808   1.919 -0.5169 -0.3100  0.0570
    1DPPC   PO417450   2.716  17.539   2.015  0.1733  0.2215 -0.0822
    1DPPC   GL117451   2.435  17.514   2.350  0.2024  0.0758 -0.1555
    1DPPC   GL217452   2.417  17.711   2.570  0.2056 -0.0720 -0.2419
    1DPPC   C1A17453   2.381  17.036   2.584 -0.2112 -0.1736  0.1101
    1DPPC   C2A17454   2.358  16.946   2.957  0.2552  0.0325  0.0321
    1DPPC   C3A17455   2.371  16.884   3.414  0.3358 -0.0936  0.0879
    1DPPC   C4A17456   2.328  16.911   3.879  0.2409  0.0282 -0.1005
    1DPPC   C1B17457   2.544  17.391   2.884 -0.2981  0.0855  0.1162
    1DPPC   C2B17458   2.637  17.294   3.190  0.1868 -0.0253 -0.1598
    1DPPC   C3B17459   2.451  17.348   3.627 -0.0377  0.2074 -0.1312
    1DPPC   C4B17460   2.370  17.370   4.034 -0.0843  0.2945  0.2616
    1DPPC   NC317461  29.366  15.197   1.591  0.1713  0.2619 -0.0667
    1DPPC   PO417462  29.341  15.401   2.002  0.0864 -0.2158 -0.0752
    1DPPC   GL117463  29.213  15.591   2.330 -0.1467 -0.0186  0.0356
    1DPPC   GL217464  29.151  15.469   2.656 -0.0529 -0.2095 -0.0293
    1DPPC   C1A17465  28.915  15.841   2.576  0.3127 -0.1480  0.2956
    1DPPC   C2A17466  28.772  15.975   3.026  0.1964 -0.3145  0.3018
    1DPPC   C3A17467  28.454  16.023   3.388  0.1708  0.0364  0.1173
    1DPPC   C4A17468  28.136  16.231   3.568 -0.0120  0.0789  0.0481
    1DPPC   C1B17469  29.060  15.546   3.049 -0.1208  0.2163  0.2863
    1DPPC   C2B17470  28.790  15.531   3.278  0.0823 -0.1419  0.1281
    1DPPC   C3B17471  28.485  15.444   3.593 -0.4036  0.1194 -0.0170
    1DPPC   C4B17472  28.091  15.253   3.715 -0.0719 -0.2784 -0.2227
    1DPPC   NC317473  29.237  19.902   1.495  0.0106 -0.1500  0.0223
    1DPPC   PO417474  29.155  19.643   1.895  0.0580 -0.0834 -0.1982
    1DPPC   GL117475  28.885  19.761   2.339  0.0115  0.2218  0.0609
    1DPPC   GL217476  29.053  19.908   2.563 -0.1216 -0.1698 -0.0517
    1DPPC   C1A17477  28.571  19.834   2.422 -0.2029 -0.0790 -0.0015
    1DPPC   C2A17478  28.432  20.140   2.673  0.1724  0.0428  0.0152
    1DPPC   C3A17479  28.125  20.086   2.975  0.2685  0.1087  0.1320
    1DPPC   C4A17480  28.193  20.261   3.275  0.4000 -0.1519  0.0169
    1DPPC   C1B17481  28.782  19.894   2.886  0.2056 -0.0398  0.1255
    1DPPC   C2B17482  28.618  19.784   3.238 -0.2417  0.3133  0.0002
    1DPPC   C3B17483  28.421  19.934   3.643 -0.2317  0.0657 -0.0633
    1DPPC   C4B17484  28.268  20.336   3.925 -0.0736  0.2018 -0.2097
    1DPPC   NC317485  29.459  23.670   2.615  0.0437  0.1654  0.0038
    1DPPC   PO417486  29.586  23.248   2.414 -0.0149  0.1650  0.2210
    1DPPC   GL117487  29.507  23.141   2.837  0.2075  0.2134 -0.0715
    1DPPC   GL217488  29.743  22.909   2.978  0.1875 -0.3524  0.0835
    1DPPC   C1A17489  29.247  23.037   3.165  0.1936 -0.2261  0.0817
    1DPPC   C2A17490  29.420  22.871   3.598  0.1059 -0.0449  0.1348
    1DPPC   C3A17491  29.571  22.819   4.070 -0.0330  0.0060 -0.4144
    1DPPC   C4A17492  29.703  22.875   4.397 -0.0349  0.0207  0.0719
    1DPPC   C1B17493  29.672  22.500   3.293  0.0825 -0.2866  0.3657
    1DPPC   C2B17494  29.664  22.489   3.724 -0.0980  0.2991 -0.5384
    1DPPC   C3B17495  29.962  22.494   4.065 -0.2648  0.1555 -0.2142
    1DPPC   C4B17496  30.050  22.446   4.431 -0.0521 -0.1642  0.2051
    1DPPC   NC317497  12.305  29.467   3.628 -0.3183 -0.0975 -0.1031
    1DPPC   PO417498  12.718  29.566   3.494 -0.3002  0.3337 -0.0607
    1DPPC   GL117499  13.052  29.335   3.788  0.1456 -0.0738  0.0241
    1DPPC   GL217500  13.212  29.541   4.033  0.2412  0.1671 -0.1616
    1DPPC   C1A17501  13.124  29.068   4.181  0.1069  0.1721  0.0143
    1DPPC   C2A17502  13.278  28.614   4.141 -0.4447  0.2104 -0.2565
    1DPPC   C3A17503  13.427  28.306   4.449 -0.1181  0.0220  0.1342
    1DPPC   C4A17504  13.373  28.313   4.928 -0.0537 -0.0593 -0.2134
    1DPPC   C1B17505  13.271  29.685   4.396  0.2949  0.0846  0.1558
    1DPPC   C2B17506  13.267  30.079   4.708  0.1419  0.1873  0.2424
    1DPPC   C3B17507  13.301  30.219   5.057 -0.0945  0.0480 -0.1400
    1DPPC   C4B17508  13.165  30.433   5.498 -0.1432 -0.0488  0.2618
    1DPPC   NC317509   7.495  15.366   2.698  0.1400  0.0257  0.1789
    1DPPC   PO417510   7.179  15.007   2.900 -0.1559  0.0733 -0.1461
    1DPPC   GL117511   7.152  14.848   3.252 -0.1319 -0.0047  0.0393
    1DPPC   GL217512   7.134  14.493   3.443 -0.0006  0.0260  0.3340
    1DPPC   C1A17513   7.124  14.948   3.713  0.2458  0.4693 -0.0070
    1DPPC   C2A17514   7.125  14.914   4.085  0.0342 -0.0712 -0.3013
    1DPPC   C3A17515   6.882  14.981   4.401  0.0172  0.2925  0.1283
    1DPPC   C4A17516   6.598  14.917   4.668 -0.1676  0.1943 -0.0303
    1DPPC   C1B17517   7.016  14.444   3.823 -0.0857 -0.1524  0.0470
    1DPPC   C2B17518   6.854  14.467   4.348 -0.2429 -0.2203  0.2326
    1DPPC   C3B17519   7.059  14.627   4.804  0.2186  0.3365 -0.0940
    1DPPC   C4B17520   6.875  14.474   5.377  0.1345  0.0002  0.2302
    1DPPC   NC317521   1.341  24.586   2.294 -0.1444 -0.1729  0.3055
    1DPPC   PO417522   1.261  24.810   2.642 -0.3185 -0.0354  0.0146
    1DPPC   GL117523   1.344  24.786   3.077 -0.0227  0.3783 -0.0217
    1DPPC   GL217524   1.107  24.921   3.302  0.1936  0.3235 -0.0840
    1DPPC   C1A17525   1.529  24.700   3.458  0.0307 -0.2113 -0.2330
    1DPPC   C2A17526   1.741  24.807   3.837  0.1671  0.0695 -0.1115
    1DPPC   C3A17527   1.767  24.946   4.287 -0.0107 -0.0854 -0.0783
    1DPPC   C4A17528   1.746  25.168   4.668  0.1782 -0.1499 -0.0827
    1DPPC   C1B17529   0.846  24.963   3.687 -0.5039  0.0019 -0.0859
    1DPPC   C2B17530   0.540  24.898   4.016 -0.2738  0.0828  0.2906
    1DPPC   C3B17531   0.370  25.033   4.472 -0.2772  0.2900  0.0854
    1DPPC   C4B17532   0.072  25.265   4.759 -0.1168  0.1146  0.2685
    1DPPC   NC317533   7.445  21.276   2.518  0.1401  0.0992  0.2610
    1DPPC   PO417534   7.288  20.876   2.505  0.1297  0.0187  0.1999
    1DPPC   GL117535   7.104  20.774   2.891 -0.0957 -0.1246  0.1459
    1DPPC   GL217536   7.102  21.106   2.989 -0.1797  0.0161 -0.2000
    1DPPC   C1A17537   7.150  20.518   3.305  0.1217  0.0326 -0.1527
    1DPPC   C2A17538   7.120  20.408   3.742  0.1535  0.4506  0.1935
    1DPPC   C3A17539   7.095  20.301   4.144 -0.0013 -0.3281 -0.0839
    1DPPC   C4A17540   7.044  20.555   4.506  0.1223  0.3570 -0.1239
    1DPPC   C1B17541   7.299  21.056   3.375 -0.2293  0.0339  0.0862
    1DPPC   C2B17542   7.331  20.852   3.798 -0.0132 -0.2847 -0.0661
    1DPPC   C3B17543   7.416  20.931   4.103  0.2028  0.0618 -0.2398
    1DPPC   C4B17544   7.839  20.974   4.426 -0.0431 -0.0147 -0.0695
    1DPPC   NC317545   4.977  21.330   2.691 -0.0553  0.0562  0.0714
    1DPPC   PO417546   5.347  21.017   2.609  0.3271  0.1413  0.0240
    1DPPC   GL117547   5.549  20.911   3.033 -0.3723 -0.1567 -0.0709
    1DPPC   GL217548   5.453  20.679   3.178 -0.1011 -0.5015 -0.0808
    1DPPC   C1A17549   5.582  21.180   3.387 -0.0538 -0.0912 -0.0643
    1DPPC   C2A17550   5.702  21.158   3.839 -0.2107 -0.3256  0.2711
    1DPPC   C3A17551   5.570  21.163   4.149  0.0452 -0.0581  0.2011
    1DPPC   C4A17552   5.490  21.342   4.539 -0.3538 -0.1383  0.0727
    1DPPC   C1B17553   5.254  20.847   3.522 -0.0661 -0.0621  0.2843
    1DPPC   C2B17554   5.248  20.917   3.905  0.0896 -0.2042 -0.0735
    1DPPC   C3B17555   5.169  20.936   4.265  0.3542  0.0665  0.2291
    1DPPC   C4B17556   5.430  20.881   4.555  0.1713 -0.2101 -0.0098
    1DPPC   NC317557  23.730   3.438   3.283  0.2093  0.0983  0.2948
    1DPPC   PO417558  23.688   2.972   3.370 -0.1023  0.0428 -0.0736
    1DPPC   GL117559  23.633   3.062   3.871  0.1858 -0.1703 -0.0045
    1DPPC   GL217560  23.487   3.313   3.741 -0.0069  0.1163 -0.2895
    1DPPC   C1A17561  23.805   2.912   4.356 -0.2522  0.1413  0.0811
    1DPPC   C2A17562  23.883   3.127   4.681 -0.0820  0.0322 -0.0401
    1DPPC   C3A17563  23.761   3.242   5.111  0.1973 -0.0627 -0.2855
    1DPPC   C4A17564  23.602   3.499   5.446  0.1553 -0.3805 -0.0430
    1DPPC   C1B17565  23.580   3.534   4.071  0.1599 -0.2973 -0.0277
    1DPPC   C2B17566  23.561   3.582   4.490  0.0334  0.0787 -0.0314
    1DPPC   C3B17567  23.739   3.718   4.834 -0.1001 -0.0435  0.3256
    1DPPC   C4B17568  23.968   3.873   5.192 -0.1871  0.0804  0.4001
    1DPPC   NC317569   0.655  16.675   1.971 -0.0533 -0.1643 -0.1207
    1DPPC   PO417570   0.968  16.330   2.001 -0.0989  0.0344 -0.0701
    1DPPC   GL117571   1.076  16.418   2.383 -0.2813  0.0109 -0.0574
    1DPPC   GL217572   1.351  16.295   2.476  0.3480 -0.0506 -0.2668
    1DPPC   C1A17573   1.025  16.397   2.824  0.0543  0.0189 -0.2583
    1DPPC   C2A17574   0.879  16.331   3.291 -0.1543 -0.0334 -0.1535
    1DPPC   C3A17575   0.780  16.446   3.645  0.1593  0.0277 -0.2911
    1DPPC   C4A17576   0.891  16.346   4.018 -0.3113 -0.1197 -0.1528
    1DPPC   C1B17577   1.562  16.505   2.813 -0.1819 -0.1855 -0.0126
    1DPPC   C2B17578   1.501  16.545   3.292 -0.1799 -0.0048  0.1398
    1DPPC   C3B17579   1.270  16.592   3.548 -0.1124 -0.2174  0.1412
    1DPPC   C4B17580   1.329  16.506   3.964  0.1332 -0.1381 -0.1558
    1DPPC   NC317581  12.762  28.584   2.872 -0.1229 -0.0278 -0.2316
    1DPPC   PO417582  12.821  28.188   3.064 -0.0798 -0.1575  0.2418
    1DPPC   GL117583  12.672  28.118   3.485  0.1603 -0.0612  0.1681
    1DPPC   GL217584  12.371  28.218   3.707 -0.1531 -0.0482  0.0673
    1DPPC   C1A17585  12.795  27.844   3.790 -0.0986  0.0218  0.0039
    1DPPC   C2A17586  12.741  27.902   4.208  0.2018 -0.0292  0.3169
    1DPPC   C3A17587  12.939  28.191   4.592 -0.0060  0.0109 -0.0906
    1DPPC   C4A17588  13.150  27.865   4.853 -0.0977 -0.0796  0.0896
    1DPPC   C1B17589  12.586  28.371   4.077 -0.4280  0.1006 -0.3320
    1DPPC   C2B17590  12.762  28.705   4.270  0.2112  0.0268  0.1332
    1DPPC   C3B17591  13.069  28.772   4.585  0.1179  0.0912 -0.1186
    1DPPC   C4B17592  13.330  28.886   4.954  0.1835 -0.0904  0.1525
    1DPPC   NC317593  25.413  25.375   2.992 -0.0741  0.0619 -0.1481
    1DPPC   PO417594  25.562  25.674   2.772 -0.1300  0.1717 -0.1759
    1DPPC   GL117595  25.673  25.736   3.238  0.1179 -0.2155 -0.0245
    1DPPC   GL217596  25.676  25.506   3.487  0.1098  0.0189  0.0296
    1DPPC   C1A17597  25.591  25.859   3.762  0.0258 -0.1010  0.2247
    1DPPC   C2A17598  25.496  25.811   4.141 -0.1757 -0.0468 -0.3125
    1DPPC   C3A17599  25.479  25.440   4.363 -0.1011 -0.1041 -0.1269
    1DPPC   C4A17600  25.634  25.072   4.468  0.2891  0.1425  0.0353
    1DPPC   C1B17601  25.560  25.366   3.921  0.0561 -0.0910  0.1035
    1DPPC   C2B17602  25.794  25.009   3.984 -0.3085 -0.2286  0.1952
    1DPPC   C3B17603  25.837  24.670   4.170  0.0729  0.2270  0.1748
    1DPPC   C4B17604  26.025  24.483   4.607 -0.1992  0.1152 -0.0568
    1DPPC   NC317605  26.858  25.162   2.691  0.0357 -0.2457  0.0455
    1DPPC   PO417606  27.363  25.321   2.753 -0.0103  0.0952  0.2176
    1DPPC   GL117607  27.687  25.161   3.088 -0.0659 -0.1072  0.1257
    1DPPC   GL217608  27.508  24.906   3.056 -0.1411  0.0712 -0.2455
    1DPPC   C1A17609  27.913  24.861   3.294 -0.1798 -0.2575 -0.1624
    1DPPC   C2A17610  28.085  24.453   3.445 -0.0722  0.2097 -0.0831
    1DPPC   C3A17611  28.422  24.238   3.394 -0.1719 -0.1096 -0.0460
    1DPPC   C4A17612  28.555  24.140   3.778  0.0720 -0.1187 -0.0977
    1DPPC   C1B17613  27.414  24.911   3.555  0.2357 -0.1868  0.1255
    1DPPC   C2B17614  27.455  24.825   4.121  0.1636 -0.1025 -0.2154
    1DPPC   C3B17615  27.525  24.567   4.487 -0.3498  0.1222  0.2358
    1DPPC   C4B17616  27.787  24.257   4.736  0.0064  0.0425  0.1227
    1DPPC   NC317617   1.135  20.797   2.615  0.4101 -0.0417  0.1045
    1DPPC   PO417618   1.394  20.358   2.620  0.1699 -0.2239 -0.1540
    1DPPC   GL117619   1.497  20.402   2.950  0.2747 -0.0433  0.1067
    1DPPC   GL217620   1.689  20.567   2.911  0.1042 -0.0484  0.2361
    1DPPC   C1A17621   1.385  20.385   3.340 -0.0364 -0.0275  0.2808
    1DPPC   C2A17622   1.349  20.341   3.690 -0.1489 -0.2350  0.0112
    1DPPC   C3A17623   1.195  20.358   4.092  0.0526 -0.1798  0.0946
    1DPPC   C4A17624   1.339  20.290   4.500 -0.1877 -0.0309 -0.0667
    1DPPC   C1B17625   1.811  20.655   3.334 -0.3197  0.2360  0.1822
    1DPPC   C2B17626   1.783  20.637   3.793  0.4479  0.2459  0.1285
    1DPPC   C3B17627   1.653  20.623   4.202  0.1008 -0.2796 -0.1070
    1DPPC   C4B17628   1.706  20.531   4.684 -0.1734 -0.1613 -0.2647
    1DPPC   NC317629   6.397  14.678   2.203  0.0299  0.2496 -0.2891
    1DPPC   PO417630   6.375  14.683   2.731 -0.1062 -0.0863 -0.0023
    1DPPC   GL117631   6.420  14.965   2.985 -0.4702 -0.0015 -0.0777
    1DPPC   GL217632   6.701  15.107   3.078  0.1190 -0.1161 -0.1058
    1DPPC   C1A17633   6.296  15.278   3.403 -0.0444 -0.1400 -0.0332
    1DPPC   C2A17634   6.148  15.339   3.771  0.2861  0.0773 -0.0916
    1DPPC   C3A17635   5.973  15.445   4.146 -0.2614 -0.4544  0.1125
    1DPPC   C4A17636   5.793  15.426   4.479 -0.1046 -0.1190  0.4537
    1DPPC   C1B17637   6.829  15.249   3.471  0.0003 -0.4531  0.1177
    1DPPC   C2B17638   6.749  15.235   3.867  0.3367 -0.2712 -0.0697
    1DPPC   C3B17639   6.519  15.263   4.205  0.3437  0.1846 -0.0512
    1DPPC   C4B17640   6.185  15.134   4.545  0.0825  0.0434 -0.0718
    1DPPC   NC317641  28.914  15.587   1.929 -0.0636 -0.2089 -0.0380
    1DPPC   PO417642  28.812  16.022   1.803  0.1473  0.3036 -0.1307
    1DPPC   GL117643  28.620  16.017   2.139 -0.3122 -0.0302 -0.0684
    1DPPC   GL217644  28.428  15.855   2.094 -0.1799  0.0318 -0.1500
    1DPPC   C1A17645  28.477  16.016   2.539  0.1319  0.0965 -0.2978
    1DPPC   C2A17646  28.282  16.061   2.943 -0.1321  0.0726  0.1391
    1DPPC   C3A17647  27.900  16.067   3.085 -0.0243 -0.0600  0.2212
    1DPPC   C4A17648  27.658  16.225   3.267  0.0041  0.1293 -0.0753
    1DPPC   C1B17649  28.134  15.675   2.426 -0.0485  0.0670 -0.0367
    1DPPC   C2B17650  27.889  15.648   2.850 -0.2453  0.2916 -0.1838
    1DPPC   C3B17651  27.484  15.767   3.121 -0.0643 -0.0429  0.1575
    1DPPC   C4B17652  27.167  15.623   3.482 -0.1715  0.0976  0.0750
    1DPPC   NC317653   3.736  17.239   2.053  0.2371 -0.2305 -0.0012
    1DPPC   PO417654   3.759  17.709   2.181  0.0421  0.3059  0.2290
    1DPPC   GL117655   3.558  17.626   2.536 -0.1462 -0.0562 -0.1099
    1DPPC   GL217656   3.635  17.889   2.712  0.1083 -0.0070  0.0169
    1DPPC   C1A17657   3.308  17.348   2.862  0.2120  0.0181 -0.1953
    1DPPC   C2A17658   3.348  17.301   3.349 -0.0548 -0.2064  0.0318
    1DPPC   C3A17659   3.327  17.462   3.793  0.2766 -0.1828 -0.1111
    1DPPC   C4A17660   3.329  17.415   4.203  0.1500  0.1903  0.2834
    1DPPC   C1B17661   3.529  17.729   3.085 -0.0952  0.0880  0.0299
    1DPPC   C2B17662   3.694  17.606   3.517 -0.0771  0.1058  0.1446
    1DPPC   C3B17663   3.641  17.840   4.005 -0.1215 -0.0741  0.2616
    1DPPC   C4B17664   3.418  18.247   4.177  0.1634 -0.0183 -0.1745
    1DPPC   NC317665   3.473  15.339   2.243  0.0729 -0.1008 -0.0624
    1DPPC   PO417666   3.244  15.010   2.267  0.1123  0.0350 -0.2413
    1DPPC   GL117667   3.314  14.909   2.749  0.1486 -0.2569 -0.3196
    1DPPC   GL217668   3.214  14.653   2.874  0.0636  0.1302 -0.0497
    1DPPC   C1A17669   3.140  15.082   3.087 -0.3350 -0.0144 -0.3066
    1DPPC   C2A17670   3.033  15.153   3.413 -0.1803 -0.0638 -0.1901
    1DPPC   C3A17671   3.094  15.269   3.851  0.1505  0.1951 -0.1365
    1DPPC   C4A17672   2.939  15.373   4.196 -0.3181 -0.4130  0.2720
    1DPPC   C1B17673   3.135  14.674   3.392  0.1587  0.2809  0.0610
    1DPPC   C2B17674   3.179  14.710   3.810 -0.3805  0.2649  0.1202
    1DPPC   C3B17675   3.176  14.789   4.242 -0.2713 -0.3826 -0.0017
    1DPPC   C4B17676   3.394  14.780   4.562 -0.0915  0.0190  0.2204
    1DPPC   NC317677   2.764  22.559   2.333 -0.2963 -0.1676 -0.1826
    1DPPC   PO417678   2.878  22.173   2.527 -0.0315 -0.2142  0.2014
    1DPPC   GL117679   2.976  21.983   2.992  0.1207  0.1993  0.1902
    1DPPC   GL217680   3.248  21.879   3.104 -0.0814  0.0289  0.2433
    1DPPC   C1A17681   2.910  21.909   3.495  0.0058  0.0053 -0.2702
    1DPPC   C2A17682   2.878  21.854   3.883  0.0520 -0.0115  0.0535
    1DPPC   C3A17683   2.731  21.809   4.250 -0.1344 -0.3250 -0.2714
    1DPPC   C4A17684   2.721  21.642   4.562 -0.2569 -0.1951 -0.1180
    1DPPC   C1B17685   3.417  21.792   3.535  0.1044 -0.1972 -0.1300
    1DPPC   C2B17686   3.375  21.719   3.936 -0.0515 -0.2626 -0.2025
    1DPPC   C3B17687   3.201  21.510   4.369 -0.0193  0.2791  0.0259
    1DPPC   C4B17688   3.016  21.296   4.739  0.0601 -0.1083 -0.2327
    1DPPC   NC317689   9.380  11.028   3.028 -0.0824 -0.2207  0.1318
    1DPPC   PO417690   9.664  10.687   2.991 -0.1633  0.0298 -0.1959
    1DPPC   GL117691   9.535  10.653   3.399 -0.0426 -0.0268 -0.4160
    1DPPC   GL217692   9.844  10.405   3.480 -0.1631 -0.0450 -0.2723
    1DPPC   C1A17693   9.325  10.734   3.733 -0.1059  0.0872  0.3082
    1DPPC   C2A17694   9.095  10.686   4.109  0.1333  0.1563 -0.1158
    1DPPC   C3A17695   8.894  10.775   4.478 -0.3747  0.2668 -0.3061
    1DPPC   C4A17696   8.749  10.889   4.942  0.0168 -0.0158  0.3461
    1DPPC   C1B17697   9.630  10.351   3.773 -0.0959 -0.0652 -0.0463
    1DPPC   C2B17698   9.500  10.440   4.099  0.1670  0.0121 -0.0604
    1DPPC   C3B17699   9.304  10.425   4.543  0.0544 -0.1846 -0.0033
    1DPPC   C4B17700   9.227  10.629   4.936  0.2927  0.1100 -0.0453
    1DPPC   NC317701  13.677  20.592   2.519  0.1723 -0.1431 -0.1144
    1DPPC   PO417702  13.487  20.151   2.602  0.2269 -0.0034 -0.2937
    1DPPC   GL117703  13.364  20.178   3.062  0.0142  0.2924  0.1608
    1DPPC   GL217704  13.472  20.286   3.246 -0.1454  0.0082  0.2444
    1DPPC   C1A17705  12.998  20.332   3.425 -0.0078  0.0012 -0.0515
    1DPPC   C2A17706  12.883  20.446   3.881 -0.1323  0.1045  0.2605
    1DPPC   C3A17707  12.780  20.461   4.301  0.0614  0.0550 -0.3037
    1DPPC   C4A17708  12.846  20.447   4.679 -0.0399  0.1106  0.2459
    1DPPC   C1B17709  13.468  20.209   3.626 -0.0734 -0.1409  0.1379
    1DPPC   C2B17710  13.348  20.279   4.010  0.1752 -0.1560 -0.1853
    1DPPC   C3B17711  13.355  20.328   4.410 -0.0190  0.0880 -0.1886
    1DPPC   C4B17712  13.287  20.482   4.887 -0.3922  0.1921 -0.1190
    1DPPC   NC317713   4.099  11.215   2.346 -0.0356 -0.0147 -0.2493
    1DPPC   PO417714   3.775  11.078   2.476 -0.1010  0.1607 -0.3267
    1DPPC   GL117715   3.938  11.128   2.874 -0.0492  0.2213 -0.2494
    1DPPC   GL217716   4.342  11.144   2.985  0.2123  0.1761 -0.1275
    1DPPC   C1A17717   3.804  11.013   3.207 -0.0906  0.2218 -0.0550
    1DPPC   C2A17718   3.814  10.849   3.639 -0.1791 -0.1250  0.0183
    1DPPC   C3A17719   3.647  10.720   3.984 -0.1766  0.1917 -0.3335
    1DPPC   C4A17720   3.179  10.578   4.157  0.0719 -0.0743 -0.3287
    1DPPC   C1B17721   4.263  10.949   3.396 -0.0159 -0.0575  0.2182
    1DPPC   C2B17722   4.328  10.796   3.829 -0.1039  0.1202 -0.0733
    1DPPC   C3B17723   4.143  10.889   4.183 -0.1284  0.0332  0.0828
    1DPPC   C4B17724   3.997  10.945   4.470  0.1694  0.0432  0.1457
    1DPPC   NC317725   8.838  15.207   2.588 -0.0685 -0.0955 -0.2130
    1DPPC   PO417726   8.458  14.976   2.644 -0.2586  0.1359 -0.1702
    1DPPC   GL117727   8.475  14.817   3.069 -0.0982 -0.0560 -0.3537
    1DPPC   GL217728   8.220  14.912   3.202  0.0639  0.1281 -0.1323
    1DPPC   C1A17729   8.662  14.641   3.327  0.0720 -0.1715  0.0902
    1DPPC   C2A17730   8.785  14.633   3.777  0.2547 -0.2767 -0.0749
    1DPPC   C3A17731   8.814  14.668   4.171 -0.0062  0.0045 -0.3476
    1DPPC   C4A17732   9.022  14.830   4.536  0.0033 -0.0187 -0.1321
    1DPPC   C1B17733   8.237  14.869   3.715 -0.0989 -0.0158 -0.2404
    1DPPC   C2B17734   8.356  14.902   4.059  0.4501 -0.0747  0.1653
    1DPPC   C3B17735   8.217  14.598   4.360  0.0782 -0.0164 -0.0815
    1DPPC   C4B17736   8.001  14.568   4.721  0.1040  0.0870 -0.0413
    1DPPC   NC317737   0.184  13.251   1.985 -0.3899 -0.1339 -0.2004
    1DPPC   PO417738  -0.026  13.602   2.143  0.1952 -0.2833  0.1553
    1DPPC   GL117739   0.165  13.802   2.549  0.2936 -0.0718  0.0481
    1DPPC   GL217740   0.400  13.744   2.708  0.2240  0.1866  0.1420
    1DPPC   C1A17741  -0.025  13.898   2.969  0.0453 -0.0994 -0.1280
    1DPPC   C2A17742  -0.091  13.981   3.413 -0.2066  0.0519 -0.0361
    1DPPC   C3A17743  -0.075  14.268   3.842 -0.0363 -0.0191  0.2397
    1DPPC   C4A17744   0.026  14.355   4.260 -0.0739  0.2667 -0.4298
    1DPPC   C1B17745   0.334  13.612   3.189  0.2810 -0.4170 -0.2969
    1DPPC   C2B17746   0.283  13.727   3.690  0.1306  0.1401 -0.0305
    1DPPC   C3B17747   0.374  13.832   4.219  0.0917  0.0033  0.0635
    1DPPC   C4B17748   0.360  14.144   4.618  0.0317  0.0443  0.0269
    1DPPC   NC317749  15.798  25.792   2.988 -0.2811  0.2070 -0.2462
    1DPPC   PO417750  16.223  26.010   2.912 -0.0374  0.2917  0.1547
    1DPPC   GL117751  16.189  25.926   3.272  0.0429  0.1274 -0.1921
    1DPPC   GL217752  16.175  25.540   3.241 -0.2339 -0.1477 -0.2757
    1DPPC   C1A17753  16.194  25.785   3.683  0.3931  0.0205  0.3357
    1DPPC   C2A17754  16.125  25.841   4.032 -0.1359  0.2211 -0.1409
    1DPPC   C3A17755  16.094  26.108   4.366 -0.0115 -0.1002  0.0330
    1DPPC   C4A17756  16.219  26.525   4.559 -0.3159  0.1391 -0.4132
    1DPPC   C1B17757  16.064  25.288   3.579  0.1074 -0.1716  0.2500
    1DPPC   C2B17758  16.234  25.280   3.834  0.3092  0.2581 -0.0712
    1DPPC   C3B17759  16.380  25.143   4.228 -0.0555 -0.1657 -0.0708
    1DPPC   C4B17760  16.172  24.838   4.455 -0.1372  0.3089 -0.0613
    1DPPC   NC317761  12.182   2.528   3.520  0.1317  0.1031  0.0777
    1DPPC   PO417762  12.601   2.335   3.294  0.0616 -0.0809 -0.0497
    1DPPC   GL117763  12.810   2.316   3.665 -0.0599  0.0236 -0.2240
    1DPPC   GL217764  12.923   2.708   3.751  0.1192  0.1224 -0.1290
    1DPPC   C1A17765  12.857   2.398   4.134 -0.0442 -0.0668 -0.0562
    1DPPC   C2A17766  12.900   2.776   4.350 -0.3177  0.0948  0.2977
    1DPPC   C3A17767  13.313   3.019   4.331  0.1700 -0.3534  0.0083
    1DPPC   C4A17768  13.589   3.101   4.663  0.0088  0.0179 -0.1143
    1DPPC   C1B17769  13.359   2.985   3.832  0.2036  0.2130 -0.1534
    1DPPC   C2B17770  13.773   3.096   3.942 -0.0556  0.1603  0.0355
    1DPPC   C3B17771  14.028   3.469   3.918  0.2599 -0.3786 -0.1961
    1DPPC   C4B17772  13.904   3.969   3.926  0.0818  0.3096 -0.1703
    1DPPC   NC317773   2.723  14.145   1.911 -0.0754  0.0074  0.1283
    1DPPC   PO417774   2.801  13.975   2.383  0.0032  0.1397  0.2408
    1DPPC   GL117775   2.754  14.283   2.815  0.0369 -0.0081  0.2192
    1DPPC   GL217776   2.376  14.227   2.789  0.3571 -0.2411 -0.2465
    1DPPC   C1A17777   2.814  14.197   3.229 -0.0221 -0.2920  0.0127
    1DPPC   C2A17778   2.872  14.311   3.682  0.0085  0.3861  0.3412
    1DPPC   C3A17779   2.816  14.489   4.087  0.0885  0.1979  0.1515
    1DPPC   C4A17780   2.926  14.392   4.501 -0.4589 -0.0048  0.1451
    1DPPC   C1B17781   2.324  14.274   3.236 -0.0257 -0.4413  0.1450
    1DPPC   C2B17782   2.295  14.311   3.631 -0.0159 -0.1087  0.1343
    1DPPC   C3B17783   2.329  14.511   4.032 -0.1143 -0.0961 -0.1373
    1DPPC   C4B17784   2.398  14.452   4.443  0.1680 -0.1299  0.0025
    1DPPC   NC317785   9.721  13.879   2.700  0.2146 -0.0918  0.2124
    1DPPC   PO417786  10.145  13.733   2.778  0.0882  0.1157 -0.2713
    1DPPC   GL117787   9.981  13.930   3.162  0.1219 -0.1864 -0.1925
    1DPPC   GL217788   9.855  14.275   3.040  0.1434  0.0410 -0.0133
    1DPPC   C1A17789   9.952  14.088   3.548 -0.2115  0.0671  0.1354
    1DPPC   C2A17790  10.011  14.110   3.907 -0.2405 -0.0636 -0.0426
    1DPPC   C3A17791  10.095  14.056   4.298 -0.5547 -0.1166 -0.0020
    1DPPC   C4A17792  10.161  14.318   4.618  0.0143  0.1084 -0.0737
    1DPPC   C1B17793   9.847  14.567   3.363  0.0502 -0.0607 -0.0958
    1DPPC   C2B17794   9.827  14.592   3.822  0.2188 -0.1298 -0.3400
    1DPPC   C3B17795  10.117  14.553   4.137  0.4836 -0.1970 -0.1723
    1DPPC   C4B17796  10.475  14.822   4.342 -0.1926 -0.1992  0.0933
    1DPPC   NC317797  27.148  18.270   1.402 -0.2843  0.3802 -0.0033
    1DPPC   PO417798  27.105  18.485   1.741 -0.0610  0.4645 -0.1869
    1DPPC   GL117799  27.002  18.496   2.169 -0.1631 -0.1111 -0.1565
    1DPPC   GL217800  27.027  18.765   2.310 -0.0034 -0.0062 -0.4943
    1DPPC   C1A17801  27.005  18.194   2.436 -0.0047 -0.1144 -0.1905
    1DPPC   C2A17802  27.182  17.921   2.830  0.2341  0.0862  0.2540
    1DPPC   C3A17803  27.028  17.601   3.099 -0.0953 -0.1390  0.0190
    1DPPC   C4A17804  27.317  17.408   3.355 -0.1789 -0.1032  0.0689
    1DPPC   C1B17805  26.868  18.675   2.642 -0.3382  0.0621  0.0629
    1DPPC   C2B17806  26.868  18.314   2.915 -0.2719 -0.1434 -0.0429
    1DPPC   C3B17807  26.540  18.332   3.325 -0.4572  0.1732  0.0608
    1DPPC   C4B17808  26.229  18.561   3.501 -0.0966 -0.1819 -0.0085
    1DPPC   NC317809  28.031   5.712   2.681  0.0824 -0.2542  0.1597
    1DPPC   PO417810  27.644   5.437   2.863 -0.1636  0.2041  0.4539
    1DPPC   GL117811  27.975   5.437   3.136 -0.1365  0.0963  0.1144
    1DPPC   GL217812  27.840   5.832   3.135 -0.0133  0.0518 -0.2797
    1DPPC   C1A17813  28.365   5.568   3.366  0.1020  0.3793  0.1592
    1DPPC   C2A17814  28.369   5.495   3.750  0.3022 -0.1247  0.2618
    1DPPC   C3A17815  28.028   5.428   4.111 -0.1775  0.0550 -0.0852
    1DPPC   C4A17816  27.886   5.566   4.523 -0.0551 -0.1619  0.1210
    1DPPC   C1B17817  27.719   5.888   3.572  0.0353 -0.2506 -0.0051
    1DPPC   C2B17818  27.686   5.834   4.024  0.0435  0.0121 -0.0980
    1DPPC   C3B17819  27.621   6.031   4.413 -0.0621  0.1589  0.2445
    1DPPC   C4B17820  27.812   6.199   4.701  0.1044 -0.4211 -0.0200
    1DPPC   NC317821  26.901   9.245   2.117  0.2697 -0.3423  0.1551
    1DPPC   PO417822  26.808   9.542   2.432  0.0809 -0.0059 -0.1871
    1DPPC   GL117823  26.801   9.543   2.857  0.1236  0.2937  0.2105
    1DPPC   GL217824  27.042   9.757   2.900  0.1512 -0.2784  0.0929
    1DPPC   C1A17825  26.815   9.426   3.378 -0.1442 -0.0650  0.2754
    1DPPC   C2A17826  26.911   9.069   3.657 -0.1002 -0.1471  0.0663
    1DPPC   C3A17827  26.933   8.889   4.051  0.1853 -0.0569 -0.1522
    1DPPC   C4A17828  27.151   8.882   4.395  0.1403 -0.1141  0.1185
    1DPPC   C1B17829  27.306   9.864   3.249 -0.0122  0.2947 -0.0517
    1DPPC   C2B17830  27.504  10.081   3.589  0.2112  0.0106 -0.1238
    1DPPC   C3B17831  27.610  10.146   3.956 -0.0216 -0.0425  0.2302
    1DPPC   C4B17832  27.830  10.353   4.378  0.1547 -0.0468  0.2577
    1DPPC   NC317833   3.479  22.915   2.981  0.0305 -0.1840  0.1808
    1DPPC   PO417834   3.948  22.971   3.114  0.1095  0.0570 -0.1038
    1DPPC   GL117835   4.289  22.723   3.320  0.3436  0.2220  0.2254
    1DPPC   GL217836   4.311  22.402   3.185 -0.1377 -0.1271 -0.2530
    1DPPC   C1A17837   4.663  22.792   3.527  0.0175  0.1914  0.4547
    1DPPC   C2A17838   5.030  22.760   3.850 -0.0384 -0.0438  0.1099
    1DPPC   C3A17839   5.174  22.800   4.232  0.3499  0.2799  0.0809
    1DPPC   C4A17840   5.009  22.850   4.590  0.1299 -0.0529 -0.2228
    1DPPC   C1B17841   4.164  22.333   3.608 -0.1178  0.1398  0.2397
    1DPPC   C2B17842   4.275  22.192   4.118 -0.1990  0.1527 -0.1980
    1DPPC   C3B17843   4.066  22.116   4.522 -0.0839  0.0490  0.1381
    1DPPC   C4B17844   4.184  22.392   4.883 -0.1144  0.2274 -0.2469
    1DPPC   NC317845   9.465  16.954   2.532  0.0455  0.2093 -0.3259
    1DPPC   PO417846   9.412  16.525   2.488  0.0208 -0.3331  0.2145
    1DPPC   GL117847   9.470  16.818   2.994  0.2296 -0.0344 -0.0262
    1DPPC   GL217848   9.457  16.578   3.197 -0.0386  0.0653  0.1616
    1DPPC   C1A17849   9.553  17.065   3.392 -0.1454 -0.3381 -0.0939
    1DPPC   C2A17850   9.585  17.025   3.842  0.0810  0.0670  0.0348
    1DPPC   C3A17851   9.550  17.062   4.297 -0.1358  0.3310  0.2437
    1DPPC   C4A17852   9.559  17.134   4.781  0.2251 -0.1298  0.1014
    1DPPC   C1B17853   9.401  16.619   3.605 -0.0392  0.0888 -0.0484
    1DPPC   C2B17854   9.378  16.600   3.989 -0.0012 -0.0435 -0.1799
    1DPPC   C3B17855   9.324  16.562   4.438  0.1973  0.3033 -0.0132
    1DPPC   C4B17856   9.639  16.596   4.829 -0.2515 -0.3117  0.2748
    1DPPC   NC317857   2.175  15.624   2.442 -0.0286 -0.2753  0.0514
    1DPPC   PO417858   1.857  15.468   2.287 -0.0195  0.3599 -0.0664
    1DPPC   GL117859   1.948  15.428   2.821 -0.2240 -0.2364 -0.1131
    1DPPC   GL217860   1.802  15.587   2.982  0.0730  0.1239 -0.1844
    1DPPC   C1A17861   2.197  15.231   3.162 -0.1387  0.2301  0.0333
    1DPPC   C2A17862   2.232  15.266   3.572 -0.0297  0.2493  0.0740
    1DPPC   C3A17863   2.028  15.306   3.958 -0.4129 -0.1085 -0.0493
    1DPPC   C4A17864   1.955  15.688   4.132  0.0655  0.0051 -0.2056
    1DPPC   C1B17865   1.681  15.580   3.373  0.1384  0.0103 -0.0223
    1DPPC   C2B17866   1.698  15.578   3.716  0.1570 -0.0247  0.1546
    1DPPC   C3B17867   1.382  15.543   3.968  0.1842  0.1629  0.0810
    1DPPC   C4B17868   1.267  15.420   4.380 -0.1500 -0.3725  0.4633
    1DPPC   NC317869   8.457  10.822   2.934  0.1516 -0.4404  0.1689
    1DPPC   PO417870   8.811  10.931   2.934  0.0109  0.1161 -0.2514
    1DPPC   GL117871   8.678  10.921   3.355  0.1394 -0.2139 -0.0317
    1DPPC   GL217872   8.651  11.252   3.404  0.3840  0.2931 -0.0450
    1DPPC   C1A17873   8.689  10.882   3.829 -0.1666 -0.0785 -0.2857
    1DPPC   C2A17874   8.437  10.940   4.262 -0.0979 -0.0805  0.0821
    1DPPC   C3A17875   8.454  10.591   4.604 -0.1335  0.2651  0.1021
    1DPPC   C4A17876   8.809  10.393   4.747 -0.1523  0.0118 -0.1408
    1DPPC   C1B17877   8.463  11.381   3.805 -0.2689 -0.1020 -0.5704
    1DPPC   C2B17878   8.351  11.510   4.152  0.3128 -0.0259  0.2578
    1DPPC   C3B17879   8.258  11.698   4.578 -0.0434  0.1992  0.3549
    1DPPC   C4B17880   8.213  11.720   4.951 -0.1116 -0.2273  0.1277
    1DPPC   NC317881   6.458  18.940   2.421  0.1572 -0.2774  0.1423
    1DPPC   PO417882   6.066  18.961   2.337  0.0601  0.2164 -0.0061
    1DPPC   GL117883   5.995  19.060   2.721 -0.1562  0.1224 -0.0283
    1DPPC   GL217884   6.193  19.272   2.807 -0.3034 -0.1226  0.1643
    1DPPC   C1A17885   5.924  18.903   3.149 -0.0452 -0.4357  0.0372
    1DPPC   C2A17886   5.833  18.744   3.569 -0.0292  0.0696 -0.3633
    1DPPC   C3A17887   5.752  18.754   3.953  0.0337 -0.1260 -0.2688
    1DPPC   C4A17888   5.826  18.650   4.435 -0.2035  0.1509  0.1770
    1DPPC   C1B17889   6.214  19.510   3.156  0.0819  0.1504  0.2478
    1DPPC   C2B17890   5.947  19.801   3.375 -0.0433  0.1270 -0.1178
    1DPPC   C3B17891   5.917  19.796   3.815 -0.2215 -0.0939  0.1121
    1DPPC   C4B17892   5.917  19.670   4.286  0.1301  0.1605  0.1732
    1DPPC   NC317893  27.781  10.459   2.737 -0.1019  0.0392  0.0841
    1DPPC   PO417894  27.447  10.450   2.485  0.1719 -0.1295 -0.2906
    1DPPC   GL117895  27.397  10.783   2.801 -0.1222 -0.0679  0.0356
    1DPPC   GL217896  27.133  10.794   2.953  0.0499  0.0999 -0.2864
    1DPPC   C1A17897  27.583  10.972   3.113  0.1753  0.3708 -0.0046
    1DPPC   C2A17898  27.463  11.159   3.538 -0.0906  0.0195 -0.1102
    1DPPC   C3A17899  27.480  11.235   4.000 -0.0037  0.3187 -0.0279
    1DPPC   C4A17900  27.814  11.397   4.378 -0.2588  0.1522 -0.1408
    1DPPC   C1B17901  27.128  10.863   3.318 -0.2201 -0.0683 -0.0486
    1DPPC   C2B17902  27.074  10.865   3.716  0.0131  0.0799  0.2821
    1DPPC   C3B17903  27.195  10.822   4.120 -0.2091 -0.0015 -0.3321
    1DPPC   C4B17904  27.194  10.599   4.631  0.0279 -0.2160  0.0558
    1DPPC   NC317905   2.041  15.051   2.496  0.2926  0.1994  0.0812
    1DPPC   PO417906   2.477  15.206   2.513 -0.0458  0.2184  0.2864
    1DPPC   GL117907   2.636  15.388   2.885 -0.0141 -0.0020 -0.0834
    1DPPC   GL217908   2.426  15.741   2.876 -0.1019 -0.0685  0.0474
    1DPPC   C1A17909   2.616  15.441   3.313  0.1499  0.0662 -0.0610
    1DPPC   C2A17910   2.627  15.441   3.798 -0.2461 -0.1233 -0.0024
    1DPPC   C3A17911   2.432  15.490   4.191  0.0047  0.1279 -0.2293
    1DPPC   C4A17912   2.075  15.312   4.434  0.1401 -0.1412  0.3439
    1DPPC   C1B17913   2.212  15.709   3.269 -0.1082  0.0183  0.0814
    1DPPC   C2B17914   2.234  15.731   3.728 -0.1010  0.4138  0.0215
    1DPPC   C3B17915   2.341  16.002   4.147 -0.1687  0.1396  0.2332
    1DPPC   C4B17916   2.505  16.444   4.196  0.0001 -0.0182  0.0152
    1DPPC   NC317917   3.304  10.858   2.403 -0.2181  0.0809  0.1073
    1DPPC   PO417918   3.000  10.628   2.556  0.2371 -0.2893  0.1069
    1DPPC   GL117919   2.952  10.592   2.948 -0.1401 -0.0410  0.0459
    1DPPC   GL217920   2.665  10.750   2.931  0.2224  0.2996  0.1931
    1DPPC   C1A17921   2.932  10.422   3.262 -0.1455 -0.0544 -0.0647
    1DPPC   C2A17922   2.815  10.480   3.694  0.0326  0.0614 -0.1400
    1DPPC   C3A17923   2.680  10.265   4.092 -0.0062  0.3660 -0.2447
    1DPPC   C4A17924   2.320  10.174   4.275 -0.0053  0.1109  0.0513
    1DPPC   C1B17925   2.705  10.865   3.374 -0.1691 -0.0383  0.0545
    1DPPC   C2B17926   2.720  10.982   3.779  0.0662 -0.0603 -0.0916
    1DPPC   C3B17927   2.650  10.791   4.116 -0.0436 -0.0317 -0.3090
    1DPPC   C4B17928   2.578  10.716   4.503  0.0018  0.0947  0.1192
    1DPPC   NC317929  26.768  12.288   2.015  0.0877  0.1346  0.2456
    1DPPC   PO417930  26.678  12.536   1.718 -0.2691 -0.0761  0.0133
    1DPPC   GL117931  26.462  12.712   1.914  0.2286  0.0089 -0.0192
    1DPPC   GL217932  26.283  12.475   2.059  0.1651  0.0858  0.0040
    1DPPC   C1A17933  26.313  12.989   2.274 -0.0759  0.0845  0.0320
    1DPPC   C2A17934  26.121  12.984   2.710  0.1535 -0.1311 -0.0925
    1DPPC   C3A17935  26.074  13.411   2.999  0.2018  0.0126 -0.2072
    1DPPC   C4A17936  25.849  13.637   3.340 -0.0302  0.0457  0.0420
    1DPPC   C1B17937  26.406  12.531   2.508  0.0051  0.0894 -0.2316
    1DPPC   C2B17938  26.483  12.564   2.957 -0.1489 -0.1112  0.1624
    1DPPC   C3B17939  26.360  12.710   3.351  0.0139 -0.1098 -0.0118
    1DPPC   C4B17940  26.319  12.632   3.756  0.0151 -0.1445 -0.0680
    1DPPC   NC317941   5.267  11.830   2.568  0.1665  0.2823 -0.0842
    1DPPC   PO417942   5.068  11.471   2.719  0.2828 -0.2747  0.5171
    1DPPC   GL117943   4.827  11.438   3.122 -0.2290 -0.2883  0.0247
    1DPPC   GL217944   4.623  11.588   3.057 -0.1774  0.1003 -0.1538
    1DPPC   C1A17945   4.650  11.234   3.423 -0.1030 -0.0944  0.1116
    1DPPC   C2A17946   4.664  11.207   3.852 -0.2922  0.0165 -0.2178
    1DPPC   C3A17947   4.605  11.032   4.220  0.0596 -0.0224 -0.1788
    1DPPC   C4A17948   4.453  10.931   4.604 -0.1220 -0.0527  0.0260
    1DPPC   C1B17949   4.527  11.794   3.359 -0.2775  0.0716 -0.2314
    1DPPC   C2B17950   4.508  11.726   3.804 -0.0851  0.1207  0.0378
    1DPPC   C3B17951   4.501  11.812   4.292 -0.2130 -0.1851 -0.1235
    1DPPC   C4B17952   4.601  11.993   4.725 -0.1676 -0.1940 -0.0019
    1DPPC   NC317953  10.106  12.603   2.497 -0.0998  0.0824  0.1497
    1DPPC   PO417954  10.364  12.885   2.595 -0.2697 -0.1248  0.2087
    1DPPC   GL117955  10.353  13.015   3.149  0.1007 -0.1977 -0.0751
    1DPPC   GL217956  10.573  13.189   3.354 -0.3062  0.0175  0.2013
    1DPPC   C1A17957  10.167  12.779   3.496  0.0038  0.1164 -0.1155
    1DPPC   C2A17958  10.129  12.690   3.902  0.1764 -0.1144  0.2163
    1DPPC   C3A17959  10.165  12.708   4.319 -0.2427  0.0004 -0.2711
    1DPPC   C4A17960   9.985  12.530   4.672 -0.0902  0.2608  0.0209
    1DPPC   C1B17961  10.480  13.071   3.783  0.4178 -0.0283  0.0049
    1DPPC   C2B17962  10.505  13.193   4.159 -0.1562  0.2649 -0.2091
    1DPPC   C3B17963  10.601  13.101   4.553 -0.2477 -0.0745  0.2555
    1DPPC   C4B17964  10.810  13.022   4.952  0.4899  0.2910 -0.0069
    1DPPC   NC317965  23.519  27.407   2.923 -0.3378 -0.0528 -0.1249
    1DPPC   PO417966  23.722  27.583   3.208 -0.1781 -0.2151  0.1472
    1DPPC   GL117967  23.882  27.404   3.611  0.0232 -0.0322 -0.0116
    1DPPC   GL217968  24.000  27.087   3.743  0.0286  0.1364  0.0738
    1DPPC   C1A17969  23.826  27.471   4.048 -0.0021  0.0385 -0.0059
    1DPPC   C2A17970  24.140  27.664   4.330  0.0305  0.3071 -0.0193
    1DPPC   C3A17971  24.021  27.831   4.734 -0.0347  0.2008 -0.1090
    1DPPC   C4A17972  23.936  27.863   5.233  0.2211 -0.0669 -0.2083
    1DPPC   C1B17973  23.996  27.022   4.158 -0.1050  0.0449  0.0367
    1DPPC   C2B17974  24.281  27.140   4.500 -0.0392 -0.0874  0.0905
    1DPPC   C3B17975  24.361  27.396   4.904 -0.0046  0.3635 -0.1215
    1DPPC   C4B17976  24.564  27.480   5.295  0.1870 -0.3652  0.0596
    1DPPC   NC317977   4.868  14.803   2.344 -0.3034 -0.0530 -0.0043
    1DPPC   PO417978   4.447  14.679   2.159  0.0483 -0.2014  0.0536
    1DPPC   GL117979   4.245  14.871   2.467  0.3952  0.1756  0.3173
    1DPPC   GL217980   4.234  14.775   2.748 -0.0369 -0.1594 -0.0626
    1DPPC   C1A17981   4.280  15.353   2.684  0.1705 -0.0798 -0.2695
    1DPPC   C2A17982   4.104  15.595   3.094 -0.1630  0.2569  0.1470
    1DPPC   C3A17983   4.118  15.730   3.576  0.0475 -0.0080  0.0526
    1DPPC   C4A17984   4.068  15.993   3.934  0.0666  0.0553 -0.2019
    1DPPC   C1B17985   4.103  15.042   3.015 -0.0453 -0.0985 -0.1878
    1DPPC   C2B17986   4.170  15.075   3.335  0.1510 -0.2304 -0.2950
    1DPPC   C3B17987   4.173  15.220   3.662 -0.2026 -0.4963 -0.0853
    1DPPC   C4B17988   4.015  15.409   3.988 -0.3877  0.2920  0.1862
    1DPPC   NC317989   7.863  16.101   2.629 -0.0370  0.3850  0.2968
    1DPPC   PO417990   7.889  15.684   2.496  0.1223  0.1017  0.1097
    1DPPC   GL117991   8.009  15.716   2.913  0.1077  0.3058  0.1125
    1DPPC   GL217992   8.236  15.897   2.998 -0.0032 -0.0673 -0.0582
    1DPPC   C1A17993   7.854  15.838   3.313 -0.1399 -0.2195  0.1557
    1DPPC   C2A17994   7.690  15.724   3.752  0.1365 -0.1682 -0.0121
    1DPPC   C3A17995   7.600  15.721   4.188 -0.1091 -0.0085  0.2260
    1DPPC   C4A17996   7.807  15.549   4.552 -0.2152  0.1471 -0.1905
    1DPPC   C1B17997   8.278  15.811   3.459 -0.2062 -0.0537 -0.0667
    1DPPC   C2B17998   8.171  15.834   3.867 -0.0793  0.1031 -0.0226
    1DPPC   C3B17999   8.105  15.856   4.274  0.0378  0.0000 -0.0349
    1DPPC   C4B18000   8.237  15.944   4.790 -0.1342 -0.0174  0.2318
    1DPPC   NC318001  19.623  22.262   2.729 -0.0607  0.1638 -0.2790
    1DPPC   PO418002  20.115  22.332   2.599  0.4455 -0.1690  0.1547
    1DPPC   GL118003  20.116  22.213   2.966 -0.1077 -0.0888  0.1260
    1DPPC   GL218004  19.972  22.357   3.231  0.0557 -0.2298  0.0442
    1DPPC   C1A18005  20.336  22.053   3.341 -0.0925  0.0983  0.2178
    1DPPC   C2A18006  20.561  21.878   3.784 -0.1161 -0.3023  0.1880
    1DPPC   C3A18007  20.970  22.026   3.992  0.4929  0.2617  0.2436
    1DPPC   C4A18008  21.408  22.201   3.720  0.0996  0.0210 -0.0545
    1DPPC   C1B18009  20.148  22.495   3.664  0.0048  0.2502  0.1692
    1DPPC   C2B18010  20.201  22.550   4.120 -0.0971 -0.1627 -0.0509
    1DPPC   C3B18011  20.264  22.726   4.408 -0.0623 -0.3330  0.2680
    1DPPC   C4B18012  20.504  23.054   4.610 -0.2850 -0.0672  0.0326
    1DPPC   NC318013  10.761  13.884   2.506 -0.1219  0.1037  0.2979
    1DPPC   PO418014  10.922  13.807   2.901 -0.0371 -0.0403  0.0205
    1DPPC   GL118015  10.883  14.169   3.151 -0.1756 -0.1540  0.0472
    1DPPC   GL218016  10.781  14.427   3.080 -0.2118 -0.1040 -0.0429
    1DPPC   C1A18017  10.659  14.117   3.465 -0.0961 -0.0364  0.3345
    1DPPC   C2A18018  10.534  14.135   3.903 -0.0345 -0.1188 -0.0877
    1DPPC   C3A18019  10.578  14.282   4.282  0.1278  0.0459  0.0214
    1DPPC   C4A18020  10.689  14.246   4.652  0.1731 -0.0209  0.1260
    1DPPC   C1B18021  10.910  14.528   3.537 -0.0458 -0.0498  0.0319
    1DPPC   C2B18022  11.002  14.682   3.930  0.0300  0.1751 -0.2902
    1DPPC   C3B18023  10.975  14.702   4.387 -0.0018 -0.0088  0.0448
    1DPPC   C4B18024  10.769  14.870   4.753  0.0636 -0.1653 -0.2037
    1DPPC   NC318025   5.221  22.733   2.894 -0.0528  0.1734 -0.0213
    1DPPC   PO418026   5.206  22.321   2.637  0.1384 -0.1270 -0.0018
    1DPPC   GL118027   5.270  22.227   3.036  0.0481 -0.0692  0.0495
    1DPPC   GL218028   5.143  22.365   3.245  0.1324  0.2290  0.2521
    1DPPC   C1A18029   5.592  22.173   3.418  0.1568  0.1291 -0.1330
    1DPPC   C2A18030   5.641  22.366   3.879  0.0083  0.2023 -0.2007
    1DPPC   C3A18031   5.492  22.418   4.309  0.1965 -0.1395  0.0343
    1DPPC   C4A18032   5.272  22.429   4.669  0.0119 -0.0037 -0.2228
    1DPPC   C1B18033   5.204  22.382   3.589  0.2656  0.3655 -0.0014
    1DPPC   C2B18034   5.191  22.203   3.928 -0.0330 -0.0078 -0.2245
    1DPPC   C3B18035   5.021  22.221   4.322  0.4076 -0.3235 -0.2586
    1DPPC   C4B18036   4.981  22.045   4.834  0.6358  0.0435  0.0667
    1DPPC   NC318037  28.269  17.638   1.534 -0.0615  0.0473 -0.0804
    1DPPC   PO418038  28.128  18.023   1.603 -0.1644  0.0435  0.1331
    1DPPC   GL118039  28.028  18.144   1.980 -0.0330  0.2314  0.1564
    1DPPC   GL218040  28.304  18.213   2.063 -0.1584 -0.1243  0.5741
    1DPPC   C1A18041  27.806  18.135   2.392  0.0825 -0.0127  0.1412
    1DPPC   C2A18042  27.709  18.136   2.855 -0.0011  0.2110 -0.2019
    1DPPC   C3A18043  27.458  18.078   3.210 -0.0457 -0.0437  0.2683
    1DPPC   C4A18044  27.063  18.006   3.337  0.1547 -0.1326  0.2279
    1DPPC   C1B18045  28.271  18.112   2.470 -0.0072 -0.1748 -0.0578
    1DPPC   C2B18046  28.235  17.999   2.853 -0.1935 -0.0592 -0.1435
    1DPPC   C3B18047  28.058  17.971   3.250 -0.0711  0.1185  0.2111
    1DPPC   C4B18048  28.039  17.998   3.698 -0.2838  0.1698  0.0050
    1DPPC   NC318049   4.189  21.592   2.624  0.0118 -0.1406 -0.0624
    1DPPC   PO418050   4.458  21.269   2.675  0.2088 -0.2547 -0.3474
    1DPPC   GL118051   4.653  21.347   3.128  0.1535 -0.2652 -0.1848
    1DPPC   GL218052   5.017  21.394   3.248 -0.0555 -0.3061  0.0633
    1DPPC   C1A18053   4.665  21.372   3.623  0.1539  0.2988  0.0865
    1DPPC   C2A18054   4.658  21.294   4.101 -0.0014 -0.0637  0.1450
    1DPPC   C3A18055   4.751  21.117   4.501 -0.2070 -0.0495  0.0651
    1DPPC   C4A18056   4.981  20.774   4.767  0.2248  0.1305 -0.0537
    1DPPC   C1B18057   5.121  21.343   3.645 -0.3875  0.1730  0.0923
    1DPPC   C2B18058   5.120  21.383   4.071 -0.0521 -0.1122  0.3499
    1DPPC   C3B18059   5.033  21.527   4.520 -0.1025 -0.3682 -0.1946
    1DPPC   C4B18060   5.271  21.646   4.869  0.1856  0.1757 -0.2329
    1DPPC   NC318061   8.278  16.741   1.985  0.3442 -0.1527  0.0778
    1DPPC   PO418062   8.159  16.965   2.414  0.1601 -0.0321  0.0241
    1DPPC   GL118063   8.343  16.906   2.873  0.1448 -0.3270  0.0594
    1DPPC   GL218064   8.127  16.750   3.081 -0.1762 -0.0148 -0.2897
    1DPPC   C1A18065   8.586  16.783   3.151 -0.1039 -0.0973  0.0864
    1DPPC   C2A18066   8.634  16.736   3.595 -0.0522 -0.0064  0.0044
    1DPPC   C3A18067   8.584  16.891   4.008  0.1002  0.1953  0.0921
    1DPPC   C4A18068   8.420  16.903   4.367 -0.3750  0.1950 -0.2962
    1DPPC   C1B18069   8.153  16.737   3.453  0.2327  0.1918  0.3190
    1DPPC   C2B18070   8.110  16.739   3.892 -0.0518  0.1868 -0.0940
    1DPPC   C3B18071   7.967  16.888   4.259  0.4174  0.3702  0.0336
    1DPPC   C4B18072   7.735  17.076   4.633  0.3577 -0.2133  0.1294
    1DPPC   NC318073   1.598  13.609   2.596 -0.2195  0.4284 -0.1336
    1DPPC   PO418074   1.271  13.425   2.484 -0.2052  0.0993 -0.0490
    1DPPC   GL118075   1.087  13.555   2.824  0.0249 -0.3083 -0.2341
    1DPPC   GL218076   0.893  13.840   2.737 -0.0108 -0.2516 -0.2552
    1DPPC   C1A18077   0.988  13.337   3.105 -0.1947  0.0380  0.0352
    1DPPC   C2A18078   0.755  13.384   3.368  0.1108 -0.0085 -0.3069
    1DPPC   C3A18079   0.663  13.251   3.768 -0.2463  0.0117  0.2881
    1DPPC   C4A18080   0.877  13.181   4.099  0.2698 -0.2385  0.1344
    1DPPC   C1B18081   0.763  13.848   3.126  0.2325 -0.1186  0.0507
    1DPPC   C2B18082   0.808  14.028   3.365 -0.0219  0.0296  0.3391
    1DPPC   C3B18083   0.756  13.861   3.846  0.0101 -0.2373 -0.1635
    1DPPC   C4B18084   0.885  13.877   4.214 -0.2559  0.0250 -0.3073
    1DPPC   NC318085   4.966  19.230   2.309 -0.2410 -0.2093  0.1797
    1DPPC   PO418086   4.881  19.682   2.515 -0.1569 -0.0285 -0.0467
    1DPPC   GL118087   4.809  19.413   2.796  0.1910 -0.2776  0.0144
    1DPPC   GL218088   4.633  19.137   2.699 -0.0662  0.0851  0.1461
    1DPPC   C1A18089   4.968  19.307   3.288 -0.1676  0.1201  0.1157
    1DPPC   C2A18090   4.930  19.238   3.686  0.2076  0.1365 -0.0472
    1DPPC   C3A18091   4.889  19.461   4.078 -0.1060  0.1152 -0.1330
    1DPPC   C4A18092   4.732  19.362   4.433  0.0042  0.1623  0.0801
    1DPPC   C1B18093   4.347  19.151   2.996 -0.0993 -0.0113 -0.2830
    1DPPC   C2B18094   4.352  19.035   3.512  0.1370  0.0780  0.0779
    1DPPC   C3B18095   4.460  19.190   3.998 -0.1041 -0.4751  0.0312
    1DPPC   C4B18096   4.467  18.889   4.340  0.2471 -0.1282  0.1720
    1DPPC   NC318097   8.868  18.535   2.100 -0.4464 -0.1669 -0.2502
    1DPPC   PO418098   8.504  18.441   2.406  0.1303  0.0853  0.0570
    1DPPC   GL118099   8.280  18.456   2.614  0.0445  0.2197 -0.2016
    1DPPC   GL218100   8.069  18.773   2.734 -0.0470 -0.0275 -0.1583
    1DPPC   C1A18101   8.330  18.533   3.027 -0.1859 -0.0121 -0.0661
    1DPPC   C2A18102   8.315  18.608   3.455  0.2768 -0.3307 -0.3818
    1DPPC   C3A18103   8.353  18.629   3.853  0.1410  0.0816  0.0944
    1DPPC   C4A18104   8.563  18.818   4.321  0.0423 -0.1545 -0.0479
    1DPPC   C1B18105   7.835  18.772   3.113  0.1075  0.1709 -0.0432
    1DPPC   C2B18106   7.780  18.895   3.606  0.0162  0.1719  0.2270
    1DPPC   C3B18107   7.911  18.924   4.024 -0.1244 -0.1031 -0.1122
    1DPPC   C4B18108   7.894  19.148   4.439  0.0982  0.3996 -0.2918
    1DPPC   NC318109   0.976  12.153   2.075  0.0788  0.0324 -0.1964
    1DPPC   PO418110   0.531  12.044   2.325  0.4623 -0.2296  0.0238
    1DPPC   GL118111   0.436  12.172   2.736 -0.1491 -0.2923  0.1012
    1DPPC   GL218112   0.205  11.972   2.935 -0.1706 -0.1163  0.2677
    1DPPC   C1A18113   0.768  12.253   3.033  0.3051  0.0637 -0.0658
    1DPPC   C2A18114   0.936  12.179   3.451  0.0024 -0.1520  0.4493
    1DPPC   C3A18115   0.857  12.147   3.825 -0.0339 -0.1289  0.0675
    1DPPC   C4A18116   0.606  12.095   4.125 -0.0619  0.0271 -0.0027
    1DPPC   C1B18117   0.280  12.150   3.284 -0.1512 -0.0848  0.3220
    1DPPC   C2B18118   0.207  12.253   3.674 -0.1617 -0.0656  0.2819
    1DPPC   C3B18119   0.158  12.377   4.088 -0.0522 -0.1173 -0.0091
    1DPPC   C4B18120   0.078  12.490   4.466 -0.0209  0.1442  0.2677
    1DPPC   NC318121   4.099  23.656   3.341 -0.0494 -0.0763  0.0406
    1DPPC   PO418122   3.612  23.361   3.291  0.0097 -0.0268  0.0431
    1DPPC   GL118123   3.253  23.196   3.423 -0.1185  0.2110  0.0699
    1DPPC   GL218124   3.194  22.911   3.441 -0.0461 -0.1995  0.0598
    1DPPC   C1A18125   3.105  23.188   3.930  0.0273  0.1194 -0.1603
    1DPPC   C2A18126   2.880  23.200   4.333 -0.1488  0.1625 -0.2630
    1DPPC   C3A18127   2.733  23.583   4.633  0.1028 -0.0628  0.1247
    1DPPC   C4A18128   2.633  23.821   4.461 -0.1900 -0.0603  0.0729
    1DPPC   C1B18129   3.181  22.740   3.828 -0.2381 -0.0080 -0.0209
    1DPPC   C2B18130   3.106  22.674   4.275  0.1203  0.0369  0.0891
    1DPPC   C3B18131   3.144  22.699   4.612 -0.0369  0.1576  0.0640
    1DPPC   C4B18132   3.257  22.631   5.041 -0.0775 -0.3269 -0.1458
    1DPPC   NC318133   7.554  18.174   2.239 -0.2979  0.1088  0.4292
    1DPPC   PO418134   7.666  18.584   2.432 -0.0163  0.0565 -0.0098
    1DPPC   GL118135   7.746  18.332   2.829 -0.0829 -0.1061 -0.1918
    1DPPC   GL218136   7.571  18.077   2.922  0.3071 -0.0326  0.2723
    1DPPC   C1A18137   7.921  18.304   3.369 -0.1219 -0.2495  0.0361
    1DPPC   C2A18138   7.938  18.449   3.759 -0.2490  0.1602  0.1349
    1DPPC   C3A18139   8.042  18.377   4.156  0.0223  0.1621 -0.2490
    1DPPC   C4A18140   8.125  18.652   4.368  0.2714  0.0204 -0.1371
    1DPPC   C1B18141   7.525  18.007   3.343  0.1866  0.0643 -0.3985
    1DPPC   C2B18142   7.410  18.092   3.688  0.0831 -0.3448  0.0138
    1DPPC   C3B18143   7.553  18.140   4.069  0.1642 -0.0956 -0.2187
    1DPPC   C4B18144   7.577  18.623   4.294 -0.3107 -0.1128  0.1022
    1DPPC   NC318145   0.152  14.350   2.416  0.1437 -0.0204  0.0719
    1DPPC   PO418146   0.555  14.599   2.157 -0.3177 -0.0382 -0.1255
    1DPPC   GL118147   0.525  14.549   2.625 -0.0772  0.1017 -0.1880
    1DPPC   GL218148   0.425  14.182   2.883 -0.0236  0.2710  0.0610
    1DPPC   C1A18149   0.194  14.601   2.975  0.1865 -0.1504 -0.0254
    1DPPC   C2A18150   0.021  14.539   3.320 -0.1523  0.0968  0.0088
    1DPPC   C3A18151   0.118  14.702   3.740 -0.1698  0.1482  0.1010
    1DPPC   C4A18152   0.159  14.936   4.153 -0.2215 -0.0653  0.2331
    1DPPC   C1B18153   0.346  14.116   3.326  0.0214 -0.1111  0.0214
    1DPPC   C2B18154   0.412  14.278   3.635  0.0048  0.0065  0.1280
    1DPPC   C3B18155   0.503  14.258   4.013  0.2315 -0.4336 -0.2220
    1DPPC   C4B18156   0.826  14.371   4.367 -0.2121  0.2707  0.3187
    1DPPC   NC318157  26.646  11.537   2.363 -0.2316 -0.0899  0.0400
    1DPPC   PO418158  26.918  11.870   2.315 -0.0701  0.3071 -0.1979
    1DPPC   GL118159  27.047  11.607   2.632  0.1600 -0.1666 -0.0082
    1DPPC   GL218160  27.283  11.358   2.664  0.1449  0.0391 -0.2961
    1DPPC   C1A18161  27.140  11.835   2.994  0.0912 -0.1439 -0.0935
    1DPPC   C2A18162  27.035  11.925   3.387  0.0501 -0.1337  0.0409
    1DPPC   C3A18163  26.972  12.015   3.793 -0.0578 -0.0657  0.2733
    1DPPC   C4A18164  27.003  12.317   4.127  0.0547  0.2214  0.1109
    1DPPC   C1B18165  27.165  11.349   3.059  0.0144 -0.1735  0.0442
    1DPPC   C2B18166  27.059  11.408   3.436 -0.0452  0.1455  0.0747
    1DPPC   C3B18167  27.080  11.514   3.888  0.0129  0.3390  0.1039
    1DPPC   C4B18168  27.256  11.557   4.319 -0.0429 -0.0108  0.0345
    1DPPC   NC318169  11.123  12.776   2.290  0.2254 -0.0683 -0.0995
    1DPPC   PO418170  11.307  12.955   2.741 -0.0436  0.1498  0.0442
    1DPPC   GL118171  11.216  12.960   3.200 -0.1195  0.0663  0.1954
    1DPPC   GL218172  11.065  13.185   3.135 -0.2185 -0.2435  0.0463
    1DPPC   C1A18173  11.285  12.734   3.613 -0.1117 -0.2778 -0.4053
    1DPPC   C2A18174  11.377  12.725   4.034  0.0048  0.2275  0.2176
    1DPPC   C3A18175  11.429  12.765   4.472 -0.0209  0.1245  0.0534
    1DPPC   C4A18176  11.047  12.698   4.736 -0.0058 -0.2932 -0.2094
    1DPPC   C1B18177  10.940  13.088   3.642 -0.1077  0.1589  0.1283
    1DPPC   C2B18178  10.993  13.080   4.148  0.0234  0.2842  0.0772
    1DPPC   C3B18179  11.089  13.213   4.523 -0.0123 -0.1134  0.0771
    1DPPC   C4B18180  11.254  13.268   4.884 -0.0218 -0.1894  0.1963
    1DPPC   NC318181  24.830   3.182   2.828 -0.0993  0.0607  0.2479
    1DPPC   PO418182  25.026   3.301   3.301 -0.1039 -0.0705  0.1239
    1DPPC   GL118183  25.032   3.032   3.695  0.0297  0.2540  0.1705
    1DPPC   GL218184  25.369   2.843   3.717  0.1096  0.2448 -0.0160
    1DPPC   C1A18185  24.863   3.030   4.115  0.1672 -0.3018  0.0602
    1DPPC   C2A18186  24.739   3.208   4.541 -0.3012  0.2221  0.1102
    1DPPC   C3A18187  24.749   3.407   4.938  0.0149  0.1327 -0.1154
    1DPPC   C4A18188  24.558   3.695   5.293  0.3200  0.2541  0.0829
    1DPPC   C1B18189  25.247   2.798   4.145  0.0717 -0.2655  0.1095
    1DPPC   C2B18190  25.197   2.927   4.570  0.0162  0.0301  0.0715
    1DPPC   C3B18191  25.165   3.064   5.024 -0.0274  0.3786 -0.0300
    1DPPC   C4B18192  25.257   2.757   5.332  0.1851  0.3155 -0.1313
    1DPPC   NC318193  12.591   3.505   3.457 -0.1685 -0.1434  0.2091
    1DPPC   PO418194  12.550   3.973   3.405 -0.2502  0.0080  0.0921
    1DPPC   GL118195  12.474   3.892   3.826 -0.3293 -0.0178  0.0596
    1DPPC   GL218196  12.146   3.765   3.945  0.1980 -0.0486 -0.0483
    1DPPC   C1A18197  12.598   3.742   4.233  0.4298  0.4722  0.1807
    1DPPC   C2A18198  12.480   3.513   4.643  0.1811  0.0330 -0.0853
    1DPPC   C3A18199  12.409   3.750   4.998  0.0250 -0.1433 -0.1433
    1DPPC   C4A18200  12.168   4.041   4.984  0.1714  0.0882  0.1888
    1DPPC   C1B18201  12.123   3.803   4.372  0.3217 -0.2057  0.1244
    1DPPC   C2B18202  11.990   4.253   4.559  0.0977 -0.2486  0.0059
    1DPPC   C3B18203  11.915   4.592   4.829 -0.4181 -0.2150 -0.1571
    1DPPC   C4B18204  12.099   4.949   5.142 -0.0600 -0.3492 -0.1663
    1DPPC   NC318205  27.434  14.046   0.838  0.2566  0.0561 -0.1523
    1DPPC   PO418206  27.231  14.023   1.252  0.5171 -0.2802  0.2225
    1DPPC   GL118207  27.199  13.927   1.667 -0.3107 -0.2813 -0.0902
    1DPPC   GL218208  26.922  13.935   1.828  0.0139 -0.0040 -0.1826
    1DPPC   C1A18209  27.313  14.139   2.078 -0.2296  0.5102  0.5539
    1DPPC   C2A18210  27.134  14.244   2.394  0.2287  0.0005 -0.1506
    1DPPC   C3A18211  27.251  14.285   2.749  0.1133 -0.2464 -0.0667
    1DPPC   C4A18212  27.160  14.423   3.153 -0.0272 -0.1382 -0.0439
    1DPPC   C1B18213  26.669  14.137   2.187 -0.0651  0.0518 -0.2938
    1DPPC   C2B18214  26.721  14.357   2.642  0.1128 -0.1572  0.0611
    1DPPC   C3B18215  26.425  14.628   2.986  0.4597 -0.0327 -0.0565
    1DPPC   C4B18216  26.522  14.721   3.356 -0.3771 -0.2511  0.0361
    1DPPC   NC318217   3.433  19.552   2.224 -0.0208 -0.1419 -0.0282
    1DPPC   PO418218   3.949  19.478   2.241  0.0131 -0.2575  0.0581
    1DPPC   GL118219   3.820  19.443   2.647 -0.0199 -0.0269 -0.0268
    1DPPC   GL218220   4.023  19.500   2.873 -0.2474  0.1995 -0.1989
    1DPPC   C1A18221   3.518  19.350   3.012 -0.1544  0.0074 -0.3007
    1DPPC   C2A18222   3.544  19.340   3.403  0.2721 -0.0208 -0.0136
    1DPPC   C3A18223   3.493  19.274   3.766  0.1853  0.1375 -0.0815
    1DPPC   C4A18224   3.490  19.198   4.125 -0.3367  0.0079  0.0600
    1DPPC   C1B18225   4.073  19.449   3.368  0.0704 -0.0103  0.0306
    1DPPC   C2B18226   3.977  19.442   3.761 -0.1060  0.1244 -0.0707
    1DPPC   C3B18227   4.003  19.494   4.165  0.1679 -0.0250  0.1714
    1DPPC   C4B18228   3.833  19.564   4.526 -0.1640  0.2439 -0.0252
    1DPPC   NC318229   4.647  10.965   2.281  0.1268 -0.1188 -0.0043
    1DPPC   PO418230   4.467  10.878   2.577 -0.1653 -0.0940 -0.0070
    1DPPC   GL118231   4.163  10.638   2.798 -0.0502 -0.1151 -0.0236
    1DPPC   GL218232   4.195  10.330   2.881 -0.2049  0.1039  0.0030
    1DPPC   C1A18233   4.026  10.506   3.306 -0.0990 -0.1118  0.0379
    1DPPC   C2A18234   4.051  10.384   3.735 -0.4601  0.5895  0.1247
    1DPPC   C3A18235   4.211  10.003   4.064 -0.3634  0.3419 -0.0319
    1DPPC   C4A18236   4.360   9.585   4.016 -0.3728 -0.0710  0.0088
    1DPPC   C1B18237   4.483  10.311   3.277  0.1205  0.1893 -0.2101
    1DPPC   C2B18238   4.529  10.377   3.702  0.2176  0.1532  0.3191
    1DPPC   C3B18239   4.609  10.408   4.141 -0.1762  0.3110  0.0932
    1DPPC   C4B18240   4.563  10.358   4.592  0.1652 -0.1479  0.2826
    1DPPC   NC318241   2.893  19.996   2.007  0.0266 -0.1408 -0.0650
    1DPPC   PO418242   2.833  20.287   2.363 -0.3335 -0.0091  0.2272
    1DPPC   GL118243   2.651  20.400   2.742  0.0433 -0.1754  0.0511
    1DPPC   GL218244   2.730  20.073   2.813 -0.0886 -0.2205  0.0853
    1DPPC   C1A18245   2.700  20.563   3.044 -0.2395 -0.0285  0.0411
    1DPPC   C2A18246   2.678  20.538   3.448 -0.1142  0.0229 -0.3150
    1DPPC   C3A18247   2.763  20.440   3.785 -0.0629  0.2937 -0.0312
    1DPPC   C4A18248   2.569  20.254   4.175  0.1674 -0.1936 -0.1270
    1DPPC   C1B18249   2.714  20.022   3.191 -0.0378 -0.0264 -0.1035
    1DPPC   C2B18250   2.619  19.979   3.622  0.0431 -0.1191 -0.0050
    1DPPC   C3B18251   2.653  19.798   3.979 -0.0837  0.1704  0.2082
    1DPPC   C4B18252   2.521  19.838   4.398 -0.0942 -0.1453 -0.3155
    1DPPC   NC318253   5.010  13.986   2.504 -0.0025  0.2879 -0.2000
    1DPPC   PO418254   5.406  14.052   2.712 -0.1307  0.1442  0.2187
    1DPPC   GL118255   5.484  13.807   3.115 -0.0251  0.1111  0.0764
    1DPPC   GL218256   5.639  13.458   3.258  0.1242 -0.0889  0.0007
    1DPPC   C1A18257   5.173  13.653   3.327  0.0335 -0.0871 -0.0530
    1DPPC   C2A18258   5.094  13.801   3.781 -0.0209 -0.3035 -0.1929
    1DPPC   C3A18259   4.875  13.907   4.094 -0.0133 -0.0965  0.2594
    1DPPC   C4A18260   4.666  14.245   4.441  0.0014 -0.0142 -0.1130
    1DPPC   C1B18261   5.554  13.647   3.686  0.4616 -0.0221  0.0768
    1DPPC   C2B18262   5.498  13.628   4.031  0.0738 -0.1708 -0.1562
    1DPPC   C3B18263   5.293  13.759   4.395 -0.1651  0.1620 -0.0860
    1DPPC   C4B18264   4.961  13.714   4.534  0.1375  0.3173  0.0252
    1DPPC   NC318265  28.656  24.205   2.414  0.2074 -0.0032 -0.1361
    1DPPC   PO418266  28.388  23.841   2.429 -0.0799  0.2476  0.0188
    1DPPC   GL118267  28.477  23.944   2.920  0.0933 -0.0166 -0.1532
    1DPPC   GL218268  28.431  24.241   2.878 -0.0995  0.2176  0.3221
    1DPPC   C1A18269  28.592  23.796   3.410 -0.2448 -0.3145  0.2578
    1DPPC   C2A18270  28.683  23.608   3.751  0.0286  0.0569  0.2947
    1DPPC   C3A18271  28.496  23.359   4.004  0.0550 -0.0848 -0.0109
    1DPPC   C4A18272  28.297  23.464   4.355 -0.1646  0.3844 -0.2525
    1DPPC   C1B18273  28.837  24.266   3.083  0.3521 -0.0646  0.0893
    1DPPC   C2B18274  29.008  24.108   3.426 -0.1432  0.0667  0.0518
    1DPPC   C3B18275  29.069  23.958   3.861 -0.0615  0.2721  0.0072
    1DPPC   C4B18276  28.872  23.892   4.267 -0.0490  0.1225  0.0781
    1DPPC   NC318277   7.976  11.934   2.483 -0.1161  0.0086  0.4804
    1DPPC   PO418278   7.998  11.636   2.794  0.3226  0.3658 -0.1436
    1DPPC   GL118279   7.998  11.605   3.216  0.0736  0.1054  0.3763
    1DPPC   GL218280   8.232  11.616   3.395  0.1731 -0.1069 -0.1215
    1DPPC   C1A18281   7.639  11.367   3.411 -0.0420  0.1833 -0.2319
    1DPPC   C2A18282   7.563  11.312   3.839 -0.0514 -0.0027  0.1662
    1DPPC   C3A18283   7.520  11.292   4.230  0.2837  0.2706 -0.2821
    1DPPC   C4A18284   7.256  11.410   4.562 -0.1939 -0.1262 -0.0494
    1DPPC   C1B18285   8.045  11.617   3.771 -0.2436  0.1956  0.0272
    1DPPC   C2B18286   7.839  11.632   4.270  0.1816 -0.1050  0.3531
    1DPPC   C3B18287   7.813  11.480   4.675 -0.3659 -0.0653 -0.1617
    1DPPC   C4B18288   7.889  11.272   5.071 -0.0926  0.3630  0.1399
    1DPPC   NC318289  28.371  16.253   1.773 -0.2192  0.2908  0.1520
    1DPPC   PO418290  28.465  16.695   1.824 -0.0049  0.0700  0.2838
    1DPPC   GL118291  28.248  16.544   2.236  0.2362  0.2214  0.2840
    1DPPC   GL218292  28.089  16.301   2.273 -0.2547  0.0295 -0.0103
    1DPPC   C1A18293  28.226  16.528   2.722  0.0439 -0.0020 -0.2605
    1DPPC   C2A18294  28.156  16.564   3.113 -0.2617  0.3504  0.2708
    1DPPC   C3A18295  27.961  16.710   3.481 -0.0447  0.3831  0.0122
    1DPPC   C4A18296  27.810  16.529   3.786  0.0623 -0.0912  0.0212
    1DPPC   C1B18297  27.933  16.114   2.571 -0.3553  0.2254 -0.1477
    1DPPC   C2B18298  27.514  15.927   2.662 -0.0915 -0.1171  0.2073
    1DPPC   C3B18299  27.069  15.864   2.845  0.1191 -0.4423  0.2423
    1DPPC   C4B18300  26.580  16.025   2.862 -0.0386  0.1854  0.0938
    1DPPC   NC318301  13.855  18.901   2.967  0.1041 -0.4727  0.0249
    1DPPC   PO418302  13.424  18.637   2.805 -0.2792  0.2171 -0.0613
    1DPPC   GL118303  13.375  18.656   3.243  0.1732 -0.0104 -0.2264
    1DPPC   GL218304  13.671  18.688   3.409 -0.1955  0.1251  0.2252
    1DPPC   C1A18305  13.156  18.704   3.634  0.1093 -0.2451  0.2676
    1DPPC   C2A18306  13.259  18.724   4.026  0.0184 -0.2534  0.2418
    1DPPC   C3A18307  13.393  18.581   4.545  0.0039  0.0026 -0.1165
    1DPPC   C4A18308  13.312  18.335   4.877  0.2064 -0.0660  0.2840
    1DPPC   C1B18309  13.653  18.869   3.768 -0.0360  0.3568  0.0431
    1DPPC   C2B18310  13.820  18.879   4.152  0.1911 -0.0207 -0.1526
    1DPPC   C3B18311  13.644  19.004   4.492  0.1900 -0.0932 -0.0990
    1DPPC   C4B18312  13.057  19.008   4.685 -0.0891  0.0504  0.2362
    1DPPC   NC318313   4.327  10.272   2.438 -0.0145  0.1680  0.3399
    1DPPC   PO418314   4.794  10.029   2.531  0.1916  0.2896  0.1379
    1DPPC   GL118315   4.754  10.008   3.037 -0.0364  0.0770  0.0626
    1DPPC   GL218316   4.743   9.630   3.278 -0.1105  0.0086  0.1880
    1DPPC   C1A18317   4.867  10.128   3.520 -0.2644 -0.1770  0.1028
    1DPPC   C2A18318   4.771   9.966   3.913  0.4362 -0.0226  0.0116
    1DPPC   C3A18319   4.573   9.947   4.354  0.0837  0.1873 -0.1792
    1DPPC   C4A18320   4.532   9.699   4.824 -0.1871  0.0117 -0.1259
    1DPPC   C1B18321   4.726   9.585   3.612  0.0363 -0.1830 -0.0227
    1DPPC   C2B18322   4.879   9.404   3.981  0.2945  0.1301  0.1034
    1DPPC   C3B18323   5.027   9.340   4.299 -0.0268 -0.0738 -0.0792
    1DPPC   C4B18324   4.951   9.707   4.549 -0.1683  0.1919  0.0825
    1DPPC   NC318325   8.400  21.278   2.588 -0.2187  0.0979  0.1912
    1DPPC   PO418326   7.995  21.433   2.647 -0.1923  0.2179  0.0836
    1DPPC   GL118327   7.895  21.352   3.070 -0.1348  0.1564  0.0317
    1DPPC   GL218328   7.548  21.434   3.035 -0.1465  0.1673  0.0418
    1DPPC   C1A18329   8.021  21.093   3.329  0.0746 -0.0826 -0.2204
    1DPPC   C2A18330   7.782  21.080   3.618  0.0209 -0.0478  0.1931
    1DPPC   C3A18331   7.884  20.898   3.935  0.4188  0.0976 -0.4003
    1DPPC   C4A18332   8.100  20.557   4.118 -0.0226 -0.1666 -0.2304
    1DPPC   C1B18333   7.535  21.492   3.451  0.1033 -0.0310 -0.4314
    1DPPC   C2B18334   7.457  21.413   3.845 -0.0109  0.1374 -0.0109
    1DPPC   C3B18335   7.343  21.471   4.275 -0.1321  0.2060 -0.0682
    1DPPC   C4B18336   7.216  21.111   4.521  0.3591  0.1683 -0.0745
    1DPPC   NC318337   3.772  18.157   2.326  0.0258 -0.1055 -0.2984
    1DPPC   PO418338   3.891  18.550   1.979  0.0811  0.1090  0.2806
    1DPPC   GL118339   3.758  18.639   2.462 -0.2664  0.0946  0.1877
    1DPPC   GL218340   3.675  18.525   2.618 -0.0785  0.0900 -0.2012
    1DPPC   C1A18341   3.850  18.975   2.767  0.1627 -0.0004  0.1536
    1DPPC   C2A18342   3.905  18.995   3.264  0.0070 -0.2428 -0.0300
    1DPPC   C3A18343   3.938  18.941   3.762 -0.1501  0.0618  0.1510
    1DPPC   C4A18344   3.972  19.017   4.183 -0.2884 -0.0308 -0.3138
    1DPPC   C1B18345   3.787  18.464   3.016 -0.0051  0.0866  0.1217
    1DPPC   C2B18346   3.793  18.475   3.430 -0.0902 -0.2455  0.3395
    1DPPC   C3B18347   3.731  18.456   3.797  0.0174 -0.2175 -0.1868
    1DPPC   C4B18348   3.576  18.688   4.092  0.0740  0.1180  0.1426
    1DPPC   NC318349  26.314  11.021   2.517 -0.0628 -0.2408  0.2760
    1DPPC   PO418350  26.285  11.313   2.157  0.2070 -0.1941  0.0147
    1DPPC   GL118351  26.152  11.587   2.470 -0.3782 -0.1009  0.1197
    1DPPC   GL218352  25.884  11.845   2.509 -0.0301 -0.1104  0.1431
    1DPPC   C1A18353  26.100  11.543   2.917  0.0736 -0.4511  0.2826
    1DPPC   C2A18354  26.097  11.421   3.360 -0.1298  0.0336 -0.0639
    1DPPC   C3A18355  26.064  11.479   3.885  0.2233  0.1678 -0.2388
    1DPPC   C4A18356  26.206  11.840   4.217  0.0628 -0.1111  0.0993
    1DPPC   C1B18357  25.689  11.933   2.894  0.0834  0.0567  0.3365
    1DPPC   C2B18358  25.563  12.152   3.298  0.0023  0.2155 -0.0887
    1DPPC   C3B18359  25.287  12.038   3.532  0.1044 -0.0251 -0.0378
    1DPPC   C4B18360  24.982  11.981   3.905  0.1451 -0.4346 -0.3133
    1DPPC   NC318361   4.029  20.904   2.382 -0.1417 -0.0622 -0.1789
    1DPPC   PO418362   3.870  21.203   2.609  0.0476 -0.2495  0.1373
    1DPPC   GL118363   3.856  21.196   3.044  0.1941  0.1976 -0.2737
    1DPPC   GL218364   4.066  21.339   3.037  0.0696 -0.3805 -0.0108
    1DPPC   C1A18365   3.717  20.905   3.386 -0.3887 -0.1310 -0.1086
    1DPPC   C2A18366   3.701  20.826   3.938 -0.2474 -0.1638  0.0850
    1DPPC   C3A18367   3.630  20.941   4.394 -0.2346  0.0435 -0.3371
    1DPPC   C4A18368   3.664  21.186   4.818 -0.1001  0.1346 -0.3174
    1DPPC   C1B18369   4.285  21.156   3.395 -0.2539 -0.0849 -0.0147
    1DPPC   C2B18370   4.156  21.000   3.782  0.0577  0.0121 -0.0901
    1DPPC   C3B18371   4.174  21.028   4.243  0.0022  0.0709  0.0166
    1DPPC   C4B18372   4.116  20.918   4.706 -0.1138 -0.0014  0.2188
    1DPPC   NC318373   8.361  17.973   2.490 -0.2674  0.1809 -0.0857
    1DPPC   PO418374   7.888  17.876   2.472 -0.5717 -0.0812  0.1215
    1DPPC   GL118375   8.055  17.849   2.865  0.5182 -0.2649 -0.0684
    1DPPC   GL218376   8.140  18.069   2.984  0.1044 -0.1149  0.0199
    1DPPC   C1A18377   7.944  17.734   3.308  0.3686 -0.1411 -0.0132
    1DPPC   C2A18378   7.967  17.924   3.726  0.1717 -0.0896 -0.2681
    1DPPC   C3A18379   7.955  17.912   4.199  0.3166  0.3041  0.3603
    1DPPC   C4A18380   8.091  17.864   4.583  0.0279  0.0311 -0.0910
    1DPPC   C1B18381   8.377  18.096   3.320 -0.1676 -0.0297 -0.1046
    1DPPC   C2B18382   8.431  18.166   3.755 -0.2651  0.0861 -0.0015
    1DPPC   C3B18383   8.494  18.163   4.129  0.1821 -0.3066 -0.0504
    1DPPC   C4B18384   8.526  18.332   4.524 -0.0605  0.0948 -0.3060
    1DPPC   NC318385   2.193  25.696   3.566  0.0009  0.1360 -0.0604
    1DPPC   PO418386   1.747  25.594   3.637  0.0901  0.0416 -0.0051
    1DPPC   GL118387   1.436  25.369   3.859 -0.2363 -0.0113 -0.0581
    1DPPC   GL218388   1.620  25.407   4.240  0.0711  0.0698  0.3121
    1DPPC   C1A18389   1.293  24.915   3.949  0.0893 -0.1652 -0.0951
    1DPPC   C2A18390   1.382  24.527   4.066  0.1313 -0.4059 -0.2178
    1DPPC   C3A18391   1.467  24.165   4.092  0.1911 -0.0182  0.1654
    1DPPC   C4A18392   1.512  23.800   3.860 -0.1008  0.2956 -0.0089
    1DPPC   C1B18393   1.320  25.070   4.428  0.1511  0.0052  0.0163
    1DPPC   C2B18394   1.397  24.638   4.551 -0.0080 -0.1421 -0.0059
    1DPPC   C3B18395   1.410  24.300   4.803  0.1220  0.0203  0.5128
    1DPPC   C4B18396   1.512  23.903   4.953 -0.0403 -0.1594  0.2215
    1DPPC   NC318397  27.718  17.916   1.301  0.3292  0.1403  0.1501
    1DPPC   PO418398  27.325  17.811   1.474  0.1590  0.0443  0.1848
    1DPPC   GL118399  27.042  17.704   1.870 -0.0253  0.0920 -0.2149
    1DPPC   GL218400  26.901  18.067   1.917 -0.2804 -0.0641 -0.1817
    1DPPC   C1A18401  26.838  17.756   2.319 -0.0379  0.2300 -0.0933
    1DPPC   C2A18402  26.672  17.847   2.691  0.2810  0.1046  0.0482
    1DPPC   C3A18403  26.497  17.846   3.040  0.2992  0.0524 -0.1560
    1DPPC   C4A18404  26.668  17.783   3.410 -0.3406  0.2720 -0.1393
    1DPPC   C1B18405  26.419  17.997   2.211 -0.1319  0.1871  0.0259
    1DPPC   C2B18406  26.139  17.726   2.461  0.0816 -0.1565  0.0882
    1DPPC   C3B18407  26.016  17.663   2.855  0.0917 -0.0867  0.1783
    1DPPC   C4B18408  26.108  17.617   3.330 -0.0550 -0.1072 -0.0459
    1DPPC   NC318409  29.340  13.790   2.022 -0.0897 -0.1169 -0.1771
    1DPPC   PO418410  29.012  13.491   2.112  0.1302 -0.1195  0.3684
    1DPPC   GL118411  28.825  13.504   2.496 -0.3391 -0.2345 -0.1716
    1DPPC   GL218412  29.094  13.635   2.731 -0.0663 -0.2067 -0.2491
    1DPPC   C1A18413  28.605  13.498   2.838  0.1645  0.1291 -0.1686
    1DPPC   C2A18414  28.536  13.549   3.265  0.0514  0.0774 -0.1600
    1DPPC   C3A18415  28.471  13.817   3.622  0.4384  0.1422 -0.0869
    1DPPC   C4A18416  27.998  14.081   3.736  0.1549  0.2914  0.1323
    1DPPC   C1B18417  29.241  13.808   3.165 -0.0266 -0.0253  0.2646
    1DPPC   C2B18418  29.268  13.833   3.580 -0.0152 -0.0387 -0.0763
    1DPPC   C3B18419  29.227  13.831   4.100  0.0782  0.0923  0.0972
    1DPPC   C4B18420  28.993  13.889   4.477  0.1243 -0.0578 -0.1231
    1DPPC   NC318421  10.065  13.267   2.753  0.1461  0.0502  0.2127
    1DPPC   PO418422   9.616  13.427   2.695 -0.1411  0.4220 -0.0365
    1DPPC   GL118423   9.735  13.394   3.140  0.0571 -0.1071  0.2563
    1DPPC   GL218424   9.909  13.154   3.264  0.0947 -0.2242 -0.0488
    1DPPC   C1A18425   9.669  13.586   3.578  0.0621 -0.1210 -0.2476
    1DPPC   C2A18426   9.680  13.669   3.958 -0.0383  0.3391  0.2237
    1DPPC   C3A18427   9.692  13.688   4.345 -0.0008  0.0042 -0.1541
    1DPPC   C4A18428   9.917  13.784   4.746  0.2463  0.0644  0.3548
    1DPPC   C1B18429   9.913  13.189   3.725  0.2857 -0.0020 -0.1733
    1DPPC   C2B18430   9.924  13.204   4.138 -0.3445  0.1295  0.2209
    1DPPC   C3B18431  10.133  13.253   4.546  0.0902 -0.1779  0.0459
    1DPPC   C4B18432  10.199  12.972   4.817  0.0836 -0.0815  0.1362
    1DPPC   NC318433  11.660  12.782   3.095 -0.0637 -0.0894 -0.1302
    1DPPC   PO418434  11.925  13.233   2.994  0.0338  0.0408 -0.2506
    1DPPC   GL118435  11.559  13.332   3.288 -0.4157 -0.3467 -0.0846
    1DPPC   GL218436  11.332  13.557   3.328  0.0902  0.2099  0.0065
    1DPPC   C1A18437  11.472  13.251   3.769  0.3544 -0.0349  0.0893
    1DPPC   C2A18438  11.485  13.138   4.233 -0.0211 -0.3171  0.0784
    1DPPC   C3A18439  11.668  13.117   4.674 -0.3156 -0.0832  0.1946
    1DPPC   C4A18440  11.766  13.170   5.098 -0.0103 -0.2804  0.2005
    1DPPC   C1B18441  11.273  13.713   3.663 -0.1127  0.0893 -0.1629
    1DPPC   C2B18442  11.290  13.598   4.120 -0.2062 -0.1442  0.1789
    1DPPC   C3B18443  11.397  13.601   4.551  0.2341  0.0387 -0.3336
    1DPPC   C4B18444  11.653  13.671   4.841  0.2082  0.2125  0.0634
    1DPPC   NC318445   5.656  14.481   2.681  0.1193  0.0379 -0.0187
    1DPPC   PO418446   5.152  14.501   2.636 -0.0089 -0.1362 -0.0288
    1DPPC   GL118447   4.781  14.579   2.903 -0.1201 -0.0232 -0.3273
    1DPPC   GL218448   4.585  14.474   2.878 -0.1695 -0.1423  0.2039
    1DPPC   C1A18449   4.743  14.743   3.308  0.0731 -0.1157 -0.0407
    1DPPC   C2A18450   4.576  14.890   3.739 -0.1164  0.0664 -0.2241
    1DPPC   C3A18451   4.407  15.096   4.058  0.0878 -0.1267 -0.1100
    1DPPC   C4A18452   4.295  15.196   4.503  0.1464 -0.2983  0.1486
    1DPPC   C1B18453   4.246  14.521   3.183 -0.0952 -0.0739 -0.1129
    1DPPC   C2B18454   4.226  14.619   3.489 -0.0925 -0.0039 -0.2222
    1DPPC   C3B18455   4.095  14.760   3.826  0.0247 -0.2860 -0.0400
    1DPPC   C4B18456   3.967  14.920   4.244 -0.4355  0.1300  0.2750
    1DPPC   NC318457  27.793  20.249   1.897  0.0412  0.0393  0.0063
    1DPPC   PO418458  28.017  19.904   1.978  0.2839  0.1294 -0.2025
    1DPPC   GL118459  28.023  20.063   2.358  0.0332 -0.3611  0.0910
    1DPPC   GL218460  27.793  20.377   2.427 -0.0575  0.0589  0.0190
    1DPPC   C1A18461  27.746  19.910   2.712  0.2524  0.2603 -0.0240
    1DPPC   C2A18462  27.726  19.934   3.184  0.0953  0.0176 -0.0472
    1DPPC   C3A18463  27.515  19.614   3.487  0.1179  0.3685 -0.0403
    1DPPC   C4A18464  27.112  19.439   3.686  0.1011  0.1721 -0.3190
    1DPPC   C1B18465  27.780  20.500   2.836  0.1336 -0.0786 -0.0507
    1DPPC   C2B18466  27.812  20.543   3.287  0.0756 -0.0200  0.3485
    1DPPC   C3B18467  27.848  20.284   3.649  0.0826  0.3100 -0.0456
    1DPPC   C4B18468  27.890  19.845   3.773  0.0542  0.1897 -0.2213
    1DPPC   NC318469   8.449  26.185   2.998 -0.4352  0.0771  0.0267
    1DPPC   PO418470   8.354  26.584   3.185  0.0240  0.0277 -0.1496
    1DPPC   GL118471   8.336  26.599   3.648  0.1544  0.0322  0.4654
    1DPPC   GL218472   8.581  26.876   3.783  0.0802  0.3077  0.2099
    1DPPC   C1A18473   8.196  26.540   4.047  0.5532 -0.0109  0.0728
    1DPPC   C2A18474   8.342  26.353   4.381 -0.0019  0.0066  0.0378
    1DPPC   C3A18475   8.635  26.064   4.591  0.0198  0.0178  0.0878
    1DPPC   C4A18476   8.683  25.775   5.034  0.0629 -0.0837  0.0117
    1DPPC   C1B18477   8.556  26.945   4.107  0.3981  0.1064 -0.1901
    1DPPC   C2B18478   8.536  26.911   4.533  0.1705  0.2991 -0.0500
    1DPPC   C3B18479   8.749  27.040   4.898 -0.1763  0.0369 -0.0710
    1DPPC   C4B18480   8.877  27.257   5.289 -0.0438  0.4458  0.2702
    1DPPC   NC318481  10.699  21.251   2.893  0.1508  0.2190 -0.0837
    1DPPC   PO418482  10.462  21.641   3.005 -0.0922  0.1559  0.0348
    1DPPC   GL118483  10.292  21.680   3.401  0.2800 -0.2940 -0.4240
    1DPPC   GL218484  10.412  21.873   3.575  0.2460  0.2364  0.0688
    1DPPC   C1A18485   9.986  21.739   3.779 -0.0469 -0.1821  0.2834
    1DPPC   C2A18486   9.841  21.677   4.232 -0.0132  0.1287 -0.1139
    1DPPC   C3A18487  10.030  21.971   4.491  0.2264 -0.2972  0.0824
    1DPPC   C4A18488  10.330  22.009   4.812  0.0614 -0.1892 -0.2026
    1DPPC   C1B18489  10.362  21.920   4.014  0.0292  0.1721 -0.0230
    1DPPC   C2B18490  10.556  22.114   4.382  0.1301 -0.2412  0.0769
    1DPPC   C3B18491  10.645  22.423   4.663  0.0021  0.1025 -0.0291
    1DPPC   C4B18492  10.960  22.768   4.683  0.2079  0.0999 -0.0352
    1DPPC   NC318493   5.873  18.566   2.517  0.2618  0.1366 -0.3598
    1DPPC   PO418494   6.295  18.478   2.528 -0.2662  0.3234  0.0949
    1DPPC   GL118495   6.234  18.309   2.911  0.0076 -0.1762  0.3017
    1DPPC   GL218496   6.477  18.073   2.969 -0.1011 -0.0887 -0.1382
    1DPPC   C1A18497   6.117  18.455   3.253 -0.2075  0.0353 -0.2179
    1DPPC   C2A18498   6.225  18.393   3.631 -0.0591  0.1848  0.0470
    1DPPC   C3A18499   6.108  18.340   3.955 -0.0035  0.2121 -0.1080
    1DPPC   C4A18500   6.160  18.274   4.470  0.0092  0.4930  0.1398
    1DPPC   C1B18501   6.524  18.070   3.398 -0.2011  0.0413 -0.0587
    1DPPC   C2B18502   6.562  18.076   3.880  0.3682  0.1237  0.1927
    1DPPC   C3B18503   6.643  17.985   4.289  0.1758 -0.0141 -0.1129
    1DPPC   C4B18504   6.503  17.855   4.692  0.1322  0.0110  0.1591
    1DPPC   NC318505  10.881  21.721   2.745  0.1701 -0.2286 -0.0525
    1DPPC   PO418506  10.534  22.055   2.758 -0.0298  0.1393 -0.2171
    1DPPC   GL118507  10.497  22.142   3.138 -0.1477  0.0577  0.0720
    1DPPC   GL218508  10.849  22.219   3.243 -0.1099 -0.1051 -0.1036
    1DPPC   C1A18509  10.527  22.336   3.600 -0.1825  0.1590  0.0822
    1DPPC   C2A18510  10.684  22.385   3.968  0.3794  0.1185 -0.2644
    1DPPC   C3A18511  10.964  22.434   4.293 -0.2018  0.0247 -0.0304
    1DPPC   C4A18512  11.217  22.318   4.596 -0.1540 -0.2498 -0.0946
    1DPPC   C1B18513  10.929  22.053   3.659 -0.0982  0.1621  0.0595
    1DPPC   C2B18514  11.111  22.038   3.983 -0.1289  0.2343  0.4018
    1DPPC   C3B18515  11.305  21.815   4.367 -0.0385 -0.1008  0.1981
    1DPPC   C4B18516  11.525  21.907   4.720 -0.1024  0.0469  0.2750
    1DPPC   NC318517   9.719  18.456   2.095  0.0526  0.0750 -0.2791
    1DPPC   PO418518   9.388  18.399   2.178  0.1626  0.1324  0.1216
    1DPPC   GL118519   9.168  18.301   2.642 -0.1354  0.0004  0.1841
    1DPPC   GL218520   8.904  18.568   2.649 -0.0468 -0.0272  0.0929
    1DPPC   C1A18521   9.314  18.126   2.994 -0.2905 -0.2249 -0.0489
    1DPPC   C2A18522   9.473  18.290   3.463 -0.2055 -0.0548 -0.2014
    1DPPC   C3A18523   9.617  18.451   3.736  0.3276  0.0365 -0.1274
    1DPPC   C4A18524   9.485  18.460   4.209  0.0780 -0.1919 -0.0620
    1DPPC   C1B18525   8.680  18.847   3.032 -0.0430 -0.0662  0.2207
    1DPPC   C2B18526   8.764  18.870   3.445  0.1113  0.2632 -0.1566
    1DPPC   C3B18527   8.755  18.947   3.882 -0.0256  0.2328 -0.1021
    1DPPC   C4B18528   9.013  19.354   4.247 -0.1532  0.2140 -0.2068
    1DPPC   NC318529  25.377  11.774   2.164 -0.1708  0.0713  0.4276
    1DPPC   PO418530  25.046  11.812   2.059 -0.0218  0.0216  0.1155
    1DPPC   GL118531  25.104  12.163   2.355  0.2457 -0.2203  0.0032
    1DPPC   GL218532  25.490  12.206   2.412 -0.1039 -0.1307 -0.1569
    1DPPC   C1A18533  25.320  12.300   2.875  0.0459  0.3800 -0.1872
    1DPPC   C2A18534  25.371  12.611   3.188  0.1000 -0.0942 -0.3012
    1DPPC   C3A18535  25.428  12.980   3.371  0.2624  0.0277 -0.0652
    1DPPC   C4A18536  25.912  13.083   3.639 -0.1711  0.1917  0.0552
    1DPPC   C1B18537  25.461  12.619   2.174 -0.1020  0.3437 -0.4343
    1DPPC   C2B18538  25.372  13.039   2.300  0.3338  0.1064  0.1014
    1DPPC   C3B18539  25.084  13.260   2.436 -0.3745 -0.0592  0.0077
    1DPPC   C4B18540  24.952  13.402   2.833 -0.1642  0.1365 -0.1093
    1DPPC   NC318541   4.192  14.282   2.591 -0.0834  0.0165  0.0006
    1DPPC   PO418542   4.407  13.879   2.394  0.0808 -0.0335 -0.1768
    1DPPC   GL118543   4.419  13.728   2.882 -0.3346  0.0016  0.1949
    1DPPC   GL218544   4.130  13.871   2.940 -0.2536 -0.0123 -0.0639
    1DPPC   C1A18545   4.559  13.547   3.274  0.2398  0.0779 -0.0089
    1DPPC   C2A18546   4.617  13.549   3.739  0.2689  0.2342 -0.0410
    1DPPC   C3A18547   4.545  13.510   4.055  0.0275 -0.0499 -0.0379
    1DPPC   C4A18548   4.493  13.801   4.361  0.0725 -0.0080 -0.0087
    1DPPC   C1B18549   4.191  13.874   3.327  0.3774 -0.2009 -0.1943
    1DPPC   C2B18550   4.206  13.834   3.698  0.0786  0.0676 -0.0795
    1DPPC   C3B18551   4.131  14.033   4.080  0.1929  0.0669 -0.2005
    1DPPC   C4B18552   3.895  14.125   4.397  0.1719 -0.1133 -0.2632
    1DPPC   NC318553   1.239  17.754   1.842 -0.0321 -0.0139 -0.0640
    1DPPC   PO418554   1.548  17.641   2.186  0.1493 -0.1184 -0.1021
    1DPPC   GL118555   1.470  17.687   2.564 -0.0415  0.0453 -0.2106
    1DPPC   GL218556   1.451  17.994   2.601 -0.1805 -0.2232  0.2564
    1DPPC   C1A18557   1.578  17.639   2.934 -0.2713  0.0139  0.1338
    1DPPC   C2A18558   1.635  17.551   3.363  0.0698 -0.0436 -0.1089
    1DPPC   C3A18559   1.519  17.631   3.714 -0.0549  0.0747  0.2675
    1DPPC   C4A18560   1.551  17.670   4.126 -0.0781 -0.4432  0.1057
    1DPPC   C1B18561   1.353  18.032   3.066 -0.1492 -0.2541 -0.0229
    1DPPC   C2B18562   1.466  18.019   3.428 -0.3512 -0.0027  0.3590
    1DPPC   C3B18563   1.370  18.178   3.736  0.1158  0.2578 -0.0565
    1DPPC   C4B18564   1.222  18.078   4.085 -0.2448 -0.2653 -0.1228
    1DPPC   NC318565  29.055  18.192   1.547  0.0158  0.0517 -0.2564
    1DPPC   PO418566  29.453  18.066   1.616 -0.0196  0.0604  0.3764
    1DPPC   GL118567  29.121  17.907   2.012  0.0416  0.2516  0.2896
    1DPPC   GL218568  29.359  18.026   2.266  0.1819  0.1105 -0.0257
    1DPPC   C1A18569  28.813  17.975   2.392 -0.0430 -0.3944 -0.2365
    1DPPC   C2A18570  28.714  17.908   2.782 -0.1142 -0.0836  0.0656
    1DPPC   C3A18571  28.641  17.825   3.170  0.0124  0.3199 -0.1794
    1DPPC   C4A18572  28.542  17.871   3.583  0.1751 -0.0338  0.0474
    1DPPC   C1B18573  29.305  17.926   2.688  0.0634 -0.0212 -0.0604
    1DPPC   C2B18574  29.168  17.889   3.156 -0.2048  0.2166 -0.0422
    1DPPC   C3B18575  29.050  17.716   3.497  0.1714 -0.1654  0.2228
    1DPPC   C4B18576  29.003  17.797   4.012  0.0510  0.1856 -0.0512
    1DPPC   NC318577   2.021  22.303   2.230  0.2125 -0.1216 -0.1302
    1DPPC   PO418578   2.228  22.499   2.605 -0.1474  0.1055 -0.2083
    1DPPC   GL118579   2.126  22.325   2.911 -0.2425  0.1548 -0.1302
    1DPPC   GL218580   2.021  22.007   3.050 -0.0915 -0.4190  0.0889
    1DPPC   C1A18581   1.887  22.400   3.369 -0.0621  0.0411  0.0217
    1DPPC   C2A18582   1.857  22.324   3.817 -0.1617 -0.2216 -0.2827
    1DPPC   C3A18583   1.687  22.114   4.162 -0.0780 -0.0443 -0.1926
    1DPPC   C4A18584   1.667  22.167   4.672 -0.2269 -0.1276 -0.0084
    1DPPC   C1B18585   1.817  21.916   3.431 -0.0149  0.1734  0.0790
    1DPPC   C2B18586   1.760  21.846   3.728 -0.2271  0.0764  0.1518
    1DPPC   C3B18587   1.773  21.650   4.115 -0.3226  0.2195 -0.0397
    1DPPC   C4B18588   1.903  21.667   4.555  0.2936  0.0851  0.0169
    1DPPC   NC318589  19.319  13.547   2.091 -0.1438 -0.1682  0.1821
    1DPPC   PO418590  19.726  13.489   2.232 -0.3557 -0.1464  0.2854
    1DPPC   GL118591  19.983  13.278   2.444 -0.1654 -0.3164 -0.0198
    1DPPC   GL218592  19.757  12.996   2.399  0.0381 -0.1218  0.0885
    1DPPC   C1A18593  20.164  13.378   2.868 -0.0391  0.0733  0.0637
    1DPPC   C2A18594  19.929  13.375   3.345 -0.2322 -0.0315  0.0946
    1DPPC   C3A18595  19.944  12.990   3.555 -0.0365  0.2745 -0.1923
    1DPPC   C4A18596  19.841  12.928   3.936  0.0908  0.1161  0.0800
    1DPPC   C1B18597  19.759  13.078   2.885  0.0995 -0.1963 -0.2988
    1DPPC   C2B18598  19.721  12.754   3.200  0.1751  0.0721 -0.1546
    1DPPC   C3B18599  19.507  12.541   3.633  0.0546 -0.1499 -0.0233
    1DPPC   C4B18600  19.138  12.454   4.009 -0.0537 -0.1695  0.1831
    1DPPC   NC318601   3.410  18.922   1.924 -0.0792  0.3058  0.2530
    1DPPC   PO418602   3.190  19.111   2.286  0.0264 -0.1104 -0.3528
    1DPPC   GL118603   3.143  18.713   2.389 -0.2146 -0.2447  0.2369
    1DPPC   GL218604   2.741  18.676   2.494 -0.1271  0.1125  0.0426
    1DPPC   C1A18605   3.176  18.337   2.738  0.1418 -0.3066  0.0889
    1DPPC   C2A18606   3.345  18.229   3.061 -0.1136 -0.0538 -0.0538
    1DPPC   C3A18607   3.456  18.034   3.465  0.1899  0.1020 -0.0067
    1DPPC   C4A18608   3.193  17.999   3.732 -0.0697 -0.1460  0.2504
    1DPPC   C1B18609   2.890  18.733   2.860  0.1811 -0.0639 -0.0804
    1DPPC   C2B18610   2.854  18.474   3.093 -0.1902 -0.1341  0.1940
    1DPPC   C3B18611   2.904  18.286   3.436  0.1785 -0.0332 -0.0832
    1DPPC   C4B18612   2.732  18.143   3.792 -0.2811  0.0263  0.0215
    1DPPC   NC318613   5.083  16.299   2.308  0.0330 -0.1900  0.1255
    1DPPC   PO418614   5.171  16.709   2.393  0.1870 -0.1963 -0.2180
    1DPPC   GL118615   5.255  16.948   2.812  0.2397 -0.0466  0.1400
    1DPPC   GL218616   5.054  17.209   2.728  0.1077 -0.1643 -0.0533
    1DPPC   C1A18617   5.186  16.844   3.194  0.1415 -0.1707 -0.0850
    1DPPC   C2A18618   4.999  16.774   3.643 -0.1848  0.3726  0.0489
    1DPPC   C3A18619   4.691  16.661   3.936 -0.1052 -0.0979 -0.1740
    1DPPC   C4A18620   4.628  16.713   4.345 -0.0507  0.3788  0.1118
    1DPPC   C1B18621   5.088  17.302   3.118 -0.1264  0.0143  0.3015
    1DPPC   C2B18622   4.870  17.202   3.469  0.1094  0.1643  0.0668
    1DPPC   C3B18623   4.794  17.151   3.872  0.0470  0.1168  0.0840
    1DPPC   C4B18624   4.737  17.212   4.290  0.0016 -0.0078 -0.2179
    1DPPC   NC318625   5.134  12.756   2.551  0.0271  0.1741 -0.2640
    1DPPC   PO418626   5.314  13.091   2.919 -0.1301  0.1145  0.0243
    1DPPC   GL118627   5.618  12.793   3.089 -0.0453  0.0298  0.3074
    1DPPC   GL218628   5.832  12.976   3.087 -0.0811 -0.2614  0.0163
    1DPPC   C1A18629   5.586  12.569   3.450  0.3162 -0.2552  0.0508
    1DPPC   C2A18630   5.482  12.743   3.842 -0.0337  0.1051 -0.0667
    1DPPC   C3A18631   5.486  12.740   4.221 -0.0072 -0.2320  0.1036
    1DPPC   C4A18632   5.384  12.842   4.612 -0.1784  0.1966  0.3320
    1DPPC   C1B18633   5.778  13.051   3.532 -0.1085 -0.0075 -0.0805
    1DPPC   C2B18634   5.712  13.178   3.990  0.0336 -0.0415 -0.1333
    1DPPC   C3B18635   5.598  13.242   4.412 -0.1277 -0.2637  0.2262
    1DPPC   C4B18636   5.376  13.314   4.789 -0.0538 -0.1844  0.4924
    1DPPC   NC318637  29.235  17.484   1.758 -0.0076 -0.1212  0.2405
    1DPPC   PO418638  29.215  17.014   1.831 -0.1299  0.0181  0.1020
    1DPPC   GL118639  28.919  16.817   2.108  0.0224 -0.0452 -0.2100
    1DPPC   GL218640  28.870  16.468   2.089  0.1689 -0.1652 -0.1355
    1DPPC   C1A18641  28.652  16.891   2.500 -0.2185 -0.3694 -0.0266
    1DPPC   C2A18642  28.499  16.942   2.892  0.1710  0.4197 -0.0585
    1DPPC   C3A18643  28.478  16.906   3.299 -0.0006  0.0365  0.4610
    1DPPC   C4A18644  28.363  17.037   3.671  0.0788 -0.2407  0.0577
    1DPPC   C1B18645  28.827  16.427   2.432  0.0383  0.1222 -0.0249
    1DPPC   C2B18646  28.714  16.412   2.774  0.1371  0.0042 -0.0014
    1DPPC   C3B18647  28.626  16.457   3.210  0.0263  0.2324 -0.1095
    1DPPC   C4B18648  28.491  16.497   3.619  0.2726  0.1635  0.2444
    1DPPC   NC318649   3.705  20.453   2.561  0.2713  0.3154  0.1504
    1DPPC   PO418650   3.555  20.790   2.592 -0.0964  0.1826  0.0830
    1DPPC   GL118651   3.694  20.730   2.947 -0.2867  0.1113 -0.2439
    1DPPC   GL218652   4.016  20.738   2.881  0.1276 -0.0790 -0.2096
    1DPPC   C1A18653   3.727  20.436   3.174  0.2400 -0.0735  0.3431
    1DPPC   C2A18654   3.679  20.409   3.608  0.1618  0.0042  0.3073
    1DPPC   C3A18655   3.605  20.259   4.076 -0.2763  0.2821  0.2595
    1DPPC   C4A18656   3.534  20.078   4.490 -0.1734 -0.0601  0.0253
    1DPPC   C1B18657   4.134  20.645   3.338 -0.3028  0.1895 -0.2034
    1DPPC   C2B18658   4.142  20.522   3.661  0.0504 -0.0692 -0.0857
    1DPPC   C3B18659   4.112  20.493   4.102 -0.0264  0.3301  0.0772
    1DPPC   C4B18660   3.861  20.524   4.464  0.0903 -0.0368 -0.0820
    1DPPC   NC318661  11.402  11.983   2.844  0.0701 -0.0321  0.0156
    1DPPC   PO418662  11.598  11.942   3.280 -0.0620  0.3700  0.0207
    1DPPC   GL118663  11.643  12.204   3.588 -0.2302  0.0858 -0.1195
    1DPPC   GL218664  11.508  11.993   3.820 -0.2681 -0.2184 -0.0496
    1DPPC   C1A18665  11.759  12.391   3.929  0.1056  0.0209 -0.2120
    1DPPC   C2A18666  11.704  12.362   4.293 -0.1803 -0.1661 -0.1443
    1DPPC   C3A18667  11.870  12.070   4.667 -0.2026  0.1608  0.2183
    1DPPC   C4A18668  12.061  12.190   5.125 -0.1369 -0.1495 -0.1581
    1DPPC   C1B18669  11.632  11.820   4.189  0.0683 -0.1032 -0.0614
    1DPPC   C2B18670  11.530  11.652   4.624 -0.2096  0.1695  0.1361
    1DPPC   C3B18671  11.729  11.595   5.042  0.1789  0.0818 -0.1794
    1DPPC   C4B18672  11.867  11.864   5.476 -0.3260  0.3799 -0.2952
    1DPPC   NC318673   2.444  20.907   2.585 -0.0191  0.1710  0.2385
    1DPPC   PO418674   2.193  20.579   2.442 -0.0477  0.3791  0.0437
    1DPPC   GL118675   2.175  20.376   2.815  0.3733  0.1484 -0.1265
    1DPPC   GL218676   2.212  20.042   2.876  0.2469 -0.1557 -0.0449
    1DPPC   C1A18677   2.254  20.353   3.286  0.0045  0.1384 -0.0272
    1DPPC   C2A18678   2.250  20.285   3.762  0.1799 -0.4069  0.1096
    1DPPC   C3A18679   2.017  20.316   4.074  0.1779  0.2607 -0.2611
    1DPPC   C4A18680   2.014  20.174   4.420 -0.1426 -0.0069  0.2945
    1DPPC   C1B18681   2.294  19.848   3.266  0.0043  0.0992  0.0296
    1DPPC   C2B18682   2.202  19.775   3.696  0.1692 -0.0181 -0.0257
    1DPPC   C3B18683   2.053  19.840   4.025 -0.0614 -0.0893  0.4183
    1DPPC   C4B18684   2.018  19.609   4.330 -0.0277 -0.1811  0.0592
    1DPPC   NC318685  27.125  19.755   1.398  0.0298 -0.1317 -0.1805
    1DPPC   PO418686  27.505  19.849   1.677  0.3137 -0.0994 -0.0396
    1DPPC   GL118687  27.414  19.746   2.088 -0.1654 -0.0244 -0.0299
    1DPPC   GL218688  27.643  19.597   2.185 -0.0883  0.0908  0.3438
    1DPPC   C1A18689  27.347  19.991   2.356  0.2038  0.3884  0.0959
    1DPPC   C2A18690  27.177  19.795   2.744 -0.0933  0.0592  0.1663
    1DPPC   C3A18691  27.146  19.757   3.207 -0.0511  0.3899  0.0193
    1DPPC   C4A18692  26.943  19.862   3.495 -0.1586 -0.3620 -0.1412
    1DPPC   C1B18693  27.524  19.449   2.528  0.0962 -0.0220 -0.2285
    1DPPC   C2B18694  27.525  19.385   2.950 -0.0830 -0.3100 -0.0745
    1DPPC   C3B18695  27.322  19.191   3.335 -0.4778  0.1312 -0.0177
    1DPPC   C4B18696  27.203  18.985   3.551 -0.0334  0.0774  0.0848
    1DPPC   NC318697  13.615   8.918   2.994 -0.1648 -0.1867  0.1677
    1DPPC   PO418698  13.966   9.295   3.051 -0.2557  0.1131  0.2848
    1DPPC   GL118699  13.823   9.303   3.435  0.1860 -0.0716 -0.0040
    1DPPC   GL218700  13.792   8.994   3.597 -0.3033 -0.2376 -0.1177
    1DPPC   C1A18701  14.066   9.349   3.808 -0.1158  0.0741  0.0066
    1DPPC   C2A18702  14.158   9.395   4.200  0.0525 -0.0194  0.2352
    1DPPC   C3A18703  14.485   9.119   4.380  0.1087 -0.0134 -0.0415
    1DPPC   C4A18704  14.863   9.023   4.432 -0.1411  0.0395 -0.2154
    1DPPC   C1B18705  13.651   9.253   4.041 -0.0892  0.3661  0.0663
    1DPPC   C2B18706  13.509   9.187   4.470 -0.2906 -0.0042  0.2370
    1DPPC   C3B18707  13.116   9.002   4.560 -0.1189 -0.2787 -0.0593
    1DPPC   C4B18708  12.670   8.981   4.559  0.0543 -0.3055 -0.1742
    1DPPC   NC318709   1.677  12.273   2.022  0.0780 -0.0948  0.0524
    1DPPC   PO418710   1.869  11.919   2.128 -0.1780 -0.0504  0.1918
    1DPPC   GL118711   1.973  12.045   2.615  0.1060  0.0042  0.0440
    1DPPC   GL218712   2.258  11.927   2.694 -0.0301  0.0453 -0.0540
    1DPPC   C1A18713   1.793  12.359   2.932  0.1294  0.0774  0.0484
    1DPPC   C2A18714   1.454  12.442   3.232  0.0637 -0.0394  0.0269
    1DPPC   C3A18715   1.320  12.601   3.587 -0.3476 -0.0454 -0.1566
    1DPPC   C4A18716   1.497  12.867   3.888  0.0963  0.2008  0.0712
    1DPPC   C1B18717   2.184  12.139   3.065 -0.0156  0.0975 -0.4400
    1DPPC   C2B18718   2.023  12.423   3.369  0.1713 -0.0196 -0.0696
    1DPPC   C3B18719   1.765  12.427   3.755 -0.2339  0.2230 -0.1410
    1DPPC   C4B18720   1.738  12.556   4.136  0.2185 -0.2129 -0.2488
    1DPPC   NC318721  10.725  15.526   2.367 -0.0260  0.0104  0.1370
    1DPPC   PO418722  10.534  15.253   2.705  0.1810 -0.0169 -0.0209
    1DPPC   GL118723  10.563  15.480   3.208 -0.2584 -0.0588  0.0067
    1DPPC   GL218724  10.511  15.803   3.241 -0.1583 -0.1870 -0.0719
    1DPPC   C1A18725  10.519  15.373   3.530  0.2380 -0.0816  0.0430
    1DPPC   C2A18726  10.534  15.332   4.004  0.0596  0.0053  0.1691
    1DPPC   C3A18727  10.715  15.239   4.467 -0.0443 -0.1303  0.0455
    1DPPC   C4A18728  11.199  15.143   4.618  0.0241  0.1462 -0.3837
    1DPPC   C1B18729  10.587  15.790   3.752 -0.0475  0.2818 -0.3078
    1DPPC   C2B18730  10.560  15.827   4.172  0.0910  0.1924 -0.1121
    1DPPC   C3B18731  10.642  15.778   4.580 -0.2499 -0.1334 -0.1554
    1DPPC   C4B18732  10.660  15.795   5.030 -0.1433 -0.3256 -0.1221
    1DPPC   NC318733   7.246  18.914   2.456 -0.0138  0.2407  0.1106
    1DPPC   PO418734   6.880  18.648   2.326  0.4054 -0.1512 -0.1309
    1DPPC   GL118735   6.843  18.679   2.696  0.3208 -0.0782  0.0922
    1DPPC   GL218736   6.758  18.392   2.777  0.1435  0.0684 -0.1381
    1DPPC   C1A18737   6.937  18.914   3.035  0.0488  0.0011  0.1523
    1DPPC   C2A18738   6.882  18.964   3.513 -0.3045 -0.1800 -0.2272
    1DPPC   C3A18739   6.879  19.087   3.976 -0.3032  0.1005  0.1102
    1DPPC   C4A18740   6.679  19.224   4.352  0.1342 -0.2849  0.0691
    1DPPC   C1B18741   6.729  18.489   3.194  0.2636 -0.0205 -0.0362
    1DPPC   C2B18742   6.740  18.515   3.589 -0.0186 -0.1400 -0.1078
    1DPPC   C3B18743   6.684  18.542   4.077  0.3600 -0.1944 -0.1898
    1DPPC   C4B18744   6.710  18.437   4.573  0.0808 -0.1585  0.4349
    1DPPC   NC318745   2.797  18.956   2.052 -0.0291 -0.0406  0.1972
    1DPPC   PO418746   2.739  19.365   2.151 -0.1314 -0.0516 -0.0411
    1DPPC   GL118747   2.806  19.267   2.561 -0.0668  0.1622  0.2400
    1DPPC   GL218748   2.564  19.105   2.729 -0.1545  0.1380 -0.1098
    1DPPC   C1A18749   3.001  19.234   3.002  0.1352 -0.0039 -0.0347
    1DPPC   C2A18750   3.044  19.143   3.392  0.1944 -0.1175 -0.0877
    1DPPC   C3A18751   3.059  19.021   3.893  0.0672 -0.1084  0.3324
    1DPPC   C4A18752   2.949  19.014   4.247  0.1990 -0.1135  0.0253
    1DPPC   C1B18753   2.637  18.956   3.181 -0.0839 -0.0413 -0.2296
    1DPPC   C2B18754   2.728  18.749   3.508 -0.1355  0.1515 -0.0583
    1DPPC   C3B18755   2.576  18.688   3.882 -0.1413  0.0727  0.2139
    1DPPC   C4B18756   2.501  18.806   4.255  0.0943  0.1395  0.2293
    1DPPC   NC318757  25.296  18.321   1.231 -0.2785 -0.1187  0.1980
    1DPPC   PO418758  25.726  18.291   1.378  0.2596 -0.0293  0.1365
    1DPPC   GL118759  25.613  18.320   1.785 -0.3652  0.1077  0.2616
    1DPPC   GL218760  25.613  18.570   1.812  0.1917 -0.2002  0.1974
    1DPPC   C1A18761  25.523  18.018   2.143  0.3570 -0.3321 -0.1442
    1DPPC   C2A18762  25.696  17.964   2.555 -0.1556  0.2429 -0.1446
    1DPPC   C3A18763  25.587  17.974   2.992  0.2069  0.2933 -0.0114
    1DPPC   C4A18764  25.661  17.768   3.486  0.1559 -0.4894  0.1914
    1DPPC   C1B18765  25.544  18.509   2.287 -0.0327  0.0263 -0.2624
    1DPPC   C2B18766  25.546  18.385   2.723  0.0997 -0.3040 -0.0793
    1DPPC   C3B18767  25.770  18.620   3.036 -0.0625  0.2863 -0.0161
    1DPPC   C4B18768  25.795  18.851   3.440 -0.1312 -0.1339 -0.0432
    1DPPC   NC318769  25.934  29.753   3.686  0.2008 -0.0972  0.4063
    1DPPC   PO418770  26.219  29.586   3.453  0.4161  0.1795 -0.0968
    1DPPC   GL118771  26.500  29.644   3.737  0.1471  0.0951 -0.1851
    1DPPC   GL218772  26.660  29.390   3.793  0.2335  0.1255  0.0279
    1DPPC   C1A18773  26.348  29.578   4.143 -0.1790  0.0538 -0.0694
    1DPPC   C2A18774  26.536  29.921   4.368  0.0539  0.0047  0.1830
    1DPPC   C3A18775  26.796  30.315   4.329 -0.0016  0.1003 -0.0317
    1DPPC   C4A18776  27.195  30.518   4.459  0.3873  0.0260 -0.0271
    1DPPC   C1B18777  26.810  29.406   4.135 -0.1150  0.0659 -0.1592
    1DPPC   C2B18778  27.004  29.764   4.412 -0.1366 -0.1690  0.4737
    1DPPC   C3B18779  27.413  30.074   4.641  0.1793  0.1667 -0.2148
    1DPPC   C4B18780  27.779  30.289   4.618 -0.2039 -0.0845  0.1016
    1DPPC   NC318781   8.392  20.235   2.590 -0.0243  0.0405  0.0044
    1DPPC   PO418782   7.943  20.411   2.516  0.0329 -0.1494 -0.0098
    1DPPC   GL118783   8.109  20.574   2.892  0.0375  0.2123 -0.1043
    1DPPC   GL218784   8.158  20.915   2.843  0.0239  0.2136  0.0091
    1DPPC   C1A18785   8.161  20.322   3.255 -0.3418 -0.0435  0.2250
    1DPPC   C2A18786   8.309  20.311   3.732  0.3284 -0.0903  0.0655
    1DPPC   C3A18787   8.540  20.124   4.068 -0.1157  0.1895  0.3403
    1DPPC   C4A18788   8.952  20.250   4.240 -0.2247  0.2779  0.2300
    1DPPC   C1B18789   8.452  20.780   3.208  0.1198  0.1627  0.0180
    1DPPC   C2B18790   8.702  20.631   3.669  0.0380 -0.0985  0.1054
    1DPPC   C3B18791   8.689  20.656   4.192  0.1345 -0.1049  0.2170
    1DPPC   C4B18792   8.665  20.536   4.617 -0.3896 -0.1607  0.0077
    1DPPC   NC318793   7.464  19.907   2.622 -0.0873 -0.1123  0.0274
    1DPPC   PO418794   7.889  19.962   2.767  0.2283 -0.1737 -0.0906
    1DPPC   GL118795   8.153  19.827   3.009 -0.0404 -0.1135  0.2227
    1DPPC   GL218796   8.443  19.835   2.868  0.3933 -0.1502  0.2340
    1DPPC   C1A18797   8.308  19.811   3.372 -0.1674 -0.0493  0.0561
    1DPPC   C2A18798   8.300  19.774   3.785 -0.1095  0.4222  0.1475
    1DPPC   C3A18799   8.213  19.756   4.157 -0.0128  0.0395  0.1529
    1DPPC   C4A18800   8.145  19.637   4.620 -0.0838 -0.1878 -0.0151
    1DPPC   C1B18801   8.780  19.776   3.144 -0.0855  0.0557 -0.0522
    1DPPC   C2B18802   9.070  19.731   3.459 -0.0004  0.1832  0.0977
    1DPPC   C3B18803   9.243  19.720   3.840  0.1526 -0.1305  0.2556
    1DPPC   C4B18804   9.271  19.810   4.329 -0.0221  0.1274 -0.0499
    1DPPC   NC318805   9.940   3.057   3.327  0.1400 -0.0429  0.0040
    1DPPC   PO418806   9.563   3.171   3.693 -0.0505 -0.1039 -0.0105
    1DPPC   GL118807   9.554   3.030   4.086 -0.0669  0.5122 -0.0640
    1DPPC   GL218808   9.516   3.218   4.223 -0.1457  0.0643  0.3101
    1DPPC   C1A18809   9.249   2.762   4.257  0.0552  0.0839 -0.2603
    1DPPC   C2A18810   9.107   2.442   4.490 -0.3011  0.1071 -0.0402
    1DPPC   C3A18811   9.005   2.267   4.828 -0.0915  0.0567  0.2343
    1DPPC   C4A18812   8.980   2.010   5.129  0.0182  0.3234 -0.0892
    1DPPC   C1B18813   9.497   2.960   4.614  0.1892 -0.0956  0.0889
    1DPPC   C2B18814   9.126   2.801   4.844  0.3405 -0.0855  0.2119
    1DPPC   C3B18815   8.922   2.666   5.268 -0.0255  0.0177 -0.4942
    1DPPC   C4B18816   8.692   2.278   5.522  0.1556  0.1559  0.1626
    1DPPC   NC318817  28.044  11.386   2.446  0.0647  0.0128 -0.1853
    1DPPC   PO418818  28.506  11.831   2.392 -0.0044 -0.2221  0.0760
    1DPPC   GL118819  28.506  12.046   2.734 -0.4962  0.1230  0.1745
    1DPPC   GL218820  28.166  12.237   2.838  0.3018  0.0030 -0.1840
    1DPPC   C1A18821  28.639  12.084   3.118  0.2949  0.0792  0.0913
    1DPPC   C2A18822  28.842  12.282   3.337 -0.3526 -0.0661  0.1079
    1DPPC   C3A18823  28.881  12.417   3.842  0.1981 -0.0839 -0.0758
    1DPPC   C4A18824  28.886  12.535   4.231 -0.2925  0.0427  0.1909
    1DPPC   C1B18825  27.979  12.331   3.135  0.2233  0.1794 -0.0157
    1DPPC   C2B18826  27.836  12.556   3.453 -0.0010  0.0633 -0.3692
    1DPPC   C3B18827  27.795  12.660   3.878  0.3294  0.1979  0.1441
    1DPPC   C4B18828  27.894  12.759   4.258 -0.0058  0.0455 -0.1302
    1DPPC   NC318829   2.809  14.818   2.449 -0.2240 -0.0296 -0.0254
    1DPPC   PO418830   2.470  14.692   2.502 -0.0877 -0.3480  0.2197
    1DPPC   GL118831   2.169  14.725   2.886  0.1182 -0.1293  0.2984
    1DPPC   GL218832   1.924  14.501   3.043  0.3340  0.0794 -0.1082
    1DPPC   C1A18833   2.101  14.803   3.384 -0.0009 -0.1283 -0.3263
    1DPPC   C2A18834   2.019  14.825   3.824  0.1488 -0.1186  0.0132
    1DPPC   C3A18835   1.950  14.714   4.240  0.2308  0.0772 -0.0322
    1DPPC   C4A18836   2.054  14.720   4.709 -0.1279 -0.2131 -0.0047
    1DPPC   C1B18837   1.788  14.421   3.415  0.0190 -0.0747  0.0558
    1DPPC   C2B18838   1.902  14.313   3.871  0.2950 -0.0443 -0.0044
    1DPPC   C3B18839   1.582  14.373   4.042  0.0336  0.1453  0.0420
    1DPPC   C4B18840   1.290  14.663   4.164 -0.1089 -0.0750 -0.0769
    1DPPC   NC318841   9.999  14.539   2.605 -0.0612 -0.0694  0.2701
    1DPPC   PO418842   9.820  14.926   2.803  0.0259  0.0026  0.0447
    1DPPC   GL118843   9.675  15.119   3.112 -0.0450 -0.0454 -0.0152
    1DPPC   GL218844   9.404  14.888   3.141 -0.0615  0.1024  0.0462
    1DPPC   C1A18845   9.478  15.348   3.450 -0.1358 -0.2823  0.1920
    1DPPC   C2A18846   9.599  15.513   3.765 -0.2429 -0.0445  0.1843
    1DPPC   C3A18847   9.600  15.515   4.201  0.2385  0.0909 -0.1047
    1DPPC   C4A18848   9.760  15.561   4.596  0.0479  0.0963 -0.2127
    1DPPC   C1B18849   9.308  14.482   3.364 -0.1381 -0.0505 -0.1591
    1DPPC   C2B18850   9.317  14.485   3.758 -0.1632  0.0599 -0.0696
    1DPPC   C3B18851   9.334  14.669   4.147  0.1540  0.0401  0.0911
    1DPPC   C4B18852   9.617  14.980   4.347 -0.3838  0.2251 -0.2215
    1DPPC   NC318853   5.646  16.722   2.554 -0.1511 -0.2366  0.0395
    1DPPC   PO418854   6.007  16.599   2.596  0.0526 -0.2187  0.1524
    1DPPC   GL118855   6.170  16.640   3.001  0.1768  0.0822  0.0255
    1DPPC   GL218856   6.262  16.988   2.991  0.0328  0.0921  0.0404
    1DPPC   C1A18857   6.046  16.816   3.407  0.1072  0.1405  0.3096
    1DPPC   C2A18858   5.933  16.878   3.782 -0.0772 -0.3278 -0.1504
    1DPPC   C3A18859   6.009  16.750   4.248  0.1216 -0.2289 -0.1080
    1DPPC   C4A18860   6.080  16.633   4.593  0.0841 -0.1459 -0.1922
    1DPPC   C1B18861   6.461  17.138   3.277 -0.1697 -0.0017  0.0696
    1DPPC   C2B18862   6.382  17.090   3.699  0.0416  0.0385  0.1618
    1DPPC   C3B18863   6.379  17.034   4.150  0.1090  0.0895 -0.1508
    1DPPC   C4B18864   6.522  16.988   4.582 -0.0797  0.0951  0.0789
    1DPPC   NC318865   9.184  13.271   2.604  0.1622  0.0359  0.2490
    1DPPC   PO418866   9.204  13.028   2.969 -0.0162 -0.4764 -0.0948
    1DPPC   GL118867   9.367  13.131   3.342  0.2881 -0.0059 -0.0089
    1DPPC   GL218868   9.548  12.803   3.474 -0.0590  0.4233 -0.0300
    1DPPC   C1A18869   9.349  13.277   3.762 -0.1281 -0.2028 -0.4269
    1DPPC   C2A18870   9.480  13.246   4.164  0.2484  0.0834  0.0073
    1DPPC   C3A18871   9.448  13.348   4.599  0.0124  0.1259  0.0934
    1DPPC   C4A18872   9.743  13.361   4.855  0.0300  0.0022 -0.1078
    1DPPC   C1B18873   9.637  12.771   3.797  0.0101 -0.2398 -0.0859
    1DPPC   C2B18874   9.593  12.778   4.200 -0.0152 -0.1427 -0.0010
    1DPPC   C3B18875   9.719  12.936   4.587 -0.0866  0.0872  0.1648
    1DPPC   C4B18876   9.603  12.841   4.911 -0.1514 -0.0085 -0.0236
    1DPPC   NC318877   9.158  21.106   2.167 -0.1261  0.1844 -0.1985
    1DPPC   PO418878   8.846  21.114   2.488  0.0907 -0.0337  0.0126
    1DPPC   GL118879   8.765  21.106   2.977  0.2790 -0.1210 -0.0634
    1DPPC   GL218880   8.482  21.291   3.108  0.1883 -0.1261  0.0695
    1DPPC   C1A18881   8.889  20.961   3.344  0.0355  0.1554  0.0798
    1DPPC   C2A18882   8.878  21.062   3.816  0.1022 -0.2949  0.0519
    1DPPC   C3A18883   8.911  21.124   4.223  0.0593  0.5074 -0.1076
    1DPPC   C4A18884   9.015  20.891   4.560 -0.3155 -0.1667  0.3093
    1DPPC   C1B18885   8.469  21.195   3.515 -0.2466  0.1292 -0.1100
    1DPPC   C2B18886   8.362  21.006   3.885 -0.3025 -0.0892 -0.1542
    1DPPC   C3B18887   8.391  21.023   4.281 -0.0368  0.0170 -0.0763
    1DPPC   C4B18888   8.246  21.200   4.643 -0.3250  0.1564  0.2054
    1DPPC   NC318889   8.159  12.138   2.853  0.0449  0.3361  0.0302
    1DPPC   PO418890   7.901  12.356   2.691  0.0268  0.0768 -0.3848
    1DPPC   GL118891   7.758  12.372   3.064 -0.2176 -0.0914 -0.0728
    1DPPC   GL218892   7.951  12.539   3.345 -0.2026  0.1615  0.0484
    1DPPC   C1A18893   7.457  12.518   3.432  0.1664 -0.1200  0.0589
    1DPPC   C2A18894   7.398  12.476   3.869 -0.0888  0.0664 -0.1163
    1DPPC   C3A18895   7.332  12.343   4.333  0.0565 -0.0262  0.3093
    1DPPC   C4A18896   7.358  12.168   4.797 -0.0612 -0.0647  0.0493
    1DPPC   C1B18897   8.012  12.500   3.838 -0.1668  0.2381 -0.1322
    1DPPC   C2B18898   7.803  12.490   4.186 -0.1044  0.0637 -0.2195
    1DPPC   C3B18899   7.691  12.501   4.589 -0.0931  0.1340  0.3784
    1DPPC   C4B18900   7.695  12.635   4.979 -0.0120  0.3840 -0.2755
    1DPPC   NC318901   9.062  11.791   2.956 -0.0722 -0.0903  0.0694
    1DPPC   PO418902   9.028  11.352   3.099  0.0882  0.2510 -0.0613
    1DPPC   GL118903   9.034  11.615   3.451  0.2767  0.1893  0.3814
    1DPPC   GL218904   8.766  11.719   3.539  0.2195  0.0653  0.0656
    1DPPC   C1A18905   9.176  11.841   3.750 -0.5768 -0.1976 -0.2018
    1DPPC   C2A18906   9.200  11.880   4.162 -0.0684  0.2946  0.0532
    1DPPC   C3A18907   9.106  11.982   4.558 -0.1744  0.0541 -0.0328
    1DPPC   C4A18908   9.245  12.092   5.040  0.2246  0.1179  0.2142
    1DPPC   C1B18909   8.717  11.829   3.927  0.1306  0.1618 -0.0698
    1DPPC   C2B18910   8.671  11.889   4.343  0.2361 -0.0487  0.4085
    1DPPC   C3B18911   8.696  11.957   4.812  0.1143  0.0995  0.2172
    1DPPC   C4B18912   8.696  11.799   5.220 -0.0465 -0.0688  0.0808
    1DPPC   NC318913   8.294  13.087   2.728 -0.1058  0.2117  0.0037
    1DPPC   PO418914   8.070  13.358   2.995 -0.2157  0.1132 -0.0989
    1DPPC   GL118915   8.349  13.383   3.312  0.0428  0.0543  0.2259
    1DPPC   GL218916   8.264  13.041   3.442 -0.0622 -0.1702 -0.2427
    1DPPC   C1A18917   8.328  13.468   3.775 -0.0643 -0.1579  0.0606
    1DPPC   C2A18918   8.290  13.494   4.225  0.2117  0.2815  0.1151
    1DPPC   C3A18919   8.502  13.240   4.543 -0.2828  0.0240 -0.0057
    1DPPC   C4A18920   8.668  12.889   4.630 -0.2448  0.1240  0.0484
    1DPPC   C1B18921   8.139  13.003   3.859  0.0858  0.0761  0.0068
    1DPPC   C2B18922   8.063  13.002   4.296  0.0508 -0.0399 -0.1979
    1DPPC   C3B18923   7.953  12.998   4.674 -0.0919  0.0007 -0.1388
    1DPPC   C4B18924   7.940  13.174   4.979 -0.1965  0.1025 -0.1769
    1DPPC   NC318925   8.914  12.599   2.919  0.0226 -0.0309  0.0017
    1DPPC   PO418926   8.667  12.188   2.840  0.1272 -0.0343  0.0898
    1DPPC   GL118927   8.877  12.198   3.251 -0.0404 -0.0424  0.0739
    1DPPC   GL218928   9.159  12.202   3.339 -0.0616  0.1746 -0.1862
    1DPPC   C1A18929   8.820  12.257   3.667  0.0037  0.1334  0.0416
    1DPPC   C2A18930   8.877  12.289   4.093 -0.3059  0.1297  0.2345
    1DPPC   C3A18931   8.728  12.404   4.441 -0.0083 -0.1972 -0.1066
    1DPPC   C4A18932   8.928  12.485   4.812  0.3450 -0.0536  0.1115
    1DPPC   C1B18933   9.316  12.374   3.754  0.1013 -0.2972  0.0201
    1DPPC   C2B18934   9.305  12.412   4.241  0.2611  0.2385  0.1146
    1DPPC   C3B18935   9.424  12.438   4.594 -0.0908 -0.0741 -0.4790
    1DPPC   C4B18936   9.629  12.399   5.074  0.0592  0.0892 -0.1350
    1DPPC   NC318937   3.286  13.949   2.343  0.1139  0.2561 -0.1105
    1DPPC   PO418938   3.496  13.657   2.102 -0.4717 -0.2408  0.0869
    1DPPC   GL118939   3.504  13.669   2.663  0.0071  0.0354 -0.0647
    1DPPC   GL218940   3.313  13.382   2.824 -0.0714 -0.1692  0.3204
    1DPPC   C1A18941   3.699  13.711   3.044 -0.1595  0.0650  0.1841
    1DPPC   C2A18942   3.738  13.827   3.541 -0.0874  0.0252 -0.1343
    1DPPC   C3A18943   3.734  13.743   3.876 -0.0957  0.0063 -0.1727
    1DPPC   C4A18944   3.863  13.663   4.276  0.0108  0.1403  0.1896
    1DPPC   C1B18945   3.070  13.296   3.209  0.2263  0.0908  0.0278
    1DPPC   C2B18946   3.001  13.186   3.656 -0.1306  0.0734 -0.0357
    1DPPC   C3B18947   3.131  13.036   4.032  0.0634 -0.0236  0.2912
    1DPPC   C4B18948   3.186  13.092   4.498 -0.2177 -0.1587 -0.2027
    1DPPC   NC318949   1.365  21.586   1.987  0.1245 -0.0024  0.1947
    1DPPC   PO418950   1.347  21.157   2.268  0.1197 -0.0918  0.1241
    1DPPC   GL118951   1.458  21.138   2.709 -0.1678  0.1232 -0.3092
    1DPPC   GL218952   1.174  21.289   2.925 -0.0603 -0.1168  0.0008
    1DPPC   C1A18953   1.619  21.054   3.139 -0.1169  0.1697  0.1436
    1DPPC   C2A18954   1.802  21.111   3.558  0.0629  0.2454  0.2387
    1DPPC   C3A18955   1.824  21.086   3.998 -0.0064  0.1934 -0.0124
    1DPPC   C4A18956   1.721  21.068   4.461 -0.2369  0.1804 -0.2456
    1DPPC   C1B18957   1.031  21.327   3.320  0.1182 -0.1988 -0.0188
    1DPPC   C2B18958   0.948  21.476   3.762 -0.0276  0.0412 -0.0558
    1DPPC   C3B18959   0.920  21.516   4.248  0.0700 -0.0114 -0.0769
    1DPPC   C4B18960   0.872  21.795   4.603  0.0904 -0.2398 -0.1582
    1DPPC   NC318961   1.519  15.223   2.626 -0.1288 -0.1603 -0.2798
    1DPPC   PO418962   1.214  15.301   2.343 -0.1631  0.2310  0.2600
    1DPPC   GL118963   1.045  15.393   2.693  0.2522 -0.2398  0.2111
    1DPPC   GL218964   1.276  15.489   3.039 -0.0245  0.0329  0.2750
    1DPPC   C1A18965   0.842  15.314   3.078  0.0207  0.3012  0.1249
    1DPPC   C2A18966   0.562  15.219   3.447 -0.4804  0.0542  0.0389
    1DPPC   C3A18967   0.438  15.499   3.709  0.0861  0.0097 -0.1186
    1DPPC   C4A18968   0.431  15.711   4.039  0.1635 -0.0197 -0.1185
    1DPPC   C1B18969   1.190  15.390   3.485 -0.0481  0.1035  0.1498
    1DPPC   C2B18970   0.902  15.450   3.855 -0.4287  0.5792  0.2175
    1DPPC   C3B18971   0.750  15.290   4.202 -0.1441 -0.1107 -0.0828
    1DPPC   C4B18972   0.729  14.895   4.285 -0.3931  0.2092  0.1141
    1DPPC   NC318973   8.596  19.420   2.560  0.2060  0.3228  0.1022
    1DPPC   PO418974   8.193  19.289   2.749  0.0897  0.2229 -0.1576
    1DPPC   GL118975   8.342  19.350   3.122  0.0615 -0.1055 -0.3972
    1DPPC   GL218976   8.259  19.044   3.183 -0.1600  0.0154  0.1715
    1DPPC   C1A18977   8.653  19.341   3.463  0.2506 -0.0800  0.0756
    1DPPC   C2A18978   8.767  19.515   3.799 -0.1358 -0.1726 -0.3385
    1DPPC   C3A18979   8.711  19.727   4.287 -0.1321  0.2070 -0.0584
    1DPPC   C4A18980   8.907  19.493   4.721 -0.2012  0.0633 -0.1123
    1DPPC   C1B18981   8.294  19.084   3.626 -0.2872  0.4043  0.1194
    1DPPC   C2B18982   8.427  19.301   4.070 -0.1747  0.0929  0.0128
    1DPPC   C3B18983   8.503  19.292   4.489  0.0333  0.2465  0.0611
    1DPPC   C4B18984   8.470  19.400   4.920 -0.0152  0.0241  0.0679
    1DPPC   NC318985  26.931  10.502   2.563 -0.0213  0.2424 -0.3047
    1DPPC   PO418986  26.568  10.171   2.715  0.0987 -0.0418 -0.0234
    1DPPC   GL118987  26.862  10.301   3.063 -0.1277  0.0875  0.1237
    1DPPC   GL218988  27.266  10.296   2.951 -0.2641  0.0111 -0.3991
    1DPPC   C1A18989  26.755  10.472   3.443 -0.0737  0.0391  0.0323
    1DPPC   C2A18990  26.932  10.404   3.845 -0.2026 -0.0249  0.0674
    1DPPC   C3A18991  26.730  10.501   4.238 -0.2226 -0.0618  0.1429
    1DPPC   C4A18992  26.684  10.540   4.737  0.1853 -0.1858 -0.0110
    1DPPC   C1B18993  27.378  10.445   3.254 -0.0468 -0.0018  0.1077
    1DPPC   C2B18994  27.467  10.566   3.607 -0.0905  0.0105 -0.1889
    1DPPC   C3B18995  27.636  10.686   3.876 -0.0116  0.0114  0.0103
    1DPPC   C4B18996  27.677  10.771   4.245 -0.1838 -0.0149 -0.0473
    1DPPC   NC318997   4.599  17.000   2.157 -0.0475 -0.3540 -0.1265
    1DPPC   PO418998   4.259  17.237   2.044  0.0951 -0.1540 -0.0394
    1DPPC   GL118999   4.093  17.378   2.451  0.1204  0.1679  0.1373
    1DPPC   GL219000   4.105  17.732   2.556 -0.0965 -0.2380 -0.0311
    1DPPC   C1A19001   3.893  17.347   2.909 -0.0919  0.0222  0.1126
    1DPPC   C2A19002   3.879  17.106   3.329  0.3856 -0.0914 -0.3202
    1DPPC   C3A19003   3.842  17.186   3.713  0.1246  0.3062 -0.0761
    1DPPC   C4A19004   3.836  17.389   4.088  0.1801 -0.3379  0.2336
    1DPPC   C1B19005   4.058  17.993   2.903  0.2020 -0.1925  0.1016
    1DPPC   C2B19006   3.988  17.988   3.249  0.0953 -0.0961  0.0882
    1DPPC   C3B19007   3.959  18.027   3.652  0.0346 -0.2745 -0.2069
    1DPPC   C4B19008   4.025  18.134   4.087  0.0613 -0.0728 -0.1925
    1DPPC   NC319009   7.658  17.480   2.752  0.0125  0.1700 -0.2446
    1DPPC   PO419010   7.801  17.042   2.802  0.2926  0.1057  0.0320
    1DPPC   GL119011   7.676  16.866   3.218  0.0776  0.0436  0.2568
    1DPPC   GL219012   7.532  16.611   3.180  0.3104  0.1990 -0.1260
    1DPPC   C1A19013   7.658  16.922   3.629  0.2942  0.1159  0.0082
    1DPPC   C2A19014   7.509  17.146   3.928 -0.0465  0.2669 -0.0288
    1DPPC   C3A19015   7.378  17.224   4.307 -0.2591  0.0104  0.0163
    1DPPC   C4A19016   7.263  16.934   4.593 -0.2840  0.4413  0.0894
    1DPPC   C1B19017   7.312  16.584   3.556 -0.0427  0.1410 -0.1369
    1DPPC   C2B19018   7.243  16.655   3.933  0.0804 -0.1116 -0.0198
    1DPPC   C3B19019   7.461  16.678   4.216  0.1681  0.0539  0.0852
    1DPPC   C4B19020   7.737  16.520   4.615 -0.0939 -0.1098  0.1227
    1DPPC   NC319021  26.199  23.852   2.149  0.0038 -0.0379 -0.0858
    1DPPC   PO419022  26.152  23.730   2.635 -0.2254  0.2987 -0.2546
    1DPPC   GL119023  26.205  23.701   3.019 -0.4386 -0.1480  0.2263
    1DPPC   GL219024  26.601  23.706   3.001  0.4697  0.2466  0.0692
    1DPPC   C1A19025  26.072  23.385   3.214  0.1664  0.1596  0.1831
    1DPPC   C2A19026  25.899  23.078   3.424 -0.0159 -0.0800  0.2046
    1DPPC   C3A19027  25.627  22.744   3.358 -0.1263  0.0723  0.0394
    1DPPC   C4A19028  25.180  22.689   3.365  0.2501 -0.2097  0.2946
    1DPPC   C1B19029  26.564  23.513   3.321  0.1295  0.3745 -0.4195
    1DPPC   C2B19030  26.839  23.560   3.752  0.3011  0.1672  0.2537
    1DPPC   C3B19031  26.857  23.547   4.147 -0.1403  0.0613  0.0877
    1DPPC   C4B19032  27.208  23.534   4.490  0.1316  0.1600  0.1932
    1DPPC   NC319033   9.827  16.280   2.520  0.4425 -0.3801 -0.2949
    1DPPC   PO419034   9.984  16.650   2.647  0.0755 -0.2725 -0.1420
    1DPPC   GL119035   9.954  16.642   3.014  0.1186 -0.1269 -0.2507
    1DPPC   GL219036  10.269  16.657   3.066 -0.1102  0.0752 -0.0960
    1DPPC   C1A19037   9.878  16.566   3.397 -0.0438  0.0254 -0.3024
    1DPPC   C2A19038   9.860  16.527   3.806  0.2688  0.0037 -0.1867
    1DPPC   C3A19039   9.826  16.683   4.143 -0.1215  0.0727  0.1497
    1DPPC   C4A19040   9.945  16.904   4.550  0.1753 -0.1360  0.2075
    1DPPC   C1B19041  10.368  16.636   3.537  0.3009  0.1112  0.1336
    1DPPC   C2B19042  10.396  16.611   3.989 -0.2267  0.0562 -0.1453
    1DPPC   C3B19043  10.445  16.865   4.471  0.0765 -0.0563 -0.1450
    1DPPC   C4B19044  10.544  17.062   4.830  0.1752 -0.2133  0.1655
    1DPPC   NC319045  13.399   9.646   3.013  0.0408 -0.1794  0.0067
    1DPPC   PO419046  13.152   9.422   3.203  0.0544 -0.2459  0.1967
    1DPPC   GL119047  13.369   9.253   3.512  0.0843 -0.2226  0.0896
    1DPPC   GL219048  13.141   9.334   3.720 -0.1314 -0.3834 -0.2746
    1DPPC   C1A19049  13.372   8.905   3.846 -0.1284 -0.0458  0.1036
    1DPPC   C2A19050  13.425   8.754   4.284 -0.2224 -0.1364  0.1036
    1DPPC   C3A19051  13.534   8.704   4.621 -0.0909 -0.1172 -0.1052
    1DPPC   C4A19052  13.433   9.002   4.955  0.0576 -0.0429  0.3127
    1DPPC   C1B19053  13.213   9.402   4.159 -0.0989  0.2384 -0.0176
    1DPPC   C2B19054  13.019   9.474   4.416 -0.1197 -0.1442 -0.1580
    1DPPC   C3B19055  12.870   9.719   4.666  0.1473  0.3961 -0.0214
    1DPPC   C4B19056  12.745   9.957   4.985  0.0716  0.0264  0.0771
    1DPPC   NC319057   8.616  17.156   2.478  0.0600  0.1584  0.2839
    1DPPC   PO419058   9.080  17.283   2.543  0.1126  0.0453  0.2912
    1DPPC   GL119059   8.954  16.962   2.904  0.1496 -0.0906  0.1475
    1DPPC   GL219060   8.786  17.198   2.991 -0.0130  0.0195  0.0793
    1DPPC   C1A19061   9.046  16.897   3.345 -0.0128 -0.0629  0.0659
    1DPPC   C2A19062   9.032  17.005   3.709  0.1113 -0.0556 -0.5737
    1DPPC   C3A19063   9.034  16.913   4.161 -0.1012  0.3824 -0.2117
    1DPPC   C4A19064   9.096  17.003   4.585 -0.2419  0.0195 -0.0550
    1DPPC   C1B19065   8.666  17.239   3.438 -0.1623  0.0631  0.0976
    1DPPC   C2B19066   8.696  17.355   3.860  0.1966  0.0194  0.2815
    1DPPC   C3B19067   8.797  17.276   4.310  0.1560  0.0596  0.1798
    1DPPC   C4B19068   8.822  17.444   4.732  0.1908  0.2914  0.3265
    1DPPC   NC319069   3.849  23.361   2.899  0.0786 -0.0002  0.0199
    1DPPC   PO419070   4.337  23.399   2.982  0.0911 -0.2857  0.0171
    1DPPC   GL119071   4.366  23.254   3.487  0.3466 -0.0062 -0.1264
    1DPPC   GL219072   4.014  23.231   3.560  0.0046  0.0276 -0.0924
    1DPPC   C1A19073   4.200  22.827   3.771  0.0175  0.1662  0.4308
    1DPPC   C2A19074   4.126  22.694   4.234 -0.2355 -0.0665 -0.1429
    1DPPC   C3A19075   3.924  22.782   4.534  0.2720 -0.1725 -0.1262
    1DPPC   C4A19076   3.706  22.798   4.932 -0.0588 -0.4387  0.0692
    1DPPC   C1B19077   4.002  23.162   4.062  0.0451  0.4227  0.2333
    1DPPC   C2B19078   3.976  23.286   4.542  0.2518  0.0245  0.1890
    1DPPC   C3B19079   3.653  23.312   4.820  0.0780 -0.1418 -0.1519
    1DPPC   C4B19080   3.605  23.590   5.215 -0.2350 -0.1323 -0.1462
    1DPPC   NC319081   6.314  21.924   2.977  0.2368 -0.0602  0.0636
    1DPPC   PO419082   6.573  21.587   2.848  0.0267  0.0130 -0.0792
    1DPPC   GL119083   6.731  21.545   3.198  0.1774  0.0618 -0.2622
    1DPPC   GL219084   6.509  21.320   3.305 -0.0438 -0.1520 -0.1869
    1DPPC   C1A19085   7.041  21.483   3.413  0.1614 -0.0183 -0.1813
    1DPPC   C2A19086   6.968  21.433   3.829  0.1082  0.0409  0.0720
    1DPPC   C3A19087   6.864  21.346   4.264  0.0844  0.1697 -0.4752
    1DPPC   C4A19088   7.017  21.615   4.617  0.1172  0.1418 -0.4914
    1DPPC   C1B19089   6.498  21.313   3.734  0.1881  0.3649 -0.1417
    1DPPC   C2B19090   6.396  21.204   4.150  0.0272  0.1082  0.1605
    1DPPC   C3B19091   6.085  21.056   4.513 -0.1538 -0.0464  0.1562
    1DPPC   C4B19092   5.770  21.231   4.935 -0.1666 -0.2366 -0.0957
    1DPPC   NC319093   0.351  16.313   2.110  0.1539 -0.1003 -0.2518
    1DPPC   PO419094   0.226  16.476   1.719  0.0765 -0.3887 -0.0374
    1DPPC   GL119095   0.101  16.714   2.039  0.1497  0.0464 -0.1177
    1DPPC   GL219096   0.203  16.964   2.205 -0.2033  0.2112 -0.2668
    1DPPC   C1A19097  -0.102  16.611   2.445  0.1044 -0.1537 -0.2975
    1DPPC   C2A19098  -0.190  16.734   2.865  0.5243 -0.2298  0.1248
    1DPPC   C3A19099  -0.308  16.702   3.311  0.3833 -0.0828 -0.1136
    1DPPC   C4A19100  -0.398  16.737   3.730  0.3630  0.0853 -0.1176
    1DPPC   C1B19101   0.082  17.051   2.622 -0.0048 -0.0837  0.2168
    1DPPC   C2B19102   0.122  17.192   2.991  0.1514  0.0531  0.2844
    1DPPC   C3B19103  -0.010  17.159   3.343 -0.0180 -0.2461 -0.0207
    1DPPC   C4B19104   0.138  17.049   3.735  0.0399 -0.1821 -0.3582
    1DPPC   NC319105   7.365  16.800   2.712 -0.2890  0.0083  0.2595
    1DPPC   PO419106   7.369  16.335   2.661 -0.2606 -0.0881 -0.2371
    1DPPC   GL119107   7.474  16.084   3.008  0.0940  0.1995 -0.1031
    1DPPC   GL219108   7.535  15.846   2.965 -0.1566 -0.1655 -0.0151
    1DPPC   C1A19109   7.401  16.112   3.445 -0.0183 -0.1173  0.0765
    1DPPC   C2A19110   7.274  16.079   3.840  0.1311 -0.1489  0.1903
    1DPPC   C3A19111   7.276  16.153   4.212 -0.0482  0.0971 -0.0168
    1DPPC   C4A19112   7.172  15.952   4.516 -0.1229 -0.4187 -0.1471
    1DPPC   C1B19113   7.204  15.695   3.219  0.1181  0.0284 -0.2374
    1DPPC   C2B19114   7.039  15.666   3.642  0.1277 -0.3347  0.0083
    1DPPC   C3B19115   7.049  15.684   4.061  0.2435  0.1666 -0.0235
    1DPPC   C4B19116   6.944  15.469   4.433  0.0491  0.3643  0.3396
    1DPPC   NC319117   1.470  19.259   2.209  0.2831  0.3393 -0.3048
    1DPPC   PO419118   1.286  19.562   2.062  0.0842 -0.0252 -0.2535
    1DPPC   GL119119   1.118  19.457   2.555  0.0318 -0.3238  0.1433
    1DPPC   GL219120   1.474  19.448   2.681 -0.1493  0.0425  0.0041
    1DPPC   C1A19121   0.953  19.531   2.886  0.2023 -0.1177  0.1742
    1DPPC   C2A19122   0.720  19.528   3.220 -0.0417 -0.3405  0.1253
    1DPPC   C3A19123   0.660  19.440   3.565 -0.0167 -0.2083 -0.3993
    1DPPC   C4A19124   0.789  19.459   3.990 -0.2920  0.0889  0.1271
    1DPPC   C1B19125   1.518  19.482   3.067  0.0033 -0.0411  0.1106
    1DPPC   C2B19126   1.533  19.520   3.593 -0.0936 -0.1137  0.1013
    1DPPC   C3B19127   1.293  19.598   3.986  0.1992  0.0228 -0.0873
    1DPPC   C4B19128   0.965  19.946   4.306  0.2904  0.0928 -0.2769
    1DPPC   NC319129   0.330  22.211   1.867 -0.1135 -0.1196 -0.2870
    1DPPC   PO419130   0.529  22.260   2.352 -0.2406  0.1507 -0.2033
    1DPPC   GL119131   0.555  22.092   2.896  0.0142  0.0351  0.0117
    1DPPC   GL219132   0.447  21.904   3.056  0.1027  0.0847  0.1603
    1DPPC   C1A19133   0.476  22.379   3.256  0.0416 -0.0316 -0.0321
    1DPPC   C2A19134   0.255  22.753   3.371  0.2074  0.0219  0.5974
    1DPPC   C3A19135   0.142  22.866   3.764 -0.1244 -0.2671 -0.0713
    1DPPC   C4A19136   0.040  23.209   3.944  0.1026  0.0138  0.0953
    1DPPC   C1B19137   0.745  21.904   3.431 -0.3916 -0.0724 -0.0480
    1DPPC   C2B19138   0.836  21.957   3.873 -0.1102  0.3519  0.0478
    1DPPC   C3B19139   0.471  21.912   4.288  0.0564 -0.1462  0.0932
    1DPPC   C4B19140   0.045  21.950   4.463  0.1159  0.0274  0.2288
    1DPPC   NC319141  10.819  16.915   2.395 -0.0870  0.0424 -0.3995
    1DPPC   PO419142  10.689  16.687   2.759 -0.3328  0.0060  0.0945
    1DPPC   GL119143  10.620  16.953   3.142  0.0501 -0.0316  0.0566
    1DPPC   GL219144  10.774  16.784   3.326  0.1510  0.0013  0.0201
    1DPPC   C1A19145  10.476  17.165   3.541  0.1107 -0.1182  0.0054
    1DPPC   C2A19146  10.572  17.286   3.995 -0.1462 -0.2355  0.0251
    1DPPC   C3A19147  10.734  17.433   4.366 -0.0425 -0.2927  0.1542
    1DPPC   C4A19148  11.059  17.242   4.699  0.1772  0.3104 -0.1856
    1DPPC   C1B19149  10.885  16.842   3.736 -0.0871 -0.0855 -0.1291
    1DPPC   C2B19150  10.909  16.807   4.170  0.0904  0.1930  0.1143
    1DPPC   C3B19151  11.210  16.579   4.406  0.2293  0.0135  0.1963
    1DPPC   C4B19152  11.321  16.480   4.793  0.1990  0.0031 -0.1814
    1DIPC   NC319153  11.225  19.440   2.956 -0.1526 -0.3362  0.1266
    1DIPC   PO419154  10.941  19.736   2.740  0.0635  0.0266 -0.4458
    1DIPC   GL119155  10.863  19.757   3.123 -0.1397  0.1677 -0.2201
    1DIPC   GL219156  10.491  19.729   3.146 -0.0759 -0.3301  0.1969
    1DIPC   C1A19157  10.791  19.594   3.568 -0.1984 -0.2286 -0.3509
    1DIPC   D2A19158  11.164  19.638   3.876  0.0319  0.1648 -0.3277
    1DIPC   D3A19159  11.059  19.432   4.153 -0.1525  0.1613 -0.2603
    1DIPC   C4A19160  11.058  19.667   4.540 -0.3422 -0.0516 -0.4219
    1DIPC   C1B19161  10.364  19.517   3.434  0.0548 -0.3167  0.1152
    1DIPC   D2B19162  10.201  19.496   3.834  0.1985  0.1038 -0.0315
    1DIPC   D3B19163  10.306  19.157   4.123  0.1539  0.0593  0.1390
    1DIPC   C4B19164  10.045  18.824   4.412 -0.2181  0.2236 -0.0618
    1DIPC   NC319165  15.349  27.597   3.206  0.0575  0.0918  0.2292
    1DIPC   PO419166  15.589  28.017   3.152 -0.0954 -0.0201  0.0697
    1DIPC   GL119167  15.808  28.118   3.611  0.3703 -0.1075 -0.1484
    1DIPC   GL219168  15.695  28.528   3.724  0.3220  0.3625 -0.3569
    1DIPC   C1A19169  16.043  28.211   4.102  0.1804  0.1500 -0.2212
    1DIPC   D2A19170  15.833  28.260   4.534 -0.0589 -0.2018 -0.0256
    1DIPC   D3A19171  15.411  28.389   4.337 -0.0134 -0.0405  0.1118
    1DIPC   C4A19172  15.179  28.374   4.675 -0.4570 -0.1717 -0.1134
    1DIPC   C1B19173  15.745  28.797   4.143  0.0837 -0.0512 -0.1198
    1DIPC   D2B19174  15.963  28.994   4.513 -0.1301  0.1443 -0.0826
    1DIPC   D3B19175  15.877  28.695   4.778 -0.2976 -0.2454 -0.3358
    1DIPC   C4B19176  16.048  28.491   5.161 -0.3655 -0.0153  0.1975
    1DIPC   NC319177   8.178   7.079   3.470  0.0743 -0.2265  0.2607
    1DIPC   PO419178   8.594   6.998   3.552 -0.2241 -0.0611 -0.3482
    1DIPC   GL119179   8.791   6.998   4.010  0.2264  0.1256  0.3110
    1DIPC   GL219180   8.964   6.692   4.081  0.1058  0.1313  0.1316
    1DIPC   C1A19181   8.972   7.309   4.262  0.2570  0.3686 -0.2442
    1DIPC   D2A19182   9.010   7.622   4.452 -0.0333  0.0094 -0.0933
    1DIPC   D3A19183   9.403   7.392   4.602  0.1545  0.3648  0.1608
    1DIPC   C4A19184   9.775   7.511   4.765 -0.0656  0.3743  0.1143
    1DIPC   C1B19185   8.881   6.689   4.462  0.1018  0.1240 -0.2470
    1DIPC   D2B19186   8.710   6.716   4.789 -0.0255  0.1166 -0.3891
    1DIPC   D3B19187   9.081   6.580   5.011 -0.0950 -0.1493 -0.2203
    1DIPC   C4B19188   9.445   6.844   5.043 -0.0234 -0.1339 -0.4492
    1DIPC   NC319189  23.118   5.126   2.798  0.0388 -0.0832  0.0179
    1DIPC   PO419190  23.394   4.785   3.069  0.2239  0.3755  0.2453
    1DIPC   GL119191  23.209   4.677   3.528 -0.2287 -0.1182 -0.0201
    1DIPC   GL219192  23.185   5.002   3.705  0.2237 -0.1904  0.0935
    1DIPC   C1A19193  22.992   4.232   3.836 -0.2159  0.2148  0.1237
    1DIPC   D2A19194  22.703   4.058   4.214  0.1434 -0.0785 -0.0946
    1DIPC   D3A19195  22.587   3.683   4.042  0.3494 -0.2186 -0.2708
    1DIPC   C4A19196  22.208   3.379   4.177 -0.1271 -0.0853 -0.3467
    1DIPC   C1B19197  22.799   4.722   3.882  0.2963 -0.2544 -0.3389
    1DIPC   D2B19198  22.384   4.784   3.678 -0.1764 -0.4707 -0.3787
    1DIPC   D3B19199  22.285   4.943   4.064  0.2757 -0.2023  0.0006
    1DIPC   C4B19200  22.186   5.320   4.281  0.0837  0.4368 -0.0516
    1DIPC   NC319201  14.646   1.448   2.384 -0.2670  0.0104 -0.1719
    1DIPC   PO419202  14.745   1.792   2.750 -0.2034  0.1850 -0.3592
    1DIPC   GL119203  14.545   1.784   3.159 -0.2925  0.2695 -0.2689
    1DIPC   GL219204  14.321   1.584   3.010 -0.0711 -0.0023 -0.3749
    1DIPC   C1A19205  14.327   1.843   3.525  0.2553 -0.0236 -0.2365
    1DIPC   D2A19206  14.212   1.863   3.967 -0.0312  0.3068 -0.0522
    1DIPC   D3A19207  14.557   2.029   4.318  0.0703  0.1285  0.1041
    1DIPC   C4A19208  14.758   1.789   4.635 -0.3253 -0.0696  0.1664
    1DIPC   C1B19209  14.276   1.346   3.375  0.4473  0.3295 -0.1849
    1DIPC   D2B19210  14.321   1.419   3.767 -0.0073  0.0497 -0.1417
    1DIPC   D3B19211  14.733   1.623   3.612 -0.0502  0.0577 -0.0992
    1DIPC   C4B19212  14.745   2.035   3.720  0.0388  0.2254  0.0073
    1DIPC   NC319213  15.313  29.601   2.748 -0.0419  0.0933  0.0305
    1DIPC   PO419214  14.819  29.483   2.961 -0.0748  0.0351 -0.1176
    1DIPC   GL119215  15.000  29.632   3.359 -0.0762 -0.1724 -0.3305
    1DIPC   GL219216  14.739  29.686   3.511  0.0604  0.1571  0.0626
    1DIPC   C1A19217  15.372  29.567   3.510 -0.1078  0.0872 -0.3098
    1DIPC   D2A19218  15.809  29.532   3.441 -0.1240  0.0410  0.1725
    1DIPC   D3A19219  16.099  29.193   3.499 -0.2380  0.0289  0.0348
    1DIPC   C4A19220  16.137  28.987   3.819 -0.1158 -0.1530 -0.2828
    1DIPC   C1B19221  15.138  29.897   3.792 -0.0561  0.0315  0.1628
    1DIPC   D2B19222  15.502  29.756   4.012  0.1094 -0.0425  0.0287
    1DIPC   D3B19223  15.401  29.949   4.509  0.1670  0.1154 -0.1315
    1DIPC   C4B19224  15.653  29.738   4.853  0.0888  0.2812  0.1659
    1DIPC   NC319225  13.615  22.201   2.389 -0.0714 -0.3159  0.0937
    1DIPC   PO419226  13.526  22.030   2.649 -0.0129  0.0239  0.2916
    1DIPC   GL119227  13.575  22.316   3.078 -0.1496  0.2431  0.1002
    1DIPC   GL219228  13.342  22.558   3.146  0.2380 -0.3090 -0.0788
    1DIPC   C1A19229  13.779  22.383   3.423 -0.2718 -0.1947 -0.2127
    1DIPC   D2A19230  13.677  22.434   3.762  0.1037 -0.0863 -0.0583
    1DIPC   D3A19231  13.282  22.246   3.855  0.2152 -0.0189  0.1239
    1DIPC   C4A19232  12.844  22.340   3.763 -0.0430  0.0584  0.0601
    1DIPC   C1B19233  13.234  22.659   3.542  0.2681 -0.0222 -0.0544
    1DIPC   D2B19234  13.333  22.686   4.047 -0.3048  0.1876  0.1993
    1DIPC   D3B19235  13.221  22.998   4.296  0.1320 -0.0925 -0.0873
    1DIPC   C4B19236  12.775  23.018   4.442 -0.0623  0.1414 -0.0574
    1DIPC   NC319237  11.888   9.820   3.115  0.2646  0.3417  0.0162
    1DIPC   PO419238  11.590  10.099   3.232 -0.2650 -0.0232  0.1922
    1DIPC   GL119239  11.636  10.296   3.630  0.1991 -0.0749 -0.1842
    1DIPC   GL219240  11.487  10.613   3.578 -0.1417  0.1066  0.0163
    1DIPC   C1A19241  11.711  10.072   4.104  0.0167  0.0073 -0.2062
    1DIPC   D2A19242  12.057   9.865   4.206 -0.0051 -0.2887 -0.0718
    1DIPC   D3A19243  12.025   9.505   4.454  0.0718 -0.0492 -0.0821
    1DIPC   C4A19244  12.492   9.454   4.439  0.2314  0.0192 -0.1639
    1DIPC   C1B19245  11.615  10.726   3.979 -0.0477 -0.2206  0.3121
    1DIPC   D2B19246  11.698  10.753   4.453  0.0832  0.2802 -0.1364
    1DIPC   D3B19247  11.801  10.416   4.584 -0.3452 -0.0557  0.1815
    1DIPC   C4B19248  11.981  10.697   4.912  0.0848 -0.1517  0.0637
    1DIPC   NC319249  27.252   2.965   2.723  0.4351 -0.1011  0.2661
    1DIPC   PO419250  27.199   3.432   2.726  0.0578 -0.0805  0.0606
    1DIPC   GL119251  27.427   3.297   3.084  0.0668 -0.3747  0.0393
    1DIPC   GL219252  27.357   3.047   3.214 -0.2332 -0.1541 -0.2144
    1DIPC   C1A19253  27.710   3.316   3.522 -0.2554 -0.3405  0.1004
    1DIPC   D2A19254  27.920   3.238   3.760 -0.2114  0.3951 -0.0058
    1DIPC   D3A19255  27.903   2.778   3.990 -0.0341 -0.0603  0.3144
    1DIPC   C4A19256  27.893   2.921   4.474 -0.1767 -0.1856 -0.0076
    1DIPC   C1B19257  27.123   3.239   3.631  0.0263  0.2030 -0.1322
    1DIPC   D2B19258  26.795   3.102   4.025 -0.0019 -0.4915  0.0660
    1DIPC   D3B19259  27.135   3.240   4.259 -0.1033 -0.2713 -0.0060
    1DIPC   C4B19260  27.456   3.239   4.691  0.1832  0.2166 -0.1347
    1DIPC   NC319261   9.169   9.384   2.329  0.0425  0.0524 -0.0586
    1DIPC   PO419262   9.207   9.052   2.675  0.2439  0.0930  0.1427
    1DIPC   GL119263   9.155   8.957   3.185 -0.2619 -0.1056  0.0240
    1DIPC   GL219264   9.033   8.740   3.283 -0.2019  0.0818 -0.1575
    1DIPC   C1A19265   9.396   9.032   3.629  0.2650 -0.0014  0.1274
    1DIPC   D2A19266   9.554   9.064   4.056  0.0364 -0.0252 -0.2940
    1DIPC   D3A19267   9.704   9.473   4.144 -0.0137 -0.2195  0.0525
    1DIPC   C4A19268   9.928   9.687   4.471  0.0699 -0.0440 -0.1054
    1DIPC   C1B19269   8.944   8.851   3.722  0.2229  0.1781 -0.0757
    1DIPC   D2B19270   9.030   8.962   4.099  0.2920  0.1266 -0.0826
    1DIPC   D3B19271   8.820   8.882   4.522  0.2566  0.1007  0.2463
    1DIPC   C4B19272   9.159   8.571   4.817  0.2375 -0.1410  0.2654
    1DIPC   NC319273  16.054  17.080   2.654  0.1253  0.0275 -0.1423
    1DIPC   PO419274  15.635  17.105   2.851  0.0147 -0.0401 -0.0594
    1DIPC   GL119275  15.706  17.198   3.264  0.2400  0.0142 -0.3058
    1DIPC   GL219276  15.458  17.122   3.423  0.0548 -0.0316  0.5179
    1DIPC   C1A19277  15.930  17.243   3.588  0.0977  0.1155 -0.2809
    1DIPC   D2A19278  16.151  16.973   3.984  0.1792  0.0088  0.0853
    1DIPC   D3A19279  16.265  16.731   3.667  0.2298 -0.0829 -0.0286
    1DIPC   C4A19280  16.129  16.357   3.550 -0.1163  0.1773 -0.2311
    1DIPC   C1B19281  15.212  17.245   3.721 -0.0552 -0.0636 -0.0827
    1DIPC   D2B19282  15.041  16.858   3.999  0.1507 -0.0593 -0.2676
    1DIPC   D3B19283  15.367  16.736   4.233  0.1075 -0.0304  0.1408
    1DIPC   C4B19284  15.691  16.376   4.282  0.0554  0.3912  0.4592
    1DIPC   NC319285  20.417  14.689   2.743  0.1198 -0.0563  0.1542
    1DIPC   PO419286  20.122  15.019   2.745 -0.0942 -0.2654  0.4989
    1DIPC   GL119287  20.342  15.113   3.066 -0.1140 -0.3769  0.1270
    1DIPC   GL219288  20.286  14.737   3.239  0.0334  0.1124 -0.2221
    1DIPC   C1A19289  20.696  15.391   3.103 -0.0705  0.0012 -0.1186
    1DIPC   D2A19290  20.948  15.581   3.383  0.0348 -0.0833 -0.1710
    1DIPC   D3A19291  20.607  15.659   3.582  0.0070 -0.3129 -0.3965
    1DIPC   C4A19292  20.228  15.806   3.702 -0.1039  0.2275  0.0484
    1DIPC   C1B19293  20.235  14.757   3.723  0.0367  0.0003  0.0105
    1DIPC   D2B19294  20.096  14.403   3.959 -0.0037  0.4189  0.0359
    1DIPC   D3B19295  20.285  13.991   4.043  0.2178 -0.1925  0.2166
    1DIPC   C4B19296  20.719  13.910   3.995 -0.0325  0.1661  0.0785
    1DIPC   NC319297  15.652   5.299   2.979  0.0909  0.0435 -0.1323
    1DIPC   PO419298  15.898   5.304   3.402  0.1812 -0.0434 -0.0039
    1DIPC   GL119299  16.044   5.272   3.799  0.1895  0.2651 -0.3058
    1DIPC   GL219300  16.309   5.414   3.867 -0.1151  0.2879  0.0427
    1DIPC   C1A19301  16.064   5.132   4.282  0.0081 -0.2555 -0.1995
    1DIPC   D2A19302  15.808   4.838   4.545 -0.4567  0.0389 -0.1519
    1DIPC   D3A19303  15.535   5.040   4.384  0.2115  0.1438  0.1943
    1DIPC   C4A19304  15.678   5.417   4.492  0.1389  0.1459  0.1155
    1DIPC   C1B19305  16.097   5.658   4.160  0.2786 -0.3631  0.0789
    1DIPC   D2B19306  15.978   6.016   4.460 -0.5367  0.2499 -0.2405
    1DIPC   D3B19307  15.786   5.818   4.834  0.0345 -0.2993 -0.2199
    1DIPC   C4B19308  15.944   5.667   5.210 -0.0305  0.0365 -0.3918
    1DIPC   NC319309   2.038  27.648   2.984 -0.1847 -0.1152 -0.0545
    1DIPC   PO419310   1.698  27.494   2.998 -0.1201  0.0839  0.2915
    1DIPC   GL119311   1.434  27.261   3.343 -0.0017  0.1700 -0.1972
    1DIPC   GL219312   1.618  27.012   3.452  0.2084 -0.0340 -0.0491
    1DIPC   C1A19313   1.234  27.324   3.840 -0.1517  0.0704 -0.1680
    1DIPC   D2A19314   0.983  27.288   4.093  0.2226  0.0421  0.0977
    1DIPC   D3A19315   1.078  27.609   4.515 -0.0327 -0.2670 -0.0082
    1DIPC   C4A19316   1.433  27.818   4.462  0.1212  0.0253 -0.0921
    1DIPC   C1B19317   1.646  27.008   3.979 -0.0297  0.0228  0.3635
    1DIPC   D2B19318   1.405  27.386   4.290 -0.1531 -0.1136 -0.0110
    1DIPC   D3B19319   1.389  27.276   4.701 -0.0602 -0.0835  0.1685
    1DIPC   C4B19320   1.564  26.902   4.978 -0.0153 -0.2672  0.2355
    1DIPC   NC319321  13.701  17.311   2.490  0.3241 -0.0555 -0.1326
    1DIPC   PO419322  13.972  17.257   2.828  0.2764 -0.0357 -0.2490
    1DIPC   GL119323  13.903  17.190   3.325  0.2865  0.0419  0.0977
    1DIPC   GL219324  14.122  17.003   3.265 -0.0237 -0.0797 -0.1429
    1DIPC   C1A19325  14.023  17.168   3.749  0.1692 -0.0558 -0.2483
    1DIPC   D2A19326  13.770  17.282   4.114 -0.0665 -0.1679  0.2053
    1DIPC   D3A19327  14.161  17.190   4.441 -0.2373 -0.0151  0.0606
    1DIPC   C4A19328  14.242  16.738   4.560 -0.0713 -0.3480  0.2781
    1DIPC   C1B19329  14.332  16.779   3.652  0.1970  0.1319 -0.0327
    1DIPC   D2B19330  14.290  16.317   3.671  0.0641 -0.0767  0.0946
    1DIPC   D3B19331  13.979  16.205   4.035 -0.0586 -0.1127 -0.1516
    1DIPC   C4B19332  14.014  16.352   4.405  0.0690 -0.1364 -0.1460
    1DIPC   NC319333  29.265  22.399   2.200  0.0085 -0.2318  0.0256
    1DIPC   PO419334  28.897  22.385   2.078  0.1283  0.2293  0.0442
    1DIPC   GL119335  28.950  22.341   2.566  0.1758  0.0568  0.0187
    1DIPC   GL219336  29.058  22.140   2.652 -0.2250  0.0521 -0.2096
    1DIPC   C1A19337  29.121  22.588   2.946  0.2862  0.2403 -0.1788
    1DIPC   D2A19338  29.163  22.558   3.319 -0.0551  0.4868 -0.1471
    1DIPC   D3A19339  29.024  22.637   3.723  0.1285 -0.2089 -0.1148
    1DIPC   C4A19340  29.106  22.983   4.025 -0.0655  0.1922  0.1388
    1DIPC   C1B19341  29.013  22.144   3.088 -0.0590  0.0852 -0.1078
    1DIPC   D2B19342  28.718  22.103   3.444  0.2253 -0.1062  0.1465
    1DIPC   D3B19343  28.766  21.929   3.842 -0.2287  0.0479  0.1590
    1DIPC   C4B19344  28.703  22.149   4.319  0.3166 -0.0380 -0.1862
    1DIPC   NC319345   2.436   7.406   2.453  0.1315 -0.1986  0.0027
    1DIPC   PO419346   2.038   7.564   2.165  0.0179 -0.0832 -0.0152
    1DIPC   GL119347   1.881   7.496   2.617 -0.1082  0.1175 -0.0410
    1DIPC   GL219348   2.126   7.361   2.860 -0.0215  0.2380  0.2623
    1DIPC   C1A19349   1.815   7.821   2.864  0.1838 -0.0310  0.0391
    1DIPC   D2A19350   2.190   7.934   3.166 -0.0188  0.0285 -0.0540
    1DIPC   D3A19351   2.647   7.912   3.256  0.2082 -0.0268 -0.0163
    1DIPC   C4A19352   2.889   7.765   3.605  0.0163 -0.0642 -0.3033
    1DIPC   C1B19353   2.294   7.464   3.280  0.1398  0.0484  0.1244
    1DIPC   D2B19354   2.354   7.615   3.778 -0.2539  0.0567  0.1878
    1DIPC   D3B19355   2.605   7.323   3.642 -0.0037 -0.0984  0.2996
    1DIPC   C4B19356   2.527   7.032   3.112 -0.2063  0.3933 -0.1468
    1DIPC   NC319357  16.066  15.713   2.251  0.2510 -0.0569 -0.3868
    1DIPC   PO419358  15.737  15.389   2.260  0.0251  0.1131  0.0838
    1DIPC   GL119359  15.974  15.347   2.643 -0.2667 -0.2620 -0.1966
    1DIPC   GL219360  15.872  15.585   2.822 -0.2295  0.1086  0.1492
    1DIPC   C1A19361  16.264  15.343   2.956  0.0303  0.0967 -0.0954
    1DIPC   D2A19362  16.699  15.452   2.940 -0.1098  0.0972  0.0140
    1DIPC   D3A19363  16.843  15.720   3.301 -0.0488 -0.1266  0.0256
    1DIPC   C4A19364  16.576  16.056   3.514 -0.1174  0.3363 -0.1813
    1DIPC   C1B19365  15.910  15.477   3.270 -0.1593 -0.0274  0.1847
    1DIPC   D2B19366  15.998  15.322   3.641  0.0027  0.2927  0.1803
    1DIPC   D3B19367  16.289  15.557   3.908 -0.2528 -0.4810 -0.2789
    1DIPC   C4B19368  16.701  15.660   3.840  0.5531 -0.0020  0.0789
    1DIPC   NC319369   7.193  25.845   2.611 -0.0492  0.0452  0.1869
    1DIPC   PO419370   7.367  25.498   2.946 -0.2004 -0.3043 -0.1272
    1DIPC   GL119371   7.523  25.581   3.397  0.2740 -0.0575 -0.1555
    1DIPC   GL219372   7.864  25.537   3.442 -0.0230 -0.1122 -0.0598
    1DIPC   C1A19373   7.339  25.857   3.678  0.3411  0.2802  0.0303
    1DIPC   D2A19374   7.077  26.058   3.721  0.0332  0.0801 -0.0641
    1DIPC   D3A19375   6.958  25.729   4.055 -0.3321 -0.0756  0.4969
    1DIPC   C4A19376   6.630  25.814   4.332 -0.2580 -0.1109  0.1970
    1DIPC   C1B19377   7.761  25.569   3.888 -0.3507  0.3273 -0.0775
    1DIPC   D2B19378   7.239  25.377   4.105 -0.0253 -0.0614 -0.1860
    1DIPC   D3B19379   7.246  25.162   4.494  0.2580 -0.1261 -0.0893
    1DIPC   C4B19380   6.928  24.878   4.630  0.0612 -0.1213  0.2603
    1DIPC   NC319381  11.286   9.241   3.072 -0.1873 -0.1803  0.0444
    1DIPC   PO419382  11.405   9.594   3.149 -0.2447 -0.0088  0.2059
    1DIPC   GL119383  11.275   9.704   3.470 -0.4829  0.0405  0.0351
    1DIPC   GL219384  11.501   9.801   3.658  0.1289  0.0560 -0.1975
    1DIPC   C1A19385  11.004   9.565   3.702  0.0943  0.3427 -0.0118
    1DIPC   D2A19386  10.786   9.617   4.104  0.0319  0.0931 -0.1019
    1DIPC   D3A19387  10.641   9.621   4.544  0.5004 -0.0193  0.0313
    1DIPC   C4A19388  10.981   9.637   4.706 -0.2126 -0.4259  0.2287
    1DIPC   C1B19389  11.265   9.805   4.035 -0.0507  0.4498 -0.0259
    1DIPC   D2B19390  10.877  10.046   4.327  0.0198  0.2625 -0.2031
    1DIPC   D3B19391  10.998  10.149   4.697 -0.1412  0.1178 -0.0725
    1DIPC   C4B19392  10.880  10.393   5.013 -0.1465  0.2254 -0.0232
    1DIPC   NC319393   8.315  25.072   2.685 -0.0516 -0.2950 -0.4040
    1DIPC   PO419394   8.086  25.226   3.047 -0.0610  0.2432  0.1175
    1DIPC   GL119395   8.112  25.035   3.458  0.1936 -0.2160 -0.1955
    1DIPC   GL219396   8.055  25.160   3.782 -0.0437 -0.0953 -0.1161
    1DIPC   C1A19397   8.367  24.696   3.444  0.1036 -0.0047  0.1906
    1DIPC   D2A19398   8.453  24.464   3.768  0.0880  0.0588 -0.0537
    1DIPC   D3A19399   8.091  24.130   3.844 -0.1664  0.0545  0.1820
    1DIPC   C4A19400   7.676  24.188   3.697  0.0812  0.0066  0.0887
    1DIPC   C1B19401   8.076  25.244   4.256 -0.3925 -0.3831 -0.1004
    1DIPC   D2B19402   8.153  25.096   4.610 -0.0789  0.1540 -0.1356
    1DIPC   D3B19403   8.535  25.214   4.930  0.0845  0.1024 -0.1663
    1DIPC   C4B19404   8.638  25.114   5.341 -0.0882 -0.0397  0.1141
    1DIPC   NC319405  21.056  24.012   2.651  0.1576 -0.0798  0.2767
    1DIPC   PO419406  20.677  24.159   2.817  0.0272  0.1331  0.0947
    1DIPC   GL119407  20.534  24.293   3.156 -0.1252  0.3063  0.0082
    1DIPC   GL219408  20.674  24.530   3.268 -0.1617 -0.1923 -0.1008
    1DIPC   C1A19409  20.348  24.173   3.511 -0.2884 -0.4915 -0.1372
    1DIPC   D2A19410  20.225  23.773   3.566  0.0684 -0.1777  0.1607
    1DIPC   D3A19411  20.185  23.609   3.988  0.2226  0.2422  0.1889
    1DIPC   C4A19412  19.950  23.821   4.307 -0.1045 -0.0873  0.1510
    1DIPC   C1B19413  20.583  24.753   3.596 -0.1867  0.0467 -0.0004
    1DIPC   D2B19414  20.427  25.039   3.787 -0.0133  0.0003  0.1695
    1DIPC   D3B19415  20.484  24.676   4.107  0.0995  0.0900  0.3101
    1DIPC   C4B19416  20.703  24.539   4.405 -0.1373  0.0988 -0.1363
    1DIPC   NC319417  22.821   2.841   3.264  0.2209 -0.3185  0.2529
    1DIPC   PO419418  22.719   2.680   3.671  0.0053  0.3924  0.4231
    1DIPC   GL119419  22.762   2.756   4.074  0.4426  0.0151 -0.1902
    1DIPC   GL219420  22.473   2.898   4.069 -0.2258 -0.0516 -0.0969
    1DIPC   C1A19421  22.968   2.779   4.430 -0.2827  0.1289  0.0759
    1DIPC   D2A19422  22.890   2.950   4.756  0.0780  0.1345  0.1970
    1DIPC   D3A19423  22.978   2.760   5.075  0.0752  0.1256  0.0645
    1DIPC   C4A19424  22.974   2.308   5.279 -0.0775  0.0213  0.1711
    1DIPC   C1B19425  22.701   3.287   4.342  0.2885 -0.3894 -0.0333
    1DIPC   D2B19426  22.649   3.415   4.845  0.1157 -0.1384 -0.2337
    1DIPC   D3B19427  22.292   3.565   4.634  0.1063  0.0794 -0.0865
    1DIPC   C4B19428  21.939   3.308   4.612  0.1229 -0.0821 -0.1817
    1DIPC   NC319429   4.252   8.519   2.638  0.1549 -0.2403 -0.1946
    1DIPC   PO419430   3.736   8.308   2.624  0.0816  0.2169  0.0013
    1DIPC   GL119431   3.455   8.169   2.911  0.1415  0.0113 -0.2944
    1DIPC   GL219432   3.651   8.302   3.169 -0.0530  0.1082 -0.0122
    1DIPC   C1A19433   3.333   8.081   3.399 -0.1987  0.1665  0.1131
    1DIPC   D2A19434   3.491   7.969   3.857 -0.2562 -0.2629  0.0625
    1DIPC   D3A19435   3.104   7.693   4.031  0.3146 -0.0494 -0.2134
    1DIPC   C4A19436   3.033   7.276   3.907  0.0105  0.0791  0.0091
    1DIPC   C1B19437   3.400   8.569   3.506 -0.0568 -0.0270  0.4207
    1DIPC   D2B19438   3.122   8.761   3.889  0.0352 -0.0222  0.2332
    1DIPC   D3B19439   3.099   8.348   4.010 -0.0304 -0.0648 -0.0874
    1DIPC   C4B19440   3.221   8.185   4.433 -0.0082  0.0774  0.0579
    1DIPC   NC319441  19.329  26.184   3.897  0.0743 -0.0370  0.2351
    1DIPC   PO419442  18.923  25.973   3.692 -0.3059 -0.1875 -0.1332
    1DIPC   GL119443  18.862  25.721   4.040  0.3374 -0.0268 -0.0627
    1DIPC   GL219444  19.156  25.848   4.185 -0.0666 -0.1180 -0.2431
    1DIPC   C1A19445  18.962  25.444   4.316  0.1164 -0.1134 -0.2123
    1DIPC   D2A19446  19.174  25.663   4.669  0.2788  0.3012 -0.1872
    1DIPC   D3A19447  18.933  25.404   4.788 -0.3269 -0.0503 -0.2555
    1DIPC   C4A19448  19.004  25.427   5.147  0.0230 -0.0029 -0.1062
    1DIPC   C1B19449  19.292  26.115   4.562  0.1659  0.0739 -0.0796
    1DIPC   D2B19450  19.476  26.457   4.852  0.1375 -0.2403  0.0599
    1DIPC   D3B19451  19.340  26.865   4.913 -0.1519  0.0546 -0.0908
    1DIPC   C4B19452  19.578  27.220   4.765  0.0509 -0.0500  0.1511
    1DIPC   NC319453  13.866   1.606   2.319 -0.0665 -0.3323 -0.5688
    1DIPC   PO419454  13.820   1.612   2.749  0.1049  0.1884 -0.2565
    1DIPC   GL119455  13.757   1.487   3.170 -0.4232 -0.0353  0.1805
    1DIPC   GL219456  13.832   1.091   3.296 -0.0326 -0.2388 -0.1763
    1DIPC   C1A19457  13.838   1.590   3.609 -0.0002  0.1009  0.0910
    1DIPC   D2A19458  13.677   1.841   3.911 -0.1144  0.0775 -0.0895
    1DIPC   D3A19459  13.705   1.698   4.375 -0.0738 -0.0740 -0.2537
    1DIPC   C4A19460  13.425   1.915   4.553  0.1506  0.2807 -0.3649
    1DIPC   C1B19461  13.990   1.071   3.717  0.0650  0.2131  0.1411
    1DIPC   D2B19462  13.934   1.401   4.052 -0.0620  0.2344  0.0611
    1DIPC   D3B19463  14.226   1.545   4.348  0.4643  0.0276 -0.1845
    1DIPC   C4B19464  14.706   1.613   4.143 -0.0536  0.1936 -0.1709
    1DIPC   NC319465  19.494   2.168   3.573 -0.2480  0.0524 -0.0450
    1DIPC   PO419466  19.161   2.349   3.274  0.2243 -0.0725 -0.0351
    1DIPC   GL119467  19.162   2.531   3.703  0.1670 -0.1636  0.1450
    1DIPC   GL219468  19.387   2.638   3.934  0.1880 -0.1576 -0.1064
    1DIPC   C1A19469  18.818   2.516   3.992 -0.1768  0.0125 -0.1477
    1DIPC   D2A19470  18.385   2.545   3.856 -0.2029 -0.1489 -0.0824
    1DIPC   D3A19471  18.131   2.175   4.025 -0.0223 -0.0197  0.2631
    1DIPC   C4A19472  17.979   2.148   4.404  0.1314 -0.0642  0.4861
    1DIPC   C1B19473  19.191   2.560   4.325  0.1312 -0.0543  0.0432
    1DIPC   D2B19474  19.128   2.356   4.717 -0.1006 -0.0748  0.2321
    1DIPC   D3B19475  18.753   2.102   4.673 -0.0631  0.2369  0.3921
    1DIPC   C4B19476  18.453   2.262   4.387 -0.2387  0.0245 -0.1423
    1DIPC   NC319477   2.784  10.298   2.290  0.0199  0.0880 -0.1747
    1DIPC   PO419478   2.466  10.390   2.581 -0.1010  0.0513  0.2632
    1DIPC   GL119479   2.205  10.202   2.940 -0.5071 -0.2028  0.0705
    1DIPC   GL219480   2.268   9.823   2.943 -0.0869  0.3674 -0.0142
    1DIPC   C1A19481   2.045  10.131   3.362 -0.1667 -0.1407 -0.0445
    1DIPC   D2A19482   2.220   9.933   3.797  0.1672  0.2300 -0.0393
    1DIPC   D3A19483   2.374  10.271   3.701  0.0751 -0.0461 -0.1391
    1DIPC   C4A19484   2.405  10.475   3.298 -0.2286 -0.0929  0.1300
    1DIPC   C1B19485   2.332   9.648   3.419  0.1441 -0.2246  0.0266
    1DIPC   D2B19486   2.515   9.389   3.636 -0.1342 -0.0380  0.0206
    1DIPC   D3B19487   2.502   9.490   4.066 -0.1158 -0.3633 -0.0035
    1DIPC   C4B19488   2.172   9.713   4.267 -0.2271 -0.0037 -0.2171
    1DIPC   NC319489  12.984   8.738   3.036  0.1149  0.3234 -0.2106
    1DIPC   PO419490  12.736   8.388   3.277  0.1123 -0.0245  0.2300
    1DIPC   GL119491  12.962   8.566   3.576  0.3301  0.1800  0.1573
    1DIPC   GL219492  12.808   9.019   3.484 -0.2425  0.4230  0.3589
    1DIPC   C1A19493  13.084   8.493   3.909  0.0395  0.1186 -0.1181
    1DIPC   D2A19494  13.060   8.463   4.366  0.1065 -0.0694  0.2433
    1DIPC   D3A19495  12.598   8.593   4.256 -0.1872 -0.0364 -0.3801
    1DIPC   C4A19496  12.292   8.261   4.144  0.1475  0.1890  0.1706
    1DIPC   C1B19497  12.411   9.151   3.640 -0.1584 -0.0529 -0.0183
    1DIPC   D2B19498  12.245   9.368   3.978  0.1611 -0.2516  0.0049
    1DIPC   D3B19499  12.729   9.309   3.994  0.0236  0.0052  0.0656
    1DIPC   C4B19500  12.951   8.929   4.129 -0.0694  0.2457 -0.0580
    1DIPC   NC319501  15.543   8.665   3.468  0.0368  0.0181 -0.1624
    1DIPC   PO419502  16.008   8.790   3.433 -0.1744 -0.1969  0.0155
    1DIPC   GL119503  16.305   8.689   3.783 -0.3004 -0.0919  0.1469
    1DIPC   GL219504  16.572   8.851   3.812  0.0467  0.0737 -0.0756
    1DIPC   C1A19505  16.454   8.544   4.233  0.2724 -0.0557 -0.3365
    1DIPC   D2A19506  16.524   8.203   4.517  0.2692 -0.3136  0.0239
    1DIPC   D3A19507  16.465   8.354   4.887 -0.0946  0.2712  0.3058
    1DIPC   C4A19508  16.357   8.145   5.251  0.1725  0.3345 -0.2612
    1DIPC   C1B19509  16.651   9.005   4.282  0.1893  0.0648  0.0495
    1DIPC   D2B19510  16.864   9.121   4.615  0.1277 -0.0892 -0.0954
    1DIPC   D3B19511  16.703   8.839   4.954  0.1302  0.0422  0.1715
    1DIPC   C4B19512  16.536   8.609   5.319 -0.1698 -0.0927 -0.1691
    1DIPC   NC319513  20.980   9.052   2.672 -0.3441 -0.0061  0.0861
    1DIPC   PO419514  21.000   9.075   3.186  0.1190 -0.3000  0.3059
    1DIPC   GL119515  20.781   8.898   3.532 -0.3096  0.1231  0.0259
    1DIPC   GL219516  20.873   9.123   3.731 -0.0216 -0.2595  0.1805
    1DIPC   C1A19517  20.511   8.713   3.906 -0.0706  0.0407 -0.0232
    1DIPC   D2A19518  20.701   8.764   4.328 -0.1606 -0.4600 -0.1447
    1DIPC   D3A19519  20.234   8.674   4.580 -0.0755  0.1047 -0.2448
    1DIPC   C4A19520  20.124   8.955   4.941  0.0685  0.2190 -0.1406
    1DIPC   C1B19521  20.666   9.160   4.088 -0.1647 -0.2377 -0.0513
    1DIPC   D2B19522  20.887   9.484   4.395  0.2480  0.1492 -0.2056
    1DIPC   D3B19523  20.643   9.687   4.166  0.2176 -0.0097  0.1214
    1DIPC   C4B19524  20.466  10.068   4.492  0.1199  0.0203 -0.4917
    1DIPC   NC319525  16.425  14.781   2.113 -0.2991  0.0076  0.0011
    1DIPC   PO419526  16.342  15.323   2.238 -0.0680 -0.2924 -0.1098
    1DIPC   GL119527  16.450  15.097   2.602  0.1927 -0.1475 -0.2999
    1DIPC   GL219528  16.148  14.911   2.644  0.1657  0.1806  0.1435
    1DIPC   C1A19529  16.599  14.980   3.026  0.1007 -0.1002 -0.0242
    1DIPC   D2A19530  16.722  15.135   3.399  0.1569  0.2481 -0.0639
    1DIPC   D3A19531  16.270  14.975   3.376  0.1833 -0.3559  0.1539
    1DIPC   C4A19532  16.141  14.607   3.384  0.0505  0.2825  0.0778
    1DIPC   C1B19533  16.226  14.521   2.897  0.0133  0.0400 -0.2180
    1DIPC   D2B19534  16.425  14.031   3.146  0.1362 -0.1436 -0.3426
    1DIPC   D3B19535  16.522  14.161   3.498 -0.0200  0.2286 -0.1147
    1DIPC   C4B19536  16.412  14.062   3.938 -0.1524  0.0987  0.0579
    1DIPC   NC319537  16.453  17.839   3.092  0.2684 -0.0448  0.4021
    1DIPC   PO419538  16.557  18.192   3.067  0.0215 -0.0260  0.2092
    1DIPC   GL119539  16.338  18.142   3.487  0.0226  0.0682  0.2499
    1DIPC   GL219540  16.313  18.409   3.531  0.1316  0.0071  0.3376
    1DIPC   C1A19541  16.177  17.950   3.854 -0.1871 -0.1503 -0.1628
    1DIPC   D2A19542  16.149  17.664   4.130  0.1716 -0.2296  0.2084
    1DIPC   D3A19543  16.092  17.321   4.320 -0.0545  0.1020 -0.3174
    1DIPC   C4A19544  16.313  17.081   4.600  0.1956  0.1386  0.0823
    1DIPC   C1B19545  16.136  18.822   3.477  0.2126  0.0518 -0.1054
    1DIPC   D2B19546  16.114  19.291   3.519 -0.0589 -0.1614  0.2268
    1DIPC   D3B19547  16.408  19.619   3.670  0.2353 -0.0291  0.0102
    1DIPC   C4B19548  16.658  19.482   3.904  0.3365  0.0017  0.3265
    1DIPC   NC319549   6.582  23.512   3.077  0.2338  0.0528 -0.0723
    1DIPC   PO419550   6.941  23.900   3.001  0.0414  0.0576  0.1833
    1DIPC   GL119551   7.109  23.950   3.442  0.2249  0.0388 -0.0376
    1DIPC   GL219552   7.351  23.704   3.517  0.0823  0.0449  0.1366
    1DIPC   C1A19553   7.163  24.096   3.836  0.0045  0.0607 -0.0701
    1DIPC   D2A19554   7.239  23.951   4.304 -0.0790 -0.0569 -0.1247
    1DIPC   D3A19555   6.833  23.750   4.512  0.1800 -0.2091 -0.2530
    1DIPC   C4A19556   6.600  23.990   4.724 -0.1365 -0.2088  0.2107
    1DIPC   C1B19557   7.557  23.772   3.970 -0.0776  0.1093  0.0881
    1DIPC   D2B19558   7.891  23.865   4.257  0.2554 -0.2569 -0.1517
    1DIPC   D3B19559   7.603  23.554   4.485 -0.1202 -0.0227  0.0314
    1DIPC   C4B19560   7.301  23.755   4.789 -0.2043 -0.3675  0.2011
    1DIPC   NC319561  17.200  27.430   3.046 -0.0017  0.0579 -0.0330
    1DIPC   PO419562  17.246  27.893   3.123  0.1779  0.0622 -0.2358
    1DIPC   GL119563  17.120  27.979   3.577 -0.2609 -0.2253  0.1499
    1DIPC   GL219564  16.899  28.166   3.692  0.0631 -0.1044  0.2409
    1DIPC   C1A19565  17.293  28.198   3.917  0.2432 -0.0089 -0.2152
    1DIPC   D2A19566  17.115  28.342   4.287 -0.1634  0.0148  0.0356
    1DIPC   D3A19567  16.791  28.553   4.394 -0.0785 -0.0082 -0.0870
    1DIPC   C4A19568  16.691  28.947   4.181 -0.2493 -0.0567 -0.0693
    1DIPC   C1B19569  17.009  28.564   3.872  0.0012 -0.1097  0.0152
    1DIPC   D2B19570  17.284  28.836   4.221  0.1610 -0.1576 -0.3284
    1DIPC   D3B19571  17.727  28.890   4.194  0.2423  0.2180 -0.0012
    1DIPC   C4B19572  17.954  28.952   4.449  0.6011 -0.2342 -0.0449
    1DIPC   NC319573  18.355   8.666   3.348  0.2503 -0.0710  0.1155
    1DIPC   PO419574  18.050   8.307   3.353 -0.2431 -0.1967 -0.0015
    1DIPC   GL119575  17.950   8.316   3.746  0.1915  0.2433 -0.2343
    1DIPC   GL219576  17.617   8.430   3.706 -0.1486  0.2904  0.0445
    1DIPC   C1A19577  18.113   8.205   4.158  0.1504 -0.0293 -0.3825
    1DIPC   D2A19578  17.925   8.159   4.635  0.0503  0.0821 -0.1695
    1DIPC   D3A19579  17.955   7.831   4.862 -0.2485 -0.1415 -0.4646
    1DIPC   C4A19580  18.075   7.429   4.792  0.2647 -0.0339 -0.0365
    1DIPC   C1B19581  17.629   8.411   4.175 -0.1865 -0.2431 -0.1984
    1DIPC   D2B19582  17.403   8.134   4.433  0.1080  0.0759  0.2502
    1DIPC   D3B19583  17.456   8.319   4.904 -0.2734 -0.1599 -0.2744
    1DIPC   C4B19584  17.826   8.263   5.135  0.0360 -0.2091 -0.1377
    1DIPC   NC319585  22.836  23.998   2.347  0.2468 -0.4906 -0.3790
    1DIPC   PO419586  23.029  23.638   2.545  0.1730  0.1305 -0.1914
    1DIPC   GL119587  23.126  23.555   2.959 -0.1398 -0.2456  0.0098
    1DIPC   GL219588  23.415  23.363   3.058  0.0515 -0.2952 -0.2768
    1DIPC   C1A19589  23.015  23.495   3.328 -0.0922  0.0488  0.0015
    1DIPC   D2A19590  23.163  23.566   3.745  0.0513  0.0555  0.0094
    1DIPC   D3A19591  23.389  23.367   4.089  0.2382  0.0455 -0.0854
    1DIPC   C4A19592  23.643  23.562   4.249  0.0743 -0.1224  0.1639
    1DIPC   C1B19593  23.496  23.350   3.444  0.1304  0.1120  0.0073
    1DIPC   D2B19594  23.732  23.283   3.737  0.0747  0.1870 -0.4346
    1DIPC   D3B19595  23.984  23.495   3.900  0.3976  0.0810  0.0705
    1DIPC   C4B19596  24.107  23.973   3.779 -0.0972 -0.2226  0.2086
    1DIPC   NC319597  20.978  20.741   2.289  0.0838  0.2914  0.0052
    1DIPC   PO419598  21.240  21.207   2.323 -0.4190  0.0275 -0.1184
    1DIPC   GL119599  21.435  21.359   2.774 -0.1368 -0.0538 -0.0920
    1DIPC   GL219600  21.771  21.484   2.985  0.0913  0.4043  0.2911
    1DIPC   C1A19601  21.527  21.049   3.127  0.0625 -0.0240  0.0732
    1DIPC   D2A19602  21.384  20.953   3.594  0.1665  0.0231 -0.0334
    1DIPC   D3A19603  21.105  20.574   3.619 -0.1499  0.0176 -0.0960
    1DIPC   C4A19604  21.354  20.408   3.940 -0.2016 -0.0385 -0.3723
    1DIPC   C1B19605  21.436  21.786   3.016  0.1224 -0.4328 -0.1586
    1DIPC   D2B19606  21.363  21.930   3.370  0.0371 -0.3246  0.0563
    1DIPC   D3B19607  21.208  21.718   3.719 -0.1577  0.2828 -0.1550
    1DIPC   C4B19608  21.340  21.682   4.191  0.0005  0.1435  0.3674
    1DIPC   NC319609  17.182  17.556   2.607  0.0664  0.2526  0.1790
    1DIPC   PO419610  17.441  17.173   2.766  0.1289  0.1750  0.1544
    1DIPC   GL119611  17.525  16.918   3.139  0.0207  0.0651 -0.1248
    1DIPC   GL219612  17.417  17.191   3.378 -0.1887  0.4090  0.1386
    1DIPC   C1A19613  17.504  16.716   3.599 -0.2527 -0.0411 -0.1368
    1DIPC   D2A19614  17.601  16.274   3.750 -0.0870 -0.2367 -0.0659
    1DIPC   D3A19615  17.525  16.501   4.103  0.2617  0.0994 -0.2340
    1DIPC   C4A19616  17.429  16.061   4.354  0.1317  0.0161  0.5075
    1DIPC   C1B19617  17.237  17.167   3.829  0.0553 -0.2677 -0.1038
    1DIPC   D2B19618  17.070  17.414   4.209  0.4271 -0.2724 -0.1437
    1DIPC   D3B19619  17.185  17.457   4.652  0.1943 -0.0382  0.0908
    1DIPC   C4B19620  16.968  17.405   4.994  0.0210  0.0517 -0.2849
    1DIPC   NC319621   1.095   7.334   3.114 -0.1826  0.1123  0.2903
    1DIPC   PO419622   1.234   6.880   3.056  0.0913 -0.0474  0.1771
    1DIPC   GL119623   1.018   7.010   3.517  0.1075  0.1214  0.0934
    1DIPC   GL219624   1.156   7.200   3.621 -0.4037 -0.2059  0.1823
    1DIPC   C1A19625   0.665   6.967   3.784  0.2364  0.0334  0.1344
    1DIPC   D2A19626   0.605   6.945   4.156  0.0917  0.3482 -0.2297
    1DIPC   D3A19627   0.343   7.257   4.459  0.1349  0.2996 -0.0468
    1DIPC   C4A19628   0.225   7.633   4.331  0.0839 -0.3742  0.1086
    1DIPC   C1B19629   1.259   6.960   3.977 -0.2620  0.0142 -0.0982
    1DIPC   D2B19630   1.356   6.978   4.393 -0.0150 -0.1227 -0.2898
    1DIPC   D3B19631   1.671   7.134   4.300 -0.3015 -0.1974 -0.2367
    1DIPC   C4B19632   1.599   7.332   3.905  0.5318 -0.0404 -0.0413
    1DIPC   NC319633  21.677  27.336   3.368  0.0382 -0.1655  0.0864
    1DIPC   PO419634  21.877  27.048   3.677 -0.0914 -0.1862  0.0775
    1DIPC   GL119635  22.241  27.161   3.941 -0.2269  0.3259  0.3435
    1DIPC   GL219636  22.273  26.913   4.126  0.2534  0.0168 -0.3736
    1DIPC   C1A19637  22.077  27.422   4.288  0.0403  0.4320 -0.1432
    1DIPC   D2A19638  22.184  27.476   4.709  0.0466 -0.1703  0.0202
    1DIPC   D3A19639  22.122  27.747   5.029  0.3450 -0.0000 -0.0740
    1DIPC   C4A19640  22.312  27.877   5.319  0.2535 -0.1721  0.4478
    1DIPC   C1B19641  22.452  27.018   4.502  0.0669  0.1663 -0.0353
    1DIPC   D2B19642  22.256  27.006   4.928  0.0709  0.0060  0.1275
    1DIPC   D3B19643  22.063  26.682   5.087 -0.0257 -0.0482  0.1353
    1DIPC   C4B19644  22.327  26.382   5.015 -0.1027 -0.2248 -0.1299
    1DIPC   NC319645   2.899  17.035   1.869 -0.2222  0.1820 -0.0565
    1DIPC   PO419646   3.052  16.640   2.137 -0.0327  0.2773  0.0475
    1DIPC   GL119647   2.743  16.807   2.321  0.0187 -0.1060  0.0258
    1DIPC   GL219648   2.811  17.165   2.431 -0.0291  0.2049 -0.1561
    1DIPC   C1A19649   2.717  16.599   2.750  0.1404  0.1301  0.0066
    1DIPC   D2A19650   2.651  16.466   3.164 -0.0639 -0.0772 -0.2374
    1DIPC   D3A19651   2.339  16.309   3.357  0.0194  0.0040  0.2345
    1DIPC   C4A19652   2.162  16.439   3.797 -0.0857 -0.1478 -0.0189
    1DIPC   C1B19653   2.920  17.060   2.856  0.2233  0.2910 -0.0423
    1DIPC   D2B19654   2.929  16.861   3.266  0.3139  0.0179 -0.2667
    1DIPC   D3B19655   2.834  17.067   3.678 -0.1235 -0.0087 -0.1662
    1DIPC   C4B19656   2.761  17.011   4.153  0.2236 -0.1659  0.1944
    1DIPC   NC319657  24.774  28.593   3.071  0.0992  0.0867 -0.1959
    1DIPC   PO419658  25.097  28.437   3.197 -0.0293  0.0145  0.3063
    1DIPC   GL119659  25.153  28.429   3.592  0.0239  0.0302  0.3996
    1DIPC   GL219660  24.856  28.503   3.880  0.0557 -0.1704  0.2816
    1DIPC   C1A19661  25.293  28.167   3.936 -0.0099 -0.2568  0.1849
    1DIPC   D2A19662  25.463  27.950   4.290  0.2721 -0.2293  0.2846
    1DIPC   D3A19663  25.521  27.821   4.706  0.0352 -0.5004 -0.0038
    1DIPC   C4A19664  25.450  28.112   5.074  0.2123 -0.1974 -0.1132
    1DIPC   C1B19665  25.273  28.667   4.107  0.2350  0.2299 -0.3180
    1DIPC   D2B19666  25.674  28.772   4.064  0.0286 -0.3261 -0.0233
    1DIPC   D3B19667  25.774  28.617   4.522 -0.1558  0.1544  0.2530
    1DIPC   C4B19668  25.727  28.198   4.599  0.0492  0.0120  0.2296
    1DIPC   NC319669  16.708  27.489   3.334  0.0985  0.0378  0.0433
    1DIPC   PO419670  16.885  27.134   3.326 -0.2107 -0.0093 -0.0263
    1DIPC   GL119671  17.002  27.052   3.663  0.3289 -0.0355 -0.0199
    1DIPC   GL219672  17.258  26.854   3.700 -0.0589 -0.0277  0.1961
    1DIPC   C1A19673  16.910  27.268   4.052 -0.1741  0.0465  0.2249
    1DIPC   D2A19674  16.653  27.450   4.210 -0.2746  0.0847 -0.1874
    1DIPC   D3A19675  16.611  27.492   4.657 -0.0111 -0.1739 -0.0504
    1DIPC   C4A19676  16.851  27.822   4.814 -0.1963 -0.2186  0.1931
    1DIPC   C1B19677  17.330  27.005   4.098  0.1977 -0.3297  0.0661
    1DIPC   D2B19678  17.508  26.984   4.476  0.0732 -0.0110  0.1574
    1DIPC   D3B19679  17.510  27.108   4.943  0.5899 -0.0346  0.1200
    1DIPC   C4B19680  17.759  26.934   5.238  0.0784 -0.1430  0.0375
    1DIPC   NC319681   1.623   2.390   2.938 -0.1986 -0.1449  0.0882
    1DIPC   PO419682   2.018   2.124   2.926  0.0136  0.0793 -0.5035
    1DIPC   GL119683   1.888   2.002   3.285  0.4850 -0.0504 -0.1289
    1DIPC   GL219684   1.603   2.049   3.351  0.0313  0.0472  0.1297
    1DIPC   C1A19685   2.001   1.843   3.637 -0.0737 -0.2685 -0.0406
    1DIPC   D2A19686   2.065   1.506   4.005  0.2431 -0.1549 -0.2259
    1DIPC   D3A19687   1.684   1.455   4.261 -0.1682  0.1906  0.0102
    1DIPC   C4A19688   1.479   1.060   4.164 -0.1879  0.1263 -0.3131
    1DIPC   C1B19689   1.447   2.079   3.753  0.0609  0.0070 -0.0416
    1DIPC   D2B19690   1.601   1.921   4.135 -0.0895  0.1391 -0.0875
    1DIPC   D3B19691   1.471   2.038   4.632  0.0187  0.0017 -0.0883
    1DIPC   C4B19692   1.019   1.925   4.875 -0.0893  0.2196  0.0727
    1DIPC   NC319693  13.889   0.182   3.400 -0.0055  0.0410 -0.1897
    1DIPC   PO419694  14.313   0.287   3.263  0.1065  0.0160  0.0791
    1DIPC   GL119695  14.397   0.301   3.737  0.0042  0.3506  0.0150
    1DIPC   GL219696  14.100   0.053   3.845 -0.0029  0.0773 -0.1376
    1DIPC   C1A19697  14.640   0.039   3.953 -0.2254  0.5160  0.2104
    1DIPC   D2A19698  14.935   0.006   4.303 -0.0014  0.2076 -0.0467
    1DIPC   D3A19699  14.907   0.391   4.478 -0.1890 -0.3365 -0.0659
    1DIPC   C4A19700  14.948   0.679   4.802 -0.0853 -0.1139 -0.0183
    1DIPC   C1B19701  14.146  -0.129   4.163 -0.1097  0.1910  0.0496
    1DIPC   D2B19702  14.223  -0.186   4.575 -0.0999 -0.0222  0.2604
    1DIPC   D3B19703  14.655  -0.146   4.687  0.1349 -0.3722 -0.6095
    1DIPC   C4B19704  14.661  -0.118   5.068 -0.2337  0.4319 -0.3341
    1DIPC   NC319705  28.950   2.809   2.590  0.2796  0.1632  0.4505
    1DIPC   PO419706  28.549   2.619   2.772 -0.1127  0.2615 -0.1420
    1DIPC   GL119707  28.517   2.711   3.250 -0.0503  0.2348 -0.0336
    1DIPC   GL219708  28.421   2.380   3.355 -0.1193  0.1145  0.2088
    1DIPC   C1A19709  28.625   2.742   3.646  0.3053  0.1780  0.0760
    1DIPC   D2A19710  29.010   2.645   4.038  0.0797  0.0907 -0.1180
    1DIPC   D3A19711  28.815   2.914   4.332 -0.1619 -0.1867  0.2221
    1DIPC   C4A19712  28.769   2.905   4.806  0.0707 -0.1369  0.0445
    1DIPC   C1B19713  28.339   2.257   3.770 -0.2793 -0.1612  0.2004
    1DIPC   D2B19714  28.332   2.130   4.125  0.1557  0.1213 -0.1417
    1DIPC   D3B19715  28.462   2.522   4.166 -0.4630  0.1679 -0.0400
    1DIPC   C4B19716  28.351   2.697   4.562 -0.0647  0.2679  0.1621
    1DIPC   NC319717   1.107   5.542   3.212  0.1037 -0.0116 -0.1995
    1DIPC   PO419718   1.422   5.518   2.824 -0.0118  0.2429 -0.4228
    1DIPC   GL119719   1.553   5.794   3.193  0.3351  0.2584 -0.2860
    1DIPC   GL219720   1.800   5.984   3.314 -0.0842 -0.0579 -0.0320
    1DIPC   C1A19721   1.391   5.785   3.672 -0.0196  0.0272  0.0825
    1DIPC   D2A19722   1.456   5.767   4.028 -0.1495 -0.0533  0.1822
    1DIPC   D3A19723   1.446   6.215   4.076  0.1780  0.1655  0.3891
    1DIPC   C4A19724   1.591   6.373   3.626 -0.0526 -0.1732 -0.0815
    1DIPC   C1B19725   1.896   5.715   3.762  0.1865  0.1063 -0.2233
    1DIPC   D2B19726   2.227   5.597   4.105 -0.1965  0.0733 -0.0506
    1DIPC   D3B19727   1.866   5.384   4.140  0.1070 -0.0968 -0.4387
    1DIPC   C4B19728   1.523   5.483   4.484 -0.1038 -0.0259 -0.0777
    1DIPC   NC319729   9.740   1.817   3.228 -0.2134 -0.2471  0.0078
    1DIPC   PO419730  10.026   2.082   3.434 -0.2146 -0.0837 -0.0677
    1DIPC   GL119731  10.054   2.299   3.778  0.0615 -0.0105 -0.4468
    1DIPC   GL219732   9.771   2.347   3.983  0.0511 -0.1092 -0.0071
    1DIPC   C1A19733  10.209   2.365   4.201  0.2118  0.1681 -0.1707
    1DIPC   D2A19734  10.560   2.605   4.372  0.1624  0.0508 -0.2570
    1DIPC   D3A19735  10.293   2.724   4.646  0.0477  0.1030 -0.1621
    1DIPC   C4A19736  10.462   3.166   4.793  0.3184 -0.0164 -0.1171
    1DIPC   C1B19737   9.568   2.176   4.217  0.1237 -0.1880 -0.0345
    1DIPC   D2B19738   9.518   2.078   4.613 -0.0113 -0.2138  0.0481
    1DIPC   D3B19739   9.770   1.766   4.769 -0.3269 -0.0120 -0.0481
    1DIPC   C4B19740   9.701   1.369   4.872 -0.0046 -0.0856 -0.3005
    1DIPC   NC319741  21.150   2.864   3.828 -0.1097  0.0659  0.4025
    1DIPC   PO419742  21.500   3.062   4.014  0.0932  0.0999  0.0788
    1DIPC   GL119743  21.800   2.960   4.360 -0.0526 -0.3970 -0.2080
    1DIPC   GL219744  22.067   2.923   4.289  0.3032 -0.1649  0.0493
    1DIPC   C1A19745  21.994   2.755   4.826 -0.2052 -0.1147  0.0918
    1DIPC   D2A19746  22.015   2.762   5.226 -0.1869  0.4760  0.3703
    1DIPC   D3A19747  21.795   2.726   5.515 -0.0145  0.3460 -0.1822
    1DIPC   C4A19748  21.687   2.878   5.862 -0.4229 -0.0771 -0.1081
    1DIPC   C1B19749  22.411   3.001   4.665  0.0080  0.0605  0.2481
    1DIPC   D2B19750  22.467   2.996   5.101 -0.0399 -0.2068 -0.2786
    1DIPC   D3B19751  22.779   3.152   5.328 -0.0088 -0.1182 -0.4269
    1DIPC   C4B19752  22.828   3.690   5.338  0.1922  0.0676 -0.1537
    1DIPC   NC319753  29.332   4.035   2.936  0.0012  0.0857  0.1145
    1DIPC   PO419754  29.664   4.241   3.190  0.0405 -0.2778 -0.0707
    1DIPC   GL119755  29.789   4.043   3.528 -0.2574 -0.2322  0.0327
    1DIPC   GL219756  29.963   3.771   3.536  0.2928  0.1689 -0.2254
    1DIPC   C1A19757  29.418   4.088   3.867 -0.0472  0.0330  0.0961
    1DIPC   D2A19758  29.406   4.105   4.304  0.0053  0.4378  0.1363
    1DIPC   D3A19759  29.060   3.911   4.596  0.1688  0.0170  0.2196
    1DIPC   C4A19760  28.927   3.484   4.789  0.1932 -0.1693  0.2023
    1DIPC   C1B19761  29.941   3.737   4.006 -0.1085  0.0950  0.1610
    1DIPC   D2B19762  29.973   4.110   4.229  0.1477  0.1567 -0.0330
    1DIPC   D3B19763  29.974   4.253   4.676  0.1353 -0.4682 -0.3582
    1DIPC   C4B19764  29.740   4.528   4.807 -0.0145 -0.3214 -0.2067
    1DIPC   NC319765  10.649  27.029   2.809 -0.3130  0.0816 -0.1431
    1DIPC   PO419766  10.739  27.017   3.207  0.0145 -0.3030 -0.3136
    1DIPC   GL119767  10.966  27.018   3.649 -0.0113  0.2532 -0.0618
    1DIPC   GL219768  11.288  26.997   3.612 -0.0723 -0.3744  0.2362
    1DIPC   C1A19769  10.989  27.016   4.088 -0.0140  0.1682 -0.0083
    1DIPC   D2A19770  10.828  26.872   4.584 -0.0181 -0.0218 -0.3342
    1DIPC   D3A19771  10.344  26.848   4.599 -0.0946  0.1291  0.2568
    1DIPC   C4A19772  10.322  26.675   5.040 -0.0521 -0.1178 -0.0055
    1DIPC   C1B19773  11.389  26.660   3.998  0.0658 -0.2116 -0.0317
    1DIPC   D2B19774  11.370  26.255   4.196  0.1713 -0.3187  0.0816
    1DIPC   D3B19775  10.954  26.197   3.944 -0.0846  0.1193 -0.1841
    1DIPC   C4B19776  10.824  26.573   3.838 -0.0730 -0.1233  0.0907
    1DIPC   NC319777  29.508  26.473   3.073 -0.1458  0.1171  0.2891
    1DIPC   PO419778  29.709  26.466   3.500 -0.2056 -0.0144  0.3444
    1DIPC   GL119779  29.482  26.317   3.769  0.0624 -0.0408 -0.0309
    1DIPC   GL219780  29.206  26.224   3.732  0.1778  0.3088 -0.2954
    1DIPC   C1A19781  29.331  26.492   4.211 -0.2725 -0.2873 -0.0938
    1DIPC   D2A19782  29.354  26.659   4.602  0.0024  0.1779  0.4898
    1DIPC   D3A19783  29.138  26.519   4.930  0.1375 -0.0521  0.0221
    1DIPC   C4A19784  28.848  26.475   5.288  0.1442  0.0462 -0.2014
    1DIPC   C1B19785  29.125  26.053   4.110  0.1289 -0.0472  0.0346
    1DIPC   D2B19786  29.203  26.137   4.468 -0.0520 -0.0462  0.0599
    1DIPC   D3B19787  29.561  26.200   4.765  0.0357 -0.1743 -0.3116
    1DIPC   C4B19788  29.728  26.581   5.027 -0.3770 -0.1102 -0.4119
    1DIPC   NC319789   5.636   9.610   2.948 -0.1601  0.0885 -0.1681
    1DIPC   PO419790   5.961   9.408   2.932 -0.1489  0.0988  0.0487
    1DIPC   GL119791   6.024   9.506   3.324  0.1577 -0.2916 -0.2396
    1DIPC   GL219792   6.226   9.254   3.346 -0.1977 -0.0125 -0.2893
    1DIPC   C1A19793   5.750   9.763   3.657  0.0517  0.1364 -0.3461
    1DIPC   D2A19794   6.022  10.009   4.027 -0.1263  0.0253  0.0435
    1DIPC   D3A19795   5.793  10.316   3.986  0.0901  0.3375 -0.0986
    1DIPC   C4A19796   5.922  10.539   3.697 -0.1336 -0.0688 -0.2316
    1DIPC   C1B19797   6.372   9.029   3.698  0.1270 -0.1200  0.1038
    1DIPC   D2B19798   6.265   9.039   4.185 -0.0717 -0.1892  0.2206
    1DIPC   D3B19799   5.917   9.141   4.205  0.3198 -0.0481 -0.0367
    1DIPC   C4B19800   5.863   9.522   4.306  0.1777  0.1957  0.1277
    1DIPC   NC319801  21.571   7.305   3.324  0.4015  0.3179  0.0258
    1DIPC   PO419802  21.185   7.439   3.289 -0.0427  0.0609 -0.1211
    1DIPC   GL119803  21.074   7.390   3.704 -0.1801  0.0034  0.0596
    1DIPC   GL219804  21.358   7.259   3.773 -0.1323 -0.2234 -0.3675
    1DIPC   C1A19805  20.754   7.560   3.985 -0.0158 -0.1778  0.1134
    1DIPC   D2A19806  20.517   7.898   3.749 -0.0380  0.0581 -0.3769
    1DIPC   D3A19807  20.216   8.115   3.823  0.0038  0.0861 -0.1696
    1DIPC   C4A19808  20.161   8.407   4.184  0.2402 -0.1345  0.0437
    1DIPC   C1B19809  21.246   7.136   4.209  0.0805 -0.1097 -0.2532
    1DIPC   D2B19810  21.253   7.207   4.618  0.2347  0.2934 -0.0023
    1DIPC   D3B19811  21.443   6.848   4.800  0.3165  0.4237 -0.2311
    1DIPC   C4B19812  21.821   6.857   4.788 -0.0986 -0.1363  0.0858
    1DIPC   NC319813   3.969   9.432   1.971 -0.2295  0.0171  0.0463
    1DIPC   PO419814   3.720   9.210   2.296 -0.2779  0.0154 -0.0675
    1DIPC   GL119815   3.448   9.278   2.701  0.1052  0.0128 -0.0250
    1DIPC   GL219816   3.260   9.611   2.698 -0.0376  0.2991 -0.1206
    1DIPC   C1A19817   3.435   9.284   3.184 -0.1317  0.3924  0.2329
    1DIPC   D2A19818   3.263   9.121   3.558  0.0390  0.0689  0.0598
    1DIPC   D3A19819   3.781   9.024   3.645  0.3389  0.0451  0.0497
    1DIPC   C4A19820   3.946   8.941   4.046 -0.1929 -0.0890 -0.2724
    1DIPC   C1B19821   3.667   9.750   2.872 -0.1464  0.1119 -0.3668
    1DIPC   D2B19822   3.651  10.250   2.974 -0.0081 -0.0592 -0.0599
    1DIPC   D3B19823   3.990  10.045   3.229 -0.0641  0.1804 -0.2157
    1DIPC   C4B19824   4.316   9.899   3.495  0.0144  0.0543 -0.2415
    1DIPC   NC319825  20.767   0.082   3.482  0.2446  0.1418 -0.0169
    1DIPC   PO419826  20.871  -0.021   3.930  0.3612 -0.1611 -0.1603
    1DIPC   GL119827  20.880   0.280   4.299 -0.1495  0.2346  0.0039
    1DIPC   GL219828  20.898   0.115   4.545  0.1300 -0.0375  0.0822
    1DIPC   C1A19829  20.775   0.518   4.703  0.0152  0.1548 -0.0942
    1DIPC   D2A19830  20.742   0.693   5.159  0.0782 -0.4394  0.1290
    1DIPC   D3A19831  20.370   0.600   5.397  0.0257 -0.3521  0.1721
    1DIPC   C4A19832  20.151   0.914   5.214 -0.5585 -0.1079  0.1324
    1DIPC   C1B19833  20.812  -0.059   4.915 -0.1714 -0.0119 -0.2886
    1DIPC   D2B19834  20.700  -0.299   5.288 -0.0212 -0.0044 -0.1144
    1DIPC   D3B19835  20.724  -0.630   5.085  0.2804 -0.1007 -0.1011
    1DIPC   C4B19836  20.790  -0.520   4.662 -0.3623  0.1025  0.1374
    1DIPC   NC319837   0.151  25.561   2.728 -0.0794 -0.1054 -0.2510
    1DIPC   PO419838   0.434  25.205   2.872  0.1439  0.0470 -0.3499
    1DIPC   GL119839   0.533  25.012   3.246  0.0805 -0.2997 -0.1527
    1DIPC   GL219840   0.312  25.040   3.460  0.3442 -0.1338 -0.0651
    1DIPC   C1A19841   0.617  24.596   3.460  0.2440 -0.0400 -0.1798
    1DIPC   D2A19842   0.655  24.208   3.647  0.1704 -0.1307 -0.1366
    1DIPC   D3A19843   0.868  24.550   3.908  0.2380  0.0750  0.3858
    1DIPC   C4A19844   0.862  24.743   4.357 -0.2884 -0.0498 -0.1773
    1DIPC   C1B19845   0.540  25.366   3.789 -0.0500 -0.0587 -0.0375
    1DIPC   D2B19846   0.686  25.767   3.735  0.0848 -0.0084 -0.0712
    1DIPC   D3B19847   0.296  25.741   4.029  0.1417  0.0369 -0.0838
    1DIPC   C4B19848   0.281  25.506   4.359  0.0721 -0.0794 -0.0228
    1DIPC   NC319849   3.322  28.808   2.456  0.0633  0.1085  0.2878
    1DIPC   PO419850   3.493  28.667   2.873  0.0734 -0.0025 -0.1607
    1DIPC   GL119851   3.464  28.525   3.252 -0.1317 -0.2497  0.1329
    1DIPC   GL219852   3.744  28.544   3.261  0.1448  0.0396 -0.0455
    1DIPC   C1A19853   3.382  28.105   3.478  0.3060 -0.1663  0.0889
    1DIPC   D2A19854   3.289  27.937   3.973 -0.0746  0.0980 -0.3444
    1DIPC   D3A19855   3.474  27.571   4.286 -0.0633 -0.2916  0.3621
    1DIPC   C4A19856   3.810  27.668   4.532  0.1948 -0.0340  0.0024
    1DIPC   C1B19857   3.798  28.688   3.612  0.0393  0.3259 -0.0845
    1DIPC   D2B19858   3.450  28.887   3.948  0.0310 -0.1645  0.0804
    1DIPC   D3B19859   3.414  28.525   4.179 -0.1229  0.0925  0.0498
    1DIPC   C4B19860   3.821  28.486   4.360  0.3374  0.2925  0.2402
    1DIPC   NC319861  16.533  28.420   3.063  0.3026 -0.4189 -0.3139
    1DIPC   PO419862  16.469  28.793   3.132  0.0426 -0.1286 -0.1746
    1DIPC   GL119863  16.250  28.637   3.446 -0.0021 -0.0571 -0.0520
    1DIPC   GL219864  16.327  28.283   3.663 -0.2224  0.5795 -0.3407
    1DIPC   C1A19865  16.485  28.635   3.917  0.1037  0.0591 -0.1470
    1DIPC   D2A19866  16.291  28.618   4.303  0.0724 -0.0870  0.0739
    1DIPC   D3A19867  16.320  28.417   4.788  0.0499  0.1844 -0.0913
    1DIPC   C4A19868  16.755  28.356   4.805  0.4757  0.3175 -0.3944
    1DIPC   C1B19869  16.587  28.180   4.079 -0.1942 -0.2305  0.0188
    1DIPC   D2B19870  16.563  27.979   4.474  0.0701 -0.1820  0.4213
    1DIPC   D3B19871  16.297  27.772   4.286  0.2167 -0.2056  0.1000
    1DIPC   C4B19872  15.860  27.715   4.375 -0.3415  0.0159 -0.2665
    1DIPC   NC319873  22.487  11.838   1.553 -0.3569 -0.2475 -0.2981
    1DIPC   PO419874  22.538  11.725   1.993  0.1760 -0.2956  0.1522
    1DIPC   GL119875  22.554  12.076   2.343 -0.2003  0.2254 -0.1290
    1DIPC   GL219876  22.538  12.444   2.399 -0.0187  0.2919 -0.0296
    1DIPC   C1A19877  22.856  12.082   2.692  0.1199  0.1434  0.3639
    1DIPC   D2A19878  22.754  12.257   3.201  0.0501 -0.0766  0.2227
    1DIPC   D3A19879  23.022  12.680   3.357 -0.1034 -0.3128 -0.0506
    1DIPC   C4A19880  23.286  12.746   3.812  0.1001 -0.1700  0.3372
    1DIPC   C1B19881  22.549  12.646   2.914 -0.0971 -0.1414  0.0161
    1DIPC   D2B19882  22.450  13.069   3.121  0.3598  0.2043 -0.2254
    1DIPC   D3B19883  22.565  12.912   3.489  0.0461  0.1390  0.1802
    1DIPC   C4B19884  22.558  12.525   3.736 -0.2862 -0.0307  0.1820
    1DIPC   NC319885  12.214  23.853   2.466 -0.0183  0.1225 -0.0073
    1DIPC   PO419886  11.917  23.624   2.680  0.2355  0.0819 -0.1367
    1DIPC   GL119887  11.803  23.677   3.119 -0.2266 -0.1906 -0.2316
    1DIPC   GL219888  11.444  23.654   3.130  0.2222 -0.1100 -0.0466
    1DIPC   C1A19889  11.885  23.542   3.490 -0.0463  0.0965 -0.1013
    1DIPC   D2A19890  11.796  23.704   3.957 -0.0540  0.1319  0.3105
    1DIPC   D3A19891  11.775  23.907   4.359 -0.1176  0.1282  0.0747
    1DIPC   C4A19892  11.391  23.911   4.468  0.3169  0.1541 -0.1412
    1DIPC   C1B19893  11.416  23.601   3.604  0.3328  0.3297 -0.3428
    1DIPC   D2B19894  11.520  23.313   3.785  0.0248  0.1602 -0.2631
    1DIPC   D3B19895  11.439  23.385   4.252  0.0366 -0.1212  0.2477
    1DIPC   C4B19896  11.024  23.250   4.312 -0.0340  0.0957 -0.1606
    1DIPC   NC319897   4.043  26.199   3.080 -0.1928  0.1633  0.2196
    1DIPC   PO419898   3.910  26.552   3.375  0.1720  0.0209  0.0743
    1DIPC   GL119899   3.641  26.462   3.660 -0.0485  0.1502  0.1482
    1DIPC   GL219900   3.368  26.553   3.636 -0.2654  0.1998  0.1334
    1DIPC   C1A19901   3.525  26.158   3.980 -0.1060  0.1794 -0.2244
    1DIPC   D2A19902   3.586  25.883   4.331  0.2459 -0.0150 -0.2191
    1DIPC   D3A19903   3.600  25.786   4.705 -0.0138 -0.1485  0.2476
    1DIPC   C4A19904   3.399  25.407   4.915 -0.0882  0.0748 -0.1420
    1DIPC   C1B19905   3.227  26.644   4.105 -0.1466  0.2526  0.2383
    1DIPC   D2B19906   3.151  26.633   4.514  0.0632 -0.5031 -0.4122
    1DIPC   D3B19907   3.306  26.977   4.545  0.0322  0.2164 -0.1016
    1DIPC   C4B19908   3.017  27.278   4.813 -0.1235 -0.0336 -0.0995
    1DIPC   NC319909  17.996  17.999   2.873 -0.0364  0.2741  0.1850
    1DIPC   PO419910  17.977  17.543   2.814  0.0981 -0.4362  0.0143
    1DIPC   GL119911  18.109  17.649   3.211 -0.1264 -0.1128 -0.1897
    1DIPC   GL219912  17.844  17.493   3.377  0.0722 -0.0326 -0.2095
    1DIPC   C1A19913  18.201  17.732   3.752 -0.0510  0.1680  0.0751
    1DIPC   D2A19914  18.123  17.399   4.077 -0.2573 -0.0587 -0.1092
    1DIPC   D3A19915  18.333  17.481   4.500 -0.2653 -0.0733 -0.0036
    1DIPC   C4A19916  18.797  17.626   4.499  0.1701 -0.2005  0.2301
    1DIPC   C1B19917  17.606  17.548   3.737  0.3993  0.1607 -0.0629
    1DIPC   D2B19918  17.605  17.342   4.204 -0.0249 -0.0205 -0.1185
    1DIPC   D3B19919  17.838  17.407   4.530 -0.2256 -0.2495 -0.2271
    1DIPC   C4B19920  17.905  17.789   4.707 -0.1420  0.0945  0.1440
    1DIPC   NC319921   3.525  24.849   3.170  0.0942 -0.0769  0.0395
    1DIPC   PO419922   3.493  25.247   3.069 -0.0741  0.1879  0.1073
    1DIPC   GL119923   3.362  25.189   3.561 -0.4334  0.0885  0.4051
    1DIPC   GL219924   3.146  24.950   3.608  0.0305  0.2030  0.0564
    1DIPC   C1A19925   3.510  24.984   3.972  0.1769 -0.2218 -0.0478
    1DIPC   D2A19926   3.880  24.876   4.335 -0.2273 -0.0591 -0.3156
    1DIPC   D3A19927   4.070  24.823   3.935 -0.0376 -0.2480  0.2021
    1DIPC   C4A19928   4.486  24.971   3.933  0.3557  0.3893  0.1006
    1DIPC   C1B19929   2.832  24.822   3.941 -0.0744  0.4554  0.0625
    1DIPC   D2B19930   2.682  24.910   4.360  0.1827  0.0302  0.3026
    1DIPC   D3B19931   2.684  24.620   4.652  0.0983 -0.1068 -0.1217
    1DIPC   C4B19932   2.437  24.657   5.013  0.0402  0.1484  0.0585
    1DIPC   NC319933  10.329  17.010   2.723 -0.1998 -0.0156 -0.1831
    1DIPC   PO419934  10.136  17.476   2.587  0.0625 -0.3291  0.2904
    1DIPC   GL119935  10.091  17.855   2.856  0.0451 -0.1494  0.1242
    1DIPC   GL219936  10.357  18.077   2.933 -0.0036 -0.1716  0.2802
    1DIPC   C1A19937   9.883  18.032   3.244  0.0895  0.3278  0.1119
    1DIPC   D2A19938  10.028  18.174   3.640 -0.0699  0.0963  0.0705
    1DIPC   D3A19939   9.860  18.128   4.130  0.0333 -0.2081 -0.1274
    1DIPC   C4A19940   9.850  18.395   4.499  0.0425 -0.3544  0.1338
    1DIPC   C1B19941  10.439  17.989   3.352  0.0893 -0.0775  0.0984
    1DIPC   D2B19942  10.526  18.143   3.800  0.2674 -0.2179  0.2222
    1DIPC   D3B19943  10.812  17.776   3.993  0.3354 -0.5068 -0.2530
    1DIPC   C4B19944  11.209  17.727   4.299 -0.2679 -0.1366  0.1712
    1DIPC   NC319945  26.111  25.646   2.905  0.0338 -0.1183 -0.2379
    1DIPC   PO419946  26.589  25.606   2.894 -0.3010 -0.0737 -0.3649
    1DIPC   GL119947  26.751  25.721   3.363 -0.1972 -0.4656 -0.0618
    1DIPC   GL219948  26.985  25.851   3.467  0.2239 -0.2428 -0.1323
    1DIPC   C1A19949  26.630  25.492   3.753  0.1240 -0.1902 -0.0791
    1DIPC   D2A19950  26.463  25.178   3.849  0.2721 -0.0729 -0.0045
    1DIPC   D3A19951  26.286  24.883   4.063 -0.0812  0.1128 -0.0625
    1DIPC   C4A19952  26.586  24.743   4.386 -0.1793 -0.0413  0.0829
    1DIPC   C1B19953  27.032  25.635   3.942  0.0585  0.1200  0.3548
    1DIPC   D2B19954  26.633  25.707   4.222 -0.0177 -0.1459  0.0015
    1DIPC   D3B19955  26.491  25.290   4.293 -0.1748 -0.0220 -0.1027
    1DIPC   C4B19956  26.613  25.156   4.734 -0.3385 -0.0611  0.0494
    1DIPC   NC319957  18.708  26.843   2.808  0.2284  0.1277 -0.1222
    1DIPC   PO419958  18.962  26.764   3.043 -0.1033  0.2966 -0.0910
    1DIPC   GL119959  18.909  26.979   3.402 -0.0655 -0.2007  0.0127
    1DIPC   GL219960  19.144  26.863   3.620 -0.1526  0.0934  0.1078
    1DIPC   C1A19961  18.849  27.196   3.872 -0.1856 -0.1150 -0.0343
    1DIPC   D2A19962  18.744  27.101   4.262  0.1792 -0.0785  0.1683
    1DIPC   D3A19963  18.905  27.162   4.716 -0.0682  0.1059  0.1489
    1DIPC   C4A19964  18.786  26.849   4.981 -0.2088  0.2894  0.0490
    1DIPC   C1B19965  19.127  26.735   4.055  0.2834 -0.2457 -0.1958
    1DIPC   D2B19966  19.082  26.631   4.507 -0.0465  0.2594 -0.0324
    1DIPC   D3B19967  18.967  26.346   4.827  0.1271  0.0019  0.0859
    1DIPC   C4B19968  18.592  26.263   5.090  0.0471  0.2643 -0.0015
    1DIPC   NC319969  14.818  14.301   2.609 -0.0541 -0.1323 -0.1769
    1DIPC   PO419970  14.558  14.198   3.011  0.0561  0.2122 -0.1328
    1DIPC   GL119971  14.629  14.321   3.479 -0.1413  0.1395 -0.0195
    1DIPC   GL219972  14.844  14.613   3.568  0.2781 -0.0462 -0.0212
    1DIPC   C1A19973  14.682  14.236   3.951  0.0808  0.4976 -0.2430
    1DIPC   D2A19974  14.769  13.905   4.304  0.1223 -0.0592 -0.1787
    1DIPC   D3A19975  15.175  14.088   4.211  0.2640  0.0082 -0.0174
    1DIPC   C4A19976  15.505  13.947   3.921 -0.0697  0.2150 -0.1037
    1DIPC   C1B19977  14.986  14.637   3.906 -0.1340  0.0416  0.1186
    1DIPC   D2B19978  14.941  14.586   4.294 -0.3236 -0.2029 -0.0913
    1DIPC   D3B19979  14.797  15.051   4.193  0.0307  0.0218 -0.1583
    1DIPC   C4B19980  15.100  15.398   4.178 -0.0835  0.1122  0.1585
    1DIPC   NC319981  10.989   0.157   3.546 -0.1301 -0.2011  0.0294
    1DIPC   PO419982  11.252  -0.155   3.386  0.0143 -0.1060 -0.2341
    1DIPC   GL119983  11.538  -0.180   3.787  0.1636  0.0128  0.0609
    1DIPC   GL219984  11.816  -0.155   3.694 -0.1359  0.0973 -0.1822
    1DIPC   C1A19985  11.729  -0.436   4.190  0.1094 -0.1735 -0.3490
    1DIPC   D2A19986  11.769  -0.605   4.665 -0.0673 -0.1224 -0.0656
    1DIPC   D3A19987  11.973  -0.207   4.588 -0.1799  0.2393  0.1390
    1DIPC   C4A19988  12.336  -0.181   4.668  0.1106  0.3124  0.0372
    1DIPC   C1B19989  11.902   0.032   4.013  0.0391 -0.1166 -0.2404
    1DIPC   D2B19990  12.269   0.005   4.189 -0.0730 -0.1391 -0.1442
    1DIPC   D3B19991  12.512   0.132   3.909  0.1580 -0.0615  0.1602
    1DIPC   C4B19992  12.947   0.214   4.155  0.1062  0.1545  0.1197
    1DIPC   NC319993   0.486   7.949   2.861 -0.0214  0.1779 -0.0592
    1DIPC   PO419994   0.758   7.654   3.001  0.3804  0.3152 -0.2661
    1DIPC   GL119995   0.832   7.572   3.434 -0.1410  0.0236 -0.2844
    1DIPC   GL219996   0.642   7.714   3.579 -0.3249  0.1262  0.2871
    1DIPC   C1A19997   0.850   7.415   3.996 -0.2933 -0.1198  0.0661
    1DIPC   D2A19998   0.915   7.303   4.378 -0.0383 -0.2782  0.0758
    1DIPC   D3A19999   1.301   7.469   4.333  0.3983  0.1480  0.2342
    1DIPC   C4A20000   1.610   7.756   4.280 -0.0690  0.1403  0.0403
    1DIPC   C1B20001   0.504   7.853   3.944 -0.0115 -0.0581  0.2065
    1DIPC   D2B20002   0.503   7.996   4.377 -0.0635 -0.1263  0.0853
    1DIPC   D3B20003   0.871   7.811   4.305  0.0763  0.0411  0.0883
    1DIPC   C4B20004   1.237   8.056   4.513 -0.1625 -0.0814 -0.1648
    1DIPC   NC320005  18.176  15.295   2.513  0.0917  0.1801  0.3129
    1DIPC   PO420006  18.499  15.090   2.343  0.0153 -0.0759 -0.0137
    1DIPC   GL120007  18.559  14.917   2.745  0.1067  0.1640  0.0352
    1DIPC   GL220008  18.237  14.658   2.800 -0.1520  0.2651 -0.1223
    1DIPC   C1A20009  18.463  14.852   3.179 -0.0743 -0.2742 -0.1031
    1DIPC   D2A20010  18.368  14.916   3.682 -0.2488 -0.0705  0.0252
    1DIPC   D3A20011  18.653  14.948   4.066 -0.0796 -0.0594 -0.3501
    1DIPC   C4A20012  19.107  15.171   4.086  0.2907  0.0512  0.3051
    1DIPC   C1B20013  18.041  14.491   3.168 -0.0779 -0.1058  0.0241
    1DIPC   D2B20014  17.974  14.526   3.630  0.3551  0.1579 -0.1170
    1DIPC   D3B20015  18.404  14.352   3.672 -0.0162  0.2016  0.4474
    1DIPC   C4B20016  18.747  14.228   3.899 -0.1509 -0.0075  0.1149
    1DIPC   NC320017  13.700  18.245   3.079  0.1430 -0.0306  0.2858
    1DIPC   PO420018  13.602  17.917   3.058  0.0325 -0.2238 -0.2170
    1DIPC   GL120019  13.489  17.950   3.534 -0.0544 -0.1323  0.0882
    1DIPC   GL220020  13.460  18.215   3.536 -0.1199  0.1564 -0.1595
    1DIPC   C1A20021  13.293  17.622   3.852  0.0082  0.3568  0.1113
    1DIPC   D2A20022  13.279  17.210   4.043  0.4929  0.1804  0.2133
    1DIPC   D3A20023  13.050  17.158   3.589 -0.1466 -0.1258 -0.1429
    1DIPC   C4A20024  13.169  17.522   3.370  0.3364  0.0077 -0.0692
    1DIPC   C1B20025  13.606  18.283   3.987  0.3431 -0.1882 -0.0938
    1DIPC   D2B20026  13.645  18.084   4.344  0.0932  0.1626 -0.0217
    1DIPC   D3B20027  13.940  17.622   4.423  0.1796 -0.2472  0.0691
    1DIPC   C4B20028  13.954  17.429   4.903  0.2078  0.0722  0.0078
    1DIPC   NC320029  17.010   8.685   3.003  0.0363  0.0906  0.1477
    1DIPC   PO420030  17.357   8.884   3.222  0.0273  0.0706 -0.0731
    1DIPC   GL120031  17.486   8.932   3.703  0.0379 -0.4163 -0.0270
    1DIPC   GL220032  17.787   9.161   3.635  0.0500  0.0831  0.1087
    1DIPC   C1A20033  17.611   9.276   4.066 -0.0718 -0.0089 -0.1401
    1DIPC   D2A20034  17.443   9.464   4.344 -0.1822  0.3174 -0.1216
    1DIPC   D3A20035  17.489   9.162   4.750 -0.0347  0.2397  0.2021
    1DIPC   C4A20036  17.718   8.674   4.648 -0.2994 -0.1369  0.1921
    1DIPC   C1B20037  17.565   9.552   3.685  0.5077  0.2547  0.1955
    1DIPC   D2B20038  17.312   9.798   3.940  0.2562 -0.2708  0.1504
    1DIPC   D3B20039  17.157   9.937   4.305 -0.1724 -0.1267  0.2105
    1DIPC   C4B20040  17.363  10.013   4.607  0.1995  0.1621  0.2716
    1DIPC   NC320041  24.538  14.323   1.507  0.3293  0.1210  0.1229
    1DIPC   PO420042  24.974  14.238   1.365  0.0023 -0.2490  0.0717
    1DIPC   GL120043  25.125  14.461   1.725  0.2094  0.0760  0.2819
    1DIPC   GL220044  24.870  14.508   1.808  0.0420 -0.3106  0.0641
    1DIPC   C1A20045  25.413  14.505   2.062  0.1070  0.1230  0.1013
    1DIPC   D2A20046  25.672  14.761   2.275  0.1521  0.0131  0.0260
    1DIPC   D3A20047  25.918  14.904   2.024  0.0251  0.1442 -0.0666
    1DIPC   C4A20048  25.944  14.816   1.678 -0.2951  0.0165  0.2545
    1DIPC   C1B20049  24.860  14.870   2.133  0.4257  0.1187 -0.0400
    1DIPC   D2B20050  24.706  15.280   2.179 -0.1249 -0.1490 -0.2214
    1DIPC   D3B20051  24.384  15.289   2.546  0.0935 -0.2903 -0.1217
    1DIPC   C4B20052  24.509  15.277   2.949  0.2903 -0.2111 -0.0671
    1DIPC   NC320053  26.341  20.746   1.401  0.1994 -0.0811 -0.2929
    1DIPC   PO420054  26.288  20.850   1.859  0.0646  0.0912  0.1746
    1DIPC   GL120055  26.064  20.592   2.077  0.1738 -0.0551  0.0219
    1DIPC   GL220056  26.347  20.514   2.206  0.3552  0.1737 -0.2112
    1DIPC   C1A20057  25.870  20.288   2.283  0.0565  0.0365 -0.3019
    1DIPC   D2A20058  25.846  20.222   2.739 -0.0781  0.1217  0.2117
    1DIPC   D3A20059  25.503  19.936   2.738  0.0806  0.3075  0.1865
    1DIPC   C4A20060  25.370  19.649   3.037  0.1001  0.3007 -0.2772
    1DIPC   C1B20061  26.350  20.273   2.558  0.0731 -0.3313  0.1184
    1DIPC   D2B20062  26.294  20.008   2.869 -0.0513 -0.0018 -0.1059
    1DIPC   D3B20063  26.212  20.047   3.241  0.1141  0.2568  0.0630
    1DIPC   C4B20064  26.195  20.080   3.733 -0.0354  0.2670  0.1018
    1DIPC   NC320065  15.029  12.834   2.849 -0.0436 -0.1609  0.0800
    1DIPC   PO420066  15.308  12.555   3.040 -0.0130  0.0171 -0.0462
    1DIPC   GL120067  15.379  12.795   3.360  0.1290 -0.1433  0.4432
    1DIPC   GL220068  15.441  12.550   3.565 -0.1101  0.0463 -0.3768
    1DIPC   C1A20069  15.393  12.983   3.766 -0.0327  0.1138  0.2701
    1DIPC   D2A20070  15.433  13.447   3.873 -0.0346  0.2758 -0.0594
    1DIPC   D3A20071  15.208  13.610   4.160 -0.0197 -0.1468 -0.0920
    1DIPC   C4A20072  15.237  13.695   4.670  0.1965  0.2770 -0.0535
    1DIPC   C1B20073  15.367  12.289   3.933 -0.1547 -0.1138  0.0522
    1DIPC   D2B20074  15.432  12.079   4.368  0.0054  0.1498  0.0533
    1DIPC   D3B20075  15.080  11.741   4.421 -0.1018 -0.2192  0.0058
    1DIPC   C4B20076  14.771  11.898   4.709  0.3641 -0.1734  0.0417
    1DIPC   NC320077  14.911  25.358   3.220 -0.0148 -0.2173 -0.0307
    1DIPC   PO420078  15.250  24.955   3.357 -0.1150  0.4119  0.0631
    1DIPC   GL120079  14.960  25.034   3.660 -0.0424  0.2327  0.2331
    1DIPC   GL220080  15.002  25.323   3.762 -0.0728 -0.1662 -0.1756
    1DIPC   C1A20081  14.899  24.851   4.079 -0.0725  0.0756 -0.0597
    1DIPC   D2A20082  15.061  24.698   4.404  0.3852 -0.5074 -0.1338
    1DIPC   D3A20083  14.764  24.840   4.596  0.1112 -0.1683  0.2717
    1DIPC   C4A20084  14.421  24.648   4.778  0.0536 -0.0827  0.1901
    1DIPC   C1B20085  14.874  25.321   4.174  0.1823 -0.0870  0.3643
    1DIPC   D2B20086  15.011  25.249   4.667 -0.4251 -0.0570 -0.3172
    1DIPC   D3B20087  15.407  25.292   4.796  0.1070 -0.3580  0.0132
    1DIPC   C4B20088  15.718  24.995   4.675  0.2358  0.0415  0.0487
    1DIPC   NC320089  20.335  26.761   3.182  0.0781  0.3441 -0.1054
    1DIPC   PO420090  20.462  26.426   3.398 -0.0952  0.1536  0.1357
    1DIPC   GL120091  20.405  26.251   3.863  0.3905 -0.2803 -0.0778
    1DIPC   GL220092  20.222  25.920   3.958 -0.1859 -0.1667  0.1423
    1DIPC   C1A20093  20.474  26.206   4.288 -0.0628 -0.2311  0.2471
    1DIPC   D2A20094  20.610  26.190   4.700 -0.1321  0.0653  0.1827
    1DIPC   D3A20095  20.919  25.858   4.768  0.1552 -0.0206  0.0725
    1DIPC   C4A20096  21.354  25.957   4.601  0.1792 -0.1531  0.0425
    1DIPC   C1B20097  20.171  25.814   4.438 -0.0757 -0.1775 -0.3140
    1DIPC   D2B20098  20.048  25.462   4.643  0.3531  0.0340  0.0158
    1DIPC   D3B20099  19.852  25.038   4.710 -0.1655 -0.1282  0.0968
    1DIPC   C4B20100  19.993  24.743   4.492  0.0072  0.1354  0.1724
    1DIPC   NC320101  15.607   4.536   3.908  0.0193 -0.0704  0.0396
    1DIPC   PO420102  15.804   4.202   3.848 -0.3742  0.2108  0.0275
    1DIPC   GL120103  15.721   4.168   4.288 -0.0854  0.0888  0.2356
    1DIPC   GL220104  15.501   4.467   4.385 -0.0246  0.2590  0.0234
    1DIPC   C1A20105  15.727   4.010   4.736  0.0879 -0.0357  0.3410
    1DIPC   D2A20106  16.075   3.826   5.020 -0.1227 -0.1585 -0.3919
    1DIPC   D3A20107  16.033   3.445   5.134 -0.2151 -0.0272  0.2743
    1DIPC   C4A20108  15.669   3.256   5.250 -0.3077  0.0185  0.0043
    1DIPC   C1B20109  15.145   4.238   4.611 -0.2151 -0.0674 -0.0012
    1DIPC   D2B20110  14.850   4.424   4.730 -0.1924 -0.2635  0.1822
    1DIPC   D3B20111  14.444   4.151   4.573  0.1514 -0.1579 -0.0741
    1DIPC   C4B20112  14.268   3.871   4.923 -0.0773 -0.1355  0.2740
    1DIPC   NC320113  12.460   4.582   3.050 -0.1581 -0.0517 -0.1318
    1DIPC   PO420114  12.475   5.005   3.213  0.0979 -0.0075  0.4238
    1DIPC   GL120115  12.575   5.339   3.496 -0.0529 -0.0380 -0.0069
    1DIPC   GL220116  12.327   5.544   3.495  0.0357  0.0033  0.3740
    1DIPC   C1A20117  12.545   5.449   3.912 -0.2483  0.0398 -0.0829
    1DIPC   D2A20118  12.409   5.515   4.325  0.1510  0.0711  0.1352
    1DIPC   D3A20119  12.320   5.265   4.562 -0.1326 -0.1982 -0.2003
    1DIPC   C4A20120  12.684   5.030   4.707 -0.2621 -0.1530  0.1888
    1DIPC   C1B20121  12.056   5.470   3.916  0.0061  0.0198  0.2250
    1DIPC   D2B20122  12.113   5.047   4.047 -0.1398 -0.0199  0.1743
    1DIPC   D3B20123  12.393   4.949   3.702  0.3742 -0.0154 -0.2827
    1DIPC   C4B20124  12.585   4.462   3.801 -0.1171 -0.1822  0.0916
    1DIPC   NC320125  12.559   9.608   2.673  0.1989  0.2355  0.2071
    1DIPC   PO420126  12.402   9.814   3.098 -0.1296 -0.0882 -0.1860
    1DIPC   GL120127  12.417   9.885   3.508  0.1046  0.2530 -0.2040
    1DIPC   GL220128  12.580   9.610   3.595 -0.2548  0.2682 -0.1056
    1DIPC   C1A20129  12.494   9.827   4.003  0.1237  0.1046  0.0406
    1DIPC   D2A20130  12.478   9.963   4.440  0.1447  0.0217  0.0418
    1DIPC   D3A20131  12.328   9.727   4.827 -0.2319 -0.0439 -0.0340
    1DIPC   C4A20132  12.570   9.428   5.057 -0.1356 -0.1265  0.0389
    1DIPC   C1B20133  12.949   9.876   3.776 -0.1394  0.1129 -0.2535
    1DIPC   D2B20134  13.012   9.967   4.212 -0.0403 -0.0130 -0.1087
    1DIPC   D3B20135  13.342  10.134   4.378 -0.0061  0.1184  0.0006
    1DIPC   C4B20136  13.357   9.823   4.647 -0.3033 -0.0320 -0.3278
    1DIPC   NC320137   9.176  28.098   3.615  0.1099  0.0463  0.0567
    1DIPC   PO420138   8.986  28.528   3.764 -0.3224  0.0623  0.0263
    1DIPC   GL120139   8.925  28.304   4.171 -0.0581  0.3844  0.0080
    1DIPC   GL220140   8.664  28.319   4.245 -0.1125 -0.0105 -0.1215
    1DIPC   C1A20141   9.206  28.180   4.393 -0.3016  0.1708 -0.1248
    1DIPC   D2A20142   9.481  28.310   4.747  0.3047 -0.0306  0.3592
    1DIPC   D3A20143   9.212  28.018   4.878  0.2193  0.1295  0.0516
    1DIPC   C4A20144   8.920  28.217   4.802 -0.0268 -0.0220  0.2765
    1DIPC   C1B20145   8.610  27.900   4.564  0.0943  0.2333 -0.0791
    1DIPC   D2B20146   8.558  27.913   5.022  0.1074 -0.0338  0.0687
    1DIPC   D3B20147   8.866  27.819   5.293  0.2786  0.1433 -0.0639
    1DIPC   C4B20148   9.313  27.626   5.224 -0.1413 -0.3490  0.0036
    1DIPC   NC320149  12.064  12.302   2.618  0.2868 -0.1561 -0.0549
    1DIPC   PO420150  11.760  12.307   2.962  0.0490  0.0025  0.1952
    1DIPC   GL120151  11.971  12.427   3.330 -0.0250 -0.2381  0.1550
    1DIPC   GL220152  11.758  12.714   3.552  0.1318  0.2201  0.1898
    1DIPC   C1A20153  12.260  12.588   3.673  0.0810  0.1405  0.0838
    1DIPC   D2A20154  12.537  12.520   4.069  0.1468  0.4032  0.1861
    1DIPC   D3A20155  12.183  12.626   4.213  0.3061 -0.3117 -0.0080
    1DIPC   C4A20156  11.930  12.847   4.306 -0.1996  0.1184 -0.0576
    1DIPC   C1B20157  11.883  12.957   3.836 -0.0603  0.0772  0.2615
    1DIPC   D2B20158  12.341  13.013   3.985  0.2045  0.0564  0.1160
    1DIPC   D3B20159  12.375  13.044   4.437 -0.0368  0.2072  0.0303
    1DIPC   C4B20160  12.649  13.226   4.567  0.0576 -0.1164  0.1418
    1DIPC   NC320161  18.719  25.581   3.423 -0.0896 -0.0128 -0.2561
    1DIPC   PO420162  18.899  25.125   3.437  0.0078  0.1042  0.0431
    1DIPC   GL120163  18.963  25.076   3.824 -0.1031  0.2963  0.1051
    1DIPC   GL220164  19.291  25.361   3.971 -0.2370  0.0677  0.2705
    1DIPC   C1A20165  18.839  24.926   4.160 -0.2328 -0.2576 -0.3945
    1DIPC   D2A20166  18.569  24.874   4.515 -0.0126 -0.0260 -0.2241
    1DIPC   D3A20167  18.654  25.008   4.883 -0.0789 -0.0323 -0.0892
    1DIPC   C4A20168  18.361  24.915   5.290 -0.1626  0.0785 -0.0503
    1DIPC   C1B20169  19.558  25.364   4.430  0.0382  0.2572  0.1984
    1DIPC   D2B20170  19.495  25.413   4.921 -0.0757 -0.0645 -0.0027
    1DIPC   D3B20171  19.333  25.852   5.163 -0.0676  0.1932  0.0512
    1DIPC   C4B20172  18.945  25.886   5.114 -0.4536  0.0543 -0.1847
    1DIPC   NC320173   0.522  27.244   2.963  0.3475 -0.1780 -0.0586
    1DIPC   PO420174   0.777  27.666   2.891  0.0013  0.1174  0.3434
    1DIPC   GL120175   0.656  27.881   3.259  0.1409 -0.0395  0.0170
    1DIPC   GL220176   0.902  27.926   3.509  0.0966  0.1864 -0.0917
    1DIPC   C1A20177   0.298  28.173   3.292 -0.3445  0.2733 -0.2001
    1DIPC   D2A20178   0.205  28.457   3.679  0.2634  0.1198  0.0818
    1DIPC   D3A20179  -0.029  28.160   3.599  0.1630  0.1186 -0.2321
    1DIPC   C4A20180  -0.089  27.756   3.539 -0.2180 -0.0887  0.0742
    1DIPC   C1B20181   1.269  27.819   3.683  0.1556  0.0340  0.0922
    1DIPC   D2B20182   1.616  27.768   4.036  0.1112  0.0396 -0.0206
    1DIPC   D3B20183   1.741  28.200   4.221  0.0414  0.1313 -0.0855
    1DIPC   C4B20184   1.889  28.601   3.919  0.3621  0.1622 -0.0204
    1DIPC   NC320185   8.977  23.289   2.760  0.2270 -0.3936  0.0669
    1DIPC   PO420186   9.343  23.095   2.795  0.3263  0.0490 -0.1704
    1DIPC   GL120187   9.306  23.110   3.240 -0.1822  0.0352 -0.4270
    1DIPC   GL220188   9.432  23.063   3.619 -0.0405 -0.1713 -0.2667
    1DIPC   C1A20189   8.931  23.170   3.539 -0.2021  0.1782 -0.1106
    1DIPC   D2A20190   8.908  23.272   3.898  0.0641  0.0934 -0.2228
    1DIPC   D3A20191   9.319  23.038   4.156  0.0673  0.4032 -0.0848
    1DIPC   C4A20192   9.257  22.608   4.444 -0.2097  0.0828 -0.0099
    1DIPC   C1B20193   9.120  22.746   3.696 -0.0047 -0.2577 -0.2194
    1DIPC   D2B20194   8.940  22.588   4.090  0.1452 -0.1607 -0.1393
    1DIPC   D3B20195   8.709  22.831   4.299  0.0991 -0.0696 -0.2690
    1DIPC   C4B20196   8.294  22.841   4.474  0.0505  0.1659  0.1025
    1DIPC   NC320197  23.586  26.305   3.150  0.1348 -0.3060 -0.1242
    1DIPC   PO420198  23.832  26.276   3.429 -0.0699 -0.0021 -0.0989
    1DIPC   GL120199  23.923  26.387   3.758 -0.0378  0.0296  0.0828
    1DIPC   GL220200  24.018  26.612   3.884 -0.1442  0.1669 -0.0214
    1DIPC   C1A20201  24.083  26.094   4.033 -0.1390  0.1338  0.3564
    1DIPC   D2A20202  24.210  25.989   4.312  0.0360  0.0983 -0.0531
    1DIPC   D3A20203  23.999  26.047   4.670 -0.1803  0.1804 -0.1707
    1DIPC   C4A20204  24.207  25.832   4.906 -0.0975 -0.3993  0.2138
    1DIPC   C1B20205  23.844  26.497   4.248 -0.1769 -0.2370  0.2312
    1DIPC   D2B20206  23.706  26.709   4.707  0.1098 -0.0832 -0.0919
    1DIPC   D3B20207  23.223  26.670   4.904 -0.3476  0.1748  0.1042
    1DIPC   C4B20208  23.047  26.279   4.964 -0.0323  0.1881  0.0930
    1DIPC   NC320209   6.131   3.405   3.674 -0.0313  0.0757 -0.0388
    1DIPC   PO420210   5.785   3.248   3.781 -0.1593  0.1975  0.1208
    1DIPC   GL120211   5.715   3.369   4.130  0.0812  0.0816 -0.3289
    1DIPC   GL220212   5.852   3.087   4.328 -0.2308 -0.1566  0.1208
    1DIPC   C1A20213   5.582   3.483   4.480 -0.0107  0.3302 -0.1278
    1DIPC   D2A20214   5.477   3.802   4.795 -0.0372 -0.2974  0.1783
    1DIPC   D3A20215   5.713   4.121   4.914 -0.0670  0.3885 -0.0556
    1DIPC   C4A20216   5.677   4.192   5.274  0.1079 -0.1076  0.1041
    1DIPC   C1B20217   6.037   3.300   4.635 -0.1022 -0.1384 -0.0411
    1DIPC   D2B20218   6.223   3.118   5.013 -0.2805  0.0284  0.1247
    1DIPC   D3B20219   5.790   2.942   5.191  0.0657  0.0354 -0.1214
    1DIPC   C4B20220   5.391   3.153   5.407  0.2059 -0.0702  0.0753
    1DIPC   NC320221  23.636  13.689   1.476 -0.2052 -0.1461 -0.1414
    1DIPC   PO420222  23.203  13.695   1.507 -0.1287  0.1469 -0.0142
    1DIPC   GL120223  23.259  13.871   1.886  0.2298  0.2762 -0.1903
    1DIPC   GL220224  23.196  13.782   2.077 -0.1666 -0.0765  0.0474
    1DIPC   C1A20225  23.446  14.181   2.242 -0.2808  0.0011  0.3003
    1DIPC   D2A20226  23.668  14.263   2.628 -0.1212  0.2269  0.0848
    1DIPC   D3A20227  23.503  14.352   3.064 -0.2785 -0.0744  0.0684
    1DIPC   C4A20228  23.141  14.541   3.170  0.0580 -0.1532 -0.0118
    1DIPC   C1B20229  23.249  13.761   2.522  0.1347 -0.1198  0.0518
    1DIPC   D2B20230  23.521  13.877   2.901  0.0058  0.0530  0.2436
    1DIPC   D3B20231  23.690  13.545   2.766  0.0091  0.0821  0.2488
    1DIPC   C4B20232  23.933  13.437   3.148 -0.1278  0.0229 -0.0419
    1DIPC   NC320233  21.034  27.804   3.151  0.3833 -0.0370 -0.1718
    1DIPC   PO420234  20.651  27.460   3.257 -0.0656 -0.0854  0.1143
    1DIPC   GL120235  20.421  27.547   3.648 -0.1543 -0.4592  0.2254
    1DIPC   GL220236  20.518  27.387   3.952  0.1891 -0.0290  0.0624
    1DIPC   C1A20237  20.128  27.643   3.964 -0.2140  0.4009 -0.1300
    1DIPC   D2A20238  20.043  27.683   4.419  0.2407  0.0510  0.0705
    1DIPC   D3A20239  19.536  27.542   4.306  0.1368  0.2238 -0.0151
    1DIPC   C4A20240  19.247  27.579   4.669 -0.1921 -0.3061 -0.3455
    1DIPC   C1B20241  20.775  27.261   4.433  0.1539 -0.1471  0.0536
    1DIPC   D2B20242  20.692  27.291   4.813  0.1857 -0.1893 -0.0245
    1DIPC   D3B20243  20.919  27.275   5.260  0.1677  0.1630  0.3437
    1DIPC   C4B20244  20.818  27.019   5.471  0.0513  0.1144  0.1226
    1DIPC   NC320245  29.325   7.854   2.730 -0.1225 -0.2440 -0.0632
    1DIPC   PO420246  28.989   7.684   2.889 -0.0502 -0.2684  0.1280
    1DIPC   GL120247  29.074   7.820   3.315 -0.1826 -0.2342 -0.1636
    1DIPC   GL220248  28.993   7.744   3.621 -0.0883  0.0954 -0.2525
    1DIPC   C1A20249  28.859   8.165   3.487 -0.3884 -0.0492 -0.0594
    1DIPC   D2A20250  29.086   8.330   3.850 -0.1653 -0.1995  0.1093
    1DIPC   D3A20251  29.144   8.498   4.251 -0.0355 -0.0114  0.2516
    1DIPC   C4A20252  29.407   8.404   4.541 -0.3453  0.0597 -0.1131
    1DIPC   C1B20253  28.906   7.809   4.072  0.1776 -0.1754  0.2767
    1DIPC   D2B20254  28.538   7.793   4.370 -0.2515 -0.0878 -0.0394
    1DIPC   D3B20255  28.282   7.849   4.221  0.0155  0.1350  0.2300
    1DIPC   C4B20256  27.829   7.829   4.369 -0.0569 -0.1706  0.3052
    1DIPC   NC320257  23.228  15.232   1.366 -0.0698  0.1386  0.1258
    1DIPC   PO420258  22.899  14.953   1.541  0.0575 -0.0473 -0.1467
    1DIPC   GL120259  23.055  15.207   1.878 -0.2819 -0.0100  0.1020
    1DIPC   GL220260  22.770  15.185   2.100  0.3772  0.2300  0.1261
    1DIPC   C1A20261  23.188  15.559   2.233  0.1505  0.0290  0.0429
    1DIPC   D2A20262  23.390  15.574   2.619 -0.4937  0.2373  0.0676
    1DIPC   D3A20263  23.736  15.827   3.018 -0.1604 -0.2520  0.2013
    1DIPC   C4A20264  23.772  16.171   3.197 -0.1122  0.1947  0.0574
    1DIPC   C1B20265  22.991  15.128   2.482  0.1222  0.0588 -0.0947
    1DIPC   D2B20266  23.125  15.295   2.903  0.4064 -0.0495  0.0611
    1DIPC   D3B20267  23.466  15.420   3.070 -0.1285 -0.0080  0.3670
    1DIPC   C4B20268  23.691  15.261   3.344  0.1896  0.3765 -0.1935
    1DIPC   NC320269   1.395  26.713   3.135  0.0291  0.1164  0.0389
    1DIPC   PO420270   1.822  26.593   3.427 -0.2960  0.2297  0.0230
    1DIPC   GL120271   2.058  26.787   3.731 -0.3214 -0.0679  0.0277
    1DIPC   GL220272   2.159  26.665   3.928  0.1265  0.4465  0.0006
    1DIPC   C1A20273   2.270  27.160   3.850 -0.1429  0.0350  0.0669
    1DIPC   D2A20274   2.452  27.339   4.227  0.1653 -0.3148  0.0894
    1DIPC   D3A20275   1.992  27.386   4.174 -0.0817  0.2631 -0.0268
    1DIPC   C4A20276   1.856  27.411   3.754  0.0435 -0.2323  0.0789
    1DIPC   C1B20277   2.537  26.567   4.142  0.0599  0.1624 -0.0114
    1DIPC   D2B20278   2.667  26.482   4.479 -0.2237  0.0715 -0.0585
    1DIPC   D3B20279   2.371  26.732   4.850  0.3636  0.1610 -0.0492
    1DIPC   C4B20280   1.935  26.642   4.834 -0.1129 -0.1043 -0.3718
    1DIPC   NC320281   6.140  22.796   3.010 -0.0484  0.1020 -0.0717
    1DIPC   PO420282   5.711  22.883   3.100 -0.0000 -0.1695 -0.3785
    1DIPC   GL120283   5.517  22.786   3.397  0.2846 -0.1690  0.1333
    1DIPC   GL220284   5.203  22.830   3.358 -0.0789 -0.1652 -0.4373
    1DIPC   C1A20285   5.539  22.817   3.886  0.1281 -0.2871  0.0410
    1DIPC   D2A20286   5.709  22.864   4.175  0.1345  0.0418  0.0020
    1DIPC   D3A20287   5.544  23.034   4.462  0.2540 -0.1084  0.1151
    1DIPC   C4A20288   5.499  22.817   4.814 -0.1223  0.2623  0.4770
    1DIPC   C1B20289   5.376  23.212   3.597 -0.0058  0.3108 -0.0677
    1DIPC   D2B20290   5.696  23.285   3.387  0.1782  0.0280 -0.1864
    1DIPC   D3B20291   5.918  22.984   3.635 -0.2295  0.0617  0.1627
    1DIPC   C4B20292   6.071  23.115   4.024 -0.1424 -0.0072  0.0855
    1DIPC   NC320293  26.128  21.562   1.987  0.1517  0.1821 -0.1718
    1DIPC   PO420294  26.416  21.353   2.001 -0.1504 -0.1037  0.1846
    1DIPC   GL120295  26.256  21.098   2.326 -0.1040  0.0157 -0.3103
    1DIPC   GL220296  26.161  21.332   2.480 -0.0084  0.0147 -0.1186
    1DIPC   C1A20297  26.298  20.781   2.640 -0.0679  0.2355 -0.3218
    1DIPC   D2A20298  26.283  20.510   3.036  0.3154  0.3488 -0.0018
    1DIPC   D3A20299  26.059  20.785   3.248  0.4766  0.3688  0.1160
    1DIPC   C4A20300  26.140  20.609   3.779 -0.0113 -0.1092 -0.1064
    1DIPC   C1B20301  25.949  21.157   2.883  0.0688  0.0899  0.1510
    1DIPC   D2B20302  25.723  21.140   3.296  0.1228  0.0906 -0.0387
    1DIPC   D3B20303  25.263  21.224   3.374 -0.3774 -0.0419 -0.1970
    1DIPC   C4B20304  25.124  21.438   3.711 -0.1053  0.0157 -0.0667
    1DIPC   NC320305   8.228   0.611   3.464  0.1244 -0.1323 -0.2522
    1DIPC   PO420306   8.017   0.237   3.385 -0.1925  0.1388 -0.3784
    1DIPC   GL120307   7.980   0.260   3.785 -0.1087 -0.2448 -0.1521
    1DIPC   GL220308   7.634   0.507   3.866 -0.0756 -0.0954 -0.1395
    1DIPC   C1A20309   8.246   0.246   4.240  0.1883  0.2969  0.0817
    1DIPC   D2A20310   8.175   0.377   4.629  0.1294 -0.2545  0.3021
    1DIPC   D3A20311   7.977   0.408   5.098 -0.0687 -0.0715 -0.0832
    1DIPC   C4A20312   7.692   0.727   5.319  0.1628  0.0681 -0.1036
    1DIPC   C1B20313   7.425   0.172   4.088  0.0996  0.0173 -0.3420
    1DIPC   D2B20314   7.012  -0.056   4.201 -0.1304 -0.2269 -0.2907
    1DIPC   D3B20315   6.861  -0.511   4.161  0.2194 -0.1360  0.1124
    1DIPC   C4B20316   6.743  -0.670   4.496  0.2359 -0.1319  0.0942
    1DIPC   NC320317  26.702  26.739   3.536 -0.0980 -0.0723  0.2334
    1DIPC   PO420318  26.772  26.327   3.394  0.2013  0.0746  0.0899
    1DIPC   GL120319  26.621  26.291   3.740 -0.1595  0.2804 -0.3248
    1DIPC   GL220320  26.513  25.949   3.768 -0.0661 -0.0763 -0.1472
    1DIPC   C1A20321  26.747  26.263   4.201  0.0940  0.1677 -0.0921
    1DIPC   D2A20322  26.646  26.216   4.657 -0.2308 -0.0252 -0.2513
    1DIPC   D3A20323  26.683  25.787   4.716 -0.3137  0.0892 -0.0180
    1DIPC   C4A20324  26.533  25.495   5.115  0.1630 -0.0953  0.2085
    1DIPC   C1B20325  26.184  26.056   4.064  0.0636  0.0260  0.3066
    1DIPC   D2B20326  26.131  26.006   4.483 -0.2021 -0.0778  0.0303
    1DIPC   D3B20327  26.260  25.962   4.902  0.4588 -0.2768 -0.4249
    1DIPC   C4B20328  26.066  25.704   5.148  0.2457  0.1359  0.2321
    1DIPC   NC320329  14.258  11.899   3.089  0.0318 -0.0062 -0.0189
    1DIPC   PO420330  14.249  12.303   3.093 -0.1035  0.0621  0.2728
    1DIPC   GL120331  14.522  12.428   3.486 -0.1155 -0.1264  0.0919
    1DIPC   GL220332  14.522  12.291   3.733  0.2125  0.0387 -0.0447
    1DIPC   C1A20333  14.507  12.747   3.864 -0.2054 -0.1374  0.3021
    1DIPC   D2A20334  14.627  13.241   4.047  0.0503  0.0882  0.2639
    1DIPC   D3A20335  14.875  13.402   4.422 -0.1410  0.1345 -0.3324
    1DIPC   C4A20336  14.886  13.103   4.796 -0.1948  0.1900  0.1369
    1DIPC   C1B20337  14.465  11.887   3.856 -0.0425 -0.0596  0.0864
    1DIPC   D2B20338  14.719  11.527   3.947 -0.0980  0.3244  0.1719
    1DIPC   D3B20339  14.671  11.562   4.330 -0.2839  0.2925  0.2689
    1DIPC   C4B20340  14.230  11.606   4.551  0.0650  0.1249 -0.1679
    1DIPC   NC320341  27.904  14.640   1.674 -0.1586  0.4587  0.1831
    1DIPC   PO420342  27.980  14.988   1.517  0.1395 -0.1355 -0.1374
    1DIPC   GL120343  27.725  15.097   1.944 -0.1425  0.0651  0.1726
    1DIPC   GL220344  27.630  15.383   1.896  0.0976  0.0275  0.1190
    1DIPC   C1A20345  27.297  15.150   2.205 -0.1584 -0.0036  0.0837
    1DIPC   D2A20346  26.881  15.154   2.497  0.4173  0.1946  0.1710
    1DIPC   D3A20347  26.723  15.522   2.722  0.2022 -0.2104 -0.0521
    1DIPC   C4A20348  26.742  15.634   3.177 -0.5924 -0.1935 -0.1920
    1DIPC   C1B20349  27.225  15.474   1.731  0.1354  0.0200 -0.1275
    1DIPC   D2B20350  26.911  15.713   1.710  0.0459  0.0471  0.1455
    1DIPC   D3B20351  26.881  16.027   2.023 -0.0077  0.2201  0.1485
    1DIPC   C4B20352  26.767  16.066   2.378  0.0010  0.2923  0.2107
    1DIPC   NC320353   6.323   1.254   2.769  0.0173  0.3032  0.1960
    1DIPC   PO420354   6.191   0.885   2.893 -0.0228 -0.2470 -0.1650
    1DIPC   GL120355   6.264   0.879   3.357 -0.0251  0.1677 -0.0060
    1DIPC   GL220356   6.399   0.574   3.314 -0.0227  0.1206  0.1967
    1DIPC   C1A20357   6.088   0.872   3.711  0.2066 -0.1425  0.1854
    1DIPC   D2A20358   6.172   0.958   4.203 -0.0009  0.0451  0.2549
    1DIPC   D3A20359   5.973   0.727   4.460  0.0643  0.0342  0.0893
    1DIPC   C4A20360   5.767   0.575   4.828  0.1185 -0.3068 -0.0943
    1DIPC   C1B20361   6.350   0.336   3.633 -0.1952  0.1183  0.0499
    1DIPC   D2B20362   6.170  -0.000   3.792 -0.1577 -0.1272 -0.1996
    1DIPC   D3B20363   6.190  -0.110   4.253 -0.0237  0.0371  0.2613
    1DIPC   C4B20364   6.150   0.179   4.613 -0.1671  0.0104  0.3841
    1DIPC   NC320365  14.229  27.128   2.293  0.0334 -0.2612  0.3377
    1DIPC   PO420366  14.227  27.281   2.748  0.0231  0.0905 -0.0008
    1DIPC   GL120367  14.109  27.033   3.100  0.1117 -0.6047  0.0479
    1DIPC   GL220368  13.800  27.206   3.233  0.2661  0.0048 -0.1425
    1DIPC   C1A20369  14.111  26.965   3.579  0.0976 -0.0125 -0.1023
    1DIPC   D2A20370  14.016  27.006   3.992  0.1501  0.0670  0.1925
    1DIPC   D3A20371  13.629  26.857   4.185 -0.2278  0.1796  0.0219
    1DIPC   C4A20372  13.676  26.450   4.283  0.0347 -0.2507 -0.3617
    1DIPC   C1B20373  13.590  26.896   3.108 -0.2061  0.2581  0.3146
    1DIPC   D2B20374  13.241  26.549   3.080 -0.0069  0.0448 -0.0687
    1DIPC   D3B20375  13.153  26.583   3.587 -0.2602 -0.0747  0.2782
    1DIPC   C4B20376  13.377  26.386   3.887  0.4485 -0.0291 -0.1566
    1DIPC   NC320377   8.946   0.033   3.587  0.0234 -0.1290  0.4662
    1DIPC   PO420378   9.068   0.495   3.729  0.1924  0.2696 -0.1486
    1DIPC   GL120379   9.227   0.358   4.175  0.2859 -0.3397  0.1722
    1DIPC   GL220380   9.297   0.682   4.274 -0.2055 -0.0948 -0.2699
    1DIPC   C1A20381   9.235   0.114   4.532  0.1687  0.0363  0.0882
    1DIPC   D2A20382   9.456  -0.001   5.018  0.1767 -0.0123 -0.0227
    1DIPC   D3A20383   9.170  -0.296   5.345 -0.3134 -0.2996  0.0799
    1DIPC   C4A20384   9.110  -0.612   5.110  0.1078  0.4133  0.1148
    1DIPC   C1B20385   8.982   1.005   4.308 -0.1420 -0.0070  0.0595
    1DIPC   D2B20386   8.763   1.411   4.463 -0.0693  0.2854  0.0659
    1DIPC   D3B20387   8.792   1.533   4.943 -0.0170 -0.6455  0.0254
    1DIPC   C4B20388   8.502   1.900   5.156 -0.0421 -0.5015 -0.0993
    1DIPC   NC320389   5.634  10.590   2.662 -0.0366  0.0105  0.3504
    1DIPC   PO420390   5.840  10.935   2.846 -0.0667  0.4081  0.0989
    1DIPC   GL120391   6.166  10.882   3.092 -0.0397 -0.2380 -0.0395
    1DIPC   GL220392   6.526  11.151   3.192 -0.0681 -0.0738  0.5107
    1DIPC   C1A20393   6.313  10.851   3.606 -0.1022  0.1827 -0.0643
    1DIPC   D2A20394   6.231  10.901   4.088 -0.2013 -0.2061 -0.1225
    1DIPC   D3A20395   6.277  11.128   4.485  0.1913  0.0236  0.0478
    1DIPC   C4A20396   5.983  10.985   4.832  0.0220  0.0900 -0.0866
    1DIPC   C1B20397   6.503  11.301   3.603  0.0489 -0.1097 -0.0404
    1DIPC   D2B20398   6.607  11.300   4.102 -0.0429  0.0949 -0.0616
    1DIPC   D3B20399   6.782  11.273   4.426 -0.0311  0.0388  0.2109
    1DIPC   C4B20400   6.627  11.510   4.697 -0.1076 -0.2473  0.0495
    1DIPC   NC320401   6.521   9.965   2.721 -0.3357  0.0733  0.1989
    1DIPC   PO420402   6.959   9.979   2.815 -0.3473 -0.4439  0.0538
    1DIPC   GL120403   6.716  10.264   3.120 -0.1414  0.4050  0.0486
    1DIPC   GL220404   6.623   9.925   3.223  0.1728 -0.0467  0.0081
    1DIPC   C1A20405   6.233  10.425   3.255 -0.1730 -0.2057 -0.1549
    1DIPC   D2A20406   5.802  10.534   3.214 -0.0349 -0.2160  0.0055
    1DIPC   D3A20407   5.770  10.153   3.405 -0.0041  0.0172  0.0322
    1DIPC   C4A20408   6.092  10.059   3.550  0.1648 -0.0392 -0.4444
    1DIPC   C1B20409   6.993   9.951   3.587  0.1004  0.0122  0.1714
    1DIPC   D2B20410   7.042   9.573   3.794  0.0838  0.0324  0.2456
    1DIPC   D3B20411   7.065   9.845   4.098  0.0221 -0.3151 -0.0970
    1DIPC   C4B20412   6.703  10.010   4.276 -0.1830  0.1090 -0.0224
    1DIPC   NC320413  15.163  16.897   3.044 -0.0393  0.3568 -0.0095
    1DIPC   PO420414  14.705  16.909   3.184 -0.0130 -0.0956 -0.2342
    1DIPC   GL120415  14.750  17.006   3.627 -0.1195  0.0032  0.2633
    1DIPC   GL220416  14.711  17.353   3.665 -0.0197 -0.3315 -0.0846
    1DIPC   C1A20417  14.442  17.091   4.001 -0.0216  0.4175 -0.3185
    1DIPC   D2A20418  14.124  16.790   4.120  0.2063  0.0420  0.1590
    1DIPC   D3A20419  13.775  16.874   4.392 -0.1106  0.3079  0.4216
    1DIPC   C4A20420  13.546  16.544   4.654 -0.2031 -0.1509 -0.1119
    1DIPC   C1B20421  14.849  17.325   4.054 -0.2430 -0.1214 -0.0128
    1DIPC   D2B20422  15.074  17.056   4.468 -0.3660 -0.0255  0.1124
    1DIPC   D3B20423  15.324  17.308   4.799 -0.0811 -0.0928 -0.1989
    1DIPC   C4B20424  15.471  17.839   4.785 -0.0828 -0.0350 -0.0551
    1DIPC   NC320425  22.773  18.152   1.760 -0.0531 -0.1870 -0.0814
    1DIPC   PO420426  22.204  18.008   1.880 -0.1833  0.2520 -0.1197
    1DIPC   GL120427  21.876  17.933   2.120  0.0154  0.2764 -0.2024
    1DIPC   GL220428  22.091  17.840   2.415 -0.0296 -0.0165 -0.0911
    1DIPC   C1A20429  21.579  17.875   2.402 -0.2222  0.0771 -0.0562
    1DIPC   D2A20430  21.329  18.233   2.725 -0.1814  0.1012 -0.2286
    1DIPC   D3A20431  21.318  17.806   2.934 -0.0341 -0.1384  0.1765
    1DIPC   C4A20432  20.894  17.790   2.945 -0.0705 -0.0126 -0.2361
    1DIPC   C1B20433  21.879  17.995   2.777  0.0099 -0.1323  0.1924
    1DIPC   D2B20434  21.853  17.958   3.238  0.1225 -0.5065 -0.0480
    1DIPC   D3B20435  22.043  17.486   3.282  0.4100 -0.0816 -0.4716
    1DIPC   C4B20436  22.096  17.035   3.558 -0.1820 -0.1136  0.2409
    1DIPC   NC320437  26.906   1.613   2.980 -0.1471 -0.3806  0.2925
    1DIPC   PO420438  26.983   1.277   3.168 -0.1791  0.0461  0.2137
    1DIPC   GL120439  27.113   1.003   3.535  0.4534 -0.1556  0.2345
    1DIPC   GL220440  27.363   1.228   3.760  0.3231 -0.0440  0.0002
    1DIPC   C1A20441  27.428   0.687   3.740  0.0684 -0.2127 -0.0117
    1DIPC   D2A20442  27.500   0.562   4.083  0.1887 -0.0756 -0.2036
    1DIPC   D3A20443  27.257   0.224   4.041  0.0800  0.0610  0.1529
    1DIPC   C4A20444  26.782   0.155   3.961 -0.0498  0.1561  0.0408
    1DIPC   C1B20445  26.951   1.314   3.888  0.2360 -0.2010  0.0528
    1DIPC   D2B20446  26.492   1.371   4.029 -0.1528 -0.0504 -0.0245
    1DIPC   D3B20447  26.215   1.045   3.892  0.0859 -0.3170  0.1664
    1DIPC   C4B20448  25.741   1.118   3.870  0.1181 -0.1899 -0.0717
    1DIPC   NC320449  24.797   0.156   3.255 -0.3968  0.0053  0.1907
    1DIPC   PO420450  24.388   0.127   3.499  0.0558 -0.0066 -0.0803
    1DIPC   GL120451  24.401   0.015   3.980 -0.0407  0.0552  0.1666
    1DIPC   GL220452  24.685   0.139   4.154  0.0691  0.2384  0.2345
    1DIPC   C1A20453  24.248   0.075   4.415  0.2375  0.2584  0.0359
    1DIPC   D2A20454  24.557   0.253   4.702  0.3862 -0.0217  0.2772
    1DIPC   D3A20455  24.691   0.150   5.130 -0.0722 -0.1162  0.0132
    1DIPC   C4A20456  24.306   0.152   5.366 -0.1620  0.0284  0.2825
    1DIPC   C1B20457  24.678   0.564   4.357 -0.0873  0.4360 -0.0356
    1DIPC   D2B20458  24.434   0.784   4.626 -0.2369  0.0922 -0.0596
    1DIPC   D3B20459  24.835   0.589   4.844 -0.1285  0.1271  0.2177
    1DIPC   C4B20460  25.339   0.683   4.880 -0.1387  0.1568  0.0298
    1DIPC   NC320461   4.254   4.862   3.261  0.4942 -0.1742  0.1118
    1DIPC   PO420462   4.457   5.132   3.064  0.1420 -0.1952 -0.2369
    1DIPC   GL120463   4.183   5.377   3.354 -0.0109 -0.1953 -0.2246
    1DIPC   GL220464   3.985   5.143   3.571  0.0052  0.0283  0.0184
    1DIPC   C1A20465   4.233   5.609   3.653  0.2434  0.1232 -0.0136
    1DIPC   D2A20466   3.901   5.651   3.901  0.0523 -0.1475 -0.0509
    1DIPC   D3A20467   4.072   5.282   4.011 -0.0739  0.0997 -0.1447
    1DIPC   C4A20468   4.516   5.148   3.697  0.0671 -0.2002  0.0415
    1DIPC   C1B20469   3.593   4.940   3.500  0.0709  0.1613 -0.1971
    1DIPC   D2B20470   3.350   4.731   3.834 -0.0160  0.4077 -0.0867
    1DIPC   D3B20471   3.316   4.209   3.831  0.2510  0.3109  0.3941
    1DIPC   C4B20472   3.509   3.886   4.064 -0.0690  0.1803 -0.4589
    1DIPC   NC320473  18.014   4.969   3.430 -0.1315  0.1591 -0.1494
    1DIPC   PO420474  17.882   4.496   3.279  0.0077 -0.0465  0.0327
    1DIPC   GL120475  18.018   4.434   3.798 -0.2522 -0.1274  0.3286
    1DIPC   GL220476  18.410   4.547   3.949 -0.2070 -0.0614  0.0035
    1DIPC   C1A20477  17.920   4.544   4.222  0.0217 -0.1510 -0.1242
    1DIPC   D2A20478  17.862   4.410   4.628  0.2227  0.2281  0.0150
    1DIPC   D3A20479  18.101   4.468   4.997 -0.1496 -0.0385  0.4998
    1DIPC   C4A20480  18.515   4.291   4.931 -0.0696  0.1015  0.2600
    1DIPC   C1B20481  18.864   4.459   4.092 -0.0791  0.2423  0.0952
    1DIPC   D2B20482  19.180   4.353   4.329  0.0296 -0.0626  0.2778
    1DIPC   D3B20483  19.177   3.994   4.537  0.2491 -0.1744  0.0401
    1DIPC   C4B20484  18.886   3.954   4.879 -0.2278 -0.0197 -0.0844
    1DIPC   NC320485  23.840  18.200   1.289 -0.1921  0.2947  0.2371
    1DIPC   PO420486  24.351  18.261   1.344 -0.1542  0.0306  0.0260
    1DIPC   GL120487  24.485  18.543   1.734  0.0657  0.1112 -0.2634
    1DIPC   GL220488  24.345  18.854   1.904 -0.1562  0.1809  0.2435
    1DIPC   C1A20489  24.594  18.436   2.069  0.0778  0.1988 -0.0370
    1DIPC   D2A20490  24.543  18.294   2.405  0.1635 -0.2939 -0.1709
    1DIPC   D3A20491  24.137  18.235   2.311  0.0573 -0.2819  0.0907
    1DIPC   C4A20492  24.091  17.814   2.238  0.1418 -0.1904  0.2369
    1DIPC   C1B20493  24.361  19.249   2.047  0.2329 -0.0885 -0.2127
    1DIPC   D2B20494  24.504  19.554   2.370  0.1671  0.0304  0.0569
    1DIPC   D3B20495  24.685  19.241   2.554 -0.0621 -0.3584  0.0125
    1DIPC   C4B20496  25.008  19.258   2.892  0.3472 -0.0705 -0.2009
    1DIPC   NC320497  23.798   6.697   3.014  0.1496  0.1758 -0.1139
    1DIPC   PO420498  23.746   6.326   3.301 -0.0133 -0.1098  0.3337
    1DIPC   GL120499  23.751   6.340   3.820 -0.0707 -0.0733  0.0873
    1DIPC   GL220500  23.528   6.049   3.992  0.1233 -0.0900  0.1534
    1DIPC   C1A20501  23.539   6.575   4.110  0.2151 -0.0141  0.1199
    1DIPC   D2A20502  23.627   6.787   4.510 -0.0920  0.0972 -0.1933
    1DIPC   D3A20503  23.653   6.673   4.951 -0.0442  0.0228 -0.1544
    1DIPC   C4A20504  23.963   6.573   5.194 -0.0533  0.1920  0.0135
    1DIPC   C1B20505  23.539   6.213   4.454 -0.3580 -0.0805 -0.0641
    1DIPC   D2B20506  23.216   6.375   4.780 -0.1821 -0.0729  0.1338
    1DIPC   D3B20507  22.741   6.435   4.667  0.3004  0.0004  0.1309
    1DIPC   C4B20508  22.640   6.439   4.246 -0.0854 -0.2899  0.3186
    1DIPC   NC320509   2.200   3.104   3.248 -0.0575  0.5103 -0.1590
    1DIPC   PO420510   1.903   2.845   3.021 -0.1315 -0.1616  0.2941
    1DIPC   GL120511   1.958   2.500   3.322  0.0609  0.1108 -0.1674
    1DIPC   GL220512   1.733   2.468   3.631 -0.0453  0.1836  0.0654
    1DIPC   C1A20513   2.265   2.454   3.667 -0.1438  0.0916 -0.1058
    1DIPC   D2A20514   2.538   2.345   4.009 -0.0005  0.2075 -0.2405
    1DIPC   D3A20515   2.599   2.021   4.389 -0.1606 -0.0388  0.2476
    1DIPC   C4A20516   2.392   1.818   4.802  0.0392 -0.0039  0.1094
    1DIPC   C1B20517   1.972   2.299   4.037  0.0075  0.2798 -0.1568
    1DIPC   D2B20518   2.168   2.341   4.422 -0.0743 -0.3045  0.0249
    1DIPC   D3B20519   2.392   2.670   4.727  0.2025 -0.0469  0.0239
    1DIPC   C4B20520   2.300   2.548   5.073  0.3119  0.2832  0.2659
    1DIPC   NC320521   9.865  28.414   3.900 -0.2392 -0.2175 -0.4511
    1DIPC   PO420522   9.484  28.560   3.638  0.2375  0.2848 -0.1080
    1DIPC   GL120523   9.360  28.633   4.094 -0.1178 -0.0332  0.1499
    1DIPC   GL220524   9.566  28.547   4.271 -0.2401  0.3467 -0.1331
    1DIPC   C1A20525   9.146  28.621   4.522  0.1059  0.2467 -0.0166
    1DIPC   D2A20526   9.135  28.617   4.898 -0.1275 -0.0177 -0.3162
    1DIPC   D3A20527   9.344  28.309   5.284 -0.0458 -0.1181 -0.1619
    1DIPC   C4A20528   9.671  28.087   5.188 -0.1154  0.0836  0.1581
    1DIPC   C1B20529   9.299  29.112   4.237 -0.0526 -0.0149  0.2915
    1DIPC   D2B20530   9.255  29.559   4.216 -0.2667 -0.4673  0.2578
    1DIPC   D3B20531   9.001  29.368   4.569  0.1670  0.0031 -0.0816
    1DIPC   C4B20532   9.309  29.109   4.685  0.0401  0.0775  0.0087
    1DIPC   NC320533  16.847  17.021   2.615 -0.1153  0.0036  0.0930
    1DIPC   PO420534  16.524  17.017   2.919 -0.1827  0.0230 -0.1619
    1DIPC   GL120535  16.539  17.190   3.371 -0.0421  0.2959  0.0469
    1DIPC   GL220536  16.913  17.283   3.456 -0.0008 -0.0811 -0.0771
    1DIPC   C1A20537  16.365  17.379   3.741 -0.2316 -0.1458 -0.1622
    1DIPC   D2A20538  16.550  17.328   4.168  0.2517  0.1079 -0.2804
    1DIPC   D3A20539  16.578  17.564   4.577  0.0170 -0.1328  0.1133
    1DIPC   C4A20540  16.431  17.944   4.417  0.0904 -0.0362 -0.0669
    1DIPC   C1B20541  16.711  17.031   3.812 -0.0642  0.1064 -0.3370
    1DIPC   D2B20542  16.566  16.764   4.199  0.0986  0.1312  0.1502
    1DIPC   D3B20543  16.611  16.393   3.867 -0.2794 -0.2493  0.1350
    1DIPC   C4B20544  16.559  16.081   4.136 -0.0983 -0.1758  0.0470
    1DIPC   NC320545  10.118   3.879   3.762  0.3775 -0.0049  0.0304
    1DIPC   PO420546  10.281   4.071   4.185 -0.1913 -0.4245 -0.0895
    1DIPC   GL120547  10.472   3.796   4.419 -0.0343  0.3310  0.2136
    1DIPC   GL220548  10.271   3.558   4.359  0.0615 -0.0509  0.1291
    1DIPC   C1A20549  10.667   3.731   4.739  0.0754 -0.0916  0.5853
    1DIPC   D2A20550  10.740   3.875   5.164 -0.2946 -0.2355 -0.2651
    1DIPC   D3A20551  10.394   4.170   5.308 -0.2741 -0.0983  0.1424
    1DIPC   C4A20552  10.438   4.591   5.092  0.2093 -0.0737  0.1190
    1DIPC   C1B20553  10.077   3.479   4.739 -0.0461 -0.1213  0.2820
    1DIPC   D2B20554   9.688   3.443   4.964 -0.0122 -0.1559 -0.1129
    1DIPC   D3B20555   9.466   3.755   5.180  0.2641  0.0537 -0.1180
    1DIPC   C4B20556   9.327   3.507   5.536 -0.2550 -0.0803  0.1739
    1DIPC   NC320557   5.866   5.531   3.416  0.0491 -0.0726 -0.2095
    1DIPC   PO420558   5.936   5.114   3.302 -0.2579  0.1649 -0.1447
    1DIPC   GL120559   5.777   5.173   3.781  0.3499  0.0123  0.1859
    1DIPC   GL220560   5.413   5.019   3.783  0.0606  0.1666 -0.1891
    1DIPC   C1A20561   5.569   5.232   4.156  0.3829 -0.2206 -0.5259
    1DIPC   D2A20562   5.544   5.448   4.495 -0.1958 -0.1362 -0.1280
    1DIPC   D3A20563   6.000   5.525   4.507  0.1191  0.1214  0.0678
    1DIPC   C4A20564   6.098   5.275   4.208 -0.2854 -0.1242 -0.1778
    1DIPC   C1B20565   5.339   4.783   4.198 -0.2391  0.1208 -0.4063
    1DIPC   D2B20566   4.902   4.680   4.396 -0.3168 -0.0925  0.0592
    1DIPC   D3B20567   4.736   5.031   4.655 -0.1161  0.0948 -0.0201
    1DIPC   C4B20568   5.013   5.148   5.015 -0.1896  0.3619 -0.1960
    1DIPC   NC320569  29.674   8.429   3.076  0.1344 -0.1749  0.1922
    1DIPC   PO420570  30.130   8.413   2.942  0.2195  0.3067  0.0756
    1DIPC   GL120571  30.524   8.179   3.220  0.1407  0.2154 -0.0823
    1DIPC   GL220572  30.794   8.100   3.048  0.0220  0.1322 -0.1171
    1DIPC   C1A20573  30.602   8.213   3.635 -0.0736 -0.0320 -0.2452
    1DIPC   D2A20574  30.467   8.330   4.028  0.2587 -0.1890 -0.1660
    1DIPC   D3A20575  30.619   8.367   4.445  0.0452 -0.1073  0.0405
    1DIPC   C4A20576  30.945   8.578   4.664  0.4738 -0.0928  0.0112
    1DIPC   C1B20577  30.984   7.953   3.487  0.1046  0.2457  0.2239
    1DIPC   D2B20578  31.017   7.792   3.942  0.0022  0.0710 -0.3409
    1DIPC   D3B20579  30.925   8.190   4.082 -0.1953 -0.2976  0.0542
    1DIPC   C4B20580  30.943   8.525   4.013  0.1068 -0.4309 -0.0512
    1DIPC   NC320581  17.548  11.799   2.322  0.0556 -0.1138 -0.2055
    1DIPC   PO420582  17.273  12.184   2.527  0.1475 -0.0278 -0.1326
    1DIPC   GL120583  17.276  12.463   2.801  0.0526 -0.2069  0.1407
    1DIPC   GL220584  17.177  12.180   3.048  0.1040 -0.1786 -0.5055
    1DIPC   C1A20585  17.474  12.596   3.223 -0.3075 -0.0909  0.1899
    1DIPC   D2A20586  17.519  12.718   3.686  0.1201  0.1332  0.1718
    1DIPC   D3A20587  17.152  12.861   3.940  0.3319 -0.2819 -0.0605
    1DIPC   C4A20588  17.182  12.721   4.354  0.0885  0.0058 -0.0793
    1DIPC   C1B20589  17.321  12.137   3.393 -0.1647 -0.3037 -0.2848
    1DIPC   D2B20590  17.523  11.839   3.580  0.0942  0.0853 -0.1668
    1DIPC   D3B20591  17.406  11.836   3.940  0.0027  0.0778 -0.1223
    1DIPC   C4B20592  17.617  11.823   4.225 -0.1853  0.1166 -0.2511
    1DIPC   NC320593  11.516   2.278   3.495  0.3722 -0.2172  0.0494
    1DIPC   PO420594  11.836   2.166   3.794 -0.0245 -0.1604  0.0468
    1DIPC   GL120595  11.961   2.352   4.217 -0.1112  0.0038 -0.0361
    1DIPC   GL220596  11.986   2.053   4.262  0.1612  0.2780 -0.1588
    1DIPC   C1A20597  12.089   2.732   4.422 -0.0826  0.0224 -0.1523
    1DIPC   D2A20598  11.939   3.104   4.680  0.1162  0.2818  0.3179
    1DIPC   D3A20599  11.973   3.465   4.820  0.0763 -0.1108  0.0796
    1DIPC   C4A20600  11.777   3.786   4.717 -0.0079 -0.1291 -0.1498
    1DIPC   C1B20601  12.076   2.229   4.639 -0.1061  0.1676 -0.2348
    1DIPC   D2B20602  11.887   2.481   4.909 -0.1262  0.3049  0.1313
    1DIPC   D3B20603  12.172   2.790   4.980 -0.0739  0.2067  0.2403
    1DIPC   C4B20604  12.493   2.922   4.724 -0.3326 -0.0371  0.0363
    1DIPC   NC320605  15.226  18.874   2.758 -0.0196  0.1005  0.0656
    1DIPC   PO420606  15.551  19.135   2.647 -0.1287 -0.1409  0.1286
    1DIPC   GL120607  15.553  19.139   3.126  0.4441  0.2683 -0.0079
    1DIPC   GL220608  15.289  19.280   3.045 -0.1661 -0.0569 -0.3358
    1DIPC   C1A20609  15.597  19.239   3.494  0.0222 -0.4029  0.0152
    1DIPC   D2A20610  15.727  19.045   3.782  0.0817  0.0186 -0.3158
    1DIPC   D3A20611  15.664  18.596   3.750 -0.1241 -0.2786  0.0347
    1DIPC   C4A20612  16.074  18.519   3.941  0.2203 -0.2272  0.0987
    1DIPC   C1B20613  15.024  19.547   3.197  0.1484 -0.1532  0.0013
    1DIPC   D2B20614  14.715  19.657   3.425  0.0426  0.1432 -0.1669
    1DIPC   D3B20615  14.389  19.329   3.615 -0.1438  0.3634  0.0074
    1DIPC   C4B20616  14.330  19.495   4.026  0.3349  0.0192 -0.1351
    1DIPC   NC320617  22.056  14.717   2.098  0.0393  0.0083  0.0112
    1DIPC   PO420618  22.272  14.286   2.047  0.3415  0.1844  0.1210
    1DIPC   GL120619  22.354  14.491   2.443  0.1120  0.0837 -0.0664
    1DIPC   GL220620  22.368  14.277   2.698  0.3322  0.0924  0.1689
    1DIPC   C1A20621  22.636  14.717   2.749  0.1930  0.0025  0.2722
    1DIPC   D2A20622  22.735  14.926   3.198 -0.2900 -0.0834  0.0824
    1DIPC   D3A20623  22.745  14.597   3.445 -0.1624  0.0695  0.0328
    1DIPC   C4A20624  22.732  14.317   3.105  0.0293 -0.1221  0.1187
    1DIPC   C1B20625  22.256  14.546   3.052  0.0759 -0.2959  0.1232
    1DIPC   D2B20626  21.970  14.546   3.386  0.0258 -0.0012 -0.3736
    1DIPC   D3B20627  22.146  14.267   3.616  0.0343  0.2622 -0.1635
    1DIPC   C4B20628  22.512  14.434   3.934 -0.1321 -0.0556 -0.2578
    1DIPC   NC320629  21.829  19.086   1.817  0.3518 -0.0553 -0.0828
    1DIPC   PO420630  21.781  19.148   2.224 -0.2612 -0.1209 -0.1660
    1DIPC   GL120631  21.749  19.210   2.708 -0.2043 -0.1990  0.0588
    1DIPC   GL220632  22.026  19.277   2.844 -0.1010  0.0138  0.0869
    1DIPC   C1A20633  21.739  19.710   2.901 -0.0238 -0.0074  0.0071
    1DIPC   D2A20634  21.760  20.218   3.036  0.0439  0.0637 -0.1950
    1DIPC   D3A20635  21.515  20.011   3.254  0.2740 -0.0091 -0.0275
    1DIPC   C4A20636  21.593  20.051   3.707 -0.2646 -0.0342  0.0784
    1DIPC   C1B20637  22.283  19.107   3.202  0.0093 -0.2575 -0.3478
    1DIPC   D2B20638  22.498  19.060   3.522  0.0136  0.0906 -0.0723
    1DIPC   D3B20639  22.328  19.492   3.523 -0.0119 -0.1661 -0.1320
    1DIPC   C4B20640  22.483  19.579   3.909 -0.2513  0.1048  0.2916
    1DIPC   NC320641  10.488   5.105   3.779 -0.0652 -0.0041 -0.0264
    1DIPC   PO420642  10.332   4.794   3.976  0.3102  0.0626 -0.0357
    1DIPC   GL120643  10.261   4.785   4.467  0.1351  0.0216  0.2410
    1DIPC   GL220644  10.240   4.475   4.635  0.3013  0.3458 -0.1460
    1DIPC   C1A20645  10.326   5.013   4.826  0.1267  0.1838 -0.0163
    1DIPC   D2A20646  10.304   5.024   5.264 -0.2847  0.1205  0.1919
    1DIPC   D3A20647  10.738   5.188   5.076 -0.2511  0.3763  0.0111
    1DIPC   C4A20648  10.897   5.595   4.984  0.0082 -0.0055  0.3143
    1DIPC   C1B20649  10.334   4.043   4.840  0.0191  0.2453 -0.2586
    1DIPC   D2B20650  10.296   3.646   5.104  0.0630 -0.2661  0.2818
    1DIPC   D3B20651  10.654   3.399   5.248 -0.0668 -0.1923 -0.0226
    1DIPC   C4B20652  10.705   3.240   5.654  0.0173  0.1314  0.0745
    1DIPC   NC320653   0.542   2.059   2.802 -0.3482  0.0330  0.2582
    1DIPC   PO420654   0.539   2.191   3.215  0.0699  0.2743 -0.2586
    1DIPC   GL120655   0.381   2.128   3.596  0.3909 -0.1508 -0.0356
    1DIPC   GL220656   0.247   1.728   3.570  0.1483 -0.0188  0.2115
    1DIPC   C1A20657   0.514   2.060   3.999 -0.2760  0.1643 -0.0740
    1DIPC   D2A20658   0.795   1.987   4.299 -0.3864  0.0872 -0.1834
    1DIPC   D3A20659   0.550   2.121   4.706  0.2469  0.1519  0.0400
    1DIPC   C4A20660   0.584   1.941   5.106 -0.1865 -0.3480  0.0359
    1DIPC   C1B20661   0.342   1.580   3.980 -0.1494  0.3241 -0.0021
    1DIPC   D2B20662   0.307   1.808   4.406  0.0309 -0.0269 -0.0385
    1DIPC   D3B20663   0.266   1.496   4.818 -0.4682  0.1104  0.2436
    1DIPC   C4B20664   0.079   1.038   4.767  0.2339 -0.0885  0.1203
    1DIPC   NC320665  14.552  25.735   3.397  0.0676  0.0048  0.1998
    1DIPC   PO420666  14.699  26.224   3.395 -0.0805  0.1205  0.2587
    1DIPC   GL120667  14.673  26.207   3.825 -0.0787 -0.1252  0.0116
    1DIPC   GL220668  15.035  26.021   3.953  0.0440  0.0057  0.1065
    1DIPC   C1A20669  14.465  26.461   4.187  0.0022  0.2422  0.2746
    1DIPC   D2A20670  14.088  26.283   4.494 -0.2714 -0.0616  0.3346
    1DIPC   D3A20671  14.355  26.512   4.812  0.0236  0.0391  0.1554
    1DIPC   C4A20672  14.125  26.669   5.203 -0.1083  0.1833  0.3669
    1DIPC   C1B20673  14.792  26.178   4.328  0.1342  0.0338 -0.1345
    1DIPC   D2B20674  14.850  26.193   4.742 -0.2445 -0.1185  0.2386
    1DIPC   D3B20675  14.840  26.389   5.126 -0.2316  0.0491  0.3141
    1DIPC   C4B20676  14.880  26.837   5.076  0.0069 -0.1858 -0.1016
    1DIPC   NC320677  22.937  11.057   1.800 -0.2337 -0.1955  0.2468
    1DIPC   PO420678  22.959  11.421   1.934  0.1047 -0.1332 -0.2719
    1DIPC   GL120679  22.707  11.310   2.165  0.0764 -0.0752  0.1838
    1DIPC   GL220680  22.457  11.006   2.119 -0.0932 -0.0561 -0.2211
    1DIPC   C1A20681  22.767  11.044   2.483 -0.0872  0.2191 -0.0415
    1DIPC   D2A20682  22.890  10.913   2.792  0.0355 -0.3456 -0.0894
    1DIPC   D3A20683  22.586  10.723   2.860  0.0026  0.0476  0.1827
    1DIPC   C4A20684  22.350  10.436   2.476  0.1653 -0.1077 -0.0173
    1DIPC   C1B20685  22.258  10.904   2.484 -0.0019  0.1364 -0.1640
    1DIPC   D2B20686  22.137  10.581   2.864 -0.0365 -0.2204  0.1011
    1DIPC   D3B20687  22.241  10.746   3.283 -0.0668 -0.1766 -0.1115
    1DIPC   C4B20688  22.654  10.917   3.359  0.1745  0.0780 -0.3006
    1DIPC   NC320689  17.582  28.440   3.207  0.1139 -0.0673 -0.3953
    1DIPC   PO420690  17.857  28.709   3.294 -0.0984  0.1540 -0.0043
    1DIPC   GL120691  17.919  28.857   3.705  0.3436  0.1129 -0.1127
    1DIPC   GL220692  18.203  28.699   3.834  0.2160 -0.1562  0.1990
    1DIPC   C1A20693  17.954  29.229   3.830 -0.0888 -0.1808 -0.1092
    1DIPC   D2A20694  18.182  29.315   4.207 -0.3739 -0.0688 -0.0244
    1DIPC   D3A20695  18.556  29.024   4.120  0.2905 -0.2158  0.0910
    1DIPC   C4A20696  18.811  28.845   4.463 -0.5001  0.0267  0.2930
    1DIPC   C1B20697  18.293  28.653   4.345  0.3854  0.3675  0.0498
    1DIPC   D2B20698  18.300  28.739   4.803 -0.1864  0.1140  0.4138
    1DIPC   D3B20699  18.379  29.115   4.933 -0.0993 -0.1596  0.0698
    1DIPC   C4B20700  18.428  29.200   4.615  0.0971  0.1811 -0.3010
    1DIPC   NC320701   0.509   4.233   3.433  0.0832 -0.1695  0.3083
    1DIPC   PO420702   0.968   4.434   3.494 -0.1769  0.0223  0.1516
    1DIPC   GL120703   1.035   4.533   3.992 -0.1815 -0.3502  0.0599
    1DIPC   GL220704   1.126   4.250   4.092 -0.1221  0.2210 -0.0203
    1DIPC   C1A20705   1.120   4.744   4.302 -0.1711 -0.1185 -0.0031
    1DIPC   D2A20706   1.335   4.971   4.654  0.1885 -0.0941  0.1787
    1DIPC   D3A20707   1.745   5.143   4.771 -0.2150  0.2759 -0.3133
    1DIPC   C4A20708   1.910   5.506   4.776 -0.3097 -0.1323 -0.1452
    1DIPC   C1B20709   1.193   4.262   4.565 -0.1942 -0.1614 -0.1915
    1DIPC   D2B20710   1.191   4.439   4.998  0.2407 -0.0926 -0.1190
    1DIPC   D3B20711   0.847   4.605   4.819 -0.0812 -0.0063  0.1957
    1DIPC   C4B20712   0.723   4.348   4.379  0.0727  0.0307  0.1372
    1DIPC   NC320713  12.999   5.250   3.240  0.2734  0.0171  0.3012
    1DIPC   PO420714  13.014   5.711   3.209 -0.2003 -0.1285  0.0731
    1DIPC   GL120715  12.922   5.791   3.637 -0.0028 -0.2786  0.1474
    1DIPC   GL220716  13.060   5.461   3.698 -0.0487  0.1184  0.2473
    1DIPC   C1A20717  12.796   5.888   4.084 -0.0908  0.0870 -0.3349
    1DIPC   D2A20718  12.942   5.948   4.480 -0.0971 -0.3186 -0.0634
    1DIPC   D3A20719  12.837   6.190   4.780  0.0597 -0.0870 -0.0274
    1DIPC   C4A20720  12.752   6.544   4.988  0.1788 -0.2926  0.1275
    1DIPC   C1B20721  13.067   5.429   4.162 -0.1051  0.1711 -0.1884
    1DIPC   D2B20722  13.215   5.501   4.521  0.2048 -0.4339 -0.0049
    1DIPC   D3B20723  12.772   5.576   4.743 -0.0766  0.0598  0.3275
    1DIPC   C4B20724  12.577   5.353   5.100  0.0424 -0.0863 -0.0504
    1DIPC   NC320725  13.713  23.670   2.742  0.1567  0.0564 -0.1336
    1DIPC   PO420726  13.400  23.738   2.450  0.0655 -0.3052  0.0398
    1DIPC   GL120727  12.988  23.822   2.768 -0.0710 -0.1341 -0.0237
    1DIPC   GL220728  12.832  23.585   2.566 -0.2044 -0.3837 -0.0430
    1DIPC   C1A20729  12.908  23.830   3.189  0.1193 -0.4019  0.1118
    1DIPC   D2A20730  12.758  24.081   3.571  0.0135 -0.2858  0.0138
    1DIPC   D3A20731  12.456  24.313   3.469  0.1599  0.1131 -0.0871
    1DIPC   C4A20732  12.385  24.435   3.796 -0.1021 -0.2037 -0.0434
    1DIPC   C1B20733  12.708  23.411   2.978  0.3423  0.1759  0.1575
    1DIPC   D2B20734  12.954  23.104   3.334 -0.4482  0.0160  0.1480
    1DIPC   D3B20735  12.645  23.123   3.690 -0.4117  0.2904 -0.0573
    1DIPC   C4B20736  12.846  22.816   3.929  0.0717  0.2140 -0.0118
    1DIPC   NC320737   6.699  26.541   2.871 -0.2026 -0.3859 -0.3045
    1DIPC   PO420738   6.396  26.311   3.083  0.3382 -0.0240 -0.0126
    1DIPC   GL120739   6.289  26.202   3.451 -0.1172  0.3352  0.2572
    1DIPC   GL220740   6.317  25.915   3.463  0.1595 -0.1344 -0.1494
    1DIPC   C1A20741   6.017  26.154   3.787 -0.0189  0.2705  0.0053
    1DIPC   D2A20742   5.734  25.862   3.877 -0.0222  0.3255 -0.3686
    1DIPC   D3A20743   5.793  26.172   4.235  0.1656  0.1516 -0.1129
    1DIPC   C4A20744   5.870  26.586   4.415 -0.0478  0.3096  0.1168
    1DIPC   C1B20745   6.206  25.733   3.974 -0.3778  0.0823  0.0665
    1DIPC   D2B20746   5.984  25.699   4.448  0.0484  0.1413 -0.1640
    1DIPC   D3B20747   6.299  25.693   4.786  0.3531 -0.0924  0.3528
    1DIPC   C4B20748   6.379  25.510   5.175 -0.0523  0.1861 -0.0210
    1DIPC   NC320749   7.010   1.785   3.748  0.1641  0.0687  0.1108
    1DIPC   PO420750   7.465   1.701   3.587 -0.0253 -0.3113  0.0220
    1DIPC   GL120751   7.643   1.667   3.927 -0.0397  0.0479  0.0774
    1DIPC   GL220752   7.887   1.738   3.973  0.0853  0.1434  0.0829
    1DIPC   C1A20753   7.653   1.551   4.405 -0.1489 -0.2056  0.0552
    1DIPC   D2A20754   7.481   1.465   4.774 -0.0605 -0.2096  0.0357
    1DIPC   D3A20755   7.553   1.403   5.322  0.1969  0.3653  0.3988
    1DIPC   C4A20756   7.354   1.488   5.625  0.1423  0.1085  0.1472
    1DIPC   C1B20757   8.000   1.949   4.353  0.2200 -0.0383  0.1923
    1DIPC   D2B20758   8.103   1.932   4.819 -0.0753 -0.0021  0.2522
    1DIPC   D3B20759   7.660   1.984   4.902  0.2475 -0.1346  0.3558
    1DIPC   C4B20760   7.554   1.929   5.380  0.0245 -0.2191  0.0320
    1DIPC   NC320761  18.189  21.916   2.703  0.0752  0.4234 -0.2912
    1DIPC   PO420762  18.595  22.059   2.917 -0.0122 -0.1040 -0.0716
    1DIPC   GL120763  18.734  21.972   3.330 -0.0103 -0.1420 -0.1058
    1DIPC   GL220764  18.721  21.679   3.342 -0.4896  0.0909  0.1909
    1DIPC   C1A20765  19.020  22.082   3.696 -0.1709  0.2792 -0.2048
    1DIPC   D2A20766  19.325  22.048   4.072 -0.1505  0.0656  0.2281
    1DIPC   D3A20767  18.926  21.870   4.218 -0.0596 -0.1986  0.3198
    1DIPC   C4A20768  18.872  21.723   4.587 -0.1006 -0.0550  0.2924
    1DIPC   C1B20769  19.009  21.523   3.591 -0.0411 -0.1576  0.1469
    1DIPC   D2B20770  19.396  21.750   3.622  0.0287 -0.0419  0.1139
    1DIPC   D3B20771  19.471  21.546   3.953 -0.2907  0.0486  0.3069
    1DIPC   C4B20772  19.300  21.632   4.370 -0.1468 -0.1254  0.1497
    1DIPC   NC320773  17.510  10.937   2.370  0.1154 -0.2279  0.1791
    1DIPC   PO420774  17.375  11.295   2.380 -0.0445 -0.0129  0.3147
    1DIPC   GL120775  17.588  11.536   2.784 -0.1953 -0.0627 -0.2005
    1DIPC   GL220776  17.332  11.757   2.776  0.0177  0.2494 -0.5167
    1DIPC   C1A20777  18.109  11.654   2.806  0.1733 -0.0794 -0.2810
    1DIPC   D2A20778  18.459  11.344   2.903  0.3378 -0.0588  0.1624
    1DIPC   D3A20779  18.292  10.952   3.105 -0.1503 -0.6539  0.0207
    1DIPC   C4A20780  17.844  10.979   3.056  0.1021  0.2267  0.0444
    1DIPC   C1B20781  17.249  11.661   3.173 -0.0298 -0.1827 -0.0512
    1DIPC   D2B20782  17.107  11.642   3.596 -0.1722 -0.0056  0.1342
    1DIPC   D3B20783  17.354  11.379   3.619 -0.0109  0.1050 -0.1011
    1DIPC   C4B20784  17.717  11.424   3.819  0.2296 -0.0240 -0.2199
    1DIPC   NC320785  16.009  27.734   2.854  0.0958 -0.0008  0.0322
    1DIPC   PO420786  16.303  27.517   3.105 -0.1327  0.2548  0.0832
    1DIPC   GL120787  16.330  27.767   3.508  0.0720 -0.0700  0.0074
    1DIPC   GL220788  16.475  27.770   3.726 -0.2017 -0.2789 -0.0415
    1DIPC   C1A20789  15.906  27.716   3.831 -0.2277  0.0949  0.1108
    1DIPC   D2A20790  15.480  27.670   3.662 -0.1434 -0.0434  0.2848
    1DIPC   D3A20791  15.212  27.448   3.861 -0.0463  0.2311  0.1462
    1DIPC   C4A20792  15.020  27.011   3.927 -0.0364  0.0104  0.1469
    1DIPC   C1B20793  16.864  27.800   3.994 -0.0522  0.1786 -0.0733
    1DIPC   D2B20794  17.089  27.723   4.286  0.1547  0.1505  0.0578
    1DIPC   D3B20795  17.289  27.642   4.718 -0.0656  0.0544 -0.0195
    1DIPC   C4B20796  16.969  27.360   5.044  0.0125 -0.0453  0.5584
    1DIPC   NC320797   7.011  26.416   3.279  0.2017  0.0156 -0.2532
    1DIPC   PO420798   7.361  26.427   3.567  0.3993  0.0891 -0.0085
    1DIPC   GL120799   7.033  26.811   3.662 -0.4164 -0.0188  0.0171
    1DIPC   GL220800   7.147  27.126   3.828  0.1271  0.3182 -0.0574
    1DIPC   C1A20801   6.688  26.943   3.785  0.1108 -0.0673 -0.2242
    1DIPC   D2A20802   6.344  27.155   3.709 -0.1879 -0.0246  0.0643
    1DIPC   D3A20803   5.897  27.002   3.739 -0.0327 -0.2413 -0.0726
    1DIPC   C4A20804   5.675  27.355   3.992  0.2676  0.4148  0.1557
    1DIPC   C1B20805   7.599  27.206   4.106 -0.0761  0.0372 -0.1390
    1DIPC   D2B20806   7.584  27.118   4.583  0.1842 -0.0013 -0.0167
    1DIPC   D3B20807   7.645  26.920   4.990  0.0139 -0.0426 -0.0609
    1DIPC   C4B20808   7.741  27.065   5.358 -0.0638 -0.0203 -0.1541
    1DIPC   NC320809  19.734  18.592   2.619 -0.1479  0.5508 -0.1005
    1DIPC   PO420810  20.108  18.852   2.445  0.0280 -0.4746  0.3649
    1DIPC   GL120811  20.019  18.855   2.907 -0.0287 -0.0535  0.0429
    1DIPC   GL220812  20.351  18.626   2.866 -0.0141  0.1526  0.0379
    1DIPC   C1A20813  20.216  18.784   3.354  0.5327  0.0204 -0.0710
    1DIPC   D2A20814  20.358  18.537   3.708  0.0243  0.0875 -0.2724
    1DIPC   D3A20815  20.655  18.411   3.934  0.0214 -0.2488  0.0852
    1DIPC   C4A20816  20.497  18.091   4.279 -0.2833 -0.1668  0.0774
    1DIPC   C1B20817  20.538  18.992   3.075  0.1228 -0.1222 -0.2832
    1DIPC   D2B20818  20.679  19.431   3.044  0.1926  0.1620  0.1682
    1DIPC   D3B20819  20.441  19.850   3.049 -0.0840 -0.3695 -0.0664
    1DIPC   C4B20820  20.076  19.999   3.277  0.0988 -0.1265 -0.0379
    1DIPC   NC320821   7.789  26.040   3.157  0.1122 -0.0025 -0.0118
    1DIPC   PO420822   8.161  25.800   3.109 -0.1057  0.3039  0.1537
    1DIPC   GL120823   8.155  26.083   3.455  0.2083  0.0830  0.0850
    1DIPC   GL220824   7.912  26.020   3.702  0.2271  0.0782 -0.0214
    1DIPC   C1A20825   8.403  26.158   3.873 -0.0948  0.0884 -0.2207
    1DIPC   D2A20826   8.713  26.367   4.034  0.1779 -0.0153  0.1738
    1DIPC   D3A20827   9.056  26.224   4.278 -0.0083  0.0407 -0.1969
    1DIPC   C4A20828   9.408  25.930   4.285  0.2678  0.2045 -0.1260
    1DIPC   C1B20829   7.777  26.208   4.060 -0.0955  0.0809  0.2485
    1DIPC   D2B20830   7.781  26.176   4.521 -0.1434  0.0012  0.0609
    1DIPC   D3B20831   7.322  26.141   4.600  0.4809  0.1013 -0.1030
    1DIPC   C4B20832   7.085  25.783   4.584  0.2643  0.0196 -0.1239
    1DIPC   NC320833  21.577  14.101   2.178 -0.0833  0.1748  0.1925
    1DIPC   PO420834  21.409  13.690   2.193  0.1746  0.1786 -0.1616
    1DIPC   GL120835  21.649  13.610   2.577 -0.0060 -0.1192  0.0852
    1DIPC   GL220836  21.586  13.877   2.674  0.1940  0.0905 -0.1065
    1DIPC   C1A20837  21.730  13.329   2.802  0.1682 -0.0042  0.1128
    1DIPC   D2A20838  21.538  12.921   2.775 -0.0112  0.2796 -0.0790
    1DIPC   D3A20839  21.331  13.154   3.090 -0.1546 -0.0242  0.2012
    1DIPC   C4A20840  21.572  13.352   3.354  0.0764 -0.0792 -0.1135
    1DIPC   C1B20841  21.700  13.761   3.095  0.1196  0.1812 -0.0228
    1DIPC   D2B20842  21.779  13.751   3.531 -0.1347  0.2547 -0.0702
    1DIPC   D3B20843  21.322  13.762   3.678 -0.1704 -0.0887  0.0069
    1DIPC   C4B20844  21.392  13.316   3.825 -0.0623 -0.0755  0.2572
    1DIPC   NC320845  19.919   9.904   2.624 -0.0413 -0.1888 -0.0820
    1DIPC   PO420846  20.276   9.873   2.895 -0.0597  0.0006  0.1364
    1DIPC   GL120847  20.265   9.939   3.383  0.1328  0.2439  0.0389
    1DIPC   GL220848  20.590  10.141   3.463 -0.3286 -0.1813  0.0364
    1DIPC   C1A20849  20.231  10.267   3.735 -0.1891  0.2618  0.2053
    1DIPC   D2A20850  20.568  10.270   4.070  0.1762 -0.1400 -0.0107
    1DIPC   D3A20851  20.966  10.081   4.110 -0.1228 -0.1717 -0.1780
    1DIPC   C4A20852  21.412  10.218   3.986 -0.1230  0.1556  0.1495
    1DIPC   C1B20853  21.033  10.014   3.511 -0.1434  0.1586  0.0438
    1DIPC   D2B20854  21.422   9.845   3.584 -0.1415 -0.4761 -0.0020
    1DIPC   D3B20855  21.580   9.978   3.164  0.2950  0.0150 -0.3848
    1DIPC   C4B20856  21.558  10.415   3.039 -0.0650 -0.0614 -0.0220
    1DIPC   NC320857  10.248   1.665   3.634 -0.0898  0.1891  0.1899
    1DIPC   PO420858  10.197   1.212   3.686  0.1961 -0.0324 -0.0337
    1DIPC   GL120859   9.822   1.269   3.873  0.0040 -0.0623  0.1613
    1DIPC   GL220860  10.075   1.385   4.119  0.2181 -0.0623 -0.1769
    1DIPC   C1A20861   9.628   1.191   4.321  0.2004  0.2639 -0.0000
    1DIPC   D2A20862   9.564   0.941   4.685  0.2804  0.0938 -0.0921
    1DIPC   D3A20863   9.232   1.183   4.711  0.1072  0.1155  0.1381
    1DIPC   C4A20864   9.171   1.235   5.082  0.4261  0.1249  0.1597
    1DIPC   C1B20865  10.079   1.437   4.527 -0.3267  0.0878  0.1433
    1DIPC   D2B20866  10.121   1.517   5.064 -0.2449 -0.1782 -0.1134
    1DIPC   D3B20867   9.710   1.751   5.301  0.4762 -0.1049 -0.1550
    1DIPC   C4B20868   9.827   1.898   5.686 -0.0170  0.1769  0.0829
    1DIPC   NC320869  25.456   1.364   2.979 -0.2838 -0.0718  0.0338
    1DIPC   PO420870  25.573   1.529   3.395 -0.0850 -0.4443  0.1241
    1DIPC   GL120871  25.779   1.701   3.754  0.2698 -0.1339 -0.1870
    1DIPC   GL220872  26.134   1.739   3.813  0.2429  0.2222 -0.0411
    1DIPC   C1A20873  25.982   1.448   4.171 -0.0982 -0.0454 -0.1350
    1DIPC   D2A20874  26.204   1.442   4.582  0.1648  0.1898 -0.0349
    1DIPC   D3A20875  26.268   1.886   4.766  0.1010 -0.1614  0.2718
    1DIPC   C4A20876  25.874   1.971   4.950 -0.1494 -0.3553  0.0061
    1DIPC   C1B20877  26.350   1.801   4.220 -0.1343  0.0235 -0.0995
    1DIPC   D2B20878  26.655   2.080   4.357  0.3503 -0.2748 -0.0976
    1DIPC   D3B20879  26.679   2.056   4.803  0.0125 -0.0974 -0.1880
    1DIPC   C4B20880  26.681   1.705   5.070 -0.0415 -0.2793 -0.0391
    1DIPC   NC320881   6.942  11.509   2.296  0.0488  0.2230  0.1822
    1DIPC   PO420882   7.082  11.829   2.658 -0.0867 -0.1815  0.0629
    1DIPC   GL120883   7.068  11.731   3.022 -0.0298 -0.1018  0.3369
    1DIPC   GL220884   7.353  11.606   3.097 -0.1823 -0.0296  0.0602
    1DIPC   C1A20885   6.871  11.679   3.441 -0.2340 -0.0365  0.0657
    1DIPC   D2A20886   6.622  11.752   3.861 -0.1757  0.1042  0.1069
    1DIPC   D3A20887   6.449  11.762   4.302  0.2821 -0.1886 -0.1281
    1DIPC   C4A20888   6.512  12.004   4.702  0.0714 -0.2348 -0.1191
    1DIPC   C1B20889   7.588  11.922   3.256  0.0465  0.1149 -0.2920
    1DIPC   D2B20890   7.878  12.100   3.506  0.3337  0.0845  0.0658
    1DIPC   D3B20891   7.674  12.073   3.898 -0.1928  0.1707 -0.0140
    1DIPC   C4B20892   7.365  11.775   3.757 -0.2971  0.0258 -0.0934
    1DIPC   NC320893   9.975  26.141   3.065  0.2396 -0.2107 -0.0993
    1DIPC   PO420894   9.602  26.384   3.088  0.0105 -0.2312 -0.2084
    1DIPC   GL120895   9.500  26.209   3.501 -0.0507  0.4851 -0.3671
    1DIPC   GL220896   9.340  26.393   3.781 -0.0493  0.0388 -0.1051
    1DIPC   C1A20897   9.668  25.821   3.730  0.1776 -0.1895 -0.1440
    1DIPC   D2A20898   9.477  25.464   3.903 -0.1713  0.0203  0.1044
    1DIPC   D3A20899   9.126  25.713   3.938  0.0779  0.1663 -0.1689
    1DIPC   C4A20900   8.781  25.824   4.174  0.0897 -0.0280  0.1527
    1DIPC   C1B20901   9.600  26.257   3.995 -0.1114  0.0932 -0.4098
    1DIPC   D2B20902   9.978  26.082   4.294  0.0643 -0.3826  0.0124
    1DIPC   D3B20903  10.317  25.738   4.280 -0.0197 -0.0712  0.1531
    1DIPC   C4B20904  10.110  25.276   4.283 -0.0613 -0.1909  0.2305
    1DIPC   NC320905   5.050   5.901   2.816  0.0954 -0.2026  0.4541
    1DIPC   PO420906   4.979   6.103   3.257 -0.2274 -0.0580  0.0752
    1DIPC   GL120907   4.795   5.989   3.604 -0.0877 -0.0772  0.1291
    1DIPC   GL220908   4.684   5.667   3.541 -0.1342 -0.0553  0.0204
    1DIPC   C1A20909   4.542   6.015   3.985  0.2447 -0.4741  0.2048
    1DIPC   D2A20910   4.446   6.312   4.203 -0.0653  0.2234  0.3363
    1DIPC   D3A20911   4.380   6.275   4.677  0.0558  0.1385  0.0950
    1DIPC   C4A20912   4.119   5.898   4.901 -0.3748  0.1990 -0.0112
    1DIPC   C1B20913   4.596   5.539   3.963  0.0034 -0.1547 -0.0929
    1DIPC   D2B20914   4.414   5.474   4.343 -0.2004 -0.1513 -0.0724
    1DIPC   D3B20915   4.559   5.873   4.501 -0.0366  0.0239 -0.1519
    1DIPC   C4B20916   4.658   5.808   5.022  0.0278 -0.0133  0.3209
    1DIPC   NC320917  19.217  14.352   1.968  0.0633  0.1007 -0.1623
    1DIPC   PO420918  18.917  14.065   2.139 -0.0630 -0.0181  0.1136
    1DIPC   GL120919  19.088  14.064   2.586  0.0387 -0.2036  0.2358
    1DIPC   GL220920  18.908  13.768   2.602  0.1682  0.0566  0.1523
    1DIPC   C1A20921  19.313  14.006   2.975  0.0696  0.1720  0.2087
    1DIPC   D2A20922  19.316  14.394   3.210  0.1421  0.3229 -0.0341
    1DIPC   D3A20923  19.295  14.721   3.473  0.0731  0.1704 -0.1455
    1DIPC   C4A20924  19.114  14.693   3.840 -0.2120  0.2132  0.1548
    1DIPC   C1B20925  18.783  13.704   3.034 -0.0342  0.0256  0.1353
    1DIPC   D2B20926  18.831  13.722   3.460 -0.0278  0.0938  0.0456
    1DIPC   D3B20927  18.952  13.980   3.443  0.0396  0.2295 -0.0899
    1DIPC   C4B20928  19.233  14.257   3.707  0.3210  0.0847  0.1691
    1DIPC   NC320929  22.120   9.246   2.155  0.0955  0.1153 -0.2736
    1DIPC   PO420930  22.342   9.370   2.509  0.1141  0.0687  0.0377
    1DIPC   GL120931  22.496   9.485   2.946  0.1719  0.2023  0.2073
    1DIPC   GL220932  22.213   9.467   3.198 -0.2612 -0.0666  0.2675
    1DIPC   C1A20933  22.808   9.402   3.251 -0.0318 -0.0720  0.2108
    1DIPC   D2A20934  22.978   9.261   3.512  0.2510 -0.1241  0.1423
    1DIPC   D3A20935  23.207   9.562   3.679  0.0667  0.0416 -0.1988
    1DIPC   C4A20936  23.054   9.783   4.059  0.0524 -0.1527 -0.0702
    1DIPC   C1B20937  22.031   9.764   3.439 -0.0248  0.0363 -0.0926
    1DIPC   D2B20938  21.877  10.003   3.772  0.2824 -0.4876 -0.1299
    1DIPC   D3B20939  21.566  10.316   3.539  0.1293  0.0113  0.5238
    1DIPC   C4B20940  21.534  10.649   3.883 -0.1757  0.0064 -0.1603
    1DIPC   NC320941  12.011   8.892   2.969 -0.0628  0.1332  0.3276
    1DIPC   PO420942  12.183   9.309   3.012 -0.1301  0.3880 -0.0990
    1DIPC   GL120943  12.043   9.368   3.456 -0.0536 -0.1486 -0.0083
    1DIPC   GL220944  11.690   9.282   3.394  0.0779 -0.0560 -0.0121
    1DIPC   C1A20945  11.905   9.088   3.828 -0.2342 -0.0351 -0.0763
    1DIPC   D2A20946  11.683   9.023   4.123 -0.4080 -0.0967 -0.1081
    1DIPC   D3A20947  11.725   8.848   4.499 -0.0242  0.0637 -0.2273
    1DIPC   C4A20948  11.477   8.405   4.629 -0.1037  0.0845 -0.1692
    1DIPC   C1B20949  11.414   9.193   3.672  0.2381  0.2497 -0.1010
    1DIPC   D2B20950  11.223   9.281   4.107 -0.0387  0.2951  0.3069
    1DIPC   D3B20951  11.490   9.589   4.424  0.0461 -0.0833 -0.1167
    1DIPC   C4B20952  11.415   9.995   4.482 -0.0747 -0.0077  0.0865
    1DIPC   NC320953   4.672   9.456   2.756  0.0473  0.2408 -0.0917
    1DIPC   PO420954   5.084   9.302   3.037  0.1299 -0.0988 -0.1403
    1DIPC   GL120955   5.036   9.180   3.544  0.1764  0.0537  0.2567
    1DIPC   GL220956   4.799   8.863   3.605  0.0813  0.0793 -0.0849
    1DIPC   C1A20957   5.395   9.151   3.912 -0.2023 -0.0180 -0.1000
    1DIPC   D2A20958   5.493   8.816   4.240 -0.1603 -0.1636  0.1674
    1DIPC   D3A20959   5.487   9.257   4.433  0.1343 -0.4144 -0.0950
    1DIPC   C4A20960   5.431   9.452   4.767 -0.1350 -0.0647 -0.2856
    1DIPC   C1B20961   4.803   8.558   3.921  0.1468 -0.0268  0.1941
    1DIPC   D2B20962   4.913   8.064   3.878  0.1369  0.0060 -0.1039
    1DIPC   D3B20963   4.513   8.086   4.025  0.2902 -0.2693  0.1226
    1DIPC   C4B20964   4.201   8.481   4.106 -0.5349 -0.1219  0.0250
    1DIPC   NC320965  27.783   4.469   2.763 -0.2206  0.0669  0.2164
    1DIPC   PO420966  27.502   4.131   2.699 -0.2788  0.2755  0.1707
    1DIPC   GL120967  27.719   3.986   3.084  0.0481  0.0089  0.1040
    1DIPC   GL220968  28.051   4.108   3.100  0.0328  0.1058 -0.1209
    1DIPC   C1A20969  27.798   4.037   3.544 -0.0994 -0.0748  0.0576
    1DIPC   D2A20970  28.087   4.304   3.770 -0.2482  0.1750 -0.0215
    1DIPC   D3A20971  27.724   4.488   3.699  0.2742 -0.1055  0.2774
    1DIPC   C4A20972  27.360   4.225   3.600 -0.1803  0.0538  0.2991
    1DIPC   C1B20973  28.407   4.063   3.343 -0.1371  0.1425  0.0406
    1DIPC   D2B20974  28.541   4.096   3.769 -0.2967 -0.2289 -0.1055
    1DIPC   D3B20975  28.400   4.103   4.159  0.0546  0.2435 -0.0706
    1DIPC   C4B20976  28.465   3.721   4.484  0.1704  0.2488  0.0846
    1DIPC   NC320977  10.294   8.261   2.758 -0.0784  0.2476 -0.0363
    1DIPC   PO420978  10.275   8.317   3.240  0.4103  0.2076  0.2050
    1DIPC   GL120979   9.924   8.179   3.531 -0.0268 -0.0963  0.0703
    1DIPC   GL220980  10.077   7.933   3.612 -0.4130  0.0245  0.2269
    1DIPC   C1A20981   9.482   7.926   3.453 -0.1112  0.1432 -0.1663
    1DIPC   D2A20982   9.160   7.873   3.654 -0.0031  0.1244  0.3252
    1DIPC   D3A20983   8.809   8.053   3.684  0.2530 -0.0911  0.0089
    1DIPC   C4A20984   8.626   8.499   3.481  0.0744  0.1344 -0.0343
    1DIPC   C1B20985   9.756   7.837   3.833 -0.2904  0.1348 -0.0044
    1DIPC   D2B20986   9.331   7.965   4.156 -0.0878  0.1744 -0.0080
    1DIPC   D3B20987   9.446   7.864   4.549  0.0927 -0.1106 -0.0129
    1DIPC   C4B20988   9.412   8.125   4.862 -0.3206 -0.1552 -0.2072
    1DIPC   NC320989   7.535   7.953   2.644 -0.0978  0.3536 -0.1263
    1DIPC   PO420990   7.447   8.158   3.020 -0.0417 -0.2403 -0.2457
    1DIPC   GL120991   7.241   8.307   3.572 -0.4778  0.1310 -0.0617
    1DIPC   GL220992   7.346   8.162   3.811  0.0042 -0.1402  0.0110
    1DIPC   C1A20993   7.092   8.650   3.826 -0.1223 -0.0659  0.2473
    1DIPC   D2A20994   7.038   8.774   4.195 -0.1916  0.0047 -0.0256
    1DIPC   D3A20995   6.667   8.860   4.369  0.1996  0.1986  0.0756
    1DIPC   C4A20996   6.577   9.032   4.803 -0.0513  0.0777 -0.1904
    1DIPC   C1B20997   7.148   8.201   4.197 -0.1493 -0.1944 -0.2472
    1DIPC   D2B20998   7.079   7.910   4.587 -0.0061 -0.0878 -0.1261
    1DIPC   D3B20999   7.155   7.693   4.167  0.1842 -0.0371 -0.1072
    1DIPC   C4B21000   6.931   7.317   4.197 -0.2388  0.0804  0.0670
    1DIPC   NC321001  15.177  22.801   2.720 -0.0311 -0.0359  0.2143
    1DIPC   PO421002  14.978  23.205   2.970  0.2148 -0.1118 -0.0796
    1DIPC   GL121003  14.866  23.130   3.470  0.0187  0.0353  0.1841
    1DIPC   GL221004  15.009  22.864   3.572  0.0044  0.0057 -0.0248
    1DIPC   C1A21005  14.627  23.347   3.818 -0.0470  0.0450 -0.1220
    1DIPC   D2A21006  14.247  23.294   3.946 -0.5229 -0.1521  0.1346
    1DIPC   D3A21007  13.996  23.337   4.209  0.0539  0.0580 -0.0083
    1DIPC   C4A21008  13.675  23.502   4.327 -0.1811 -0.1826 -0.0681
    1DIPC   C1B21009  15.101  23.114   3.862  0.2765  0.0892 -0.0801
    1DIPC   D2B21010  15.415  23.405   3.936  0.3933 -0.0549  0.1677
    1DIPC   D3B21011  15.369  23.377   4.350  0.0707  0.0061  0.3002
    1DIPC   C4B21012  14.975  23.316   4.626  0.0996 -0.1070  0.1469
    1DIPC   NC321013  18.079  26.259   2.844 -0.1791 -0.0742  0.0101
    1DIPC   PO421014  18.243  26.694   2.986  0.0573  0.2877  0.0244
    1DIPC   GL121015  18.433  26.737   3.319 -0.1253 -0.1149 -0.4798
    1DIPC   GL221016  18.188  26.831   3.573  0.2603 -0.0972  0.1125
    1DIPC   C1A21017  18.608  26.610   3.714 -0.0053  0.1211 -0.0972
    1DIPC   D2A21018  18.600  26.246   3.963 -0.3908 -0.2587 -0.2078
    1DIPC   D3A21019  18.858  26.239   4.359 -0.1252 -0.1811  0.3150
    1DIPC   C4A21020  18.682  25.928   4.666 -0.2768  0.3364  0.0114
    1DIPC   C1B21021  18.338  27.101   3.782 -0.1193  0.0064  0.0622
    1DIPC   D2B21022  18.422  27.426   3.899 -0.1989 -0.2887 -0.3808
    1DIPC   D3B21023  18.716  27.707   4.062  0.0870  0.3988  0.1146
    1DIPC   C4B21024  18.819  28.088   3.956  0.0240 -0.1629 -0.1772
    1DIPC   NC321025  25.103  23.519   2.589  0.0343  0.1369 -0.2063
    1DIPC   PO421026  25.310  23.222   2.589  0.0525  0.1052  0.0554
    1DIPC   GL121027  25.233  23.228   3.037  0.0907 -0.0557 -0.1731
    1DIPC   GL221028  24.936  23.395   3.105 -0.0609 -0.0050 -0.1966
    1DIPC   C1A21029  25.324  23.227   3.385 -0.0669 -0.3684  0.0300
    1DIPC   D2A21030  25.272  22.943   3.795  0.2775 -0.0789  0.2157
    1DIPC   D3A21031  25.697  22.661   3.875  0.0185 -0.1267  0.2583
    1DIPC   C4A21032  26.044  22.588   3.592 -0.0566 -0.1653 -0.0534
    1DIPC   C1B21033  25.089  23.633   3.479  0.0151  0.3479 -0.1763
    1DIPC   D2B21034  25.278  23.735   3.880  0.0449 -0.3831 -0.3413
    1DIPC   D3B21035  25.122  23.417   3.961  0.1483 -0.1690 -0.3202
    1DIPC   C4B21036  24.891  23.501   4.331 -0.2928 -0.0470 -0.0069
    1DIPC   NC321037   4.532   5.744   3.075 -0.4161  0.1690 -0.0004
    1DIPC   PO421038   4.133   6.081   2.990 -0.2471 -0.0027  0.0358
    1DIPC   GL121039   4.317   6.258   3.427 -0.0622  0.0935 -0.1822
    1DIPC   GL221040   4.516   6.519   3.581  0.0940  0.0464 -0.1990
    1DIPC   C1A21041   4.100   6.201   3.836  0.1536 -0.0545 -0.0397
    1DIPC   D2A21042   4.070   6.007   4.303  0.0854 -0.0652 -0.0729
    1DIPC   D3A21043   3.947   5.586   4.532  0.1071 -0.1542 -0.2624
    1DIPC   C4A21044   3.861   5.515   4.937 -0.0061 -0.1904 -0.3719
    1DIPC   C1B21045   4.764   6.635   3.980  0.3620  0.0231  0.1806
    1DIPC   D2B21046   4.755   6.641   4.467 -0.1127  0.1900  0.0777
    1DIPC   D3B21047   4.705   7.103   4.415 -0.2008 -0.2466 -0.0437
    1DIPC   C4B21048   4.391   7.472   4.372  0.1833 -0.2425  0.1886
    1DIPC   NC321049  25.992   6.938   3.080 -0.1552 -0.0762 -0.2748
    1DIPC   PO421050  25.961   7.438   3.044  0.1177 -0.0608 -0.0706
    1DIPC   GL121051  25.660   7.347   3.351 -0.0170  0.0446 -0.2642
    1DIPC   GL221052  25.405   7.418   3.414  0.2275  0.0886  0.1684
    1DIPC   C1A21053  25.856   7.332   3.740 -0.0024  0.0961  0.0008
    1DIPC   D2A21054  25.650   7.349   4.226 -0.0932 -0.0719 -0.0953
    1DIPC   D3A21055  25.740   7.537   4.508  0.2098 -0.0351 -0.1866
    1DIPC   C4A21056  26.155   7.587   4.388  0.1035 -0.0135  0.2088
    1DIPC   C1B21057  25.639   7.778   3.647 -0.2908 -0.3239  0.0145
    1DIPC   D2B21058  25.922   7.797   3.951  0.2628  0.1130 -0.0807
    1DIPC   D3B21059  25.564   8.004   4.079 -0.2523  0.4219  0.1058
    1DIPC   C4B21060  25.416   7.972   4.475 -0.3965 -0.3361  0.0402
    1DIPC   NC321061  20.690  13.736   2.034  0.1267 -0.3945 -0.0239
    1DIPC   PO421062  20.425  13.821   2.294 -0.0217  0.0475  0.1543
    1DIPC   GL121063  20.532  13.874   2.695 -0.0834  0.1136  0.0770
    1DIPC   GL221064  20.242  14.039   2.946  0.0514  0.0857  0.1752
    1DIPC   C1A21065  20.553  13.752   3.176  0.1367 -0.4740 -0.0624
    1DIPC   D2A21066  20.800  13.877   3.534  0.2275 -0.0804 -0.1333
    1DIPC   D3A21067  20.801  13.446   3.777  0.1484 -0.4354  0.0325
    1DIPC   C4A21068  21.073  13.514   4.138  0.0920  0.0571 -0.0154
    1DIPC   C1B21069  20.017  14.288   3.233 -0.0725 -0.1841  0.2202
    1DIPC   D2B21070  19.746  14.531   3.636 -0.1944 -0.0409 -0.3044
    1DIPC   D3B21071  19.626  14.175   4.036  0.0245  0.0240  0.1556
    1DIPC   C4B21072  19.605  13.855   4.254  0.1070 -0.1656  0.1295
    1DIPC   NC321073  22.986  29.677   2.922  0.0702 -0.2405 -0.2170
    1DIPC   PO421074  22.986  29.560   3.455  0.3679  0.1487 -0.1708
    1DIPC   GL121075  22.990  29.487   3.948 -0.0443 -0.1481  0.0504
    1DIPC   GL221076  23.173  29.533   4.144 -0.0862  0.3449  0.0687
    1DIPC   C1A21077  22.758  29.240   4.238  0.0785 -0.0098  0.1194
    1DIPC   D2A21078  22.468  28.859   4.136 -0.0478 -0.1059 -0.0953
    1DIPC   D3A21079  22.390  28.975   4.528  0.0746  0.0215 -0.2907
    1DIPC   C4A21080  22.038  28.756   4.795  0.3139  0.1582 -0.1245
    1DIPC   C1B21081  22.943  29.577   4.575  0.1514 -0.0580  0.1426
    1DIPC   D2B21082  22.533  29.476   4.637  0.0366 -0.0187  0.2301
    1DIPC   D3B21083  22.290  29.384   4.286  0.1523 -0.1179 -0.0538
    1DIPC   C4B21084  22.034  29.433   3.974 -0.1180  0.0605  0.2920
    1DIPC   NC321085  21.481   5.431   3.570 -0.0806 -0.1564 -0.2705
    1DIPC   PO421086  21.341   5.111   3.285  0.2931 -0.1294 -0.0426
    1DIPC   GL121087  21.472   4.953   3.717 -0.1000  0.0264 -0.2157
    1DIPC   GL221088  21.222   4.711   3.826  0.1418  0.1149 -0.1816
    1DIPC   C1A21089  21.732   4.748   3.992 -0.2090  0.0109  0.0654
    1DIPC   D2A21090  21.948   4.433   4.293 -0.1406 -0.0243  0.0505
    1DIPC   D3A21091  22.065   4.851   4.523  0.0078 -0.1178  0.3184
    1DIPC   C4A21092  22.371   4.964   4.644  0.1119  0.1445  0.1886
    1DIPC   C1B21093  21.313   4.629   4.183 -0.2292  0.1253 -0.3760
    1DIPC   D2B21094  21.538   4.662   4.494 -0.3301 -0.1847  0.0560
    1DIPC   D3B21095  21.341   5.051   4.421 -0.2399 -0.0263 -0.1003
    1DIPC   C4B21096  21.760   5.225   4.523 -0.0787  0.1446 -0.0595
    1DIPC   NC321097  26.825   0.699   3.206 -0.0230  0.0710 -0.2642
    1DIPC   PO421098  26.562   0.320   3.106 -0.1697  0.2629 -0.1643
    1DIPC   GL121099  26.569   0.358   3.487  0.1162  0.2272 -0.2118
    1DIPC   GL221100  26.370   0.385   3.661  0.0140 -0.3178 -0.0183
    1DIPC   C1A21101  26.647   0.731   3.878  0.2581  0.3401  0.2037
    1DIPC   D2A21102  27.064   0.833   3.985  0.2631 -0.1796 -0.2683
    1DIPC   D3A21103  26.852   1.032   4.333  0.1199 -0.0608  0.1577
    1DIPC   C4A21104  26.643   0.977   4.732  0.1588  0.0308 -0.0369
    1DIPC   C1B21105  26.311   0.568   4.167  0.1670 -0.1126 -0.0207
    1DIPC   D2B21106  26.207   0.892   4.514  0.1595  0.4521  0.1703
    1DIPC   D3B21107  26.429   0.498   4.655  0.1015 -0.1961  0.2077
    1DIPC   C4B21108  26.856   0.449   4.840  0.1608  0.1773 -0.1564
    1DIPC   NC321109   3.597   5.735   2.537  0.1915  0.1233 -0.3049
    1DIPC   PO421110   3.455   5.519   2.859  0.0881  0.0980 -0.0562
    1DIPC   GL121111   3.644   5.531   3.292 -0.1743  0.0942 -0.1985
    1DIPC   GL221112   3.814   5.769   3.403 -0.1715  0.1568  0.3556
    1DIPC   C1A21113   3.499   5.478   3.684  0.3780  0.2879  0.1480
    1DIPC   D2A21114   3.223   5.705   3.991  0.2879  0.0957  0.1392
    1DIPC   D3A21115   3.533   5.554   4.251 -0.1310 -0.3194 -0.0042
    1DIPC   C4A21116   3.613   5.150   4.502 -0.1288  0.0307  0.0298
    1DIPC   C1B21117   3.570   6.015   3.690 -0.3981  0.0052 -0.0359
    1DIPC   D2B21118   3.593   6.129   4.133  0.2496 -0.0065 -0.1062
    1DIPC   D3B21119   3.174   5.943   4.412 -0.3051 -0.1722  0.0109
    1DIPC   C4B21120   2.814   6.032   4.451 -0.0056 -0.0470  0.0854
    1DIPC   NC321121  29.639   7.096   2.703  0.1488  0.1511 -0.1812
    1DIPC   PO421122  29.629   7.509   2.604  0.2377  0.0224  0.3168
    1DIPC   GL121123  29.452   7.435   3.014  0.3292  0.0225 -0.0256
    1DIPC   GL221124  29.201   7.222   3.079 -0.2565 -0.1318  0.2730
    1DIPC   C1A21125  29.471   7.591   3.447  0.0657  0.2403  0.3529
    1DIPC   D2A21126  29.386   7.921   3.774  0.2990 -0.0158 -0.2176
    1DIPC   D3A21127  29.379   7.865   4.211 -0.1154  0.0195  0.1826
    1DIPC   C4A21128  29.674   7.955   4.562 -0.2984 -0.2695 -0.1590
    1DIPC   C1B21129  29.032   7.222   3.482 -0.1996  0.3899 -0.2492
    1DIPC   D2B21130  28.924   7.287   3.947 -0.0888  0.0599 -0.1471
    1DIPC   D3B21131  29.057   7.272   4.395  0.1826 -0.0449  0.0113
    1DIPC   C4B21132  28.948   6.888   4.665  0.0452 -0.0249  0.4041
    1DIPC   NC321133  26.530   6.803   2.942  0.2138  0.2509 -0.0292
    1DIPC   PO421134  26.652   6.449   3.076 -0.1538 -0.0944  0.2039
    1DIPC   GL121135  26.799   6.313   3.517  0.0500 -0.2299 -0.1011
    1DIPC   GL221136  26.524   6.275   3.671  0.0469  0.3171  0.0164
    1DIPC   C1A21137  26.903   6.459   3.838  0.2072 -0.1060  0.1740
    1DIPC   D2A21138  27.008   6.713   4.102 -0.0019 -0.1780  0.0857
    1DIPC   D3A21139  26.820   6.521   4.369  0.1138 -0.0617  0.2732
    1DIPC   C4A21140  26.701   6.859   4.733  0.2006 -0.2144 -0.0238
    1DIPC   C1B21141  26.359   5.889   3.895  0.1455  0.1805 -0.1976
    1DIPC   D2B21142  26.500   5.475   3.876 -0.0211  0.0102 -0.1425
    1DIPC   D3B21143  26.783   5.553   4.275  0.0608  0.1353  0.2931
    1DIPC   C4B21144  26.658   6.011   4.359  0.1648  0.0625 -0.0357
    1DIPC   NC321145  21.159  25.380   2.938  0.0200  0.0056 -0.0414
    1DIPC   PO421146  21.494  25.440   3.074 -0.1172 -0.1392 -0.3284
    1DIPC   GL121147  21.256  25.206   3.496  0.1008  0.0397 -0.2460
    1DIPC   GL221148  20.949  25.180   3.431  0.2888 -0.2079  0.0859
    1DIPC   C1A21149  21.303  25.053   4.007 -0.1667  0.0911 -0.2228
    1DIPC   D2A21150  21.300  24.975   4.356  0.0740 -0.2465  0.1962
    1DIPC   D3A21151  21.622  24.685   4.167 -0.0548  0.0406 -0.2911
    1DIPC   C4A21152  22.001  24.595   4.289 -0.3450 -0.1476 -0.0393
    1DIPC   C1B21153  20.875  25.199   3.842 -0.1672  0.2792  0.0352
    1DIPC   D2B21154  20.725  25.066   4.221  0.2584  0.0190  0.3127
    1DIPC   D3B21155  20.339  25.055   4.415  0.0572 -0.2663  0.3206
    1DIPC   C4B21156  20.312  25.032   4.856 -0.1121  0.1996 -0.0606
    1DIPC   NC321157   3.842  25.601   3.302 -0.0136  0.0754 -0.0783
    1DIPC   PO421158   3.571  25.899   3.207 -0.0124 -0.4252 -0.1150
    1DIPC   GL121159   3.463  25.805   3.632 -0.0273 -0.0150 -0.1616
    1DIPC   GL221160   3.207  25.827   3.790  0.2302 -0.2891  0.0999
    1DIPC   C1A21161   3.555  25.529   4.010  0.1879  0.3143  0.1953
    1DIPC   D2A21162   3.579  25.322   4.378  0.1281 -0.1497 -0.1394
    1DIPC   D3A21163   3.843  25.344   4.681  0.0857  0.0315 -0.0712
    1DIPC   C4A21164   4.252  25.655   4.660 -0.2084 -0.0161 -0.1653
    1DIPC   C1B21165   3.064  25.724   4.074 -0.1743  0.1261  0.5618
    1DIPC   D2B21166   3.190  25.635   4.483 -0.1159 -0.0448 -0.1750
    1DIPC   D3B21167   2.855  25.307   4.631 -0.0778 -0.0564  0.1477
    1DIPC   C4B21168   2.884  24.967   4.990  0.0684  0.2834  0.2836
    1DIPC   NC321169   9.187   3.169   3.378  0.0098 -0.3465 -0.0765
    1DIPC   PO421170   9.330   3.637   3.477  0.0817 -0.0538  0.0660
    1DIPC   GL121171   9.100   3.502   3.793  0.0309 -0.1160 -0.1006
    1DIPC   GL221172   9.165   3.494   4.073 -0.1087  0.2694  0.0994
    1DIPC   C1A21173   8.722   3.346   3.989  0.0081  0.3589 -0.2431
    1DIPC   D2A21174   8.405   3.029   3.898 -0.1172 -0.0418  0.1519
    1DIPC   D3A21175   8.346   2.759   4.160  0.1450 -0.1248 -0.3373
    1DIPC   C4A21176   8.296   2.843   4.602  0.2823 -0.0861 -0.0841
    1DIPC   C1B21177   9.034   3.183   4.380 -0.2745 -0.0266 -0.2362
    1DIPC   D2B21178   8.728   2.979   4.409  0.3389 -0.0252 -0.1812
    1DIPC   D3B21179   8.790   2.693   4.082 -0.2990 -0.0990  0.1084
    1DIPC   C4B21180   9.080   2.331   4.019  0.2934  0.0364  0.0271
    1DIPC   NC321181   6.819  27.659   3.020 -0.0456 -0.0740  0.4360
    1DIPC   PO421182   7.007  27.635   3.394  0.1714 -0.1847  0.0070
    1DIPC   GL121183   7.305  27.600   3.554 -0.1155  0.1553  0.1522
    1DIPC   GL221184   7.553  27.404   3.637  0.0029  0.1118  0.0087
    1DIPC   C1A21185   7.265  27.561   4.006  0.0453 -0.0444  0.0275
    1DIPC   D2A21186   7.105  27.281   4.298  0.0765 -0.0049 -0.1609
    1DIPC   D3A21187   7.141  27.268   4.755 -0.0548 -0.1723 -0.1218
    1DIPC   C4A21188   7.450  27.446   4.967  0.0485  0.1314 -0.3278
    1DIPC   C1B21189   7.750  27.653   3.905 -0.1828 -0.0219 -0.0524
    1DIPC   D2B21190   8.013  27.558   4.285 -0.1463  0.2461  0.0972
    1DIPC   D3B21191   7.977  27.368   4.747 -0.0318  0.0451 -0.1413
    1DIPC   C4B21192   8.178  26.976   4.881 -0.0981  0.2070 -0.2226
    1DIPC   NC321193  24.131  25.672   2.920  0.3531 -0.0385  0.0362
    1DIPC   PO421194  23.696  25.805   3.160  0.1724 -0.1123 -0.1743
    1DIPC   GL121195  23.508  25.804   3.584 -0.0359 -0.0817 -0.0583
    1DIPC   GL221196  23.242  25.666   3.529 -0.1474  0.4006 -0.0912
    1DIPC   C1A21197  23.631  25.884   3.941 -0.0441  0.0731 -0.2380
    1DIPC   D2A21198  23.684  25.816   4.382  0.0007 -0.1044 -0.1299
    1DIPC   D3A21199  23.939  25.543   4.339  0.1184  0.1713  0.0446
    1DIPC   C4A21200  23.879  25.107   4.484  0.1419  0.2531 -0.2098
    1DIPC   C1B21201  23.019  25.535   3.961 -0.0793 -0.0586 -0.2594
    1DIPC   D2B21202  22.749  25.219   4.143  0.0778  0.1179 -0.1461
    1DIPC   D3B21203  23.112  24.966   4.288 -0.1269 -0.2901 -0.0764
    1DIPC   C4B21204  23.125  24.810   4.798 -0.0080  0.0131  0.0544
    1DIPC   NC321205  14.673  21.853   2.920 -0.0216  0.2339  0.0056
    1DIPC   PO421206  14.833  22.196   2.983 -0.0257  0.2239  0.2171
    1DIPC   GL121207  14.423  22.245   3.090 -0.2000 -0.2495 -0.4472
    1DIPC   GL221208  14.343  22.052   3.308  0.0443 -0.1245 -0.4374
    1DIPC   C1A21209  14.237  22.430   3.591  0.1604 -0.1381 -0.0502
    1DIPC   D2A21210  14.142  22.398   4.034  0.0167  0.0027 -0.2248
    1DIPC   D3A21211  13.798  22.533   4.234 -0.1552 -0.1577  0.0795
    1DIPC   C4A21212  13.586  22.415   4.597 -0.1774  0.0449 -0.0307
    1DIPC   C1B21213  14.102  21.945   3.702  0.0324  0.1265  0.4249
    1DIPC   D2B21214  13.725  21.984   3.951 -0.2284 -0.1269 -0.0852
    1DIPC   D3B21215  13.427  21.781   3.599 -0.0373 -0.0046 -0.0116
    1DIPC   C4B21216  13.285  22.155   3.383 -0.0287  0.1535 -0.2063
    1DIPC   NC321217  19.060  18.611   2.112 -0.0508 -0.0375 -0.1749
    1DIPC   PO421218  19.261  18.708   2.523  0.2481  0.0000  0.0898
    1DIPC   GL121219  19.177  18.601   3.020 -0.0273 -0.2511 -0.0601
    1DIPC   GL221220  19.569  18.699   3.101  0.1877 -0.0818  0.0111
    1DIPC   C1A21221  19.188  18.703   3.507  0.1551 -0.0318  0.1365
    1DIPC   D2A21222  19.179  18.715   3.916 -0.1352 -0.2028  0.1073
    1DIPC   D3A21223  19.358  18.471   4.172  0.1027 -0.2333 -0.0995
    1DIPC   C4A21224  19.406  18.673   4.546 -0.3283  0.0422 -0.1022
    1DIPC   C1B21225  19.749  18.777   3.491  0.1628 -0.0312 -0.4508
    1DIPC   D2B21226  20.080  19.112   3.664 -0.0278 -0.0316  0.0049
    1DIPC   D3B21227  20.177  19.254   4.055 -0.1077  0.0226  0.0387
    1DIPC   C4B21228  20.088  19.587   4.244 -0.1886 -0.5155 -0.0279
    1DIPC   NC321229  14.485  26.581   2.996  0.0610 -0.0479 -0.3580
    1DIPC   PO421230  14.957  26.698   3.166  0.2519  0.3297 -0.0739
    1DIPC   GL121231  15.067  26.524   3.639 -0.0245 -0.1021 -0.1370
    1DIPC   GL221232  15.463  26.604   3.761 -0.1400 -0.2820 -0.2695
    1DIPC   C1A21233  14.993  26.551   4.115 -0.3095  0.0461  0.0985
    1DIPC   D2A21234  15.353  26.827   4.329  0.0205  0.0814  0.3207
    1DIPC   D3A21235  15.714  26.447   4.335 -0.4125  0.0984 -0.1963
    1DIPC   C4A21236  15.872  26.204   4.796  0.3056  0.3579  0.1568
    1DIPC   C1B21237  15.429  26.269   3.983 -0.0572 -0.0408  0.1964
    1DIPC   D2B21238  15.269  26.172   4.464  0.1574  0.2721  0.0721
    1DIPC   D3B21239  15.140  26.539   4.656  0.2281 -0.1889 -0.1537
    1DIPC   C4B21240  14.760  26.629   4.558 -0.1239 -0.0008  0.2641
    1DIPC   NC321241   4.275   0.025   3.012  0.2362 -0.1671 -0.2267
    1DIPC   PO421242   4.671  -0.162   2.713 -0.0655  0.0589 -0.0890
    1DIPC   GL121243   4.677  -0.289   3.169  0.0682 -0.0901 -0.0710
    1DIPC   GL221244   4.388  -0.501   3.277  0.0351 -0.3037 -0.2144
    1DIPC   C1A21245   4.791  -0.183   3.586  0.1216 -0.3686  0.0047
    1DIPC   D2A21246   4.613  -0.107   3.985 -0.1264 -0.0651 -0.1678
    1DIPC   D3A21247   4.915  -0.171   4.453  0.4170  0.0325  0.2754
    1DIPC   C4A21248   4.916   0.074   4.896 -0.2723 -0.0284 -0.2624
    1DIPC   C1B21249   4.320  -0.942   3.402  0.0695 -0.0871  0.2010
    1DIPC   D2B21250   4.358  -1.366   3.369  0.0178  0.2332 -0.4122
    1DIPC   D3B21251   4.594  -1.479   3.746  0.1976 -0.1008  0.0159
    1DIPC   C4B21252   4.683  -1.292   4.086 -0.0489  0.1941 -0.1377
    1DIPC   NC321253   5.619  22.015   2.741  0.0637  0.4284 -0.3003
    1DIPC   PO421254   5.935  22.285   2.860 -0.0812  0.1777 -0.1209
    1DIPC   GL121255   6.201  22.318   3.232  0.0791 -0.2522 -0.0083
    1DIPC   GL221256   5.996  22.524   3.437 -0.0868 -0.1195 -0.2389
    1DIPC   C1A21257   6.480  22.315   3.584  0.1120 -0.2478  0.0505
    1DIPC   D2A21258   6.907  22.056   3.453  0.0416  0.2795 -0.2157
    1DIPC   D3A21259   7.162  22.359   3.566  0.0306 -0.0138  0.1686
    1DIPC   C4A21260   7.115  22.748   3.717 -0.3387  0.0023  0.0197
    1DIPC   C1B21261   6.115  22.503   3.892 -0.2288 -0.1305  0.0111
    1DIPC   D2B21262   6.116  22.599   4.372 -0.1185 -0.4509 -0.1916
    1DIPC   D3B21263   6.353  22.909   4.370 -0.0615  0.1789 -0.0141
    1DIPC   C4B21264   6.532  23.078   4.722 -0.1428 -0.2476  0.0408
    1DIPC   NC321265  25.836  26.640   3.494  0.0122  0.0921 -0.1715
    1DIPC   PO421266  26.140  26.973   3.642  0.1214 -0.0710 -0.1769
    1DIPC   GL121267  25.884  27.276   3.759 -0.3462 -0.2739 -0.1485
    1DIPC   GL221268  26.102  27.227   4.082 -0.2356 -0.0976 -0.1190
    1DIPC   C1A21269  25.573  27.297   4.033 -0.1882 -0.0990 -0.0052
    1DIPC   D2A21270  25.292  27.463   4.348  0.0777  0.0581 -0.3590
    1DIPC   D3A21271  25.189  26.981   4.270  0.0860  0.0834  0.0871
    1DIPC   C4A21272  25.015  26.586   4.406  0.1805 -0.0804 -0.1488
    1DIPC   C1B21273  26.159  26.977   4.456  0.2797  0.1160  0.3647
    1DIPC   D2B21274  26.134  26.990   4.930 -0.0607 -0.1341 -0.0103
    1DIPC   D3B21275  26.377  27.369   4.735  0.0317 -0.0988 -0.0230
    1DIPC   C4B21276  26.720  27.142   4.708 -0.1267 -0.1433  0.0520
    1DIPC   NC321277  18.762  19.192   2.704 -0.1114  0.1078  0.0065
    1DIPC   PO421278  18.669  18.731   2.599  0.0745 -0.1285 -0.1032
    1DIPC   GL121279  18.702  18.652   2.959  0.2231 -0.2373 -0.0577
    1DIPC   GL221280  18.587  18.941   3.093 -0.3559 -0.3354  0.3649
    1DIPC   C1A21281  18.554  18.322   3.220  0.0113  0.1288 -0.1763
    1DIPC   D2A21282  18.569  17.918   3.456 -0.1405 -0.0950  0.0011
    1DIPC   D3A21283  18.696  17.580   3.811  0.2088  0.0898  0.2447
    1DIPC   C4A21284  18.609  17.405   4.138  0.1079  0.2223  0.0835
    1DIPC   C1B21285  18.693  18.773   3.525 -0.1841  0.1870 -0.0087
    1DIPC   D2B21286  18.755  18.486   3.872 -0.0950  0.2991 -0.2189
    1DIPC   D3B21287  18.615  18.842   4.069  0.1087  0.0854  0.1848
    1DIPC   C4B21288  18.394  19.140   3.774 -0.1928  0.0380 -0.0196
    1DIPC   NC321289  13.879  25.981   2.927 -0.0541  0.0914 -0.0135
    1DIPC   PO421290  14.303  26.054   3.029  0.1126 -0.2436  0.0406
    1DIPC   GL121291  14.230  26.108   3.493  0.1480 -0.0035  0.0347
    1DIPC   GL221292  14.307  26.463   3.603 -0.0018 -0.1695  0.0920
    1DIPC   C1A21293  13.864  25.958   3.619  0.1505  0.3804 -0.0202
    1DIPC   D2A21294  13.424  25.913   3.630 -0.0332  0.1026 -0.0060
    1DIPC   D3A21295  13.036  25.934   3.852 -0.2560  0.2987  0.1749
    1DIPC   C4A21296  12.825  26.327   4.023  0.0653 -0.0248  0.3731
    1DIPC   C1B21297  14.469  26.901   3.875 -0.3692 -0.0373  0.1552
    1DIPC   D2B21298  14.488  26.944   4.311 -0.0693 -0.2029 -0.0284
    1DIPC   D3B21299  14.036  26.863   4.479  0.1357 -0.0729  0.0699
    1DIPC   C4B21300  13.810  26.610   4.825  0.1810  0.2603 -0.0824
    1DIPC   NC321301  19.559  15.262   2.031  0.0416 -0.3850  0.0767
    1DIPC   PO421302  19.465  15.447   2.398 -0.0407 -0.2809  0.0220
    1DIPC   GL121303  19.474  15.339   2.765 -0.0170 -0.0735 -0.0348
    1DIPC   GL221304  19.775  15.322   2.875 -0.3058 -0.2924  0.0570
    1DIPC   C1A21305  19.465  15.258   3.254 -0.1072 -0.1046 -0.1473
    1DIPC   D2A21306  19.198  15.235   3.622  0.2805  0.3764  0.0108
    1DIPC   D3A21307  18.879  14.967   3.595 -0.0352  0.2495 -0.3970
    1DIPC   C4A21308  18.803  14.595   3.456 -0.1725  0.3888 -0.0393
    1DIPC   C1B21309  20.059  15.423   3.328  0.2566  0.3737  0.2575
    1DIPC   D2B21310  20.349  15.272   3.638 -0.0640  0.1126 -0.2546
    1DIPC   D3B21311  20.588  15.105   3.535  0.1490  0.3091  0.2160
    1DIPC   C4B21312  21.048  15.114   3.631  0.1158 -0.0670 -0.0000
    1DIPC   NC321313  25.713  19.385   1.462 -0.0291  0.1362  0.1392
    1DIPC   PO421314  25.592  19.144   1.797 -0.1081 -0.0399  0.1326
    1DIPC   GL121315  25.787  18.905   2.135  0.3692  0.0459  0.0487
    1DIPC   GL221316  26.053  19.006   2.316 -0.2923  0.4101  0.3035
    1DIPC   C1A21317  25.664  18.918   2.579 -0.1645 -0.0547 -0.1890
    1DIPC   D2A21318  25.611  19.134   2.969  0.1034  0.0701 -0.2054
    1DIPC   D3A21319  25.313  18.796   2.968 -0.0297 -0.3899 -0.4124
    1DIPC   C4A21320  25.285  18.380   3.143  0.2505  0.1115 -0.1504
    1DIPC   C1B21321  26.091  19.221   2.740  0.2415 -0.2936 -0.1733
    1DIPC   D2B21322  26.376  19.522   2.856 -0.0503  0.1427  0.2083
    1DIPC   D3B21323  26.590  19.698   3.155 -0.2618  0.0907  0.1254
    1DIPC   C4B21324  26.483  19.690   3.526  0.3525 -0.0861  0.1470
    1DIPC   NC321325  27.074   4.124   2.471 -0.1411  0.1279  0.0577
    1DIPC   PO421326  26.868   4.254   2.865  0.0468  0.3559 -0.1905
    1DIPC   GL121327  26.810   4.297   3.307 -0.3142  0.2314  0.0306
    1DIPC   GL221328  26.788   3.969   3.300 -0.1648 -0.1936  0.1384
    1DIPC   C1A21329  26.751   4.315   3.702 -0.1563 -0.1188  0.2647
    1DIPC   D2A21330  26.724   4.053   4.049  0.5225 -0.0315 -0.2448
    1DIPC   D3A21331  26.758   4.019   4.406  0.1432 -0.0850  0.0462
    1DIPC   C4A21332  26.496   3.744   4.640  0.3291  0.4471  0.0116
    1DIPC   C1B21333  27.015   3.827   3.535 -0.2243 -0.2240  0.3045
    1DIPC   D2B21334  27.146   3.722   3.988  0.0934 -0.0536 -0.3136
    1DIPC   D3B21335  27.458   3.651   3.802  0.0233  0.0428  0.1419
    1DIPC   C4B21336  27.462   3.699   3.336  0.0967  0.1593 -0.1835
    1DIPC   NC321337   4.819   2.582   2.965  0.1239  0.0150 -0.0277
    1DIPC   PO421338   4.646   2.405   3.318  0.3228  0.0163 -0.1088
    1DIPC   GL121339   4.645   2.233   3.763 -0.1176  0.4835 -0.2019
    1DIPC   GL221340   4.649   1.935   3.702 -0.1196  0.0510  0.0640
    1DIPC   C1A21341   4.504   2.373   4.074 -0.0368 -0.0088  0.1599
    1DIPC   D2A21342   4.691   2.358   4.480 -0.4473 -0.1516  0.1214
    1DIPC   D3A21343   4.450   2.079   4.775 -0.2075  0.2677 -0.0953
    1DIPC   C4A21344   4.110   1.852   4.518  0.2719  0.1967 -0.0752
    1DIPC   C1B21345   4.214   1.782   3.666  0.2121 -0.1614 -0.0094
    1DIPC   D2B21346   3.792   1.697   3.653 -0.2030  0.0958 -0.0754
    1DIPC   D3B21347   3.571   1.781   3.304  0.2557  0.0439 -0.0624
    1DIPC   C4B21348   3.227   1.652   3.341 -0.1182 -0.0177  0.2197
    1DIPC   NC321349  14.435  28.877   2.340 -0.1769  0.1780  0.2060
    1DIPC   PO421350  14.535  28.762   2.831  0.2840  0.1546 -0.0352
    1DIPC   GL121351  14.430  28.816   3.215  0.1497  0.3401  0.0338
    1DIPC   GL221352  14.527  29.139   3.306  0.1147  0.0638 -0.1171
    1DIPC   C1A21353  14.686  28.717   3.670 -0.0086  0.1552 -0.0834
    1DIPC   D2A21354  14.804  29.006   4.010 -0.0934  0.4633 -0.0135
    1DIPC   D3A21355  14.563  28.825   4.350 -0.0548  0.1029 -0.0964
    1DIPC   C4A21356  14.601  28.563   4.805  0.3277 -0.4459  0.0262
    1DIPC   C1B21357  14.520  29.312   3.744  0.0038  0.0433  0.1415
    1DIPC   D2B21358  14.519  29.348   4.190  0.0270  0.2661  0.1949
    1DIPC   D3B21359  14.865  29.305   4.463 -0.2193 -0.1058  0.2655
    1DIPC   C4B21360  15.204  29.513   4.687  0.3020  0.0135 -0.0710
    1DIPC   NC321361  26.598   9.100   2.530 -0.2530  0.2393 -0.1579
    1DIPC   PO421362  26.148   8.911   2.600  0.1588  0.1106 -0.0939
    1DIPC   GL121363  26.372   8.859   2.962  0.1211 -0.0254  0.2037
    1DIPC   GL221364  26.408   9.271   3.107 -0.0065  0.1584  0.3099
    1DIPC   C1A21365  26.347   8.945   3.534  0.0468 -0.1149  0.1437
    1DIPC   D2A21366  26.369   9.081   3.864  0.3212 -0.0748 -0.2084
    1DIPC   D3A21367  26.095   9.387   3.952  0.1129  0.0943 -0.1440
    1DIPC   C4A21368  26.037   9.575   4.309 -0.1885  0.0517  0.0939
    1DIPC   C1B21369  26.371   9.502   3.534 -0.0143  0.0259  0.0553
    1DIPC   D2B21370  26.232   9.885   3.616 -0.0287  0.1529  0.0009
    1DIPC   D3B21371  25.987  10.036   3.974  0.2800 -0.1175  0.2373
    1DIPC   C4B21372  25.955  10.526   4.050 -0.0734  0.1949 -0.0471
    1DIPC   NC321373   8.537  21.755   2.424  0.1326 -0.0943  0.2860
    1DIPC   PO421374   8.700  21.635   2.783 -0.0576  0.2074 -0.0773
    1DIPC   GL121375   8.954  21.689   3.052  0.2292  0.1432 -0.1997
    1DIPC   GL221376   9.007  21.432   3.301 -0.1961  0.0187 -0.0680
    1DIPC   C1A21377   9.128  21.949   3.300 -0.0850 -0.1379 -0.1955
    1DIPC   D2A21378   9.107  22.370   3.237  0.0480 -0.0018  0.1833
    1DIPC   D3A21379   8.832  22.326   3.676  0.2067 -0.3256 -0.1272
    1DIPC   C4A21380   8.967  22.106   4.036  0.1238 -0.0081 -0.1964
    1DIPC   C1B21381   9.180  21.584   3.682 -0.1308 -0.0597  0.1384
    1DIPC   D2B21382   9.289  21.600   4.115 -0.0679 -0.0383  0.1452
    1DIPC   D3B21383   9.373  21.121   4.209 -0.1851 -0.2355  0.0455
    1DIPC   C4B21384   9.245  20.722   4.039 -0.0528  0.2559 -0.2062
    1DIPC   NC321385  22.801   7.962   2.730  0.0769 -0.0947  0.1043
    1DIPC   PO421386  22.919   7.693   3.035 -0.2042  0.0963  0.2978
    1DIPC   GL121387  23.037   7.758   3.546  0.0397 -0.1508 -0.2082
    1DIPC   GL221388  22.925   8.017   3.667 -0.1006  0.1121  0.0425
    1DIPC   C1A21389  23.091   7.589   3.898  0.2861  0.0363 -0.0747
    1DIPC   D2A21390  22.768   7.605   4.029  0.2066 -0.0480 -0.0106
    1DIPC   D3A21391  22.724   7.410   4.352 -0.0065  0.0359  0.1089
    1DIPC   C4A21392  22.678   7.043   4.473 -0.2648  0.0141  0.1325
    1DIPC   C1B21393  22.560   8.291   3.776  0.0631  0.0000 -0.0339
    1DIPC   D2B21394  22.229   8.329   3.946 -0.1907 -0.1538 -0.2588
    1DIPC   D3B21395  22.253   7.933   4.026  0.0648  0.0715 -0.0669
    1DIPC   C4B21396  22.351   7.863   4.434 -0.1489 -0.0616 -0.0840
    1DIPC   NC321397  18.123   5.529   3.509  0.0438 -0.1374  0.1997
    1DIPC   PO421398  17.737   5.417   3.569 -0.0473  0.0299  0.1658
    1DIPC   GL121399  17.523   5.258   3.977 -0.3541  0.0954  0.3180
    1DIPC   GL221400  17.250   5.378   4.194  0.3206 -0.1157 -0.1169
    1DIPC   C1A21401  17.562   5.022   4.296  0.0144 -0.0862 -0.0985
    1DIPC   D2A21402  17.799   4.924   4.673  0.1115 -0.3305 -0.1405
    1DIPC   D3A21403  18.249   4.746   4.572  0.1055  0.1625  0.2227
    1DIPC   C4A21404  18.337   4.319   4.490  0.1968  0.0282 -0.1995
    1DIPC   C1B21405  17.507   5.707   4.263 -0.1656 -0.0305  0.0075
    1DIPC   D2B21406  17.784   5.782   4.618  0.0483  0.0192 -0.1563
    1DIPC   D3B21407  17.741   6.129   4.907  0.1940  0.1191 -0.1364
    1DIPC   C4B21408  17.510   6.394   4.694  0.1314  0.4318 -0.0850
    1DIPC   NC321409  20.097  21.142   2.109 -0.1963  0.1062 -0.0683
    1DIPC   PO421410  19.965  20.826   2.410  0.1309 -0.1428 -0.3718
    1DIPC   GL121411  20.199  20.696   2.780  0.0841 -0.1128 -0.0350
    1DIPC   GL221412  20.092  20.528   3.010  0.2795  0.2042  0.0140
    1DIPC   C1A21413  20.700  20.754   3.033  0.1835 -0.3210 -0.2178
    1DIPC   D2A21414  20.925  21.106   3.297  0.0149  0.0355 -0.0894
    1DIPC   D3A21415  20.984  21.256   3.697 -0.1707 -0.0865  0.0429
    1DIPC   C4A21416  20.768  21.452   4.075  0.2471 -0.2790 -0.1465
    1DIPC   C1B21417  20.233  20.506   3.383 -0.0393 -0.0104 -0.2158
    1DIPC   D2B21418  20.613  20.298   3.636  0.0917  0.0713  0.3307
    1DIPC   D3B21419  20.787  20.265   4.072  0.0476  0.1561  0.0882
    1DIPC   C4B21420  20.618  20.517   4.337 -0.0125 -0.2927 -0.0176
    1DIPC   NC321421  18.224   0.309   3.355  0.0084 -0.0899  0.1554
    1DIPC   PO421422  18.696   0.163   3.620 -0.0349 -0.1926 -0.2829
    1DIPC   GL121423  18.681   0.148   4.091 -0.0456 -0.1534  0.0145
    1DIPC   GL221424  18.989   0.111   4.246 -0.0891 -0.1038  0.1239
    1DIPC   C1A21425  18.453  -0.018   4.379  0.2102 -0.3986 -0.0284
    1DIPC   D2A21426  18.444  -0.149   4.876 -0.0806  0.2332  0.5323
    1DIPC   D3A21427  18.504   0.243   5.134  0.1605  0.0379 -0.1725
    1DIPC   C4A21428  18.935   0.286   5.088  0.0946  0.1032 -0.0445
    1DIPC   C1B21429  19.003  -0.083   4.679  0.1087 -0.0893  0.2103
    1DIPC   D2B21430  18.904  -0.535   4.753 -0.1572 -0.0676  0.3061
    1DIPC   D3B21431  18.842  -0.830   5.014 -0.0352  0.1112  0.0938
    1DIPC   C4B21432  18.694  -1.167   5.121  0.0428  0.1749  0.1826
    1DIPC   NC321433  26.562  18.236   1.611  0.1752 -0.3077 -0.1053
    1DIPC   PO421434  26.744  17.826   1.495 -0.0727 -0.0263  0.2224
    1DIPC   GL121435  26.527  17.743   1.812  0.2999  0.0063 -0.1216
    1DIPC   GL221436  26.249  17.748   1.704  0.0733 -0.4131  0.2270
    1DIPC   C1A21437  26.395  17.457   2.148 -0.1948  0.1729 -0.1223
    1DIPC   D2A21438  26.015  17.236   2.491 -0.1833 -0.1161  0.0776
    1DIPC   D3A21439  26.444  17.409   2.741 -0.1538 -0.1553  0.4666
    1DIPC   C4A21440  26.623  17.323   3.128  0.5307 -0.1228 -0.2218
    1DIPC   C1B21441  26.155  17.272   1.606 -0.1843  0.0027 -0.2504
    1DIPC   D2B21442  26.329  16.941   1.749 -0.2895 -0.1482  0.1667
    1DIPC   D3B21443  26.638  17.060   2.033  0.1131  0.1736  0.2314
    1DIPC   C4B21444  26.697  17.083   2.431 -0.1975 -0.1621  0.1088
    1DIPC   NC321445   7.428   5.388   3.168 -0.3022  0.2590  0.3074
    1DIPC   PO421446   7.122   5.290   3.497  0.0382 -0.3551  0.1926
    1DIPC   GL121447   6.854   5.538   3.725  0.0193 -0.1168  0.0109
    1DIPC   GL221448   6.773   5.872   3.840 -0.3905 -0.0468 -0.2516
    1DIPC   C1A21449   6.568   5.562   4.175 -0.0200  0.1003  0.2930
    1DIPC   D2A21450   6.554   5.380   4.571 -0.1375 -0.1772  0.0754
    1DIPC   D3A21451   6.397   5.599   4.885  0.0374 -0.2570  0.0423
    1DIPC   C4A21452   6.053   5.391   5.061 -0.0949 -0.0841  0.0923
    1DIPC   C1B21453   6.629   6.065   4.196 -0.0483  0.1467  0.1699
    1DIPC   D2B21454   6.555   6.070   4.656  0.1436  0.3756 -0.0251
    1DIPC   D3B21455   6.779   6.547   4.604  0.0616 -0.1335 -0.1296
    1DIPC   C4B21456   7.101   6.701   4.909  0.1797  0.0983  0.2578
    1DIPC   NC321457   2.822  25.701   2.943  0.2568 -0.1528  0.0779
    1DIPC   PO421458   2.625  25.922   3.379 -0.1577 -0.1785 -0.1248
    1DIPC   GL121459   2.621  25.836   3.823  0.0431 -0.0681  0.0811
    1DIPC   GL221460   2.432  26.100   3.993 -0.1515  0.1384 -0.1513
    1DIPC   C1A21461   2.613  25.544   4.216 -0.0487  0.0611  0.0359
    1DIPC   D2A21462   2.322  25.575   4.550  0.1863 -0.1322 -0.3454
    1DIPC   D3A21463   2.195  25.575   4.996  0.0148 -0.2306 -0.1808
    1DIPC   C4A21464   2.206  25.836   5.382  0.2571 -0.0216 -0.0043
    1DIPC   C1B21465   2.616  25.989   4.403  0.0729 -0.0999  0.0388
    1DIPC   D2B21466   2.729  25.777   4.776 -0.0645  0.0564 -0.3171
    1DIPC   D3B21467   2.897  26.167   4.759 -0.1191 -0.0030  0.2900
    1DIPC   C4B21468   3.311  26.293   4.871 -0.1027 -0.1016 -0.3703
    1DIPC   NC321469  19.730   7.155   3.418 -0.1441 -0.1187  0.0002
    1DIPC   PO421470  19.525   6.771   3.219  0.0628  0.0303  0.1230
    1DIPC   GL121471  19.499   6.596   3.532  0.0403  0.2447 -0.1138
    1DIPC   GL221472  19.648   6.829   3.795  0.1771  0.0760  0.0408
    1DIPC   C1A21473  19.694   6.330   3.907  0.1261  0.0826  0.0643
    1DIPC   D2A21474  19.927   6.033   4.081 -0.3016  0.1039 -0.1903
    1DIPC   D3A21475  20.230   6.244   4.398 -0.2175 -0.0810 -0.2571
    1DIPC   C4A21476  20.200   6.383   4.816  0.2171  0.3182 -0.0978
    1DIPC   C1B21477  19.768   7.146   4.021 -0.2913 -0.1993  0.1248
    1DIPC   D2B21478  19.935   7.517   4.391  0.1704 -0.1645  0.0718
    1DIPC   D3B21479  19.883   7.292   4.810  0.1755  0.1994  0.1406
    1DIPC   C4B21480  20.083   6.948   4.875  0.0573  0.0448  0.0280
    1DIPC   NC321481  22.469   7.632   3.629 -0.3093 -0.2559 -0.0187
    1DIPC   PO421482  22.089   7.497   3.637  0.1569  0.1910  0.2705
    1DIPC   GL121483  21.735   7.530   3.943 -0.0090 -0.1421  0.2391
    1DIPC   GL221484  21.883   7.677   4.286  0.1519  0.0792  0.1401
    1DIPC   C1A21485  21.400   7.645   4.148 -0.1421  0.3293 -0.1059
    1DIPC   D2A21486  21.428   7.876   4.547 -0.3435  0.1669 -0.1726
    1DIPC   D3A21487  21.262   7.654   4.889  0.1769  0.0507  0.0860
    1DIPC   C4A21488  21.298   7.848   5.289 -0.1576  0.3605  0.1567
    1DIPC   C1B21489  21.915   7.691   4.670  0.1122 -0.0560 -0.1576
    1DIPC   D2B21490  21.760   7.865   5.046 -0.0620  0.1507 -0.3125
    1DIPC   D3B21491  21.532   8.224   4.996 -0.2156 -0.0392  0.0864
    1DIPC   C4B21492  21.061   8.194   4.979  0.2517  0.1186  0.1620
    1DIPC   NC321493  23.970   0.459   3.407 -0.0434  0.2017  0.0019
    1DIPC   PO421494  24.407   0.528   3.246  0.0560  0.0309  0.0006
    1DIPC   GL121495  24.331   0.577   3.770  0.1723 -0.0277  0.0024
    1DIPC   GL221496  24.245   0.816   3.787 -0.1191 -0.2457  0.2191
    1DIPC   C1A21497  24.105   0.482   4.180 -0.0393  0.0380  0.2579
    1DIPC   D2A21498  23.985   0.486   4.678 -0.4279  0.1822 -0.0538
    1DIPC   D3A21499  24.092   0.181   4.866  0.0548  0.0805 -0.1101
    1DIPC   C4A21500  23.817  -0.099   5.015 -0.0396  0.2184 -0.1430
    1DIPC   C1B21501  24.513   1.008   4.162 -0.0580 -0.0145 -0.0235
    1DIPC   D2B21502  24.833   1.039   4.461 -0.2529  0.2613  0.0094
    1DIPC   D3B21503  24.758   1.458   4.745  0.0664 -0.1387 -0.0555
    1DIPC   C4B21504  24.618   1.225   5.022  0.1583 -0.3092  0.1225
    1DIPC   NC321505  17.818   7.230   3.566 -0.3052 -0.0786 -0.0118
    1DIPC   PO421506  18.055   6.826   3.486 -0.0100 -0.0761 -0.0721
    1DIPC   GL121507  17.871   6.821   3.965  0.0383  0.3472 -0.4737
    1DIPC   GL221508  17.978   6.519   3.996 -0.1670  0.0154 -0.3376
    1DIPC   C1A21509  17.572   6.729   4.305  0.2850 -0.2692  0.1444
    1DIPC   D2A21510  17.231   6.992   4.452  0.1221  0.0057 -0.1179
    1DIPC   D3A21511  17.577   7.202   4.733  0.2775 -0.0302  0.1427
    1DIPC   C4A21512  17.724   7.330   5.168  0.0264 -0.1420  0.1224
    1DIPC   C1B21513  18.402   6.315   4.079 -0.0857  0.0597  0.1262
    1DIPC   D2B21514  18.794   6.292   3.994  0.0497  0.0667 -0.0215
    1DIPC   D3B21515  18.928   6.007   4.215  0.1538 -0.0090 -0.2132
    1DIPC   C4B21516  19.344   6.084   4.190  0.1258  0.0040 -0.0776
    1DIPC   NC321517  12.972  15.797   2.609 -0.0790  0.0255 -0.0064
    1DIPC   PO421518  13.293  16.092   2.404  0.0954 -0.1067 -0.1516
    1DIPC   GL121519  13.157  16.297   2.771 -0.4015 -0.1118  0.1019
    1DIPC   GL221520  13.112  16.072   3.046 -0.1820 -0.2845 -0.3178
    1DIPC   C1A21521  13.288  16.589   3.200 -0.1036 -0.1752 -0.1039
    1DIPC   D2A21522  13.303  16.998   3.218  0.2227 -0.1730 -0.2880
    1DIPC   D3A21523  13.504  17.158   3.625  0.0471  0.1969 -0.0467
    1DIPC   C4A21524  13.731  17.507   3.595  0.0332 -0.1563  0.1405
    1DIPC   C1B21525  12.996  16.016   3.419  0.2252  0.0763 -0.0331
    1DIPC   D2B21526  12.934  15.738   3.692  0.2746 -0.0644  0.0907
    1DIPC   D3B21527  13.194  15.855   3.968 -0.2864  0.2205  0.0447
    1DIPC   C4B21528  13.004  15.947   4.308  0.0236  0.0582  0.0119
    1DIPC   NC321529  11.677  27.727   3.504 -0.1029  0.1146  0.1543
    1DIPC   PO421530  11.312  27.896   3.691 -0.0264  0.2158 -0.2155
    1DIPC   GL121531  11.276  27.485   3.866 -0.1747 -0.0467 -0.0336
    1DIPC   GL221532  11.064  27.468   3.936 -0.1102  0.0536  0.1691
    1DIPC   C1A21533  11.508  27.224   4.052 -0.2754 -0.1392 -0.1487
    1DIPC   D2A21534  11.627  27.160   4.455 -0.1904 -0.3293 -0.2004
    1DIPC   D3A21535  11.464  26.867   4.621 -0.4244 -0.0464 -0.0447
    1DIPC   C4A21536  11.719  26.486   4.446 -0.1551  0.2004  0.2904
    1DIPC   C1B21537  11.257  27.500   4.364 -0.2054 -0.0465 -0.3608
    1DIPC   D2B21538  11.459  27.743   4.657  0.2471  0.0492  0.0791
    1DIPC   D3B21539  11.006  27.708   4.723  0.0302 -0.3494  0.1276
    1DIPC   C4B21540  10.944  27.685   5.221 -0.1729  0.2187  0.2636
    1DIPC   NC321541  21.063  14.557   2.073  0.2167  0.0975 -0.1990
    1DIPC   PO421542  21.585  14.611   2.109 -0.1801 -0.0340  0.1655
    1DIPC   GL121543  21.442  14.588   2.490  0.2460  0.3258 -0.2356
    1DIPC   GL221544  21.307  14.298   2.621  0.0182  0.0852  0.2428
    1DIPC   C1A21545  21.349  14.835   2.855 -0.2672  0.1381  0.2025
    1DIPC   D2A21546  20.904  14.952   3.056  0.1374 -0.0193  0.0670
    1DIPC   D3A21547  21.058  14.689   3.432  0.2738 -0.1170 -0.1831
    1DIPC   C4A21548  20.745  14.800   3.851  0.1526  0.1726 -0.1350
    1DIPC   C1B21549  21.017  14.321   2.949  0.4705 -0.2857 -0.0954
    1DIPC   D2B21550  20.758  14.483   3.137 -0.0131 -0.2196 -0.1398
    1DIPC   D3B21551  20.524  14.286   3.333 -0.2133 -0.1929 -0.1070
    1DIPC   C4B21552  20.575  14.337   3.812 -0.0683 -0.2412 -0.3399
    1DIPC   NC321553  20.707   3.266   3.627  0.1608  0.0315  0.1302
    1DIPC   PO421554  21.058   3.373   3.723 -0.0556 -0.0523  0.1288
    1DIPC   GL121555  20.767   3.463   4.157  0.2421  0.1572 -0.3571
    1DIPC   GL221556  21.069   3.224   4.223  0.0807 -0.6342  0.0324
    1DIPC   C1A21557  20.575   3.650   4.546  0.0087 -0.0737  0.0004
    1DIPC   D2A21558  20.530   3.733   4.928 -0.5477 -0.1995 -0.3880
    1DIPC   D3A21559  20.910   4.015   4.891  0.1485  0.0314  0.1379
    1DIPC   C4A21560  21.220   3.834   4.621 -0.0470 -0.3139 -0.1746
    1DIPC   C1B21561  20.972   3.403   4.765  0.1279 -0.1475 -0.1074
    1DIPC   D2B21562  21.133   3.113   5.148 -0.2449  0.1194  0.1393
    1DIPC   D3B21563  21.147   2.698   5.173  0.0450  0.1584 -0.2300
    1DIPC   C4B21564  21.523   2.574   5.079  0.0033  0.4865  0.2178
    1DIPC   NC321565   0.936  25.137   2.896 -0.0990 -0.0093 -0.0941
    1DIPC   PO421566   0.946  25.483   3.182  0.1497  0.1150  0.1108
    1DIPC   GL121567   1.043  25.485   3.580 -0.1850 -0.0150 -0.0394
    1DIPC   GL221568   1.211  25.765   3.629  0.0251 -0.0126  0.1525
    1DIPC   C1A21569   0.994  25.343   4.009  0.1291 -0.1901  0.1243
    1DIPC   D2A21570   0.805  25.292   4.517 -0.0579 -0.3610 -0.3119
    1DIPC   D3A21571   0.515  25.558   4.798 -0.1055 -0.2781 -0.2072
    1DIPC   C4A21572   0.467  25.655   5.189  0.0048 -0.1081  0.1135
    1DIPC   C1B21573   1.033  25.935   4.033  0.1945  0.2136  0.0279
    1DIPC   D2B21574   0.737  25.845   4.390 -0.0411 -0.2322  0.0813
    1DIPC   D3B21575   0.352  26.057   4.444 -0.3074  0.1757 -0.1161
    1DIPC   C4B21576  -0.006  25.770   4.687 -0.1448 -0.0839  0.1569
    1DIPC   NC321577   5.649   2.930   3.280 -0.1151 -0.0171 -0.2040
    1DIPC   PO421578   6.084   2.946   3.382 -0.0831 -0.0620 -0.0325
    1DIPC   GL121579   5.913   2.765   3.662 -0.1111 -0.2018  0.0249
    1DIPC   GL221580   6.158   2.796   3.968 -0.0445  0.0666  0.0015
    1DIPC   C1A21581   5.730   2.626   4.078  0.1089 -0.0287  0.0880
    1DIPC   D2A21582   5.649   2.492   4.526  0.6162  0.0728  0.2104
    1DIPC   D3A21583   5.974   2.254   4.570  0.1103  0.0845  0.0492
    1DIPC   C4A21584   5.872   1.731   4.699  0.0580  0.1233  0.1531
    1DIPC   C1B21585   6.183   2.750   4.336  0.1100 -0.0173  0.0377
    1DIPC   D2B21586   5.933   2.792   4.741  0.1215  0.1500  0.0883
    1DIPC   D3B21587   6.272   2.566   4.886 -0.0015 -0.1634  0.0149
    1DIPC   C4B21588   6.094   2.351   5.277  0.2594  0.1464  0.5539
    1DIPC   NC321589  13.091  19.942   2.298  0.0464 -0.0793  0.2186
    1DIPC   PO421590  12.652  20.320   2.325 -0.0975  0.1475  0.1464
    1DIPC   GL121591  12.469  20.205   2.746  0.0725 -0.4057  0.0412
    1DIPC   GL221592  12.509  19.842   2.800 -0.0519  0.0948 -0.0034
    1DIPC   C1A21593  12.331  20.245   3.048  0.1947 -0.1152  0.0008
    1DIPC   D2A21594  12.110  20.293   3.403 -0.0947  0.1623 -0.3076
    1DIPC   D3A21595  11.656  20.262   3.477  0.0483  0.0539 -0.2487
    1DIPC   C4A21596  11.507  20.030   3.798  0.1981 -0.2293  0.0467
    1DIPC   C1B21597  12.716  19.915   3.140  0.3011 -0.5392 -0.0449
    1DIPC   D2B21598  12.640  19.967   3.492 -0.0463 -0.0996  0.1532
    1DIPC   D3B21599  12.754  19.553   3.472 -0.2595  0.2701 -0.0273
    1DIPC   C4B21600  12.596  19.363   3.756 -0.0569  0.3956 -0.0232
    1DIPC   NC321601   4.737  25.586   3.327  0.0816 -0.0074  0.0620
    1DIPC   PO421602   4.599  25.230   3.160 -0.1110  0.2436  0.0633
    1DIPC   GL121603   4.915  25.181   3.500 -0.0412 -0.2116 -0.0092
    1DIPC   GL221604   4.743  25.361   3.770 -0.0119  0.0073  0.2059
    1DIPC   C1A21605   5.110  24.928   3.690 -0.1598 -0.1406 -0.0288
    1DIPC   D2A21606   4.923  24.497   3.586 -0.0190 -0.2211  0.0022
    1DIPC   D3A21607   4.584  24.497   3.608  0.3000 -0.2429  0.0693
    1DIPC   C4A21608   4.444  24.176   3.931  0.3263 -0.1257  0.0475
    1DIPC   C1B21609   4.923  25.168   4.084 -0.1539  0.2788  0.0112
    1DIPC   D2B21610   5.124  24.975   4.445 -0.1318 -0.0455 -0.6480
    1DIPC   D3B21611   5.442  24.680   4.491 -0.2202  0.0533  0.0675
    1DIPC   C4B21612   5.606  24.451   4.839  0.0153 -0.0206 -0.2646
    1DIPC   NC321613  11.416  11.571   3.546  0.0857  0.2511  0.1582
    1DIPC   PO421614  10.983  11.749   3.265 -0.5837  0.0596  0.1652
    1DIPC   GL121615  10.938  11.451   3.562  0.2450 -0.0207  0.0767
    1DIPC   GL221616  11.089  11.750   3.893  0.2528  0.2433  0.0022
    1DIPC   C1A21617  10.905  11.046   3.833  0.0803 -0.0912  0.0665
    1DIPC   D2A21618  11.185  10.923   4.187  0.2191  0.1844  0.2092
    1DIPC   D3A21619  11.401  11.341   4.110 -0.3660 -0.0225 -0.0614
    1DIPC   C4A21620  11.677  11.209   4.386 -0.0363 -0.3281 -0.1997
    1DIPC   C1B21621  11.190  11.758   4.262  0.1218  0.2692 -0.0540
    1DIPC   D2B21622  11.006  11.806   4.653  0.1651  0.1013  0.2600
    1DIPC   D3B21623  11.074  11.873   5.037 -0.3131  0.0860 -0.1271
    1DIPC   C4B21624  10.822  12.004   5.344  0.0830 -0.1923 -0.4925
    1DIPC   NC321625  12.889   6.158   3.287  0.0556  0.0451  0.0978
    1DIPC   PO421626  12.487   6.023   3.394  0.0971 -0.0373 -0.2964
    1DIPC   GL121627  12.533   6.240   3.823 -0.4647 -0.0007 -0.2362
    1DIPC   GL221628  12.787   6.330   3.752 -0.2425 -0.0961  0.0116
    1DIPC   C1A21629  12.440   6.191   4.269 -0.2065  0.1235 -0.0726
    1DIPC   D2A21630  12.350   6.261   4.681 -0.2141 -0.0835 -0.1085
    1DIPC   D3A21631  12.379   5.836   4.684 -0.1196  0.1822  0.1072
    1DIPC   C4A21632  12.154   5.626   5.067  0.2917 -0.1675 -0.1009
    1DIPC   C1B21633  13.049   6.440   4.110  0.0594  0.1523  0.1674
    1DIPC   D2B21634  13.413   6.589   4.277 -0.0764  0.0457 -0.1023
    1DIPC   D3B21635  13.643   6.925   4.465 -0.1321 -0.0397  0.4325
    1DIPC   C4B21636  13.448   7.242   4.737  0.2120  0.1828 -0.2669
    1DIPC   NC321637  10.535  29.358   2.935 -0.1397  0.3856 -0.1505
    1DIPC   PO421638  10.142  29.271   3.181  0.3276 -0.1983 -0.0440
    1DIPC   GL121639  10.186  29.397   3.652 -0.2065 -0.0415  0.3070
    1DIPC   GL221640  10.289  29.183   3.966  0.0787 -0.1981 -0.1538
    1DIPC   C1A21641  10.559  29.626   3.873 -0.2257  0.0665 -0.1758
    1DIPC   D2A21642  10.803  29.828   4.038 -0.1211  0.2097  0.2271
    1DIPC   D3A21643  10.777  29.412   4.315 -0.0738 -0.4163  0.3131
    1DIPC   C4A21644  10.907  29.338   4.851  0.4809 -0.2858  0.0150
    1DIPC   C1B21645  10.350  29.075   4.352  0.0001  0.0703 -0.0119
    1DIPC   D2B21646  10.462  29.173   4.868  0.1818  0.1598  0.0506
    1DIPC   D3B21647  10.432  28.743   5.188  0.3154 -0.2022 -0.1607
    1DIPC   C4B21648  10.604  28.548   5.572  0.0118 -0.1183  0.0963
    1DIPC   NC321649   6.797   7.559   3.290  0.2656 -0.1111  0.1261
    1DIPC   PO421650   7.030   7.809   3.563 -0.0885 -0.0623  0.0208
    1DIPC   GL121651   6.834   7.868   3.839  0.1614 -0.0001  0.0683
    1DIPC   GL221652   6.518   7.973   3.829 -0.3792  0.2126  0.2621
    1DIPC   C1A21653   6.683   7.906   4.282  0.2705 -0.2209 -0.2242
    1DIPC   D2A21654   6.510   7.905   4.705 -0.0404  0.1110  0.0001
    1DIPC   D3A21655   6.208   8.205   4.913 -0.2179  0.2005  0.0429
    1DIPC   C4A21656   5.718   8.028   4.844 -0.0842  0.0977 -0.0233
    1DIPC   C1B21657   6.207   8.221   3.922 -0.0272  0.0734 -0.0680
    1DIPC   D2B21658   6.126   8.614   3.817 -0.1173  0.0605  0.0025
    1DIPC   D3B21659   5.938   8.604   4.245  0.1012  0.1803 -0.0858
    1DIPC   C4B21660   6.185   8.679   4.604  0.2308 -0.0143  0.2632
    1DIPC   NC321661  19.144   6.277   3.291 -0.2648 -0.3748 -0.0209
    1DIPC   PO421662  18.839   5.944   3.389 -0.2135  0.3382  0.3705
    1DIPC   GL121663  18.859   5.754   3.805  0.1883  0.1367  0.2437
    1DIPC   GL221664  18.493   5.671   3.926  0.6653 -0.2080  0.2522
    1DIPC   C1A21665  19.171   5.595   4.029  0.2064 -0.2651 -0.1295
    1DIPC   D2A21666  19.627   5.595   4.134  0.1969  0.1090  0.1938
    1DIPC   D3A21667  19.624   5.782   4.558  0.1511 -0.2088  0.0475
    1DIPC   C4A21668  19.981   5.907   4.642 -0.2560  0.2806  0.4049
    1DIPC   C1B21669  18.306   5.886   4.307  0.3357 -0.0684  0.3012
    1DIPC   D2B21670  18.215   5.982   4.656 -0.1559 -0.1441  0.0331
    1DIPC   D3B21671  18.551   6.285   4.544  0.0142  0.0241  0.0439
    1DIPC   C4B21672  19.007   6.228   4.686  0.3706  0.1640 -0.2422
    1DIPC   NC321673   2.252   0.769   3.065  0.1343  0.0565  0.0041
    1DIPC   PO421674   2.491   1.167   3.010 -0.1295  0.1623 -0.0595
    1DIPC   GL121675   2.556   1.121   3.385  0.0533 -0.1214  0.0582
    1DIPC   GL221676   2.426   0.724   3.517 -0.0169 -0.2589  0.5048
    1DIPC   C1A21677   2.596   1.309   3.858 -0.0221  0.1687 -0.3964
    1DIPC   D2A21678   2.807   1.470   4.199  0.2531 -0.0225 -0.1764
    1DIPC   D3A21679   2.397   1.398   4.420  0.0777 -0.0271 -0.1395
    1DIPC   C4A21680   2.423   1.307   4.836  0.0889 -0.1135 -0.1780
    1DIPC   C1B21681   2.403   0.831   3.870 -0.3918  0.2757 -0.4341
    1DIPC   D2B21682   2.512   0.914   4.250  0.0250 -0.0959 -0.1334
    1DIPC   D3B21683   2.848   0.650   4.381  0.0808 -0.3204 -0.0910
    1DIPC   C4B21684   3.158   0.587   4.136 -0.0044  0.2757  0.2925
    1DIPC   NC321685  15.174  26.067   3.331  0.0368  0.2057 -0.1975
    1DIPC   PO421686  14.997  25.746   3.524 -0.1222 -0.2428 -0.0016
    1DIPC   GL121687  14.630  25.721   3.861 -0.0637  0.3512  0.0257
    1DIPC   GL221688  14.309  25.834   3.905  0.0358  0.0900 -0.1284
    1DIPC   C1A21689  14.617  25.705   4.362 -0.1336 -0.1827 -0.0315
    1DIPC   D2A21690  14.573  25.541   4.818 -0.0411  0.0309  0.0082
    1DIPC   D3A21691  14.561  25.855   5.125 -0.1833  0.1822  0.0838
    1DIPC   C4A21692  14.378  26.210   5.196  0.0427 -0.1819 -0.2678
    1DIPC   C1B21693  14.165  25.819   4.282  0.1559 -0.0219  0.1681
    1DIPC   D2B21694  14.231  25.930   4.714  0.1100 -0.0335 -0.4657
    1DIPC   D3B21695  13.799  25.748   4.807 -0.1777  0.1103 -0.0251
    1DIPC   C4B21696  13.509  25.593   4.519 -0.0996  0.0948  0.2168
    1DIPC   NC321697  24.825  18.322   1.049  0.4379 -0.1804  0.2323
    1DIPC   PO421698  24.769  18.524   1.331 -0.1628  0.1587 -0.3723
    1DIPC   GL121699  24.822  18.082   1.513  0.0369 -0.0054 -0.1003
    1DIPC   GL221700  24.682  17.966   1.887 -0.0714 -0.1777 -0.0727
    1DIPC   C1A21701  25.243  17.983   1.716  0.0897 -0.3532 -0.0961
    1DIPC   D2A21702  25.636  17.865   1.661  0.2703  0.0638 -0.1186
    1DIPC   D3A21703  25.788  17.606   2.073 -0.3188  0.3989  0.0005
    1DIPC   C4A21704  25.879  17.155   1.985 -0.0867 -0.2717  0.0229
    1DIPC   C1B21705  24.641  17.765   2.317 -0.1183  0.1300 -0.1046
    1DIPC   D2B21706  24.628  17.867   2.761  0.1922  0.2058  0.3571
    1DIPC   D3B21707  24.800  18.164   3.116  0.0358  0.0321  0.2727
    1DIPC   C4B21708  24.775  18.140   3.595  0.0462 -0.2070  0.0899
    1DIPC   NC321709  22.646   0.109   3.583 -0.2011  0.1223 -0.1842
    1DIPC   PO421710  22.808   0.579   3.652  0.1514  0.0234 -0.4305
    1DIPC   GL121711  22.422   0.409   3.984  0.2092  0.1935  0.0067
    1DIPC   GL221712  22.310   0.038   4.025  0.0685 -0.1134  0.1755
    1DIPC   C1A21713  22.190   0.516   4.383 -0.4432 -0.1251  0.1121
    1DIPC   D2A21714  22.031   0.372   4.680 -0.0872 -0.0525 -0.4321
    1DIPC   D3A21715  22.177  -0.012   4.834  0.3484 -0.0798  0.1545
    1DIPC   C4A21716  22.142  -0.040   5.244 -0.1847  0.1228 -0.0720
    1DIPC   C1B21717  22.761   0.044   4.194  0.2477 -0.2327 -0.1191
    1DIPC   D2B21718  23.173   0.244   4.445 -0.1115  0.0465  0.0308
    1DIPC   D3B21719  23.256   0.620   4.652 -0.1878 -0.0752  0.3711
    1DIPC   C4B21720  23.630   0.767   4.803 -0.0335  0.1649 -0.0259
    1DIPC   NC321721   5.945  26.457   2.840 -0.0834 -0.0867  0.0707
    1DIPC   PO421722   5.574  26.389   3.050 -0.0835  0.0909  0.0859
    1DIPC   GL121723   5.656  26.353   3.395 -0.3608 -0.4569  0.2280
    1DIPC   GL221724   5.917  26.525   3.349  0.3483  0.0047 -0.4505
    1DIPC   C1A21725   5.605  26.524   3.824  0.1902 -0.0042  0.1163
    1DIPC   D2A21726   5.556  26.882   4.102  0.1729  0.2543 -0.2456
    1DIPC   D3A21727   5.275  26.994   4.505  0.2489  0.0669 -0.0118
    1DIPC   C4A21728   4.948  27.177   4.713  0.2610 -0.0498  0.1316
    1DIPC   C1B21729   6.209  26.624   3.725 -0.0260  0.0207  0.2156
    1DIPC   D2B21730   6.113  26.840   4.119 -0.3981  0.1318  0.1355
    1DIPC   D3B21731   6.395  27.077   4.188  0.2230 -0.1360  0.0113
    1DIPC   C4B21732   6.301  27.426   4.464  0.1148 -0.0803  0.1931
    1DIPC   NC321733  12.900  21.844   2.644  0.1034  0.0823 -0.4641
    1DIPC   PO421734  12.859  21.571   2.947  0.0302 -0.1944 -0.1411
    1DIPC   GL121735  12.589  21.494   3.253  0.0386 -0.1442 -0.1592
    1DIPC   GL221736  12.610  21.174   3.175 -0.1884  0.0045 -0.2380
    1DIPC   C1A21737  12.639  21.442   3.767  0.0449 -0.2925  0.1585
    1DIPC   D2A21738  12.610  21.601   4.132 -0.1388  0.0136 -0.5247
    1DIPC   D3A21739  12.350  21.867   4.298 -0.0282  0.1236  0.3112
    1DIPC   C4A21740  11.891  21.721   4.442  0.3172 -0.1125 -0.2558
    1DIPC   C1B21741  12.453  21.000   3.436  0.3800 -0.0638  0.0287
    1DIPC   D2B21742  12.477  20.887   3.808 -0.1241 -0.0385 -0.0993
    1DIPC   D3B21743  12.220  21.180   3.931  0.3440 -0.1065  0.0645
    1DIPC   C4B21744  12.148  21.304   4.377 -0.2760  0.0327  0.0441
    1DIPC   NC321745   1.493  27.861   2.714  0.2701 -0.4298  0.2409
    1DIPC   PO421746   1.746  28.057   2.996 -0.0834 -0.1677 -0.1199
    1DIPC   GL121747   1.468  28.185   3.429  0.2130  0.0639  0.0561
    1DIPC   GL221748   1.520  28.299   3.797 -0.1615  0.2635 -0.0155
    1DIPC   C1A21749   1.160  28.483   3.555 -0.2157  0.2084  0.1189
    1DIPC   D2A21750   0.887  28.789   3.834  0.1186  0.0653 -0.2030
    1DIPC   D3A21751   0.851  28.668   4.168  0.1075 -0.1493  0.1846
    1DIPC   C4A21752   0.690  28.313   4.325  0.1300  0.1341  0.0801
    1DIPC   C1B21753   1.311  28.538   4.122 -0.0885  0.2599  0.1829
    1DIPC   D2B21754   1.239  28.907   4.373 -0.1257 -0.2067 -0.1331
    1DIPC   D3B21755   1.524  28.709   4.633  0.1706 -0.0109  0.1113
    1DIPC   C4B21756   1.423  28.288   4.629 -0.0369 -0.1139  0.1237
    1DIPC   NC321757  26.753  10.949   2.080 -0.0076  0.0064 -0.3275
    1DIPC   PO421758  26.807  10.998   2.546  0.1833  0.0874  0.1893
    1DIPC   GL121759  26.626  10.878   2.965 -0.1159  0.1755  0.4355
    1DIPC   GL221760  26.528  10.607   2.943  0.0536  0.1477  0.2140
    1DIPC   C1A21761  26.637  11.068   3.324 -0.0282 -0.1405  0.1778
    1DIPC   D2A21762  26.693  11.143   3.784 -0.2618  0.1442 -0.1155
    1DIPC   D3A21763  26.556  10.883   3.941 -0.0079  0.2616 -0.0004
    1DIPC   C4A21764  26.280  10.781   4.305  0.1477  0.1484  0.1199
    1DIPC   C1B21765  26.335  10.712   3.326 -0.1627  0.4030 -0.3470
    1DIPC   D2B21766  26.105  10.811   3.674  0.1942 -0.1397  0.3132
    1DIPC   D3B21767  25.819  11.116   3.616  0.0974  0.2473  0.1052
    1DIPC   C4B21768  25.353  10.976   3.431 -0.3323  0.0513 -0.3484
    1DIPC   NC321769  20.506   1.512   3.753 -0.4538  0.2519  0.1097
    1DIPC   PO421770  20.379   1.200   4.027  0.0731 -0.0747 -0.0038
    1DIPC   GL121771  20.486   1.307   4.333  0.0281  0.4541  0.1168
    1DIPC   GL221772  20.633   1.606   4.290  0.0050 -0.3275 -0.3982
    1DIPC   C1A21773  20.527   1.450   4.782  0.1091 -0.2281  0.1077
    1DIPC   D2A21774  20.317   1.672   5.059  0.0366 -0.5388  0.1235
    1DIPC   D3A21775  20.033   1.879   5.006  0.2185  0.1898 -0.0009
    1DIPC   C4A21776  19.856   1.800   4.629  0.0325  0.2062  0.0919
    1DIPC   C1B21777  20.830   1.776   4.661  0.0765  0.1798  0.0484
    1DIPC   D2B21778  20.883   1.979   5.011 -0.1977  0.1505 -0.2536
    1DIPC   D3B21779  20.515   2.222   4.911  0.1596 -0.0133  0.1146
    1DIPC   C4B21780  20.584   2.591   5.267  0.1541 -0.0099  0.0529
    1DIPC   NC321781  26.654   5.561   2.806  0.0272  0.2351 -0.0602
    1DIPC   PO421782  27.119   5.582   2.719 -0.2821 -0.2077 -0.3324
    1DIPC   GL121783  27.075   5.602   3.158 -0.1244 -0.1498  0.4162
    1DIPC   GL221784  27.369   5.739   3.243 -0.0708 -0.2619 -0.1410
    1DIPC   C1A21785  26.896   5.458   3.558 -0.1248  0.1799 -0.1847
    1DIPC   D2A21786  26.960   5.240   3.894 -0.0133 -0.3698 -0.1438
    1DIPC   D3A21787  27.075   5.119   4.226  0.0407  0.0444 -0.1455
    1DIPC   C4A21788  26.953   5.233   4.605  0.2605  0.0015 -0.2583
    1DIPC   C1B21789  27.158   5.975   3.558  0.1610  0.2189  0.3290
    1DIPC   D2B21790  26.866   5.933   3.874  0.0078  0.0559 -0.2485
    1DIPC   D3B21791  27.189   5.836   4.189  0.1550  0.2570  0.1598
    1DIPC   C4B21792  27.132   6.200   4.433 -0.0701  0.0388  0.2375
    1DIPC   NC321793   9.355  25.401   2.855 -0.1341  0.0262 -0.0073
    1DIPC   PO421794   9.009  25.507   3.151 -0.2252 -0.2004 -0.1158
    1DIPC   GL121795   9.063  25.356   3.531  0.1353 -0.3953 -0.2703
    1DIPC   GL221796   9.258  25.058   3.618  0.1822 -0.0131 -0.1609
    1DIPC   C1A21797   9.028  25.199   4.046 -0.1609 -0.1341 -0.1573
    1DIPC   D2A21798   9.126  24.987   4.508  0.1802  0.3082 -0.1657
    1DIPC   D3A21799   9.518  24.784   4.628 -0.1209  0.1823  0.2951
    1DIPC   C4A21800   9.919  25.131   4.724  0.2336  0.1617  0.0994
    1DIPC   C1B21801   9.473  24.984   4.045 -0.0567 -0.2109  0.0438
    1DIPC   D2B21802   9.544  25.301   4.385 -0.1075  0.1348  0.1198
    1DIPC   D3B21803   9.497  25.334   4.795  0.1558  0.1244 -0.1178
    1DIPC   C4B21804   9.780  25.373   5.133  0.1676 -0.2098 -0.2691
    1DIPC   NC321805  14.108   8.120   3.015  0.1287  0.2761 -0.3600
    1DIPC   PO421806  13.902   7.693   2.820  0.0750  0.1205  0.3832
    1DIPC   GL121807  13.957   7.586   3.195 -0.0087  0.4966 -0.2113
    1DIPC   GL221808  13.580   7.637   3.394  0.0475  0.1433 -0.0216
    1DIPC   C1A21809  14.009   7.465   3.593 -0.1583 -0.0970 -0.3294
    1DIPC   D2A21810  14.321   7.299   3.774 -0.0991 -0.0262 -0.0209
    1DIPC   D3A21811  14.759   7.463   3.784 -0.2411 -0.0316  0.0679
    1DIPC   C4A21812  15.082   7.366   4.033  0.2928  0.0407 -0.0535
    1DIPC   C1B21813  13.457   7.562   3.847  0.0176  0.1235 -0.1622
    1DIPC   D2B21814  13.445   7.601   4.344  0.1692  0.2251  0.0036
    1DIPC   D3B21815  13.243   7.665   4.687  0.2118  0.3756 -0.0780
    1DIPC   C4B21816  13.168   7.390   5.116 -0.3466 -0.1517 -0.2615
    1DIPC   NC321817  17.370   4.424   3.332 -0.0674 -0.0430 -0.2749
    1DIPC   PO421818  17.595   4.699   3.665  0.2425  0.3310  0.1005
    1DIPC   GL121819  17.486   4.653   4.017 -0.0307 -0.2198  0.0600
    1DIPC   GL221820  17.209   4.878   4.039  0.2518  0.0382 -0.1927
    1DIPC   C1A21821  17.299   4.530   4.434 -0.0229 -0.1274  0.1212
    1DIPC   D2A21822  17.339   4.559   4.924 -0.0950 -0.0310 -0.0628
    1DIPC   D3A21823  16.995   4.584   5.216  0.3559  0.0448  0.2700
    1DIPC   C4A21824  16.800   4.272   5.282 -0.0455 -0.0088 -0.1419
    1DIPC   C1B21825  17.062   4.969   4.442  0.2055  0.0225  0.0566
    1DIPC   D2B21826  17.178   5.011   4.914  0.0415 -0.1590  0.1350
    1DIPC   D3B21827  17.164   5.405   5.066  0.3431 -0.1428 -0.0612
    1DIPC   C4B21828  17.363   5.840   4.937  0.1679 -0.0437  0.0247
    1DIPC   NC321829  15.798  12.585   2.829  0.1148  0.0019 -0.2785
    1DIPC   PO421830  16.055  12.131   2.935  0.0799 -0.2536  0.1096
    1DIPC   GL121831  16.105  12.406   3.301 -0.0930 -0.1250 -0.1090
    1DIPC   GL221832  15.981  12.514   3.630 -0.0820  0.2651  0.0143
    1DIPC   C1A21833  16.401  12.724   3.421  0.0266  0.1815 -0.2904
    1DIPC   D2A21834  16.750  12.870   3.653 -0.2610 -0.2174 -0.1032
    1DIPC   D3A21835  16.624  12.484   3.795 -0.1559  0.1881 -0.0472
    1DIPC   C4A21836  16.409  12.168   3.619  0.0827 -0.1529  0.0057
    1DIPC   C1B21837  15.815  12.623   4.007  0.0280  0.3088  0.0923
    1DIPC   D2B21838  16.097  12.853   4.405  0.2557 -0.0411  0.2198
    1DIPC   D3B21839  15.710  12.993   4.226  0.1502 -0.2630 -0.1631
    1DIPC   C4B21840  15.314  13.150   4.473 -0.3560 -0.1439 -0.4092
    1DIPC   NC321841  20.127  16.963   2.748 -0.0477  0.0280  0.3985
    1DIPC   PO421842  20.305  17.255   2.494 -0.0591  0.0711  0.3131
    1DIPC   GL121843  20.231  17.553   2.897 -0.2269  0.0443 -0.0189
    1DIPC   GL221844  20.244  17.900   2.855  0.0136  0.0645  0.0603
    1DIPC   C1A21845  20.126  17.694   3.308 -0.0669  0.0447  0.1170
    1DIPC   D2A21846  19.853  17.838   3.605  0.2175 -0.0213  0.2809
    1DIPC   D3A21847  19.703  17.538   3.852  0.2146 -0.2870  0.0685
    1DIPC   C4A21848  19.541  17.167   3.897 -0.0427 -0.0093  0.1949
    1DIPC   C1B21849  20.411  18.311   3.187 -0.0428  0.2653 -0.5727
    1DIPC   D2B21850  20.778  18.611   3.325  0.0877  0.0824 -0.2062
    1DIPC   D3B21851  20.795  18.851   3.622 -0.3303  0.0672 -0.1688
    1DIPC   C4B21852  20.522  19.190   3.523  0.0150 -0.2290  0.0635
    1DIPC   NC321853   9.590  20.323   2.251 -0.2099  0.1999  0.0606
    1DIPC   PO421854   9.926  20.497   2.451 -0.0748  0.0326  0.3003
    1DIPC   GL121855  10.129  20.577   2.804  0.0420  0.0034  0.2233
    1DIPC   GL221856   9.987  20.599   2.975 -0.1064 -0.1151 -0.0877
    1DIPC   C1A21857  10.419  20.354   3.117  0.0010  0.0796  0.2823
    1DIPC   D2A21858  10.939  20.488   3.258  0.3459 -0.1522  0.0766
    1DIPC   D3A21859  10.890  20.877   3.311 -0.1514 -0.1573  0.3606
    1DIPC   C4A21860  10.905  20.909   3.736  0.2244 -0.1268  0.0357
    1DIPC   C1B21861  10.051  20.405   3.442 -0.0364  0.0691  0.1432
    1DIPC   D2B21862  10.170  20.504   3.896 -0.2134  0.1702 -0.1752
    1DIPC   D3B21863  10.422  20.237   4.096  0.3012  0.1070  0.0317
    1DIPC   C4B21864  10.266  19.902   4.398  0.0702 -0.0145 -0.0207
    1DIPC   NC321865  28.583   0.553   3.456 -0.1075  0.3514  0.2381
    1DIPC   PO421866  28.692   0.909   3.299 -0.0015 -0.0365  0.3531
    1DIPC   GL121867  28.761   1.224   3.672 -0.1847 -0.4559 -0.0154
    1DIPC   GL221868  29.061   1.574   3.726 -0.3440  0.0736  0.1851
    1DIPC   C1A21869  28.686   1.498   4.011  0.2294 -0.2851 -0.0253
    1DIPC   D2A21870  28.820   1.641   4.402 -0.1955  0.4281  0.3161
    1DIPC   D3A21871  28.506   1.571   4.830 -0.1122 -0.1295  0.1274
    1DIPC   C4A21872  28.390   1.157   4.839 -0.0570  0.0194 -0.0007
    1DIPC   C1B21873  29.187   1.740   4.047  0.0806 -0.0200 -0.1777
    1DIPC   D2B21874  29.274   2.033   4.467 -0.1619 -0.1515  0.2106
    1DIPC   D3B21875  29.723   2.137   4.666 -0.2754 -0.0578 -0.0875
    1DIPC   C4B21876  29.914   1.946   5.059 -0.0147  0.2540  0.0686
    1DIPC   NC321877  14.063  12.660   2.759 -0.2336  0.0795  0.2227
    1DIPC   PO421878  13.869  13.018   2.718 -0.0435  0.1115  0.1443
    1DIPC   GL121879  13.976  12.920   3.142 -0.1397  0.0163 -0.1084
    1DIPC   GL221880  14.147  12.675   3.339 -0.2196  0.0478 -0.3282
    1DIPC   C1A21881  13.788  12.855   3.616 -0.3273 -0.4395  0.2109
    1DIPC   D2A21882  13.618  12.569   3.920  0.2042 -0.3170 -0.0660
    1DIPC   D3A21883  13.719  12.675   4.422 -0.0757 -0.0444  0.1611
    1DIPC   C4A21884  14.081  12.626   4.605  0.1768 -0.0205 -0.3850
    1DIPC   C1B21885  14.086  12.521   3.716 -0.1627  0.1170 -0.0227
    1DIPC   D2B21886  13.976  12.141   3.881  0.0630  0.1799 -0.1960
    1DIPC   D3B21887  13.830  12.227   4.250  0.0868  0.0402 -0.0724
    1DIPC   C4B21888  13.922  12.167   4.669  0.1731  0.0093  0.1435
    1DIPC   NC321889  12.166  15.968   2.693 -0.1009  0.1315  0.1445
    1DIPC   PO421890  11.735  15.811   2.820 -0.0192 -0.2372 -0.2033
    1DIPC   GL121891  11.818  16.180   3.098 -0.1097  0.2922  0.1038
    1DIPC   GL221892  11.613  16.250   3.148  0.2145 -0.3511 -0.4974
    1DIPC   C1A21893  12.025  16.262   3.496 -0.1159  0.0322  0.2231
    1DIPC   D2A21894  11.955  16.285   4.012 -0.2038  0.5051 -0.0168
    1DIPC   D3A21895  11.622  16.682   4.173 -0.0240  0.4969 -0.1061
    1DIPC   C4A21896  11.313  16.596   3.882  0.1472 -0.1652 -0.0434
    1DIPC   C1B21897  11.345  16.501   3.406 -0.0980 -0.2956 -0.0378
    1DIPC   D2B21898  11.270  16.917   3.357  0.0537 -0.1194 -0.1096
    1DIPC   D3B21899  11.407  17.014   3.683 -0.1060 -0.0165 -0.0032
    1DIPC   C4B21900  11.766  16.649   3.715  0.0592  0.2029  0.2617
    1DIPC   NC321901  22.717  13.602   1.728  0.0555  0.0724 -0.0781
    1DIPC   PO421902  23.001  13.329   2.005  0.3381  0.2089  0.1500
    1DIPC   GL121903  22.756  13.487   2.295  0.1042  0.2286  0.0220
    1DIPC   GL221904  22.673  13.274   2.637  0.3949  0.0679  0.0593
    1DIPC   C1A21905  22.694  13.938   2.483  0.4372 -0.0126  0.4277
    1DIPC   D2A21906  22.959  14.171   2.703 -0.1074  0.3934 -0.2297
    1DIPC   D3A21907  23.014  13.889   2.977 -0.0419  0.1236  0.1815
    1DIPC   C4A21908  23.091  13.967   3.434 -0.0076  0.3240  0.1410
    1DIPC   C1B21909  22.579  13.623   2.917  0.1371 -0.0595  0.0067
    1DIPC   D2B21910  22.261  13.482   3.338  0.5270 -0.2708  0.1922
    1DIPC   D3B21911  22.800  13.511   3.459 -0.0527  0.1131  0.1030
    1DIPC   C4B21912  23.080  13.160   3.436 -0.1085  0.3164 -0.1192
    1DIPC   NC321913  24.434  15.251   1.666  0.0902 -0.1927  0.2625
    1DIPC   PO421914  24.506  14.786   1.459  0.0521 -0.0317 -0.2145
    1DIPC   GL121915  24.275  14.666   1.827  0.0211  0.1752 -0.1655
    1DIPC   GL221916  24.405  14.540   2.039 -0.0183  0.0626 -0.0325
    1DIPC   C1A21917  24.278  14.922   2.298 -0.1431  0.4314  0.2604
    1DIPC   D2A21918  24.138  14.917   2.774 -0.1794  0.2381 -0.1097
    1DIPC   D3A21919  24.305  14.530   2.768  0.0677 -0.3384 -0.1970
    1DIPC   C4A21920  24.064  14.120   2.822  0.2689 -0.0352  0.1912
    1DIPC   C1B21921  24.591  14.467   2.381  0.0779 -0.4548  0.2970
    1DIPC   D2B21922  24.783  14.470   2.787 -0.2430 -0.2304  0.1293
    1DIPC   D3B21923  24.653  14.879   2.613  0.2905  0.2099 -0.1381
    1DIPC   C4B21924  24.910  15.190   2.586  0.1584 -0.2027  0.2977
    1DIPC   NC321925  19.142  21.402   2.503  0.4945 -0.1688  0.2105
    1DIPC   PO421926  18.730  21.203   2.680 -0.0067 -0.0632  0.2129
    1DIPC   GL121927  19.008  21.423   2.998 -0.0187 -0.1865  0.1102
    1DIPC   GL221928  19.110  21.834   2.780  0.0335 -0.1548  0.1128
    1DIPC   C1A21929  19.223  21.124   3.228 -0.2071  0.0286 -0.2359
    1DIPC   D2A21930  19.517  20.801   3.267  0.1316 -0.2678  0.1147
    1DIPC   D3A21931  19.261  20.567   3.556 -0.2725 -0.1081 -0.1186
    1DIPC   C4A21932  19.434  20.263   3.759  0.2009 -0.1007 -0.0711
    1DIPC   C1B21933  19.200  21.946   3.189 -0.4334 -0.1416  0.1607
    1DIPC   D2B21934  19.456  22.241   3.539  0.3072 -0.1533 -0.0445
    1DIPC   D3B21935  19.808  22.076   3.694  0.0810  0.1563 -0.0883
    1DIPC   C4B21936  20.087  22.099   4.045  0.1692  0.0323  0.0941
    1DIPC   NC321937  28.736   9.405   2.230  0.1810  0.0504  0.1950
    1DIPC   PO421938  28.515   9.248   2.655 -0.2093  0.0385  0.0900
    1DIPC   GL121939  28.492   9.150   3.048 -0.0531 -0.0542  0.1060
    1DIPC   GL221940  28.703   9.189   3.116  0.0471 -0.4088  0.1700
    1DIPC   C1A21941  28.279   8.899   3.335 -0.1787 -0.1846 -0.2857
    1DIPC   D2A21942  27.871   8.709   3.401 -0.2342  0.0262  0.0442
    1DIPC   D3A21943  27.811   8.737   3.845  0.0797 -0.2546  0.0983
    1DIPC   C4A21944  27.392   8.968   3.890  0.0128 -0.2574  0.0979
    1DIPC   C1B21945  28.660   9.213   3.594 -0.0385 -0.1670  0.0514
    1DIPC   D2B21946  28.592   9.138   3.948 -0.3960 -0.3585 -0.0960
    1DIPC   D3B21947  28.711   8.757   4.210  0.0417 -0.1098  0.0553
    1DIPC   C4B21948  28.662   8.765   4.584 -0.0390 -0.0622 -0.0990
    1DIPC   NC321949  28.894   6.556   2.267  0.2205 -0.3056 -0.0657
    1DIPC   PO421950  29.058   6.675   2.648  0.1744 -0.1852 -0.0841
    1DIPC   GL121951  29.054   6.569   3.013 -0.1352 -0.0897  0.0924
    1DIPC   GL221952  29.223   6.778   3.210 -0.2684  0.2611  0.2484
    1DIPC   C1A21953  28.843   6.427   3.328 -0.1062 -0.0718 -0.2083
    1DIPC   D2A21954  28.725   6.449   3.766 -0.1717 -0.0795 -0.1110
    1DIPC   D3A21955  28.622   6.294   4.084  0.0116  0.0369 -0.0977
    1DIPC   C4A21956  28.527   5.833   4.108 -0.0247  0.1980  0.1905
    1DIPC   C1B21957  29.568   6.693   3.409 -0.1585  0.1400 -0.0316
    1DIPC   D2B21958  29.947   6.449   3.536 -0.2046 -0.1551 -0.0038
    1DIPC   D3B21959  30.362   6.519   3.618  0.0531 -0.0501 -0.1813
    1DIPC   C4B21960  30.449   6.483   4.022 -0.0273  0.2439  0.2421
    1DIPC   NC321961  15.246   1.681   2.766  0.1547  0.0843 -0.1117
    1DIPC   PO421962  15.677   1.926   2.836  0.0804  0.0988  0.0584
    1DIPC   GL121963  15.573   1.872   3.252 -0.1101 -0.0580 -0.1200
    1DIPC   GL221964  15.864   2.020   3.396  0.0227 -0.0736 -0.3483
    1DIPC   C1A21965  15.452   1.753   3.676 -0.0517 -0.1765  0.1153
    1DIPC   D2A21966  15.144   1.632   3.975 -0.2897 -0.1257  0.0807
    1DIPC   D3A21967  15.074   2.042   4.082  0.0188 -0.3039 -0.2091
    1DIPC   C4A21968  15.336   2.406   4.274  0.1399 -0.1316  0.3156
    1DIPC   C1B21969  15.905   1.907   3.805 -0.0612  0.3149  0.1843
    1DIPC   D2B21970  16.109   1.832   4.236  0.1831 -0.0526  0.4333
    1DIPC   D3B21971  15.812   1.690   4.502 -0.3145 -0.1485 -0.1822
    1DIPC   C4B21972  16.058   1.509   4.808  0.0407 -0.1658 -0.0624
    1DIPC   NC321973  22.491  26.115   2.736  0.3298 -0.0381  0.2370
    1DIPC   PO421974  22.311  25.871   3.031  0.0518 -0.0306  0.5025
    1DIPC   GL121975  22.583  25.743   3.203  0.2687 -0.0176  0.1642
    1DIPC   GL221976  22.905  25.881   3.317  0.0855 -0.3909  0.4493
    1DIPC   C1A21977  22.634  25.377   3.467  0.1826 -0.1752  0.3585
    1DIPC   D2A21978  22.407  25.351   3.773 -0.1339  0.2185 -0.0819
    1DIPC   D3A21979  21.989  25.465   3.990  0.0924 -0.1598  0.2377
    1DIPC   C4A21980  22.055  25.534   4.432 -0.1453  0.1194  0.2483
    1DIPC   C1B21981  22.645  25.849   3.695  0.3754 -0.1124  0.0608
    1DIPC   D2B21982  22.211  25.895   3.980 -0.2554  0.0112  0.1418
    1DIPC   D3B21983  22.147  26.343   4.077 -0.1141  0.0058 -0.1163
    1DIPC   C4B21984  22.238  26.550   4.531 -0.3059  0.0398  0.0327
    1DIPC   NC321985   7.454   4.473   3.535 -0.0504  0.2265  0.2388
    1DIPC   PO421986   7.045   4.291   3.714  0.3122 -0.0811  0.1626
    1DIPC   GL121987   7.023   4.379   4.159 -0.2318  0.0788  0.0477
    1DIPC   GL221988   7.063   4.031   4.293  0.1379  0.1271 -0.5000
    1DIPC   C1A21989   7.170   4.418   4.624  0.0661 -0.1400 -0.0158
    1DIPC   D2A21990   7.552   4.310   4.695  0.0746 -0.1609  0.0702
    1DIPC   D3A21991   7.645   4.718   4.784 -0.1956 -0.1944  0.0830
    1DIPC   C4A21992   7.348   5.178   5.042 -0.1510 -0.0478  0.4192
    1DIPC   C1B21993   7.111   3.619   4.620  0.2491  0.0533  0.1195
    1DIPC   D2B21994   7.412   3.321   4.815 -0.1260  0.0306 -0.0364
    1DIPC   D3B21995   7.107   3.164   5.095  0.1657 -0.0820 -0.2304
    1DIPC   C4B21996   7.179   2.809   5.288  0.1048  0.0961 -0.0691
    1DIPC   NC321997   5.894  17.556   2.448 -0.3010 -0.1285  0.1760
    1DIPC   PO421998   5.991  17.100   2.554 -0.0658 -0.2674 -0.0430
    1DIPC   GL121999   5.772  17.080   2.928  0.0483 -0.1631  0.0155
    1DIPC   GL222000   5.652  16.742   3.072 -0.0968 -0.0377 -0.0474
    1DIPC   C1A22001   5.550  17.185   3.268  0.0353  0.1479 -0.2072
    1DIPC   D2A22002   5.371  17.191   3.611 -0.0581  0.3895  0.3261
    1DIPC   D3A22003   5.558  17.273   3.923 -0.1572  0.0153 -0.2660
    1DIPC   C4A22004   5.225  17.408   4.034 -0.2813 -0.0727  0.3103
    1DIPC   C1B22005   5.530  16.686   3.491  0.1959 -0.2982 -0.1961
    1DIPC   D2B22006   5.437  16.735   3.893  0.1443 -0.1836  0.0592
    1DIPC   D3B22007   5.363  16.932   4.192 -0.0960 -0.0935 -0.4904
    1DIPC   C4B22008   5.547  16.789   4.653 -0.0357 -0.0582  0.0785
    1DIPC   NC322009  12.659   2.341   2.813  0.3251  0.1358 -0.0079
    1DIPC   PO422010  13.148   2.361   2.835 -0.0118 -0.0611  0.2778
    1DIPC   GL122011  13.370   2.480   3.216 -0.0813  0.2195 -0.0554
    1DIPC   GL222012  13.692   2.429   3.267  0.1863  0.0526 -0.3319
    1DIPC   C1A22013  13.332   2.409   3.654 -0.1817  0.0093 -0.0614
    1DIPC   D2A22014  13.317   2.575   4.078  0.2571  0.1378  0.0487
    1DIPC   D3A22015  13.347   2.151   4.099 -0.0140  0.3825  0.3325
    1DIPC   C4A22016  13.041   1.969   3.889  0.0643 -0.0362 -0.2815
    1DIPC   C1B22017  13.874   2.319   3.717 -0.1299  0.2754 -0.2375
    1DIPC   D2B22018  13.911   2.240   4.193 -0.0113 -0.1209  0.2844
    1DIPC   D3B22019  14.051   2.013   4.545  0.2581 -0.3913 -0.0291
    1DIPC   C4B22020  14.395   2.234   4.776 -0.1241 -0.3482  0.1340
    1DIPC   NC322021  11.915  27.851   3.082 -0.1067  0.2436  0.3074
    1DIPC   PO422022  11.702  28.188   3.288  0.0543 -0.1432 -0.0008
    1DIPC   GL122023  11.780  28.133   3.758 -0.1674 -0.3579  0.3458
    1DIPC   GL222024  11.801  27.961   3.908 -0.1036 -0.0564  0.3590
    1DIPC   C1A22025  12.080  28.322   4.114  0.1654 -0.0893  0.0972
    1DIPC   D2A22026  12.280  28.714   4.312 -0.2740 -0.2654  0.0520
    1DIPC   D3A22027  11.775  28.805   4.331  0.0566  0.0603 -0.1227
    1DIPC   C4A22028  11.539  28.788   4.748  0.0313  0.2260 -0.2915
    1DIPC   C1B22029  11.778  27.765   4.343 -0.0076  0.1560  0.3303
    1DIPC   D2B22030  11.970  27.833   4.734 -0.1096  0.0653  0.0527
    1DIPC   D3B22031  11.713  27.926   5.032 -0.0061 -0.3185 -0.0981
    1DIPC   C4B22032  11.298  27.965   5.018 -0.0528 -0.1411  0.1985
    1DIPC   NC322033   2.581   4.885   2.731 -0.0712  0.0870  0.0110
    1DIPC   PO422034   2.637   4.578   2.969  0.2188 -0.1640 -0.2240
    1DIPC   GL122035   2.873   4.695   3.240 -0.2548  0.0958  0.2418
    1DIPC   GL222036   3.257   4.783   3.151  0.3180  0.0476  0.0554
    1DIPC   C1A22037   2.922   4.515   3.597  0.1013 -0.1370  0.4422
    1DIPC   D2A22038   2.965   4.515   4.124 -0.0720  0.0449  0.3958
    1DIPC   D3A22039   3.227   4.836   4.329  0.0807 -0.0825 -0.2282
    1DIPC   C4A22040   3.057   4.906   4.789 -0.0282 -0.0036  0.0816
    1DIPC   C1B22041   3.117   5.103   3.423 -0.0011 -0.3197 -0.4443
    1DIPC   D2B22042   2.999   5.320   3.732  0.2801 -0.0779  0.2056
    1DIPC   D3B22043   3.163   5.227   4.038  0.0062 -0.2161  0.2853
    1DIPC   C4B22044   3.612   5.116   4.038 -0.4040 -0.0904 -0.1051
    1DIPC   NC322045  11.961   7.386   3.171  0.2703 -0.0150  0.0157
    1DIPC   PO422046  12.334   7.616   3.292  0.2463  0.1225 -0.0498
    1DIPC   GL122047  12.373   7.665   3.713 -0.0484  0.3602 -0.1196
    1DIPC   GL222048  12.344   7.376   3.938 -0.1972 -0.0907 -0.0337
    1DIPC   C1A22049  12.449   7.794   4.200 -0.4247 -0.0738 -0.1096
    1DIPC   D2A22050  12.728   8.096   4.385 -0.0177  0.0340 -0.0339
    1DIPC   D3A22051  12.864   8.238   4.718  0.4281  0.1006  0.1287
    1DIPC   C4A22052  12.935   8.669   4.869  0.1007 -0.1084  0.0838
    1DIPC   C1B22053  12.113   7.475   4.401  0.0949  0.0111 -0.0897
    1DIPC   D2B22054  12.379   7.735   4.686 -0.1416 -0.2078 -0.0058
    1DIPC   D3B22055  12.289   8.181   4.842  0.1718  0.1984  0.0739
    1DIPC   C4B22056  11.833   8.239   4.998 -0.1261 -0.3527 -0.0814
    1DIPC   NC322057  16.731  20.313   2.834  0.2521 -0.1112 -0.1732
    1DIPC   PO422058  16.329  20.126   2.909  0.0902  0.0045 -0.0644
    1DIPC   GL122059  16.102  20.119   3.353  0.1670  0.1249  0.0334
    1DIPC   GL222060  15.983  20.386   3.522 -0.0797  0.0132  0.0135
    1DIPC   C1A22061  16.072  19.953   3.744 -0.0606  0.1129  0.2713
    1DIPC   D2A22062  15.839  19.675   3.776 -0.1400 -0.0924 -0.1511
    1DIPC   D3A22063  15.661  19.547   4.104  0.1628 -0.0747 -0.1144
    1DIPC   C4A22064  15.631  19.821   4.429 -0.0538 -0.3592 -0.0340
    1DIPC   C1B22065  16.255  20.715   3.748  0.0427  0.0607 -0.2432
    1DIPC   D2B22066  16.209  21.040   4.060  0.0041  0.0535 -0.2940
    1DIPC   D3B22067  16.445  21.383   4.068  0.0019 -0.2325  0.1899
    1DIPC   C4B22068  16.831  21.440   4.259 -0.3157 -0.0217 -0.0078
    1DIPC   NC322069  19.273  19.837   2.821 -0.0767  0.2605  0.0195
    1DIPC   PO422070  19.002  19.575   2.661  0.0960  0.0456 -0.0047
    1DIPC   GL122071  18.885  19.642   3.089  0.3617  0.0593  0.1497
    1DIPC   GL222072  19.190  19.490   3.243  0.2060  0.2712 -0.0304
    1DIPC   C1A22073  18.671  19.750   3.432  0.1329 -0.0295  0.2286
    1DIPC   D2A22074  18.267  19.714   3.711 -0.2342 -0.0120 -0.0825
    1DIPC   D3A22075  18.383  19.519   4.157  0.1886 -0.3520  0.2798
    1DIPC   C4A22076  18.243  19.068   4.278  0.0577 -0.3700 -0.4226
    1DIPC   C1B22077  19.174  19.687   3.759 -0.1288 -0.0178 -0.0902
    1DIPC   D2B22078  19.258  19.505   4.226  0.0846 -0.0436  0.1091
    1DIPC   D3B22079  19.206  19.718   4.636  0.3103  0.1019  0.1284
    1DIPC   C4B22080  19.313  20.070   4.828  0.0189  0.0466 -0.4395
    1DIPC   NC322081  11.541  24.797   2.579  0.1012 -0.0010  0.1064
    1DIPC   PO422082  11.562  25.268   2.684  0.1209 -0.1583 -0.0536
    1DIPC   GL122083  11.477  25.397   3.105  0.1576 -0.3499  0.0810
    1DIPC   GL222084  11.323  25.716   3.308  0.1039  0.0699  0.0559
    1DIPC   C1A22085  11.446  25.290   3.531 -0.4437 -0.1791  0.0774
    1DIPC   D2A22086  11.506  25.151   3.985  0.1577 -0.2482 -0.0719
    1DIPC   D3A22087  11.595  24.736   4.254 -0.2690  0.0929 -0.2327
    1DIPC   C4A22088  11.374  24.362   4.311  0.0810 -0.2705 -0.0077
    1DIPC   C1B22089  11.714  25.794   3.593 -0.1190  0.0689 -0.1369
    1DIPC   D2B22090  11.823  26.049   4.027  0.1707  0.0301 -0.1272
    1DIPC   D3B22091  11.636  26.001   4.539 -0.0446  0.2201 -0.0417
    1DIPC   C4B22092  11.316  26.315   4.716 -0.1338 -0.2413 -0.0795
    1DIPC   NC322093  25.686   2.124   3.468 -0.0358  0.1686  0.1624
    1DIPC   PO422094  25.777   2.539   3.583  0.0725 -0.3131  0.0834
    1DIPC   GL122095  25.570   2.427   3.902 -0.0641 -0.1988 -0.0673
    1DIPC   GL222096  25.854   2.239   3.975  0.1633 -0.0663 -0.3905
    1DIPC   C1A22097  25.558   2.468   4.427  0.0299  0.0181  0.0070
    1DIPC   D2A22098  25.459   2.112   4.704 -0.1409 -0.0808  0.1478
    1DIPC   D3A22099  25.098   1.820   4.674 -0.2910 -0.1792  0.1704
    1DIPC   C4A22100  24.746   1.982   4.499 -0.1679  0.0451  0.2026
    1DIPC   C1B22101  26.049   2.156   4.383  0.1047 -0.2206  0.3015
    1DIPC   D2B22102  26.120   2.425   4.904  0.0516 -0.0350 -0.0667
    1DIPC   D3B22103  26.323   2.192   5.224  0.2207  0.4376  0.0259
    1DIPC   C4B22104  26.640   2.069   5.467  0.2266 -0.1176  0.0287
    1DIPC   NC322105  15.848   8.293   3.273 -0.1895  0.0791 -0.0102
    1DIPC   PO422106  15.517   8.140   3.459  0.2414 -0.0610 -0.0521
    1DIPC   GL122107  15.805   8.342   3.786 -0.1449  0.1019  0.2997
    1DIPC   GL222108  15.789   8.362   4.189 -0.2226 -0.1167 -0.0998
    1DIPC   C1A22109  16.211   8.174   3.945 -0.1289 -0.1583  0.1701
    1DIPC   D2A22110  16.443   7.784   3.913 -0.0555 -0.1437 -0.0714
    1DIPC   D3A22111  16.789   7.873   4.237  0.1940 -0.3230  0.1587
    1DIPC   C4A22112  16.993   8.039   4.644  0.1233  0.1991  0.2295
    1DIPC   C1B22113  15.625   8.703   4.381  0.2428 -0.0635  0.2505
    1DIPC   D2B22114  15.530   8.767   4.690  0.1624  0.0152 -0.1581
    1DIPC   D3B22115  15.638   8.402   4.830  0.0196 -0.2006 -0.0534
    1DIPC   C4B22116  15.966   8.346   4.995 -0.0473 -0.1241 -0.0518
    1DIPC   NC322117   6.865   2.451   3.060  0.4204 -0.0251 -0.1897
    1DIPC   PO422118   6.887   2.445   3.505  0.0519 -0.1086 -0.0393
    1DIPC   GL122119   6.730   2.181   3.799  0.1823 -0.0993  0.0101
    1DIPC   GL222120   6.534   2.413   4.004 -0.0984  0.2444  0.1861
    1DIPC   C1A22121   6.475   1.957   4.077 -0.1069  0.1849 -0.3259
    1DIPC   D2A22122   6.358   1.838   4.485  0.1079 -0.1358  0.1070
    1DIPC   D3A22123   6.009   1.778   4.154 -0.1447 -0.4027 -0.0376
    1DIPC   C4A22124   6.089   1.416   3.992  0.2287 -0.0152 -0.1080
    1DIPC   C1B22125   6.508   2.316   4.532  0.2900  0.3428 -0.0391
    1DIPC   D2B22126   6.309   2.028   4.925 -0.1370 -0.2292 -0.0705
    1DIPC   D3B22127   6.509   2.014   5.254 -0.1028  0.0404 -0.2845
    1DIPC   C4B22128   6.790   2.380   5.157 -0.2964  0.3821  0.2807
    1DIPC   NC322129  21.441   2.049   3.412  0.0896 -0.0390  0.2189
    1DIPC   PO422130  21.327   2.328   3.808 -0.1431 -0.0617  0.1370
    1DIPC   GL122131  21.486   2.150   4.187  0.2198  0.0477  0.0136
    1DIPC   GL222132  21.260   2.102   4.543  0.2259  0.2737 -0.2626
    1DIPC   C1A22133  21.670   1.780   4.380 -0.2556 -0.1355  0.1545
    1DIPC   D2A22134  21.790   1.707   4.828 -0.1729  0.1098  0.5580
    1DIPC   D3A22135  22.133   1.791   4.456 -0.0735 -0.0915  0.0339
    1DIPC   C4A22136  22.000   2.150   4.180 -0.1762 -0.0074 -0.0784
    1DIPC   C1B22137  21.146   2.433   4.743 -0.0483 -0.2864 -0.2827
    1DIPC   D2B22138  20.808   2.623   4.813 -0.0812  0.1104  0.0782
    1DIPC   D3B22139  21.021   2.957   4.678 -0.1384  0.1232  0.2319
    1DIPC   C4B22140  20.701   3.068   4.505 -0.0099  0.3388 -0.1013
    1DIPC   NC322141   1.184  27.400   2.887 -0.1550  0.0058  0.1832
    1DIPC   PO422142   1.002  26.983   3.071 -0.0885  0.0753 -0.0271
    1DIPC   GL122143   1.034  26.882   3.473 -0.0173 -0.1065 -0.4685
    1DIPC   GL222144   0.802  27.049   3.644 -0.1668  0.1045 -0.0310
    1DIPC   C1A22145   1.139  26.774   3.940 -0.0406 -0.0339 -0.0893
    1DIPC   D2A22146   1.354  26.810   4.302 -0.0538  0.2438 -0.2308
    1DIPC   D3A22147   1.088  26.912   4.670 -0.0077  0.0591 -0.1447
    1DIPC   C4A22148   0.642  27.004   4.563 -0.1450 -0.1986  0.1888
    1DIPC   C1B22149   0.618  27.450   3.739  0.0224  0.1863  0.0215
    1DIPC   D2B22150   0.418  27.813   3.660 -0.2572 -0.1466 -0.1027
    1DIPC   D3B22151   0.707  27.814   4.054  0.0188 -0.3883 -0.1445
    1DIPC   C4B22152   1.096  28.074   4.076  0.1389  0.1393 -0.2736
    1DIPC   NC322153  22.283  20.019   2.061 -0.2101  0.3171 -0.0966
    1DIPC   PO422154  22.446  20.305   2.401  0.0175 -0.2216 -0.0928
    1DIPC   GL122155  22.755  20.174   2.720 -0.2490 -0.1081 -0.1914
    1DIPC   GL222156  22.860  20.443   3.005  0.1230  0.3013 -0.0085
    1DIPC   C1A22157  22.854  19.978   3.108 -0.0371 -0.0971  0.1753
    1DIPC   D2A22158  22.811  19.808   3.576 -0.2199 -0.0638  0.0073
    1DIPC   D3A22159  22.705  20.063   3.909 -0.2338  0.0503  0.0234
    1DIPC   C4A22160  22.547  19.895   4.362  0.0408 -0.0014  0.0956
    1DIPC   C1B22161  22.804  20.429   3.425 -0.0306  0.0630  0.0110
    1DIPC   D2B22162  22.567  20.504   3.748  0.4423  0.1296 -0.1474
    1DIPC   D3B22163  22.319  20.374   4.116  0.1980  0.2931  0.1879
    1DIPC   C4B22164  21.967  20.556   4.436 -0.0163  0.0137 -0.2220
    1DIPC   NC322165  16.258   9.100   3.133  0.2154  0.2614 -0.2246
    1DIPC   PO422166  16.181   9.385   3.504  0.0064 -0.1814  0.1632
    1DIPC   GL122167  16.304   9.336   3.938  0.2153 -0.3184  0.0773
    1DIPC   GL222168  16.664   9.393   3.807  0.4075  0.0101  0.1913
    1DIPC   C1A22169  16.487   9.512   4.321  0.1441 -0.0474 -0.1079
    1DIPC   D2A22170  16.215   9.463   4.783 -0.1875 -0.2865 -0.0179
    1DIPC   D3A22171  16.335   9.004   4.695 -0.3459  0.1855  0.2000
    1DIPC   C4A22172  16.108   8.678   4.704  0.1832 -0.0358  0.0031
    1DIPC   C1B22173  16.800   9.830   3.968 -0.1250  0.3018  0.3078
    1DIPC   D2B22174  16.756  10.206   4.291 -0.0345  0.2628  0.0124
    1DIPC   D3B22175  16.798   9.958   4.712  0.1665 -0.2309 -0.0053
    1DIPC   C4B22176  16.680   9.524   4.941  0.0490 -0.0863 -0.1119
    1DIPC   NC322177  23.684  19.364   1.501 -0.0165  0.0256 -0.1192
    1DIPC   PO422178  23.395  19.277   1.897 -0.0775 -0.0635  0.0002
    1DIPC   GL122179  23.496  19.194   2.384  0.2061  0.1815 -0.1966
    1DIPC   GL222180  23.751  19.077   2.536  0.0948 -0.1447  0.0140
    1DIPC   C1A22181  23.160  19.146   2.727 -0.1491  0.0169 -0.0549
    1DIPC   D2A22182  22.776  19.001   3.019 -0.0409  0.3114  0.3819
    1DIPC   D3A22183  23.069  19.001   3.346  0.0949  0.1680 -0.0804
    1DIPC   C4A22184  23.403  19.007   3.229  0.0220  0.0731 -0.0324
    1DIPC   C1B22185  23.690  19.469   2.775 -0.0917 -0.0572  0.0814
    1DIPC   D2B22186  23.739  19.375   3.166 -0.2504 -0.1642  0.2561
    1DIPC   D3B22187  24.136  19.218   3.294  0.0819 -0.1641 -0.1101
    1DIPC   C4B22188  24.545  19.267   3.080  0.3361 -0.0480  0.1368
    1DIPC   NC322189  21.447   0.071   3.155 -0.0624  0.2248 -0.2513
    1DIPC   PO422190  21.236   0.381   3.537 -0.2445  0.1110 -0.1792
    1DIPC   GL122191  21.486   0.088   3.780 -0.3389  0.1577 -0.0666
    1DIPC   GL222192  21.802   0.086   3.898  0.1328 -0.0394  0.0640
    1DIPC   C1A22193  21.561  -0.364   3.892 -0.0117 -0.3664 -0.0980
    1DIPC   D2A22194  21.597  -0.759   3.662  0.2744 -0.2643  0.2023
    1DIPC   D3A22195  21.507  -0.757   4.132  0.2047 -0.3673 -0.2011
    1DIPC   C4A22196  21.088  -0.627   4.148 -0.0142  0.3242  0.1989
    1DIPC   C1B22197  21.881  -0.025   4.387 -0.0211  0.0749  0.0396
    1DIPC   D2B22198  21.674  -0.030   4.728 -0.0401 -0.3670 -0.0029
    1DIPC   D3B22199  21.673  -0.259   5.005  0.1285  0.1809 -0.0754
    1DIPC   C4B22200  21.254  -0.451   5.097  0.1240 -0.3140  0.3999
    1DIPC   NC322201  22.157  11.378   1.982 -0.2691  0.1693  0.1579
    1DIPC   PO422202  21.850  11.798   1.992  0.2336 -0.3948  0.2091
    1DIPC   GL122203  21.850  11.750   2.486 -0.0051  0.2982  0.0998
    1DIPC   GL222204  22.238  11.662   2.385  0.2301  0.3901 -0.2325
    1DIPC   C1A22205  21.581  11.747   2.745 -0.2701 -0.0580  0.2875
    1DIPC   D2A22206  21.488  11.535   3.042 -0.0496  0.0167  0.0698
    1DIPC   D3A22207  21.445  11.915   3.295 -0.3254 -0.0216  0.1388
    1DIPC   C4A22208  21.795  12.068   3.523 -0.0274  0.2098 -0.0919
    1DIPC   C1B22209  22.524  11.587   2.665  0.1521 -0.1780 -0.4896
    1DIPC   D2B22210  22.547  11.778   3.013 -0.2844 -0.0984 -0.1404
    1DIPC   D3B22211  22.875  11.787   3.346  0.0062 -0.0784  0.0304
    1DIPC   C4B22212  23.178  11.551   3.399 -0.0877  0.0907  0.1607
    1DIPC   NC322213  10.860  24.061   2.933 -0.1958  0.3237 -0.0322
    1DIPC   PO422214  11.101  23.692   2.776  0.1127  0.0281  0.1441
    1DIPC   GL122215  10.936  23.380   3.098  0.2787 -0.1961 -0.0819
    1DIPC   GL222216  10.837  23.575   3.336  0.0292  0.1704  0.0638
    1DIPC   C1A22217  10.698  23.076   3.388  0.2984  0.2600 -0.3172
    1DIPC   D2A22218  10.524  22.883   3.820 -0.0198 -0.0845 -0.1370
    1DIPC   D3A22219  10.145  23.095   3.945 -0.0664 -0.2828  0.1901
    1DIPC   C4A22220  10.098  23.157   4.243  0.0505 -0.0114  0.0090
    1DIPC   C1B22221  10.969  23.947   3.503 -0.0352  0.0104 -0.0173
    1DIPC   D2B22222  10.919  24.224   3.976 -0.0224 -0.0787 -0.2587
    1DIPC   D3B22223  10.585  24.482   3.815  0.1123  0.2895  0.1024
    1DIPC   C4B22224  10.488  24.586   3.352 -0.4403  0.0716 -0.1182
    1DIPC   NC322225  25.746   6.494   2.572 -0.2800  0.3214  0.1343
    1DIPC   PO422226  26.096   6.507   2.870  0.0056  0.2359 -0.1825
    1DIPC   GL122227  26.156   6.426   3.234  0.1105 -0.0036  0.1947
    1DIPC   GL222228  26.299   6.691   3.379 -0.0108 -0.1440  0.1227
    1DIPC   C1A22229  26.047   6.330   3.668 -0.3913  0.1676 -0.2548
    1DIPC   D2A22230  25.973   6.434   4.046 -0.0002 -0.3271 -0.0781
    1DIPC   D3A22231  26.414   6.413   4.111 -0.1093  0.1363 -0.0946
    1DIPC   C4A22232  26.489   6.810   3.872  0.3158 -0.1798 -0.4108
    1DIPC   C1B22233  26.031   6.858   3.730 -0.1160 -0.1474  0.1205
    1DIPC   D2B22234  26.216   7.129   4.073  0.1023  0.1734 -0.0676
    1DIPC   D3B22235  25.994   7.038   4.472 -0.0030  0.3253  0.0664
    1DIPC   C4B22236  26.007   7.161   4.824 -0.1791 -0.1482  0.1821
    1DIPC   NC322237  22.910  10.210   1.553  0.3877 -0.0168  0.4321
    1DIPC   PO422238  22.631  10.499   1.530 -0.2454 -0.1087  0.1173
    1DIPC   GL122239  22.846  10.540   1.972  0.0486 -0.0211 -0.3767
    1DIPC   GL222240  23.090  10.720   2.159 -0.2473 -0.0122  0.3752
    1DIPC   C1A22241  22.793  10.243   2.338  0.1081  0.2869 -0.1903
    1DIPC   D2A22242  23.035  10.177   2.690  0.2272  0.4179 -0.3736
    1DIPC   D3A22243  22.924   9.849   2.818  0.1849 -0.4034 -0.0726
    1DIPC   C4A22244  23.052   9.783   3.146 -0.2043  0.0692 -0.0024
    1DIPC   C1B22245  23.465  10.875   2.328  0.0061  0.2919 -0.0985
    1DIPC   D2B22246  23.382  11.042   2.740 -0.3590  0.0337 -0.5221
    1DIPC   D3B22247  23.685  10.852   3.153  0.1599 -0.0125 -0.1457
    1DIPC   C4B22248  24.018  11.067   3.197 -0.0744  0.2972  0.2188
    1DIPC   NC322249  25.378  28.842   3.411 -0.0979 -0.0162 -0.2071
    1DIPC   PO422250  24.957  28.900   3.524  0.1217 -0.0207  0.1726
    1DIPC   GL122251  25.026  29.054   3.835 -0.0375  0.1242  0.2894
    1DIPC   GL222252  25.374  29.091   3.831  0.1169  0.0384 -0.2830
    1DIPC   C1A22253  25.034  29.149   4.260  0.3259  0.0757  0.4041
    1DIPC   D2A22254  25.057  29.199   4.637 -0.2543  0.1845  0.1202
    1DIPC   D3A22255  25.085  29.051   5.000 -0.0018  0.2576  0.0588
    1DIPC   C4A22256  25.016  29.264   5.380  0.2913  0.1408  0.0539
    1DIPC   C1B22257  25.527  29.176   4.291 -0.0997 -0.1152 -0.1439
    1DIPC   D2B22258  25.365  28.853   4.559  0.0139 -0.1591  0.1216
    1DIPC   D3B22259  25.502  28.659   4.954  0.3809  0.0816 -0.1397
    1DIPC   C4B22260  25.144  28.471   5.210 -0.4280 -0.0480  0.0749
    1DIPC   NC322261   7.740   7.221   3.207  0.0746 -0.0868  0.0452
    1DIPC   PO422262   7.633   6.921   3.416  0.1496 -0.3133  0.2648
    1DIPC   GL122263   7.764   6.877   3.812  0.0295  0.0735  0.0237
    1DIPC   GL222264   7.485   6.788   3.920  0.2999  0.1492  0.0529
    1DIPC   C1A22265   7.880   6.859   4.321 -0.0413  0.2360  0.0733
    1DIPC   D2A22266   8.168   6.877   4.740 -0.0879 -0.1432 -0.2946
    1DIPC   D3A22267   8.560   7.257   4.869  0.0349 -0.2441  0.2506
    1DIPC   C4A22268   8.598   7.458   5.343  0.0567  0.1524 -0.1419
    1DIPC   C1B22269   7.490   6.534   4.300 -0.1029 -0.0002 -0.0106
    1DIPC   D2B22270   7.825   6.439   4.595 -0.0169 -0.1388  0.0849
    1DIPC   D3B22271   8.035   6.367   5.017  0.0281  0.1935 -0.0538
    1DIPC   C4B22272   8.219   5.889   5.175  0.3342  0.0100  0.2727
    1DIPC   NC322273  18.203  17.231   2.472  0.1435  0.0136 -0.2310
    1DIPC   PO422274  18.448  17.373   2.769 -0.1866 -0.2409 -0.1467
    1DIPC   GL122275  18.662  17.534   3.139  0.0502  0.0958  0.0917
    1DIPC   GL222276  18.569  17.364   3.279 -0.1493 -0.1343  0.2023
    1DIPC   C1A22277  18.987  17.724   3.312  0.3004  0.3814  0.3155
    1DIPC   D2A22278  19.342  17.771   3.550 -0.2758  0.4262 -0.2822
    1DIPC   D3A22279  19.135  17.654   3.894  0.0658 -0.1260  0.0077
    1DIPC   C4A22280  19.325  17.655   4.341  0.0389  0.2938  0.2042
    1DIPC   C1B22281  18.242  17.216   3.525 -0.0479 -0.3741 -0.0092
    1DIPC   D2B22282  17.844  17.014   3.796 -0.1930 -0.0644  0.1674
    1DIPC   D3B22283  18.046  16.885   4.159 -0.1449 -0.0766 -0.1274
    1DIPC   C4B22284  18.401  16.945   4.370 -0.2905 -0.1503 -0.2291
    1DIPC   NC322285  24.180  26.700   3.351  0.2862  0.0368  0.0287
    1DIPC   PO422286  24.459  26.824   3.642  0.0636 -0.0332  0.2214
    1DIPC   GL122287  24.703  27.098   3.870 -0.0600  0.0336 -0.1923
    1DIPC   GL222288  24.665  26.906   4.204 -0.1862  0.0529  0.1375
    1DIPC   C1A22289  24.818  27.448   4.120  0.4440  0.1056  0.1122
    1DIPC   D2A22290  24.686  27.632   4.483  0.0308  0.0943  0.1050
    1DIPC   D3A22291  24.941  27.907   4.709  0.1718  0.0725  0.0821
    1DIPC   C4A22292  24.805  28.168   4.930 -0.1137  0.0904  0.0697
    1DIPC   C1B22293  24.718  26.968   4.649  0.0330 -0.3669 -0.0819
    1DIPC   D2B22294  24.311  26.801   4.909  0.1507 -0.0821 -0.1275
    1DIPC   D3B22295  24.138  26.443   4.980  0.0588  0.0760  0.1734
    1DIPC   C4B22296  23.932  26.328   5.377 -0.1154 -0.4203  0.1998
    1DIPC   NC322297  25.359  20.962   1.580 -0.1290 -0.0387 -0.3726
    1DIPC   PO422298  25.388  21.147   2.096  0.0164  0.1859 -0.1807
    1DIPC   GL122299  25.601  21.111   2.482  0.0108 -0.1694 -0.2543
    1DIPC   GL222300  25.842  20.868   2.477 -0.1726  0.0141  0.2803
    1DIPC   C1A22301  25.308  21.084   2.887 -0.0513  0.3171  0.0821
    1DIPC   D2A22302  24.818  21.257   2.871 -0.3001 -0.1233  0.1756
    1DIPC   D3A22303  24.679  21.682   2.799  0.2346 -0.1647 -0.1108
    1DIPC   C4A22304  24.997  21.996   2.855  0.2361 -0.0541  0.2074
    1DIPC   C1B22305  25.722  20.650   2.945  0.0039  0.1524 -0.0859
    1DIPC   D2B22306  25.388  20.694   3.351  0.2272 -0.0200 -0.5236
    1DIPC   D3B22307  25.006  20.569   3.587 -0.3077  0.0522  0.1620
    1DIPC   C4B22308  24.722  20.207   3.600 -0.1274 -0.1178 -0.1432
    1DIPC   NC322309  13.946  29.411   3.578 -0.1107  0.0397  0.0337
    1DIPC   PO422310  13.603  29.631   3.687 -0.1612 -0.1596 -0.0617
    1DIPC   GL122311  13.658  29.769   4.069 -0.0942 -0.3417 -0.1185
    1DIPC   GL222312  13.584  30.137   4.156 -0.0537  0.1619 -0.1250
    1DIPC   C1A22313  13.754  29.643   4.551 -0.0092  0.2720  0.1197
    1DIPC   D2A22314  13.650  29.759   5.010  0.1182  0.1435 -0.3778
    1DIPC   D3A22315  13.806  30.114   5.296  0.0626 -0.1976 -0.0730
    1DIPC   C4A22316  14.061  30.386   5.276  0.1439  0.1010 -0.2008
    1DIPC   C1B22317  13.968  30.065   4.364 -0.0162 -0.4141  0.0842
    1DIPC   D2B22318  14.484  29.990   4.416  0.2225 -0.2170  0.0378
    1DIPC   D3B22319  14.444  30.252   4.738 -0.4507  0.0169  0.2089
    1DIPC   C4B22320  14.209  29.963   4.951 -0.1225 -0.0429  0.0816
    1DIPC   NC322321  14.523  23.341   2.875 -0.1052  0.0728  0.2729
    1DIPC   PO422322  14.241  23.649   3.003  0.0070 -0.0694  0.2355
    1DIPC   GL122323  13.915  23.704   3.257 -0.0920 -0.1215 -0.1953
    1DIPC   GL222324  13.753  23.454   3.275 -0.0270  0.1436  0.1509
    1DIPC   C1A22325  13.540  23.892   3.489 -0.1543  0.2416 -0.0356
    1DIPC   D2A22326  13.204  24.151   3.794 -0.0320 -0.1942  0.0936
    1DIPC   D3A22327  13.373  23.930   4.231 -0.3838 -0.3614  0.0234
    1DIPC   C4A22328  13.213  23.666   4.403 -0.0093  0.0209 -0.0746
    1DIPC   C1B22329  14.103  23.319   3.486  0.2171  0.0200  0.0024
    1DIPC   D2B22330  14.358  22.983   3.460 -0.0060  0.2477  0.2558
    1DIPC   D3B22331  14.470  22.826   3.863 -0.0239  0.2511  0.0442
    1DIPC   C4B22332  14.238  22.856   4.216  0.2594 -0.3232  0.2582
    1DIPC   NC322333  23.859   5.065   3.095  0.0813 -0.1597  0.0147
    1DIPC   PO422334  23.737   5.323   3.437 -0.2847 -0.1405  0.1399
    1DIPC   GL122335  23.734   5.230   3.867  0.0827 -0.0236 -0.2032
    1DIPC   GL222336  23.845   5.474   4.073  0.2276 -0.0087  0.0772
    1DIPC   C1A22337  23.483   5.208   4.360 -0.0395  0.1802  0.1561
    1DIPC   D2A22338  23.605   5.292   4.805  0.0193  0.0044 -0.1156
    1DIPC   D3A22339  23.287   5.019   5.044  0.0562  0.0185 -0.0925
    1DIPC   C4A22340  23.019   4.927   5.402  0.0876 -0.2118 -0.0244
    1DIPC   C1B22341  23.524   5.654   4.272  0.2564 -0.0532  0.0617
    1DIPC   D2B22342  23.307   5.881   4.670 -0.0311  0.1153 -0.0839
    1DIPC   D3B22343  23.697   5.815   4.739  0.2595 -0.1467 -0.1843
    1DIPC   C4B22344  23.948   5.509   4.566 -0.1515  0.2299  0.2013
    1DIPC   NC322345  13.369  14.688   2.893 -0.2371 -0.4715 -0.1726
    1DIPC   PO422346  12.909  14.476   3.159 -0.2065  0.0062 -0.1468
    1DIPC   GL122347  12.745  14.459   3.522 -0.1325 -0.0507  0.1209
    1DIPC   GL222348  12.418  14.313   3.578  0.0860  0.0314  0.1418
    1DIPC   C1A22349  12.670  14.523   4.037 -0.1015 -0.0540  0.3687
    1DIPC   D2A22350  12.571  14.584   4.414  0.2799 -0.0176  0.1182
    1DIPC   D3A22351  12.514  14.278   4.779 -0.2693  0.0514 -0.0066
    1DIPC   C4A22352  12.873  14.354   5.089  0.2505  0.0183  0.1321
    1DIPC   C1B22353  12.183  14.344   3.951  0.1339  0.1310 -0.0863
    1DIPC   D2B22354  12.167  14.338   4.416  0.3012  0.1319 -0.0344
    1DIPC   D3B22355  11.762  14.407   4.277  0.3641 -0.2952  0.1862
    1DIPC   C4B22356  11.490  14.714   4.496 -0.0874  0.0152 -0.0490
    1DIPC   NC322357  16.709   6.552   3.417  0.2079 -0.3307 -0.2050
    1DIPC   PO422358  17.061   6.578   3.597  0.1150  0.0603 -0.0468
    1DIPC   GL122359  17.129   6.723   4.038 -0.3885  0.0016 -0.1133
    1DIPC   GL222360  16.831   6.924   4.170  0.1983  0.1430 -0.1915
    1DIPC   C1A22361  17.074   6.509   4.481  0.0623  0.0617 -0.0452
    1DIPC   D2A22362  17.082   6.450   4.888  0.0646 -0.1130 -0.0447
    1DIPC   D3A22363  16.954   6.934   4.989 -0.1529 -0.3500 -0.0441
    1DIPC   C4A22364  17.273   7.121   5.207 -0.0372 -0.1081 -0.1631
    1DIPC   C1B22365  16.643   6.952   4.586  0.0143 -0.1205  0.1776
    1DIPC   D2B22366  16.470   6.894   4.961  0.2267 -0.0500  0.0001
    1DIPC   D3B22367  16.462   7.401   4.922 -0.2503  0.1577  0.2078
    1DIPC   C4B22368  16.334   7.596   5.238 -0.4077  0.1493  0.1976
    1DIPC   NC322369   6.449  25.772   2.985 -0.1826  0.0526  0.1336
    1DIPC   PO422370   6.798  26.063   2.889  0.0730  0.3112  0.2702
    1DIPC   GL122371   6.782  26.007   3.351  0.0322 -0.3185 -0.0079
    1DIPC   GL222372   6.873  25.709   3.386 -0.0785 -0.2297 -0.3040
    1DIPC   C1A22373   6.580  25.983   3.818 -0.0680  0.0484 -0.0420
    1DIPC   D2A22374   6.326  26.354   4.141 -0.1802  0.2586  0.2192
    1DIPC   D3A22375   6.214  26.146   4.506 -0.2421  0.2790  0.1217
    1DIPC   C4A22376   6.274  26.330   4.888  0.5391 -0.1929  0.0479
    1DIPC   C1B22377   6.609  25.511   3.584  0.2566 -0.0807  0.0051
    1DIPC   D2B22378   6.651  25.384   4.002 -0.1350 -0.0339 -0.1426
    1DIPC   D3B22379   6.211  25.328   4.254 -0.2637  0.0323 -0.2483
    1DIPC   C4B22380   5.827  25.362   4.030 -0.2714 -0.0417 -0.2130
    1DIPC   NC322381   1.926   6.230   2.879 -0.0824 -0.1213 -0.1902
    1DIPC   PO422382   1.650   6.526   2.888 -0.1354  0.2360  0.0046
    1DIPC   GL122383   1.705   6.732   3.281  0.2094  0.0461 -0.0380
    1DIPC   GL222384   1.628   7.058   3.373 -0.1141 -0.0873  0.1339
    1DIPC   C1A22385   1.744   6.852   3.821 -0.2140  0.3035  0.3052
    1DIPC   D2A22386   1.733   6.627   4.283 -0.3198  0.0070 -0.0090
    1DIPC   D3A22387   1.806   6.828   4.673 -0.0224 -0.0013  0.2294
    1DIPC   C4A22388   1.704   7.165   4.779  0.1213  0.2256 -0.1682
    1DIPC   C1B22389   1.695   7.465   3.372 -0.2820  0.0911  0.0248
    1DIPC   D2B22390   1.698   7.878   3.511 -0.2384 -0.0072 -0.1055
    1DIPC   D3B22391   1.849   7.731   3.801 -0.0787  0.1393  0.0249
    1DIPC   C4B22392   2.054   8.007   4.069 -0.1061 -0.1963  0.1813
    1DIPC   NC322393  17.159   3.486   3.219  0.2259 -0.3002  0.2142
    1DIPC   PO422394  17.173   3.991   3.415  0.0228  0.2989  0.0676
    1DIPC   GL122395  17.347   3.753   3.800  0.2416  0.2440  0.3371
    1DIPC   GL222396  17.345   3.374   3.636 -0.3033 -0.2197  0.1429
    1DIPC   C1A22397  17.249   3.777   4.222 -0.1040  0.0435  0.0949
    1DIPC   D2A22398  17.444   4.087   4.586  0.1156 -0.4372 -0.1287
    1DIPC   D3A22399  17.513   4.045   4.958  0.1192  0.0111 -0.0385
    1DIPC   C4A22400  17.157   3.901   5.109 -0.1653 -0.0732  0.0574
    1DIPC   C1B22401  17.097   3.339   3.987  0.2410  0.1525  0.1701
    1DIPC   D2B22402  17.222   3.167   4.328 -0.1939 -0.1639  0.0121
    1DIPC   D3B22403  17.222   3.367   4.784 -0.2049 -0.3041 -0.1586
    1DIPC   C4B22404  17.647   3.537   5.009 -0.1390  0.2741  0.1566
    1DIPC   NC322405  29.105  21.936   2.214 -0.3159 -0.1131 -0.2391
    1DIPC   PO422406  29.505  22.007   2.428  0.0696  0.1361  0.2175
    1DIPC   GL122407  29.506  21.944   2.865  0.4281 -0.1422 -0.0176
    1DIPC   GL222408  29.804  22.095   3.008 -0.0148  0.1939  0.0909
    1DIPC   C1A22409  29.412  21.845   3.248  0.2090  0.2913  0.1439
    1DIPC   D2A22410  29.289  22.094   3.585  0.2409  0.0459  0.2081
    1DIPC   D3A22411  29.221  21.766   3.733  0.3479  0.2367  0.3734
    1DIPC   C4A22412  29.381  21.645   4.162 -0.1121 -0.0118 -0.0163
    1DIPC   C1B22413  29.822  22.088   3.418  0.0260 -0.0165 -0.5184
    1DIPC   D2B22414  29.817  21.861   3.856 -0.0707  0.0248  0.1603
    1DIPC   D3B22415  29.532  22.156   4.113 -0.4175 -0.0374  0.3413
    1DIPC   C4B22416  29.187  22.144   4.103  0.0425 -0.2050 -0.3367
    1DIPC   NC322417  16.999  29.094   2.959 -0.1043  0.0421 -0.0991
    1DIPC   PO422418  17.332  28.860   3.172  0.3252 -0.2071 -0.4558
    1DIPC   GL122419  17.346  28.726   3.593  0.0806  0.1842  0.0707
    1DIPC   GL222420  17.696  28.444   3.770 -0.0387  0.0425  0.2068
    1DIPC   C1A22421  17.161  29.085   3.798  0.1987 -0.1714  0.0010
    1DIPC   D2A22422  17.344  29.282   4.083  0.1842 -0.0638  0.2518
    1DIPC   D3A22423  17.085  29.377   4.335  0.1292 -0.0995 -0.0485
    1DIPC   C4A22424  16.694  29.445   4.128  0.2055  0.0130  0.0960
    1DIPC   C1B22425  17.776  28.395   4.313  0.0256 -0.0713 -0.1077
    1DIPC   D2B22426  18.095  28.285   4.556  0.0990  0.2370 -0.0551
    1DIPC   D3B22427  17.874  28.557   4.779  0.0117 -0.0777  0.0888
    1DIPC   C4B22428  17.419  28.644   4.646 -0.1433  0.0221  0.1342
    1DIPC   NC322429   1.640  26.057   3.582 -0.0560 -0.2339 -0.3574
    1DIPC   PO422430   1.304  26.272   3.465 -0.0244  0.0412  0.0078
    1DIPC   GL122431   1.348  26.253   3.952 -0.1787  0.2004 -0.1147
    1DIPC   GL222432   1.631  26.520   3.873  0.0139 -0.1741  0.0360
    1DIPC   C1A22433   1.325  26.231   4.274  0.2207  0.1529 -0.1312
    1DIPC   D2A22434   1.353  26.433   4.695 -0.0105 -0.0690 -0.1928
    1DIPC   D3A22435   0.985  26.413   4.620  0.1955  0.1034 -0.0235
    1DIPC   C4A22436   0.905  26.459   4.152  0.2106 -0.2211  0.0332
    1DIPC   C1B22437   1.735  26.483   4.209  0.1133  0.1384  0.3660
    1DIPC   D2B22438   1.829  26.205   4.482  0.0109 -0.0562  0.1170
    1DIPC   D3B22439   2.215  26.378   4.486  0.4207  0.2472  0.0268
    1DIPC   C4B22440   2.331  26.108   4.829 -0.0321  0.1015  0.0274
    1DIPC   NC322441   1.371   9.921   2.617  0.1384 -0.1714  0.1925
    1DIPC   PO422442   1.078   9.532   2.638 -0.1863  0.2938 -0.1526
    1DIPC   GL122443   1.008   9.663   3.052  0.0526 -0.1697 -0.1654
    1DIPC   GL222444   1.302   9.936   3.094  0.1095  0.1479 -0.1755
    1DIPC   C1A22445   0.681   9.592   3.223 -0.0399 -0.0712 -0.0861
    1DIPC   D2A22446   0.284   9.755   3.379 -0.0506  0.0516 -0.1609
    1DIPC   D3A22447   0.327   9.896   2.954  0.1785  0.3368  0.0132
    1DIPC   C4A22448  -0.027  10.037   2.965 -0.3242 -0.0113 -0.1396
    1DIPC   C1B22449   1.201   9.935   3.559  0.2837  0.2071 -0.0149
    1DIPC   D2B22450   1.196   9.856   3.869 -0.0968 -0.2580 -0.1410
    1DIPC   D3B22451   1.025   9.485   3.588  0.1729  0.2298  0.0361
    1DIPC   C4B22452   0.638   9.224   3.642 -0.2068  0.0009 -0.0271
    1DIPC   NC322453  17.432  24.360   2.832  0.2728  0.0057  0.0189
    1DIPC   PO422454  17.809  24.165   3.032  0.0754 -0.1357  0.1146
    1DIPC   GL122455  17.865  24.339   3.361  0.1233 -0.1805 -0.0606
    1DIPC   GL222456  18.101  24.142   3.508  0.0818  0.0334  0.1253
    1DIPC   C1A22457  18.032  24.748   3.549 -0.4545  0.2224  0.0379
    1DIPC   D2A22458  17.953  25.144   3.562  0.0529 -0.0246  0.1284
    1DIPC   D3A22459  17.907  25.081   4.026 -0.1808  0.3400 -0.4546
    1DIPC   C4A22460  18.209  25.111   4.279  0.0762  0.3242 -0.0143
    1DIPC   C1B22461  18.067  23.927   3.963  0.1342 -0.2915  0.2213
    1DIPC   D2B22462  17.934  24.116   4.290 -0.1771  0.1903  0.2853
    1DIPC   D3B22463  17.619  24.396   4.550 -0.0451  0.1072  0.1272
    1DIPC   C4B22464  17.361  24.215   4.817  0.0209  0.1696 -0.2397
    1DIPC   NC322465  15.526  21.120   3.260  0.0697  0.1060 -0.0734
    1DIPC   PO422466  15.843  20.855   3.120 -0.2241  0.1148  0.3099
    1DIPC   GL122467  15.843  20.864   3.577 -0.0210 -0.0069  0.4039
    1DIPC   GL222468  15.797  21.238   3.737  0.1109 -0.0719 -0.0305
    1DIPC   C1A22469  15.754  20.670   4.017 -0.0256  0.2724 -0.0123
    1DIPC   D2A22470  15.774  20.860   4.370 -0.1683  0.1729 -0.2034
    1DIPC   D3A22471  16.110  20.629   4.478  0.1063 -0.0958 -0.1348
    1DIPC   C4A22472  16.182  20.325   4.122 -0.1369  0.1221  0.0820
    1DIPC   C1B22473  15.992  21.502   3.987 -0.0771 -0.0346 -0.2151
    1DIPC   D2B22474  16.136  21.711   4.309 -0.1555 -0.1249 -0.0867
    1DIPC   D3B22475  16.276  22.094   4.337 -0.0965 -0.1273 -0.4339
    1DIPC   C4B22476  16.047  22.511   4.519 -0.0794 -0.1366 -0.0417
    1DIPC   NC322477   0.012  28.998   2.771  0.0866  0.0970  0.0841
    1DIPC   PO422478  -0.381  28.827   2.771  0.2855 -0.1488 -0.2367
    1DIPC   GL122479  -0.396  28.551   3.068  0.2584 -0.0522  0.1484
    1DIPC   GL222480  -0.218  28.570   3.289  0.2563 -0.0113  0.2200
    1DIPC   C1A22481  -0.666  28.475   3.560 -0.0674 -0.2329 -0.0557
    1DIPC   D2A22482  -0.857  28.588   3.926  0.0969 -0.1613  0.0126
    1DIPC   D3A22483  -0.909  28.234   4.283 -0.0708 -0.1655  0.1203
    1DIPC   C4A22484  -0.832  28.227   4.719  0.1710 -0.2119  0.1727
    1DIPC   C1B22485   0.165  28.778   3.307 -0.1932 -0.0714  0.0591
    1DIPC   D2B22486   0.597  28.896   3.436 -0.1996 -0.0718  0.1412
    1DIPC   D3B22487   0.701  28.449   3.368 -0.0861 -0.1395  0.1983
    1DIPC   C4B22488   0.676  28.305   3.800 -0.1660 -0.0386 -0.2451
    1DIPC   NC322489   2.815   6.531   2.805  0.1894 -0.3986 -0.0506
    1DIPC   PO422490   2.360   6.452   2.725 -0.0228  0.0648 -0.0253
    1DIPC   GL122491   2.307   6.555   3.219 -0.0507  0.0652 -0.4733
    1DIPC   GL222492   2.118   6.407   3.408 -0.1517 -0.0667  0.2414
    1DIPC   C1A22493   2.098   6.960   3.469 -0.1400 -0.1989  0.2037
    1DIPC   D2A22494   2.148   7.182   3.853 -0.1842  0.1863  0.0714
    1DIPC   D3A22495   2.093   7.506   4.163 -0.0421  0.2449  0.0410
    1DIPC   C4A22496   2.043   7.456   4.575 -0.0791  0.5289  0.1125
    1DIPC   C1B22497   2.053   6.185   3.741 -0.4217 -0.0425  0.2044
    1DIPC   D2B22498   1.924   6.119   4.135  0.1490  0.0301  0.1945
    1DIPC   D3B22499   1.778   5.925   4.430  0.0212  0.0259  0.2425
    1DIPC   C4B22500   1.901   6.092   4.847 -0.0519  0.0849  0.3682
    1DIPC   NC322501  12.625  16.175   1.999  0.3330  0.1022  0.0906
    1DIPC   PO422502  12.572  15.948   2.415 -0.1299 -0.3318  0.1221
    1DIPC   GL122503  12.658  16.119   2.832 -0.0178 -0.3251  0.0119
    1DIPC   GL222504  12.521  16.001   3.153 -0.2685  0.3063 -0.2183
    1DIPC   C1A22505  12.754  16.437   3.248  0.0782 -0.1200 -0.0573
    1DIPC   D2A22506  12.791  16.674   3.474 -0.1042 -0.2406  0.0944
    1DIPC   D3A22507  12.713  16.513   3.802  0.0596 -0.1017  0.1848
    1DIPC   C4A22508  13.079  16.384   4.101 -0.2211 -0.4013 -0.2478
    1DIPC   C1B22509  12.494  16.115   3.521 -0.0207 -0.3624 -0.1820
    1DIPC   D2B22510  12.643  16.001   3.957  0.3379 -0.2225  0.0357
    1DIPC   D3B22511  12.407  16.225   4.253  0.0801 -0.2073  0.0695
    1DIPC   C4B22512  12.224  16.027   4.597 -0.1492  0.3175 -0.1229
    1DIPC   NC322513   9.505   4.991   3.685  0.0688  0.1393 -0.0764
    1DIPC   PO422514   9.165   5.202   3.520  0.3305  0.0348  0.1717
    1DIPC   GL122515   9.102   5.114   3.950 -0.5041 -0.0002 -0.2694
    1DIPC   GL222516   9.277   4.929   4.240  0.3264 -0.0629  0.0596
    1DIPC   C1A22517   8.822   5.164   4.352  0.0006  0.0510  0.1668
    1DIPC   D2A22518   8.565   5.400   4.733 -0.1025  0.2717  0.2259
    1DIPC   D3A22519   8.515   5.840   4.633 -0.1420 -0.0143  0.1908
    1DIPC   C4A22520   8.600   5.896   4.151  0.2706 -0.0958 -0.0311
    1DIPC   C1B22521   9.463   5.340   4.468 -0.1019  0.3027  0.0390
    1DIPC   D2B22522   9.246   5.537   4.850  0.0271 -0.0018 -0.1346
    1DIPC   D3B22523   9.068   5.723   4.557 -0.2785  0.0828 -0.2304
    1DIPC   C4B22524   9.041   5.632   4.126 -0.0651  0.0067 -0.0442
    1DIPC   NC322525  16.471  18.672   2.618  0.2335 -0.0800 -0.2667
    1DIPC   PO422526  16.845  18.855   2.809  0.2311  0.0212 -0.0904
    1DIPC   GL122527  17.034  18.911   3.271  0.3380 -0.0882 -0.0719
    1DIPC   GL222528  17.123  18.648   3.520  0.1838  0.1319  0.3650
    1DIPC   C1A22529  17.083  19.150   3.639  0.1248 -0.0027 -0.1260
    1DIPC   D2A22530  17.328  19.217   4.016  0.0458  0.0603  0.2025
    1DIPC   D3A22531  17.510  19.436   4.445  0.1963  0.0225 -0.0285
    1DIPC   C4A22532  17.882  19.293   4.548  0.0067  0.3744  0.1881
    1DIPC   C1B22533  17.265  18.763   3.969 -0.1247  0.0286  0.0284
    1DIPC   D2B22534  17.592  18.899   4.264 -0.2498 -0.0777 -0.1083
    1DIPC   D3B22535  17.901  18.757   4.400 -0.2529  0.0742  0.3135
    1DIPC   C4B22536  18.009  18.332   4.578  0.0793 -0.0979  0.0438
    1DIPC   NC322537  15.481  17.569   3.079  0.4746  0.0034  0.1141
    1DIPC   PO422538  15.123  17.851   3.217 -0.1968  0.1920  0.0611
    1DIPC   GL122539  14.845  17.960   3.558 -0.0564 -0.0451  0.1704
    1DIPC   GL222540  14.700  17.787   3.917  0.0727  0.1301 -0.0363
    1DIPC   C1A22541  14.614  18.250   3.812 -0.1594 -0.4488 -0.2275
    1DIPC   D2A22542  14.536  18.349   4.271  0.0009  0.1548 -0.0139
    1DIPC   D3A22543  14.626  18.228   4.654 -0.1000  0.0651 -0.0152
    1DIPC   C4A22544  14.884  18.410   4.938 -0.0849  0.1456 -0.2993
    1DIPC   C1B22545  14.972  18.103   4.165 -0.1455 -0.1448  0.2891
    1DIPC   D2B22546  15.140  18.133   4.614 -0.1356  0.1344 -0.4002
    1DIPC   D3B22547  14.942  17.901   4.974  0.1061  0.3036  0.3758
    1DIPC   C4B22548  15.087  17.617   5.128 -0.2374  0.1746 -0.0545
    1DIPC   NC322549  14.415   5.442   3.303 -0.1932  0.1683  0.0451
    1DIPC   PO422550  14.624   5.768   3.486 -0.3845 -0.0390 -0.3043
    1DIPC   GL122551  14.578   5.566   3.896 -0.1536 -0.0281  0.1339
    1DIPC   GL222552  14.591   5.305   3.830  0.2909  0.1017  0.2024
    1DIPC   C1A22553  14.378   5.478   4.347  0.2174  0.0470 -0.2429
    1DIPC   D2A22554  14.172   5.658   4.748 -0.0375 -0.2105  0.2949
    1DIPC   D3A22555  13.872   5.948   4.825 -0.3017  0.1648 -0.0042
    1DIPC   C4A22556  13.643   5.922   5.235  0.1452 -0.0210 -0.1322
    1DIPC   C1B22557  14.655   5.018   4.234  0.0616 -0.2350  0.1208
    1DIPC   D2B22558  14.652   4.558   4.212 -0.1865  0.1590  0.2366
    1DIPC   D3B22559  14.335   4.247   4.114  0.1057 -0.0929  0.0334
    1DIPC   C4B22560  13.939   4.254   4.396 -0.2919 -0.0556 -0.1937
    1DIPC   NC322561   2.020  29.230   2.735  0.1028 -0.0934  0.4005
    1DIPC   PO422562   1.920  29.703   2.768 -0.0479  0.0823 -0.0221
    1DIPC   GL122563   2.141  29.745   3.188 -0.1233 -0.0066 -0.3461
    1DIPC   GL222564   2.406  29.949   3.410 -0.2804  0.2210 -0.0240
    1DIPC   C1A22565   1.887  29.806   3.642 -0.1801  0.0675  0.2181
    1DIPC   D2A22566   1.479  29.983   3.814  0.1697  0.1449  0.2277
    1DIPC   D3A22567   1.351  29.964   4.225 -0.2230  0.0028 -0.3231
    1DIPC   C4A22568   0.987  29.786   4.364  0.2722 -0.0080 -0.2435
    1DIPC   C1B22569   2.371  29.797   3.870  0.1749 -0.0823  0.1108
    1DIPC   D2B22570   2.358  29.693   4.304 -0.0935  0.0800 -0.0991
    1DIPC   D3B22571   2.223  29.238   4.411 -0.1442  0.2291  0.2910
    1DIPC   C4B22572   1.892  29.080   4.567 -0.3392  0.3632 -0.3022
    1DIPC   NC322573   0.213   6.733   2.466 -0.0233  0.1799 -0.3248
    1DIPC   PO422574   0.344   7.011   2.777 -0.3041 -0.0161  0.2033
    1DIPC   GL122575   0.177   7.024   3.100  0.0750 -0.3108  0.0720
    1DIPC   GL222576  -0.050   7.120   3.175 -0.4862 -0.2006  0.1279
    1DIPC   C1A22577   0.218   6.978   3.572  0.2171  0.0414 -0.0034
    1DIPC   D2A22578   0.143   6.894   3.966  0.0753  0.3947  0.0583
    1DIPC   D3A22579  -0.261   6.710   3.923  0.0812 -0.0255  0.1032
    1DIPC   C4A22580  -0.605   6.835   3.775  0.0908  0.0255  0.1306
    1DIPC   C1B22581  -0.233   7.160   3.626  0.0755 -0.1005 -0.2008
    1DIPC   D2B22582  -0.352   7.453   3.932 -0.1394 -0.2475  0.0408
    1DIPC   D3B22583  -0.218   7.134   4.229  0.3964  0.0269  0.1546
    1DIPC   C4B22584  -0.482   6.885   4.325  0.0210  0.0622 -0.0138
    1DIPC   NC322585  12.975  13.439   2.299  0.3474  0.0066 -0.0392
    1DIPC   PO422586  13.115  13.570   2.699  0.3437 -0.0701 -0.3211
    1DIPC   GL122587  13.477  13.828   2.980  0.1603 -0.2910  0.0367
    1DIPC   GL222588  13.596  14.175   3.192 -0.0394  0.1527 -0.0351
    1DIPC   C1A22589  13.828  13.764   3.240 -0.1434  0.1342  0.1153
    1DIPC   D2A22590  14.170  14.026   3.470 -0.3496  0.1553 -0.0240
    1DIPC   D3A22591  14.191  14.220   3.944 -0.2215 -0.0354 -0.0639
    1DIPC   C4A22592  14.312  14.276   4.340 -0.0360 -0.0143  0.1130
    1DIPC   C1B22593  13.736  14.209   3.661  0.0752 -0.1522  0.1237
    1DIPC   D2B22594  13.764  14.484   4.030  0.2403 -0.2289  0.0558
    1DIPC   D3B22595  13.747  14.009   4.099 -0.0442  0.1409 -0.1443
    1DIPC   C4B22596  13.840  13.494   4.020  0.1113  0.2548  0.3713
    1DIPC   NC322597  24.618   5.371   3.435 -0.0121  0.1197 -0.4564
    1DIPC   PO422598  24.872   4.982   3.466  0.2786  0.0054 -0.2746
    1DIPC   GL122599  25.258   4.919   3.721 -0.0400 -0.1948 -0.0842
    1DIPC   GL222600  25.189   4.613   3.874 -0.4560 -0.0091 -0.3536
    1DIPC   C1A22601  25.366   4.977   4.167 -0.3853 -0.0450 -0.3200
    1DIPC   D2A22602  25.566   5.092   4.618  0.0911  0.2904  0.1030
    1DIPC   D3A22603  25.298   5.444   4.388  0.2525  0.1400  0.1054
    1DIPC   C4A22604  25.155   5.378   3.949  0.4306  0.0504 -0.1768
    1DIPC   C1B22605  25.608   4.582   4.004 -0.4055 -0.0604 -0.2589
    1DIPC   D2B22606  25.664   4.577   4.387 -0.0043 -0.0026  0.1334
    1DIPC   D3B22607  25.223   4.542   4.475 -0.3418 -0.2348  0.0687
    1DIPC   C4B22608  25.326   4.466   4.856  0.0625  0.2915 -0.0067
    1DIPC   NC322609   7.605  28.217   3.396  0.0302 -0.0186  0.0100
    1DIPC   PO422610   7.389  28.566   3.614 -0.1527  0.0382  0.1422
    1DIPC   GL122611   7.338  28.528   4.086  0.0998 -0.0829 -0.0443
    1DIPC   GL222612   7.662  28.646   4.104 -0.1843 -0.0508 -0.2351
    1DIPC   C1A22613   7.357  28.326   4.523  0.0226  0.3226  0.3857
    1DIPC   D2A22614   7.719  27.899   4.779 -0.0878  0.0699 -0.0910
    1DIPC   D3A22615   8.100  27.917   4.683  0.2492 -0.0923  0.0034
    1DIPC   C4A22616   8.383  28.281   4.724 -0.3549  0.0919 -0.4535
    1DIPC   C1B22617   7.344  29.016   4.324  0.0382  0.0314  0.1406
    1DIPC   D2B22618   7.224  29.393   4.500  0.0437  0.2126 -0.1819
    1DIPC   D3B22619   7.397  29.312   4.895 -0.0367  0.0003 -0.0779
    1DIPC   C4B22620   7.342  29.596   5.028  0.2997 -0.2715 -0.0858
    1DIPC   NC322621  23.338   7.437   3.220 -0.2296 -0.3043  0.2659
    1DIPC   PO422622  23.507   7.835   3.242  0.0808 -0.1246  0.0947
    1DIPC   GL122623  23.537   8.036   3.646  0.0785 -0.2463  0.0576
    1DIPC   GL222624  23.701   8.191   3.845  0.0144  0.3077  0.2494
    1DIPC   C1A22625  23.308   7.958   4.030  0.0489 -0.2357 -0.1330
    1DIPC   D2A22626  23.434   7.782   4.378 -0.0229  0.3481 -0.1019
    1DIPC   D3A22627  23.038   7.884   4.496 -0.2704 -0.0103 -0.1872
    1DIPC   C4A22628  22.806   8.091   4.199 -0.1611 -0.1308 -0.0370
    1DIPC   C1B22629  23.947   7.949   4.103 -0.4325 -0.1594  0.0715
    1DIPC   D2B22630  23.865   7.498   4.281  0.2994  0.1447 -0.0681
    1DIPC   D3B22631  23.388   7.162   4.200 -0.1531 -0.0134 -0.0959
    1DIPC   C4B22632  23.227   7.238   4.531  0.0237 -0.2007 -0.1358
    1DIPC   NC322633  11.067   9.949   2.980 -0.1657 -0.0216 -0.0667
    1DIPC   PO422634  10.711  10.143   3.060  0.1509 -0.1271 -0.0374
    1DIPC   GL122635  10.492   9.895   3.329 -0.0104  0.0842 -0.0949
    1DIPC   GL222636  10.377  10.086   3.564  0.0387  0.1896  0.0143
    1DIPC   C1A22637  10.492   9.621   3.693  0.1488 -0.1334  0.1511
    1DIPC   D2A22638  10.297   9.442   4.138  0.0909  0.0858 -0.0791
    1DIPC   D3A22639  10.419   9.897   4.131 -0.2103  0.1589  0.1680
    1DIPC   C4A22640  10.758  10.106   3.829 -0.1010 -0.1637  0.1512
    1DIPC   C1B22641  10.188  10.325   3.919  0.1150 -0.1230  0.2896
    1DIPC   D2B22642  10.261  10.387   4.365  0.2434  0.0060 -0.0787
    1DIPC   D3B22643   9.771  10.443   4.525 -0.2141 -0.1092 -0.0271
    1DIPC   C4B22644   9.698  10.851   4.746 -0.1177 -0.0941 -0.0361
    1DIPC   NC322645  19.487   0.613   3.683 -0.1799 -0.1047  0.1197
    1DIPC   PO422646  19.129   0.913   3.763  0.0905  0.1840 -0.1007
    1DIPC   GL122647  19.264   0.720   4.190  0.0246  0.1022  0.4681
    1DIPC   GL222648  19.082   0.651   4.382  0.1487  0.0367  0.1878
    1DIPC   C1A22649  19.191   1.049   4.524  0.0150  0.1702  0.0544
    1DIPC   D2A22650  19.502   1.330   4.748 -0.0317  0.1805  0.5030
    1DIPC   D3A22651  19.406   1.560   5.067 -0.0856 -0.0315 -0.0145
    1DIPC   C4A22652  19.080   1.756   5.144 -0.2753  0.2665  0.1294
    1DIPC   C1B22653  19.254   0.354   4.701 -0.1431  0.1482  0.0279
    1DIPC   D2B22654  19.462   0.378   5.082  0.2868  0.3403 -0.0096
    1DIPC   D3B22655  19.243   0.183   5.475  0.4405  0.1149 -0.1885
    1DIPC   C4B22656  18.873   0.307   5.569 -0.1095  0.1243 -0.1919
    1DIPC   NC322657  22.764  16.487   1.162  0.1312 -0.2347 -0.1433
    1DIPC   PO422658  22.814  16.342   1.520 -0.2778  0.0667 -0.3225
    1DIPC   GL122659  23.016  16.207   1.941  0.1067 -0.3973 -0.1484
    1DIPC   GL222660  23.131  16.536   2.083 -0.0750  0.1076 -0.3707
    1DIPC   C1A22661  23.406  16.129   2.225  0.1804  0.3460  0.0272
    1DIPC   D2A22662  23.567  16.060   2.599 -0.0901 -0.1396 -0.0593
    1DIPC   D3A22663  23.914  15.985   2.564  0.0321 -0.2860 -0.1321
    1DIPC   C4A22664  24.156  15.728   2.855 -0.1060 -0.1841 -0.2701
    1DIPC   C1B22665  23.139  16.496   2.529 -0.1655 -0.0467  0.0876
    1DIPC   D2B22666  23.330  16.283   2.933  0.1211 -0.1252  0.0580
    1DIPC   D3B22667  23.209  16.688   3.214 -0.1526  0.0097  0.3437
    1DIPC   C4B22668  22.878  17.014   3.282 -0.1637  0.1900 -0.2802
    1DIPC   NC322669   6.778   7.023   3.393  0.0508 -0.0145  0.1903
    1DIPC   PO422670   6.428   6.981   3.628 -0.0831  0.1781 -0.1193
    1DIPC   GL122671   6.148   6.746   3.754  0.0115  0.2217  0.2925
    1DIPC   GL222672   6.240   6.558   4.081 -0.0399 -0.1655  0.1776
    1DIPC   C1A22673   5.808   6.481   3.581  0.0932  0.2575 -0.0729
    1DIPC   D2A22674   5.478   6.205   3.531  0.2607  0.2834 -0.2951
    1DIPC   D3A22675   5.432   6.343   3.971 -0.1453  0.1817  0.0179
    1DIPC   C4A22676   5.856   6.251   4.022 -0.0843 -0.0144  0.1819
    1DIPC   C1B22677   6.280   6.495   4.509 -0.2235 -0.1630 -0.2973
    1DIPC   D2B22678   6.387   6.458   4.935 -0.2117  0.1935 -0.0565
    1DIPC   D3B22679   6.746   6.352   5.113  0.5928 -0.1008  0.0500
    1DIPC   C4B22680   6.979   6.148   4.829 -0.3588 -0.2283  0.0415
    1DIPC   NC322681   4.741  24.050   3.372 -0.0140 -0.0574  0.4656
    1DIPC   PO422682   4.598  23.647   3.326 -0.1492 -0.1985  0.1526
    1DIPC   GL122683   4.657  23.712   3.699 -0.0879 -0.2956  0.3083
    1DIPC   GL222684   4.373  23.704   3.744  0.1001 -0.1045 -0.1212
    1DIPC   C1A22685   4.827  23.704   4.193  0.0674  0.0574 -0.2447
    1DIPC   D2A22686   4.865  23.897   4.551 -0.0429 -0.0630  0.2096
    1DIPC   D3A22687   4.759  23.501   4.771  0.0071  0.0256 -0.4408
    1DIPC   C4A22688   4.402  23.346   5.121 -0.0195  0.5107  0.3218
    1DIPC   C1B22689   4.298  23.629   4.204 -0.2007  0.1311  0.1620
    1DIPC   D2B22690   4.300  23.635   4.613  0.0135  0.4905 -0.1590
    1DIPC   D3B22691   4.270  24.040   4.544  0.3249  0.0626  0.0281
    1DIPC   C4B22692   4.604  24.303   4.414  0.0361  0.2767  0.2311
    1DIPC   NC322693  11.100   8.607   3.106  0.0519  0.0306 -0.1525
    1DIPC   PO422694  11.276   8.178   3.125 -0.1021 -0.3079  0.0088
    1DIPC   GL122695  11.599   8.195   3.494  0.0571 -0.2095 -0.0723
    1DIPC   GL222696  11.351   8.301   3.761  0.0941 -0.1943 -0.0433
    1DIPC   C1A22697  11.802   8.537   3.756  0.1619  0.0673 -0.1902
    1DIPC   D2A22698  12.154   8.692   3.997 -0.0155  0.3214 -0.0097
    1DIPC   D3A22699  12.182   9.011   4.274  0.1735 -0.1437  0.1179
    1DIPC   C4A22700  12.242   9.127   4.739 -0.1747  0.0293 -0.2605
    1DIPC   C1B22701  10.968   8.226   4.105 -0.4033  0.1401  0.2703
    1DIPC   D2B22702  10.984   8.288   4.586  0.2042  0.2935  0.1040
    1DIPC   D3B22703  11.024   8.762   4.714 -0.3482  0.1315  0.2876
    1DIPC   C4B22704  10.825   9.161   4.536 -0.0301 -0.2811  0.4035
    1DIPC   NC322705  12.393  27.169   2.719  0.0333  0.0464 -0.0935
    1DIPC   PO422706  12.842  27.380   2.732  0.1492  0.0278 -0.2039
    1DIPC   GL122707  12.835  27.281   3.164 -0.1727  0.3289  0.0414
    1DIPC   GL222708  13.021  27.332   3.425  0.0376 -0.2252  0.1867
    1DIPC   C1A22709  12.664  26.943   3.353  0.1967 -0.1563  0.4129
    1DIPC   D2A22710  12.728  26.804   3.845 -0.0925  0.0364  0.0190
    1DIPC   D3A22711  12.825  27.077   4.183 -0.2608  0.0309  0.1526
    1DIPC   C4A22712  13.260  27.150   4.342 -0.1924  0.1218  0.2850
    1DIPC   C1B22713  13.207  27.052   3.392  0.0809 -0.3296  0.0922
    1DIPC   D2B22714  13.560  26.957   3.639 -0.4094 -0.1046  0.0250
    1DIPC   D3B22715  13.243  26.982   3.904 -0.2150 -0.0245  0.2118
    1DIPC   C4B22716  13.151  27.423   3.856  0.2199  0.2757 -0.0188
    1DIPC   NC322717   3.511  29.435   3.029  0.1603  0.0414 -0.0189
    1DIPC   PO422718   3.912  29.541   2.849 -0.2706  0.1399  0.0316
    1DIPC   GL122719   3.944  29.619   3.300 -0.3731  0.0774  0.1584
    1DIPC   GL222720   3.694  29.553   3.435  0.1118 -0.2799  0.2853
    1DIPC   C1A22721   4.238  29.620   3.675 -0.0125  0.0791 -0.3640
    1DIPC   D2A22722   4.407  29.231   3.942 -0.0946  0.1389 -0.2768
    1DIPC   D3A22723   4.471  29.445   4.407 -0.2628 -0.0929 -0.1590
    1DIPC   C4A22724   4.527  29.902   4.422  0.0047  0.1131 -0.2137
    1DIPC   C1B22725   3.817  29.745   3.862 -0.0861 -0.1602 -0.3366
    1DIPC   D2B22726   4.090  29.768   4.243 -0.0990  0.0563  0.1079
    1DIPC   D3B22727   3.838  29.391   4.457 -0.1849 -0.0750 -0.0402
    1DIPC   C4B22728   3.480  29.388   4.681  0.0660  0.0653 -0.3088
    1DIPC   NC322729  27.599  29.393   3.249 -0.1342  0.0801 -0.2900
    1DIPC   PO422730  27.313  29.126   3.312  0.2663  0.1434  0.2960
    1DIPC   GL122731  27.475  29.140   3.717 -0.1932 -0.2222 -0.1544
    1DIPC   GL222732  27.131  29.095   3.831 -0.2480  0.2211  0.2625
    1DIPC   C1A22733  27.395  28.983   4.235 -0.2606 -0.0567  0.0157
    1DIPC   D2A22734  27.340  28.830   4.591 -0.0071 -0.0534  0.0966
    1DIPC   D3A22735  27.785  28.811   4.390 -0.1088 -0.0292  0.0517
    1DIPC   C4A22736  28.233  28.945   4.318  0.3361  0.1421  0.2113
    1DIPC   C1B22737  27.048  28.696   4.148  0.3248 -0.1956  0.0293
    1DIPC   D2B22738  26.771  28.665   4.569 -0.1376 -0.1469 -0.0861
    1DIPC   D3B22739  27.099  28.351   4.636 -0.1297  0.0191  0.0152
    1DIPC   C4B22740  27.116  28.064   4.315  0.1578 -0.1026  0.1178
    1DIPC   NC322741  20.088   8.664   2.993  0.0274 -0.0203 -0.1787
    1DIPC   PO422742  19.921   9.038   3.073 -0.2377 -0.0573  0.1122
    1DIPC   GL122743  19.855   9.207   3.449 -0.0041  0.1027  0.0013
    1DIPC   GL222744  19.976   9.550   3.457 -0.2465  0.0144  0.0910
    1DIPC   C1A22745  19.597   9.026   3.805  0.0382 -0.0006  0.1274
    1DIPC   D2A22746  19.250   8.785   4.093  0.2877 -0.3367 -0.3214
    1DIPC   D3A22747  19.117   8.710   4.544  0.1752 -0.0712 -0.0663
    1DIPC   C4A22748  18.687   8.627   4.603 -0.1104  0.0270  0.3423
    1DIPC   C1B22749  19.847   9.515   3.920 -0.3219  0.1685 -0.3198
    1DIPC   D2B22750  19.717   9.722   4.262  0.0914 -0.0762  0.0735
    1DIPC   D3B22751  19.568  10.027   4.299  0.2839 -0.1706 -0.2675
    1DIPC   C4B22752  19.400  10.464   4.409  0.0146  0.0351 -0.1247
    1DIPC   NC322753  17.023   1.573   3.393 -0.1056  0.2906 -0.0284
    1DIPC   PO422754  16.875   1.280   3.647  0.2066 -0.1034 -0.1533
    1DIPC   GL122755  16.782   1.339   3.982  0.0541  0.0380  0.0556
    1DIPC   GL222756  16.784   1.035   4.224  0.3044  0.2586  0.2106
    1DIPC   C1A22757  16.635   1.651   4.168  0.1337 -0.2362  0.2323
    1DIPC   D2A22758  16.530   1.828   4.608 -0.2401 -0.0967  0.1222
    1DIPC   D3A22759  16.872   1.766   4.963 -0.2157  0.0971 -0.1980
    1DIPC   C4A22760  17.071   1.346   4.913 -0.1976  0.4221  0.2084
    1DIPC   C1B22761  16.655   0.725   4.621  0.4414  0.0666  0.0064
    1DIPC   D2B22762  16.568   0.613   5.039  0.2100  0.1609  0.2835
    1DIPC   D3B22763  16.215   0.541   4.954  0.0407  0.1843 -0.0745
    1DIPC   C4B22764  15.892   0.504   5.286 -0.0803  0.1182  0.1278
    1DIPC   NC322765  28.857  21.284   2.137 -0.0513  0.0273  0.1005
    1DIPC   PO422766  29.231  21.054   1.962  0.1357 -0.3136 -0.0569
    1DIPC   GL122767  29.294  20.976   2.403 -0.1457 -0.1486  0.1685
    1DIPC   GL222768  29.416  20.646   2.620  0.1370  0.1921 -0.2252
    1DIPC   C1A22769  29.091  21.027   2.891  0.1446 -0.1761  0.0021
    1DIPC   D2A22770  28.895  20.995   3.269  0.1252  0.0394 -0.0372
    1DIPC   D3A22771  29.069  20.608   3.137 -0.0453 -0.0825  0.0379
    1DIPC   C4A22772  28.810  20.326   3.046  0.3063 -0.2048 -0.1177
    1DIPC   C1B22773  29.511  20.747   3.103  0.1524  0.0028 -0.0643
    1DIPC   D2B22774  29.387  20.750   3.425 -0.1724 -0.0701 -0.0630
    1DIPC   D3B22775  29.059  20.632   3.718  0.2653  0.1495  0.1674
    1DIPC   C4B22776  29.089  20.840   4.154  0.1537 -0.2408  0.1049
    1DIPC   NC322777  18.364  14.587   2.309 -0.1635  0.0222  0.2312
    1DIPC   PO422778  17.946  14.861   2.349  0.0897 -0.0219  0.2997
    1DIPC   GL122779  17.764  14.948   2.824  0.0515  0.0508 -0.0737
    1DIPC   GL222780  17.978  15.081   2.921  0.0647  0.2882 -0.1611
    1DIPC   C1A22781  17.655  14.852   3.305  0.1113 -0.2889 -0.0381
    1DIPC   D2A22782  17.525  14.931   3.758  0.4470 -0.0613 -0.1622
    1DIPC   D3A22783  17.918  14.907   4.023 -0.1509 -0.2484 -0.3031
    1DIPC   C4A22784  18.202  14.584   4.130  0.0894 -0.0062 -0.1470
    1DIPC   C1B22785  18.206  15.428   3.165  0.1613  0.1389  0.0859
    1DIPC   D2B22786  18.568  15.384   3.280 -0.0994 -0.1763  0.1219
    1DIPC   D3B22787  18.959  15.608   3.430  0.0177 -0.1594 -0.2314
    1DIPC   C4B22788  19.149  15.651   3.856  0.0590  0.2485 -0.2159
    1DIPC   NC322789   5.304   8.054   3.509  0.0365 -0.3479  0.0578
    1DIPC   PO422790   4.995   7.928   3.207 -0.0418 -0.0014  0.1778
    1DIPC   GL122791   5.082   7.613   3.547 -0.0905  0.3045  0.1385
    1DIPC   GL222792   5.082   7.269   3.569  0.1400  0.0094 -0.0006
    1DIPC   C1A22793   4.785   7.503   3.882 -0.2611  0.2142  0.1435
    1DIPC   D2A22794   4.904   7.593   4.208 -0.2834 -0.3051 -0.0156
    1DIPC   D3A22795   4.785   7.975   4.473  0.1652 -0.1879  0.0437
    1DIPC   C4A22796   4.780   8.345   4.356 -0.0573 -0.1218 -0.1028
    1DIPC   C1B22797   5.022   7.076   3.982  0.0063 -0.0229  0.4140
    1DIPC   D2B22798   5.231   6.716   4.190 -0.0920 -0.0038 -0.0259
    1DIPC   D3B22799   5.192   6.838   4.529 -0.2649  0.3184 -0.3223
    1DIPC   C4B22800   5.131   6.626   4.895 -0.1236  0.2582 -0.0091
    1DIPC   NC322801   9.939  10.405   2.758  0.1263  0.0402 -0.4567
    1DIPC   PO422802  10.148  10.740   2.819 -0.1083  0.0024  0.1800
    1DIPC   GL122803  10.330  10.994   3.219  0.2855 -0.0365  0.0659
    1DIPC   GL222804  10.029  10.885   3.361  0.0368  0.0597  0.0664
    1DIPC   C1A22805  10.417  11.149   3.631  0.0000  0.0049  0.0111
    1DIPC   D2A22806  10.511  11.480   3.901 -0.0793  0.0882  0.0351
    1DIPC   D3A22807  10.842  11.376   4.167  0.0893 -0.0482  0.2810
    1DIPC   C4A22808  11.121  11.298   4.530  0.0282 -0.0251  0.0009
    1DIPC   C1B22809  10.081  10.762   3.752  0.1943  0.0804 -0.1507
    1DIPC   D2B22810   9.985  10.801   4.219  0.2376  0.0171 -0.1374
    1DIPC   D3B22811  10.166  10.845   4.614  0.0018  0.0611 -0.1356
    1DIPC   C4B22812  10.035  10.486   4.930 -0.0532 -0.1967 -0.1475
    1DIPC   NC322813  16.455  11.562   2.310  0.0649 -0.1270 -0.2228
    1DIPC   PO422814  16.489  11.619   2.834 -0.1190  0.1017 -0.2709
    1DIPC   GL122815  16.702  11.578   3.263 -0.0223 -0.2896  0.1328
    1DIPC   GL222816  16.517  11.553   3.586 -0.2744  0.0592 -0.1819
    1DIPC   C1A22817  16.819  11.176   3.543 -0.0455 -0.1775  0.0042
    1DIPC   D2A22818  16.778  10.800   3.548 -0.0970 -0.3993 -0.2951
    1DIPC   D3A22819  17.215  10.936   3.303  0.0370 -0.2374 -0.1752
    1DIPC   C4A22820  17.497  10.898   3.665 -0.0869  0.1059  0.0625
    1DIPC   C1B22821  16.454  11.418   4.049  0.0897 -0.2357 -0.0903
    1DIPC   D2B22822  16.015  11.189   4.272 -0.0578  0.0610 -0.1440
    1DIPC   D3B22823  15.914  11.606   4.160 -0.3620 -0.0647 -0.0179
    1DIPC   C4B22824  15.545  11.724   3.975 -0.2242  0.3982  0.0685
    1DIPC   NC322825   0.436   6.188   3.278  0.1680  0.2323  0.0276
    1DIPC   PO422826   0.873   6.003   3.335  0.1790  0.0498  0.0766
    1DIPC   GL122827   0.667   5.981   3.695  0.1488  0.0570  0.0612
    1DIPC   GL222828   0.351   5.988   3.838  0.1949  0.1774  0.0009
    1DIPC   C1A22829   0.981   6.057   4.012 -0.3480  0.2546  0.2343
    1DIPC   D2A22830   1.100   5.981   4.375 -0.0652 -0.1151  0.0876
    1DIPC   D3A22831   1.048   5.640   4.493  0.1593  0.1161 -0.0212
    1DIPC   C4A22832   1.204   5.435   4.846  0.0101 -0.1645 -0.1496
    1DIPC   C1B22833   0.524   5.951   4.301 -0.1609 -0.1465  0.1680
    1DIPC   D2B22834   0.566   5.803   4.620 -0.0891 -0.0345 -0.1317
    1DIPC   D3B22835   0.963   5.834   4.963  0.0377  0.0913 -0.0092
    1DIPC   C4B22836   1.379   5.924   4.830 -0.1837 -0.3451  0.1868
    1DIPC   NC322837  19.293  28.836   3.554  0.0227 -0.1311  0.1588
    1DIPC   PO422838  19.494  28.469   3.311  0.0417 -0.0151 -0.1538
    1DIPC   GL122839  19.620  28.551   3.827 -0.1791  0.0293 -0.0960
    1DIPC   GL222840  19.838  28.289   3.787 -0.0529  0.1996  0.0039
    1DIPC   C1A22841  19.698  28.422   4.278 -0.1637  0.3969  0.3256
    1DIPC   D2A22842  19.647  28.312   4.750 -0.0497 -0.2930 -0.1812
    1DIPC   D3A22843  19.689  28.681   4.992 -0.0292  0.2100 -0.4144
    1DIPC   C4A22844  19.940  28.921   4.808 -0.1203 -0.1452  0.1982
    1DIPC   C1B22845  20.138  28.289   4.134 -0.1906  0.0327  0.0206
    1DIPC   D2B22846  20.131  28.193   4.538  0.5131  0.1868 -0.0002
    1DIPC   D3B22847  20.105  28.670   4.430 -0.0673  0.2710 -0.2546
    1DIPC   C4B22848  20.510  28.745   4.746 -0.1519  0.1487 -0.0877
    1DIPC   NC322849  10.796   2.922   3.580  0.1918  0.0886  0.4343
    1DIPC   PO422850  11.273   2.729   3.602 -0.2970 -0.1638  0.1135
    1DIPC   GL122851  11.136   2.751   4.078  0.0145 -0.0616 -0.1535
    1DIPC   GL222852  10.866   2.602   3.989  0.0395  0.0137  0.1003
    1DIPC   C1A22853  10.947   2.921   4.471 -0.2633 -0.0781  0.0366
    1DIPC   D2A22854  10.809   2.713   4.935  0.0902  0.0665 -0.0712
    1DIPC   D3A22855  10.542   2.943   5.188 -0.0949  0.0501 -0.0215
    1DIPC   C4A22856  10.439   2.787   5.552 -0.0520 -0.1191  0.0780
    1DIPC   C1B22857  10.975   2.357   4.305 -0.1039  0.2063  0.2960
    1DIPC   D2B22858  10.980   2.098   4.669 -0.0071  0.0764 -0.0385
    1DIPC   D3B22859  11.130   1.757   4.597  0.0075  0.2657  0.1294
    1DIPC   C4B22860  11.467   1.621   4.856 -0.4237  0.1192  0.0191
    1DIPC   NC322861  22.638  17.657   1.744  0.1836  0.0845  0.0510
    1DIPC   PO422862  22.899  17.842   2.101 -0.0808  0.2182 -0.0365
    1DIPC   GL122863  23.143  17.716   2.369 -0.1741 -0.2065 -0.2413
    1DIPC   GL222864  23.316  17.580   2.286  0.0887 -0.1268 -0.1511
    1DIPC   C1A22865  23.018  17.433   2.743  0.0229 -0.1023 -0.0165
    1DIPC   D2A22866  23.333  17.104   2.939  0.0643  0.3976 -0.2637
    1DIPC   D3A22867  23.513  16.693   2.786 -0.0170 -0.1448 -0.5429
    1DIPC   C4A22868  23.716  16.618   2.405  0.1787 -0.0979 -0.4393
    1DIPC   C1B22869  23.653  17.561   2.370 -0.1337 -0.2960 -0.0375
    1DIPC   D2B22870  23.968  17.565   2.623  0.1975 -0.2400 -0.1050
    1DIPC   D3B22871  24.003  18.013   2.741 -0.0248 -0.0119 -0.0974
    1DIPC   C4B22872  24.363  18.304   2.899 -0.1721 -0.2737 -0.0735
    1DIPC   NC322873   9.098   4.092   3.938 -0.0748  0.1731 -0.0496
    1DIPC   PO422874   9.589   4.099   3.885 -0.1985  0.2365  0.0365
    1DIPC   GL122875   9.792   3.992   4.258  0.1260 -0.0834 -0.0163
    1DIPC   GL222876   9.792   3.657   4.375  0.1138 -0.1684  0.4552
    1DIPC   C1A22877   9.812   3.951   4.762 -0.1080  0.2031 -0.1952
    1DIPC   D2A22878   9.929   4.054   5.169  0.0569  0.1180 -0.1102
    1DIPC   D3A22879   9.881   3.783   5.456  0.1074 -0.2682 -0.1525
    1DIPC   C4A22880  10.276   3.571   5.640  0.1447  0.1845 -0.1255
    1DIPC   C1B22881   9.354   3.491   4.613  0.0854 -0.0260 -0.3630
    1DIPC   D2B22882   9.229   3.379   4.901 -0.1982  0.2472  0.0111
    1DIPC   D3B22883   9.448   3.018   5.257  0.1507  0.1660 -0.1093
    1DIPC   C4B22884   9.308   2.863   5.619 -0.0116 -0.2723 -0.1643
    1DIPC   NC322885  13.662  10.443   2.922  0.1603 -0.0325 -0.0933
    1DIPC   PO422886  13.408  10.160   3.010 -0.0309 -0.0873 -0.1241
    1DIPC   GL122887  13.735  10.253   3.370 -0.0385 -0.1258 -0.1944
    1DIPC   GL222888  13.691  10.536   3.469 -0.1863  0.2641 -0.0596
    1DIPC   C1A22889  14.019  10.154   3.818 -0.1829  0.0681 -0.2495
    1DIPC   D2A22890  14.294   9.804   3.857  0.1176 -0.1036 -0.2965
    1DIPC   D3A22891  14.574   9.622   4.146 -0.3875 -0.1154  0.1489
    1DIPC   C4A22892  14.640   9.234   3.978  0.1766 -0.1109  0.3062
    1DIPC   C1B22893  13.528  10.896   3.654 -0.0372  0.1645 -0.0418
    1DIPC   D2B22894  13.264  11.066   4.028 -0.0552  0.1862 -0.2220
    1DIPC   D3B22895  13.309  11.234   4.436 -0.3091 -0.0362  0.0906
    1DIPC   C4B22896  12.869  11.273   4.671  0.0459  0.0325  0.2925
    1DIPC   NC322897  19.359   2.793   2.954 -0.0517  0.2534 -0.2081
    1DIPC   PO422898  19.204   2.970   3.380 -0.0451  0.0918 -0.2278
    1DIPC   GL122899  19.162   3.043   3.846 -0.1083  0.0528 -0.2829
    1DIPC   GL222900  18.955   2.944   4.103 -0.1874  0.1280  0.1970
    1DIPC   C1A22901  19.491   3.174   4.174  0.3742  0.0909 -0.2597
    1DIPC   D2A22902  19.779   3.444   4.427 -0.0083 -0.1132  0.3846
    1DIPC   D3A22903  19.708   3.108   4.642 -0.0345 -0.0151  0.3952
    1DIPC   C4A22904  19.783   2.780   4.307  0.2586 -0.1826  0.4102
    1DIPC   C1B22905  19.149   3.069   4.494 -0.0947  0.2662  0.0198
    1DIPC   D2B22906  19.360   2.813   4.772  0.2426  0.2914 -0.0075
    1DIPC   D3B22907  19.352   2.507   5.186 -0.2792  0.0231  0.1723
    1DIPC   C4B22908  19.311   2.573   5.616 -0.1273  0.1307 -0.0284
    1DIPC   NC322909  11.881  20.695   2.224  0.3212  0.2911  0.1452
    1DIPC   PO422910  11.743  20.682   2.709 -0.0254 -0.1123  0.0166
    1DIPC   GL122911  11.878  20.737   3.103 -0.0113  0.0522  0.1598
    1DIPC   GL222912  12.294  20.835   2.981  0.3361 -0.1673  0.0928
    1DIPC   C1A22913  11.990  20.932   3.495  0.0477 -0.0504  0.1511
    1DIPC   D2A22914  11.960  20.723   3.820 -0.2645 -0.0256  0.0243
    1DIPC   D3A22915  11.907  20.358   3.955  0.2024  0.1336  0.0824
    1DIPC   C4A22916  11.960  20.049   4.236  0.2266  0.0137 -0.0109
    1DIPC   C1B22917  12.045  21.261   3.097  0.4200  0.1424  0.1863
    1DIPC   D2B22918  11.885  21.591   2.899  0.1347  0.3455 -0.2692
    1DIPC   D3B22919  12.183  21.732   3.196  0.0324  0.1664 -0.3415
    1DIPC   C4B22920  12.212  21.451   3.529 -0.1799 -0.1119 -0.1480
    1DIPC   NC322921   9.083  10.533   2.229  0.1353  0.0282 -0.0511
    1DIPC   PO422922   9.021  10.205   2.449 -0.1565  0.2319 -0.1308
    1DIPC   GL122923   9.222  10.156   2.827  0.1364 -0.1693  0.4290
    1DIPC   GL222924   9.279  10.351   2.974  0.2984  0.0608  0.2101
    1DIPC   C1A22925   9.182   9.895   3.172  0.0651  0.0066  0.0361
    1DIPC   D2A22926   9.001   9.432   3.173 -0.0048 -0.2058 -0.0487
    1DIPC   D3A22927   8.878   9.320   3.547 -0.0497  0.1466  0.1187
    1DIPC   C4A22928   8.921   9.438   3.944 -0.1449  0.1355 -0.1232
    1DIPC   C1B22929   9.212  10.265   3.498 -0.3818 -0.2242  0.2216
    1DIPC   D2B22930   9.223  10.028   3.877  0.0196 -0.2375  0.0383
    1DIPC   D3B22931   9.252   9.785   4.211  0.2035 -0.0180  0.2495
    1DIPC   C4B22932   9.054   9.399   4.450  0.0128  0.0513  0.1239
    1DIPC   NC322933  14.225  18.108   3.065 -0.0787  0.1865  0.1652
    1DIPC   PO422934  14.122  18.482   3.127 -0.0161  0.0832  0.1325
    1DIPC   GL122935  14.402  18.431   3.413 -0.1721  0.1732  0.0986
    1DIPC   GL222936  14.664  18.513   3.326 -0.1106 -0.1696 -0.0469
    1DIPC   C1A22937  14.549  18.794   3.656 -0.2546 -0.1976 -0.2538
    1DIPC   D2A22938  14.312  18.986   4.050  0.1907  0.0802 -0.1689
    1DIPC   D3A22939  14.177  18.897   4.538  0.0797  0.2413 -0.1744
    1DIPC   C4A22940  14.612  18.865   4.753  0.0975  0.0159 -0.0197
    1DIPC   C1B22941  15.003  18.461   3.619 -0.0734 -0.0631  0.1552
    1DIPC   D2B22942  15.010  18.734   3.939 -0.0976  0.0769 -0.1492
    1DIPC   D3B22943  14.766  18.810   4.236 -0.2175 -0.0169  0.0148
    1DIPC   C4B22944  14.610  19.224   4.397 -0.2817  0.1883  0.0103
    1DIPC   NC322945   8.261   4.844   3.394 -0.0486  0.1463 -0.0808
    1DIPC   PO422946   8.706   4.609   3.483  0.1563  0.0205  0.1670
    1DIPC   GL122947   8.695   5.044   3.700  0.5759  0.5686  0.3936
    1DIPC   GL222948   8.702   4.797   3.982  0.2231  0.2158  0.2358
    1DIPC   C1A22949   8.583   5.419   3.966 -0.0985  0.1500  0.0174
    1DIPC   D2A22950   8.316   5.524   4.325 -0.1002 -0.0337  0.0943
    1DIPC   D3A22951   8.140   5.950   4.322 -0.1009  0.2684 -0.1205
    1DIPC   C4A22952   8.077   6.000   4.641  0.1433 -0.0765  0.0128
    1DIPC   C1B22953   8.558   4.400   4.339  0.3681 -0.0410 -0.0460
    1DIPC   D2B22954   8.759   4.141   4.544 -0.1374  0.2043  0.1926
    1DIPC   D3B22955   8.771   4.391   4.933 -0.2017  0.0964 -0.0200
    1DIPC   C4B22956   9.056   4.242   5.284  0.2354 -0.1304 -0.1929
    1DIPC   NC322957   6.547   8.929   2.968 -0.0441  0.0447 -0.2914
    1DIPC   PO422958   7.039   9.138   3.051 -0.3244 -0.1148 -0.0754
    1DIPC   GL122959   6.781   9.361   3.352 -0.1480  0.1257  0.2763
    1DIPC   GL222960   6.933   9.145   3.702 -0.2249 -0.0152  0.0586
    1DIPC   C1A22961   6.537   9.592   3.579 -0.0346 -0.1676  0.1997
    1DIPC   D2A22962   6.536   9.981   3.833 -0.0067  0.0673  0.1761
    1DIPC   D3A22963   6.531  10.309   3.674  0.1036  0.0320 -0.1692
    1DIPC   C4A22964   6.398  10.425   4.058  0.0191 -0.0490  0.1857
    1DIPC   C1B22965   6.676   9.344   4.039 -0.1666  0.0637  0.0922
    1DIPC   D2B22966   6.772   9.563   4.489 -0.1154 -0.1689 -0.0753
    1DIPC   D3B22967   7.232   9.764   4.583  0.4760 -0.0765  0.3553
    1DIPC   C4B22968   7.368   9.566   4.984  0.0291  0.0141 -0.2371
    1DIPC   NC322969  18.195   7.826   3.240 -0.0899 -0.0137 -0.4382
    1DIPC   PO422970  18.664   7.669   3.363  0.0213  0.1068  0.2467
    1DIPC   GL122971  18.362   7.497   3.692  0.2279 -0.1402  0.2341
    1DIPC   GL222972  18.387   7.218   3.843 -0.1163 -0.1201  0.1514
    1DIPC   C1A22973  18.109   7.765   3.867 -0.2399 -0.3396  0.0151
    1DIPC   D2A22974  17.712   7.952   3.926 -0.1886  0.2315  0.2240
    1DIPC   D3A22975  17.795   7.719   4.245  0.1648 -0.3764  0.2515
    1DIPC   C4A22976  18.003   7.331   4.209  0.0868  0.0860  0.1855
    1DIPC   C1B22977  18.491   7.301   4.338 -0.1417 -0.3538 -0.1246
    1DIPC   D2B22978  18.544   7.311   4.858  0.0816  0.0346  0.1871
    1DIPC   D3B22979  18.423   7.738   4.584 -0.0215  0.1150 -0.1864
    1DIPC   C4B22980  18.366   8.268   4.859 -0.1124 -0.1216 -0.1515
    1DIPC   NC322981  14.785   7.020   3.112  0.1372  0.2475  0.2136
    1DIPC   PO422982  14.405   6.831   3.087  0.2002 -0.1963 -0.0452
    1DIPC   GL122983  14.541   6.753   3.465 -0.1703 -0.0668 -0.0554
    1DIPC   GL222984  14.220   6.745   3.629  0.0858  0.0995  0.1027
    1DIPC   C1A22985  14.591   6.783   3.964  0.3774  0.0412  0.0177
    1DIPC   D2A22986  14.614   7.050   4.280 -0.1757  0.3657  0.0312
    1DIPC   D3A22987  14.289   7.344   4.318 -0.1579 -0.2007  0.2458
    1DIPC   C4A22988  14.311   7.764   3.958 -0.0029 -0.0744  0.3759
    1DIPC   C1B22989  14.150   6.941   4.053  0.2077 -0.2109 -0.1767
    1DIPC   D2B22990  14.200   6.840   4.477 -0.0478 -0.1875  0.0533
    1DIPC   D3B22991  14.409   7.113   4.778  0.1655  0.4196  0.0002
    1DIPC   C4B22992  14.404   7.606   4.763 -0.0951 -0.0042 -0.1329
    1DIPC   NC322993  26.461  28.328   3.019 -0.1003 -0.1490 -0.1916
    1DIPC   PO422994  26.508  28.638   3.295 -0.4292 -0.0009 -0.2911
    1DIPC   GL122995  26.577  28.521   3.718 -0.2042  0.0745 -0.4221
    1DIPC   GL222996  26.690  28.853   3.771 -0.2301 -0.3823 -0.3605
    1DIPC   C1A22997  26.680  28.312   4.121  0.2009  0.0402 -0.2466
    1DIPC   D2A22998  26.652  28.152   4.534  0.1184  0.1965 -0.1593
    1DIPC   D3A22999  26.734  27.707   4.760 -0.3213 -0.1237  0.3049
    1DIPC   C4A23000  26.480  27.657   5.213  0.1119 -0.0561  0.0121
    1DIPC   C1B23001  26.594  28.965   4.212  0.2376 -0.4050  0.0308
    1DIPC   D2B23002  26.556  29.200   4.582  0.1836  0.4555  0.1054
    1DIPC   D3B23003  26.945  29.331   4.788  0.2837 -0.0199 -0.1259
    1DIPC   C4B23004  27.086  29.796   4.968 -0.0907 -0.1024  0.2391
    1DIPC   NC323005  22.674  22.788   2.415  0.0862 -0.1814  0.2486
    1DIPC   PO423006  23.016  23.038   2.436  0.2516 -0.3746 -0.1222
    1DIPC   GL123007  23.043  22.941   2.836  0.0486  0.1541  0.0677
    1DIPC   GL223008  23.379  22.855   2.821  0.0563 -0.0373  0.0356
    1DIPC   C1A23009  23.034  23.005   3.185  0.1156  0.3395  0.0973
    1DIPC   D2A23010  22.990  23.011   3.616  0.0931 -0.2542 -0.0188
    1DIPC   D3A23011  22.602  23.201   3.482  0.1777  0.1763  0.0905
    1DIPC   C4A23012  22.372  23.567   3.761  0.1772 -0.1509 -0.1938
    1DIPC   C1B23013  23.094  22.481   3.020 -0.2628 -0.1207  0.1376
    1DIPC   D2B23014  22.730  22.226   3.153  0.1773  0.0675  0.1303
    1DIPC   D3B23015  22.615  22.648   2.890  0.1882 -0.0844  0.0586
    1DIPC   C4B23016  22.347  22.916   3.147  0.0650 -0.2623 -0.1893
    1DIPC   NC323017   5.323   0.307   2.309  0.2756  0.0243 -0.0130
    1DIPC   PO423018   5.632   0.092   2.507  0.1931  0.1116 -0.0426
    1DIPC   GL123019   5.500  -0.071   3.027 -0.0737 -0.1499 -0.0497
    1DIPC   GL223020   5.575   0.191   3.229 -0.0049  0.1774  0.1185
    1DIPC   C1A23021   5.650  -0.367   3.361 -0.1427 -0.1564 -0.0885
    1DIPC   D2A23022   5.681  -0.830   3.455 -0.0213  0.0053 -0.0237
    1DIPC   D3A23023   5.310  -0.963   3.423 -0.1250 -0.1382 -0.2418
    1DIPC   C4A23024   5.057  -1.300   3.474 -0.1806  0.0982 -0.3278
    1DIPC   C1B23025   5.317   0.048   3.554 -0.0632 -0.0221 -0.1028
    1DIPC   D2B23026   5.149  -0.007   4.008  0.0158 -0.1089  0.1402
    1DIPC   D3B23027   4.927   0.286   4.235 -0.1958  0.1662 -0.1312
    1DIPC   C4B23028   4.704   0.701   4.177 -0.1788 -0.1490 -0.0919
    1DIPC   NC323029  17.027  12.958   2.657 -0.0122  0.2092  0.1659
    1DIPC   PO423030  16.797  12.878   2.979  0.2532 -0.1431  0.0591
    1DIPC   GL123031  16.983  12.694   3.226 -0.2024 -0.0735  0.1729
    1DIPC   GL223032  16.758  12.395   3.287  0.0769 -0.2456 -0.2669
    1DIPC   C1A23033  17.096  12.437   3.637 -0.2125 -0.1426  0.1174
    1DIPC   D2A23034  17.293  12.306   3.987  0.0627 -0.1693  0.1046
    1DIPC   D3A23035  16.834  12.347   4.263  0.1642  0.0382 -0.1449
    1DIPC   C4A23036  16.909  12.347   4.645 -0.2465  0.1898 -0.0268
    1DIPC   C1B23037  16.858  12.051   3.452  0.0441 -0.3119 -0.0049
    1DIPC   D2B23038  16.937  11.963   3.885 -0.1453 -0.1448 -0.0973
    1DIPC   D3B23039  17.023  11.526   4.101 -0.1603  0.1713  0.0756
    1DIPC   C4B23040  17.503  11.273   4.198 -0.0096  0.1503  0.0359
    1DIPC   NC323041   3.828   6.508   3.094  0.1945  0.0743  0.0031
    1DIPC   PO423042   3.889   6.912   2.930  0.1838 -0.1753 -0.0319
    1DIPC   GL123043   3.935   6.944   3.425 -0.0004  0.1036  0.3165
    1DIPC   GL223044   3.699   7.028   3.581 -0.1009 -0.2270  0.1266
    1DIPC   C1A23045   4.035   6.691   3.780 -0.1256  0.2449 -0.2765
    1DIPC   D2A23046   3.957   6.499   4.259 -0.3145 -0.0638  0.0290
    1DIPC   D3A23047   3.579   6.627   4.403 -0.1500  0.6470 -0.1878
    1DIPC   C4A23048   3.501   7.011   4.247 -0.0534 -0.1776 -0.2351
    1DIPC   C1B23049   3.924   7.144   3.923  0.1075  0.1097  0.1150
    1DIPC   D2B23050   3.884   7.399   4.297 -0.1942 -0.1367 -0.0009
    1DIPC   D3B23051   4.099   7.842   4.299 -0.0024 -0.1733 -0.0876
    1DIPC   C4B23052   4.273   8.147   4.494 -0.2526 -0.0724 -0.0777
    1DIPC   NC323053  20.940  27.580   3.660  0.1007  0.0601  0.0145
    1DIPC   PO423054  21.336  27.591   3.650  0.3695 -0.4735 -0.1737
    1DIPC   GL123055  21.302  27.790   3.971  0.0343  0.0193 -0.1431
    1DIPC   GL223056  21.625  27.681   4.252 -0.3360 -0.1363  0.0696
    1DIPC   C1A23057  21.064  27.648   4.356 -0.0698 -0.0760 -0.3340
    1DIPC   D2A23058  21.194  27.626   4.707 -0.0445 -0.0483 -0.0564
    1DIPC   D3A23059  20.919  27.947   4.884 -0.1085 -0.0275  0.0914
    1DIPC   C4A23060  20.922  28.382   4.985 -0.0847 -0.1672 -0.1956
    1DIPC   C1B23061  21.700  27.459   4.644  0.1875 -0.2717  0.1968
    1DIPC   D2B23062  21.792  27.233   5.049  0.3889  0.0642  0.2397
    1DIPC   D3B23063  21.477  27.413   5.100  0.1742 -0.0415  0.2838
    1DIPC   C4B23064  21.258  27.867   5.295  0.2239  0.0338 -0.1870
    1DIPC   NC323065  14.563  10.510   3.218 -0.3055 -0.0330 -0.0425
    1DIPC   PO423066  15.025  10.635   3.253 -0.0585  0.0106 -0.0755
    1DIPC   GL123067  14.832  10.662   3.687  0.1351 -0.0039 -0.0385
    1DIPC   GL223068  14.473  10.502   3.733 -0.0413 -0.1464 -0.0217
    1DIPC   C1A23069  14.841  10.615   4.047 -0.0130  0.1479  0.1821
    1DIPC   D2A23070  15.061  10.324   4.345 -0.1894  0.0137  0.1238
    1DIPC   D3A23071  14.915   9.926   4.461  0.0799 -0.0304  0.0332
    1DIPC   C4A23072  14.612   9.994   4.762  0.2251 -0.1097  0.2908
    1DIPC   C1B23073  14.308  10.450   4.164  0.1014 -0.1307 -0.0503
    1DIPC   D2B23074  14.059  10.736   4.438 -0.0742  0.0947  0.2378
    1DIPC   D3B23075  14.370  10.884   4.785 -0.1607  0.1898 -0.2790
    1DIPC   C4B23076  14.795  10.724   4.909  0.4243 -0.1907 -0.1084
    1DIPC   NC323077  12.141  17.574   2.617 -0.0205  0.0462 -0.3072
    1DIPC   PO423078  12.279  17.254   2.702 -0.0413  0.1650  0.1394
    1DIPC   GL123079  11.896  17.205   3.074  0.0244  0.1378  0.0140
    1DIPC   GL223080  11.533  17.204   2.949  0.0620 -0.3681 -0.2092
    1DIPC   C1A23081  11.905  17.198   3.433 -0.0991 -0.0927 -0.0507
    1DIPC   D2A23082  11.837  17.143   3.847  0.1178 -0.0578 -0.2131
    1DIPC   D3A23083  11.968  17.069   4.374 -0.0582  0.1362 -0.2477
    1DIPC   C4A23084  11.757  16.841   4.694  0.0856 -0.2174 -0.1829
    1DIPC   C1B23085  11.436  17.413   3.347  0.3816 -0.1709 -0.1211
    1DIPC   D2B23086  11.316  17.800   3.642  0.2179  0.2367  0.0493
    1DIPC   D3B23087  11.467  17.543   3.905  0.0119  0.1123  0.0375
    1DIPC   C4B23088  11.911  17.547   4.213 -0.0154  0.2066 -0.1957
    1DIPC   NC323089   0.542  19.028   1.902 -0.0270 -0.0441 -0.0530
    1DIPC   PO423090   0.320  19.259   2.183  0.1933 -0.0675  0.0224
    1DIPC   GL123091   0.243  18.996   2.530 -0.1842  0.1261  0.3109
    1DIPC   GL223092   0.374  18.771   2.527 -0.1958  0.3684 -0.2721
    1DIPC   C1A23093   0.105  18.716   2.951  0.1963 -0.1268 -0.0470
    1DIPC   D2A23094   0.063  18.641   3.373 -0.0591  0.0210  0.0419
    1DIPC   D3A23095   0.356  19.027   3.489  0.2007 -0.0059 -0.5081
    1DIPC   C4A23096   0.745  18.987   3.849  0.1876  0.5254 -0.0419
    1DIPC   C1B23097   0.794  18.598   2.692 -0.1730 -0.0646 -0.0231
    1DIPC   D2B23098   0.881  18.143   2.739  0.1733  0.2182  0.1921
    1DIPC   D3B23099   0.775  18.161   3.160 -0.0689  0.1151  0.2657
    1DIPC   C4B23100   0.991  18.033   3.495  0.0404  0.0371  0.2787
    1DIPC   NC323101  10.137  27.567   3.676 -0.6403 -0.0817 -0.1754
    1DIPC   PO423102  10.058  28.016   3.633 -0.1510  0.2276 -0.1420
    1DIPC   GL123103  10.117  28.013   4.098  0.0085 -0.0390 -0.3127
    1DIPC   GL223104  10.433  28.149   4.052 -0.0286 -0.2107 -0.2303
    1DIPC   C1A23105  10.153  28.224   4.536 -0.2504  0.1247  0.0131
    1DIPC   D2A23106  10.025  28.435   4.881 -0.1299  0.1150 -0.2310
    1DIPC   D3A23107  10.337  28.250   5.108  0.3303  0.2436 -0.1852
    1DIPC   C4A23108  10.729  28.354   5.026 -0.0936 -0.0030 -0.2228
    1DIPC   C1B23109  10.529  27.871   4.413 -0.0646  0.0588  0.0076
    1DIPC   D2B23110  10.570  27.885   4.881  0.2774 -0.1596 -0.2110
    1DIPC   D3B23111  10.499  27.547   4.840  0.1534  0.2440 -0.1214
    1DIPC   C4B23112  10.703  27.397   4.538 -0.0838  0.0926  0.1890
    1DIPC   NC323113  14.257   1.898   2.595 -0.0997 -0.0787  0.0914
    1DIPC   PO423114  14.109   2.344   2.785  0.2672  0.2540  0.1883
    1DIPC   GL123115  14.301   2.445   3.179 -0.1528 -0.1380 -0.0337
    1DIPC   GL223116  14.504   2.722   3.232  0.1028 -0.0697  0.0155
    1DIPC   C1A23117  14.409   2.407   3.597  0.0440 -0.0058  0.0750
    1DIPC   D2A23118  14.589   2.448   4.009 -0.0014 -0.1442 -0.1305
    1DIPC   D3A23119  14.262   2.563   4.410 -0.0809  0.0140 -0.0322
    1DIPC   C4A23120  14.380   2.791   4.827 -0.0842  0.1521  0.3515
    1DIPC   C1B23121  14.571   2.903   3.559  0.1061 -0.1973  0.0835
    1DIPC   D2B23122  14.540   3.316   3.664  0.0744  0.0555 -0.1143
    1DIPC   D3B23123  14.561   3.688   3.757 -0.0649  0.0569 -0.2238
    1DIPC   C4B23124  14.320   3.723   4.221  0.0483  0.0323 -0.2090
    1DIPC   NC323125  23.239   4.248   3.091 -0.2879  0.1831  0.3032
    1DIPC   PO423126  23.198   3.854   3.315 -0.1996 -0.1143  0.1536
    1DIPC   GL123127  23.166   3.817   3.727 -0.0915  0.0517 -0.3922
    1DIPC   GL223128  23.079   3.582   3.901 -0.0284 -0.2678  0.0237
    1DIPC   C1A23129  23.366   3.993   4.115  0.1645 -0.1698  0.2351
    1DIPC   D2A23130  23.154   4.339   4.297 -0.0642  0.1378  0.2855
    1DIPC   D3A23131  23.408   4.001   4.594 -0.1289  0.0441  0.0976
    1DIPC   C4A23132  23.739   4.193   4.882  0.0110 -0.0820 -0.0201
    1DIPC   C1B23133  23.010   3.684   4.392 -0.0550  0.1215 -0.0029
    1DIPC   D2B23134  22.860   3.911   4.725 -0.0353  0.1131 -0.0228
    1DIPC   D3B23135  23.141   3.581   4.837  0.0907  0.0870  0.0380
    1DIPC   C4B23136  23.211   3.258   5.157  0.2065  0.0762  0.0279
    1DIPC   NC323137  20.794   0.458   3.810 -0.3759 -0.1285  0.2322
    1DIPC   PO423138  20.447   0.445   3.675 -0.0624  0.2306  0.2715
    1DIPC   GL123139  20.423   0.203   4.028  0.0156 -0.1926  0.1296
    1DIPC   GL223140  20.251   0.488   4.202  0.2598 -0.2490  0.2386
    1DIPC   C1A23141  20.408   0.173   4.522 -0.0163 -0.0555 -0.3026
    1DIPC   D2A23142  20.112   0.184   4.834 -0.1090 -0.2790 -0.2899
    1DIPC   D3A23143  19.933   0.454   4.947 -0.1275 -0.5227  0.1314
    1DIPC   C4A23144  19.744   0.628   5.367 -0.3215  0.0066 -0.2731
    1DIPC   C1B23145  20.158   0.680   4.570 -0.1693  0.0014 -0.2260
    1DIPC   D2B23146  20.478   0.954   4.751 -0.0465 -0.2351 -0.0073
    1DIPC   D3B23147  20.592   1.160   5.160 -0.0376 -0.1798  0.2600
    1DIPC   C4B23148  20.248   1.359   5.431  0.1933 -0.0845 -0.1386
    1DIPC   NC323149  16.146  13.470   2.454 -0.1327  0.0735 -0.1369
    1DIPC   PO423150  16.066  13.892   2.362  0.2512 -0.1321  0.1744
    1DIPC   GL123151  15.892  13.782   2.794  0.0328 -0.3373 -0.0969
    1DIPC   GL223152  15.898  14.019   3.002 -0.1514 -0.1526  0.0499
    1DIPC   C1A23153  15.641  13.513   3.046  0.0938 -0.0064 -0.1521
    1DIPC   D2A23154  15.548  13.312   3.381 -0.1336  0.0388  0.1026
    1DIPC   D3A23155  15.111  13.213   3.191 -0.1234  0.2371  0.1499
    1DIPC   C4A23156  14.879  12.992   3.503  0.2615  0.2487  0.4786
    1DIPC   C1B23157  15.970  14.129   3.373  0.0169  0.0478 -0.2879
    1DIPC   D2B23158  15.956  14.148   3.803  0.1416 -0.3317 -0.2838
    1DIPC   D3B23159  15.809  14.510   3.724 -0.2214  0.0623  0.0687
    1DIPC   C4B23160  15.994  14.872   3.921  0.1356  0.3477  0.0512
    1DIPC   NC323161  16.806   3.961   2.974 -0.3838 -0.0380  0.1729
    1DIPC   PO423162  16.411   3.810   2.813 -0.3385  0.2611 -0.1581
    1DIPC   GL123163  16.306   3.630   3.213  0.0380  0.0355  0.0566
    1DIPC   GL223164  16.584   3.639   3.325 -0.2488 -0.1830 -0.1910
    1DIPC   C1A23165  16.392   3.272   3.720  0.0223 -0.1810  0.3261
    1DIPC   D2A23166  16.301   3.355   4.133 -0.3519 -0.2669  0.3949
    1DIPC   D3A23167  16.193   2.920   4.138 -0.1201  0.1061 -0.1913
    1DIPC   C4A23168  16.102   2.904   3.775 -0.0308 -0.0708 -0.0224
    1DIPC   C1B23169  16.308   3.863   3.693  0.0180 -0.1473 -0.2431
    1DIPC   D2B23170  16.182   3.965   4.107  0.2251  0.0331 -0.1200
    1DIPC   D3B23171  16.171   4.090   4.550 -0.1057  0.2579  0.2575
    1DIPC   C4B23172  16.003   4.396   4.689 -0.2140 -0.3573 -0.0563
    1DIPC   NC323173  12.922   2.776   3.232  0.1399  0.3045  0.1956
    1DIPC   PO423174  12.580   2.950   3.460  0.3815  0.0675  0.1016
    1DIPC   GL123175  12.614   3.125   3.855  0.0868  0.1263 -0.2162
    1DIPC   GL223176  12.429   3.354   3.931 -0.0321  0.0501  0.0515
    1DIPC   C1A23177  12.697   3.237   4.320  0.1624 -0.1692  0.3194
    1DIPC   D2A23178  12.949   3.231   4.678  0.1396 -0.3879 -0.2925
    1DIPC   D3A23179  13.218   3.252   5.008 -0.2710  0.1415  0.1852
    1DIPC   C4A23180  13.353   2.779   4.971  0.1742 -0.3529  0.3525
    1DIPC   C1B23181  12.176   3.289   4.269 -0.4054  0.0769 -0.0625
    1DIPC   D2B23182  11.789   3.468   4.362  0.1738 -0.2075 -0.0117
    1DIPC   D3B23183  11.789   3.035   4.183 -0.0143  0.1842  0.2569
    1DIPC   C4B23184  11.613   2.704   4.401  0.0753 -0.1608 -0.0658
    1DIPC   NC323185  14.512   3.859   3.285 -0.1899  0.1268  0.2078
    1DIPC   PO423186  14.898   4.079   3.490  0.0345 -0.0947 -0.0015
    1DIPC   GL123187  15.276   4.057   3.903 -0.0787 -0.1973  0.0104
    1DIPC   GL223188  15.068   4.357   4.053 -0.0050  0.0968  0.1341
    1DIPC   C1A23189  15.284   3.873   4.286  0.1266 -0.1762 -0.3237
    1DIPC   D2A23190  15.134   3.432   4.360 -0.1770 -0.4033  0.0540
    1DIPC   D3A23191  15.419   3.211   4.559 -0.2513 -0.2374 -0.1078
    1DIPC   C4A23192  15.821   3.217   4.700 -0.2818  0.1440  0.1694
    1DIPC   C1B23193  14.801   4.004   4.173 -0.1281 -0.2443  0.0244
    1DIPC   D2B23194  14.701   3.717   4.499 -0.1015  0.3895  0.1031
    1DIPC   D3B23195  15.032   3.589   4.803  0.0121  0.2248 -0.1779
    1DIPC   C4B23196  15.555   3.577   4.951 -0.1056 -0.1893 -0.0660
    1DIPC   NC323197  27.691   3.652   2.702 -0.0819 -0.1812 -0.0646
    1DIPC   PO423198  28.036   3.610   2.892  0.2673 -0.1229  0.1095
    1DIPC   GL123199  28.012   3.655   3.369 -0.1510  0.4657 -0.0349
    1DIPC   GL223200  28.260   3.581   3.504 -0.3128  0.2208 -0.2891
    1DIPC   C1A23201  27.963   3.755   3.884 -0.2716  0.4063  0.2209
    1DIPC   D2A23202  28.136   3.477   4.118 -0.2271  0.1294  0.0416
    1DIPC   D3A23203  28.533   3.630   3.971 -0.2080  0.0165  0.0256
    1DIPC   C4A23204  28.851   3.446   4.250 -0.1800 -0.0290 -0.0718
    1DIPC   C1B23205  28.439   3.250   3.710  0.2283 -0.1360 -0.1433
    1DIPC   D2B23206  28.345   3.023   4.117  0.0914  0.3609 -0.1191
    1DIPC   D3B23207  28.379   3.198   4.473 -0.0064 -0.0243 -0.0638
    1DIPC   C4B23208  27.933   3.437   4.594 -0.0935  0.2543  0.0458
    1DIPC   NC323209   4.334  26.324   3.493  0.2863  0.2047  0.1391
    1DIPC   PO423210   4.334  25.854   3.297  0.1523 -0.1547  0.0056
    1DIPC   GL123211   4.442  25.885   3.699  0.0513  0.1217 -0.2564
    1DIPC   GL223212   4.874  25.869   3.701 -0.0384  0.0605  0.2265
    1DIPC   C1A23213   4.518  25.678   4.091  0.0097  0.0978  0.1739
    1DIPC   D2A23214   4.538  25.247   4.378 -0.0419 -0.0668 -0.0315
    1DIPC   D3A23215   4.434  24.800   4.417  0.0934 -0.2338  0.3485
    1DIPC   C4A23216   4.594  24.570   4.857 -0.2548  0.1521 -0.0118
    1DIPC   C1B23217   5.011  25.713   4.084  0.2749 -0.0266 -0.1262
    1DIPC   D2B23218   4.914  25.627   4.512 -0.1020  0.1033 -0.0408
    1DIPC   D3B23219   4.843  25.664   4.995 -0.2479  0.1555 -0.2205
    1DIPC   C4B23220   5.258  25.767   5.277 -0.0489  0.1733  0.1192
    1DIPC   NC323221  12.315   0.558   3.004  0.1228  0.1635 -0.0428
    1DIPC   PO423222  12.485   0.693   3.428 -0.1116  0.1954  0.2254
    1DIPC   GL123223  12.725   0.797   3.779  0.0359 -0.1646  0.1908
    1DIPC   GL223224  12.647   0.584   4.008  0.1184 -0.0731 -0.3214
    1DIPC   C1A23225  13.017   0.934   4.155 -0.0694  0.0793 -0.0535
    1DIPC   D2A23226  13.192   0.687   4.417 -0.0626  0.2434  0.0461
    1DIPC   D3A23227  13.067   0.981   4.654 -0.1317 -0.0448  0.2076
    1DIPC   C4A23228  13.042   0.962   5.059 -0.2992  0.2464  0.0685
    1DIPC   C1B23229  12.557   0.832   4.394  0.3271 -0.2114 -0.2115
    1DIPC   D2B23230  12.603   0.938   4.839  0.2166  0.1469 -0.1963
    1DIPC   D3B23231  12.809   0.508   4.739  0.3517 -0.0007 -0.2514
    1DIPC   C4B23232  12.552   0.252   4.544 -0.2304 -0.0768 -0.0378
    1DIPC   NC323233  17.462  29.749   3.402  0.2803 -0.4367  0.0275
    1DIPC   PO423234  17.798  29.827   3.505 -0.0593 -0.0081  0.2166
    1DIPC   GL123235  17.638  29.642   3.855  0.1726  0.0295  0.2845
    1DIPC   GL223236  17.833  29.796   4.102  0.1284 -0.0162 -0.0278
    1DIPC   C1A23237  17.387  29.743   4.246 -0.2668 -0.2107  0.4073
    1DIPC   D2A23238  17.476  29.643   4.686 -0.0968  0.1027 -0.1165
    1DIPC   D3A23239  17.444  29.154   4.606 -0.0017  0.0051 -0.0978
    1DIPC   C4A23240  17.055  29.157   4.758 -0.0293  0.0896 -0.0093
    1DIPC   C1B23241  17.864  29.909   4.489  0.1045 -0.2101 -0.0595
    1DIPC   D2B23242  17.973  29.813   4.862 -0.0167 -0.1643 -0.0270
    1DIPC   D3B23243  17.957  29.440   4.829 -0.1714 -0.0395  0.2355
    1DIPC   C4B23244  17.792  29.408   4.440 -0.2584 -0.3560 -0.2300
    1DIPC   NC323245   0.406   5.015   3.155  0.1843  0.0820 -0.3493
    1DIPC   PO423246   0.606   5.369   3.176 -0.0266 -0.0371  0.3251
    1DIPC   GL123247   0.445   5.278   3.616  0.1153 -0.1624 -0.3241
    1DIPC   GL223248   0.188   5.008   3.606 -0.0173  0.1590 -0.0958
    1DIPC   C1A23249   0.447   5.027   3.984 -0.2082  0.0326 -0.2396
    1DIPC   D2A23250   0.674   4.850   4.360  0.1407  0.2031  0.1125
    1DIPC   D3A23251   0.391   4.923   4.786  0.0127  0.2714  0.1584
    1DIPC   C4A23252   0.235   5.439   4.885  0.0628  0.1547 -0.4101
    1DIPC   C1B23253  -0.167   5.028   3.893 -0.1452  0.1305 -0.1141
    1DIPC   D2B23254  -0.522   5.174   4.238 -0.0132 -0.1897  0.2684
    1DIPC   D3B23255  -0.289   5.302   4.447  0.0068 -0.2053  0.1778
    1DIPC   C4B23256   0.077   5.196   4.325  0.1710 -0.0343  0.0240
    1DIPC   NC323257   2.426  26.581   3.418  0.0026 -0.1447 -0.2267
    1DIPC   PO423258   2.138  26.251   3.635 -0.2324 -0.5627  0.2023
    1DIPC   GL123259   1.921  26.018   3.974 -0.2841  0.3322 -0.1696
    1DIPC   GL223260   2.027  25.759   4.143 -0.2299  0.0044 -0.0950
    1DIPC   C1A23261   1.514  25.834   4.162 -0.0789 -0.0779  0.0725
    1DIPC   D2A23262   1.225  25.643   4.404 -0.2010  0.0943  0.0032
    1DIPC   D3A23263   1.155  25.960   4.709 -0.0741 -0.0544  0.1069
    1DIPC   C4A23264   0.762  26.019   4.879 -0.0396 -0.3102  0.2000
    1DIPC   C1B23265   1.769  25.739   4.607  0.1313  0.1380 -0.0805
    1DIPC   D2B23266   1.716  25.501   4.974 -0.0165 -0.0865  0.1752
    1DIPC   D3B23267   1.394  25.758   5.178  0.1339 -0.6557  0.1993
    1DIPC   C4B23268   1.222  26.191   5.174  0.2656  0.2755  0.0284
    1DIPC   NC323269  26.075  10.436   1.700  0.0685 -0.2446  0.4198
    1DIPC   PO423270  25.970  10.497   2.130 -0.1724 -0.0980  0.1538
    1DIPC   GL123271  25.715  10.598   2.519 -0.0796 -0.0330  0.0064
    1DIPC   GL223272  25.631  10.292   2.763 -0.0498  0.0747  0.1470
    1DIPC   C1A23273  25.520  10.822   2.910  0.2985 -0.1033 -0.0376
    1DIPC   D2A23274  25.214  10.547   3.267  0.1195  0.3469 -0.1838
    1DIPC   D3A23275  24.788  10.675   3.451  0.2558  0.2544 -0.0882
    1DIPC   C4A23276  24.597  10.487   3.698  0.1220 -0.0238 -0.1007
    1DIPC   C1B23277  26.020  10.634   2.936  0.0053 -0.0773 -0.3723
    1DIPC   D2B23278  25.923  11.005   3.069  0.0810 -0.3988 -0.2258
    1DIPC   D3B23279  25.736  10.677   3.341  0.1146  0.2761 -0.0182
    1DIPC   C4B23280  25.560  10.721   3.801  0.2406 -0.0628 -0.2648
    1DIPC   NC323281  21.147  22.346   2.410  0.0039  0.1267 -0.2336
    1DIPC   PO423282  20.732  22.333   2.714 -0.0586 -0.2145  0.3444
    1DIPC   GL123283  21.022  22.528   2.950  0.0314 -0.1076  0.1787
    1DIPC   GL223284  21.241  22.764   2.884 -0.0886 -0.1044 -0.0673
    1DIPC   C1A23285  20.890  22.719   3.358  0.1397 -0.0444 -0.0263
    1DIPC   D2A23286  20.555  22.868   3.639  0.0749  0.1689 -0.3199
    1DIPC   D3A23287  20.640  22.590   3.858 -0.3547 -0.0457  0.2213
    1DIPC   C4A23288  21.065  22.604   3.883 -0.1376  0.0396 -0.0332
    1DIPC   C1B23289  21.471  22.742   3.359 -0.1715  0.0894  0.1921
    1DIPC   D2B23290  21.536  22.781   3.773 -0.1684  0.0720  0.0828
    1DIPC   D3B23291  21.440  22.659   4.175 -0.0390  0.0519 -0.4035
    1DIPC   C4B23292  21.701  22.539   4.552 -0.0213 -0.2052  0.0739
    1DIPC   NC323293  11.514  15.335   2.358 -0.0313  0.1125  0.1191
    1DIPC   PO423294  11.404  14.843   2.277  0.1464 -0.0261 -0.0503
    1DIPC   GL123295  11.329  14.840   2.742 -0.1108  0.0796  0.0523
    1DIPC   GL223296  10.960  14.878   2.937  0.1852 -0.1820 -0.2051
    1DIPC   C1A23297  11.398  15.055   3.185 -0.0573 -0.0758 -0.0188
    1DIPC   D2A23298  11.678  15.130   3.530 -0.1982 -0.3023  0.1040
    1DIPC   D3A23299  11.396  15.455   3.781 -0.2397 -0.0506 -0.3710
    1DIPC   C4A23300  10.970  15.507   3.787 -0.0158  0.3350 -0.1305
    1DIPC   C1B23301  10.615  14.847   3.297 -0.0159  0.1881  0.2210
    1DIPC   D2B23302  10.534  14.871   3.800 -0.0520 -0.0720 -0.1164
    1DIPC   D3B23303  10.328  14.526   3.695  0.1902  0.3054  0.1227
    1DIPC   C4B23304  10.341  14.422   3.215  0.2103 -0.2540 -0.0110
    1DIPC   NC323305  14.199  14.537   3.399 -0.1492  0.1006  0.1500
    1DIPC   PO423306  14.427  14.812   3.206  0.2169 -0.2105 -0.1551
    1DIPC   GL123307  14.357  14.926   3.648 -0.0199 -0.1125 -0.0061
    1DIPC   GL223308  14.647  15.076   3.691 -0.0083 -0.0932  0.0058
    1DIPC   C1A23309  14.498  14.671   4.054 -0.2123  0.3593  0.0197
    1DIPC   D2A23310  14.354  14.835   4.455  0.2697 -0.3936  0.0811
    1DIPC   D3A23311  14.649  14.787   4.776  0.3892  0.0704  0.0422
    1DIPC   C4A23312  14.994  15.081   4.729 -0.0594 -0.0343  0.2876
    1DIPC   C1B23313  14.434  15.380   3.782 -0.0640 -0.2983  0.1003
    1DIPC   D2B23314  14.200  15.759   3.926 -0.0595 -0.0917 -0.0019
    1DIPC   D3B23315  14.218  15.719   4.317  0.0879  0.0299  0.0256
    1DIPC   C4B23316  14.274  15.356   4.265  0.0277 -0.0138 -0.4244
    1DIPC   NC323317  29.254  28.140   2.768 -0.0524 -0.2927 -0.0024
    1DIPC   PO423318  29.082  27.853   2.922  0.1280  0.0026  0.3692
    1DIPC   GL123319  29.192  27.889   3.401  0.3753 -0.0601 -0.2627
    1DIPC   GL223320  29.250  28.015   3.564  0.0341  0.1974 -0.1710
    1DIPC   C1A23321  28.869  28.140   3.796 -0.0328  0.2017  0.2585
    1DIPC   D2A23322  28.480  28.118   4.005  0.0052  0.0143  0.3886
    1DIPC   D3A23323  28.313  28.653   3.982 -0.1169  0.5533  0.1038
    1DIPC   C4A23324  27.852  28.757   3.859  0.0494  0.0346  0.0137
    1DIPC   C1B23325  29.307  28.243   3.936  0.0460 -0.0896  0.0675
    1DIPC   D2B23326  29.602  28.361   4.292 -0.0899 -0.0099  0.2745
    1DIPC   D3B23327  29.537  28.548   4.675  0.1945  0.0270  0.1682
    1DIPC   C4B23328  29.397  28.357   5.110 -0.0610  0.2222 -0.0938
    1DIPC   NC323329  28.514  10.278   1.802  0.2316 -0.1588 -0.1599
    1DIPC   PO423330  28.504  10.268   2.334  0.1459  0.1888  0.1544
    1DIPC   GL123331  28.652  10.157   2.733 -0.1255  0.3485  0.0685
    1DIPC   GL223332  28.791  10.439   2.941 -0.3686  0.3096  0.0902
    1DIPC   C1A23333  28.876   9.892   2.951 -0.0495  0.0179  0.0515
    1DIPC   D2A23334  28.810   9.837   3.378 -0.1202  0.0394  0.1895
    1DIPC   D3A23335  28.721  10.348   3.528  0.0446  0.1890 -0.0012
    1DIPC   C4A23336  28.558  10.687   3.372 -0.2284  0.3909 -0.2276
    1DIPC   C1B23337  28.472  10.218   3.162  0.0081  0.0725  0.0890
    1DIPC   D2B23338  28.311  10.093   3.485  0.0809 -0.0058  0.3058
    1DIPC   D3B23339  27.937  10.337   3.543  0.0111  0.1648  0.2695
    1DIPC   C4B23340  28.135  10.415   3.950 -0.2255  0.0041  0.0117
    1DIPC   NC323341  10.935  28.309   3.789 -0.4236  0.1241 -0.1658
    1DIPC   PO423342  10.980  28.700   3.641  0.1280  0.2386  0.1652
    1DIPC   GL123343  11.191  28.678   4.034 -0.1016 -0.3264 -0.0626
    1DIPC   GL223344  11.335  29.064   4.135 -0.2887  0.1489  0.2487
    1DIPC   C1A23345  11.310  28.618   4.343  0.0273 -0.1648  0.0128
    1DIPC   D2A23346  11.100  28.297   4.712  0.0326  0.0545 -0.0684
    1DIPC   D3A23347  10.644  28.359   4.557  0.0924  0.3329 -0.1012
    1DIPC   C4A23348  10.411  28.640   4.653 -0.0728 -0.2202 -0.0530
    1DIPC   C1B23349  11.289  29.231   4.521  0.0255 -0.2286 -0.1772
    1DIPC   D2B23350  11.435  29.341   4.964  0.0316  0.0828  0.1689
    1DIPC   D3B23351  11.255  29.676   4.916 -0.0520  0.2445  0.0197
    1DIPC   C4B23352  10.987  29.802   4.654 -0.1829 -0.4364 -0.3309
    1DIPC   NC323353   4.450  13.288   2.642 -0.2076 -0.1388  0.1951
    1DIPC   PO423354   4.859  13.155   2.652 -0.1274 -0.0869 -0.0691
    1DIPC   GL123355   4.897  13.175   3.111  0.2063 -0.2533 -0.0674
    1DIPC   GL223356   4.806  12.889   3.177 -0.2553  0.2267  0.6766
    1DIPC   C1A23357   4.720  13.069   3.595 -0.1330  0.2090  0.1101
    1DIPC   D2A23358   4.537  13.045   3.923 -0.2451  0.1095  0.2468
    1DIPC   D3A23359   4.496  12.874   4.253  0.1356  0.0125  0.2673
    1DIPC   C4A23360   4.826  12.649   4.519 -0.0784  0.2194  0.3306
    1DIPC   C1B23361   5.028  12.689   3.575 -0.1246 -0.1885 -0.1791
    1DIPC   D2B23362   4.972  12.698   4.059  0.1480 -0.0063 -0.4559
    1DIPC   D3B23363   4.590  12.592   3.804  0.1216  0.1257  0.1372
    1DIPC   C4B23364   4.364  12.220   3.885  0.0128  0.0184 -0.1941
    1DIPC   NC323365  11.473  14.249   2.381 -0.2877 -0.0369 -0.2242
    1DIPC   PO423366  11.719  14.518   2.470 -0.3634 -0.0782 -0.2178
    1DIPC   GL123367  11.765  14.632   2.974  0.0160 -0.0493  0.1869
    1DIPC   GL223368  11.889  14.986   3.115  0.1996  0.0901 -0.2157
    1DIPC   C1A23369  11.729  14.321   3.306  0.1491 -0.4202 -0.2198
    1DIPC   D2A23370  11.771  14.399   3.726  0.1460 -0.2472  0.1091
    1DIPC   D3A23371  11.843  14.837   3.903  0.0754  0.2886  0.1973
    1DIPC   C4A23372  11.435  14.921   4.030 -0.0866 -0.1338  0.1408
    1DIPC   C1B23373  12.067  14.720   3.396 -0.2933 -0.1151 -0.1464
    1DIPC   D2B23374  12.338  14.789   3.740  0.0707 -0.2314  0.1995
    1DIPC   D3B23375  12.263  14.823   4.135 -0.1582 -0.0567 -0.0951
    1DIPC   C4B23376  11.989  14.902   4.488 -0.0829  0.4367  0.0588
    1DIPC   NC323377   5.663  28.536   3.166  0.2168  0.0835 -0.0152
    1DIPC   PO423378   6.097  28.651   3.026  0.3665 -0.0859  0.0180
    1DIPC   GL123379   6.144  28.438   3.413 -0.3457 -0.1185 -0.1343
    1DIPC   GL223380   5.925  28.481   3.659  0.0634 -0.0076 -0.5498
    1DIPC   C1A23381   6.384  28.109   3.604  0.0821  0.0433  0.1048
    1DIPC   D2A23382   6.781  27.928   3.694 -0.1016  0.2096 -0.0752
    1DIPC   D3A23383   6.963  28.287   3.757 -0.0389  0.2516  0.1152
    1DIPC   C4A23384   6.656  28.534   3.639 -0.0187  0.0593 -0.2770
    1DIPC   C1B23385   6.185  28.440   3.985 -0.0551  0.3225  0.1448
    1DIPC   D2B23386   6.056  28.242   4.429 -0.1198 -0.1479  0.0293
    1DIPC   D3B23387   6.321  27.959   4.654  0.0854  0.2686  0.1443
    1DIPC   C4B23388   6.341  27.748   5.045  0.6528 -0.3755  0.2068
    1DIPC   NC323389   8.665   1.189   3.306  0.0728  0.1312  0.2562
    1DIPC   PO423390   8.926   0.861   3.359 -0.0446  0.1541  0.3608
    1DIPC   GL123391   8.710   0.947   3.772  0.0514  0.0558 -0.0803
    1DIPC   GL223392   8.514   0.621   3.911 -0.0131 -0.2286 -0.1441
    1DIPC   C1A23393   8.745   1.326   3.952  0.3458  0.0768 -0.0308
    1DIPC   D2A23394   8.910   1.822   4.029  0.0648  0.4125 -0.1712
    1DIPC   D3A23395   9.166   1.463   4.244 -0.2506 -0.0068 -0.5474
    1DIPC   C4A23396   9.582   1.658   4.356  0.0539 -0.0147 -0.4488
    1DIPC   C1B23397   8.058   0.685   4.149  0.0067 -0.2591  0.1094
    1DIPC   D2B23398   7.750   0.432   4.390 -0.3943 -0.1512  0.2666
    1DIPC   D3B23399   7.561   0.498   4.820 -0.1058 -0.0892 -0.0786
    1DIPC   C4B23400   7.487   0.260   5.262  0.1459  0.0632  0.0239
    1DIPC   NC323401  23.614  25.071   2.604 -0.1905 -0.0231 -0.1503
    1DIPC   PO423402  23.818  25.277   2.953 -0.0209  0.0135 -0.1626
    1DIPC   GL123403  23.824  25.330   3.356  0.2293  0.0051  0.1858
    1DIPC   GL223404  23.957  25.105   3.419  0.1364  0.1528 -0.0768
    1DIPC   C1A23405  23.867  25.478   3.785 -0.1129 -0.0569  0.0205
    1DIPC   D2A23406  24.304  25.674   3.875 -0.1823 -0.0056  0.0519
    1DIPC   D3A23407  24.541  25.560   4.289  0.1743 -0.1819 -0.0192
    1DIPC   C4A23408  24.659  25.751   4.659 -0.1748  0.0077  0.0180
    1DIPC   C1B23409  24.274  25.272   3.634 -0.1447  0.0403  0.0774
    1DIPC   D2B23410  24.705  25.369   3.696 -0.2922  0.3070  0.1630
    1DIPC   D3B23411  24.733  25.094   3.994  0.0338 -0.2480 -0.0336
    1DIPC   C4B23412  24.267  25.167   4.128 -0.1658  0.3712 -0.0396
    1DIPC   NC323413   5.467  27.911   2.592 -0.1843 -0.1048 -0.0316
    1DIPC   PO423414   5.158  27.658   2.879 -0.0290 -0.0930  0.1155
    1DIPC   GL123415   5.128  27.692   3.326  0.2756  0.0278  0.3056
    1DIPC   GL223416   5.473  27.708   3.382 -0.0796 -0.0638 -0.0531
    1DIPC   C1A23417   5.088  27.746   3.721 -0.2920 -0.2390 -0.0833
    1DIPC   D2A23418   5.249  27.910   4.193 -0.0251  0.1155  0.0588
    1DIPC   D3A23419   5.592  28.061   4.192 -0.0159 -0.3178  0.1635
    1DIPC   C4A23420   5.909  28.004   3.852  0.0123 -0.0402 -0.1899
    1DIPC   C1B23421   5.396  28.104   3.560 -0.1971 -0.0384  0.0275
    1DIPC   D2B23422   5.036  28.224   3.937  0.0577 -0.1277  0.0047
    1DIPC   D3B23423   5.357  28.453   3.870 -0.1941 -0.3311 -0.1813
    1DIPC   C4B23424   5.611  28.559   4.090  0.1914 -0.2678 -0.0660
    1DIPC   NC323425  24.050   4.233   3.392 -0.0872 -0.1190  0.1123
    1DIPC   PO423426  24.111   3.773   3.370 -0.2028  0.0445  0.0558
    1DIPC   GL123427  24.301   3.943   3.772  0.2011  0.0402 -0.3095
    1DIPC   GL223428  24.223   4.320   3.915  0.1099 -0.2534 -0.3054
    1DIPC   C1A23429  24.056   3.841   4.104  0.0570  0.1534 -0.3494
    1DIPC   D2A23430  23.857   3.993   4.398  0.3616 -0.1544 -0.0491
    1DIPC   D3A23431  24.025   4.405   4.558  0.0307 -0.0482  0.3674
    1DIPC   C4A23432  23.947   4.899   4.657 -0.0466 -0.1642  0.1563
    1DIPC   C1B23433  23.844   4.413   4.025  0.1102  0.1503 -0.2316
    1DIPC   D2B23434  23.437   4.556   3.983 -0.7546  0.0868 -0.0435
    1DIPC   D3B23435  23.226   4.807   4.123 -0.0140 -0.1959  0.0624
    1DIPC   C4B23436  23.187   4.845   4.596 -0.1045 -0.0698  0.1162
    1DIPC   NC323437  16.553  24.277   3.024 -0.0985 -0.2175 -0.0094
    1DIPC   PO423438  16.894  24.555   3.136 -0.2211 -0.3549  0.3338
    1DIPC   GL123439  17.135  24.685   3.335 -0.0315 -0.0174 -0.0904
    1DIPC   GL223440  16.983  24.934   3.532  0.1381 -0.0860  0.1517
    1DIPC   C1A23441  17.495  24.644   3.596 -0.1204  0.2325  0.3786
    1DIPC   D2A23442  17.915  24.434   3.916 -0.0913 -0.1686 -0.0053
    1DIPC   D3A23443  17.651  24.091   3.768 -0.2882  0.0307  0.2029
    1DIPC   C4A23444  17.671  23.758   3.634  0.1485  0.0119  0.1818
    1DIPC   C1B23445  17.023  24.649   3.857 -0.0991  0.2387 -0.3350
    1DIPC   D2B23446  17.135  24.395   4.135 -0.1143  0.1133  0.0959
    1DIPC   D3B23447  17.299  24.052   4.326 -0.2170  0.2057  0.0234
    1DIPC   C4B23448  17.145  23.793   4.682 -0.0540 -0.1764 -0.0671
    1DIPC   NC323449   9.843   2.752   3.749  0.0007 -0.0983 -0.3892
    1DIPC   PO423450  10.237   2.889   3.728 -0.0452  0.4512  0.0304
    1DIPC   GL123451  10.075   2.846   4.211  0.4076  0.1444 -0.2576
    1DIPC   GL223452  10.026   3.095   4.405 -0.0539 -0.3018  0.3313
    1DIPC   C1A23453   9.814   2.549   4.515 -0.0650 -0.1575 -0.0593
    1DIPC   D2A23454   9.582   2.489   4.942  0.2108  0.1088  0.2716
    1DIPC   D3A23455   9.491   2.116   5.102  0.0051  0.0414 -0.1277
    1DIPC   C4A23456   9.297   2.013   5.568  0.2181  0.0537  0.0668
    1DIPC   C1B23457   9.957   2.972   4.867 -0.0002 -0.0275 -0.0139
    1DIPC   D2B23458  10.022   2.743   5.212 -0.3315 -0.0336  0.0746
    1DIPC   D3B23459  10.112   3.219   5.318  0.0007 -0.1235  0.0998
    1DIPC   C4B23460   9.771   3.311   5.537 -0.7833 -0.1041  0.0553
    1DIPC   NC323461  25.485   7.348   2.902  0.0041  0.1287 -0.3816
    1DIPC   PO423462  25.190   7.479   2.868  0.0793  0.0955 -0.0838
    1DIPC   GL123463  25.553   7.816   3.113  0.1219  0.1816  0.3448
    1DIPC   GL223464  25.259   7.937   3.158 -0.0425 -0.0441 -0.1126
    1DIPC   C1A23465  25.758   8.118   3.263 -0.0614 -0.0270  0.2483
    1DIPC   D2A23466  25.799   8.558   3.496  0.2829  0.0354  0.1081
    1DIPC   D3A23467  25.914   8.282   3.892 -0.0720  0.3028  0.1047
    1DIPC   C4A23468  26.213   8.282   4.213  0.0393  0.1025 -0.0772
    1DIPC   C1B23469  25.091   7.869   3.557  0.0174 -0.0077 -0.0126
    1DIPC   D2B23470  25.081   7.932   3.951  0.3890 -0.3136  0.0872
    1DIPC   D3B23471  25.232   8.329   4.210  0.1669  0.0654 -0.1411
    1DIPC   C4B23472  25.533   8.461   4.473  0.0216  0.0935 -0.1562
    1DIPC   NC323473  27.704  22.668   2.128 -0.0841 -0.0043 -0.4933
    1DIPC   PO423474  28.114  22.553   2.216  0.1464  0.2136 -0.0405
    1DIPC   GL123475  27.896  22.451   2.548  0.0700 -0.1509  0.2621
    1DIPC   GL223476  28.152  22.211   2.676  0.0450  0.0186  0.0417
    1DIPC   C1A23477  27.630  22.451   2.941 -0.0650 -0.0870 -0.1138
    1DIPC   D2A23478  27.435  22.812   3.040 -0.1286  0.1482  0.2187
    1DIPC   D3A23479  27.791  23.018   2.924  0.1426 -0.0551  0.1779
    1DIPC   C4A23480  27.882  23.431   3.069 -0.1111  0.1999  0.1004
    1DIPC   C1B23481  28.091  22.590   2.994  0.0228  0.2570  0.1796
    1DIPC   D2B23482  27.764  22.602   3.457 -0.1985  0.2322  0.1426
    1DIPC   D3B23483  27.375  22.337   3.330  0.3977  0.0269  0.1638
    1DIPC   C4B23484  27.507  21.981   3.059 -0.1778  0.2890 -0.1264
    1DIPC   NC323485  10.407  11.804   2.864 -0.1498  0.1208 -0.0438
    1DIPC   PO423486   9.931  11.681   2.729 -0.1700 -0.2258  0.0783
    1DIPC   GL123487  10.043  11.656   3.165  0.0124  0.0016  0.0724
    1DIPC   GL223488  10.004  11.839   3.406 -0.0573 -0.0820 -0.0017
    1DIPC   C1A23489  10.011  11.383   3.495  0.0467  0.1815 -0.2073
    1DIPC   D2A23490  10.041  11.248   3.954  0.2066 -0.3491 -0.2576
    1DIPC   D3A23491  10.090  11.234   4.356 -0.2302  0.0144  0.1479
    1DIPC   C4A23492   9.814  11.367   4.542  0.1191  0.0959  0.0531
    1DIPC   C1B23493  10.176  11.776   3.773  0.0458 -0.4675  0.0232
    1DIPC   D2B23494  10.117  11.665   4.194 -0.0678 -0.1633  0.1970
    1DIPC   D3B23495  10.196  11.720   4.559 -0.0257 -0.1774  0.1641
    1DIPC   C4B23496  10.580  11.514   4.580 -0.2270  0.1282 -0.2674
    1DIPC   NC323497  27.770  22.137   2.181 -0.0711  0.0236 -0.0323
    1DIPC   PO423498  27.751  21.700   2.100 -0.0869 -0.0095 -0.1401
    1DIPC   GL123499  27.654  21.577   2.472 -0.0923  0.1864 -0.2222
    1DIPC   GL223500  27.699  21.886   2.564  0.1138 -0.0023  0.1065
    1DIPC   C1A23501  27.555  21.475   2.919 -0.1576  0.0332  0.0646
    1DIPC   D2A23502  27.423  21.403   3.398  0.0087  0.1519  0.0214
    1DIPC   D3A23503  27.111  21.759   3.264  0.2373  0.3141  0.1684
    1DIPC   C4A23504  26.702  21.678   3.373  0.2398 -0.3689  0.0396
    1DIPC   C1B23505  27.915  21.822   2.902 -0.1529 -0.1657 -0.0478
    1DIPC   D2B23506  28.213  22.161   3.198  0.0359  0.2451  0.0611
    1DIPC   D3B23507  28.251  22.445   3.509 -0.1250  0.1714  0.3356
    1DIPC   C4B23508  28.594  22.415   3.830 -0.0187 -0.1655  0.2531
    1DIPC   NC323509  29.715   2.985   2.630 -0.1544  0.2300  0.1589
    1DIPC   PO423510  29.541   3.287   2.702 -0.3874  0.1358 -0.2072
    1DIPC   GL123511  29.579   3.232   3.121  0.1944 -0.1263  0.1253
    1DIPC   GL223512  29.580   3.481   3.366 -0.0516  0.2366  0.1163
    1DIPC   C1A23513  29.330   3.020   3.441 -0.0901 -0.2415  0.2947
    1DIPC   D2A23514  28.986   3.007   3.720 -0.4082 -0.1369  0.0902
    1DIPC   D3A23515  29.241   3.080   4.090 -0.3456  0.1737  0.3161
    1DIPC   C4A23516  29.176   3.162   4.529 -0.1670  0.2920  0.3921
    1DIPC   C1B23517  29.533   3.501   3.923  0.0246 -0.1400  0.1578
    1DIPC   D2B23518  29.388   3.561   4.301 -0.0645 -0.3610  0.0123
    1DIPC   D3B23519  29.607   3.397   4.665  0.0931  0.1849  0.3415
    1DIPC   C4B23520  29.553   2.989   4.842  0.0281 -0.3102  0.0399
    1DIPC   NC323521  13.531   6.693   2.916  0.0359 -0.0089  0.0970
    1DIPC   PO423522  13.474   6.372   3.109  0.1516 -0.1342  0.0962
    1DIPC   GL123523  13.292   6.423   3.474 -0.2633  0.0441  0.3086
    1DIPC   GL223524  13.300   6.159   3.643  0.0235  0.1404 -0.3291
    1DIPC   C1A23525  13.224   6.761   3.716  0.2123 -0.0812 -0.0936
    1DIPC   D2A23526  12.930   7.104   3.847 -0.3233 -0.0630  0.0476
    1DIPC   D3A23527  13.110   7.101   4.317 -0.5530 -0.0197  0.0023
    1DIPC   C4A23528  12.887   7.071   4.727  0.0170  0.3032  0.3854
    1DIPC   C1B23529  13.262   5.897   3.950  0.0937 -0.0482 -0.1227
    1DIPC   D2B23530  13.499   5.980   4.382  0.2443 -0.6076  0.1961
    1DIPC   D3B23531  13.292   6.288   4.626 -0.1098 -0.0521 -0.3122
    1DIPC   C4B23532  13.282   6.742   4.818  0.0882  0.5807  0.2186
    1DIPC   NC323533   3.380   6.913   2.615 -0.0826  0.1681 -0.1556
    1DIPC   PO423534   3.297   6.599   2.937 -0.1773 -0.4395  0.0146
    1DIPC   GL123535   3.435   6.664   3.366  0.2462 -0.0577 -0.1502
    1DIPC   GL223536   3.633   6.486   3.588  0.0330 -0.0755 -0.3067
    1DIPC   C1A23537   3.152   6.842   3.701 -0.0578 -0.1040  0.1116
    1DIPC   D2A23538   2.952   6.830   4.092  0.0030 -0.0946 -0.3325
    1DIPC   D3A23539   2.581   7.104   4.163  0.2032  0.0966 -0.2179
    1DIPC   C4A23540   2.628   7.520   4.160 -0.2076  0.0965 -0.1835
    1DIPC   C1B23541   3.401   6.521   3.916  0.1453 -0.0366  0.1219
    1DIPC   D2B23542   3.174   6.408   4.312 -0.0204 -0.1769  0.0071
    1DIPC   D3B23543   3.058   6.164   4.006 -0.3004 -0.3190  0.1701
    1DIPC   C4B23544   3.147   6.203   3.562  0.0256  0.2513  0.0048
    1DIPC   NC323545  26.231  22.504   2.115  0.0190  0.1020 -0.1671
    1DIPC   PO423546  26.112  22.033   2.072 -0.1704  0.0198 -0.4559
    1DIPC   GL123547  25.979  21.858   2.547  0.1284  0.1675 -0.2324
    1DIPC   GL223548  25.720  21.595   2.734  0.1770 -0.1808 -0.2403
    1DIPC   C1A23549  26.171  22.157   2.876 -0.0164 -0.0724  0.2100
    1DIPC   D2A23550  26.373  22.333   3.317 -0.1953  0.0014 -0.2582
    1DIPC   D3A23551  26.602  22.607   3.517 -0.1529 -0.1123  0.2766
    1DIPC   C4A23552  26.405  23.032   3.537 -0.3538 -0.0271 -0.0217
    1DIPC   C1B23553  25.877  21.630   3.177 -0.0069 -0.0812 -0.0527
    1DIPC   D2B23554  26.128  21.381   3.385 -0.1488 -0.0275 -0.0430
    1DIPC   D3B23555  26.174  21.781   3.495 -0.0662 -0.5265 -0.0274
    1DIPC   C4B23556  25.898  22.150   3.352  0.0009 -0.2089  0.0514
    1DIPC   NC323557  20.824  10.791   2.303  0.2931  0.3731 -0.0265
    1DIPC   PO423558  20.425  10.684   2.557  0.0038  0.0557 -0.1108
    1DIPC   GL123559  20.671  10.696   2.920 -0.1174 -0.0870 -0.2834
    1DIPC   GL223560  20.548  10.310   3.004 -0.0662 -0.2030  0.0098
    1DIPC   C1A23561  20.723  10.674   3.363  0.2523 -0.0718 -0.0005
    1DIPC   D2A23562  20.851  10.573   3.674 -0.1453 -0.1270  0.0195
    1DIPC   D3A23563  20.493  10.892   3.900 -0.3992  0.0986 -0.1252
    1DIPC   C4A23564  20.296  10.695   4.296  0.0441  0.1682 -0.0465
    1DIPC   C1B23565  20.258  10.534   3.293  0.0799  0.4664  0.2739
    1DIPC   D2B23566  20.031  10.737   3.640 -0.0548 -0.1927  0.4134
    1DIPC   D3B23567  20.272  11.048   3.492  0.1388  0.1121  0.0027
    1DIPC   C4B23568  20.149  11.486   3.528  0.2438 -0.0566 -0.1730
    1DIPC   NC323569   3.602   4.048   3.410  0.3550  0.1652 -0.3744
    1DIPC   PO423570   3.719   4.434   3.142  0.0882 -0.0585 -0.2202
    1DIPC   GL123571   3.832   4.527   3.591 -0.0542 -0.1939 -0.0953
    1DIPC   GL223572   4.118   4.515   3.633  0.0181 -0.2416  0.1305
    1DIPC   C1A23573   3.736   4.428   3.972  0.3104  0.3258  0.1024
    1DIPC   D2A23574   3.461   4.329   4.289 -0.1253 -0.4640 -0.2916
    1DIPC   D3A23575   3.387   4.512   4.743  0.0139  0.0688  0.0879
    1DIPC   C4A23576   2.961   4.310   4.681  0.0006  0.0273 -0.0498
    1DIPC   C1B23577   4.158   4.675   3.992 -0.0588 -0.0376  0.0298
    1DIPC   D2B23578   4.518   4.938   4.162 -0.0126 -0.2650  0.3076
    1DIPC   D3B23579   4.208   5.002   4.472 -0.1464  0.0424 -0.1933
    1DIPC   C4B23580   3.784   4.746   4.348  0.1797 -0.0764  0.0287
    1DIPC   NC323581  18.783   5.064   3.174  0.1152  0.1262  0.0734
    1DIPC   PO423582  18.482   5.112   3.559  0.5530  0.1541 -0.1312
    1DIPC   GL123583  18.535   5.136   3.971 -0.0293  0.1531 -0.3755
    1DIPC   GL223584  18.802   5.251   3.941 -0.1078  0.2236 -0.0021
    1DIPC   C1A23585  18.636   4.878   4.359 -0.2544 -0.0043  0.1479
    1DIPC   D2A23586  18.929   4.679   4.601 -0.0410 -0.3754  0.0523
    1DIPC   D3A23587  19.151   4.435   4.833 -0.1599  0.1108  0.0478
    1DIPC   C4A23588  18.940   4.337   5.188 -0.0217  0.3830 -0.0342
    1DIPC   C1B23589  18.799   5.490   4.334  0.1381 -0.2858  0.2798
    1DIPC   D2B23590  18.689   5.738   4.621  0.2642 -0.0364  0.0505
    1DIPC   D3B23591  19.076   5.720   4.654  0.0707  0.1484  0.0270
    1DIPC   C4B23592  19.254   5.565   4.935  0.2971  0.1945 -0.0128
    1DIPC   NC323593  18.672   7.130   3.427  0.0898  0.2825 -0.0630
    1DIPC   PO423594  19.118   7.175   3.417 -0.1790  0.0653 -0.0324
    1DIPC   GL123595  19.250   7.096   3.762  0.1933  0.0820 -0.4378
    1DIPC   GL223596  19.463   7.410   3.802  0.2991  0.0048 -0.1322
    1DIPC   C1A23597  19.050   7.160   4.206 -0.0424  0.0733 -0.2382
    1DIPC   D2A23598  18.935   7.534   4.433  0.0924 -0.3580 -0.3524
    1DIPC   D3A23599  18.931   7.782   4.670  0.0020  0.1058  0.1620
    1DIPC   C4A23600  18.866   8.174   4.690 -0.1862 -0.0696  0.0297
    1DIPC   C1B23601  19.424   7.474   4.218 -0.1007 -0.3050  0.1392
    1DIPC   D2B23602  19.391   7.474   4.615 -0.2514  0.1073  0.3231
    1DIPC   D3B23603  19.503   7.761   4.662  0.2706  0.0415  0.0330
    1DIPC   C4B23604  19.456   7.790   5.057 -0.0925  0.2568  0.1323
    1DIPC   NC323605  28.285  28.892   3.315 -0.0365  0.0022  0.0810
    1DIPC   PO423606  28.118  29.297   3.228  0.0510 -0.0651  0.3104
    1DIPC   GL123607  28.042  29.307   3.598  0.1434  0.1246  0.0500
    1DIPC   GL223608  28.208  29.098   3.793 -0.2281  0.1366 -0.0306
    1DIPC   C1A23609  27.819  29.272   4.081  0.4811 -0.3497 -0.0881
    1DIPC   D2A23610  27.849  29.283   4.541  0.0888 -0.4425 -0.1794
    1DIPC   D3A23611  28.179  28.973   4.792  0.1436 -0.3098  0.1984
    1DIPC   C4A23612  28.183  28.873   5.206  0.0075  0.1237 -0.4752
    1DIPC   C1B23613  28.595  29.132   4.044 -0.2090  0.0619 -0.2260
    1DIPC   D2B23614  28.812  28.976   4.307 -0.1153 -0.0497 -0.3145
    1DIPC   D3B23615  28.607  29.087   4.635  0.0548 -0.0275 -0.3342
    1DIPC   C4B23616  28.674  28.905   5.077  0.0883 -0.1326  0.0624
    1DIPC   NC323617  18.226   0.166   3.825  0.2057  0.4124  0.4946
    1DIPC   PO423618  17.806   0.373   3.851  0.0043  0.0290  0.4636
    1DIPC   GL123619  17.495   0.617   4.122 -0.1467  0.1226 -0.3354
    1DIPC   GL223620  17.125   0.557   4.291 -0.0595  0.1157  0.2190
    1DIPC   C1A23621  17.596   0.932   4.455  0.0073  0.1236  0.0068
    1DIPC   D2A23622  17.484   1.369   4.567  0.2726 -0.0618  0.1500
    1DIPC   D3A23623  17.716   1.565   4.873 -0.1580 -0.1682  0.2022
    1DIPC   C4A23624  17.826   2.051   4.899 -0.2123 -0.2160 -0.0689
    1DIPC   C1B23625  17.514   0.410   4.574 -0.1001  0.2014 -0.1328
    1DIPC   D2B23626  17.897   0.568   4.654  0.0926  0.0325  0.0124
    1DIPC   D3B23627  18.148   0.721   5.104  0.3510  0.1548  0.1303
    1DIPC   C4B23628  18.620   0.667   5.289 -0.0215 -0.1860  0.4754
    1DIPC   NC323629   7.687   5.606   3.520 -0.0044  0.0038 -0.0248
    1DIPC   PO423630   7.920   5.389   3.292  0.1458  0.0180 -0.1743
    1DIPC   GL123631   8.118   5.215   3.726 -0.1135 -0.0535 -0.2706
    1DIPC   GL223632   7.905   5.375   3.999  0.1910 -0.0460 -0.1764
    1DIPC   C1A23633   8.316   4.992   4.085  0.2167 -0.0049 -0.0804
    1DIPC   D2A23634   8.464   4.854   4.497 -0.1613  0.1869  0.0707
    1DIPC   D3A23635   8.308   4.843   4.937  0.0479 -0.0343 -0.1719
    1DIPC   C4A23636   7.919   4.609   5.161  0.2692  0.0225  0.2441
    1DIPC   C1B23637   7.768   5.578   4.338  0.0258  0.0140 -0.3118
    1DIPC   D2B23638   7.570   5.492   4.722 -0.0985 -0.0578 -0.1489
    1DIPC   D3B23639   7.371   5.783   5.037 -0.0961  0.2228  0.0649
    1DIPC   C4B23640   7.153   5.514   5.343  0.1784 -0.1929  0.3603
    1DIPC   NC323641  12.777  20.795   2.253  0.0363  0.0665  0.1641
    1DIPC   PO423642  12.763  20.851   2.759 -0.2662  0.0147  0.0820
    1DIPC   GL123643  12.738  20.607   3.112  0.0253  0.2853 -0.0610
    1DIPC   GL223644  12.932  20.857   3.368  0.0912  0.3259 -0.0608
    1DIPC   C1A23645  12.569  20.484   3.453 -0.2880 -0.3411  0.0206
    1DIPC   D2A23646  12.367  20.324   3.824 -0.2320 -0.0257  0.1883
    1DIPC   D3A23647  12.306  20.528   4.175  0.0383 -0.0160  0.0331
    1DIPC   C4A23648  12.022  20.799   4.452 -0.0483  0.1844  0.1110
    1DIPC   C1B23649  12.977  21.075   3.697 -0.0281  0.0353 -0.2712
    1DIPC   D2B23650  12.963  21.254   4.059  0.0239  0.4385  0.2461
    1DIPC   D3B23651  12.579  21.085   4.271 -0.0703  0.1535 -0.1890
    1DIPC   C4B23652  12.532  20.799   4.630  0.0894  0.0654  0.0489
    1DIPC   NC323653  26.041  15.702   0.560 -0.1766 -0.0185  0.0408
    1DIPC   PO423654  26.260  16.076   0.803  0.0883  0.2538  0.3710
    1DIPC   GL123655  26.326  16.094   1.326  0.1062 -0.0756  0.0572
    1DIPC   GL223656  26.393  16.441   1.529  0.2339  0.2860  0.4050
    1DIPC   C1A23657  26.017  16.137   1.631  0.2072 -0.2019  0.3207
    1DIPC   D2A23658  25.549  16.367   1.788  0.0559  0.0835  0.0487
    1DIPC   D3A23659  25.582  16.726   2.025 -0.0130 -0.4296  0.0553
    1DIPC   C4A23660  25.450  16.656   2.437 -0.2691  0.4677  0.2671
    1DIPC   C1B23661  26.438  16.218   1.938 -0.2205 -0.0458 -0.1197
    1DIPC   D2B23662  26.148  16.047   2.325  0.2017 -0.0025 -0.0759
    1DIPC   D3B23663  25.839  16.378   2.353  0.3015  0.0686  0.0709
    1DIPC   C4B23664  25.509  16.347   2.805 -0.0183  0.1588  0.0118
    1DIPC   NC323665  22.537  19.086   2.535  0.2387  0.0701 -0.0769
    1DIPC   PO423666  22.459  19.418   2.348  0.2653 -0.1310 -0.3737
    1DIPC   GL123667  22.483  19.559   2.693  0.0241  0.0339  0.3977
    1DIPC   GL223668  22.694  19.638   2.812 -0.1474  0.0368  0.0302
    1DIPC   C1A23669  22.289  19.707   3.064  0.1085  0.0096  0.0734
    1DIPC   D2A23670  21.969  19.818   3.303  0.3707 -0.4216 -0.2151
    1DIPC   D3A23671  21.838  19.364   3.279 -0.0477  0.0206  0.2417
    1DIPC   C4A23672  21.809  18.911   3.127  0.0415 -0.1147 -0.1844
    1DIPC   C1B23673  22.935  19.450   3.219  0.1139 -0.1161 -0.0904
    1DIPC   D2B23674  23.201  19.382   3.641  0.1480  0.1182  0.3919
    1DIPC   D3B23675  23.186  19.819   3.898 -0.2930 -0.0909 -0.3064
    1DIPC   C4B23676  22.946  19.725   4.187 -0.1936  0.2805 -0.0221
    1DIPC   NC323677   4.894  23.837   2.565 -0.5108  0.0947  0.4976
    1DIPC   PO423678   5.174  23.825   2.946 -0.0762 -0.0154  0.2495
    1DIPC   GL123679   5.067  23.669   3.365  0.2057  0.1415  0.0586
    1DIPC   GL223680   5.200  23.999   3.535 -0.2099  0.1596 -0.2341
    1DIPC   C1A23681   5.138  23.631   3.794 -0.1552  0.2842 -0.2060
    1DIPC   D2A23682   5.148  23.276   4.057 -0.3041  0.0651 -0.0681
    1DIPC   D3A23683   5.092  23.354   4.450  0.1439  0.1255 -0.1924
    1DIPC   C4A23684   5.204  23.220   4.865  0.2545  0.2032 -0.0220
    1DIPC   C1B23685   5.016  24.142   3.936  0.0905 -0.0551 -0.2649
    1DIPC   D2B23686   5.124  24.228   4.291 -0.1810 -0.0921 -0.1474
    1DIPC   D3B23687   4.979  24.378   4.686 -0.1142 -0.0427  0.1708
    1DIPC   C4B23688   5.047  24.261   5.054 -0.0040 -0.0390 -0.0423
    1DIPC   NC323689   8.456  28.283   3.593 -0.3467 -0.1380  0.0491
    1DIPC   PO423690   8.024  28.336   3.623  0.2286  0.2222  0.4312
    1DIPC   GL123691   7.767  28.143   3.909 -0.1724 -0.2826 -0.1515
    1DIPC   GL223692   7.403  28.003   3.845 -0.0158 -0.0621  0.2063
    1DIPC   C1A23693   7.576  27.968   4.264 -0.0010 -0.0058  0.1066
    1DIPC   D2A23694   7.555  27.582   4.433  0.0498  0.0734 -0.1106
    1DIPC   D3A23695   7.254  27.796   4.719  0.0702  0.4018  0.1938
    1DIPC   C4A23696   7.288  28.233   5.009  0.0947  0.2252  0.3593
    1DIPC   C1B23697   7.085  28.015   4.157 -0.2807  0.1098  0.1709
    1DIPC   D2B23698   6.841  28.125   4.474 -0.0873  0.3936  0.0882
    1DIPC   D3B23699   6.550  28.279   4.278 -0.2029 -0.0729 -0.3569
    1DIPC   C4B23700   6.394  27.908   4.067 -0.0536  0.2313  0.2744
    1DIPC   NC323701  13.918  27.771   2.674  0.4541 -0.1942 -0.3357
    1DIPC   PO423702  13.472  27.698   2.785  0.2161 -0.3052 -0.1409
    1DIPC   GL123703  13.607  27.741   3.190 -0.2843  0.0768 -0.1824
    1DIPC   GL223704  13.476  27.513   3.414 -0.0557  0.0588  0.0365
    1DIPC   C1A23705  13.853  27.849   3.600 -0.1143 -0.0694  0.2089
    1DIPC   D2A23706  14.182  28.001   3.999 -0.1233  0.1002  0.1233
    1DIPC   D3A23707  14.059  27.857   4.415 -0.2011  0.1270 -0.0397
    1DIPC   C4A23708  13.675  27.805   4.554 -0.1377  0.0761 -0.0792
    1DIPC   C1B23709  13.306  27.861   3.658  0.1975  0.0636 -0.3016
    1DIPC   D2B23710  13.268  27.783   4.192 -0.0824  0.2001 -0.2121
    1DIPC   D3B23711  13.666  27.746   4.033  0.2796  0.0334  0.0883
    1DIPC   C4B23712  13.756  27.404   3.793  0.0806  0.0427  0.1794
    1DIPC   NC323713   9.986   4.421   3.950 -0.1566  0.0836 -0.2372
    1DIPC   PO423714   9.562   4.511   4.153  0.0932 -0.1424  0.1946
    1DIPC   GL123715   9.292   4.380   4.289  0.0052 -0.0143  0.0230
    1DIPC   GL223716   9.313   4.349   4.601  0.1631  0.1516 -0.0411
    1DIPC   C1A23717   8.949   4.710   4.511 -0.0756 -0.0004 -0.0302
    1DIPC   D2A23718   8.808   4.955   4.861  0.2082 -0.3040  0.2388
    1DIPC   D3A23719   8.800   4.778   5.244 -0.1344  0.2605  0.0308
    1DIPC   C4A23720   8.733   4.565   5.584  0.0998  0.0769  0.1898
    1DIPC   C1B23721   9.435   4.229   4.960 -0.4274 -0.1676  0.1870
    1DIPC   D2B23722   9.561   4.176   5.441  0.1425 -0.2119  0.2976
    1DIPC   D3B23723   9.280   3.973   5.681  0.1651 -0.3734  0.1510
    1DIPC   C4B23724   8.908   4.075   5.793  0.1563 -0.1180 -0.0254
    1DIPC   NC323725  25.593  16.902   0.721 -0.4958  0.1485 -0.0412
    1DIPC   PO423726  25.489  16.709   1.172 -0.0385  0.3775 -0.1273
    1DIPC   GL123727  25.545  16.863   1.508  0.3504  0.1576 -0.2067
    1DIPC   GL223728  25.818  16.808   1.565 -0.0889  0.2031 -0.0067
    1DIPC   C1A23729  25.381  17.201   1.847 -0.1017  0.1174  0.0275
    1DIPC   D2A23730  25.084  17.080   2.206  0.0321 -0.1300 -0.0542
    1DIPC   D3A23731  25.440  17.119   2.362 -0.0415  0.1184  0.0737
    1DIPC   C4A23732  25.527  17.488   2.570 -0.2454 -0.3671  0.1844
    1DIPC   C1B23733  26.019  16.563   1.925  0.2242 -0.0556  0.1110
    1DIPC   D2B23734  26.225  16.713   2.242  0.0124 -0.2597  0.3065
    1DIPC   D3B23735  26.118  16.672   2.709  0.0389 -0.1203  0.0393
    1DIPC   C4B23736  25.706  16.885   2.739  0.1919 -0.2727 -0.1784
    1DIPC   NC323737  18.446  21.546   2.903  0.0224  0.0236 -0.1136
    1DIPC   PO423738  18.550  21.201   3.171 -0.1435 -0.1305 -0.1631
    1DIPC   GL123739  18.562  21.083   3.548  0.1724 -0.2074  0.0055
    1DIPC   GL223740  18.468  21.332   3.780  0.0854  0.1630 -0.0750
    1DIPC   C1A23741  18.639  20.862   3.936 -0.1208  0.2975  0.0133
    1DIPC   D2A23742  18.978  20.796   4.206 -0.1187  0.1261  0.0457
    1DIPC   D3A23743  18.936  20.494   3.966 -0.0502  0.6285 -0.1132
    1DIPC   C4A23744  19.135  20.082   4.103 -0.0145  0.1298  0.2425
    1DIPC   C1B23745  18.818  21.327   4.091  0.0375  0.2897  0.1829
    1DIPC   D2B23746  19.050  21.272   4.505  0.1565 -0.1821  0.2627
    1DIPC   D3B23747  19.382  21.119   4.274  0.3631 -0.0824  0.0208
    1DIPC   C4B23748  19.447  20.716   4.080  0.1254  0.2159 -0.0792
    1DIPC   NC323749   2.973   8.497   1.661  0.1571  0.0327  0.1116
    1DIPC   PO423750   2.925   8.370   2.177  0.1302  0.2621 -0.0888
    1DIPC   GL123751   2.988   8.339   2.573  0.1139 -0.0329 -0.4068
    1DIPC   GL223752   3.081   8.639   2.844  0.0917 -0.0412 -0.1578
    1DIPC   C1A23753   2.907   8.003   2.816  0.0142  0.0880  0.2836
    1DIPC   D2A23754   2.599   7.599   2.880 -0.3289 -0.1560 -0.2235
    1DIPC   D3A23755   2.963   7.588   3.089  0.0668  0.1476  0.0081
    1DIPC   C4A23756   3.056   7.212   3.352  0.0714 -0.2455  0.1430
    1DIPC   C1B23757   2.994   8.414   3.148 -0.1266  0.0207  0.0224
    1DIPC   D2B23758   2.901   8.402   3.525 -0.0711 -0.2908  0.0267
    1DIPC   D3B23759   2.419   8.126   3.732  0.1895 -0.0007 -0.2629
    1DIPC   C4B23760   2.057   8.355   3.722 -0.0296 -0.0422 -0.0329
    1DIPC   NC323761  13.209  29.563   3.400 -0.0050  0.0848 -0.0999
    1DIPC   PO423762  13.488  29.157   3.483 -0.2558  0.2138  0.1978
    1DIPC   GL123763  13.601  29.084   3.883 -0.1585  0.2050 -0.0721
    1DIPC   GL223764  13.617  29.271   4.068 -0.1314  0.2209 -0.0174
    1DIPC   C1A23765  13.775  28.676   3.973  0.2360 -0.1498 -0.2173
    1DIPC   D2A23766  13.877  28.308   4.271  0.5568 -0.0868 -0.0676
    1DIPC   D3A23767  13.577  28.227   3.967  0.0527 -0.0310  0.1875
    1DIPC   C4A23768  13.124  28.173   4.030  0.3508  0.2780  0.0942
    1DIPC   C1B23769  13.510  29.201   4.500  0.3518  0.0537  0.0168
    1DIPC   D2B23770  13.274  29.477   4.816  0.0054  0.1261  0.0762
    1DIPC   D3B23771  12.938  29.171   4.849 -0.3233 -0.0545  0.2860
    1DIPC   C4B23772  12.594  29.364   4.978  0.0705 -0.0653  0.0980
    1DIPC   NC323773   8.406   7.919   2.826  0.1918 -0.1404 -0.0481
    1DIPC   PO423774   8.428   7.932   3.256  0.0879  0.0439 -0.0857
    1DIPC   GL123775   8.344   8.001   3.707  0.0031  0.0551  0.1557
    1DIPC   GL223776   8.154   7.855   3.912 -0.0681 -0.3437  0.0365
    1DIPC   C1A23777   8.402   8.391   3.929  0.2186  0.3263 -0.0474
    1DIPC   D2A23778   8.627   8.701   4.097  0.0240 -0.1681 -0.0034
    1DIPC   D3A23779   8.543   8.435   4.450 -0.0514 -0.0272  0.4143
    1DIPC   C4A23780   8.648   8.540   4.840 -0.2277  0.1869  0.2551
    1DIPC   C1B23781   8.225   7.999   4.267 -0.0857  0.0944  0.1608
    1DIPC   D2B23782   8.265   7.818   4.685 -0.2324 -0.0577  0.0217
    1DIPC   D3B23783   8.464   7.512   4.356  0.0099 -0.2157 -0.2616
    1DIPC   C4B23784   8.534   7.052   4.435  0.0292  0.1179  0.0029
    1DIPC   NC323785  23.571  20.126   1.946 -0.1694  0.0910  0.1968
    1DIPC   PO423786  23.581  19.765   1.774 -0.1135  0.3604  0.0198
    1DIPC   GL123787  23.772  19.694   2.055 -0.3448 -0.2562  0.1371
    1DIPC   GL223788  23.494  19.721   2.251 -0.4707  0.3402  0.2253
    1DIPC   C1A23789  24.005  19.555   2.383 -0.0712  0.0262 -0.2668
    1DIPC   D2A23790  24.156  19.269   2.739  0.2542 -0.0618  0.2592
    1DIPC   D3A23791  24.134  19.616   2.963  0.0537  0.1951 -0.0830
    1DIPC   C4A23792  24.275  19.977   2.664 -0.2633  0.0436 -0.1132
    1DIPC   C1B23793  23.326  19.731   2.732 -0.1034  0.0172 -0.0745
    1DIPC   D2B23794  23.358  19.711   3.184  0.1113  0.0122 -0.3603
    1DIPC   D3B23795  23.675  19.866   3.117  0.2380 -0.3642  0.1582
    1DIPC   C4B23796  23.786  19.967   2.652 -0.2986  0.1451 -0.0982
    1DIPC   NC323797  23.645   8.304   3.134 -0.2134  0.0491  0.2163
    1DIPC   PO423798  23.333   8.609   2.806  0.0164  0.1893  0.3376
    1DIPC   GL123799  23.315   8.730   3.315  0.1869 -0.1078  0.0952
    1DIPC   GL223800  23.256   8.457   3.461  0.0583  0.3900  0.1085
    1DIPC   C1A23801  23.273   8.927   3.717 -0.1012 -0.0858 -0.0689
    1DIPC   D2A23802  23.150   9.206   4.107  0.2999 -0.0190  0.3078
    1DIPC   D3A23803  23.569   9.175   4.021 -0.0861 -0.1704  0.1254
    1DIPC   C4A23804  23.895   9.457   3.869 -0.1873  0.1067 -0.2228
    1DIPC   C1B23805  23.135   8.386   3.952 -0.0995 -0.1759  0.3448
    1DIPC   D2B23806  23.243   8.699   4.210 -0.2591 -0.4671  0.0038
    1DIPC   D3B23807  23.271   8.503   4.602  0.0535  0.2801 -0.0890
    1DIPC   C4B23808  23.619   8.604   4.843  0.0138 -0.0632  0.0888
    1DIPC   NC323809  20.499  25.949   3.505 -0.1540 -0.0965 -0.1357
    1DIPC   PO423810  20.916  25.759   3.310 -0.1906 -0.1671  0.0839
    1DIPC   GL123811  20.962  25.721   3.695  0.0971  0.0810  0.3493
    1DIPC   GL223812  20.877  25.982   3.872  0.0568  0.1467  0.0480
    1DIPC   C1A23813  21.232  25.647   3.983  0.1861  0.0733  0.0720
    1DIPC   D2A23814  21.565  25.610   4.272 -0.1254  0.1653 -0.1102
    1DIPC   D3A23815  21.718  25.162   4.283 -0.1826  0.1350  0.2438
    1DIPC   C4A23816  21.878  25.076   4.626 -0.1251 -0.1803 -0.2994
    1DIPC   C1B23817  20.892  26.369   4.084  0.3243  0.1337  0.4564
    1DIPC   D2B23818  20.917  26.642   4.425  0.1643 -0.0341 -0.0122
    1DIPC   D3B23819  20.470  26.704   4.601  0.0166 -0.1115 -0.2791
    1DIPC   C4B23820  20.341  26.565   4.987  0.1137 -0.0211 -0.4603
    1DIPC   NC323821  25.278  16.219   1.164  0.1990 -0.0886 -0.1571
    1DIPC   PO423822  25.171  15.809   0.951  0.1357  0.2825 -0.1280
    1DIPC   GL123823  25.204  15.733   1.364  0.0820  0.0951 -0.0082
    1DIPC   GL223824  25.048  15.894   1.490 -0.0742 -0.3061 -0.0365
    1DIPC   C1A23825  25.583  15.929   1.649  0.0768  0.3960 -0.1257
    1DIPC   D2A23826  25.718  15.966   2.100  0.1688  0.1023 -0.0858
    1DIPC   D3A23827  25.447  15.536   1.936 -0.0087 -0.1073 -0.0294
    1DIPC   C4A23828  25.020  15.515   1.803 -0.1156 -0.2225 -0.0169
    1DIPC   C1B23829  25.130  16.022   1.843 -0.0264 -0.1152 -0.1572
    1DIPC   D2B23830  25.285  16.191   2.296  0.2436 -0.1868 -0.1070
    1DIPC   D3B23831  25.126  15.821   2.318  0.0117  0.2060 -0.0908
    1DIPC   C4B23832  24.618  15.695   2.528  0.0651  0.1255  0.2419
    1DIPC   NC323833  19.174  16.314   2.839  0.1402 -0.2343 -0.0481
    1DIPC   PO423834  19.530  16.629   2.935  0.4969 -0.0998  0.0145
    1DIPC   GL123835  19.354  17.025   3.167 -0.1468 -0.0148 -0.0285
    1DIPC   GL223836  19.063  17.212   3.263  0.0053 -0.1609  0.1559
    1DIPC   C1A23837  19.532  17.300   3.441  0.1397 -0.1135  0.1283
    1DIPC   D2A23838  20.032  17.203   3.507 -0.2516  0.2281  0.1753
    1DIPC   D3A23839  19.804  16.806   3.386  0.0247 -0.1054  0.2065
    1DIPC   C4A23840  19.467  16.772   3.608 -0.3248  0.0957 -0.1661
    1DIPC   C1B23841  18.967  17.160   3.619 -0.0388 -0.0966 -0.1801
    1DIPC   D2B23842  18.727  16.898   3.916 -0.0468 -0.0201 -0.4093
    1DIPC   D3B23843  18.384  16.519   3.953  0.1198 -0.2180  0.2215
    1DIPC   C4B23844  18.049  16.381   4.204  0.0437  0.3071  0.1044
    1DIPC   NC323845  15.340  23.988   2.916 -0.0033  0.3476  0.0005
    1DIPC   PO423846  15.766  23.808   2.977  0.2243 -0.1121 -0.1519
    1DIPC   GL123847  15.606  23.897   3.302 -0.0992  0.0559  0.4944
    1DIPC   GL223848  15.842  23.992   3.469 -0.2978  0.3459 -0.6451
    1DIPC   C1A23849  15.430  23.845   3.688  0.0208 -0.0923  0.1213
    1DIPC   D2A23850  15.230  23.985   4.133 -0.1235 -0.0861 -0.2235
    1DIPC   D3A23851  15.497  24.202   4.432  0.2443  0.0076 -0.1635
    1DIPC   C4A23852  15.665  24.609   4.371  0.1236  0.0216 -0.0073
    1DIPC   C1B23853  15.833  23.665   3.897  0.1039 -0.1383 -0.1086
    1DIPC   D2B23854  15.891  23.580   4.344 -0.0434  0.2186 -0.1109
    1DIPC   D3B23855  15.600  23.755   4.647  0.1588 -0.0480  0.1928
    1DIPC   C4B23856  15.135  23.807   4.593 -0.1499 -0.1611  0.2424
    1DIPC   NC323857   2.915   2.339   3.241  0.1817 -0.0382  0.0816
    1DIPC   PO423858   3.175   2.482   3.094 -0.0196 -0.0626 -0.2034
    1DIPC   GL123859   3.115   2.844   3.393  0.3823  0.2466 -0.0306
    1DIPC   GL223860   3.210   2.894   3.698  0.1668  0.2769  0.0682
    1DIPC   C1A23861   2.704   2.760   3.643 -0.1297 -0.2741  0.0486
    1DIPC   D2A23862   2.204   2.967   3.765 -0.0950 -0.0339 -0.3217
    1DIPC   D3A23863   2.517   2.855   4.091 -0.2156 -0.0907  0.2669
    1DIPC   C4A23864   2.763   2.524   4.441  0.0681  0.0535  0.0945
    1DIPC   C1B23865   3.494   2.971   3.954 -0.2890  0.0268  0.2814
    1DIPC   D2B23866   3.702   2.624   3.967  0.2505  0.0308 -0.0509
    1DIPC   D3B23867   3.416   2.444   4.274  0.0054 -0.2572 -0.3257
    1DIPC   C4B23868   3.249   2.730   4.672 -0.0091  0.0474 -0.1638
    1DIPC   NC323869   6.556  22.841   2.619 -0.3314 -0.0255 -0.0664
    1DIPC   PO423870   6.673  22.990   3.080  0.3065  0.0655  0.1321
    1DIPC   GL123871   6.808  23.180   3.477 -0.1924 -0.1757 -0.2762
    1DIPC   GL223872   6.707  23.518   3.535  0.0041  0.1637 -0.2000
    1DIPC   C1A23873   7.126  23.248   3.801  0.1088  0.0993  0.1706
    1DIPC   D2A23874   7.200  23.441   4.136  0.0709 -0.2475 -0.1896
    1DIPC   D3A23875   6.803  23.215   4.237  0.1980 -0.2558 -0.1068
    1DIPC   C4A23876   6.903  22.812   4.422  0.0645 -0.0640 -0.0416
    1DIPC   C1B23877   6.470  23.358   3.890 -0.0841  0.0694  0.0971
    1DIPC   D2B23878   6.314  23.461   4.266  0.0608 -0.2651  0.1584
    1DIPC   D3B23879   5.953  23.187   4.490 -0.1880 -0.0520  0.0248
    1DIPC   C4B23880   5.717  23.419   4.804 -0.3026 -0.0523  0.1096
    1DIPC   NC323881  28.677  27.526   2.986 -0.0390 -0.1101 -0.1165
    1DIPC   PO423882  28.501  27.133   3.168  0.2423  0.1333 -0.1100
    1DIPC   GL123883  28.393  27.118   3.574  0.0824 -0.2965 -0.1190
    1DIPC   GL223884  28.589  26.817   3.553  0.0340  0.1254 -0.0908
    1DIPC   C1A23885  28.469  27.145   4.011  0.0891  0.0470 -0.1604
    1DIPC   D2A23886  28.819  27.257   4.232 -0.0088  0.3425  0.2856
    1DIPC   D3A23887  28.794  27.446   4.624  0.4232  0.1580  0.0480
    1DIPC   C4A23888  28.974  27.263   5.072  0.0684  0.0050  0.0471
    1DIPC   C1B23889  28.912  27.177   3.778  0.0018  0.0621  0.2043
    1DIPC   D2B23890  29.304  27.413   3.850  0.0011 -0.0762 -0.0331
    1DIPC   D3B23891  29.584  27.510   4.281  0.2166 -0.0751 -0.1398
    1DIPC   C4B23892  29.990  27.761   4.394 -0.0175  0.2117  0.2653
    1DIPC   NC323893  27.834   7.085   2.487  0.2987 -0.2504  0.3043
    1DIPC   PO423894  27.634   7.265   2.814 -0.2952  0.2001  0.1489
    1DIPC   GL123895  27.450   7.292   3.182  0.2668  0.1978 -0.1483
    1DIPC   GL223896  27.142   7.574   3.310 -0.0310  0.0634 -0.0283
    1DIPC   C1A23897  27.540   7.453   3.647  0.0269  0.1043  0.1655
    1DIPC   D2A23898  27.491   7.552   4.077  0.0506 -0.0516 -0.2142
    1DIPC   D3A23899  27.654   7.306   4.384  0.0187  0.3209  0.2224
    1DIPC   C4A23900  27.973   7.026   4.251 -0.1454 -0.2816  0.0239
    1DIPC   C1B23901  27.049   7.710   3.691 -0.2808 -0.3236  0.0133
    1DIPC   D2B23902  27.115   8.024   3.980  0.3734 -0.0261 -0.0950
    1DIPC   D3B23903  26.935   7.975   4.365 -0.1684  0.1664 -0.4423
    1DIPC   C4B23904  27.343   7.804   4.544 -0.0172  0.3065 -0.3095
    1DIPC   NC323905  23.726   1.150   3.324 -0.1156  0.1630 -0.1720
    1DIPC   PO423906  23.726   0.813   3.652 -0.0165 -0.0429  0.3012
    1DIPC   GL123907  23.776   0.871   4.041  0.0381 -0.2305 -0.1655
    1DIPC   GL223908  23.526   0.873   4.242  0.1763 -0.1155 -0.1622
    1DIPC   C1A23909  23.953   0.980   4.441 -0.3040  0.1056  0.1249
    1DIPC   D2A23910  24.331   1.276   4.574  0.1703 -0.0241  0.5885
    1DIPC   D3A23911  24.310   1.725   4.556  0.1892  0.1164  0.2043
    1DIPC   C4A23912  24.372   1.931   4.887 -0.0424 -0.1521 -0.0774
    1DIPC   C1B23913  23.157   1.068   4.294 -0.2578 -0.1244  0.0786
    1DIPC   D2B23914  22.775   1.075   4.390 -0.2365 -0.2073 -0.0538
    1DIPC   D3B23915  22.736   1.569   4.395  0.2736  0.1191  0.1988
    1DIPC   C4B23916  22.580   1.683   4.807 -0.1320  0.0783  0.3190
    1DIPC   NC323917  16.567  13.789   2.078 -0.1365  0.0384  0.2362
    1DIPC   PO423918  16.646  13.479   2.328 -0.2626  0.0673  0.0848
    1DIPC   GL123919  16.846  13.369   2.760 -0.3467  0.1345  0.1152
    1DIPC   GL223920  16.745  13.504   3.070 -0.3627  0.2457  0.2682
    1DIPC   C1A23921  17.224  13.556   2.990 -0.0885 -0.1338  0.1763
    1DIPC   D2A23922  17.570  13.424   3.113 -0.1629  0.1273 -0.1341
    1DIPC   D3A23923  17.870  13.610   3.296  0.1318 -0.2383  0.0427
    1DIPC   C4A23924  17.888  14.037   3.382  0.1078 -0.1638  0.0238
    1DIPC   C1B23925  16.896  13.337   3.433 -0.1829 -0.0289 -0.2991
    1DIPC   D2B23926  17.004  13.322   3.865  0.0846  0.2647 -0.2754
    1DIPC   D3B23927  17.071  13.193   4.322  0.0629  0.2015 -0.2852
    1DIPC   C4B23928  16.671  13.307   4.497  0.0586  0.1555 -0.1062
    1DIPC   NC323929   9.394  27.264   3.291 -0.2865 -0.0595 -0.2389
    1DIPC   PO423930   9.182  27.571   3.535 -0.1060 -0.2846 -0.0204
    1DIPC   GL123931   9.276  27.797   4.039 -0.0819  0.3108 -0.1083
    1DIPC   GL223932   9.533  28.116   4.005  0.1686  0.2817 -0.0770
    1DIPC   C1A23933   9.028  27.721   4.418 -0.4781 -0.0744  0.4458
    1DIPC   D2A23934   9.001  27.520   4.774 -0.1068  0.2167 -0.1917
    1DIPC   D3A23935   9.244  27.277   4.910  0.0888  0.0067  0.1111
    1DIPC   C4A23936   9.276  26.923   4.771  0.0029 -0.2000 -0.2431
    1DIPC   C1B23937   9.697  27.950   4.395 -0.2405 -0.1144  0.3739
    1DIPC   D2B23938   9.607  27.757   4.704 -0.3708 -0.0200  0.1110
    1DIPC   D3B23939  10.023  27.664   4.848  0.0420 -0.2615  0.2125
    1DIPC   C4B23940  10.115  27.127   4.988 -0.0609 -0.2856  0.1089
    1DIPC   NC323941  16.784  15.584   2.101 -0.1026  0.0740 -0.3943
    1DIPC   PO423942  16.967  15.740   2.622  0.1170  0.4464 -0.0237
    1DIPC   GL123943  17.259  15.697   2.973  0.1735 -0.1672  0.4596
    1DIPC   GL223944  17.398  15.369   2.866 -0.4052 -0.2283 -0.0064
    1DIPC   C1A23945  17.236  15.453   3.370  0.1583  0.2026 -0.1099
    1DIPC   D2A23946  17.008  15.307   3.721  0.0554 -0.0229 -0.0350
    1DIPC   D3A23947  17.143  15.656   3.940 -0.3190 -0.1687 -0.1609
    1DIPC   C4A23948  17.380  15.551   4.210  0.1363  0.0893  0.0216
    1DIPC   C1B23949  17.748  15.390   3.203 -0.0412  0.1280 -0.0636
    1DIPC   D2B23950  17.982  15.181   3.506  0.0886  0.3134  0.0443
    1DIPC   D3B23951  17.705  15.440   3.762 -0.1559 -0.2608  0.0532
    1DIPC   C4B23952  17.760  15.807   4.003  0.1125  0.0037 -0.0508
    1DIPC   NC323953  10.216   5.677   3.265  0.2841  0.0777  0.2690
    1DIPC   PO423954  10.309   5.518   3.686 -0.3631  0.0875  0.0416
    1DIPC   GL123955  10.463   5.510   4.096  0.0013 -0.2544 -0.2789
    1DIPC   GL223956  10.270   5.265   4.211 -0.2206  0.2004 -0.0259
    1DIPC   C1A23957  10.324   5.817   4.423 -0.2057 -0.1771 -0.4208
    1DIPC   D2A23958  10.534   5.944   4.792  0.0022 -0.1020  0.0203
    1DIPC   D3A23959  10.209   6.201   5.105 -0.0939 -0.0976 -0.0557
    1DIPC   C4A23960  10.547   6.473   5.355  0.1964 -0.0441 -0.2204
    1DIPC   C1B23961  10.002   5.330   4.525  0.3699  0.0504  0.2003
    1DIPC   D2B23962   9.940   5.268   5.046  0.0577  0.2221 -0.2024
    1DIPC   D3B23963   9.542   5.183   4.922  0.2257  0.0431 -0.0937
    1DIPC   C4B23964   9.301   4.794   4.905  0.4072  0.1772  0.4053
    1DIPC   NC323965   9.523   2.438   2.948 -0.0963  0.2747  0.1139
    1DIPC   PO423966   9.579   2.307   3.423 -0.3568  0.1338 -0.0007
    1DIPC   GL123967   9.544   1.939   3.751 -0.3662  0.0422  0.2410
    1DIPC   GL223968   9.817   1.820   3.828  0.2343 -0.2705 -0.0157
    1DIPC   C1A23969   9.369   1.540   3.812 -0.1104  0.0962 -0.0905
    1DIPC   D2A23970   9.225   1.049   3.838  0.0078  0.0514  0.1379
    1DIPC   D3A23971   9.466   0.831   3.796  0.0746  0.0170  0.0182
    1DIPC   C4A23972   9.733   0.599   4.095 -0.0462 -0.0133  0.1322
    1DIPC   C1B23973  10.053   1.890   4.267  0.0474 -0.1975 -0.2919
    1DIPC   D2B23974  10.069   2.165   4.666 -0.0759 -0.0216  0.1838
    1DIPC   D3B23975  10.013   2.144   5.114  0.1081  0.2384 -0.0973
    1DIPC   C4B23976  10.197   1.908   5.332  0.3994  0.0749 -0.1046
    1DIPC   NC323977  14.175   3.994   2.759 -0.2265  0.0978 -0.3096
    1DIPC   PO423978  13.833   3.852   3.022 -0.2488 -0.1705 -0.0425
    1DIPC   GL123979  13.634   3.932   3.487  0.2139  0.0700 -0.1568
    1DIPC   GL223980  13.638   4.232   3.558  0.4313  0.2483  0.2739
    1DIPC   C1A23981  13.551   3.674   3.860  0.2235 -0.0984  0.2665
    1DIPC   D2A23982  13.546   3.433   4.233  0.2023 -0.0939  0.0741
    1DIPC   D3A23983  13.890   3.663   4.452  0.2426 -0.3369  0.1973
    1DIPC   C4A23984  13.772   3.479   4.901 -0.1645 -0.3031  0.0749
    1DIPC   C1B23985  13.363   4.199   3.952 -0.4045 -0.1284  0.1164
    1DIPC   D2B23986  13.506   4.009   4.339 -0.1630  0.0791  0.1507
    1DIPC   D3B23987  13.658   4.012   4.779  0.0272 -0.0371  0.3673
    1DIPC   C4B23988  13.934   4.285   5.033 -0.1322 -0.0971  0.1292
    1DIPC   NC323989  10.064   9.168   2.691 -0.0940  0.2318  0.0001
    1DIPC   PO423990  10.071   9.600   2.668  0.1351  0.2243 -0.0266
    1DIPC   GL123991   9.842   9.526   3.047  0.1965  0.1230 -0.2175
    1DIPC   GL223992  10.003   9.492   3.341  0.0679 -0.4226  0.0192
    1DIPC   C1A23993   9.522   9.443   3.293  0.0805 -0.0682 -0.0445
    1DIPC   D2A23994   9.267   9.583   3.621 -0.1048  0.3231  0.0193
    1DIPC   D3A23995   8.838   9.823   3.665 -0.1605 -0.2681 -0.0197
    1DIPC   C4A23996   8.645   9.958   3.257 -0.1352  0.0968 -0.2448
    1DIPC   C1B23997   9.896   9.226   3.635 -0.0537  0.1662 -0.1311
    1DIPC   D2B23998  10.170   8.987   3.883  0.0070  0.2650  0.0433
    1DIPC   D3B23999  10.061   8.637   4.294 -0.2214 -0.0828  0.0777
    1DIPC   C4B24000   9.853   8.770   4.674  0.0405  0.1355 -0.0179
    1DIPC   NC324001  18.753  29.544   3.375 -0.2294 -0.2204  0.0550
    1DIPC   PO424002  18.957  29.171   3.528  0.0626 -0.2139 -0.1615
    1DIPC   GL124003  19.044  29.058   3.978 -0.0509 -0.3527 -0.0486
    1DIPC   GL224004  19.344  28.891   4.049 -0.2963  0.1669 -0.2037
    1DIPC   C1A24005  19.252  29.179   4.443  0.0664 -0.2173  0.0571
    1DIPC   D2A24006  19.487  29.254   4.865  0.2738  0.2137  0.1485
    1DIPC   D3A24007  19.249  29.485   5.249  0.0802  0.1679 -0.0937
    1DIPC   C4A24008  18.812  29.544   5.215 -0.0308  0.1967  0.0433
    1DIPC   C1B24009  19.683  29.139   3.989 -0.0099 -0.3719 -0.2733
    1DIPC   D2B24010  20.034  29.108   4.105 -0.0453 -0.1524 -0.0612
    1DIPC   D3B24011  20.082  29.577   4.020 -0.0495  0.1489 -0.2347
    1DIPC   C4B24012  19.919  29.909   4.283 -0.1622  0.0660 -0.0363
    1DIPC   NC324013  12.813  11.607   2.795  0.1152  0.0770  0.4714
    1DIPC   PO424014  12.899  11.976   2.873 -0.0822 -0.1098 -0.2703
    1DIPC   GL124015  12.718  12.034   3.253 -0.3355 -0.1897 -0.1657
    1DIPC   GL224016  12.509  12.182   3.360 -0.1569 -0.0469  0.1540
    1DIPC   C1A24017  12.700  12.074   3.742  0.0399  0.1930  0.0251
    1DIPC   D2A24018  12.881  11.999   4.094  0.0275  0.3079 -0.2308
    1DIPC   D3A24019  12.797  12.160   4.471  0.1679 -0.1062  0.0707
    1DIPC   C4A24020  12.969  12.262   4.838 -0.0845 -0.0313  0.2038
    1DIPC   C1B24021  12.524  12.537   3.176 -0.1307 -0.1509  0.0976
    1DIPC   D2B24022  12.675  12.941   3.140 -0.3439  0.0175  0.1282
    1DIPC   D3B24023  13.043  13.054   3.232 -0.0444  0.1508 -0.1021
    1DIPC   C4B24024  13.265  12.766   3.612  0.0909 -0.0884  0.1065
    1DIPC   NC324025   0.318   3.350   3.230  0.0780  0.0087  0.3350
    1DIPC   PO424026   0.208   3.036   3.040 -0.2065 -0.3279 -0.1675
    1DIPC   GL124027   0.027   3.032   3.563 -0.0706 -0.2345  0.1560
    1DIPC   GL224028   0.158   3.267   3.775  0.0507  0.1025 -0.0076
    1DIPC   C1A24029  -0.176   2.909   3.940  0.1090  0.1443 -0.2381
    1DIPC   D2A24030  -0.170   3.000   4.352  0.0142  0.1144  0.1586
    1DIPC   D3A24031   0.163   2.715   4.543 -0.1939  0.2994 -0.0648
    1DIPC   C4A24032   0.203   2.315   4.328 -0.0871 -0.2712 -0.2416
    1DIPC   C1B24033   0.166   3.283   4.164 -0.1313 -0.0557 -0.2594
    1DIPC   D2B24034   0.251   3.272   4.654  0.1573  0.0246 -0.0131
    1DIPC   D3B24035   0.084   3.297   5.048  0.0244 -0.3723 -0.1596
    1DIPC   C4B24036   0.181   2.897   5.157 -0.0684  0.0661  0.0183
    1DIPC   NC324037  13.105  21.128   2.958  0.0500  0.0514  0.3720
    1DIPC   PO424038  13.569  21.040   2.965  0.0831 -0.1607 -0.1853
    1DIPC   GL124039  13.482  21.269   3.340  0.0015 -0.0419  0.3626
    1DIPC   GL224040  13.107  21.431   3.356  0.1324 -0.1113 -0.2975
    1DIPC   C1A24041  13.463  21.309   3.800 -0.1797  0.2821 -0.2128
    1DIPC   D2A24042  13.321  21.603   4.031 -0.0712 -0.0687 -0.1584
    1DIPC   D3A24043  12.950  21.885   3.994 -0.2466  0.1113  0.2763
    1DIPC   C4A24044  12.886  22.028   4.314 -0.3296  0.0558 -0.0092
    1DIPC   C1B24045  12.911  21.834   3.506  0.0936  0.1730  0.0583
    1DIPC   D2B24046  12.453  21.965   3.797 -0.1778 -0.0580  0.3290
    1DIPC   D3B24047  12.461  22.309   3.409 -0.1564  0.1268 -0.2486
    1DIPC   C4B24048  12.787  22.629   3.294 -0.2011  0.1415 -0.1293
    1DIPC   NC324049  15.675   0.484   2.994 -0.2750 -0.3041  0.2539
    1DIPC   PO424050  16.124   0.754   3.079  0.4663 -0.1210  0.1012
    1DIPC   GL124051  16.186   0.746   3.556  0.0806  0.1605 -0.2910
    1DIPC   GL224052  16.239   0.988   3.575 -0.2338 -0.1252  0.0402
    1DIPC   C1A24053  16.144   0.527   3.944 -0.0073 -0.1251 -0.1820
    1DIPC   D2A24054  15.736   0.399   4.156  0.0022 -0.0396 -0.1516
    1DIPC   D3A24055  15.771   0.385   4.717  0.1180 -0.0229 -0.0613
    1DIPC   C4A24056  15.481   0.678   5.027  0.0491 -0.0833 -0.0871
    1DIPC   C1B24057  16.322   1.057   4.006 -0.1996  0.2150  0.1140
    1DIPC   D2B24058  16.187   1.321   4.303  0.0574 -0.1799  0.1881
    1DIPC   D3B24059  16.533   1.322   4.502  0.1912 -0.1783  0.0612
    1DIPC   C4B24060  16.507   1.347   4.947  0.0155 -0.0154 -0.1152
    1DIPC   NC324061   1.118   8.493   2.331 -0.0163 -0.1137  0.3066
    1DIPC   PO424062   0.928   8.872   2.403 -0.0652  0.1221 -0.4710
    1DIPC   GL124063   1.076   8.975   2.884  0.1503  0.3994 -0.1457
    1DIPC   GL224064   1.243   8.629   2.919 -0.1452  0.2073  0.2870
    1DIPC   C1A24065   0.991   9.041   3.380 -0.0212 -0.1050  0.1531
    1DIPC   D2A24066   1.130   8.984   3.711 -0.1694  0.1036  0.1763
    1DIPC   D3A24067   1.534   8.906   3.893  0.1441  0.0254 -0.2988
    1DIPC   C4A24068   1.508   8.800   4.297 -0.3113  0.2425  0.4537
    1DIPC   C1B24069   1.119   8.484   3.390  0.1237  0.1193  0.0639
    1DIPC   D2B24070   1.435   8.383   3.643 -0.2085 -0.0790 -0.0241
    1DIPC   D3B24071   1.654   8.352   4.010  0.0672  0.0252  0.1585
    1DIPC   C4B24072   1.950   8.507   4.230  0.0024 -0.3065  0.0089
    1DIPC   NC324073  23.422  27.201   3.479  0.1389  0.0402  0.1459
    1DIPC   PO424074  23.129  27.407   3.722  0.2550  0.2203  0.1917
    1DIPC   GL124075  23.014  27.149   4.024 -0.1295  0.2625 -0.2638
    1DIPC   GL224076  22.736  27.001   3.974 -0.2228  0.1550 -0.3056
    1DIPC   C1A24077  22.924  26.999   4.516  0.0379  0.2388 -0.3440
    1DIPC   D2A24078  22.720  26.783   4.918  0.2344  0.0222 -0.1599
    1DIPC   D3A24079  22.730  27.257   5.193 -0.4578  0.0579 -0.0882
    1DIPC   C4A24080  22.327  27.349   5.313  0.3037 -0.0109 -0.1676
    1DIPC   C1B24081  22.673  27.370   4.226  0.2131  0.0432  0.3095
    1DIPC   D2B24082  22.663  27.527   4.748  0.1434  0.2162 -0.0741
    1DIPC   D3B24083  22.487  27.898   4.690 -0.4510 -0.0331 -0.2641
    1DIPC   C4B24084  22.661  28.040   4.315 -0.1103 -0.3188 -0.0680
    1DIPC   NC324085  26.309  29.082   3.429 -0.1389  0.0702  0.3424
    1DIPC   PO424086  25.783  29.201   3.512 -0.2190 -0.0841  0.2766
    1DIPC   GL124087  25.902  29.253   3.940  0.1295 -0.1169  0.0765
    1DIPC   GL224088  26.155  29.158   3.937  0.0283 -0.1058 -0.3870
    1DIPC   C1A24089  25.831  29.541   4.233  0.3150  0.5243  0.0974
    1DIPC   D2A24090  25.603  29.552   4.539  0.3448  0.2926 -0.1613
    1DIPC   D3A24091  25.752  29.701   4.905 -0.0579  0.1765 -0.1161
    1DIPC   C4A24092  25.683  29.728   5.331 -0.6276 -0.1923  0.1745
    1DIPC   C1B24093  26.015  29.112   4.416  0.1249 -0.1593 -0.5640
    1DIPC   D2B24094  26.066  28.859   4.841 -0.1372  0.2776 -0.0266
    1DIPC   D3B24095  26.211  29.228   5.011  0.4252 -0.0867 -0.0514
    1DIPC   C4B24096  26.006  29.304   5.368 -0.2764 -0.0010 -0.1867
    1DIPC   NC324097  13.054   4.206   3.400  0.0673  0.1150  0.0253
    1DIPC   PO424098  13.002   4.377   3.055 -0.0652 -0.0956  0.0050
    1DIPC   GL124099  12.951   4.691   3.406  0.2671  0.0724  0.0344
    1DIPC   GL224100  13.255   4.616   3.608 -0.0142 -0.0304 -0.1768
    1DIPC   C1A24101  12.859   4.955   3.798 -0.5508  0.1021  0.2412
    1DIPC   D2A24102  12.647   5.030   4.182 -0.1723  0.1277  0.0428
    1DIPC   D3A24103  12.784   4.621   4.290  0.1056 -0.1489  0.0321
    1DIPC   C4A24104  12.913   4.154   4.205 -0.0191 -0.0529 -0.0871
    1DIPC   C1B24105  13.229   4.705   4.083 -0.2089 -0.1108  0.0240
    1DIPC   D2B24106  13.432   5.062   4.201 -0.1006  0.0475  0.0535
    1DIPC   D3B24107  13.135   4.991   4.513 -0.1880  0.4736  0.0878
    1DIPC   C4B24108  13.108   5.185   4.939 -0.3513 -0.3582  0.1330
    1DIPC   NC324109   8.640  27.478   3.481 -0.0447 -0.1818  0.0547
    1DIPC   PO424110   8.814  27.826   3.780  0.1001 -0.1291  0.3043
    1DIPC   GL124111   8.579  27.795   4.027 -0.5062 -0.0831 -0.0310
    1DIPC   GL224112   8.372  27.445   3.905  0.0594 -0.0348  0.0989
    1DIPC   C1A24113   8.251  28.092   4.165  0.2785  0.1923 -0.1568
    1DIPC   D2A24114   7.886  28.312   4.397 -0.0349 -0.1927 -0.0235
    1DIPC   D3A24115   7.797  28.384   4.941  0.1250  0.0063 -0.2617
    1DIPC   C4A24116   8.019  28.115   5.147 -0.0676  0.0320  0.0826
    1DIPC   C1B24117   8.478  27.377   4.366  0.1472  0.2681 -0.0816
    1DIPC   D2B24118   8.525  27.439   4.731 -0.1422 -0.1697  0.0260
    1DIPC   D3B24119   8.393  27.346   5.152 -0.2706 -0.0138 -0.0506
    1DIPC   C4B24120   8.536  26.896   5.336  0.1868 -0.2532 -0.2257
    1DIPC   NC324121   3.603   0.698   2.458 -0.2637  0.2578 -0.1329
    1DIPC   PO424122   3.637   0.984   2.614  0.3206  0.1580  0.0055
    1DIPC   GL124123   3.712   0.875   3.094  0.1209  0.0070  0.0707
    1DIPC   GL224124   3.399   1.036   3.137  0.1286  0.0392 -0.0410
    1DIPC   C1A24125   3.659   0.839   3.528 -0.0147 -0.2812 -0.2732
    1DIPC   D2A24126   3.570   1.043   3.913 -0.0657 -0.0052  0.1282
    1DIPC   D3A24127   3.722   1.372   4.043 -0.1996 -0.1636 -0.0287
    1DIPC   C4A24128   3.750   1.422   4.433  0.1204  0.3134  0.1027
    1DIPC   C1B24129   3.364   1.222   3.470  0.1073 -0.3243  0.3626
    1DIPC   D2B24130   3.054   1.361   3.714  0.3379 -0.1266 -0.0821
    1DIPC   D3B24131   3.279   1.616   3.917  0.0085  0.4723  0.0932
    1DIPC   C4B24132   3.234   1.729   4.389  0.1706  0.1824  0.0390
    1DIPC   NC324133  23.429   6.020   3.487  0.1768 -0.2471  0.0213
    1DIPC   PO424134  22.996   5.881   3.571 -0.2067 -0.2925  0.1219
    1DIPC   GL124135  22.774   5.757   3.907 -0.1122  0.0821  0.1745
    1DIPC   GL224136  22.625   5.967   4.136  0.2683  0.2169 -0.2163
    1DIPC   C1A24137  23.033   5.589   4.241 -0.1062  0.1862  0.0223
    1DIPC   D2A24138  23.137   5.385   4.566  0.1382  0.0968 -0.2333
    1DIPC   D3A24139  22.802   5.135   4.728 -0.0536  0.1051  0.1131
    1DIPC   C4A24140  22.872   4.770   4.954 -0.1946 -0.2304 -0.2554
    1DIPC   C1B24141  22.327   5.797   4.364  0.0716 -0.0652  0.3060
    1DIPC   D2B24142  21.930   5.732   4.339 -0.0376 -0.0518 -0.3131
    1DIPC   D3B24143  22.035   5.636   4.815 -0.1020 -0.2347  0.0160
    1DIPC   C4B24144  21.853   5.313   4.988 -0.2261 -0.2263 -0.2439
    1DIPC   NC324145  27.701   2.257   2.530 -0.1580  0.1267  0.1163
    1DIPC   PO424146  27.565   2.536   2.813  0.0067 -0.1845  0.2261
    1DIPC   GL124147  27.451   2.532   3.234 -0.1267 -0.0194 -0.0934
    1DIPC   GL224148  27.244   2.565   3.404  0.2002 -0.0444  0.1234
    1DIPC   C1A24149  27.590   2.878   3.608  0.0840  0.2505 -0.2311
    1DIPC   D2A24150  27.534   3.056   3.959  0.1784 -0.1878 -0.3894
    1DIPC   D3A24151  27.658   3.309   4.186  0.0352  0.2615  0.0279
    1DIPC   C4A24152  27.456   3.712   4.355 -0.1115  0.2099  0.2377
    1DIPC   C1B24153  27.517   2.413   3.776  0.1345 -0.1497 -0.0387
    1DIPC   D2B24154  27.876   2.198   3.883  0.0617  0.1687 -0.2681
    1DIPC   D3B24155  27.941   2.441   3.465 -0.0053 -0.2525  0.0762
    1DIPC   C4B24156  28.167   2.866   3.538 -0.3429 -0.1664  0.2728
    1DIPC   NC324157  15.647  10.502   2.507  0.0017 -0.1972 -0.1660
    1DIPC   PO424158  15.636  10.377   2.951  0.0765  0.2922 -0.1352
    1DIPC   GL124159  15.570  10.183   3.354  0.1214  0.1040  0.2767
    1DIPC   GL224160  15.425  10.431   3.445 -0.2210  0.1707  0.0324
    1DIPC   C1A24161  15.570  10.086   3.751 -0.0946  0.3118  0.1423
    1DIPC   D2A24162  15.567   9.620   3.936  0.0483 -0.1153  0.1201
    1DIPC   D3A24163  15.891   9.452   4.129  0.1290 -0.2187  0.0546
    1DIPC   C4A24164  16.178   9.001   4.199  0.3018  0.0191 -0.2736
    1DIPC   C1B24165  15.285  10.465   3.884 -0.0748 -0.3492 -0.1696
    1DIPC   D2B24166  15.305  10.837   4.161  0.3392  0.0970 -0.1228
    1DIPC   D3B24167  15.290  10.617   4.639 -0.2432 -0.1674  0.3713
    1DIPC   C4B24168  15.432  10.359   4.884 -0.1548 -0.2314  0.0517
    1DIPC   NC324169  14.863  20.620   2.294 -0.0011  0.4707  0.1060
    1DIPC   PO424170  14.783  20.541   2.740  0.1276 -0.2938  0.0654
    1DIPC   GL124171  14.924  20.303   3.051 -0.0332  0.1873 -0.1748
    1DIPC   GL224172  14.796  19.974   3.004 -0.1219  0.0431  0.0900
    1DIPC   C1A24173  14.996  20.150   3.500 -0.1091 -0.0801  0.0348
    1DIPC   D2A24174  15.071  20.380   3.944  0.3032 -0.0836  0.1257
    1DIPC   D3A24175  14.756  20.615   4.170 -0.2513 -0.0528 -0.2515
    1DIPC   C4A24176  14.750  21.033   4.489 -0.2554 -0.0749 -0.0955
    1DIPC   C1B24177  14.557  20.128   3.359 -0.1599 -0.2551  0.0500
    1DIPC   D2B24178  14.671  20.100   3.824  0.1676  0.0685 -0.0494
    1DIPC   D3B24179  14.858  19.748   3.892 -0.1572 -0.0906 -0.0125
    1DIPC   C4B24180  14.790  19.221   3.910 -0.2869  0.0835 -0.1796
    1DIPC   NC324181  25.072  20.739   1.987  0.2412  0.1372 -0.1993
    1DIPC   PO424182  24.667  20.556   2.158  0.3140 -0.4550 -0.0745
    1DIPC   GL124183  24.868  20.489   2.430 -0.1736 -0.1164 -0.1510
    1DIPC   GL224184  24.998  20.813   2.528 -0.2690  0.0951  0.1511
    1DIPC   C1A24185  25.004  20.084   2.413  0.1793  0.0763 -0.1887
    1DIPC   D2A24186  25.082  19.631   2.577  0.1935 -0.2778 -0.2120
    1DIPC   D3A24187  24.722  19.802   2.903  0.3988  0.0709  0.0359
    1DIPC   C4A24188  25.016  19.879   3.289 -0.2433 -0.0374  0.3441
    1DIPC   C1B24189  25.111  20.606   2.908 -0.2115 -0.0912 -0.1370
    1DIPC   D2B24190  25.055  20.190   2.927  0.3381 -0.0718 -0.0633
    1DIPC   D3B24191  25.490  20.263   3.076  0.1672 -0.1002  0.1835
    1DIPC   C4B24192  25.793  20.399   3.390 -0.2922 -0.1055 -0.0571
    1DIPC   NC324193  19.556  19.404   2.123 -0.4326 -0.0545 -0.1064
    1DIPC   PO424194  19.558  19.563   2.547  0.0240  0.1064  0.2180
    1DIPC   GL124195  19.855  19.312   2.824  0.1878  0.0631  0.0918
    1DIPC   GL224196  20.161  19.331   2.870  0.0318 -0.0339 -0.1824
    1DIPC   C1A24197  19.637  19.205   3.210 -0.2125  0.0211  0.1649
    1DIPC   D2A24198  19.431  19.110   3.660 -0.0614  0.1928 -0.1275
    1DIPC   D3A24199  19.086  19.195   3.719 -0.0320  0.0009  0.3255
    1DIPC   C4A24200  18.829  19.292   4.032  0.1503  0.3406  0.0287
    1DIPC   C1B24201  20.235  19.504   3.293  0.0305  0.3197 -0.1831
    1DIPC   D2B24202  20.177  19.638   3.681  0.0164  0.1501  0.4518
    1DIPC   D3B24203  20.559  19.643   3.927  0.2181  0.2937 -0.3073
    1DIPC   C4B24204  20.851  19.312   3.865  0.3097  0.0378 -0.3135
    1DIPC   NC324205  15.855  20.383   3.008 -0.3370 -0.2150  0.0940
    1DIPC   PO424206  15.435  20.693   2.982  0.2088  0.1839  0.2095
    1DIPC   GL124207  15.402  20.534   3.439  0.2091 -0.0849  0.0197
    1DIPC   GL224208  15.216  20.791   3.517 -0.1210 -0.1759  0.1057
    1DIPC   C1A24209  15.492  20.343   3.737 -0.1566  0.1643 -0.2677
    1DIPC   D2A24210  15.729  20.197   4.062 -0.1178 -0.1141 -0.0671
    1DIPC   D3A24211  15.487  20.370   4.251 -0.2286 -0.0747  0.0456
    1DIPC   C4A24212  15.586  20.319   4.707  0.0963 -0.4140 -0.0244
    1DIPC   C1B24213  15.343  20.887   3.853  0.3104 -0.1225  0.2278
    1DIPC   D2B24214  15.229  20.799   4.321 -0.0942 -0.2297  0.2932
    1DIPC   D3B24215  15.248  21.275   4.295 -0.1021 -0.2497  0.0446
    1DIPC   C4B24216  15.069  21.315   4.747 -0.0131 -0.1963 -0.1286
    1DIPC   NC324217  13.724   4.708   3.396  0.3716  0.3996  0.0534
    1DIPC   PO424218  14.087   4.634   3.481 -0.1001  0.0705  0.1732
    1DIPC   GL124219  14.009   4.636   3.887 -0.4787 -0.1062 -0.0798
    1DIPC   GL224220  14.237   4.874   3.977  0.0843  0.0519  0.1333
    1DIPC   C1A24221  13.730   4.685   4.139  0.1641 -0.1492  0.0982
    1DIPC   D2A24222  13.357   4.547   4.529 -0.1442  0.0026 -0.0997
    1DIPC   D3A24223  13.450   4.500   4.995 -0.1875  0.1922  0.0409
    1DIPC   C4A24224  13.368   4.873   5.226  0.0459  0.0296 -0.0504
    1DIPC   C1B24225  14.189   4.659   4.372 -0.0788  0.0600 -0.1537
    1DIPC   D2B24226  14.275   4.548   4.803 -0.1982  0.0630 -0.2082
    1DIPC   D3B24227  14.494   4.850   5.089 -0.0482  0.0154 -0.0162
    1DIPC   C4B24228  14.935   4.951   5.071 -0.1008 -0.1058 -0.0080
    1DIPC   NC324229   8.274  29.671   3.204  0.1780  0.1925 -0.1565
    1DIPC   PO424230   8.497  29.995   3.546 -0.3407 -0.4875 -0.2249
    1DIPC   GL124231   8.751  30.004   3.997 -0.1278  0.0403 -0.0904
    1DIPC   GL224232   8.805  29.773   4.339  0.0736  0.3779  0.0872
    1DIPC   C1A24233   8.767  30.327   4.375 -0.1411  0.4258  0.0058
    1DIPC   D2A24234   9.164  30.370   4.744  0.1466  0.1436 -0.0991
    1DIPC   D3A24235   9.156  30.542   5.118 -0.2865 -0.0836  0.0030
    1DIPC   C4A24236   9.612  30.755   5.148 -0.2509 -0.3661  0.0703
    1DIPC   C1B24237   8.589  29.947   4.656 -0.3008 -0.0949  0.0371
    1DIPC   D2B24238   8.882  29.820   4.918 -0.2405 -0.1248 -0.0086
    1DIPC   D3B24239   8.854  30.161   5.121 -0.0350 -0.0280 -0.1059
    1DIPC   C4B24240   8.471  30.325   5.019  0.0892  0.3498  0.2276
    1DIPC   NC324241  23.999  28.858   3.417  0.2287  0.3173 -0.2831
    1DIPC   PO424242  23.601  28.848   3.257 -0.1687  0.0934  0.0613
    1DIPC   GL124243  23.563  28.746   3.696 -0.0958  0.0243  0.1584
    1DIPC   GL224244  23.420  29.067   3.920 -0.1501 -0.1096 -0.0085
    1DIPC   C1A24245  23.656  28.560   4.121 -0.2892 -0.4851  0.2051
    1DIPC   D2A24246  23.802  28.595   4.621  0.1202 -0.3324 -0.1875
    1DIPC   D3A24247  24.059  28.435   4.393  0.2937  0.0993  0.1303
    1DIPC   C4A24248  24.178  28.656   4.017 -0.2383 -0.1170  0.2078
    1DIPC   C1B24249  23.520  28.987   4.350  0.2349 -0.2249  0.0863
    1DIPC   D2B24250  23.667  29.084   4.837 -0.0730  0.2058  0.0823
    1DIPC   D3B24251  23.316  29.299   4.846 -0.0594 -0.1200 -0.0462
    1DIPC   C4B24252  22.883  29.111   4.724 -0.1222 -0.0610 -0.4701
    1DIPC   NC324253  26.991  27.133   2.928  0.1820 -0.1130 -0.1415
    1DIPC   PO424254  26.960  27.124   3.404 -0.2151  0.0327 -0.3655
    1DIPC   GL124255  27.169  26.926   3.783  0.2091  0.2745  0.3702
    1DIPC   GL224256  27.010  26.690   3.983 -0.1374  0.0239  0.0236
    1DIPC   C1A24257  27.498  26.833   3.896  0.0366  0.0068 -0.1820
    1DIPC   D2A24258  27.651  26.443   4.141 -0.0337  0.2940  0.0607
    1DIPC   D3A24259  27.580  26.743   4.494  0.1766  0.2355 -0.2052
    1DIPC   C4A24260  27.880  26.983   4.685 -0.2070 -0.1176  0.0698
    1DIPC   C1B24261  27.160  26.502   4.329 -0.2770 -0.2370 -0.1042
    1DIPC   D2B24262  27.072  26.368   4.767  0.1046  0.0499 -0.0025
    1DIPC   D3B24263  27.201  25.970   4.834  0.0060 -0.0267  0.0655
    1DIPC   C4B24264  27.680  25.910   5.018 -0.0290  0.3180 -0.1400
    1DIPC   NC324265  26.363   7.689   2.668 -0.0467 -0.0820  0.0942
    1DIPC   PO424266  26.720   8.004   2.675 -0.1087  0.0528  0.1799
    1DIPC   GL124267  26.859   7.925   3.031  0.0526 -0.1374 -0.0489
    1DIPC   GL224268  26.725   7.592   3.097  0.0326 -0.0466  0.2995
    1DIPC   C1A24269  27.224   8.033   3.373  0.1673  0.0581 -0.1085
    1DIPC   D2A24270  27.509   8.289   3.268 -0.1369  0.0817 -0.1722
    1DIPC   D3A24271  27.076   8.541   3.081  0.1330 -0.3155 -0.3568
    1DIPC   C4A24272  26.725   8.650   3.332 -0.0671  0.3002  0.1827
    1DIPC   C1B24273  26.557   7.630   3.451 -0.3449 -0.2188 -0.0588
    1DIPC   D2B24274  26.181   7.607   3.467  0.0046  0.4517  0.0536
    1DIPC   D3B24275  26.164   8.020   3.550 -0.3794 -0.0800 -0.0611
    1DIPC   C4B24276  26.279   8.476   3.348  0.1590  0.1417  0.0021
    1DIPC   NC324277  20.106   0.051   3.648 -0.0857  0.0056  0.0184
    1DIPC   PO424278  19.621   0.151   3.478 -0.0419  0.1896  0.0841
    1DIPC   GL124279  19.583   0.015   3.914  0.0433  0.3169  0.1466
    1DIPC   GL224280  19.442   0.239   4.114  0.0704 -0.2627 -0.1912
    1DIPC   C1A24281  19.483  -0.182   4.383  0.0738  0.0231 -0.0752
    1DIPC   D2A24282  19.547  -0.080   4.699 -0.0082 -0.3296 -0.0204
    1DIPC   D3A24283  19.758  -0.148   5.027 -0.1154  0.0494  0.1157
    1DIPC   C4A24284  19.661  -0.126   5.453  0.2524  0.0570 -0.0966
    1DIPC   C1B24285  19.639   0.454   4.492 -0.0341  0.1470  0.2026
    1DIPC   D2B24286  19.757   0.923   4.790 -0.0775  0.4240 -0.3146
    1DIPC   D3B24287  19.368   0.901   5.009  0.0986  0.0735  0.3537
    1DIPC   C4B24288  19.178   0.710   5.408  0.0256  0.3636  0.1702
    1DIPC   NC324289   0.602   1.513   2.694  0.2617  0.1670 -0.0429
    1DIPC   PO424290   0.991   1.544   2.800 -0.1980  0.2195  0.0429
    1DIPC   GL124291   0.863   1.508   3.212  0.1952  0.0331  0.1774
    1DIPC   GL224292   0.805   1.746   3.415  0.1298  0.2758  0.0195
    1DIPC   C1A24293   0.766   1.410   3.725  0.1791 -0.1394  0.2005
    1DIPC   D2A24294   0.637   1.180   4.084 -0.3082 -0.1344  0.2802
    1DIPC   D3A24295   0.417   1.279   4.331 -0.1508  0.1927  0.0537
    1DIPC   C4A24296  -0.010   1.417   4.279 -0.2325 -0.1810  0.1544
    1DIPC   C1B24297   0.944   1.949   3.801  0.1920  0.0242  0.1794
    1DIPC   D2B24298   0.920   2.359   3.953  0.0905 -0.3021  0.0821
    1DIPC   D3B24299   1.294   2.310   4.231  0.1162 -0.2096  0.3844
    1DIPC   C4B24300   1.599   2.608   4.279 -0.0360 -0.0139 -0.0857
    1DIPC   NC324301   8.058  22.302   2.180 -0.1171  0.0143 -0.2311
    1DIPC   PO424302   8.023  22.005   2.415  0.0840  0.1259 -0.0282
    1DIPC   GL124303   8.305  22.150   2.716  0.2168 -0.0330 -0.2161
    1DIPC   GL224304   8.211  21.795   2.872 -0.0006 -0.0010  0.1212
    1DIPC   C1A24305   8.400  22.531   2.903  0.1621 -0.2508  0.0801
    1DIPC   D2A24306   8.265  22.759   3.222  0.3199  0.0066 -0.0181
    1DIPC   D3A24307   8.307  22.395   3.552 -0.0813  0.1442 -0.1087
    1DIPC   C4A24308   8.477  22.450   3.988  0.1239 -0.1603 -0.0269
    1DIPC   C1B24309   8.089  22.154   3.157  0.0262 -0.1232 -0.0511
    1DIPC   D2B24310   7.869  22.369   3.303  0.1394  0.0529 -0.1985
    1DIPC   D3B24311   7.472  22.466   3.141 -0.0627 -0.2760 -0.1567
    1DIPC   C4B24312   7.282  22.853   3.109  0.2436  0.2238  0.2560
    1DIPC   NC324313  16.543   7.811   3.450 -0.4557 -0.2458  0.1433
    1DIPC   PO424314  16.221   7.538   3.391  0.2006 -0.1668  0.3550
    1DIPC   GL124315  16.535   7.319   3.670 -0.3353  0.1531 -0.1077
    1DIPC   GL224316  16.500   7.025   3.822  0.3419 -0.2505 -0.1705
    1DIPC   C1A24317  16.714   7.387   4.109 -0.1144 -0.0265  0.1894
    1DIPC   D2A24318  16.836   7.458   4.495  0.0377  0.1833  0.2251
    1DIPC   D3A24319  17.137   7.392   4.828  0.1251 -0.0831 -0.1457
    1DIPC   C4A24320  17.390   7.808   4.925 -0.0047  0.0008 -0.0693
    1DIPC   C1B24321  16.266   7.315   4.224  0.1114 -0.1165  0.1530
    1DIPC   D2B24322  16.346   7.702   4.455  0.0728  0.1747  0.0758
    1DIPC   D3B24323  15.916   7.605   4.561 -0.0533 -0.0111 -0.1539
    1DIPC   C4B24324  15.742   7.303   4.301  0.0501  0.1121  0.1844
    1DIPC   NC324325  15.269   2.605   2.487  0.0712  0.2712 -0.1226
    1DIPC   PO424326  15.545   2.838   2.720 -0.2846 -0.2877 -0.0482
    1DIPC   GL124327  15.353   2.692   3.114 -0.3591  0.0493 -0.1535
    1DIPC   GL224328  15.487   2.807   3.282  0.1132  0.3218 -0.2481
    1DIPC   C1A24329  15.369   2.280   3.378  0.1158 -0.2166 -0.0417
    1DIPC   D2A24330  15.487   2.190   3.814 -0.0286  0.1102 -0.3195
    1DIPC   D3A24331  15.541   1.906   4.146  0.1246  0.0405  0.1908
    1DIPC   C4A24332  15.214   1.759   4.516 -0.1963 -0.2586  0.0022
    1DIPC   C1B24333  15.475   3.144   3.670 -0.2307 -0.1443  0.0805
    1DIPC   D2B24334  15.343   3.163   3.992 -0.1006  0.1678  0.1150
    1DIPC   D3B24335  15.647   2.824   4.004 -0.2769 -0.1088 -0.1363
    1DIPC   C4B24336  15.718   2.886   4.380 -0.0085 -0.1737 -0.0463
    1DIPC   NC324337   8.740   9.267   2.822  0.0572  0.1063  0.0714
    1DIPC   PO424338   8.471   9.430   2.980 -0.1350 -0.0207 -0.0361
    1DIPC   GL124339   8.432   9.545   3.416  0.0354 -0.1261 -0.1227
    1DIPC   GL224340   8.344   9.251   3.448  0.0519 -0.0169  0.1682
    1DIPC   C1A24341   8.368   9.616   3.821 -0.1622  0.1608  0.1679
    1DIPC   D2A24342   8.554   9.749   4.220  0.0903 -0.0806  0.2638
    1DIPC   D3A24343   8.481   9.757   4.677  0.3168  0.2305  0.2487
    1DIPC   C4A24344   8.753   9.481   4.857 -0.1284  0.0202  0.3157
    1DIPC   C1B24345   8.536   9.129   3.828  0.0564  0.0862  0.0504
    1DIPC   D2B24346   8.566   9.304   4.268  0.1585  0.2427 -0.6194
    1DIPC   D3B24347   8.142   9.352   4.173  0.2829 -0.2245  0.1644
    1DIPC   C4B24348   8.015   9.756   4.263  0.3214 -0.1475 -0.3212
    1DIPC   NC324349  10.403  19.091   2.760  0.0088 -0.2132  0.0360
    1DIPC   PO424350  10.723  19.298   2.873  0.0868 -0.2737 -0.0658
    1DIPC   GL124351  10.840  19.242   3.245  0.2207 -0.1183 -0.1075
    1DIPC   GL224352  11.166  19.030   3.283  0.0625 -0.2883 -0.1024
    1DIPC   C1A24353  10.751  19.031   3.567 -0.2245  0.2431  0.0842
    1DIPC   D2A24354  10.734  19.103   3.975  0.0566  0.0675  0.1247
    1DIPC   D3A24355  10.624  18.822   4.410 -0.2339  0.2106 -0.0198
    1DIPC   C4A24356  10.515  19.048   4.823 -0.0932 -0.0049 -0.1235
    1DIPC   C1B24357  11.235  19.278   3.606  0.2853  0.1343 -0.1428
    1DIPC   D2B24358  11.488  19.142   4.060 -0.2788  0.2007 -0.0508
    1DIPC   D3B24359  11.522  19.231   4.467 -0.2423  0.0042  0.1370
    1DIPC   C4B24360  11.848  19.559   4.521  0.1584 -0.1485 -0.1963
    1DIPC   NC324361   7.523   7.322   3.707 -0.2806 -0.0760 -0.2486
    1DIPC   PO424362   7.945   7.491   3.637  0.0390  0.0820  0.3019
    1DIPC   GL124363   7.899   7.366   4.042 -0.1481  0.2460 -0.1537
    1DIPC   GL224364   7.639   7.238   4.203  0.2660 -0.1169 -0.1375
    1DIPC   C1A24365   8.033   7.329   4.512 -0.1794  0.4663  0.0595
    1DIPC   D2A24366   7.744   7.263   4.846  0.2811  0.0498  0.3134
    1DIPC   D3A24367   8.062   7.284   5.063 -0.0022  0.0438 -0.1098
    1DIPC   C4A24368   8.104   7.217   5.539  0.2022  0.1616 -0.0281
    1DIPC   C1B24369   7.406   7.433   4.529  0.2484  0.2333  0.0097
    1DIPC   D2B24370   7.163   7.481   4.766 -0.0484  0.2112 -0.1207
    1DIPC   D3B24371   7.212   7.181   4.978 -0.1009  0.1013 -0.1287
    1DIPC   C4B24372   7.107   7.195   5.346 -0.0178  0.1293  0.3343
    1DIPC   NC324373  18.762  28.706   2.985  0.4063 -0.3132 -0.0953
    1DIPC   PO424374  18.830  28.520   3.382  0.1584 -0.4684 -0.2060
    1DIPC   GL124375  18.844  28.656   3.819 -0.0738  0.1104  0.0894
    1DIPC   GL224376  18.668  28.569   4.053  0.1756 -0.1827 -0.4833
    1DIPC   C1A24377  19.206  28.448   4.195  0.0248  0.1380  0.0109
    1DIPC   D2A24378  19.097  28.418   4.687 -0.0501  0.0504  0.1769
    1DIPC   D3A24379  19.284  28.793   4.743 -0.0137  0.0623  0.3770
    1DIPC   C4A24380  19.614  28.869   4.420 -0.0253 -0.2873  0.0328
    1DIPC   C1B24381  18.655  28.331   4.412  0.0801 -0.1427 -0.0563
    1DIPC   D2B24382  18.575  28.205   4.786  0.0887  0.1069 -0.2461
    1DIPC   D3B24383  18.926  28.195   5.085 -0.1309 -0.2612  0.1489
    1DIPC   C4B24384  19.251  28.487   5.150 -0.0316 -0.0863 -0.2053
    1DIPC   NC324385  22.979   6.823   3.330  0.2251  0.1466 -0.1656
    1DIPC   PO424386  22.949   6.377   3.369 -0.2490 -0.0575  0.1719
    1DIPC   GL124387  23.027   6.345   3.799 -0.3017  0.3227 -0.2942
    1DIPC   GL224388  23.071   6.582   3.843  0.0407 -0.2319 -0.0102
    1DIPC   C1A24389  23.080   6.161   4.355 -0.1381  0.0714 -0.3352
    1DIPC   D2A24390  22.780   5.765   4.605  0.0434 -0.0170 -0.0668
    1DIPC   D3A24391  22.890   5.748   4.936 -0.1850  0.4574  0.1585
    1DIPC   C4A24392  22.909   5.422   5.091  0.0832 -0.4603 -0.0979
    1DIPC   C1B24393  23.110   6.740   4.341 -0.2376  0.0356 -0.0491
    1DIPC   D2B24394  23.040   6.830   4.807 -0.2419 -0.0848  0.0777
    1DIPC   D3B24395  22.617   6.897   5.023  0.0674 -0.2217 -0.2754
    1DIPC   C4B24396  22.528   6.614   5.376 -0.1195  0.1840 -0.1006
    1DIPC   NC324397  20.137  27.252   3.378 -0.2067 -0.1510 -0.0122
    1DIPC   PO424398  19.892  26.993   3.181  0.1788 -0.2581 -0.1391
    1DIPC   GL124399  19.778  27.041   3.603 -0.0870  0.0958 -0.1635
    1DIPC   GL224400  19.793  27.321   3.817  0.0845  0.1580 -0.2461
    1DIPC   C1A24401  19.732  26.859   4.041  0.1727  0.0242 -0.3045
    1DIPC   D2A24402  19.509  26.593   4.304 -0.0425  0.1786  0.0727
    1DIPC   D3A24403  19.990  26.521   4.384  0.1344 -0.0554 -0.2050
    1DIPC   C4A24404  20.081  26.206   4.730 -0.0261  0.2230 -0.1917
    1DIPC   C1B24405  20.029  27.233   4.230  0.2051  0.0442 -0.0817
    1DIPC   D2B24406  20.276  27.282   4.587 -0.1930  0.3206 -0.2181
    1DIPC   D3B24407  20.028  26.948   4.638 -0.0726 -0.1466  0.0162
    1DIPC   C4B24408  19.851  26.776   4.990  0.3777  0.0924 -0.0402
    1DIPC   NC324409  21.180  15.513   2.096 -0.2121 -0.0558 -0.3741
    1DIPC   PO424410  20.979  15.126   2.237  0.1113 -0.4063  0.0459
    1DIPC   GL124411  21.344  15.102   2.458 -0.0024 -0.0379 -0.0378
    1DIPC   GL224412  21.263  15.313   2.772 -0.1775 -0.0510 -0.0027
    1DIPC   C1A24413  21.769  15.207   2.649 -0.0533  0.1417 -0.0368
    1DIPC   D2A24414  21.842  15.347   2.909 -0.0498  0.3008 -0.2280
    1DIPC   D3A24415  21.810  14.941   3.067  0.1138  0.1087 -0.0406
    1DIPC   C4A24416  21.569  14.866   3.451 -0.3426  0.2562  0.0727
    1DIPC   C1B24417  21.300  15.335   3.150  0.0747 -0.1060  0.0534
    1DIPC   D2B24418  21.632  15.319   3.381  0.1669  0.2608  0.0771
    1DIPC   D3B24419  21.471  15.270   3.803  0.1856 -0.4019  0.3006
    1DIPC   C4B24420  21.130  15.573   3.907 -0.1184  0.0610  0.1064
    1DIPC   NC324421   8.873   3.951   3.283 -0.0682 -0.1608 -0.1000
    1DIPC   PO424422   8.682   3.851   3.656 -0.2869  0.4879 -0.1922
    1DIPC   GL124423   8.721   3.805   4.047  0.2156 -0.1443 -0.0472
    1DIPC   GL224424   8.481   3.895   4.166  0.2088  0.1165  0.0189
    1DIPC   C1A24425   8.891   3.624   4.485 -0.1295  0.0054 -0.0821
    1DIPC   D2A24426   9.093   3.921   4.815  0.2528 -0.2264 -0.0523
    1DIPC   D3A24427   8.926   3.610   5.184 -0.0132 -0.1041  0.1813
    1DIPC   C4A24428   8.533   3.674   5.575 -0.2018 -0.0385  0.0185
    1DIPC   C1B24429   8.386   3.888   4.643  0.2783  0.0146  0.3045
    1DIPC   D2B24430   8.489   3.965   5.068  0.2281 -0.2442  0.1166
    1DIPC   D3B24431   8.510   3.491   4.898  0.1341 -0.0974  0.1535
    1DIPC   C4B24432   8.740   3.225   4.896  0.2622 -0.1972 -0.2417
    1DIPC   NC324433  20.347   8.141   2.952 -0.1017  0.0001  0.0687
    1DIPC   PO424434  20.414   8.441   3.290  0.2233 -0.0285 -0.0713
    1DIPC   GL124435  20.134   8.698   3.607 -0.1076  0.2360  0.0043
    1DIPC   GL224436  19.888   8.635   3.506  0.0654 -0.0815  0.2622
    1DIPC   C1A24437  20.134   9.016   3.877  0.1115  0.2859  0.0732
    1DIPC   D2A24438  20.154   9.310   4.253 -0.0178  0.3476  0.2376
    1DIPC   D3A24439  20.484   9.145   4.652 -0.0380 -0.1630  0.1339
    1DIPC   C4A24440  20.609   9.244   4.993  0.1426  0.0273 -0.2741
    1DIPC   C1B24441  19.444   8.593   3.567  0.2503 -0.2588 -0.2393
    1DIPC   D2B24442  18.940   8.745   3.586  0.1217  0.0869 -0.2008
    1DIPC   D3B24443  18.720   8.909   3.898  0.2617  0.2293 -0.2818
    1DIPC   C4B24444  18.798   9.009   4.255 -0.0223 -0.2386 -0.1856
    1DIPC   NC324445  25.226  19.257   1.234  0.1353  0.0845  0.2643
    1DIPC   PO424446  24.744  19.223   1.333  0.0652 -0.2335  0.3558
    1DIPC   GL124447  24.893  19.202   1.675  0.1146 -0.1506 -0.2840
    1DIPC   GL224448  24.834  18.952   1.785  0.3271  0.0827 -0.3734
    1DIPC   C1A24449  24.922  19.480   2.047  0.1921 -0.0461  0.1655
    1DIPC   D2A24450  25.287  19.724   2.060 -0.2502 -0.2847  0.0228
    1DIPC   D3A24451  25.334  19.219   2.187 -0.0503  0.2321  0.2534
    1DIPC   C4A24452  25.158  18.926   2.486 -0.1308  0.1438  0.1125
    1DIPC   C1B24453  24.878  18.837   2.129  0.1147  0.2855 -0.1674
    1DIPC   D2B24454  24.631  18.756   2.475 -0.1769 -0.1617 -0.1567
    1DIPC   D3B24455  24.863  18.612   2.841  0.2353 -0.1361 -0.2588
    1DIPC   C4B24456  24.949  18.722   3.290 -0.2125 -0.2730  0.2339
    1DIPC   NC324457  20.565  18.586   2.389  0.2551  0.2420 -0.2456
    1DIPC   PO424458  20.628  18.082   2.408 -0.1502 -0.2129 -0.0293
    1DIPC   GL124459  20.811  18.266   2.793 -0.1697  0.0645  0.0137
    1DIPC   GL224460  20.938  18.609   2.798  0.1234 -0.2178 -0.1492
    1DIPC   C1A24461  20.996  18.224   3.164  0.1534 -0.3144  0.1319
    1DIPC   D2A24462  21.357  17.987   3.474 -0.0388  0.1708  0.1414
    1DIPC   D3A24463  21.197  17.606   3.726 -0.0706 -0.1852 -0.1489
    1DIPC   C4A24464  21.434  17.694   4.085  0.0979  0.3041  0.0923
    1DIPC   C1B24465  21.047  19.006   2.938  0.0006 -0.0838  0.1760
    1DIPC   D2B24466  21.416  19.237   3.076  0.0464 -0.4583 -0.2215
    1DIPC   D3B24467  21.047  19.252   3.397  0.0660 -0.1976  0.4236
    1DIPC   C4B24468  20.727  19.643   3.453  0.5085 -0.0353 -0.1821
    1DIPC   NC324469  18.046   6.312   3.434 -0.0853 -0.1119 -0.1471
    1DIPC   PO424470  18.550   6.457   3.413  0.1541  0.0068  0.2951
    1DIPC   GL124471  18.475   6.682   3.745  0.2333 -0.1811  0.0546
    1DIPC   GL224472  18.764   6.835   3.907 -0.2047 -0.0262  0.0307
    1DIPC   C1A24473  18.364   6.803   4.193  0.2726 -0.2246  0.2199
    1DIPC   D2A24474  18.469   6.857   4.644 -0.0326 -0.0421  0.1117
    1DIPC   D3A24475  18.322   6.437   4.932  0.0763 -0.4408  0.0660
    1DIPC   C4A24476  18.655   6.077   5.019  0.0987 -0.3025 -0.3652
    1DIPC   C1B24477  18.841   6.730   4.363  0.2422  0.0263  0.1780
    1DIPC   D2B24478  18.915   6.664   4.814  0.2135  0.1672  0.0367
    1DIPC   D3B24479  19.322   6.520   5.077 -0.0471 -0.0555 -0.1089
    1DIPC   C4B24480  19.765   6.506   4.973  0.0355  0.1368 -0.0296
    1DIPC   NC324481  19.528   4.360   3.407 -0.0716 -0.0325 -0.0381
    1DIPC   PO424482  19.203   4.757   3.343  0.0035  0.0283 -0.1455
    1DIPC   GL124483  19.372   4.638   3.808 -0.2823 -0.2968  0.1649
    1DIPC   GL224484  19.643   4.738   4.038 -0.1646 -0.1123 -0.0824
    1DIPC   C1A24485  19.235   4.852   4.237  0.1973  0.1656  0.2532
    1DIPC   D2A24486  19.343   5.317   4.463  0.0217  0.0755 -0.2131
    1DIPC   D3A24487  18.910   5.239   4.718  0.1800  0.0785 -0.1030
    1DIPC   C4A24488  18.753   5.465   5.109 -0.1679 -0.0766 -0.1679
    1DIPC   C1B24489  19.724   4.747   4.453  0.2341 -0.2054  0.4207
    1DIPC   D2B24490  19.416   4.868   4.726  0.1623 -0.0328  0.3844
    1DIPC   D3B24491  19.147   4.955   5.098  0.0992  0.1570 -0.1113
    1DIPC   C4B24492  18.769   4.800   5.105 -0.1976  0.0848  0.3036
    1DIPC   NC324493  26.761  21.845   2.200 -0.2597  0.1230  0.1349
    1DIPC   PO424494  26.970  21.465   2.112  0.0781 -0.1741 -0.1535
    1DIPC   GL124495  26.683  21.392   2.435  0.1098 -0.0034 -0.3102
    1DIPC   GL224496  26.818  21.612   2.658  0.3289 -0.2846 -0.3399
    1DIPC   C1A24497  26.598  21.217   2.800 -0.0387  0.0421  0.0312
    1DIPC   D2A24498  26.545  21.219   3.163 -0.3168 -0.1372 -0.0521
    1DIPC   D3A24499  26.493  20.892   3.462 -0.0189 -0.0019  0.2395
    1DIPC   C4A24500  26.856  20.719   3.631  0.2239  0.0304 -0.1340
    1DIPC   C1B24501  27.169  21.753   2.749 -0.3253 -0.0131  0.0016
    1DIPC   D2B24502  27.021  22.139   2.698 -0.1293  0.0777 -0.0950
    1DIPC   D3B24503  26.648  22.026   2.943  0.0043 -0.2251  0.1165
    1DIPC   C4B24504  26.388  21.620   2.951 -0.2096 -0.2855  0.1493
    1DIPC   NC324505  22.837  20.598   2.380 -0.0188 -0.1831 -0.0905
    1DIPC   PO424506  23.049  20.956   2.408 -0.0292 -0.0539  0.1686
    1DIPC   GL124507  23.001  21.053   2.829  0.2275 -0.0193  0.1867
    1DIPC   GL224508  22.807  21.271   2.878  0.1801  0.0015 -0.0429
    1DIPC   C1A24509  23.031  21.019   3.384 -0.3228  0.3487  0.2794
    1DIPC   D2A24510  22.985  21.032   3.784 -0.2261 -0.3111  0.0868
    1DIPC   D3A24511  23.353  21.172   3.824  0.0559  0.0907  0.0143
    1DIPC   C4A24512  23.728  20.924   4.000 -0.1606  0.0992 -0.1854
    1DIPC   C1B24513  22.679  21.385   3.344  0.2119  0.2594 -0.0215
    1DIPC   D2B24514  22.645  21.467   3.903 -0.1142  0.1393  0.0742
    1DIPC   D3B24515  22.952  21.363   4.195 -0.0720 -0.0139  0.0906
    1DIPC   C4B24516  22.982  21.026   4.331 -0.0133 -0.1358  0.1763
    1DIPC   NC324517  14.324   9.625   3.003  0.0250  0.1243 -0.0690
    1DIPC   PO424518  14.711   9.892   3.041 -0.2735  0.0558  0.2496
    1DIPC   GL124519  14.819   9.640   3.359 -0.0650 -0.4178 -0.2198
    1DIPC   GL224520  14.766   9.724   3.640  0.0407  0.1541 -0.2545
    1DIPC   C1A24521  14.988   9.253   3.543 -0.0586  0.1624 -0.1535
    1DIPC   D2A24522  14.924   8.861   3.771  0.0185 -0.1938 -0.1542
    1DIPC   D3A24523  15.317   8.878   3.977 -0.2021 -0.3310 -0.0909
    1DIPC   C4A24524  15.424   9.194   4.229  0.0517  0.0981 -0.2017
    1DIPC   C1B24525  15.085   9.493   3.957  0.1724 -0.2859  0.0160
    1DIPC   D2B24526  15.279   9.623   4.356  0.2179 -0.0740  0.0832
    1DIPC   D3B24527  15.621   9.646   4.505 -0.1985 -0.1040 -0.0379
    1DIPC   C4B24528  15.836   9.799   4.907 -0.2079  0.0779 -0.0006
    1DIPC   NC324529   7.591   0.456   3.376 -0.3414 -0.1634  0.1141
    1DIPC   PO424530   7.760   0.861   3.528  0.2020 -0.0337 -0.2405
    1DIPC   GL124531   7.667   1.023   3.937 -0.0816  0.1028 -0.2811
    1DIPC   GL224532   7.840   1.214   4.061 -0.2680 -0.0218 -0.0375
    1DIPC   C1A24533   7.539   0.905   4.431 -0.0726  0.1411  0.3328
    1DIPC   D2A24534   7.387   0.963   4.870  0.1451  0.0349 -0.3872
    1DIPC   D3A24535   7.786   1.041   4.954  0.0595 -0.0771 -0.0087
    1DIPC   C4A24536   8.048   0.852   4.723 -0.0224  0.3177  0.2336
    1DIPC   C1B24537   7.987   1.173   4.395 -0.1838  0.1525  0.0031
    1DIPC   D2B24538   8.157   1.471   4.673  0.2627  0.1334 -0.1168
    1DIPC   D3B24539   8.061   1.539   5.096  0.0365  0.0892  0.1263
    1DIPC   C4B24540   8.012   1.958   5.295  0.1765 -0.2420  0.0650
    1DIPC   NC324541  13.529  25.108   2.725  0.0488 -0.0942 -0.1034
    1DIPC   PO424542  13.863  25.392   2.886  0.0564 -0.0726 -0.1734
    1DIPC   GL124543  13.588  25.566   3.205 -0.0101  0.1241 -0.1286
    1DIPC   GL224544  13.215  25.522   3.194 -0.0530 -0.1822 -0.2717
    1DIPC   C1A24545  13.554  25.264   3.541 -0.0870  0.0622 -0.3675
    1DIPC   D2A24546  13.646  24.873   3.744  0.0345  0.4583 -0.1204
    1DIPC   D3A24547  13.225  24.990   4.002 -0.5464  0.2950  0.2674
    1DIPC   C4A24548  13.287  25.381   4.112 -0.0149 -0.0190 -0.0662
    1DIPC   C1B24549  13.107  25.533   3.555 -0.0192 -0.3389  0.1115
    1DIPC   D2B24550  12.807  25.423   3.910  0.2674  0.0677  0.2275
    1DIPC   D3B24551  12.353  25.263   3.934  0.0062  0.0623 -0.0993
    1DIPC   C4B24552  12.082  25.066   4.238  0.0549  0.0389  0.0488
    1DIPC   NC324553  23.624   9.014   2.719  0.3736  0.0862  0.0556
    1DIPC   PO424554  23.788   8.781   3.030 -0.1908  0.0088  0.4279
    1DIPC   GL124555  23.804   8.726   3.449  0.1422  0.3071  0.2341
    1DIPC   GL224556  24.001   8.459   3.469 -0.0190 -0.0917 -0.2196
    1DIPC   C1A24557  23.715   8.702   3.884  0.2119 -0.5152 -0.2260
    1DIPC   D2A24558  23.717   8.831   4.354 -0.4125  0.0426  0.2062
    1DIPC   D3A24559  23.829   8.382   4.267  0.1347  0.1072 -0.1932
    1DIPC   C4A24560  23.733   8.065   4.606  0.0648  0.1158  0.3451
    1DIPC   C1B24561  24.285   8.400   3.921 -0.0307 -0.1229  0.1455
    1DIPC   D2B24562  24.498   7.935   4.195 -0.0017  0.0109  0.0515
    1DIPC   D3B24563  24.247   8.073   4.487  0.0721  0.1724 -0.0054
    1DIPC   C4B24564  24.216   8.553   4.590  0.2093 -0.0561  0.2087
    1DIPC   NC324565  22.556  27.094   3.548  0.0132  0.0267 -0.2041
    1DIPC   PO424566  22.469  26.754   3.312  0.1654  0.1848 -0.2668
    1DIPC   GL124567  22.679  26.550   3.603  0.0554  0.0601  0.1240
    1DIPC   GL224568  22.596  26.471   3.842 -0.1156  0.1070 -0.3763
    1DIPC   C1A24569  23.079  26.648   3.976 -0.2705  0.1488 -0.1106
    1DIPC   D2A24570  23.415  26.809   4.311 -0.0517  0.1440 -0.1118
    1DIPC   D3A24571  23.661  27.144   4.486  0.2366 -0.0558 -0.2568
    1DIPC   C4A24572  23.906  27.133   4.842 -0.1121  0.2115 -0.2158
    1DIPC   C1B24573  22.682  26.096   4.163 -0.0764  0.4585 -0.1127
    1DIPC   D2B24574  22.572  25.642   4.212  0.3459  0.0548  0.0633
    1DIPC   D3B24575  22.533  25.656   4.584  0.4596  0.1661  0.3505
    1DIPC   C4B24576  22.270  25.390   4.869 -0.2203 -0.2809  0.1493
    1DIPC   NC324577  26.642   4.682   2.985 -0.1538 -0.0603 -0.0679
    1DIPC   PO424578  26.926   4.743   3.189 -0.2111  0.0657 -0.1633
    1DIPC   GL124579  27.080   4.713   3.598  0.0311 -0.1843 -0.2033
    1DIPC   GL224580  27.382   4.913   3.737  0.0121  0.4239  0.0487
    1DIPC   C1A24581  26.886   4.717   3.925  0.0750 -0.0662  0.0578
    1DIPC   D2A24582  26.782   4.741   4.450 -0.1591 -0.0422 -0.1526
    1DIPC   D3A24583  26.905   4.419   4.814  0.1826  0.0678  0.1874
    1DIPC   C4A24584  27.162   4.119   4.726  0.0007 -0.2524  0.0780
    1DIPC   C1B24585  27.505   4.654   4.120 -0.1466  0.0611  0.1387
    1DIPC   D2B24586  27.244   4.464   4.361  0.0826 -0.1711  0.0913
    1DIPC   D3B24587  27.188   4.235   4.066  0.1466  0.6041  0.4703
    1DIPC   C4B24588  27.652   4.057   4.062 -0.0435 -0.0692 -0.1555
    1DIPC   NC324589   2.917  27.136   3.080 -0.0507 -0.4763  0.1644
    1DIPC   PO424590   2.545  27.005   3.169  0.0924 -0.0561 -0.0863
    1DIPC   GL124591   2.869  26.925   3.520  0.0837 -0.3379 -0.2509
    1DIPC   GL224592   2.702  26.768   3.772 -0.1720  0.1429  0.0197
    1DIPC   C1A24593   3.136  26.982   3.743 -0.0884 -0.3506 -0.2485
    1DIPC   D2A24594   3.376  27.144   4.100  0.1375  0.0116 -0.0075
    1DIPC   D3A24595   3.477  27.477   3.820  0.0933  0.1336  0.0242
    1DIPC   C4A24596   3.892  27.761   4.066  0.0108 -0.0284 -0.0099
    1DIPC   C1B24597   2.825  26.947   4.145 -0.0659 -0.2777 -0.0084
    1DIPC   D2B24598   2.612  27.013   4.561 -0.2775 -0.1409 -0.0801
    1DIPC   D3B24599   2.178  26.906   4.366  0.0119 -0.0964  0.0748
    1DIPC   C4B24600   1.788  27.032   4.506 -0.0626 -0.2182  0.4570
    1DIPC   NC324601  13.547  15.173   2.243  0.0306 -0.2394 -0.0788
    1DIPC   PO424602  13.311  15.007   2.544  0.0097  0.2060 -0.1395
    1DIPC   GL124603  13.226  15.124   2.997 -0.1446 -0.2155  0.0249
    1DIPC   GL224604  13.019  14.967   3.267 -0.0571  0.1961 -0.0392
    1DIPC   C1A24605  13.336  15.444   3.312 -0.0601  0.0388 -0.0900
    1DIPC   D2A24606  13.454  15.767   3.580  0.0765  0.1695  0.0728
    1DIPC   D3A24607  13.631  15.693   3.921 -0.1379  0.0350 -0.2281
    1DIPC   C4A24608  13.654  15.316   4.194 -0.0186 -0.0186  0.0897
    1DIPC   C1B24609  12.855  15.084   3.590  0.1593 -0.0310  0.0790
    1DIPC   D2B24610  12.535  15.251   3.914 -0.2873 -0.1277 -0.2412
    1DIPC   D3B24611  12.698  14.991   4.173 -0.3143  0.0447  0.1191
    1DIPC   C4B24612  12.718  15.046   4.584  0.0412 -0.0566  0.1269
    1DIPC   NC324613  23.440  11.682   1.953  0.3100 -0.1327  0.2981
    1DIPC   PO424614  23.398  11.996   2.198  0.0670  0.1943  0.2968
    1DIPC   GL124615  23.327  11.921   2.608 -0.0219 -0.0417  0.1717
    1DIPC   GL224616  23.632  11.854   2.788  0.2992 -0.1820 -0.0439
    1DIPC   C1A24617  23.109  11.613   2.853  0.0091  0.2813 -0.1137
    1DIPC   D2A24618  22.848  11.311   3.070  0.0313  0.0802  0.1959
    1DIPC   D3A24619  22.513  11.426   3.396  0.0683 -0.0744 -0.1394
    1DIPC   C4A24620  22.616  11.516   3.842 -0.1002  0.0557  0.2129
    1DIPC   C1B24621  23.278  12.039   3.137  0.3018  0.2341 -0.1864
    1DIPC   D2B24622  23.200  12.116   3.586 -0.1000  0.1009 -0.0575
    1DIPC   D3B24623  23.158  11.770   3.843 -0.2136 -0.0838  0.2585
    1DIPC   C4B24624  23.280  11.369   3.957 -0.3085  0.1478  0.1111
    1DIPC   NC324625  22.537  18.178   2.193 -0.0119  0.3018  0.0774
    1DIPC   PO424626  22.167  18.339   2.256  0.1088  0.1304  0.1672
    1DIPC   GL124627  22.315  18.322   2.735  0.1081 -0.0354  0.1103
    1DIPC   GL224628  22.467  18.615   2.906 -0.1692 -0.2799  0.2860
    1DIPC   C1A24629  22.261  18.177   3.205  0.0199  0.1587 -0.2389
    1DIPC   D2A24630  21.943  18.281   3.600  0.2334  0.1077 -0.2449
    1DIPC   D3A24631  21.634  18.430   3.309 -0.1318 -0.0557  0.1673
    1DIPC   C4A24632  21.361  18.724   3.248 -0.0327  0.3569  0.3683
    1DIPC   C1B24633  22.716  18.611   3.305  0.2713  0.0903  0.3198
    1DIPC   D2B24634  22.847  18.738   3.699  0.0301  0.1049 -0.0587
    1DIPC   D3B24635  23.220  18.979   3.902 -0.0146  0.0334  0.1656
    1DIPC   C4B24636  23.393  19.381   4.086 -0.1449  0.1266 -0.2256
    1DIPC   NC324637  21.548  24.949   3.111 -0.0792  0.2122  0.0289
    1DIPC   PO424638  21.105  24.883   3.072 -0.0592  0.0736  0.0313
    1DIPC   GL124639  21.183  24.701   3.447 -0.0053  0.0749 -0.0653
    1DIPC   GL224640  21.147  24.753   3.629  0.0281 -0.3979 -0.2716
    1DIPC   C1A24641  21.376  24.358   3.679  0.0830  0.0568  0.2275
    1DIPC   D2A24642  21.415  23.897   3.608 -0.1360  0.0925  0.0097
    1DIPC   D3A24643  21.176  23.551   3.793 -0.0452 -0.0221 -0.0434
    1DIPC   C4A24644  21.145  23.466   4.220  0.5572 -0.5644  0.1093
    1DIPC   C1B24645  20.995  24.678   3.945  0.0733  0.1394  0.0190
    1DIPC   D2B24646  21.240  24.389   4.187 -0.2060  0.1470 -0.0427
    1DIPC   D3B24647  21.112  24.424   4.603  0.1889  0.0125 -0.3934
    1DIPC   C4B24648  21.290  24.276   4.960  0.1503  0.2101 -0.1343
    1DIPC   NC324649  10.648   9.064   2.609 -0.1003  0.0483  0.2202
    1DIPC   PO424650  10.788   9.010   3.003  0.0695  0.1301  0.2038
    1DIPC   GL124651  10.777   9.134   3.352  0.0152  0.0423 -0.1157
    1DIPC   GL224652  10.975   8.967   3.455  0.1146  0.4506  0.1308
    1DIPC   C1A24653  10.682   9.068   3.807  0.2243 -0.2291 -0.3175
    1DIPC   D2A24654  10.737   8.806   4.198  0.3069  0.0055 -0.2469
    1DIPC   D3A24655  10.371   8.964   4.452  0.1712  0.0717 -0.0568
    1DIPC   C4A24656   9.985   9.130   4.370  0.2735  0.2724  0.0740
    1DIPC   C1B24657  11.151   8.781   3.799  0.0047 -0.3116 -0.0604
    1DIPC   D2B24658  11.318   8.600   4.177  0.2172 -0.0187 -0.2032
    1DIPC   D3B24659  11.706   8.429   4.202  0.4249  0.0787  0.0178
    1DIPC   C4B24660  12.029   8.466   4.560  0.0779 -0.0963 -0.0079
    1DIPC   NC324661   4.987   3.909   3.398 -0.1679 -0.1615 -0.1709
    1DIPC   PO424662   5.357   4.051   3.454 -0.1720 -0.0966 -0.0236
    1DIPC   GL124663   5.253   3.979   3.809 -0.0525 -0.0508 -0.1500
    1DIPC   GL224664   5.273   3.612   3.801  0.1678  0.1140  0.0724
    1DIPC   C1A24665   5.040   4.191   4.183 -0.1005 -0.1658  0.1101
    1DIPC   D2A24666   4.761   4.163   4.585  0.0645 -0.0829 -0.1214
    1DIPC   D3A24667   4.840   4.485   4.863  0.0443 -0.2711  0.1610
    1DIPC   C4A24668   5.122   4.636   5.019 -0.1763  0.0112 -0.0359
    1DIPC   C1B24669   5.190   3.637   4.187  0.0643  0.0890 -0.1990
    1DIPC   D2B24670   5.039   3.765   4.562  0.0732 -0.3308  0.2673
    1DIPC   D3B24671   5.152   3.406   4.752 -0.0544  0.0384  0.2630
    1DIPC   C4B24672   5.617   3.399   4.978 -0.4411  0.2841 -0.1187
    1DIPC   NC324673  19.030  11.642   2.316 -0.1906  0.0731 -0.2637
    1DIPC   PO424674  19.400  11.628   2.416  0.5494 -0.0775  0.0668
    1DIPC   GL124675  19.180  11.785   2.767 -0.1900 -0.3208 -0.1058
    1DIPC   GL224676  18.995  11.522   2.794  0.2613  0.1352  0.1092
    1DIPC   C1A24677  19.112  11.931   3.175  0.1397  0.0814  0.1654
    1DIPC   D2A24678  19.117  12.086   3.610  0.4222 -0.0133 -0.0176
    1DIPC   D3A24679  19.009  12.511   3.536  0.2668 -0.2604 -0.1456
    1DIPC   C4A24680  19.095  12.929   3.780 -0.0157  0.0148  0.1246
    1DIPC   C1B24681  19.109  11.465   3.209 -0.0372 -0.1725  0.0786
    1DIPC   D2B24682  19.065  11.580   3.637 -0.3361 -0.3973  0.1226
    1DIPC   D3B24683  18.627  11.781   3.817  0.2075 -0.0418  0.1978
    1DIPC   C4B24684  18.324  11.347   3.820  0.2398  0.0233 -0.1578
    1DIPC   NC324685  21.326   6.392   3.286 -0.0532 -0.1854 -0.2305
    1DIPC   PO424686  20.996   6.319   3.353 -0.1266 -0.1602  0.0125
    1DIPC   GL124687  20.966   6.641   3.599 -0.1211 -0.3080 -0.1326
    1DIPC   GL224688  20.643   6.606   3.785 -0.0316  0.0007  0.3604
    1DIPC   C1A24689  21.252   6.751   3.912 -0.2334 -0.0886  0.0113
    1DIPC   D2A24690  21.484   6.619   4.232  0.4613 -0.1112 -0.0512
    1DIPC   D3A24691  21.838   6.860   4.254  0.1226  0.0725  0.4914
    1DIPC   C4A24692  21.687   7.243   4.421 -0.2789 -0.4831  0.3347
    1DIPC   C1B24693  20.573   6.652   4.216 -0.0148  0.5095 -0.3633
    1DIPC   D2B24694  20.427   6.791   4.562 -0.0293 -0.1741  0.0151
    1DIPC   D3B24695  20.753   6.941   4.791  0.0706 -0.0122 -0.1327
    1DIPC   C4B24696  21.057   6.610   5.003  0.0070 -0.0421 -0.2551
    1DIPC   NC324697  14.795   0.279   3.117  0.0581  0.0331 -0.0685
    1DIPC   PO424698  15.235   0.220   2.945 -0.0722 -0.2332 -0.0688
    1DIPC   GL124699  15.251   0.360   3.296  0.3104  0.3236 -0.3678
    1DIPC   GL224700  15.259   0.709   3.200  0.2295 -0.1729  0.3267
    1DIPC   C1A24701  15.612   0.585   3.665  0.0334 -0.0164  0.0234
    1DIPC   D2A24702  15.779   0.909   3.990 -0.2378 -0.1467 -0.1938
    1DIPC   D3A24703  15.393   0.889   3.990 -0.1275  0.1461 -0.0749
    1DIPC   C4A24704  14.946   0.845   4.282  0.2754 -0.4043  0.1510
    1DIPC   C1B24705  15.002   0.625   3.587  0.0121 -0.0247  0.1735
    1DIPC   D2B24706  14.800   0.531   3.913 -0.2426  0.1425 -0.0485
    1DIPC   D3B24707  15.240   0.433   4.124 -0.0639  0.4670 -0.0833
    1DIPC   C4B24708  15.393   0.671   4.454 -0.0462 -0.2126 -0.2056
    1DIPC   NC324709  16.681  26.141   3.016  0.1155 -0.1639 -0.0000
    1DIPC   PO424710  16.843  26.278   3.330 -0.3966  0.2990 -0.2522
    1DIPC   GL124711  17.218  26.290   3.651  0.1542  0.0703  0.5262
    1DIPC   GL224712  17.154  25.981   3.726  0.2218  0.1149  0.1761
    1DIPC   C1A24713  17.390  26.487   4.080  0.1935  0.3256  0.0457
    1DIPC   D2A24714  17.737  26.471   4.392 -0.0418 -0.3484 -0.3333
    1DIPC   D3A24715  17.550  26.513   4.798  0.1307  0.3396 -0.0838
    1DIPC   C4A24716  17.448  26.098   4.913  0.2533 -0.0872  0.2011
    1DIPC   C1B24717  17.068  26.119   4.133 -0.0217 -0.2327 -0.0941
    1DIPC   D2B24718  17.106  26.333   4.483  0.0122 -0.2897 -0.1364
    1DIPC   D3B24719  17.018  26.706   4.285 -0.1299  0.1490  0.3203
    1DIPC   C4B24720  16.869  26.607   3.900 -0.1311  0.0832 -0.1181
    1DIPC   NC324721   5.625   5.882   2.732  0.3663 -0.0294 -0.0745
    1DIPC   PO424722   5.495   5.835   3.139 -0.0460 -0.2103  0.0831
    1DIPC   GL124723   5.222   5.748   3.476 -0.1976 -0.0193  0.2201
    1DIPC   GL224724   5.455   5.631   3.707 -0.0042  0.1572 -0.0795
    1DIPC   C1A24725   5.042   5.342   3.693 -0.0406 -0.1981 -0.0438
    1DIPC   D2A24726   4.983   5.165   4.186  0.1260  0.0656 -0.2429
    1DIPC   D3A24727   4.917   5.510   4.359  0.0744  0.2296 -0.2032
    1DIPC   C4A24728   4.989   5.556   4.711  0.0214 -0.0597  0.2872
    1DIPC   C1B24729   5.115   5.878   4.015 -0.0331  0.1064  0.0577
    1DIPC   D2B24730   4.944   6.207   4.217  0.0446  0.0357 -0.0144
    1DIPC   D3B24731   5.357   6.348   4.489 -0.2337  0.3236  0.0847
    1DIPC   C4B24732   5.542   6.260   4.882 -0.0799 -0.0142 -0.4602
    1DIPC   NC324733  25.866   3.594   2.316  0.0778  0.2561  0.0183
    1DIPC   PO424734  26.238   3.640   2.537  0.1073 -0.1615  0.2250
    1DIPC   GL124735  26.103   3.619   2.980  0.0182 -0.0754  0.4428
    1DIPC   GL224736  26.343   3.755   3.103 -0.0137  0.0939 -0.3663
    1DIPC   C1A24737  26.006   3.618   3.502 -0.0522 -0.1880  0.1862
    1DIPC   D2A24738  26.179   3.487   3.827 -0.1265 -0.0691 -0.0049
    1DIPC   D3A24739  26.292   4.040   3.626  0.1491  0.0918 -0.0717
    1DIPC   C4A24740  26.319   4.384   3.935  0.4091  0.1881  0.1963
    1DIPC   C1B24741  26.517   3.553   3.478  0.0507  0.2321 -0.1255
    1DIPC   D2B24742  26.684   3.646   3.825 -0.0611  0.0020 -0.1885
    1DIPC   D3B24743  26.699   3.563   4.191 -0.1353 -0.1466  0.3527
    1DIPC   C4B24744  26.985   3.603   4.561  0.0652  0.2653 -0.1662
    1DIPC   NC324745  29.792   0.046   2.571  0.1360  0.0215 -0.0724
    1DIPC   PO424746  29.882  -0.301   2.881 -0.2870 -0.0711  0.0431
    1DIPC   GL124747  30.144  -0.144   3.191  0.1337  0.1224 -0.2099
    1DIPC   GL224748  30.242   0.133   3.326  0.2020 -0.1324  0.1782
    1DIPC   C1A24749  30.091  -0.329   3.597 -0.2110 -0.1141 -0.0855
    1DIPC   D2A24750  30.011  -0.794   3.787  0.1284 -0.0002  0.0102
    1DIPC   D3A24751  30.231  -0.727   4.208  0.0219  0.0226 -0.3203
    1DIPC   C4A24752  30.446  -0.932   4.556  0.2800  0.0862  0.1102
    1DIPC   C1B24753  30.575   0.466   3.295 -0.3405  0.1395  0.0643
    1DIPC   D2B24754  30.885   0.747   3.302 -0.0360  0.1965  0.0045
    1DIPC   D3B24755  31.225   0.509   3.448 -0.4127 -0.0856 -0.3097
    1DIPC   C4B24756  31.434   0.652   3.910 -0.4510  0.0386 -0.0646
    1DIPC   NC324757   5.515   0.941   2.828 -0.1157  0.1228 -0.1362
    1DIPC   PO424758   5.308   0.492   2.847 -0.2236 -0.1629  0.0375
    1DIPC   GL124759   5.054   0.673   3.099  0.2338 -0.2511 -0.0505
    1DIPC   GL224760   5.137   0.525   3.319  0.0532 -0.0918 -0.0120
    1DIPC   C1A24761   4.677   0.765   3.404  0.3725  0.2250 -0.2704
    1DIPC   D2A24762   4.521   0.996   3.772 -0.2075  0.1385 -0.1766
    1DIPC   D3A24763   4.217   1.250   3.634  0.2712  0.0317 -0.1266
    1DIPC   C4A24764   3.874   1.242   3.407 -0.0456  0.1513 -0.3168
    1DIPC   C1B24765   4.989   0.554   3.747 -0.0259 -0.1887 -0.1201
    1DIPC   D2B24766   5.299   0.535   4.079  0.2919 -0.0483  0.0527
    1DIPC   D3B24767   5.336   0.322   4.570  0.1687  0.0333  0.1214
    1DIPC   C4B24768   5.339  -0.095   4.716  0.1363  0.0924 -0.1218
    1DIPC   NC324769   7.993  26.885   3.304  0.0631 -0.4089 -0.1123
    1DIPC   PO424770   8.167  27.306   3.479 -0.3036 -0.0776 -0.1342
    1DIPC   GL124771   8.110  27.007   3.790  0.2190  0.0551  0.0035
    1DIPC   GL224772   7.849  26.863   3.834 -0.0533  0.1320  0.0245
    1DIPC   C1A24773   8.071  27.055   4.244  0.0428  0.1742  0.2856
    1DIPC   D2A24774   8.005  26.675   4.474 -0.0800  0.1018 -0.0864
    1DIPC   D3A24775   7.515  26.586   4.589 -0.2999  0.0942  0.2565
    1DIPC   C4A24776   7.125  26.664   4.746 -0.0015  0.1383 -0.0446
    1DIPC   C1B24777   7.658  26.690   4.148 -0.1260 -0.2321  0.1833
    1DIPC   D2B24778   7.316  26.380   4.084 -0.0943 -0.1083  0.1082
    1DIPC   D3B24779   7.170  26.797   4.295 -0.0575 -0.2519 -0.3450
    1DIPC   C4B24780   6.811  26.950   4.454  0.0483 -0.1374 -0.3514
    1DIPC   NC324781  17.048  23.965   2.445  0.3737 -0.1195  0.0462
    1DIPC   PO424782  17.380  23.866   2.711  0.5445  0.2306 -0.0278
    1DIPC   GL124783  17.429  23.892   3.159 -0.1546 -0.0116 -0.1438
    1DIPC   GL224784  17.406  24.207   3.349  0.3021 -0.1342  0.1729
    1DIPC   C1A24785  17.108  23.756   3.547  0.0770  0.0290 -0.0131
    1DIPC   D2A24786  17.037  23.588   3.914 -0.3115  0.2134  0.1295
    1DIPC   D3A24787  17.506  23.645   4.102  0.0726 -0.0292 -0.0798
    1DIPC   C4A24788  17.644  23.774   4.579  0.1451 -0.0940  0.1175
    1DIPC   C1B24789  17.162  24.248   3.642  0.2967 -0.2251  0.0709
    1DIPC   D2B24790  16.878  24.066   3.849 -0.0240 -0.1150 -0.1156
    1DIPC   D3B24791  16.798  23.912   4.282 -0.0132  0.0884  0.2333
    1DIPC   C4B24792  16.923  24.224   4.602 -0.3366 -0.0361  0.0131
    1DIPC   NC324793   7.785   1.337   3.589 -0.0640  0.0224 -0.0303
    1DIPC   PO424794   8.210   1.465   3.608 -0.0696 -0.0473  0.1565
    1DIPC   GL124795   8.276   1.471   4.044  0.2536 -0.0173  0.0496
    1DIPC   GL224796   8.410   1.108   4.179 -0.0299 -0.1597  0.0103
    1DIPC   C1A24797   8.506   1.768   4.287  0.2262 -0.3152  0.2526
    1DIPC   D2A24798   8.639   1.930   4.616 -0.1492 -0.0520  0.1323
    1DIPC   D3A24799   9.028   1.893   4.547 -0.1431 -0.1831  0.4523
    1DIPC   C4A24800   9.253   1.642   4.773 -0.3341  0.0088 -0.0949
    1DIPC   C1B24801   8.519   0.883   4.504 -0.0221 -0.1527  0.0109
    1DIPC   D2B24802   8.766   0.984   4.887  0.0695 -0.0758 -0.3041
    1DIPC   D3B24803   8.375   1.190   4.997 -0.4646 -0.2762  0.2258
    1DIPC   C4B24804   8.141   1.017   5.451 -0.1494  0.0618  0.1039
    1DIPC   NC324805  23.364  17.679   1.788  0.3249 -0.0868 -0.1368
    1DIPC   PO424806  23.191  18.012   1.649 -0.4053  0.2672  0.0853
    1DIPC   GL124807  23.333  18.145   2.088  0.2949  0.0852  0.1014
    1DIPC   GL224808  23.366  18.482   2.279 -0.1196 -0.1670  0.0375
    1DIPC   C1A24809  23.596  18.046   2.405 -0.2772  0.3219 -0.1389
    1DIPC   D2A24810  23.587  18.258   2.855  0.3223 -0.2014 -0.0645
    1DIPC   D3A24811  23.958  18.307   3.206  0.2253 -0.0744  0.0571
    1DIPC   C4A24812  24.306  17.964   3.260  0.1025  0.0199 -0.2660
    1DIPC   C1B24813  23.461  18.728   2.691  0.1649 -0.2444  0.2558
    1DIPC   D2B24814  23.212  18.570   3.020  0.1088 -0.0409  0.0684
    1DIPC   D3B24815  23.514  18.570   3.276 -0.1233 -0.0741 -0.2291
    1DIPC   C4B24816  23.474  18.696   3.598 -0.2198 -0.0176  0.2307
    1DIPC   NC324817  17.130  14.748   2.252  0.1254  0.1053  0.1271
    1DIPC   PO424818  17.064  14.420   2.419  0.3209  0.1532 -0.2201
    1DIPC   GL124819  16.990  14.462   2.853 -0.2589  0.1404 -0.1165
    1DIPC   GL224820  16.726  14.459   3.054 -0.0603 -0.2436  0.0431
    1DIPC   C1A24821  17.353  14.449   3.104  0.1572  0.2145  0.1353
    1DIPC   D2A24822  17.530  14.418   3.456  0.2046 -0.1211  0.4218
    1DIPC   D3A24823  17.054  14.280   3.531 -0.3760  0.0645  0.1641
    1DIPC   C4A24824  16.909  13.841   3.383 -0.4037  0.0277  0.0995
    1DIPC   C1B24825  16.658  14.617   3.404  0.3336 -0.0628  0.1605
    1DIPC   D2B24826  16.923  14.790   3.733 -0.0947  0.3409 -0.0703
    1DIPC   D3B24827  17.191  14.565   3.983 -0.0876 -0.3046  0.2743
    1DIPC   C4B24828  17.685  14.395   4.018  0.2596  0.0464 -0.3448
    1DIPC   NC324829  27.800   1.633   3.103 -0.1608  0.3887  0.0598
    1DIPC   PO424830  27.364   1.745   3.073 -0.0393  0.2010 -0.0000
    1DIPC   GL124831  27.183   1.625   3.488  0.0999  0.1718 -0.0924
    1DIPC   GL224832  26.910   1.687   3.486 -0.2171 -0.0065 -0.3057
    1DIPC   C1A24833  27.271   1.666   4.016 -0.0514 -0.2099  0.1317
    1DIPC   D2A24834  27.247   1.415   4.300  0.1802 -0.0020  0.0041
    1DIPC   D3A24835  27.190   1.851   4.505 -0.0498 -0.0057  0.2878
    1DIPC   C4A24836  27.357   2.110   4.185  0.3148  0.3009  0.3694
    1DIPC   C1B24837  26.775   1.797   3.947 -0.2396  0.0537  0.2217
    1DIPC   D2B24838  26.810   1.580   4.361 -0.0915  0.0435 -0.0955
    1DIPC   D3B24839  26.960   1.437   4.738 -0.0307  0.1457 -0.2318
    1DIPC   C4B24840  27.107   1.068   4.816 -0.3671  0.3842  0.1371
    1DIPC   NC324841  29.059  25.839   2.796  0.1851  0.0516 -0.1762
    1DIPC   PO424842  28.651  26.148   3.003  0.0054 -0.0681  0.1777
    1DIPC   GL124843  28.859  25.854   3.296 -0.1099  0.1305 -0.0331
    1DIPC   GL224844  29.024  25.544   3.221 -0.0767  0.1140 -0.0035
    1DIPC   C1A24845  29.117  25.716   3.700 -0.2190 -0.0489 -0.0632
    1DIPC   D2A24846  29.251  25.435   3.910  0.1478  0.0294 -0.0634
    1DIPC   D3A24847  29.596  25.680   4.023  0.0620 -0.2565  0.0261
    1DIPC   C4A24848  29.703  25.993   4.248 -0.0591 -0.7084  0.1422
    1DIPC   C1B24849  28.665  25.334   3.403 -0.3523 -0.2690 -0.0956
    1DIPC   D2B24850  28.707  25.010   3.763 -0.1415  0.1207  0.1781
    1DIPC   D3B24851  28.897  25.259   4.199  0.2075  0.1915 -0.0908
    1DIPC   C4B24852  28.909  25.713   4.379  0.0714  0.0159  0.1126
    1DIPC   NC324853  10.376   6.144   3.486  0.1495  0.0708 -0.2794
    1DIPC   PO424854  10.554   5.986   3.832 -0.1083 -0.1544  0.0599
    1DIPC   GL124855  10.838   6.109   4.052  0.0697  0.0318  0.0454
    1DIPC   GL224856  10.674   6.252   4.308  0.0265 -0.1946  0.2256
    1DIPC   C1A24857  11.214   6.178   4.325  0.2595  0.1371 -0.0587
    1DIPC   D2A24858  11.517   6.257   4.529 -0.2038  0.2657 -0.0355
    1DIPC   D3A24859  11.851   6.027   4.786  0.1445 -0.1776 -0.1788
    1DIPC   C4A24860  11.755   5.904   5.237 -0.0693 -0.2287 -0.2170
    1DIPC   C1B24861  10.600   6.626   4.328  0.2692 -0.0809 -0.3317
    1DIPC   D2B24862  10.637   6.872   4.701 -0.0142 -0.1230 -0.0236
    1DIPC   D3B24863  10.676   6.420   4.775 -0.0771  0.0083  0.2876
    1DIPC   C4B24864  10.983   6.328   4.698  0.0623 -0.0840  0.0746
    1DIPC   NC324865  22.861  24.837   2.932  0.4323 -0.1253  0.4239
    1DIPC   PO424866  22.442  24.929   2.938 -0.0679  0.0583  0.1909
    1DIPC   GL124867  22.426  24.630   3.223  0.0213 -0.2475  0.1629
    1DIPC   GL224868  22.117  24.576   3.378  0.1954  0.0082 -0.2011
    1DIPC   C1A24869  22.488  24.882   3.621  0.0465 -0.1094 -0.2430
    1DIPC   D2A24870  22.492  24.703   4.083  0.0379 -0.3405  0.0001
    1DIPC   D3A24871  22.797  24.645   4.463 -0.2365  0.1451 -0.0623
    1DIPC   C4A24872  23.050  24.332   4.456 -0.3404  0.0875 -0.3221
    1DIPC   C1B24873  21.937  24.510   3.787  0.4504 -0.2283  0.1242
    1DIPC   D2B24874  21.670  24.204   3.995 -0.3944 -0.4195  0.0106
    1DIPC   D3B24875  21.618  24.342   4.497 -0.1906  0.0701 -0.1791
    1DIPC   C4B24876  21.862  24.521   4.797 -0.0318 -0.1020  0.1613
    1DIPC   NC324877  19.117  11.103   2.210  0.1335  0.1929  0.0245
    1DIPC   PO424878  18.835  10.889   2.317 -0.2572  0.0707 -0.1485
    1DIPC   GL124879  18.870  11.011   2.728  0.2559 -0.2347 -0.1676
    1DIPC   GL224880  19.150  11.037   2.802  0.0041 -0.2707  0.1246
    1DIPC   C1A24881  18.838  11.072   3.154 -0.3493 -0.0364 -0.0716
    1DIPC   D2A24882  18.651  11.451   3.335 -0.2721 -0.1492 -0.4694
    1DIPC   D3A24883  18.203  11.403   3.304  0.0430  0.3151  0.2411
    1DIPC   C4A24884  17.758  11.471   3.318 -0.0226 -0.0571  0.0851
    1DIPC   C1B24885  19.292  10.889   3.204  0.0354 -0.2519  0.0927
    1DIPC   D2B24886  19.158  10.617   3.474  0.1956  0.0612  0.1025
    1DIPC   D3B24887  19.511  10.698   3.613  0.2553 -0.1751 -0.0527
    1DIPC   C4B24888  19.796  10.415   3.374  0.1753  0.1508  0.1481
    1DIPC   NC324889   6.324   5.517   3.172 -0.1476 -0.2233  0.3203
    1DIPC   PO424890   6.411   5.802   3.499 -0.0587  0.0906  0.2287
    1DIPC   GL124891   6.210   5.826   3.922  0.0227 -0.0114  0.0092
    1DIPC   GL224892   5.919   5.608   3.919  0.1614  0.0006  0.2084
    1DIPC   C1A24893   6.129   5.956   4.329 -0.0668  0.0871  0.3601
    1DIPC   D2A24894   5.896   6.206   4.558 -0.4969 -0.0037 -0.0703
    1DIPC   D3A24895   5.893   5.837   4.932 -0.0263  0.2062 -0.0063
    1DIPC   C4A24896   6.250   5.918   5.219  0.1988  0.2404  0.0676
    1DIPC   C1B24897   5.614   5.831   4.180  0.0002 -0.0956 -0.0863
    1DIPC   D2B24898   5.441   5.901   4.561  0.1941 -0.0957 -0.0323
    1DIPC   D3B24899   4.980   6.101   4.781  0.0775 -0.2570 -0.0826
    1DIPC   C4B24900   4.920   6.297   5.181  0.0698  0.0236  0.0003
    1DIPC   NC324901  11.327   6.493   3.404 -0.0247  0.2680 -0.0352
    1DIPC   PO424902  10.902   6.411   3.505 -0.0200 -0.0276  0.1760
    1DIPC   GL124903  11.202   6.036   3.780 -0.1237  0.2272  0.0758
    1DIPC   GL224904  11.324   6.229   3.854  0.3379  0.1919 -0.0962
    1DIPC   C1A24905  11.216   5.763   4.078 -0.1567 -0.3695 -0.0464
    1DIPC   D2A24906  11.228   5.745   4.507  0.0270  0.0045  0.3462
    1DIPC   D3A24907  10.805   5.715   4.468  0.3195 -0.2162 -0.1641
    1DIPC   C4A24908  10.540   5.412   4.613 -0.2829 -0.0602  0.1290
    1DIPC   C1B24909  11.745   6.224   4.086  0.2545  0.1450  0.1354
    1DIPC   D2B24910  11.963   6.552   4.246 -0.1207 -0.0151  0.0691
    1DIPC   D3B24911  11.845   6.644   4.616  0.1307 -0.2005 -0.3792
    1DIPC   C4B24912  11.992   6.495   5.047  0.0043 -0.2012 -0.4861
    1DIPC   NC324913  20.899  26.263   3.269  0.0174 -0.3606 -0.0931
    1DIPC   PO424914  21.295  26.189   3.581  0.1170 -0.2636 -0.0240
    1DIPC   GL124915  21.713  25.929   3.761  0.0716 -0.2705  0.0467
    1DIPC   GL224916  21.671  25.990   3.958 -0.1162  0.1538 -0.1050
    1DIPC   C1A24917  21.606  25.427   3.741 -0.0664  0.1709 -0.0180
    1DIPC   D2A24918  21.672  25.005   3.613 -0.4651 -0.0079 -0.0840
    1DIPC   D3A24919  21.998  24.978   3.884  0.1234 -0.1541 -0.0454
    1DIPC   C4A24920  22.232  25.107   4.307 -0.0377  0.0049  0.0074
    1DIPC   C1B24921  21.767  26.132   4.348 -0.4068  0.0664 -0.0070
    1DIPC   D2B24922  21.808  25.862   4.672  0.0014 -0.0746 -0.0283
    1DIPC   D3B24923  22.280  26.051   4.447  0.0291  0.0919 -0.3092
    1DIPC   C4B24924  22.662  26.100   4.660  0.4060  0.2833 -0.2459
    1DIPC   NC324925   2.835   8.926   2.448  0.1452 -0.0717 -0.2150
    1DIPC   PO424926   2.360   8.951   2.352  0.2466  0.0399 -0.0706
    1DIPC   GL124927   2.522   8.717   2.783  0.1821 -0.1271  0.0520
    1DIPC   GL224928   2.453   8.305   2.897  0.1290 -0.0599 -0.0456
    1DIPC   C1A24929   2.721   8.796   3.174 -0.3274 -0.2917 -0.1199
    1DIPC   D2A24930   2.741   8.922   3.493 -0.0082 -0.2340 -0.2126
    1DIPC   D3A24931   2.316   8.921   3.496 -0.1159  0.0288 -0.0522
    1DIPC   C4A24932   2.191   8.855   3.085 -0.0910 -0.1687  0.0335
    1DIPC   C1B24933   2.426   8.420   3.365  0.2206 -0.1773 -0.1171
    1DIPC   D2B24934   2.625   8.585   3.876 -0.0724 -0.2129 -0.2056
    1DIPC   D3B24935   2.771   9.066   3.957 -0.0277  0.0471 -0.0984
    1DIPC   C4B24936   2.947   9.367   3.903 -0.0069 -0.0768 -0.0708
    1DIPC   NC324937   2.329   1.639   3.028 -0.1611  0.1036 -0.0569
    1DIPC   PO424938   2.764   1.607   2.782  0.2539 -0.1177  0.1386
    1DIPC   GL124939   2.745   1.737   3.258  0.0699 -0.2232  0.0346
    1DIPC   GL224940   2.489   1.626   3.494  0.0559 -0.4010  0.2281
    1DIPC   C1A24941   2.887   1.816   3.727  0.3538  0.0317  0.0130
    1DIPC   D2A24942   3.035   2.090   4.084  0.1560  0.3244 -0.0475
    1DIPC   D3A24943   3.104   2.172   4.568  0.2678  0.1279  0.1147
    1DIPC   C4A24944   3.198   1.976   4.889 -0.1885  0.0439  0.0002
    1DIPC   C1B24945   2.387   1.853   3.902 -0.2006  0.2624  0.0066
    1DIPC   D2B24946   2.072   1.837   4.405 -0.2171 -0.5751 -0.1704
    1DIPC   D3B24947   1.985   1.435   4.739  0.1017 -0.1225  0.1997
    1DIPC   C4B24948   1.973   1.720   5.022  0.1975  0.1436  0.0722
    1DIPC   NC324949  15.848  18.234   3.428 -0.1439  0.2574  0.0962
    1DIPC   PO424950  15.952  17.918   3.141 -0.0738  0.2147  0.0979
    1DIPC   GL124951  15.853  17.695   3.462  0.0183  0.1288  0.1573
    1DIPC   GL224952  15.485  17.725   3.568 -0.2043  0.0372 -0.1645
    1DIPC   C1A24953  15.684  17.697   3.974  0.0522  0.2826 -0.2920
    1DIPC   D2A24954  15.748  17.604   4.451  0.2823 -0.1031  0.1218
    1DIPC   D3A24955  16.055  17.732   4.642 -0.2784  0.1380 -0.2466
    1DIPC   C4A24956  16.282  17.760   4.981  0.1576  0.0898 -0.0672
    1DIPC   C1B24957  15.179  17.714   3.976  0.2956 -0.1433  0.0097
    1DIPC   D2B24958  15.287  17.523   4.372 -0.0511  0.4378  0.0255
    1DIPC   D3B24959  14.824  17.705   4.425 -0.0579 -0.1688  0.1494
    1DIPC   C4B24960  14.512  17.571   4.665 -0.0008 -0.1791  0.1462
    1DIPC   NC324961   4.081   1.255   2.701  0.4025 -0.1014 -0.1529
    1DIPC   PO424962   4.140   0.848   2.694  0.0875 -0.1832  0.4515
    1DIPC   GL124963   4.178   0.699   3.197  0.0338  0.0729 -0.0636
    1DIPC   GL224964   4.181   0.426   3.293 -0.0324  0.1240  0.1094
    1DIPC   C1A24965   4.141   0.782   3.601  0.0803 -0.2177 -0.1280
    1DIPC   D2A24966   4.063   0.933   3.987 -0.0091 -0.0125 -0.1263
    1DIPC   D3A24967   3.735   0.581   4.101  0.0019  0.0011  0.2272
    1DIPC   C4A24968   3.558   0.441   4.483  0.0127  0.2518 -0.1571
    1DIPC   C1B24969   3.775   0.390   3.460 -0.1426  0.0708  0.1050
    1DIPC   D2B24970   3.417   0.271   3.848 -0.2048 -0.1754  0.1975
    1DIPC   D3B24971   3.035   0.122   4.010 -0.0413  0.4043 -0.0377
    1DIPC   C4B24972   2.893   0.088   4.384  0.0607 -0.2400 -0.0261
    1DIPC   NC324973  24.670  26.001   3.166 -0.2710 -0.3149  0.0162
    1DIPC   PO424974  25.135  26.016   3.197 -0.2672 -0.1097  0.0256
    1DIPC   GL124975  24.979  25.894   3.559  0.0299  0.1138 -0.2379
    1DIPC   GL224976  25.168  25.749   3.738 -0.0889  0.0857 -0.1116
    1DIPC   C1A24977  24.720  25.993   3.803  0.1718  0.0767 -0.1830
    1DIPC   D2A24978  24.554  26.452   4.015  0.0621 -0.1251 -0.1655
    1DIPC   D3A24979  24.326  26.438   4.463 -0.2112 -0.2195  0.2158
    1DIPC   C4A24980  24.628  26.305   4.759  0.0333  0.1073 -0.2153
    1DIPC   C1B24981  25.035  25.504   4.082  0.0771 -0.1683 -0.2471
    1DIPC   D2B24982  25.040  25.273   4.481  0.3641 -0.1061  0.0624
    1DIPC   D3B24983  24.621  25.095   4.536 -0.4612 -0.1896 -0.1378
    1DIPC   C4B24984  24.281  25.345   4.711 -0.1149  0.3231  0.0914
    1DIPC   NC324985  18.204  12.058   2.045  0.0649 -0.0331  0.1018
    1DIPC   PO424986  17.752  12.080   2.004 -0.1643  0.2942 -0.1231
    1DIPC   GL124987  17.897  12.144   2.486 -0.1546 -0.1601 -0.1395
    1DIPC   GL224988  17.699  12.024   2.780 -0.0203 -0.2180 -0.1090
    1DIPC   C1A24989  18.198  12.170   2.857 -0.3067 -0.1431  0.0715
    1DIPC   D2A24990  18.728  12.340   3.081 -0.1127 -0.1008  0.2086
    1DIPC   D3A24991  18.421  12.384   3.290 -0.1289 -0.0989 -0.1179
    1DIPC   C4A24992  18.595  12.287   3.730  0.2528  0.2204  0.4283
    1DIPC   C1B24993  17.745  12.129   3.141 -0.3035  0.1003 -0.2075
    1DIPC   D2B24994  17.859  12.261   3.476  0.0180  0.1460  0.2443
    1DIPC   D3B24995  17.755  12.252   3.821  0.1429  0.0384 -0.1078
    1DIPC   C4B24996  17.689  12.558   4.142 -0.0142  0.1434 -0.0443
    1DIPC   NC324997  16.163  11.616   3.210 -0.1201  0.0598  0.0886
    1DIPC   PO424998  15.964  11.390   3.641  0.1952  0.0261 -0.2312
    1DIPC   GL124999  15.961  10.995   3.771 -0.0779 -0.1205  0.1995
    1DIPC   GL225000  16.301  10.906   3.764 -0.2365  0.1178  0.2784
    1DIPC   C1A25001  15.852  10.539   3.873 -0.0649  0.0763  0.3729
    1DIPC   D2A25002  16.024  10.198   3.806  0.1852  0.0268 -0.0551
    1DIPC   D3A25003  15.856  10.072   4.173 -0.0607  0.1025  0.1221
    1DIPC   C4A25004  15.510  10.149   4.462 -0.0687  0.2724 -0.1379
    1DIPC   C1B25005  16.676  10.907   4.070 -0.0010  0.2314  0.0246
    1DIPC   D2B25006  16.755  10.772   4.551  0.1850  0.2917 -0.0859
    1DIPC   D3B25007  17.133  10.506   4.450  0.0664  0.2194 -0.2578
    1DIPC   C4B25008  17.552  10.480   4.610  0.2374 -0.0905 -0.0298
    1DIPC   NC325009   5.398  24.591   2.771 -0.1453 -0.0187 -0.1707
    1DIPC   PO425010   5.856  24.487   2.704 -0.0092 -0.2977 -0.0175
    1DIPC   GL125011   5.849  24.627   3.115  0.1192 -0.3073 -0.2498
    1DIPC   GL225012   5.962  24.903   3.171 -0.0225 -0.0853 -0.3041
    1DIPC   C1A25013   5.943  24.640   3.674 -0.3420 -0.0421  0.1659
    1DIPC   D2A25014   5.742  24.545   4.107  0.2745 -0.0034 -0.0749
    1DIPC   D3A25015   5.935  24.866   4.313  0.3306  0.3225 -0.1009
    1DIPC   C4A25016   6.323  24.818   4.536 -0.1739  0.1846 -0.2380
    1DIPC   C1B25017   6.245  25.072   3.451  0.2809  0.1182 -0.0358
    1DIPC   D2B25018   6.251  25.048   3.863  0.0671 -0.2423  0.2620
    1DIPC   D3B25019   6.338  24.601   4.068  0.4848  0.0697 -0.6617
    1DIPC   C4B25020   6.385  24.371   3.816 -0.1398  0.0100 -0.1348
    1DIPC   NC325021  11.990   6.736   2.902 -0.2436  0.0081 -0.1763
    1DIPC   PO425022  12.280   6.948   3.281  0.0418  0.1558  0.3456
    1DIPC   GL125023  12.352   6.818   3.749 -0.1812 -0.2175  0.1608
    1DIPC   GL225024  12.069   6.786   3.844 -0.1743  0.1631 -0.2785
    1DIPC   C1A25025  12.629   6.704   4.053 -0.1983  0.2192 -0.0333
    1DIPC   D2A25026  12.802   6.686   4.433  0.2972 -0.0622 -0.4532
    1DIPC   D3A25027  12.386   6.745   4.575 -0.0081 -0.1086  0.1648
    1DIPC   C4A25028  12.175   6.981   4.295 -0.2738 -0.0737 -0.2327
    1DIPC   C1B25029  11.759   7.169   4.039  0.2604  0.2248 -0.1316
    1DIPC   D2B25030  11.596   7.479   4.401 -0.2135 -0.0131 -0.0045
    1DIPC   D3B25031  11.759   7.312   4.772  0.2087  0.0646  0.2254
    1DIPC   C4B25032  11.737   7.207   5.120 -0.0463  0.2751  0.0824
    1DIPC   NC325033  28.642   4.794   2.563 -0.2057  0.3591  0.2977
    1DIPC   PO425034  29.079   4.824   2.707 -0.0080  0.2314  0.0902
    1DIPC   GL125035  29.219   5.009   3.097 -0.0440  0.0959  0.2099
    1DIPC   GL225036  29.206   5.079   3.460 -0.1542 -0.1299 -0.2230
    1DIPC   C1A25037  29.043   5.496   3.243 -0.1050  0.0154  0.3633
    1DIPC   D2A25038  29.214   5.678   3.592 -0.0837  0.2307 -0.0555
    1DIPC   D3A25039  29.389   5.572   3.991  0.0781 -0.0023 -0.0510
    1DIPC   C4A25040  29.361   5.905   4.318 -0.1281  0.0226 -0.3253
    1DIPC   C1B25041  28.936   4.657   3.553 -0.4080 -0.1988  0.3274
    1DIPC   D2B25042  28.978   4.334   3.875  0.0837  0.1756  0.2624
    1DIPC   D3B25043  28.887   3.943   4.160 -0.0996 -0.3151  0.2649
    1DIPC   C4B25044  29.035   3.727   3.837 -0.1082 -0.2698 -0.0396
    1DIPC   NC325045  13.107  11.702   3.206  0.0379 -0.1007  0.0561
    1DIPC   PO425046  13.433  11.502   3.285 -0.1846 -0.0187  0.2403
    1DIPC   GL125047  13.455  11.366   3.666  0.3349 -0.2903 -0.0723
    1DIPC   GL225048  13.775  11.419   3.648 -0.2297 -0.1487 -0.1354
    1DIPC   C1A25049  13.469  11.584   4.050  0.3198 -0.1052 -0.2856
    1DIPC   D2A25050  13.604  11.789   4.441 -0.1010 -0.1190  0.4199
    1DIPC   D3A25051  13.658  11.567   4.768 -0.0489 -0.0183 -0.0047
    1DIPC   C4A25052  13.346  11.462   4.913 -0.1690  0.0418 -0.2535
    1DIPC   C1B25053  13.783  11.184   4.018 -0.1794 -0.1660 -0.2544
    1DIPC   D2B25054  13.807  11.263   4.408 -0.1445 -0.1366 -0.0524
    1DIPC   D3B25055  14.019  11.196   4.860  0.0765 -0.1776 -0.0483
    1DIPC   C4B25056  14.386  11.313   5.059  0.0021 -0.2880  0.1785
    1DIPC   NC325057  15.266  15.242   2.393  0.0501 -0.0181 -0.0257
    1DIPC   PO425058  15.358  14.815   2.378  0.1718 -0.0359 -0.0377
    1DIPC   GL125059  15.659  14.903   2.551 -0.1057  0.2219  0.0402
    1DIPC   GL225060  15.760  14.575   2.760 -0.0503  0.1116  0.0500
    1DIPC   C1A25061  15.799  15.044   3.003 -0.1262  0.2008  0.0273
    1DIPC   D2A25062  15.723  14.957   3.433 -0.0436 -0.1296  0.1204
    1DIPC   D3A25063  15.377  15.010   3.650 -0.0406  0.1108 -0.0510
    1DIPC   C4A25064  15.287  14.940   4.094 -0.0996  0.1357  0.3619
    1DIPC   C1B25065  15.653  14.492   3.145  0.2865  0.1519  0.2219
    1DIPC   D2B25066  15.311  14.648   3.283 -0.2988 -0.3609  0.3626
    1DIPC   D3B25067  15.339  14.436   3.625 -0.2109  0.1684  0.2159
    1DIPC   C4B25068  15.038  14.105   3.673 -0.2142  0.0152 -0.0018
    1DIPC   NC325069   1.953   0.772   2.662 -0.1277  0.2871 -0.0068
    1DIPC   PO425070   1.757   0.430   2.905 -0.0079 -0.0714 -0.2238
    1DIPC   GL125071   1.933   0.414   3.339 -0.2170  0.0898 -0.0456
    1DIPC   GL225072   1.905   0.718   3.446 -0.2035  0.4525  0.0780
    1DIPC   C1A25073   2.100   0.422   3.750 -0.0831 -0.1245 -0.0332
    1DIPC   D2A25074   2.062   0.511   4.164 -0.1595  0.1511  0.2065
    1DIPC   D3A25075   1.750   0.406   4.471 -0.2280 -0.0383  0.0710
    1DIPC   C4A25076   1.540   0.000   4.691 -0.1413 -0.2393  0.0404
    1DIPC   C1B25077   1.588   0.997   3.506  0.0221  0.1999 -0.2389
    1DIPC   D2B25078   1.315   1.204   3.380 -0.1326  0.3334 -0.2381
    1DIPC   D3B25079   1.077   1.022   3.758  0.2210  0.1158  0.1271
    1DIPC   C4B25080   1.167   0.707   4.062 -0.0530  0.2292 -0.2039
    1DIPC   NC325081  28.014  27.202   3.028  0.0435 -0.0650  0.0707
    1DIPC   PO425082  28.228  27.577   3.204  0.1007 -0.1039  0.2593
    1DIPC   GL125083  27.945  27.504   3.478 -0.1328 -0.1706 -0.0886
    1DIPC   GL225084  27.983  27.457   3.815  0.1143 -0.0611  0.2069
    1DIPC   C1A25085  27.898  27.013   3.618 -0.2083 -0.1253  0.0565
    1DIPC   D2A25086  27.694  26.621   3.493 -0.0680  0.0851 -0.0186
    1DIPC   D3A25087  27.630  26.243   3.717 -0.2536 -0.0975  0.1059
    1DIPC   C4A25088  27.957  26.134   3.990 -0.0721  0.4827 -0.0084
    1DIPC   C1B25089  28.166  27.615   4.140 -0.2664 -0.2688  0.0677
    1DIPC   D2B25090  28.208  27.423   4.555  0.1174 -0.2635 -0.2783
    1DIPC   D3B25091  28.452  27.034   4.572  0.1125  0.0940  0.0776
    1DIPC   C4B25092  28.260  26.624   4.821  0.0282 -0.0016  0.0444
    1DIPC   NC325093  24.079   8.824   2.497 -0.3579  0.0892  0.0507
    1DIPC   PO425094  24.270   8.933   2.857  0.0148  0.2149 -0.0796
    1DIPC   GL125095  24.277   8.910   3.312 -0.2359  0.0154 -0.4258
    1DIPC   GL225096  24.506   8.643   3.441  0.0536 -0.1518  0.0020
    1DIPC   C1A25097  24.100   8.979   3.706  0.3053 -0.0702  0.1030
    1DIPC   D2A25098  24.095   9.089   4.154  0.1167  0.3494  0.0959
    1DIPC   D3A25099  24.509   9.247   4.290 -0.1698 -0.0986  0.0393
    1DIPC   C4A25100  24.593   8.937   4.667  0.1042  0.0801 -0.1418
    1DIPC   C1B25101  24.489   8.843   3.933 -0.2661  0.0713 -0.2884
    1DIPC   D2B25102  24.872   8.927   4.191 -0.3215  0.2375  0.1309
    1DIPC   D3B25103  25.190   9.142   3.831  0.2378  0.0318 -0.0332
    1DIPC   C4B25104  25.337   9.399   3.490  0.1892  0.0731 -0.1802
    1DIPC   NC325105  22.156   6.693   3.583  0.4716 -0.0428  0.1692
    1DIPC   PO425106  22.540   6.631   3.692  0.0769  0.0087 -0.1902
    1DIPC   GL125107  22.418   6.834   4.066 -0.0689  0.0637  0.0587
    1DIPC   GL225108  22.256   7.050   3.936  0.0417  0.1054  0.1974
    1DIPC   C1A25109  22.291   6.743   4.513 -0.0045  0.2439 -0.1335
    1DIPC   D2A25110  22.243   6.202   4.573 -0.1750 -0.2003 -0.1740
    1DIPC   D3A25111  22.455   6.026   4.829  0.2464  0.1258  0.1339
    1DIPC   C4A25112  22.485   5.977   5.270 -0.0283  0.0020  0.1178
    1DIPC   C1B25113  22.226   7.334   4.305  0.1587  0.0680 -0.0574
    1DIPC   D2B25114  22.404   7.392   4.740  0.3434  0.0307 -0.1983
    1DIPC   D3B25115  22.080   7.161   4.999 -0.0253 -0.0692  0.2384
    1DIPC   C4B25116  21.621   7.316   5.029  0.2041  0.0036  0.1635
    1DIPC   NC325117  14.453  17.387   3.133 -0.1019 -0.4099  0.2129
    1DIPC   PO425118  14.548  17.736   3.223  0.2069 -0.1186 -0.1054
    1DIPC   GL125119  14.367  17.866   3.477  0.2514 -0.1080  0.2056
    1DIPC   GL225120  14.283  17.558   3.590  0.2318 -0.2595  0.3510
    1DIPC   C1A25121  14.156  17.980   3.862 -0.0739  0.2073 -0.1379
    1DIPC   D2A25122  13.768  17.796   4.042 -0.0301  0.0489 -0.1491
    1DIPC   D3A25123  13.420  17.620   4.315  0.0120 -0.0759 -0.0212
    1DIPC   C4A25124  13.534  17.358   4.588  0.0584 -0.0935  0.2559
    1DIPC   C1B25125  14.251  17.544   4.017 -0.0534 -0.3398 -0.0817
    1DIPC   D2B25126  14.298  17.924   4.322  0.3345  0.0362 -0.1013
    1DIPC   D3B25127  14.082  18.017   4.744  0.0310 -0.2406 -0.1333
    1DIPC   C4B25128  14.440  18.024   5.052 -0.0356  0.1309 -0.3074
    1DIPC   NC325129  18.968   3.794   3.192 -0.1581 -0.2449 -0.1025
    1DIPC   PO425130  18.955   3.712   3.627  0.5267 -0.2038  0.1694
    1DIPC   GL125131  18.658   3.558   3.893 -0.2534  0.0443  0.2316
    1DIPC   GL225132  18.443   3.328   3.770  0.0315  0.0379 -0.1604
    1DIPC   C1A25133  18.582   3.275   4.255 -0.1848  0.1948  0.3314
    1DIPC   D2A25134  18.216   3.158   4.526 -0.3272  0.2504 -0.0873
    1DIPC   D3A25135  18.007   3.166   4.970  0.0924 -0.0991 -0.1888
    1DIPC   C4A25136  18.022   2.871   5.328 -0.1243 -0.2613  0.3577
    1DIPC   C1B25137  18.240   3.066   3.956 -0.2062  0.1462  0.1410
    1DIPC   D2B25138  18.033   2.749   4.233 -0.0187 -0.0304  0.1328
    1DIPC   D3B25139  18.522   2.794   4.259 -0.0020  0.0137  0.0479
    1DIPC   C4B25140  18.740   2.636   4.645  0.2592  0.0378 -0.3863
    1DIPC   NC325141  22.041  13.897   1.731 -0.2106 -0.0668 -0.3168
    1DIPC   PO425142  22.265  13.714   1.989 -0.0135 -0.3284 -0.1148
    1DIPC   GL125143  22.173  13.875   2.378 -0.0489  0.3479  0.0508
    1DIPC   GL225144  22.202  13.514   2.462  0.1966  0.0399  0.0131
    1DIPC   C1A25145  22.081  13.867   2.821 -0.0469 -0.0540  0.0679
    1DIPC   D2A25146  22.108  14.075   3.171  0.0023  0.1263  0.0053
    1DIPC   D3A25147  22.532  13.936   3.386  0.2081  0.2398  0.0478
    1DIPC   C4A25148  22.538  13.916   3.763 -0.2838 -0.1825  0.5376
    1DIPC   C1B25149  22.205  13.259   2.746  0.0881 -0.0958  0.3089
    1DIPC   D2B25150  22.044  12.919   2.828  0.0984  0.1308  0.3003
    1DIPC   D3B25151  22.002  13.052   3.357  0.0035 -0.1068 -0.0637
    1DIPC   C4B25152  21.911  13.321   3.705  0.2417 -0.0590  0.4458
    1DIPC   NC325153  21.239  12.713   2.276 -0.1833  0.1880  0.0815
    1DIPC   PO425154  20.738  12.886   2.290 -0.1895  0.0791 -0.1730
    1DIPC   GL125155  20.620  12.922   2.676 -0.2995 -0.0165 -0.0366
    1DIPC   GL225156  20.219  12.921   2.655 -0.0614 -0.0226 -0.1255
    1DIPC   C1A25157  20.780  12.946   3.108  0.4013  0.1864 -0.2336
    1DIPC   D2A25158  21.067  13.037   3.435  0.1961 -0.0741  0.1622
    1DIPC   D3A25159  20.987  13.457   3.304 -0.1124 -0.0097  0.0511
    1DIPC   C4A25160  21.240  13.814   3.101  0.0723  0.2116  0.4245
    1DIPC   C1B25161  20.246  12.991   3.159 -0.1564 -0.1725 -0.0566
    1DIPC   D2B25162  20.457  13.296   3.393  0.2025 -0.2416  0.2221
    1DIPC   D3B25163  20.356  13.625   3.662 -0.3101  0.1256  0.1077
    1DIPC   C4B25164  20.034  13.864   3.505 -0.3211 -0.2384 -0.1712
    1DIPC   NC325165  15.438  26.645   3.284  0.0403  0.0526 -0.1729
    1DIPC   PO425166  15.720  26.324   3.084 -0.1905 -0.3883 -0.0452
    1DIPC   GL125167  15.791  26.163   3.480 -0.2878  0.2880 -0.0759
    1DIPC   GL225168  15.600  25.881   3.455  0.1969  0.0120 -0.0742
    1DIPC   C1A25169  15.897  26.412   3.858  0.1556  0.0446 -0.1935
    1DIPC   D2A25170  16.094  26.763   4.086  0.3035  0.1038  0.0446
    1DIPC   D3A25171  15.789  27.017   4.245  0.1165  0.1358 -0.1164
    1DIPC   C4A25172  15.684  27.274   3.961 -0.0163 -0.1530  0.0440
    1DIPC   C1B25173  15.622  25.813   3.854  0.1650  0.3605 -0.0502
    1DIPC   D2B25174  15.704  25.870   4.252  0.0843 -0.2098  0.0790
    1DIPC   D3B25175  15.550  25.798   4.652 -0.2681  0.4464 -0.0441
    1DIPC   C4B25176  15.124  25.764   4.671 -0.3258  0.1144 -0.2427
    1DIPC   NC325177  21.764  12.362   1.854  0.1516 -0.0244  0.3115
    1DIPC   PO425178  21.674  12.740   2.093  0.3066 -0.1437 -0.1357
    1DIPC   GL125179  21.770  12.531   2.420 -0.0325 -0.1203 -0.1195
    1DIPC   GL225180  21.620  12.355   2.731 -0.2923 -0.4344  0.0144
    1DIPC   C1A25181  22.100  12.474   2.619  0.1456  0.1530 -0.1891
    1DIPC   D2A25182  22.371  12.185   2.825 -0.2900 -0.2168  0.3199
    1DIPC   D3A25183  21.969  12.073   3.011 -0.2547 -0.0317 -0.1478
    1DIPC   C4A25184  21.952  11.696   3.211 -0.0272 -0.0229  0.3805
    1DIPC   C1B25185  21.874  12.501   3.195 -0.3404 -0.3468  0.2166
    1DIPC   D2B25186  22.301  12.495   3.323 -0.1159 -0.2788 -0.0192
    1DIPC   D3B25187  22.338  12.104   3.381  0.1887 -0.1040 -0.2449
    1DIPC   C4B25188  22.650  12.054   3.662  0.0560 -0.0927  0.0558
    1DIPC   NC325189  10.996   1.382   3.278 -0.1646  0.0225  0.2152
    1DIPC   PO425190  10.794   1.580   3.693 -0.1281  0.2495 -0.0012
    1DIPC   GL125191  10.532   1.508   4.045 -0.1842  0.0001  0.0642
    1DIPC   GL225192  10.514   1.158   4.268  0.4008 -0.1243  0.1320
    1DIPC   C1A25193  10.499   1.642   4.429  0.1468 -0.0969 -0.0167
    1DIPC   D2A25194  10.534   1.776   4.860 -0.3004  0.1161  0.1175
    1DIPC   D3A25195  10.943   1.624   5.041 -0.0603  0.2283  0.3559
    1DIPC   C4A25196  11.098   1.191   5.139  0.0545 -0.1823  0.2336
    1DIPC   C1B25197  10.556   0.820   4.379 -0.0738  0.0020  0.0742
    1DIPC   D2B25198  10.743   0.381   4.402  0.1264 -0.1304 -0.0889
    1DIPC   D3B25199  10.615   0.293   4.807 -0.0233  0.1761 -0.0952
    1DIPC   C4B25200  10.676  -0.019   5.056 -0.0244  0.1187  0.1529
    1DIPC   NC325201  18.878  13.362   2.247  0.1439 -0.0034 -0.2653
    1DIPC   PO425202  18.536  13.703   2.334  0.5207 -0.1572  0.0690
    1DIPC   GL125203  18.172  13.709   2.696 -0.1260 -0.0188  0.1612
    1DIPC   GL225204  18.272  13.945   3.026 -0.1011  0.0285 -0.1860
    1DIPC   C1A25205  17.788  13.962   2.859  0.2343  0.1892 -0.1489
    1DIPC   D2A25206  17.428  13.970   3.259  0.1057  0.5809  0.1526
    1DIPC   D3A25207  17.365  13.612   3.571 -0.0030  0.0007 -0.0258
    1DIPC   C4A25208  17.768  13.675   3.793 -0.0121 -0.2920 -0.1215
    1DIPC   C1B25209  18.337  13.756   3.426  0.2377 -0.1288 -0.0154
    1DIPC   D2B25210  18.534  13.725   3.890 -0.3064  0.0397  0.1211
    1DIPC   D3B25211  18.166  13.998   3.928  0.1906  0.1779 -0.1759
    1DIPC   C4B25212  18.158  14.106   4.353 -0.2567 -0.0118 -0.2446
    1DIPC   NC325213  19.529   9.143   2.800  0.1850 -0.0091 -0.3082
    1DIPC   PO425214  19.084   9.339   2.892 -0.1118 -0.0303  0.1081
    1DIPC   GL125215  18.880   9.627   3.176  0.0531  0.0857  0.1655
    1DIPC   GL225216  18.840   9.903   3.120 -0.1666  0.3779 -0.2804
    1DIPC   C1A25217  18.884   9.732   3.587 -0.2066  0.1059  0.0491
    1DIPC   D2A25218  19.000   9.856   3.913  0.0946  0.0109 -0.2197
    1DIPC   D3A25219  19.392   9.740   3.827 -0.1875  0.5472 -0.2659
    1DIPC   C4A25220  19.792   9.991   3.756  0.1574  0.0776  0.0411
    1DIPC   C1B25221  18.831  10.201   3.461 -0.1478  0.0620 -0.1325
    1DIPC   D2B25222  18.803  10.604   3.796 -0.0171  0.2984  0.3920
    1DIPC   D3B25223  18.922  11.100   3.699 -0.1009 -0.2046  0.2217
    1DIPC   C4B25224  19.314  11.187   3.597 -0.0732  0.1359 -0.0941
    1DIPC   NC325225  22.060  24.440   2.501 -0.1026 -0.0472 -0.1972
    1DIPC   PO425226  22.315  24.057   2.532 -0.3785  0.0867  0.2205
    1DIPC   GL125227  22.254  23.656   2.848 -0.0466 -0.2589  0.1801
    1DIPC   GL225228  22.389  23.542   3.124  0.2021 -0.2585 -0.3811
    1DIPC   C1A25229  21.825  23.519   2.934  0.0313  0.1136 -0.0429
    1DIPC   D2A25230  21.543  23.195   2.939 -0.0521  0.0504 -0.1070
    1DIPC   D3A25231  21.182  23.302   3.035  0.0994 -0.4373  0.1762
    1DIPC   C4A25232  20.904  23.307   3.308  0.1188 -0.0309  0.1530
    1DIPC   C1B25233  22.189  23.377   3.339  0.0440 -0.0421 -0.1110
    1DIPC   D2B25234  21.768  23.547   3.408  0.0584  0.4087  0.1336
    1DIPC   D3B25235  21.461  23.194   3.461  0.0674  0.1698  0.0493
    1DIPC   C4B25236  21.097  23.048   3.706  0.1131  0.0192  0.1234
    1DIPC   NC325237  21.352  11.648   2.056 -0.0883  0.0348 -0.1489
    1DIPC   PO425238  21.045  11.958   2.190  0.1530  0.3996 -0.0833
    1DIPC   GL125239  21.091  12.014   2.705  0.1388  0.0608 -0.3652
    1DIPC   GL225240  21.124  12.343   2.589 -0.0742 -0.1561 -0.0448
    1DIPC   C1A25241  21.284  12.241   3.042 -0.2909 -0.1059 -0.1366
    1DIPC   D2A25242  21.358  12.676   3.208 -0.1805 -0.0859 -0.0381
    1DIPC   D3A25243  21.509  12.904   3.508  0.0699  0.0873 -0.0635
    1DIPC   C4A25244  21.844  12.600   3.790  0.2314 -0.2189 -0.1513
    1DIPC   C1B25245  20.960  12.585   2.869 -0.2289  0.3609 -0.0732
    1DIPC   D2B25246  20.922  12.483   3.316 -0.0457  0.1419  0.0236
    1DIPC   D3B25247  21.156  12.515   3.646  0.0721  0.3043 -0.2803
    1DIPC   C4B25248  21.316  12.177   3.927 -0.0032  0.0116  0.2343
    1DIPC   NC325249  23.307   0.587   3.516  0.1248 -0.0875  0.0367
    1DIPC   PO425250  23.511   0.240   3.553 -0.2094 -0.3432  0.0084
    1DIPC   GL125251  23.516   0.360   3.978  0.0130  0.2707  0.3659
    1DIPC   GL225252  23.183   0.571   4.050  0.0486  0.0487 -0.1177
    1DIPC   C1A25253  23.674   0.251   4.368  0.0310  0.0626 -0.1294
    1DIPC   D2A25254  23.564  -0.205   4.526  0.1549 -0.0993  0.2731
    1DIPC   D3A25255  23.960  -0.313   4.599 -0.0183 -0.1661 -0.0736
    1DIPC   C4A25256  24.361  -0.225   4.894 -0.0948  0.0218 -0.0239
    1DIPC   C1B25257  22.842   0.590   4.302 -0.0211 -0.0866  0.1831
    1DIPC   D2B25258  22.588   0.700   4.615  0.2609 -0.0339 -0.0608
    1DIPC   D3B25259  22.891   0.913   4.842 -0.0676 -0.1717 -0.3008
    1DIPC   C4B25260  22.999   1.359   4.743  0.0345 -0.1679  0.0011
    1DIPC   NC325261  19.745  13.139   1.924  0.3335  0.0607 -0.2530
    1DIPC   PO425262  19.295  13.059   2.113  0.0091 -0.0979 -0.1222
    1DIPC   GL125263  19.234  13.105   2.511 -0.3196 -0.0323  0.1891
    1DIPC   GL225264  19.315  12.838   2.731  0.0950  0.0781 -0.1943
    1DIPC   C1A25265  19.326  13.479   2.797 -0.1786 -0.0494  0.1430
    1DIPC   D2A25266  19.240  13.538   3.207  0.1824  0.2664 -0.2080
    1DIPC   D3A25267  19.481  13.259   3.537  0.0466 -0.0965 -0.3459
    1DIPC   C4A25268  19.431  13.300   4.038  0.1084  0.0630  0.1337
    1DIPC   C1B25269  18.914  12.696   2.714  0.1753  0.2173  0.2958
    1DIPC   D2B25270  18.456  12.654   2.791  0.1004 -0.0414 -0.2497
    1DIPC   D3B25271  18.763  12.803   3.234  0.3234 -0.0544  0.2814
    1DIPC   C4B25272  18.618  12.835   3.678 -0.1388  0.3562  0.1185
    1DIPC   NC325273   3.225  23.903   2.716 -0.0891 -0.2692  0.1533
    1DIPC   PO425274   2.876  23.834   3.060 -0.2475 -0.2289 -0.0315
    1DIPC   GL125275   2.635  23.948   3.418  0.2836 -0.1981  0.0957
    1DIPC   GL225276   2.424  23.619   3.338  0.1655 -0.0255 -0.1583
    1DIPC   C1A25277   2.537  24.351   3.733  0.5101  0.2364  0.2374
    1DIPC   D2A25278   2.663  24.366   4.228  0.0004  0.1135 -0.3036
    1DIPC   D3A25279   2.304  24.221   4.585  0.3130 -0.0660 -0.2288
    1DIPC   C4A25280   2.460  23.888   4.884  0.1278 -0.2664 -0.3088
    1DIPC   C1B25281   2.270  23.908   3.707  0.1551  0.0360 -0.1922
    1DIPC   D2B25282   2.042  23.915   4.178  0.3746 -0.2980  0.0072
    1DIPC   D3B25283   1.787  23.852   4.541 -0.0768 -0.2511 -0.1079
    1DIPC   C4B25284   1.992  23.851   4.977  0.0384 -0.2165 -0.2390
    1DIPC   NC325285   1.536   1.362   2.875 -0.2713  0.1377  0.0911
    1DIPC   PO425286   1.937   1.212   2.765  0.0353  0.1509 -0.3043
    1DIPC   GL125287   1.971   1.164   3.231 -0.1167 -0.1808 -0.1296
    1DIPC   GL225288   1.875   1.504   3.230  0.1123 -0.0303  0.0453
    1DIPC   C1A25289   2.122   1.191   3.659 -0.0848  0.0272  0.3949
    1DIPC   D2A25290   1.984   1.070   4.196  0.0290 -0.0617  0.1146
    1DIPC   D3A25291   1.796   0.889   4.572 -0.2892 -0.0296  0.0283
    1DIPC   C4A25292   1.470   1.182   4.730  0.1209  0.1237  0.0456
    1DIPC   C1B25293   1.666   1.429   3.692  0.0749  0.0461  0.0595
    1DIPC   D2B25294   1.295   1.526   3.937 -0.0284  0.0300 -0.0637
    1DIPC   D3B25295   1.182   1.587   4.383 -0.1544 -0.0252 -0.3147
    1DIPC   C4B25296   1.024   1.205   4.436 -0.1572 -0.0308 -0.1890
    1DIPC   NC325297   3.273   4.272   2.995 -0.0929 -0.5202 -0.0105
    1DIPC   PO425298   3.159   3.995   3.237  0.0236  0.0209  0.3394
    1DIPC   GL125299   3.037   3.713   3.520 -0.1193 -0.0576 -0.3792
    1DIPC   GL225300   3.000   3.329   3.541 -0.1927 -0.1309  0.0014
    1DIPC   C1A25301   3.100   3.741   3.889  0.1553 -0.0387  0.0353
    1DIPC   D2A25302   3.034   4.025   4.249 -0.0705  0.0091  0.1580
    1DIPC   D3A25303   2.636   4.197   4.295 -0.0258  0.0378 -0.0486
    1DIPC   C4A25304   2.453   4.016   4.652  0.3291 -0.1577 -0.1151
    1DIPC   C1B25305   2.996   3.267   4.005  0.1442  0.0778  0.0469
    1DIPC   D2B25306   3.146   3.016   4.298  0.1079 -0.1400  0.1041
    1DIPC   D3B25307   2.810   3.016   4.492 -0.2193 -0.0523  0.1280
    1DIPC   C4B25308   2.855   2.940   4.885 -0.0874  0.1765  0.2373
    1DIPC   NC325309  24.730  12.077   1.724  0.3301  0.0121 -0.1516
    1DIPC   PO425310  24.531  12.525   1.853 -0.1991  0.1395 -0.0483
    1DIPC   GL125311  24.760  12.552   2.243  0.2167 -0.0453 -0.3186
    1DIPC   GL225312  24.612  12.710   2.443 -0.1114 -0.0885 -0.0547
    1DIPC   C1A25313  25.096  12.688   2.551 -0.2120  0.0834 -0.3493
    1DIPC   D2A25314  25.240  12.957   2.880 -0.0425 -0.0318 -0.1538
    1DIPC   D3A25315  25.646  12.811   2.736 -0.1818 -0.0633  0.1400
    1DIPC   C4A25316  25.925  12.973   3.117  0.1766 -0.0733  0.0928
    1DIPC   C1B25317  24.263  12.896   2.400 -0.1910  0.1239 -0.0653
    1DIPC   D2B25318  24.004  13.140   2.727  0.0582 -0.1338  0.0810
    1DIPC   D3B25319  24.278  13.059   3.037  0.0748  0.1118 -0.1854
    1DIPC   C4B25320  24.572  13.304   3.176  0.0221  0.1773 -0.1956
    1DIPC   NC325321   4.680  27.575   3.101  0.0316 -0.0431  0.1558
    1DIPC   PO425322   4.526  27.132   3.082  0.0847  0.0296  0.1258
    1DIPC   GL125323   4.685  27.259   3.531  0.0580 -0.0947 -0.0947
    1DIPC   GL225324   4.385  27.426   3.577  0.0960  0.0790  0.0858
    1DIPC   C1A25325   4.799  27.363   3.845 -0.2046 -0.1166  0.1795
    1DIPC   D2A25326   4.814  27.649   4.186 -0.1592  0.0880 -0.5186
    1DIPC   D3A25327   5.028  27.595   4.511 -0.5094 -0.1299 -0.0634
    1DIPC   C4A25328   5.211  27.871   4.723 -0.0150  0.0525  0.0017
    1DIPC   C1B25329   4.013  27.754   3.564  0.0314  0.2658  0.0620
    1DIPC   D2B25330   3.936  28.160   3.540 -0.0293  0.1716  0.0128
    1DIPC   D3B25331   3.710  28.295   3.849 -0.1100 -0.1364  0.4975
    1DIPC   C4B25332   3.550  28.075   4.355  0.2414  0.0685  0.0507
    1DIPC   NC325333  11.030  25.464   2.901 -0.1941 -0.1889  0.2739
    1DIPC   PO425334  10.661  25.612   3.228 -0.1419  0.2964  0.0949
    1DIPC   GL125335  10.500  25.353   3.561  0.1000 -0.3865  0.1775
    1DIPC   GL225336  10.308  25.042   3.534  0.0215 -0.2136 -0.0453
    1DIPC   C1A25337  10.528  25.334   3.911 -0.0972 -0.1689  0.2481
    1DIPC   D2A25338  10.604  25.307   4.365 -0.0202 -0.0545 -0.1513
    1DIPC   D3A25339  10.425  25.044   4.606 -0.1534  0.1369 -0.0677
    1DIPC   C4A25340  10.216  25.137   5.118  0.1022  0.2416 -0.1101
    1DIPC   C1B25341  10.130  24.642   3.720 -0.2726 -0.1328  0.1968
    1DIPC   D2B25342   9.878  24.364   4.034 -0.1039  0.0144 -0.0288
    1DIPC   D3B25343   9.719  24.089   4.337  0.5088  0.0219  0.1759
    1DIPC   C4B25344   9.440  23.805   4.276 -0.2889 -0.1223 -0.0580
    1DIPC   NC325345  10.156  25.724   3.389  0.2548 -0.0810  0.1338
    1DIPC   PO425346  10.412  26.120   3.479  0.1352  0.2045  0.1691
    1DIPC   GL125347  10.649  25.850   3.720 -0.0347  0.4886 -0.0591
    1DIPC   GL225348  10.962  25.711   3.635  0.2962  0.0796 -0.3126
    1DIPC   C1A25349  10.785  25.767   4.153 -0.4635 -0.4569  0.1204
    1DIPC   D2A25350  11.039  25.558   4.356  0.0914 -0.1104  0.0352
    1DIPC   D3A25351  11.059  25.926   4.538  0.2165  0.3280 -0.0163
    1DIPC   C4A25352  10.936  26.433   4.370 -0.0808  0.1569  0.0607
    1DIPC   C1B25353  10.991  25.365   3.855 -0.0293 -0.0509  0.2136
    1DIPC   D2B25354  11.051  25.090   4.193  0.0195  0.1701  0.2439
    1DIPC   D3B25355  11.457  25.130   4.525  0.0611 -0.3999  0.0533
    1DIPC   C4B25356  11.398  25.115   4.933 -0.2947 -0.2807 -0.0403
    1DIPC   NC325357  11.658   3.850   3.728  0.1133 -0.0198 -0.1180
    1DIPC   PO425358  11.188   3.861   3.875  0.0500 -0.1718 -0.0950
    1DIPC   GL125359  11.372   4.108   4.089 -0.0378 -0.0271 -0.2031
    1DIPC   GL225360  11.616   3.914   4.232  0.4213 -0.2263 -0.0836
    1DIPC   C1A25361  11.608   4.499   4.301  0.5058 -0.0919 -0.0658
    1DIPC   D2A25362  11.553   4.892   4.239 -0.3890 -0.1859  0.1056
    1DIPC   D3A25363  11.836   5.049   4.565  0.3534 -0.0588  0.1193
    1DIPC   C4A25364  11.895   5.489   4.631 -0.2037  0.1194 -0.0841
    1DIPC   C1B25365  11.454   4.143   4.608  0.1958 -0.3066 -0.3231
    1DIPC   D2B25366  11.594   4.252   4.981 -0.1566 -0.0968  0.2791
    1DIPC   D3B25367  11.564   4.630   5.181  0.0624  0.1194 -0.0531
    1DIPC   C4B25368  11.521   4.805   5.525  0.3334 -0.1895  0.0429
    1DIPC   NC325369   7.367   1.633   3.096 -0.0439  0.1515 -0.0195
    1DIPC   PO425370   6.962   1.426   3.374 -0.1351  0.1253  0.1445
    1DIPC   GL125371   6.762   0.986   3.592 -0.2867  0.0936  0.2695
    1DIPC   GL225372   6.519   1.179   3.752  0.0026 -0.1367 -0.1707
    1DIPC   C1A25373   6.507   0.726   3.898  0.0892 -0.0390 -0.1573
    1DIPC   D2A25374   6.268   0.401   4.138 -0.2097  0.3669  0.1503
    1DIPC   D3A25375   6.513   0.672   4.513 -0.1651 -0.4178  0.3327
    1DIPC   C4A25376   6.295   0.834   4.905  0.0692  0.0998 -0.0670
    1DIPC   C1B25377   6.607   1.087   4.237  0.0908 -0.1176  0.3543
    1DIPC   D2B25378   6.681   1.425   4.409  0.1304  0.1769  0.0757
    1DIPC   D3B25379   7.019   1.406   4.663 -0.2314 -0.0090  0.0726
    1DIPC   C4B25380   7.063   1.331   5.061  0.2195 -0.3273 -0.1854
    1DIPC   NC325381  10.738  22.546   2.751 -0.2570 -0.1816  0.2692
    1DIPC   PO425382  11.067  22.178   2.792  0.5822 -0.0731 -0.1656
    1DIPC   GL125383  11.316  22.393   3.115 -0.3457  0.0018  0.0198
    1DIPC   GL225384  11.326  22.119   3.302  0.2095  0.0905 -0.0281
    1DIPC   C1A25385  11.611  22.580   3.299 -0.0366  0.0585  0.0487
    1DIPC   D2A25386  11.502  22.842   3.592  0.0683 -0.0299  0.2055
    1DIPC   D3A25387  11.275  22.489   3.832  0.0272 -0.0687  0.2750
    1DIPC   C4A25388  11.597  22.311   4.165 -0.1266 -0.0549  0.1227
    1DIPC   C1B25389  11.626  22.222   3.615 -0.0314 -0.0984 -0.0432
    1DIPC   D2B25390  11.991  22.485   3.634  0.1112  0.2509 -0.3620
    1DIPC   D3B25391  12.224  22.654   3.886 -0.1945  0.2923 -0.2327
    1DIPC   C4B25392  12.213  22.904   4.269  0.4866  0.0168 -0.0859
    1DIPC   NC325393  17.430  16.367   2.353  0.1191 -0.1289  0.1237
    1DIPC   PO425394  17.252  16.670   2.692  0.3548  0.2125  0.2314
    1DIPC   GL125395  17.270  16.498   3.162  0.0815 -0.0755 -0.1464
    1DIPC   GL225396  17.036  16.193   3.247  0.1591  0.1527  0.0596
    1DIPC   C1A25397  16.995  16.659   3.544  0.2821 -0.0806  0.1261
    1DIPC   D2A25398  17.073  16.682   3.971 -0.0348 -0.1460  0.1566
    1DIPC   D3A25399  17.170  16.971   4.313  0.0809 -0.0339  0.2606
    1DIPC   C4A25400  16.796  17.087   4.638 -0.0068 -0.1403 -0.2571
    1DIPC   C1B25401  17.086  16.144   3.666  0.0800 -0.0751 -0.2073
    1DIPC   D2B25402  17.001  16.135   4.127 -0.1946  0.0967  0.2829
    1DIPC   D3B25403  17.092  16.373   4.463  0.1831 -0.0446 -0.3308
    1DIPC   C4B25404  17.414  16.408   4.797  0.1550 -0.1114 -0.1380
    1DIPC   NC325405  17.406   5.919   3.648 -0.1230  0.2097  0.0245
    1DIPC   PO425406  17.837   5.990   3.715 -0.1493 -0.2809 -0.4494
    1DIPC   GL125407  17.870   6.104   4.212 -0.3145  0.1238  0.2617
    1DIPC   GL225408  17.571   6.244   4.240  0.2319  0.2429  0.0556
    1DIPC   C1A25409  18.017   6.443   4.519  0.0440 -0.0179 -0.3047
    1DIPC   D2A25410  18.011   6.867   4.526  0.1430 -0.3438  0.0631
    1DIPC   D3A25411  17.830   6.717   4.935  0.0967  0.2323 -0.1645
    1DIPC   C4A25412  17.461   6.629   5.138  0.1138  0.3185 -0.2110
    1DIPC   C1B25413  17.222   6.066   4.509  0.0516 -0.0569 -0.2878
    1DIPC   D2B25414  17.047   5.688   4.609  0.0076  0.1696  0.1574
    1DIPC   D3B25415  17.432   5.368   4.659 -0.2611 -0.1404 -0.0536
    1DIPC   C4B25416  17.704   5.231   5.039 -0.2144 -0.3232  0.3346
    1DIPC   NC325417  28.839  29.717   3.059  0.3038  0.3486  0.1203
    1DIPC   PO425418  29.087  29.845   3.328  0.0965 -0.0053 -0.0288
    1DIPC   GL125419  29.207  29.586   3.652  0.0424  0.0519  0.0906
    1DIPC   GL225420  28.996  29.291   3.762  0.0887 -0.1865 -0.0761
    1DIPC   C1A25421  29.555  29.315   3.915 -0.0395 -0.0210  0.2228
    1DIPC   D2A25422  29.587  28.974   4.260 -0.1728  0.1387  0.1931
    1DIPC   D3A25423  29.344  29.027   4.655 -0.3576 -0.2898  0.0673
    1DIPC   C4A25424  29.060  29.206   4.762  0.4012 -0.0116 -0.2516
    1DIPC   C1B25425  29.137  29.034   3.946  0.1544 -0.0457  0.3029
    1DIPC   D2B25426  29.201  28.663   4.379 -0.1337  0.0769 -0.0361
    1DIPC   D3B25427  28.927  28.696   4.715  0.1284  0.1314  0.0868
    1DIPC   C4B25428  29.154  28.782   5.138  0.2948 -0.0604  0.1894
    1DIPC   NC325429  11.352  16.122   2.728 -0.0822 -0.0206  0.0063
    1DIPC   PO425430  11.220  15.748   2.627  0.0602  0.3531 -0.0581
    1DIPC   GL125431  11.114  15.619   2.970 -0.1032  0.2113 -0.1618
    1DIPC   GL225432  11.118  15.978   3.222 -0.0674 -0.0392  0.0918
    1DIPC   C1A25433  11.402  15.561   3.298 -0.0679  0.1630  0.3287
    1DIPC   D2A25434  11.766  15.736   3.470  0.0621 -0.0513 -0.0936
    1DIPC   D3A25435  11.651  16.046   3.674  0.1492 -0.1425  0.0038
    1DIPC   C4A25436  11.482  16.202   4.039  0.1520  0.0661 -0.3740
    1DIPC   C1B25437  11.185  15.945   3.589  0.0475  0.2650  0.2327
    1DIPC   D2B25438  11.178  15.854   4.102  0.1125 -0.1412 -0.1462
    1DIPC   D3B25439  10.994  15.596   4.329  0.0395  0.0525 -0.1316
    1DIPC   C4B25440  11.088  15.184   4.143  0.1593  0.0919  0.0762
    1DIPC   NC325441  13.979  15.018   3.330  0.0329 -0.1797  0.1627
    1DIPC   PO425442  13.781  14.663   3.159  0.0223 -0.0683  0.3977
    1DIPC   GL125443  13.461  14.903   3.385 -0.1520 -0.2694 -0.0664
    1DIPC   GL225444  13.301  14.625   3.471 -0.0021  0.3254 -0.3563
    1DIPC   C1A25445  13.461  15.138   3.743  0.0623 -0.0909 -0.0951
    1DIPC   D2A25446  13.121  15.341   3.890 -0.4298 -0.1283 -0.2476
    1DIPC   D3A25447  13.146  15.478   4.312  0.0992  0.0213  0.1298
    1DIPC   C4A25448  13.344  15.239   4.596 -0.1062  0.0691  0.0359
    1DIPC   C1B25449  13.149  14.774   3.846 -0.1155 -0.1744  0.1504
    1DIPC   D2B25450  13.429  14.886   4.220 -0.0177 -0.0748  0.1743
    1DIPC   D3B25451  13.111  14.825   4.405  0.0339  0.0959  0.1958
    1DIPC   C4B25452  12.994  14.431   4.647  0.2213 -0.0649 -0.1427
    1DIPC   NC325453  23.608  23.543   2.015 -0.2909 -0.1971  0.2698
    1DIPC   PO425454  23.845  23.194   2.241 -0.1351 -0.3346 -0.1187
    1DIPC   GL125455  23.812  23.053   2.597  0.1907 -0.0312 -0.1149
    1DIPC   GL225456  23.917  22.804   2.692 -0.0263 -0.1931  0.1837
    1DIPC   C1A25457  23.898  23.161   3.095 -0.0167  0.0887  0.0750
    1DIPC   D2A25458  24.121  23.240   3.451  0.0900  0.0935 -0.0902
    1DIPC   D3A25459  24.419  23.011   3.641 -0.0321  0.2821  0.5710
    1DIPC   C4A25460  24.842  23.042   3.510 -0.1158  0.2214 -0.1511
    1DIPC   C1B25461  23.731  22.443   2.716 -0.0905  0.0977 -0.0593
    1DIPC   D2B25462  23.582  22.079   2.726 -0.2334 -0.1099  0.2912
    1DIPC   D3B25463  23.528  22.239   3.139 -0.1111  0.3779  0.2541
    1DIPC   C4B25464  23.626  22.647   3.205  0.0503 -0.2063  0.1891
    1DIPC   NC325465  22.531  23.614   2.395 -0.1177  0.0065  0.0507
    1DIPC   PO425466  22.217  23.275   2.418 -0.2462 -0.1446  0.0209
    1DIPC   GL125467  22.127  22.896   2.613  0.1835  0.1309  0.1288
    1DIPC   GL225468  21.990  23.071   2.841  0.0607 -0.1883  0.0459
    1DIPC   C1A25469  21.948  22.536   2.928 -0.0438  0.2579  0.1143
    1DIPC   D2A25470  22.204  22.334   3.194 -0.1297 -0.0144  0.2215
    1DIPC   D3A25471  22.259  22.625   3.590 -0.1558  0.3066 -0.0770
    1DIPC   C4A25472  22.056  22.784   3.981 -0.0489  0.1710 -0.1374
    1DIPC   C1B25473  21.884  22.964   3.256  0.3111  0.0484  0.1247
    1DIPC   D2B25474  21.965  23.125   3.698  0.0332 -0.3492  0.2273
    1DIPC   D3B25475  21.558  23.291   3.899  0.0542  0.3292 -0.0855
    1DIPC   C4B25476  21.618  23.594   3.945 -0.1104 -0.0824 -0.1504
    1DIPC   NC325477   0.505   3.724   2.823  0.0471  0.0107  0.1163
    1DIPC   PO425478   0.547   3.807   3.250 -0.1639  0.0437 -0.2705
    1DIPC   GL125479   0.631   3.669   3.646  0.3649  0.1329  0.0959
    1DIPC   GL225480   0.902   3.378   3.567 -0.5100  0.0847  0.1407
    1DIPC   C1A25481   0.627   3.433   4.003  0.2045 -0.1959 -0.2970
    1DIPC   D2A25482   0.677   3.441   4.435 -0.1555  0.2951 -0.1441
    1DIPC   D3A25483   0.365   3.736   4.578 -0.0035  0.1228  0.0202
    1DIPC   C4A25484  -0.010   3.819   4.645  0.1343  0.1321 -0.0581
    1DIPC   C1B25485   1.089   3.485   4.026 -0.0364  0.0388  0.0940
    1DIPC   D2B25486   1.268   3.524   4.473 -0.0259 -0.3169 -0.0906
    1DIPC   D3B25487   0.974   3.859   4.349  0.0474  0.1741  0.0055
    1DIPC   C4B25488   0.565   3.946   4.101 -0.1775 -0.0262  0.5200
    1DIPC   NC325489  22.444  13.203   2.062 -0.1628 -0.0054  0.3051
    1DIPC   PO425490  22.743  12.828   2.179  0.0814 -0.3669 -0.1046
    1DIPC   GL125491  22.943  12.724   2.592  0.0262 -0.0401  0.0733
    1DIPC   GL225492  23.244  12.641   2.609  0.2095  0.0120 -0.1971
    1DIPC   C1A25493  23.029  12.994   2.963 -0.1150 -0.2517  0.2132
    1DIPC   D2A25494  23.210  13.435   3.041 -0.1098  0.1250 -0.1984
    1DIPC   D3A25495  23.476  13.480   3.453 -0.2612  0.0276 -0.3254
    1DIPC   C4A25496  23.380  13.722   3.805 -0.3838  0.2244  0.0937
    1DIPC   C1B25497  23.361  12.529   2.981  0.1482 -0.1958  0.1799
    1DIPC   D2B25498  23.636  12.483   3.282  0.4947 -0.0040  0.3324
    1DIPC   D3B25499  23.928  12.192   3.119  0.0596  0.1735 -0.0097
    1DIPC   C4B25500  23.813  11.816   3.247 -0.2628 -0.1642  0.1186
    1DIPC   NC325501  17.233   7.667   3.064 -0.1692  0.0625 -0.1484
    1DIPC   PO425502  17.006   8.043   3.327 -0.0010 -0.2663  0.1552
    1DIPC   GL125503  17.238   8.009   3.680 -0.0523  0.1674  0.0321
    1DIPC   GL225504  17.158   8.234   3.935 -0.2738  0.2940  0.2461
    1DIPC   C1A25505  17.268   7.697   4.010 -0.3952  0.0978  0.0107
    1DIPC   D2A25506  17.339   7.569   4.447  0.3220  0.1923 -0.3361
    1DIPC   D3A25507  17.497   7.281   4.201  0.2357 -0.0553  0.0033
    1DIPC   C4A25508  17.128   7.229   3.870 -0.2001  0.0367  0.1353
    1DIPC   C1B25509  16.986   8.332   4.222  0.0750 -0.0315 -0.0962
    1DIPC   D2B25510  16.934   8.545   4.616 -0.1013 -0.1601  0.1574
    1DIPC   D3B25511  17.276   8.807   4.350 -0.2428  0.1553  0.0712
    1DIPC   C4B25512  17.037   8.828   3.957  0.2270 -0.3103  0.2445
    1DIPC   NC325513  10.425  17.820   2.324  0.0219 -0.0276  0.1789
    1DIPC   PO425514  10.726  18.205   2.517 -0.0629 -0.0359 -0.0683
    1DIPC   GL125515  10.931  18.205   2.940  0.0838 -0.1869  0.1561
    1DIPC   GL225516  11.135  18.408   2.976 -0.0629 -0.3917 -0.0028
    1DIPC   C1A25517  10.986  18.136   3.403  0.2124 -0.1029  0.2192
    1DIPC   D2A25518  11.078  18.173   3.883  0.0681 -0.0343  0.1199
    1DIPC   D3A25519  10.790  18.278   4.250  0.3708  0.0383  0.1778
    1DIPC   C4A25520  10.910  17.979   4.571  0.1146 -0.2227  0.3708
    1DIPC   C1B25521  11.142  18.604   3.461  0.1332 -0.3134 -0.1154
    1DIPC   D2B25522  10.813  18.574   3.801 -0.1353  0.3148 -0.1258
    1DIPC   D3B25523  11.120  18.812   3.963  0.2355 -0.0184 -0.0493
    1DIPC   C4B25524  11.196  18.726   4.332  0.2010  0.3889  0.0509
    1DIPC   NC325525   6.691   0.061   3.132 -0.0182  0.1454  0.0945
    1DIPC   PO425526   6.862   0.480   3.180 -0.2034  0.0143 -0.2085
    1DIPC   GL125527   6.894   0.518   3.586 -0.2695  0.3397 -0.0750
    1DIPC   GL225528   7.180   0.465   3.703 -0.3187 -0.1852  0.1730
    1DIPC   C1A25529   6.925   0.438   4.106  0.0514  0.0557  0.2637
    1DIPC   D2A25530   7.170   0.482   4.400  0.1275  0.0559  0.0219
    1DIPC   D3A25531   7.354   0.098   4.639 -0.0238 -0.2259 -0.0377
    1DIPC   C4A25532   7.775  -0.008   4.696 -0.1874  0.0024 -0.0617
    1DIPC   C1B25533   7.191   0.861   3.962  0.0692 -0.1370  0.3213
    1DIPC   D2B25534   7.271   1.267   4.230  0.1646 -0.0097 -0.1905
    1DIPC   D3B25535   7.007   0.951   4.472 -0.0080  0.1300  0.0752
    1DIPC   C4B25536   6.819   0.974   4.864 -0.1647 -0.3938  0.1483
    1DIPC   NC325537  24.194  16.160   1.567  0.0182 -0.1712  0.2444
    1DIPC   PO425538  24.374  16.484   1.407  0.0736 -0.0835 -0.1073
    1DIPC   GL125539  24.223  16.546   1.895 -0.3154 -0.1483 -0.2644
    1DIPC   GL225540  23.997  16.669   2.032 -0.0982 -0.0161 -0.0550
    1DIPC   C1A25541  24.234  16.435   2.391 -0.0057 -0.4134 -0.0676
    1DIPC   D2A25542  24.088  16.358   2.805  0.1781  0.2286 -0.0841
    1DIPC   D3A25543  23.985  16.714   2.996 -0.0360  0.0270  0.1188
    1DIPC   C4A25544  23.717  16.696   3.343  0.1625 -0.2950 -0.1001
    1DIPC   C1B25545  24.361  16.924   2.201  0.2188 -0.0256  0.3432
    1DIPC   D2B25546  24.705  16.880   2.493 -0.1217 -0.1299  0.2210
    1DIPC   D3B25547  24.667  16.559   2.788  0.1371 -0.4792  0.0750
    1DIPC   C4B25548  25.013  16.426   3.089 -0.0522 -0.2573  0.1534
    1DIPC   NC325549  15.095   0.629   2.752  0.2231 -0.1669 -0.2396
    1DIPC   PO425550  15.176   1.142   2.815 -0.0740  0.2688  0.1229
    1DIPC   GL125551  15.236   1.210   3.279  0.0530  0.4836 -0.1989
    1DIPC   GL225552  15.116   1.512   3.212 -0.1051  0.2288  0.2033
    1DIPC   C1A25553  15.346   1.302   3.751 -0.2804  0.3268 -0.1729
    1DIPC   D2A25554  15.275   1.224   4.291  0.1210 -0.0046  0.0587
    1DIPC   D3A25555  14.880   1.284   4.626 -0.0781 -0.1865  0.2930
    1DIPC   C4A25556  14.557   1.143   4.988  0.1787 -0.1271 -0.2898
    1DIPC   C1B25557  15.028   1.958   3.284 -0.2806  0.0903  0.0504
    1DIPC   D2B25558  14.907   2.362   3.400 -0.0195  0.1964 -0.1538
    1DIPC   D3B25559  15.064   2.488   3.760  0.1843  0.3656 -0.0838
    1DIPC   C4B25560  15.115   2.772   3.912 -0.1675 -0.0188  0.3062
    1DIPC   NC325561   5.425   3.498   3.296  0.1283 -0.3383  0.1803
    1DIPC   PO425562   5.200   3.076   3.148  0.1379 -0.2676 -0.0729
    1DIPC   GL125563   5.263   3.099   3.522  0.0555 -0.1757 -0.0550
    1DIPC   GL225564   5.431   2.882   3.736 -0.0191 -0.1988 -0.0779
    1DIPC   C1A25565   4.937   3.204   3.947 -0.2449  0.3559  0.0411
    1DIPC   D2A25566   4.724   2.831   4.248  0.0226 -0.0436  0.0022
    1DIPC   D3A25567   4.673   2.777   3.787 -0.0636  0.3541  0.0792
    1DIPC   C4A25568   4.441   3.194   3.599 -0.0110 -0.0750  0.0089
    1DIPC   C1B25569   5.333   3.093   4.229 -0.1414 -0.1353 -0.1092
    1DIPC   D2B25570   5.442   3.017   4.653  0.1641 -0.2052 -0.1742
    1DIPC   D3B25571   5.317   2.717   4.987  0.1478 -0.1615 -0.0188
    1DIPC   C4B25572   5.648   2.477   5.091  0.1394 -0.1046  0.1780
    1DIPC   NC325573  19.183   7.653   3.350  0.1035 -0.3476  0.2362
    1DIPC   PO425574  19.675   7.655   3.256 -0.0318 -0.0430 -0.0377
    1DIPC   GL125575  19.506   8.013   3.522  0.2565 -0.1664  0.1110
    1DIPC   GL225576  19.771   8.111   3.647 -0.2667 -0.0492  0.3833
    1DIPC   C1A25577  19.062   8.215   3.659  0.2479 -0.5260  0.1544
    1DIPC   D2A25578  18.974   8.355   3.999  0.2419  0.0979  0.1626
    1DIPC   D3A25579  18.667   8.126   4.274  0.2443  0.0410  0.2038
    1DIPC   C4A25580  18.594   7.778   4.102 -0.2672  0.1902 -0.0211
    1DIPC   C1B25581  19.712   8.280   3.907 -0.0072 -0.2815  0.0115
    1DIPC   D2B25582  19.696   8.623   4.269  0.1738  0.0167  0.0475
    1DIPC   D3B25583  19.677   9.072   4.274  0.0117  0.0629 -0.1043
    1DIPC   C4B25584  19.809   9.361   4.628 -0.0081 -0.0458 -0.0038
    1DIPC   NC325585  10.658  10.697   2.982  0.0657 -0.2889 -0.0222
    1DIPC   PO425586  10.881  11.080   3.105  0.1619 -0.0168 -0.0237
    1DIPC   GL125587  10.872  10.805   3.419 -0.0611 -0.2300 -0.0450
    1DIPC   GL225588  10.725  10.519   3.456 -0.0573 -0.3279 -0.0761
    1DIPC   C1A25589  11.043  10.570   3.858 -0.1909 -0.1792 -0.0344
    1DIPC   D2A25590  11.241  10.272   3.930  0.0068  0.2187  0.1519
    1DIPC   D3A25591  11.304  10.474   4.359  0.1856  0.0853  0.0218
    1DIPC   C4A25592  11.344  10.563   4.774 -0.0054 -0.0869  0.1841
    1DIPC   C1B25593  10.546  10.601   3.898 -0.2251  0.2407  0.0802
    1DIPC   D2B25594  10.483  10.989   4.137 -0.0872 -0.0551 -0.0017
    1DIPC   D3B25595  10.708  10.907   4.322 -0.1054 -0.2266  0.1948
    1DIPC   C4B25596  10.653  10.595   4.582  0.3030 -0.0115 -0.2396
    1DIPC   NC325597  25.934  24.115   2.495  0.1965 -0.2443  0.2852
    1DIPC   PO425598  26.045  24.427   2.684 -0.2133 -0.0314 -0.0791
    1DIPC   GL125599  26.103  24.211   3.032 -0.1014 -0.0529 -0.3915
    1DIPC   GL225600  25.827  24.053   3.127 -0.2252  0.0837 -0.1398
    1DIPC   C1A25601  26.166  23.885   3.442 -0.1132  0.0035 -0.0502
    1DIPC   D2A25602  26.153  23.524   3.687 -0.2001  0.1848  0.1386
    1DIPC   D3A25603  26.409  23.342   3.987 -0.0937 -0.0847 -0.1603
    1DIPC   C4A25604  26.800  23.033   3.976 -0.1249 -0.3690 -0.1010
    1DIPC   C1B25605  25.752  24.133   3.588  0.0716 -0.0095  0.1132
    1DIPC   D2B25606  25.822  23.908   3.974  0.2891 -0.0808  0.2505
    1DIPC   D3B25607  25.633  24.095   4.358 -0.2439 -0.0329  0.1538
    1DIPC   C4B25608  25.735  24.073   4.815  0.1603  0.1575  0.1096
    1DIPC   NC325609  26.935  27.625   3.286  0.0051  0.2460  0.2368
    1DIPC   PO425610  26.724  28.080   3.400 -0.1848 -0.0629  0.1643
    1DIPC   GL125611  26.795  28.013   3.738  0.2739  0.1015  0.3793
    1DIPC   GL225612  27.024  28.291   3.841 -0.0971 -0.3289  0.1501
    1DIPC   C1A25613  26.548  27.792   4.044  0.2228 -0.0088 -0.0727
    1DIPC   D2A25614  26.298  27.802   4.443 -0.0812 -0.2334 -0.2667
    1DIPC   D3A25615  26.114  28.080   4.232 -0.1055  0.1129 -0.2779
    1DIPC   C4A25616  25.780  28.265   4.047 -0.4064  0.1814  0.1680
    1DIPC   C1B25617  27.269  27.948   3.912 -0.0649 -0.2466 -0.0805
    1DIPC   D2B25618  27.222  27.587   4.342  0.1751 -0.2065 -0.2565
    1DIPC   D3B25619  27.046  27.217   4.157  0.0444 -0.0848  0.3716
    1DIPC   C4B25620  26.589  27.303   4.230  0.1329 -0.0193  0.2002
    1DIPC   NC325621   5.541   7.886   3.027 -0.3526  0.0025  0.1886
    1DIPC   PO425622   5.972   7.889   3.201  0.2700 -0.0758  0.0248
    1DIPC   GL125623   5.869   7.826   3.631 -0.4274 -0.4218  0.1511
    1DIPC   GL225624   5.996   7.624   3.784  0.3558 -0.0401 -0.1949
    1DIPC   C1A25625   5.703   8.065   4.034 -0.1221  0.3948  0.0253
    1DIPC   D2A25626   5.876   8.156   4.432 -0.1246 -0.1792 -0.1757
    1DIPC   D3A25627   5.535   8.389   4.521 -0.1758  0.1945  0.1482
    1DIPC   C4A25628   5.244   8.407   4.081 -0.3838 -0.3353 -0.0886
    1DIPC   C1B25629   6.175   7.759   4.201  0.1468  0.2872  0.1102
    1DIPC   D2B25630   6.083   7.701   4.679  0.1509  0.2053  0.0241
    1DIPC   D3B25631   5.998   7.680   5.152  0.1273 -0.1260  0.2135
    1DIPC   C4B25632   5.770   7.357   5.439 -0.1843  0.0607  0.1340
    1DIPC   NC325633   7.958  24.241   2.787 -0.0360  0.0220 -0.1001
    1DIPC   PO425634   8.330  24.139   2.722  0.0941 -0.0811  0.2068
    1DIPC   GL125635   8.491  24.144   3.063 -0.0210 -0.1782  0.0685
    1DIPC   GL225636   8.327  24.226   3.330 -0.2797 -0.2794 -0.0574
    1DIPC   C1A25637   8.840  24.210   3.360 -0.4147  0.2277 -0.0782
    1DIPC   D2A25638   8.911  24.161   3.759 -0.0998  0.1952  0.2140
    1DIPC   D3A25639   8.762  24.198   4.123  0.0821  0.3698  0.1552
    1DIPC   C4A25640   8.435  24.445   4.313  0.0385 -0.1140  0.1539
    1DIPC   C1B25641   8.493  23.893   3.590  0.0274 -0.1536 -0.0557
    1DIPC   D2B25642   8.517  23.679   3.943  0.1141 -0.0253  0.3041
    1DIPC   D3B25643   8.421  23.861   4.287  0.3806  0.0261 -0.0907
    1DIPC   C4B25644   8.244  23.933   4.695  0.3791 -0.0208 -0.4633
    1DIPC   NC325645   9.704   7.485   2.868 -0.0837 -0.4464  0.0794
    1DIPC   PO425646   9.484   7.176   3.185  0.3290 -0.0497 -0.1092
    1DIPC   GL125647   9.363   7.418   3.610  0.1000 -0.1429  0.0741
    1DIPC   GL225648   8.920   7.435   3.790 -0.0009 -0.0964 -0.1825
    1DIPC   C1A25649   9.439   7.497   4.017  0.3965  0.0964 -0.0589
    1DIPC   D2A25650   9.386   7.104   4.140  0.1327  0.1941 -0.1057
    1DIPC   D3A25651   9.763   7.229   4.332 -0.1242  0.0191  0.0765
    1DIPC   C4A25652   9.868   6.960   4.610 -0.0372 -0.0432 -0.0615
    1DIPC   C1B25653   8.686   7.669   3.961  0.0086  0.1573  0.0945
    1DIPC   D2B25654   8.714   8.041   4.205 -0.1831 -0.0050  0.0833
    1DIPC   D3B25655   8.765   8.043   4.678  0.2212  0.1614 -0.0734
    1DIPC   C4B25656   8.613   7.833   5.023 -0.0908 -0.0019 -0.0673
    1DIPC   NC325657  18.960  17.267   2.797 -0.0368  0.1027 -0.1000
    1DIPC   PO425658  19.011  16.795   2.893 -0.1335  0.0471 -0.1492
    1DIPC   GL125659  18.970  16.643   3.326 -0.2345  0.0384  0.0711
    1DIPC   GL225660  19.318  16.445   3.324 -0.0083 -0.0952 -0.0647
    1DIPC   C1A25661  19.031  16.562   3.798 -0.1868  0.0082 -0.0321
    1DIPC   D2A25662  18.866  16.123   4.015  0.4149 -0.3421 -0.0210
    1DIPC   D3A25663  19.298  15.957   4.187 -0.2390 -0.1098 -0.1746
    1DIPC   C4A25664  19.218  15.617   4.424 -0.1442 -0.1251  0.1293
    1DIPC   C1B25665  19.420  16.254   3.767  0.0104 -0.2118  0.2637
    1DIPC   D2B25666  19.424  16.436   4.124  0.2108 -0.0358 -0.0032
    1DIPC   D3B25667  19.448  16.824   4.251 -0.0157  0.2338 -0.2171
    1DIPC   C4B25668  19.088  17.192   4.160 -0.0411  0.0756  0.0421
    1DIPC   NC325669   5.948   2.558   3.154 -0.0479  0.0434  0.0816
    1DIPC   PO425670   5.571   2.375   3.416 -0.3007 -0.2959 -0.0567
    1DIPC   GL125671   5.318   2.387   3.786 -0.1699 -0.0029  0.1611
    1DIPC   GL225672   5.145   2.104   3.677  0.1070 -0.2671  0.1228
    1DIPC   C1A25673   5.014   2.440   4.048  0.1296  0.2939  0.1454
    1DIPC   D2A25674   5.127   2.658   4.478 -0.0487  0.0523  0.0139
    1DIPC   D3A25675   4.853   2.967   4.702 -0.0730  0.2098  0.1641
    1DIPC   C4A25676   4.795   3.295   4.426  0.2497 -0.1665 -0.1142
    1DIPC   C1B25677   5.072   1.971   4.027  0.2247  0.0507 -0.1604
    1DIPC   D2B25678   4.911   1.894   4.402 -0.2110  0.1925 -0.1489
    1DIPC   D3B25679   4.486   1.868   4.236  0.3827  0.0033 -0.1051
    1DIPC   C4B25680   4.139   1.614   4.120 -0.1703 -0.2020 -0.0330
    1DIPC   NC325681   7.144  24.498   2.973 -0.0237  0.5389  0.3844
    1DIPC   PO425682   7.610  24.679   2.944 -0.3929 -0.1087 -0.2851
    1DIPC   GL125683   7.723  24.749   3.473 -0.0091 -0.1861  0.1619
    1DIPC   GL225684   7.582  25.044   3.700 -0.5018  0.2449 -0.2336
    1DIPC   C1A25685   7.939  24.668   3.799  0.1842  0.2301 -0.1336
    1DIPC   D2A25686   8.008  24.772   4.245 -0.0003  0.1790  0.2186
    1DIPC   D3A25687   7.685  24.424   4.227 -0.0018  0.0243 -0.1570
    1DIPC   C4A25688   7.259  24.515   4.297  0.1855 -0.0373  0.0999
    1DIPC   C1B25689   7.631  25.076   4.191 -0.0975  0.1489 -0.1587
    1DIPC   D2B25690   7.614  24.826   4.593 -0.1765 -0.1030 -0.0183
    1DIPC   D3B25691   7.884  24.797   4.927 -0.2178 -0.2990 -0.0111
    1DIPC   C4B25692   7.822  24.834   5.333 -0.0222 -0.2460  0.1105
    1DIPC   NC325693  21.675  10.296   1.914 -0.0038  0.0489 -0.1724
    1DIPC   PO425694  21.700  10.063   2.313 -0.1595  0.1733 -0.1195
    1DIPC   GL125695  21.938  10.058   2.816 -0.0430  0.2171  0.2596
    1DIPC   GL225696  22.198   9.890   2.922  0.1097  0.1324  0.0157
    1DIPC   C1A25697  22.082  10.273   3.285  0.3633 -0.0674 -0.0366
    1DIPC   D2A25698  22.063  10.423   3.681 -0.1039 -0.1031 -0.1019
    1DIPC   D3A25699  21.979  10.415   4.094  0.4131 -0.0661 -0.0262
    1DIPC   C4A25700  21.765  10.003   4.265 -0.1285 -0.0404 -0.2170
    1DIPC   C1B25701  22.464  10.201   2.941  0.2490  0.2608  0.0272
    1DIPC   D2B25702  22.807  10.245   3.144 -0.2234 -0.2543  0.2496
    1DIPC   D3B25703  22.607  10.418   3.439  0.0587  0.0303 -0.0533
    1DIPC   C4B25704  22.953  10.621   3.691  0.1211 -0.1489 -0.1400
    1DIPC   NC325705  26.379   9.771   2.480  0.0899  0.2165  0.0095
    1DIPC   PO425706  26.216   9.382   2.625  0.1847 -0.0225  0.0244
    1DIPC   GL125707  25.909   9.248   2.908  0.1217  0.0605 -0.3489
    1DIPC   GL225708  25.631   9.378   2.905  0.0900 -0.1547  0.3639
    1DIPC   C1A25709  25.914   9.124   3.328  0.0097  0.0329 -0.0920
    1DIPC   D2A25710  25.690   9.172   3.716  0.2727  0.3219  0.0494
    1DIPC   D3A25711  25.626   9.271   4.166 -0.1698  0.0932  0.3433
    1DIPC   C4A25712  25.404   8.932   4.359 -0.1775 -0.0153 -0.3055
    1DIPC   C1B25713  25.471   9.785   3.130  0.0263  0.2283 -0.2029
    1DIPC   D2B25714  25.228  10.044   3.344  0.1255 -0.1165  0.0569
    1DIPC   D3B25715  25.629  10.116   3.587  0.0515 -0.0850  0.2466
    1DIPC   C4B25716  25.499  10.256   4.018  0.6422  0.1974 -0.0864
    1DIPC   NC325717  24.240  14.232   1.115  0.0811  0.0330  0.1292
    1DIPC   PO425718  23.984  14.088   1.545  0.2453 -0.1381  0.2447
    1DIPC   GL125719  24.072  14.195   1.897 -0.2638  0.1780 -0.2014
    1DIPC   GL225720  23.835  14.424   1.981 -0.1509  0.1333  0.1211
    1DIPC   C1A25721  24.106  14.228   2.349  0.0487 -0.0667  0.0879
    1DIPC   D2A25722  23.898  14.663   2.402  0.0904  0.2809 -0.1088
    1DIPC   D3A25723  23.450  14.748   2.175  0.1355 -0.0912  0.0312
    1DIPC   C4A25724  23.501  15.199   2.256  0.0455  0.0545  0.2981
    1DIPC   C1B25725  23.873  14.914   1.955  0.0164  0.1107  0.1315
    1DIPC   D2B25726  24.134  15.308   2.066  0.0868 -0.2669 -0.1372
    1DIPC   D3B25727  23.914  15.497   2.459 -0.0865  0.0566  0.0878
    1DIPC   C4B25728  23.884  15.304   2.892 -0.1939 -0.0686 -0.0757
    1DIPC   NC325729  17.316  17.538   3.060  0.3122  0.2485  0.0908
    1DIPC   PO425730  17.518  17.799   2.835 -0.1638  0.0066  0.0801
    1DIPC   GL125731  17.667  17.916   3.262  0.1585 -0.2394  0.0600
    1DIPC   GL225732  17.338  18.126   3.394  0.0001  0.3131 -0.0688
    1DIPC   C1A25733  17.735  18.017   3.718  0.1597 -0.0378  0.4521
    1DIPC   D2A25734  17.937  18.001   4.178 -0.0808 -0.1390  0.0242
    1DIPC   D3A25735  17.528  18.316   4.287 -0.0843  0.0642 -0.0498
    1DIPC   C4A25736  17.259  18.231   3.940 -0.1852  0.0382  0.1045
    1DIPC   C1B25737  17.655  18.503   3.534  0.1099 -0.1831  0.0356
    1DIPC   D2B25738  17.734  18.502   3.912  0.0338  0.1696 -0.1793
    1DIPC   D3B25739  18.155  18.626   3.984 -0.0821  0.2068  0.0466
    1DIPC   C4B25740  18.368  18.578   4.448 -0.1440  0.2051  0.1401
    1DIPC   NC325741  19.673  22.062   2.280 -0.0039 -0.3336 -0.4379
    1DIPC   PO425742  19.480  21.748   2.517  0.2197 -0.3806  0.0743
    1DIPC   GL125743  19.551  21.509   2.882 -0.0358 -0.1530 -0.1973
    1DIPC   GL225744  19.655  21.118   2.865 -0.0831 -0.0523 -0.3056
    1DIPC   C1A25745  19.621  21.395   3.313 -0.0035  0.1588 -0.0060
    1DIPC   D2A25746  19.995  21.585   3.579 -0.0931 -0.1368 -0.0437
    1DIPC   D3A25747  20.185  21.343   3.972  0.0773 -0.1049 -0.2092
    1DIPC   C4A25748  20.204  21.675   4.284 -0.0648 -0.2391 -0.1031
    1DIPC   C1B25749  19.987  21.005   3.243 -0.2285 -0.0796 -0.0068
    1DIPC   D2B25750  20.402  20.961   3.417 -0.1448  0.0863  0.1122
    1DIPC   D3B25751  20.631  20.885   3.717  0.1371 -0.1201  0.3220
    1DIPC   C4B25752  20.962  20.765   4.047  0.3715 -0.2249 -0.0420
    1DIPC   NC325753  19.817  17.368   2.485 -0.1550  0.2012 -0.0287
    1DIPC   PO425754  19.744  17.731   2.761  0.0967 -0.0866  0.1637
    1DIPC   GL125755  19.706  17.975   3.143 -0.2195  0.1416 -0.0767
    1DIPC   GL225756  19.933  18.285   3.013  0.0299  0.0549  0.2197
    1DIPC   C1A25757  19.454  18.240   3.269  0.2779 -0.0200 -0.0116
    1DIPC   D2A25758  19.486  18.390   3.730 -0.1119 -0.2960  0.2949
    1DIPC   D3A25759  19.462  17.991   4.029  0.1484 -0.1009 -0.4024
    1DIPC   C4A25760  19.625  18.048   4.352 -0.0037  0.4290  0.0166
    1DIPC   C1B25761  19.961  18.312   3.488  0.1562  0.1163 -0.1509
    1DIPC   D2B25762  20.223  18.065   3.744 -0.0406  0.1864  0.0310
    1DIPC   D3B25763  19.974  18.153   4.058 -0.3045 -0.1810  0.0769
    1DIPC   C4B25764  19.862  18.462   4.360  0.4550 -0.0694  0.0778
    1DIPC   NC325765  18.735   1.754   3.416  0.0646  0.1450 -0.0556
    1DIPC   PO425766  18.544   1.541   3.788  0.0719 -0.0989 -0.1785
    1DIPC   GL125767  18.613   1.355   4.093  0.1882  0.3607  0.0791
    1DIPC   GL225768  18.700   1.086   4.056 -0.0773  0.1206 -0.1388
    1DIPC   C1A25769  18.601   1.305   4.467  0.0224 -0.2036 -0.1783
    1DIPC   D2A25770  18.719   1.578   4.785  0.1751  0.0567  0.0984
    1DIPC   D3A25771  18.967   1.598   4.506  0.0774  0.3194 -0.0507
    1DIPC   C4A25772  19.319   1.890   4.649 -0.2747  0.4093  0.0359
    1DIPC   C1B25773  18.564   0.746   4.284 -0.1399  0.2434 -0.0046
    1DIPC   D2B25774  18.194   0.485   4.207  0.1169  0.1082 -0.1788
    1DIPC   D3B25775  18.399   0.386   4.686  0.1119 -0.2674  0.2095
    1DIPC   C4B25776  18.756   0.345   4.637  0.2394 -0.2041  0.0259
    1DIPC   NC325777  20.090  28.421   3.289  0.2274 -0.1032  0.0848
    1DIPC   PO425778  20.240  28.804   3.582 -0.1097 -0.2134  0.1525
    1DIPC   GL125779  20.513  28.796   3.932  0.0254 -0.2065  0.0406
    1DIPC   GL225780  20.533  29.117   4.042  0.0238 -0.0698  0.0602
    1DIPC   C1A25781  20.562  28.546   4.274  0.1183 -0.1439  0.0261
    1DIPC   D2A25782  20.700  28.248   4.503  0.0059  0.2119 -0.0078
    1DIPC   D3A25783  20.462  28.235   4.911 -0.1223  0.0178 -0.1092
    1DIPC   C4A25784  20.022  28.297   5.071 -0.0126  0.0025 -0.0031
    1DIPC   C1B25785  20.372  29.125   4.462  0.2314  0.1000  0.2329
    1DIPC   D2B25786  20.020  29.472   4.549  0.0428  0.1096  0.1142
    1DIPC   D3B25787  20.248  29.480   4.926  0.0247  0.0192  0.0516
    1DIPC   C4B25788  20.184  29.486   5.468 -0.3463  0.0636  0.2468
    1DIPC   NC325789  29.681   9.623   2.420 -0.5315  0.0504 -0.0963
    1DIPC   PO425790  29.421   9.914   2.380 -0.2267  0.1150  0.1297
    1DIPC   GL125791  29.431  10.308   2.665  0.0950 -0.2622 -0.3006
    1DIPC   GL225792  29.235  10.209   2.897 -0.2177  0.3062  0.2584
    1DIPC   C1A25793  29.611  10.516   3.041 -0.2389  0.0962 -0.1018
    1DIPC   D2A25794  29.611  10.383   3.424 -0.6805 -0.0264 -0.3167
    1DIPC   D3A25795  29.676  10.040   3.744 -0.1397  0.0360  0.1631
    1DIPC   C4A25796  29.769  10.121   4.190 -0.3765  0.1770  0.1373
    1DIPC   C1B25797  29.130  10.406   3.293  0.1043  0.2993  0.0914
    1DIPC   D2B25798  29.206  10.810   3.515  0.0295 -0.0314 -0.3028
    1DIPC   D3B25799  28.967  10.567   3.933 -0.1976  0.2122  0.0536
    1DIPC   C4B25800  28.538  10.695   3.911 -0.0891 -0.2769  0.2801
    1DIPC   NC325801  12.614  10.301   3.013  0.3111  0.0297 -0.3020
    1DIPC   PO425802  12.408  10.656   3.116  0.2835 -0.0236 -0.1007
    1DIPC   GL125803  12.577  10.598   3.447  0.0833 -0.0871 -0.1215
    1DIPC   GL225804  12.769  10.304   3.509 -0.0675  0.0212  0.1975
    1DIPC   C1A25805  12.496  10.691   3.796  0.0349 -0.1443  0.0796
    1DIPC   D2A25806  12.582  10.368   4.136  0.1409  0.2630 -0.0357
    1DIPC   D3A25807  12.913  10.613   4.152  0.0280 -0.0385  0.0998
    1DIPC   C4A25808  13.012  10.750   4.508 -0.0419 -0.0772 -0.0829
    1DIPC   C1B25809  13.161  10.341   3.530 -0.0015 -0.0387  0.3057
    1DIPC   D2B25810  13.495  10.195   3.833  0.1063 -0.2073  0.3272
    1DIPC   D3B25811  13.341  10.525   3.983 -0.2650 -0.0682 -0.2030
    1DIPC   C4B25812  13.557  10.788   4.312  0.1718 -0.0475 -0.1084
    1DIPC   NC325813  24.907  22.208   1.355  0.0749  0.1863 -0.0158
    1DIPC   PO425814  25.026  22.014   1.861  0.0666 -0.1196  0.0951
    1DIPC   GL125815  25.075  21.925   2.280 -0.1241 -0.3434 -0.0414
    1DIPC   GL225816  25.353  22.020   2.285  0.1634 -0.0288  0.1955
    1DIPC   C1A25817  25.158  21.674   2.506  0.1330 -0.0895  0.2219
    1DIPC   D2A25818  25.211  21.555   2.955 -0.0291 -0.0386 -0.1655
    1DIPC   D3A25819  25.396  21.697   3.382  0.0059 -0.1286  0.0591
    1DIPC   C4A25820  25.663  21.484   3.632 -0.0927 -0.0024  0.2237
    1DIPC   C1B25821  25.239  22.357   2.612 -0.1234  0.3989  0.0556
    1DIPC   D2B25822  25.234  22.736   2.908  0.0794 -0.1860 -0.3895
    1DIPC   D3B25823  25.657  23.021   2.933  0.1931  0.2147  0.1366
    1DIPC   C4B25824  25.996  22.760   3.018 -0.0931  0.1312 -0.1038
    1DIPC   NC325825  11.270  20.157   2.822 -0.1341 -0.1465  0.3760
    1DIPC   PO425826  11.538  19.752   2.751 -0.1083  0.0392 -0.1899
    1DIPC   GL125827  11.521  19.845   3.166  0.3170  0.1161 -0.2456
    1DIPC   GL225828  11.203  20.082   3.327  0.1257  0.0398 -0.3914
    1DIPC   C1A25829  11.601  19.620   3.573 -0.2511  0.3064 -0.2110
    1DIPC   D2A25830  11.684  19.645   4.001 -0.0052  0.0437 -0.1491
    1DIPC   D3A25831  11.469  19.920   4.318 -0.4109 -0.2147  0.1041
    1DIPC   C4A25832  11.571  20.033   4.703 -0.1013 -0.1398 -0.3242
    1DIPC   C1B25833  10.881  20.126   3.787 -0.0843  0.0803 -0.0041
    1DIPC   D2B25834  10.926  20.030   4.188 -0.0965  0.2194 -0.1740
    1DIPC   D3B25835  10.654  19.762   4.045 -0.1970  0.2167  0.2453
    1DIPC   C4B25836  10.598  19.446   4.375  0.0453 -0.0620 -0.3176
    1DIPC   NC325837  19.715   3.623   3.112  0.0760  0.0242 -0.3029
    1DIPC   PO425838  19.404   3.862   3.441 -0.3185 -0.2025  0.1843
    1DIPC   GL125839  19.520   3.917   3.928  0.0000  0.2262 -0.2198
    1DIPC   GL225840  19.559   4.221   3.937  0.0334  0.1882  0.0112
    1DIPC   C1A25841  19.390   3.703   4.230 -0.1956 -0.1203 -0.0096
    1DIPC   D2A25842  19.029   3.428   4.140  0.1156  0.0711  0.0459
    1DIPC   D3A25843  18.983   3.521   4.457 -0.0928  0.1273  0.0010
    1DIPC   C4A25844  18.621   3.217   4.732 -0.3496 -0.0607  0.0286
    1DIPC   C1B25845  19.640   4.271   4.398  0.0617  0.0633  0.1559
    1DIPC   D2B25846  19.590   4.313   4.906  0.0006 -0.2381 -0.2316
    1DIPC   D3B25847  19.636   4.143   5.280  0.0055  0.2209 -0.0067
    1DIPC   C4B25848  19.271   3.908   5.238  0.1387  0.4078  0.2548
    1DIPC   NC325849  14.476  24.871   2.719  0.0129  0.1643 -0.0925
    1DIPC   PO425850  14.617  24.946   3.212  0.1085  0.1645 -0.2599
    1DIPC   GL125851  14.433  24.725   3.535  0.1359 -0.0525  0.0246
    1DIPC   GL225852  14.627  24.575   3.822  0.2560 -0.2300  0.2285
    1DIPC   C1A25853  14.144  24.842   3.782  0.2051  0.3489 -0.2345
    1DIPC   D2A25854  13.922  24.682   4.132 -0.2179  0.0740 -0.0621
    1DIPC   D3A25855  14.012  24.350   4.339 -0.1157 -0.0118  0.0319
    1DIPC   C4A25856  13.998  24.385   4.799  0.1571 -0.1238  0.2245
    1DIPC   C1B25857  14.277  24.315   3.887  0.2335  0.3126 -0.2608
    1DIPC   D2B25858  13.815  24.317   3.807 -0.0172 -0.3328 -0.0247
    1DIPC   D3B25859  13.517  24.383   4.158  0.0945 -0.1789  0.2024
    1DIPC   C4B25860  13.591  24.108   4.611  0.4051  0.0682 -0.0708
    1DIPC   NC325861   3.888   7.396   3.148 -0.2989 -0.4347  0.1306
    1DIPC   PO425862   4.279   7.723   3.125 -0.3155  0.0796 -0.4230
    1DIPC   GL125863   4.348   7.871   3.627 -0.1912  0.3874  0.3939
    1DIPC   GL225864   4.575   7.947   3.540 -0.3044  0.2891  0.1375
    1DIPC   C1A25865   4.005   8.054   3.793  0.4151  0.1922  0.0460
    1DIPC   D2A25866   3.612   8.434   3.938 -0.2191 -0.0631  0.1158
    1DIPC   D3A25867   3.780   8.226   4.222 -0.0867 -0.1242 -0.0478
    1DIPC   C4A25868   3.626   7.822   4.309 -0.0696 -0.3574  0.0138
    1DIPC   C1B25869   4.380   8.336   3.583  0.2865  0.0120 -0.1744
    1DIPC   D2B25870   3.973   8.538   3.550  0.1655  0.1279 -0.1313
    1DIPC   D3B25871   4.247   8.844   3.619 -0.2493 -0.0184 -0.3119
    1DIPC   C4B25872   4.454   8.975   4.006  0.1225  0.3034  0.4336
    1DIPC   NC325873   1.005   3.002   3.234 -0.0834 -0.1358 -0.1376
    1DIPC   PO425874   1.358   3.271   3.234 -0.0210  0.0071  0.0924
    1DIPC   GL125875   1.369   3.444   3.581  0.0732  0.1952 -0.2436
    1DIPC   GL225876   1.369   3.127   3.730  0.0004 -0.2717  0.0136
    1DIPC   C1A25877   1.540   3.805   3.801  0.0314 -0.0360 -0.2162
    1DIPC   D2A25878   1.611   3.984   4.279  0.0530  0.3525 -0.1153
    1DIPC   D3A25879   1.904   3.721   4.256 -0.0323 -0.1245  0.1409
    1DIPC   C4A25880   2.050   3.523   3.874  0.1772  0.0306  0.0687
    1DIPC   C1B25881   1.590   3.374   4.108 -0.0325 -0.0167  0.0790
    1DIPC   D2B25882   1.823   3.312   4.513 -0.0069 -0.1463 -0.0031
    1DIPC   D3B25883   1.960   3.030   4.224  0.0899 -0.0881  0.0907
    1DIPC   C4B25884   1.754   2.896   3.936 -0.1929 -0.0607 -0.0589
    1DIPC   NC325885   9.749  22.082   2.130  0.2726  0.0084 -0.3323
    1DIPC   PO425886   9.658  21.839   2.523 -0.2344 -0.0346 -0.3693
    1DIPC   GL125887   9.631  21.541   2.929 -0.1741 -0.0273  0.2778
    1DIPC   GL225888   9.461  21.583   3.081 -0.2075 -0.1561 -0.3314
    1DIPC   C1A25889   9.817  21.445   3.432  0.0777 -0.1617  0.1535
    1DIPC   D2A25890   9.649  21.431   3.809 -0.0274 -0.0329  0.1373
    1DIPC   D3A25891   9.899  21.190   4.031 -0.0907 -0.1483  0.2494
    1DIPC   C4A25892  10.277  21.452   4.091 -0.2053  0.0983 -0.0976
    1DIPC   C1B25893   9.579  21.867   3.435 -0.1569 -0.1360  0.2038
    1DIPC   D2B25894   9.397  22.230   3.661 -0.1973 -0.0542  0.3035
    1DIPC   D3B25895   9.577  22.046   3.900  0.1626 -0.0955  0.2911
    1DIPC   C4B25896   9.707  22.309   4.291  0.1392  0.3793 -0.3756
    1DIPC   NC325897   3.445  16.335   2.059  0.1896 -0.2528  0.1856
    1DIPC   PO425898   3.579  16.751   2.130  0.2145  0.0812  0.0107
    1DIPC   GL125899   3.423  16.637   2.494 -0.1023 -0.2424  0.0257
    1DIPC   GL225900   3.196  16.804   2.600  0.1306 -0.2842  0.0769
    1DIPC   C1A25901   3.536  16.940   3.008 -0.1374  0.2677  0.4432
    1DIPC   D2A25902   3.497  16.705   3.362  0.2895  0.0523 -0.0269
    1DIPC   D3A25903   3.414  16.959   3.719  0.0336  0.2710  0.0874
    1DIPC   C4A25904   3.452  16.902   4.123  0.2041 -0.1139 -0.0897
    1DIPC   C1B25905   3.164  16.596   2.913  0.1205 -0.1786  0.2348
    1DIPC   D2B25906   3.176  16.298   3.230  0.1420 -0.1416 -0.1678
    1DIPC   D3B25907   3.043  16.387   3.579  0.0839 -0.0629 -0.0898
    1DIPC   C4B25908   2.636  16.518   3.707  0.2062 -0.0371 -0.1203
    1DIPC   NC325909   2.653  24.326   2.972  0.0742  0.0744  0.2643
    1DIPC   PO425910   3.100  24.260   3.137  0.4679 -0.0272 -0.0624
    1DIPC   GL125911   3.055  24.294   3.615 -0.0680 -0.1374  0.1952
    1DIPC   GL225912   3.260  24.503   3.743  0.5341  0.0198  0.2551
    1DIPC   C1A25913   2.924  24.002   3.886 -0.1817 -0.1869 -0.3340
    1DIPC   D2A25914   3.036  23.657   4.135 -0.1146  0.1095  0.1601
    1DIPC   D3A25915   3.441  23.517   3.813  0.0154  0.0332 -0.0307
    1DIPC   C4A25916   3.586  23.098   3.819 -0.0878  0.1331  0.1154
    1DIPC   C1B25917   3.181  24.494   4.167  0.0145  0.0189 -0.1329
    1DIPC   D2B25918   3.170  24.794   4.408 -0.2251  0.0631 -0.5359
    1DIPC   D3B25919   3.183  24.481   4.749  0.1995 -0.0602 -0.0934
    1DIPC   C4B25920   2.811  24.185   4.711  0.0306 -0.0418  0.0129
    1DIPC   NC325921  17.196  20.867   2.630 -0.0108 -0.2551 -0.0262
    1DIPC   PO425922  17.078  21.240   2.863 -0.3589  0.3704  0.0246
    1DIPC   GL125923  16.894  21.273   3.326  0.0665 -0.0640 -0.1206
    1DIPC   GL225924  16.762  20.978   3.445  0.0389  0.0034  0.2214
    1DIPC   C1A25925  16.969  21.329   3.750  0.2325  0.0053 -0.0868
    1DIPC   D2A25926  17.141  21.114   4.123 -0.2147  0.0389 -0.0065
    1DIPC   D3A25927  16.753  20.935   4.240 -0.2826 -0.0224 -0.0092
    1DIPC   C4A25928  16.409  21.149   4.490 -0.1828  0.0925  0.3501
    1DIPC   C1B25929  16.948  20.823   3.724 -0.0423  0.3033  0.3059
    1DIPC   D2B25930  17.125  20.588   4.129  0.5077 -0.1434 -0.0181
    1DIPC   D3B25931  16.620  20.459   4.058 -0.2464 -0.0421 -0.1708
    1DIPC   C4B25932  16.582  20.276   4.381  0.0885  0.1523  0.0062
    1DIPC   NC325933  17.344  19.506   2.150 -0.1192  0.0422 -0.0417
    1DIPC   PO425934  17.674  19.314   2.398  0.2760 -0.0305 -0.0057
    1DIPC   GL125935  17.795  19.254   2.872  0.1609  0.0549 -0.2490
    1DIPC   GL225936  18.019  18.969   2.904  0.1919  0.4131  0.1446
    1DIPC   C1A25937  17.587  19.471   3.213 -0.2096  0.2441  0.1874
    1DIPC   D2A25938  17.610  19.567   3.686  0.1125  0.2052 -0.2999
    1DIPC   D3A25939  17.836  19.984   3.905 -0.2124  0.3029 -0.6807
    1DIPC   C4A25940  17.847  20.453   3.889  0.0606  0.2565  0.4870
    1DIPC   C1B25941  17.667  18.911   3.188  0.0773 -0.2509  0.2350
    1DIPC   D2B25942  17.604  19.046   3.562  0.0795 -0.1017  0.0266
    1DIPC   D3B25943  17.858  19.158   3.900 -0.1915 -0.0240  0.3339
    1DIPC   C4B25944  17.864  19.503   4.098 -0.0008 -0.0213  0.3907
    1DIPC   NC325945  14.767   8.812   2.969 -0.0335 -0.0665 -0.3194
    1DIPC   PO425946  14.497   8.414   3.171  0.1689 -0.1824  0.1579
    1DIPC   GL125947  14.647   8.319   3.546 -0.0131  0.0683  0.3958
    1DIPC   GL225948  14.932   8.134   3.561  0.1986  0.0543  0.0862
    1DIPC   C1A25949  14.722   8.431   3.958 -0.1631 -0.1108  0.1954
    1DIPC   D2A25950  14.554   8.633   4.256 -0.1790 -0.1606 -0.1693
    1DIPC   D3A25951  14.342   8.664   4.757  0.0762  0.0393  0.0613
    1DIPC   C4A25952  14.218   8.121   4.915 -0.2487  0.3399  0.1205
    1DIPC   C1B25953  14.829   7.905   3.981 -0.0486  0.3998  0.0169
    1DIPC   D2B25954  14.750   7.540   4.343  0.2050 -0.1040  0.1197
    1DIPC   D3B25955  15.013   7.841   4.526  0.3917  0.1461  0.1618
    1DIPC   C4B25956  14.598   8.076   4.614 -0.3793 -0.2288  0.0749
    1DIPC   NC325957   3.444  26.480   3.131 -0.1439 -0.3065 -0.1909
    1DIPC   PO425958   3.415  26.929   3.174  0.1526 -0.2600  0.3283
    1DIPC   GL125959   3.639  27.004   3.590 -0.1083  0.0553 -0.0177
    1DIPC   GL225960   3.899  27.246   3.716  0.1659  0.1071 -0.0487
    1DIPC   C1A25961   3.738  26.851   3.972 -0.2431 -0.1419  0.1391
    1DIPC   D2A25962   4.021  26.812   4.352 -0.1424 -0.2128 -0.0005
    1DIPC   D3A25963   4.179  26.449   4.625 -0.1284 -0.2260 -0.2132
    1DIPC   C4A25964   3.948  26.080   4.914  0.2768 -0.2471 -0.1857
    1DIPC   C1B25965   3.962  27.300   4.209  0.0915  0.1710  0.3235
    1DIPC   D2B25966   4.304  27.225   4.535 -0.1223 -0.0611  0.3287
    1DIPC   D3B25967   4.535  27.611   4.582  0.0644  0.1855  0.3462
    1DIPC   C4B25968   4.244  28.004   4.413  0.3111  0.1940 -0.0398
    1DIPC   NC325969   6.066   4.642   3.113 -0.2104  0.0628  0.0314
    1DIPC   PO425970   6.192   4.393   3.520  0.1252  0.0346 -0.0824
    1DIPC   GL125971   6.229   4.350   3.963  0.0648 -0.0371 -0.0361
    1DIPC   GL225972   6.524   4.135   4.050 -0.0375 -0.2325  0.0376
    1DIPC   C1A25973   6.107   4.371   4.319 -0.2742 -0.0351  0.0932
    1DIPC   D2A25974   6.131   4.623   4.745  0.1782 -0.1978 -0.3682
    1DIPC   D3A25975   6.321   5.004   4.794 -0.1393 -0.2084 -0.2866
    1DIPC   C4A25976   6.779   5.089   4.897  0.1322 -0.3195 -0.2616
    1DIPC   C1B25977   6.640   4.220   4.465 -0.0325  0.4854  0.1294
    1DIPC   D2B25978   6.785   3.965   4.821 -0.0868 -0.2265  0.1675
    1DIPC   D3B25979   6.383   3.694   4.821  0.2915 -0.1827 -0.0065
    1DIPC   C4B25980   5.997   3.679   4.979 -0.0490 -0.2922 -0.2292
    1DIPC   NC325981  15.384   7.523   3.018  0.1117  0.1853  0.2278
    1DIPC   PO425982  15.713   7.361   3.290 -0.2104 -0.2303  0.2110
    1DIPC   GL125983  15.732   7.332   3.742  0.1668  0.3116 -0.0437
    1DIPC   GL225984  15.965   7.448   3.854  0.2298  0.1921  0.1172
    1DIPC   C1A25985  15.427   7.652   4.107 -0.3483  0.2696 -0.1939
    1DIPC   D2A25986  15.493   7.994   4.482 -0.1225 -0.0973 -0.1925
    1DIPC   D3A25987  15.671   7.930   4.847  0.0817  0.0276  0.0947
    1DIPC   C4A25988  15.847   7.519   5.139 -0.3189 -0.2313  0.0389
    1DIPC   C1B25989  15.905   7.849   4.153  0.1528  0.0618  0.2529
    1DIPC   D2B25990  16.058   8.140   4.568 -0.3308 -0.1385  0.0840
    1DIPC   D3B25991  16.185   7.903   4.880  0.0495  0.4025  0.0861
    1DIPC   C4B25992  16.722   7.867   4.997  0.2182  0.1465 -0.3002
    1DIPC   NC325993   3.386  29.573   2.542 -0.3220 -0.4502  0.1810
    1DIPC   PO425994   3.049  29.219   2.735 -0.0491 -0.0925  0.0349
    1DIPC   GL125995   3.018  29.308   3.213  0.0319  0.3642 -0.0946
    1DIPC   GL225996   2.728  29.455   3.361  0.0858  0.0023 -0.1950
    1DIPC   C1A25997   3.041  29.191   3.648  0.1851 -0.0229  0.0349
    1DIPC   D2A25998   3.048  29.179   4.102  0.0548 -0.2689 -0.0731
    1DIPC   D3A25999   3.284  29.001   4.458 -0.3442 -0.0347  0.0715
    1DIPC   C4A26000   3.728  28.906   4.493 -0.1267  0.0895 -0.2303
    1DIPC   C1B26001   2.342  29.407   3.508 -0.1343  0.2018 -0.0429
    1DIPC   D2B26002   2.155  29.286   3.865 -0.0265 -0.1351 -0.0559
    1DIPC   D3B26003   2.561  29.224   3.956  0.0773 -0.1632  0.0947
    1DIPC   C4B26004   2.796  29.535   3.872 -0.2140  0.0013 -0.2777
    1DIPC   NC326005  16.658   2.223   2.662 -0.2358 -0.1757 -0.0670
    1DIPC   PO426006  16.772   2.195   3.039 -0.0533  0.2671  0.0398
    1DIPC   GL126007  16.394   2.080   3.334  0.3690  0.1404 -0.2324
    1DIPC   GL226008  16.407   1.794   3.563  0.2101  0.3922  0.0682
    1DIPC   C1A26009  16.371   2.277   3.721 -0.2517  0.2466  0.2282
    1DIPC   D2A26010  16.519   2.443   4.108 -0.0845 -0.1912 -0.0864
    1DIPC   D3A26011  16.297   2.229   4.369 -0.0954  0.1700 -0.0975
    1DIPC   C4A26012  16.125   2.161   4.657  0.1939  0.1259 -0.1736
    1DIPC   C1B26013  16.187   1.495   3.742  0.5025 -0.2250  0.0666
    1DIPC   D2B26014  15.812   1.427   4.046  0.2103 -0.2876  0.1870
    1DIPC   D3B26015  15.721   1.077   4.439 -0.4303 -0.0545 -0.2805
    1DIPC   C4B26016  15.444   1.304   4.794  0.1441 -0.3542  0.0633
    1DIPC   NC326017  11.368  27.416   2.733  0.0091  0.1494 -0.0480
    1DIPC   PO426018  11.634  27.380   3.113 -0.1639 -0.2831  0.1465
    1DIPC   GL126019  11.752  27.250   3.522 -0.0876 -0.1864 -0.0299
    1DIPC   GL226020  11.928  27.450   3.833  0.1315 -0.1638 -0.2689
    1DIPC   C1A26021  11.774  26.928   3.770 -0.2810  0.1256 -0.0718
    1DIPC   D2A26022  11.909  26.791   4.125 -0.1582  0.2001 -0.1050
    1DIPC   D3A26023  12.184  26.410   4.157  0.0425  0.1375 -0.0571
    1DIPC   C4A26024  12.121  25.990   4.459  0.1255  0.3410  0.1376
    1DIPC   C1B26025  12.070  27.297   4.282 -0.3592 -0.2385  0.1863
    1DIPC   D2B26026  12.186  27.273   4.686  0.1625  0.0942 -0.2415
    1DIPC   D3B26027  12.410  27.639   4.558 -0.1349 -0.0643  0.1276
    1DIPC   C4B26028  12.874  27.510   4.449 -0.0278 -0.0361 -0.0636
    1DIPC   NC326029  19.721   5.423   3.464 -0.0982 -0.0159 -0.0500
    1DIPC   PO426030  19.971   5.171   3.793 -0.0188 -0.1782  0.1731
    1DIPC   GL126031  20.076   5.001   4.148 -0.1314 -0.0340 -0.3547
    1DIPC   GL226032  20.222   5.241   4.247  0.1661  0.0003 -0.2586
    1DIPC   C1A26033  20.202   4.869   4.545 -0.0727 -0.1211 -0.0708
    1DIPC   D2A26034  20.465   4.898   4.928  0.2677  0.3380 -0.1215
    1DIPC   D3A26035  20.552   4.486   4.874  0.2862  0.1543  0.1000
    1DIPC   C4A26036  20.586   4.188   4.610 -0.1363 -0.0807  0.0562
    1DIPC   C1B26037  19.803   5.193   4.576  0.0822  0.1312 -0.1360
    1DIPC   D2B26038  19.578   5.175   5.040  0.1945 -0.0465 -0.2362
    1DIPC   D3B26039  19.856   5.247   5.367  0.1225 -0.0460  0.0658
    1DIPC   C4B26040  20.203   5.595   5.482 -0.5691 -0.1150 -0.4198
    1DIPC   NC326041  20.073  14.417   1.843 -0.2796  0.1296 -0.0667
    1DIPC   PO426042  19.696  14.508   2.096  0.1927 -0.1261  0.2572
    1DIPC   GL126043  19.837  14.300   2.440  0.1855  0.1739 -0.3477
    1DIPC   GL226044  19.808  14.569   2.793 -0.0542 -0.0546  0.1789
    1DIPC   C1A26045  19.753  14.107   2.827  0.2293 -0.0815 -0.3085
    1DIPC   D2A26046  19.730  13.741   3.075 -0.2129 -0.0676 -0.1783
    1DIPC   D3A26047  19.542  13.991   3.419  0.0177  0.2826  0.1331
    1DIPC   C4A26048  19.348  13.688   3.693  0.0909 -0.3179  0.0425
    1DIPC   C1B26049  19.750  14.851   3.215  0.0996  0.2154  0.0904
    1DIPC   D2B26050  19.866  15.022   3.584 -0.4578 -0.2890  0.3147
    1DIPC   D3B26051  19.496  14.918   3.934  0.0067  0.2205  0.1500
    1DIPC   C4B26052  19.484  15.009   4.386  0.1527  0.2847  0.0555
    1DIPC   NC326053  21.338  19.158   2.419 -0.0348  0.0159 -0.0233
    1DIPC   PO426054  20.991  19.325   2.225 -0.1595  0.1044 -0.0376
    1DIPC   GL126055  20.988  19.539   2.600  0.1227  0.0194 -0.3176
    1DIPC   GL226056  21.258  19.623   2.784  0.1041  0.0907  0.0177
    1DIPC   C1A26057  20.787  19.918   2.766  0.1597 -0.0259 -0.1321
    1DIPC   D2A26058  20.522  20.274   2.935  0.2102  0.2201  0.0209
    1DIPC   D3A26059  20.849  20.455   2.727 -0.2971 -0.1825 -0.0582
    1DIPC   C4A26060  21.316  20.175   2.781 -0.2780 -0.0673 -0.1571
    1DIPC   C1B26061  21.105  19.765   3.077  0.0263  0.0813  0.1915
    1DIPC   D2B26062  20.931  20.222   3.215  0.2805 -0.1904  0.2476
    1DIPC   D3B26063  21.090  19.999   3.611 -0.0095 -0.3337  0.0353
    1DIPC   C4B26064  21.308  19.671   3.541  0.0445 -0.1619  0.0008
    1DIPC   NC326065  22.199   1.500   3.006 -0.1473  0.0735  0.0450
    1DIPC   PO426066  22.519   1.535   3.345  0.0924 -0.1459 -0.1304
    1DIPC   GL126067  22.647   1.593   3.700 -0.3044  0.0189 -0.1474
    1DIPC   GL226068  22.962   1.443   3.836 -0.1799  0.2364  0.4307
    1DIPC   C1A26069  22.698   1.946   3.984 -0.1701  0.1057  0.3036
    1DIPC   D2A26070  22.531   2.045   4.361 -0.1099  0.1195  0.0768
    1DIPC   D3A26071  22.680   2.127   4.743 -0.1882  0.1379 -0.2771
    1DIPC   C4A26072  23.026   1.959   4.914  0.2971 -0.0494 -0.0413
    1DIPC   C1B26073  23.122   1.758   4.162  0.1038  0.2114 -0.5228
    1DIPC   D2B26074  23.376   1.801   4.596 -0.3329  0.1140 -0.0413
    1DIPC   D3B26075  23.541   2.146   4.756  0.1317 -0.1056  0.0233
    1DIPC   C4B26076  23.943   2.225   4.656  0.1263  0.0456  0.4462
    1DIPC   NC326077  17.187  26.646   3.261 -0.0349  0.1229  0.0696
    1DIPC   PO426078  17.567  26.505   3.116 -0.0083 -0.2045  0.1489
    1DIPC   GL126079  17.640  26.584   3.573 -0.1125  0.2327  0.1028
    1DIPC   GL226080  17.959  26.426   3.773  0.1479  0.1695  0.1569
    1DIPC   C1A26081  17.757  26.800   3.978 -0.3498  0.0976 -0.0663
    1DIPC   D2A26082  18.059  27.041   4.181  0.0206 -0.2469 -0.4606
    1DIPC   D3A26083  18.004  26.888   4.553  0.2065 -0.1873  0.0844
    1DIPC   C4A26084  18.214  26.683   4.874  0.0530  0.1092  0.2705
    1DIPC   C1B26085  18.227  26.558   4.088  0.0528 -0.0361  0.1526
    1DIPC   D2B26086  18.523  26.688   4.424 -0.3140  0.0423  0.2904
    1DIPC   D3B26087  18.391  27.186   4.610 -0.3017 -0.0445 -0.0546
    1DIPC   C4B26088  18.116  27.224   4.957 -0.1263 -0.2228 -0.1003
    1DIPC   NC326089  14.008   0.689   2.991 -0.1553 -0.0839 -0.0298
    1DIPC   PO426090  14.314   0.965   2.931 -0.0286 -0.1092  0.1037
    1DIPC   GL126091  14.282   0.801   3.361 -0.1004 -0.0521  0.0986
    1DIPC   GL226092  13.922   0.655   3.515  0.1972 -0.0430 -0.4739
    1DIPC   C1A26093  14.465   0.829   3.726 -0.0912  0.1835 -0.0801
    1DIPC   D2A26094  14.379   1.058   4.039 -0.1047  0.0777  0.1211
    1DIPC   D3A26095  14.813   1.208   3.887  0.1334 -0.0788 -0.1589
    1DIPC   C4A26096  14.757   1.116   3.497 -0.2751 -0.0530  0.1526
    1DIPC   C1B26097  14.072   0.581   3.988  0.1103 -0.3009 -0.2501
    1DIPC   D2B26098  14.411   0.622   4.215 -0.2042 -0.0513  0.0637
    1DIPC   D3B26099  14.446   0.929   4.534  0.0986  0.0040  0.0325
    1DIPC   C4B26100  14.161   0.785   4.855  0.1701  0.1056 -0.0487
    1DIPC   NC326101  29.562  29.788   3.165 -0.0001  0.0253  0.1274
    1DIPC   PO426102  29.758  30.063   3.056  0.0982 -0.2123 -0.3039
    1DIPC   GL126103  29.756  30.086   3.511  0.1476 -0.0933  0.0334
    1DIPC   GL226104  29.478  30.078   3.641  0.0303 -0.0747  0.1051
    1DIPC   C1A26105  29.861  30.300   3.909 -0.2207  0.0797  0.1896
    1DIPC   D2A26106  29.796  30.094   4.312 -0.2731  0.0019  0.7039
    1DIPC   D3A26107  29.852  29.687   4.396  0.2398 -0.0490 -0.2572
    1DIPC   C4A26108  30.306  29.616   4.222 -0.0803 -0.2046  0.1784
    1DIPC   C1B26109  29.809  29.809   3.869  0.1438  0.2472  0.0040
    1DIPC   D2B26110  30.257  29.951   3.820 -0.2004  0.1684  0.0600
    1DIPC   D3B26111  30.440  30.143   4.223  0.2271  0.2491 -0.0793
    1DIPC   C4B26112  30.378  30.531   4.251  0.5275 -0.0979 -0.3687
    1DIPC   NC326113  26.785  26.109   2.840  0.0724 -0.0269 -0.0838
    1DIPC   PO426114  27.256  26.227   2.868  0.2014 -0.2441 -0.0275
    1DIPC   GL126115  27.304  26.211   3.244 -0.1461 -0.0324  0.1344
    1DIPC   GL226116  27.221  26.493   3.487 -0.0297  0.1047  0.4548
    1DIPC   C1A26117  27.451  25.826   3.581 -0.1416  0.0058  0.0917
    1DIPC   D2A26118  27.618  25.681   4.088 -0.0813  0.0105  0.4618
    1DIPC   D3A26119  27.438  25.368   4.244  0.1735 -0.2044  0.0374
    1DIPC   C4A26120  26.987  25.483   4.445  0.1970  0.0632 -0.1185
    1DIPC   C1B26121  27.141  26.175   3.887 -0.2175  0.2326  0.0012
    1DIPC   D2B26122  27.271  25.952   4.293 -0.1051  0.3047 -0.2547
    1DIPC   D3B26123  27.774  25.984   4.447 -0.1069  0.2188 -0.1941
    1DIPC   C4B26124  27.747  26.336   4.718  0.1257 -0.1490  0.1721
    1DIPC   NC326125  27.295   9.527   2.524 -0.1346 -0.1937 -0.0386
    1DIPC   PO426126  27.121   9.070   2.560  0.2676 -0.1941  0.1222
    1DIPC   GL126127  27.363   9.318   3.012  0.1922 -0.0580 -0.3219
    1DIPC   GL226128  27.573   9.574   2.953 -0.1151  0.0147  0.0661
    1DIPC   C1A26129  27.320   9.302   3.480 -0.2692 -0.4107 -0.0170
    1DIPC   D2A26130  27.155   9.392   3.898 -0.0600  0.2955 -0.1210
    1DIPC   D3A26131  26.821   9.501   4.171  0.3134  0.2705  0.1480
    1DIPC   C4A26132  26.457   9.310   4.328 -0.0074  0.0416  0.0081
    1DIPC   C1B26133  27.741   9.669   3.324 -0.1039  0.1762  0.1359
    1DIPC   D2B26134  27.952   9.878   3.721 -0.1026  0.1440 -0.1333
    1DIPC   D3B26135  27.607   9.592   3.832  0.2966 -0.1122  0.1430
    1DIPC   C4B26136  27.650   9.306   4.176  0.0193  0.1013  0.1104
    1DIPC   NC326137  21.379  16.244   2.019  0.2561 -0.1367 -0.1593
    1DIPC   PO426138  21.525  15.867   1.885 -0.2072 -0.1174 -0.2363
    1DIPC   GL126139  21.924  16.037   2.128  0.0891  0.4328  0.1362
    1DIPC   GL226140  22.143  15.876   2.444  0.2321  0.0266 -0.1258
    1DIPC   C1A26141  22.092  16.371   2.402  0.0202 -0.0855 -0.2253
    1DIPC   D2A26142  22.224  16.410   2.826 -0.1479  0.1664 -0.0646
    1DIPC   D3A26143  22.199  16.909   2.882 -0.1608 -0.0215 -0.0849
    1DIPC   C4A26144  22.400  17.165   3.132 -0.1114  0.1546 -0.1242
    1DIPC   C1B26145  22.565  16.001   2.719 -0.1761 -0.1395 -0.1340
    1DIPC   D2B26146  22.845  16.295   2.950  0.2606 -0.0343  0.1315
    1DIPC   D3B26147  22.781  16.373   3.387  0.1313 -0.0202  0.0916
    1DIPC   C4B26148  22.961  16.306   3.756 -0.0000  0.0751  0.1352
    1DIPC   NC326149  19.653  20.645   2.733 -0.1295 -0.0089  0.1253
    1DIPC   PO426150  19.500  20.214   2.542  0.1604 -0.0255 -0.0465
    1DIPC   GL126151  19.547  20.227   3.004 -0.0122 -0.4022  0.1748
    1DIPC   GL226152  19.591  19.893   3.152 -0.1700  0.1379  0.1850
    1DIPC   C1A26153  19.735  20.350   3.291 -0.2309  0.1229 -0.1625
    1DIPC   D2A26154  19.800  20.548   3.582 -0.0465 -0.1307 -0.0563
    1DIPC   D3A26155  20.015  20.201   3.728 -0.1179  0.2502  0.1671
    1DIPC   C4A26156  20.305  20.074   3.979  0.0922  0.0413 -0.1823
    1DIPC   C1B26157  19.691  19.585   3.521  0.1056 -0.1006  0.2362
    1DIPC   D2B26158  19.654  19.433   3.966 -0.1310  0.2074 -0.1591
    1DIPC   D3B26159  19.690  19.852   4.032  0.0833  0.0169 -0.0950
    1DIPC   C4B26160  19.604  19.982   4.429 -0.0557 -0.2877  0.1166
    1DIPC   NC326161  25.451   8.977   2.666 -0.0441  0.0518 -0.2028
    1DIPC   PO426162  25.205   9.433   2.543 -0.0568 -0.1579  0.2466
    1DIPC   GL126163  24.937   9.756   2.725 -0.0978 -0.5828 -0.1884
    1DIPC   GL226164  24.907   9.718   3.017 -0.1073 -0.0166 -0.0344
    1DIPC   C1A26165  24.609  10.045   2.862  0.3727 -0.2230  0.1358
    1DIPC   D2A26166  24.178  10.146   2.888 -0.1399 -0.2220 -0.0639
    1DIPC   D3A26167  23.912   9.960   3.188 -0.2063 -0.2298  0.0399
    1DIPC   C4A26168  23.684   9.683   3.019  0.2833  0.0021 -0.1137
    1DIPC   C1B26169  24.873   9.624   3.453 -0.0876 -0.3408 -0.1622
    1DIPC   D2B26170  24.839   9.482   3.870  0.0283 -0.3134 -0.0841
    1DIPC   D3B26171  24.424   9.473   3.840 -0.0353  0.0284 -0.0768
    1DIPC   C4B26172  24.161   9.863   3.762  0.0359  0.0209  0.0217
    1DIPC   NC326173  12.033  27.055   3.110  0.0359 -0.0916  0.1150
    1DIPC   PO426174  12.210  27.448   3.092  0.2511  0.2436  0.2892
    1DIPC   GL126175  12.258  27.265   3.497 -0.1418 -0.2434 -0.1758
    1DIPC   GL226176  12.571  27.441   3.578 -0.1113 -0.0179 -0.2774
    1DIPC   C1A26177  12.267  27.011   3.915 -0.2300  0.4096  0.0872
    1DIPC   D2A26178  12.354  26.903   4.411 -0.1442  0.2788 -0.1749
    1DIPC   D3A26179  12.697  26.646   4.537 -0.0077  0.0545  0.0731
    1DIPC   C4A26180  12.547  26.176   4.457  0.0483  0.0557  0.2154
    1DIPC   C1B26181  12.502  27.474   4.027  0.1100 -0.1739 -0.0466
    1DIPC   D2B26182  12.225  27.767   4.139  0.1786  0.1496 -0.1153
    1DIPC   D3B26183  12.315  28.068   4.404 -0.1611  0.0677 -0.1037
    1DIPC   C4B26184  12.491  28.452   4.641 -0.1678  0.0644  0.0612
    1DIPC   NC326185  11.997  25.215   2.501  0.2059  0.0103 -0.1459
    1DIPC   PO426186  12.275  24.737   2.525  0.2603 -0.1624  0.2027
    1DIPC   GL126187  11.966  24.730   2.788  0.2543  0.3497  0.0635
    1DIPC   GL226188  11.973  24.961   2.928  0.3540  0.0122  0.2092
    1DIPC   C1A26189  11.736  24.509   3.164  0.1108  0.0754  0.1654
    1DIPC   D2A26190  11.977  24.415   3.498 -0.0745 -0.2211  0.2326
    1DIPC   D3A26191  11.761  24.014   3.561  0.1245  0.1161  0.1559
    1DIPC   C4A26192  11.481  24.101   3.283  0.1724 -0.0606  0.0658
    1DIPC   C1B26193  11.832  24.969   3.306  0.0411 -0.1241  0.0115
    1DIPC   D2B26194  11.683  24.765   3.652 -0.0687 -0.0721  0.3169
    1DIPC   D3B26195  12.095  24.880   3.702 -0.3369 -0.0584 -0.0873
    1DIPC   C4B26196  12.271  25.209   3.385  0.0181  0.5572 -0.2450
    1DIPC   NC326197  14.011  15.876   2.758 -0.0161  0.0957 -0.2886
    1DIPC   PO426198  13.873  16.117   2.433  0.1781  0.2244 -0.0421
    1DIPC   GL126199  13.674  16.230   2.908  0.0817 -0.0752 -0.1280
    1DIPC   GL226200  13.886  16.375   2.970  0.1344  0.0260  0.5290
    1DIPC   C1A26201  13.560  16.171   3.250 -0.1484  0.1743 -0.0491
    1DIPC   D2A26202  13.705  16.213   3.608 -0.3381  0.2006  0.2055
    1DIPC   D3A26203  13.299  16.313   3.669  0.1514  0.1712 -0.1552
    1DIPC   C4A26204  13.211  16.719   3.746 -0.0910  0.0152 -0.1458
    1DIPC   C1B26205  13.804  16.607   3.343  0.1815 -0.0878 -0.0077
    1DIPC   D2B26206  13.770  16.705   3.739  0.0348 -0.1591 -0.2182
    1DIPC   D3B26207  13.536  16.506   4.112 -0.1240  0.2959  0.1484
    1DIPC   C4B26208  13.569  16.107   4.324  0.2208  0.3208  0.1071
    1DIPC   NC326209  24.156   5.989   3.275 -0.2298  0.1732 -0.0320
    1DIPC   PO426210  24.532   5.846   3.490  0.0623 -0.2508 -0.3256
    1DIPC   GL126211  24.770   5.937   3.969  0.0695  0.3577 -0.1135
    1DIPC   GL226212  24.456   5.719   4.035 -0.3024 -0.1499 -0.1223
    1DIPC   C1A26213  25.181   5.887   4.134  0.0640  0.1575 -0.0823
    1DIPC   D2A26214  25.305   5.959   4.547 -0.4223 -0.0117  0.2531
    1DIPC   D3A26215  25.457   6.210   5.048  0.0612  0.0732 -0.1547
    1DIPC   C4A26216  25.415   5.954   5.383  0.1060 -0.1929  0.0208
    1DIPC   C1B26217  24.766   5.442   4.347  0.3081 -0.0848  0.0078
    1DIPC   D2B26218  24.967   5.056   4.435  0.4068 -0.0118  0.2326
    1DIPC   D3B26219  25.089   4.901   4.834  0.2919  0.1980 -0.0576
    1DIPC   C4B26220  24.780   4.990   5.033  0.3791  0.1711 -0.2055
    1DIPC   NC326221  16.528  21.601   2.670  0.0491  0.0452 -0.0994
    1DIPC   PO426222  16.512  21.573   3.172 -0.1128  0.3220  0.0467
    1DIPC   GL126223  16.615  21.729   3.538 -0.1146 -0.2216  0.1642
    1DIPC   GL226224  16.912  21.924   3.454 -0.0508  0.0424  0.2024
    1DIPC   C1A26225  16.841  21.844   3.946  0.1722  0.2445  0.1071
    1DIPC   D2A26226  17.155  21.816   4.178 -0.0392  0.3065 -0.1359
    1DIPC   D3A26227  16.736  21.896   4.420 -0.0443  0.0812 -0.2970
    1DIPC   C4A26228  16.573  21.596   4.675 -0.1593  0.0338  0.2203
    1DIPC   C1B26229  17.273  21.877   3.622  0.0835  0.0732  0.1814
    1DIPC   D2B26230  17.748  21.830   3.616  0.2639 -0.0922  0.2076
    1DIPC   D3B26231  17.903  22.073   3.925 -0.2074 -0.2326 -0.0652
    1DIPC   C4B26232  17.933  21.912   4.326  0.1042  0.0650  0.3181
    1DIPC   NC326233   9.696   6.390   3.570  0.1418 -0.1104 -0.0892
    1DIPC   PO426234  10.085   6.573   3.447  0.2207 -0.1404  0.0364
    1DIPC   GL126235   9.950   6.786   3.906  0.0798  0.2459 -0.2327
    1DIPC   GL226236  10.133   6.729   4.113  0.1369 -0.3204 -0.0815
    1DIPC   C1A26237   9.818   7.194   3.844  0.0230 -0.4286  0.0339
    1DIPC   D2A26238  10.115   7.532   4.016 -0.0227 -0.1937  0.0362
    1DIPC   D3A26239   9.853   7.750   4.352  0.1246  0.0486  0.0799
    1DIPC   C4A26240   9.873   8.217   4.536 -0.2944  0.4322  0.0704
    1DIPC   C1B26241  10.289   7.025   4.304 -0.2030  0.2167 -0.0919
    1DIPC   D2B26242  10.538   7.459   4.261  0.3664  0.3517 -0.1956
    1DIPC   D3B26243  10.324   7.538   4.656 -0.4395  0.0213  0.0289
    1DIPC   C4B26244  10.226   7.151   4.857  0.0982 -0.1529 -0.0834
    1DIPC   NC326245  25.346  17.468   0.871 -0.0984 -0.0078  0.0043
    1DIPC   PO426246  24.854  17.430   1.011  0.4217  0.5193  0.0450
    1DIPC   GL126247  24.787  17.291   1.381 -0.4657  0.1239 -0.2043
    1DIPC   GL226248  24.689  17.503   1.620  0.0660 -0.1915 -0.0611
    1DIPC   C1A26249  24.968  16.974   1.759 -0.0384 -0.1566  0.0614
    1DIPC   D2A26250  25.102  16.620   1.977  0.1189  0.3473 -0.3136
    1DIPC   D3A26251  24.694  16.496   2.195  0.2126 -0.1898  0.0905
    1DIPC   C4A26252  24.771  16.156   2.460  0.1936  0.1093 -0.1989
    1DIPC   C1B26253  24.954  17.532   1.909 -0.1249  0.2088  0.3077
    1DIPC   D2B26254  25.186  17.665   2.147 -0.0382 -0.0511 -0.0400
    1DIPC   D3B26255  24.923  17.410   2.541 -0.1442 -0.2456  0.0457
    1DIPC   C4B26256  24.734  17.295   2.934 -0.1848  0.1303  0.2053
    1DIPC   NC326257   1.320  28.899   2.779  0.0245 -0.0994 -0.1428
    1DIPC   PO426258   1.700  28.907   2.895  0.0314  0.0262  0.0625
    1DIPC   GL126259   1.488  28.888   3.279 -0.2620 -0.0758  0.0596
    1DIPC   GL226260   1.709  28.671   3.329  0.1011  0.2975 -0.1371
    1DIPC   C1A26261   1.485  28.809   3.770 -0.1648  0.0461  0.4095
    1DIPC   D2A26262   1.595  29.029   4.026 -0.1264  0.1147 -0.1927
    1DIPC   D3A26263   1.816  29.435   4.134 -0.1596  0.1921 -0.2286
    1DIPC   C4A26264   1.869  29.823   4.215  0.0207 -0.1713  0.0417
    1DIPC   C1B26265   1.894  29.033   3.549  0.1612 -0.1422 -0.0440
    1DIPC   D2B26266   1.602  29.380   3.608 -0.0190  0.0844  0.4588
    1DIPC   D3B26267   1.268  29.490   3.952 -0.0362 -0.1023  0.0279
    1DIPC   C4B26268   1.362  29.399   4.369 -0.2403 -0.0063 -0.0492
    1DIPC   NC326269  16.471   0.406   3.283 -0.0716 -0.0489  0.2007
    1DIPC   PO426270  16.576   0.005   3.042 -0.0480  0.0196  0.5188
    1DIPC   GL126271  16.287  -0.098   3.381  0.3226 -0.0861  0.0035
    1DIPC   GL226272  16.435   0.099   3.647 -0.1354  0.3434 -0.3637
    1DIPC   C1A26273  16.241  -0.285   3.803  0.1571 -0.1318 -0.0273
    1DIPC   D2A26274  16.249  -0.480   4.190 -0.0883 -0.0311 -0.0551
    1DIPC   D3A26275  15.946  -0.123   4.211 -0.1910 -0.4266  0.0884
    1DIPC   C4A26276  15.896   0.073   3.774  0.1995 -0.1725 -0.0831
    1DIPC   C1B26277  16.388   0.054   4.141  0.5825 -0.0711 -0.2248
    1DIPC   D2B26278  16.223   0.206   4.507  0.0411  0.1983 -0.1514
    1DIPC   D3B26279  16.647   0.250   4.700 -0.2331 -0.0208  0.0546
    1DIPC   C4B26280  16.938   0.065   4.417 -0.0170  0.0874  0.0576
    1DIPC   NC326281  28.712  26.716   3.061 -0.0687  0.0804  0.3634
    1DIPC   PO426282  29.067  26.487   3.328 -0.0378 -0.1117  0.0141
    1DIPC   GL126283  29.051  26.719   3.774 -0.1342  0.1874  0.0335
    1DIPC   GL226284  29.399  26.825   3.850 -0.1581 -0.0438  0.1391
    1DIPC   C1A26285  28.921  26.813   4.062  0.0082  0.0361 -0.2081
    1DIPC   D2A26286  28.880  26.554   4.411  0.0417  0.1871  0.2126
    1DIPC   D3A26287  28.439  26.601   4.291  0.3250 -0.0775  0.1333
    1DIPC   C4A26288  28.087  26.406   4.381 -0.1181  0.3078  0.3212
    1DIPC   C1B26289  29.412  26.996   4.220  0.2780  0.1175  0.0856
    1DIPC   D2B26290  29.218  27.248   4.482  0.0157  0.1061  0.0354
    1DIPC   D3B26291  28.978  26.944   4.711 -0.0742 -0.0972  0.0884
    1DIPC   C4B26292  28.675  26.869   5.009  0.1808 -0.0160  0.1239
    1DIPC   NC326293  21.529  20.100   1.962 -0.0451  0.1300  0.2641
    1DIPC   PO426294  21.817  20.132   2.266  0.2336  0.0672 -0.0246
    1DIPC   GL126295  21.940  20.475   2.515  0.0747 -0.0663  0.0561
    1DIPC   GL226296  22.130  20.506   2.823 -0.0396 -0.0210 -0.0278
    1DIPC   C1A26297  21.634  20.662   2.761  0.1521 -0.1507  0.3882
    1DIPC   D2A26298  21.237  20.770   2.737 -0.2543  0.1014 -0.0632
    1DIPC   D3A26299  21.216  20.621   3.154 -0.0571  0.0540  0.1837
    1DIPC   C4A26300  21.549  20.489   3.451 -0.1368 -0.2952  0.1349
    1DIPC   C1B26301  22.310  20.249   3.057 -0.2376  0.0974  0.0331
    1DIPC   D2B26302  22.437  20.106   3.454 -0.3729 -0.0566 -0.0921
    1DIPC   D3B26303  22.038  20.357   3.474 -0.0487  0.5882  0.0792
    1DIPC   C4B26304  21.855  20.347   3.954  0.0970  0.0084 -0.2122
    1DIPC   NC326305  14.521  23.997   2.847  0.3145 -0.0514  0.1657
    1DIPC   PO426306  14.897  24.290   2.953  0.2281  0.0686  0.5197
    1DIPC   GL126307  14.659  24.094   3.364 -0.0359 -0.3031 -0.3189
    1DIPC   GL226308  14.306  24.124   3.399  0.0970 -0.0166  0.0867
    1DIPC   C1A26309  14.599  23.928   3.810 -0.0732 -0.0206  0.4449
    1DIPC   D2A26310  14.561  23.901   4.193 -0.1675 -0.1091  0.2006
    1DIPC   D3A26311  14.804  24.309   4.189  0.0698  0.0910 -0.3170
    1DIPC   C4A26312  14.490  24.559   4.288  0.3383 -0.1402 -0.0958
    1DIPC   C1B26313  14.087  23.915   3.656  0.1716  0.1749 -0.2036
    1DIPC   D2B26314  13.999  23.882   4.078  0.0716 -0.0660 -0.2047
    1DIPC   D3B26315  13.716  23.527   3.825 -0.0447  0.0227  0.0934
    1DIPC   C4B26316  13.307  23.585   3.899 -0.2165  0.0164 -0.0335
    1DIPC   NC326317  14.015   8.407   2.394  0.1206 -0.1499  0.1880
    1DIPC   PO426318  13.882   8.533   2.826  0.2276  0.0843  0.1810
    1DIPC   GL126319  13.815   8.558   3.313 -0.0149 -0.1025 -0.0692
    1DIPC   GL226320  14.101   8.423   3.451  0.0922  0.3512  0.2518
    1DIPC   C1A26321  13.685   8.469   3.708 -0.0959 -0.2948  0.0383
    1DIPC   D2A26322  13.786   8.365   4.151  0.1121  0.0072  0.3401
    1DIPC   D3A26323  13.767   7.965   4.195 -0.1059 -0.2334 -0.3512
    1DIPC   C4A26324  14.099   7.777   4.442 -0.0667 -0.0713  0.0106
    1DIPC   C1B26325  14.193   8.247   3.878  0.0574 -0.0882  0.0576
    1DIPC   D2B26326  14.223   8.296   4.396  0.1044  0.0012  0.1015
    1DIPC   D3B26327  13.899   8.374   4.681  0.0145 -0.0042  0.1008
    1DIPC   C4B26328  13.749   7.888   4.811 -0.1525 -0.3587  0.3896
    1DIPC   NC326329  13.927   6.014   3.253  0.2336  0.1812 -0.0778
    1DIPC   PO426330  13.923   5.558   3.268 -0.0050 -0.1923  0.1507
    1DIPC   GL126331  13.780   5.520   3.753  0.1633  0.0615  0.1517
    1DIPC   GL226332  14.089   5.426   3.980 -0.0345 -0.0105 -0.1614
    1DIPC   C1A26333  13.557   5.546   4.077  0.1336  0.1392 -0.1110
    1DIPC   D2A26334  13.725   5.520   4.532 -0.3054  0.1850 -0.3471
    1DIPC   D3A26335  13.589   5.100   4.720  0.0162 -0.0985  0.0179
    1DIPC   C4A26336  13.815   4.776   4.810 -0.0459 -0.1784 -0.2498
    1DIPC   C1B26337  13.947   5.148   4.233  0.4792  0.1724 -0.1610
    1DIPC   D2B26338  14.104   5.086   4.626 -0.1119 -0.2047  0.2201
    1DIPC   D3B26339  14.580   5.196   4.699 -0.1512 -0.0969  0.0814
    1DIPC   C4B26340  14.600   5.419   5.122  0.0744 -0.1938  0.2950
    1DIPC   NC326341   8.384   6.162   3.512 -0.1855  0.1742 -0.0007
    1DIPC   PO426342   8.320   6.583   3.357  0.0010  0.1597 -0.2966
    1DIPC   GL126343   8.169   6.553   3.732 -0.2139 -0.0808  0.3268
    1DIPC   GL226344   8.307   6.799   3.891 -0.1457 -0.3202  0.2870
    1DIPC   C1A26345   7.973   6.403   4.058 -0.2212 -0.1391 -0.1082
    1DIPC   D2A26346   7.668   6.072   4.108 -0.0569  0.0286 -0.0118
    1DIPC   D3A26347   7.368   6.109   4.451 -0.2573 -0.0966 -0.1881
    1DIPC   C4A26348   7.069   6.280   4.263  0.1791 -0.2701 -0.2533
    1DIPC   C1B26349   8.435   6.568   4.172 -0.1755  0.1624  0.1984
    1DIPC   D2B26350   8.556   6.291   4.493 -0.1176  0.1332 -0.3819
    1DIPC   D3B26351   8.566   6.225   4.967  0.2680 -0.2456 -0.0357
    1DIPC   C4B26352   8.722   5.783   5.122  0.0086 -0.0549  0.3164
    1DIPC   NC326353  28.670   7.298   2.757 -0.1781 -0.0589 -0.3100
    1DIPC   PO426354  28.375   7.278   2.492  0.2257 -0.1211  0.1063
    1DIPC   GL126355  28.217   7.026   2.878 -0.1440  0.1003 -0.1682
    1DIPC   GL226356  28.015   7.155   3.112 -0.2344 -0.0961  0.0173
    1DIPC   C1A26357  28.104   6.703   3.226  0.0287 -0.4045  0.0738
    1DIPC   D2A26358  28.254   6.734   3.536 -0.0929  0.0793  0.1556
    1DIPC   D3A26359  28.361   6.731   3.966  0.1089  0.0849 -0.1070
    1DIPC   C4A26360  28.852   6.808   4.113 -0.2585 -0.3372 -0.3190
    1DIPC   C1B26361  28.141   7.487   3.312 -0.1823 -0.0508 -0.2981
    1DIPC   D2B26362  27.966   7.637   3.680  0.1634 -0.1548 -0.4017
    1DIPC   D3B26363  28.005   7.456   4.036  0.2666 -0.0324  0.1418
    1DIPC   C4B26364  28.467   7.290   4.118 -0.0926 -0.1313 -0.1255
    1DIPC   NC326365  25.835   5.185   3.040  0.0353  0.2993 -0.0715
    1DIPC   PO426366  26.159   5.526   3.028 -0.0105  0.3377  0.0725
    1DIPC   GL126367  26.313   5.474   3.421  0.1542  0.4048 -0.0075
    1DIPC   GL226368  26.077   5.462   3.650 -0.1094 -0.1374  0.0264
    1DIPC   C1A26369  26.499   5.060   3.646  0.1577 -0.1145 -0.2600
    1DIPC   D2A26370  26.509   4.970   4.106 -0.1058  0.1137  0.2937
    1DIPC   D3A26371  26.494   5.207   4.466  0.0154 -0.1971  0.0268
    1DIPC   C4A26372  26.557   4.935   4.856  0.0489  0.2072 -0.0696
    1DIPC   C1B26373  25.913   5.737   3.952  0.3119 -0.0531 -0.1706
    1DIPC   D2B26374  26.236   5.616   4.321 -0.1302  0.0210 -0.1803
    1DIPC   D3B26375  26.176   5.941   4.613 -0.0859  0.0813  0.0917
    1DIPC   C4B26376  26.523   6.064   4.907 -0.1698 -0.1493  0.0017
    1DIPC   NC326377  10.587   3.809   3.906 -0.5024 -0.0651  0.1649
    1DIPC   PO426378  10.769   3.741   3.579  0.1695 -0.1447 -0.1034
    1DIPC   GL126379  10.882   3.413   3.886 -0.0532 -0.1149  0.2720
    1DIPC   GL226380  11.114   3.375   3.777 -0.0779 -0.2276 -0.0712
    1DIPC   C1A26381  10.835   3.396   4.406 -0.0125 -0.1788 -0.0440
    1DIPC   D2A26382  10.907   3.221   4.881  0.0266  0.0198 -0.0119
    1DIPC   D3A26383  11.187   2.950   5.099 -0.0920 -0.1078  0.0253
    1DIPC   C4A26384  11.344   2.617   4.799 -0.0248 -0.0770  0.1353
    1DIPC   C1B26385  11.255   3.283   4.203 -0.3370 -0.1931 -0.0680
    1DIPC   D2B26386  11.456   3.142   4.671 -0.2901  0.0194  0.5287
    1DIPC   D3B26387  11.329   3.555   4.659 -0.2226 -0.1438 -0.2078
    1DIPC   C4B26388  11.171   3.699   5.006  0.1530  0.1268  0.0669
    1DIPC   NC326389  17.020  25.441   2.674 -0.0613 -0.0407  0.1116
    1DIPC   PO426390  17.023  25.846   2.786 -0.2109 -0.1804 -0.0227
    1DIPC   GL126391  16.934  25.583   3.222 -0.1070  0.1049 -0.0662
    1DIPC   GL226392  16.748  25.770   3.388 -0.1489 -0.2637 -0.3414
    1DIPC   C1A26393  17.109  25.383   3.581 -0.0932 -0.0209  0.1132
    1DIPC   D2A26394  16.823  25.129   3.932  0.0394 -0.0558 -0.2103
    1DIPC   D3A26395  17.069  24.988   4.241  0.0933  0.2440 -0.3104
    1DIPC   C4A26396  17.012  25.328   4.509 -0.2450 -0.1102  0.1231
    1DIPC   C1B26397  16.681  25.745   3.825  0.2406  0.0438 -0.2544
    1DIPC   D2B26398  16.513  25.578   4.268 -0.2764 -0.1149  0.0832
    1DIPC   D3B26399  16.649  25.987   4.492 -0.0453 -0.0009 -0.0653
    1DIPC   C4B26400  16.627  26.056   4.936 -0.0965  0.0743  0.0011
    1DIPC   NC326401  24.595  22.120   2.379 -0.3311  0.0783  0.1508
    1DIPC   PO426402  24.195  22.283   2.228  0.0711  0.0418 -0.4453
    1DIPC   GL126403  24.179  22.025   2.650 -0.2839 -0.2802 -0.2041
    1DIPC   GL226404  24.078  21.715   2.800  0.1236  0.1186  0.0904
    1DIPC   C1A26405  24.038  22.231   3.088  0.1724 -0.0102 -0.1176
    1DIPC   D2A26406  23.899  22.037   3.520 -0.0784  0.0503 -0.0418
    1DIPC   D3A26407  24.161  22.067   3.922 -0.1334  0.2805 -0.0108
    1DIPC   C4A26408  24.508  22.323   3.935  0.0759  0.1386 -0.1021
    1DIPC   C1B26409  23.823  21.790   3.078 -0.1315 -0.2273 -0.0136
    1DIPC   D2B26410  23.549  21.658   3.521  0.2692 -0.0396 -0.2369
    1DIPC   D3B26411  24.006  21.533   3.525 -0.0191 -0.2676 -0.0544
    1DIPC   C4B26412  24.336  21.674   3.196  0.1545 -0.0119 -0.0021
    1DIPC   NC326413  18.781   1.153   3.442  0.0201 -0.0759  0.0936
    1DIPC   PO426414  19.194   1.457   3.496  0.3374 -0.1906  0.2168
    1DIPC   GL126415  19.574   1.651   3.732  0.0260 -0.1141  0.1013
    1DIPC   GL226416  19.532   1.889   4.001  0.2493 -0.1823 -0.0067
    1DIPC   C1A26417  19.694   1.468   4.195  0.1089  0.0055 -0.0484
    1DIPC   D2A26418  20.015   1.265   4.539  0.1513  0.0812 -0.2775
    1DIPC   D3A26419  19.955   1.334   4.971 -0.1582 -0.0989  0.1367
    1DIPC   C4A26420  19.669   1.122   5.282  0.1097  0.1705  0.0327
    1DIPC   C1B26421  19.072   2.069   4.203  0.4231 -0.0102 -0.1504
    1DIPC   D2B26422  18.652   2.045   3.974  0.2213 -0.0410 -0.2010
    1DIPC   D3B26423  18.334   1.802   4.302 -0.1314  0.3297 -0.1140
    1DIPC   C4B26424  18.259   1.927   4.734  0.2575 -0.0086  0.2081
    1DIPC   NC326425  24.784   9.078   2.662 -0.0186  0.0018  0.5163
    1DIPC   PO426426  25.057   8.836   2.448  0.1390 -0.2893 -0.2992
    1DIPC   GL126427  25.228   8.669   2.986 -0.2010 -0.0381 -0.1598
    1DIPC   GL226428  25.452   8.850   3.204  0.2018  0.5346  0.0544
    1DIPC   C1A26429  25.227   8.403   3.329  0.2560  0.0108 -0.1906
    1DIPC   D2A26430  25.400   8.271   3.719 -0.1627 -0.1580  0.1404
    1DIPC   D3A26431  25.480   8.625   3.863 -0.1873 -0.3411  0.3504
    1DIPC   C4A26432  25.853   8.760   3.944 -0.1098 -0.2203  0.1239
    1DIPC   C1B26433  25.102   8.918   3.386  0.3265 -0.0674 -0.1288
    1DIPC   D2B26434  24.794   8.968   3.629  0.1619 -0.3135 -0.0309
    1DIPC   D3B26435  25.005   8.556   3.744  0.2346 -0.1389 -0.0746
    1DIPC   C4B26436  24.726   8.206   3.695 -0.2212 -0.1947  0.1931
    1DIPC   NC326437  14.393  16.568   2.745 -0.3352  0.0372 -0.2002
    1DIPC   PO426438  14.474  16.116   2.747 -0.1867  0.0179  0.0136
    1DIPC   GL126439  14.242  15.978   3.179 -0.0796 -0.0419  0.1119
    1DIPC   GL226440  14.465  15.803   3.479  0.2630  0.0216  0.0654
    1DIPC   C1A26441  13.928  15.807   3.451 -0.0012  0.3749 -0.1450
    1DIPC   D2A26442  13.925  15.429   3.622  0.0096  0.0028 -0.0906
    1DIPC   D3A26443  13.913  14.993   3.815 -0.2521  0.3333 -0.0331
    1DIPC   C4A26444  13.921  14.906   4.262  0.1827 -0.2810  0.2992
    1DIPC   C1B26445  14.747  16.031   3.723  0.0848  0.0541 -0.2318
    1DIPC   D2B26446  15.014  16.147   4.204 -0.0903 -0.3674 -0.2041
    1DIPC   D3B26447  14.943  15.882   4.565 -0.0602 -0.1857  0.2674
    1DIPC   C4B26448  15.155  15.601   4.733  0.0560 -0.4933  0.3333
    1DIPC   NC326449  18.484  16.320   2.470  0.2750 -0.2073 -0.0274
    1DIPC   PO426450  18.220  15.836   2.481 -0.0786 -0.3178 -0.0302
    1DIPC   GL126451  18.137  15.812   2.930 -0.0412 -0.0264  0.1641
    1DIPC   GL226452  18.083  16.179   2.872 -0.2780 -0.1248 -0.3670
    1DIPC   C1A26453  18.053  15.777   3.455  0.0658 -0.4100 -0.0904
    1DIPC   D2A26454  18.131  16.099   3.660 -0.3522  0.2557  0.2097
    1DIPC   D3A26455  18.300  15.907   4.133  0.2239  0.2977  0.0762
    1DIPC   C4A26456  18.711  15.753   4.292 -0.2205 -0.1741  0.1485
    1DIPC   C1B26457  18.285  16.433   3.241  0.0648 -0.1535 -0.3302
    1DIPC   D2B26458  18.456  16.730   3.530  0.2687 -0.0298 -0.1549
    1DIPC   D3B26459  18.614  16.320   3.584  0.2578  0.2628  0.0983
    1DIPC   C4B26460  18.985  16.111   3.539 -0.0326 -0.3238 -0.0002
    1DIPC   NC326461  15.525  23.434   2.880  0.0410  0.3287 -0.1507
    1DIPC   PO426462  15.419  23.054   3.137  0.3687  0.1570 -0.0434
    1DIPC   GL126463  15.478  22.917   3.644  0.0505 -0.2896  0.0700
    1DIPC   GL226464  15.525  22.575   3.738 -0.5711 -0.0252  0.2874
    1DIPC   C1A26465  15.467  22.917   4.122 -0.1452  0.0567 -0.0405
    1DIPC   D2A26466  15.617  22.988   4.601 -0.0023 -0.3043  0.3602
    1DIPC   D3A26467  15.591  22.595   4.720  0.3240  0.2182 -0.3077
    1DIPC   C4A26468  15.435  22.337   5.128 -0.0872 -0.1423 -0.0489
    1DIPC   C1B26469  15.897  22.594   3.879  0.2321 -0.1470 -0.2190
    1DIPC   D2B26470  16.199  22.539   4.063 -0.0638  0.0519 -0.0804
    1DIPC   D3B26471  16.394  22.713   3.749  0.0244 -0.1297  0.1068
    1DIPC   C4B26472  16.355  23.091   3.677  0.0602  0.0030 -0.1939
    1DIPC   NC326473  21.841   3.984   3.367  0.1311 -0.1561  0.0778
    1DIPC   PO426474  21.469   4.269   3.381  0.2574  0.1170 -0.1898
    1DIPC   GL126475  21.544   4.218   3.841  0.0678  0.0953 -0.2089
    1DIPC   GL226476  21.964   4.259   3.841 -0.1406 -0.3316 -0.3196
    1DIPC   C1A26477  21.577   4.113   4.236 -0.1919 -0.2694  0.2401
    1DIPC   D2A26478  21.581   4.213   4.626 -0.1271  0.2689 -0.1859
    1DIPC   D3A26479  21.836   4.411   4.793  0.1960 -0.0395 -0.1665
    1DIPC   C4A26480  21.905   4.314   5.132 -0.5464  0.0539  0.1238
    1DIPC   C1B26481  22.390   4.454   4.053  0.0511 -0.1817 -0.1365
    1DIPC   D2B26482  22.468   4.464   4.364  0.2262 -0.0731 -0.0006
    1DIPC   D3B26483  22.407   4.538   4.872 -0.1546 -0.0660 -0.0350
    1DIPC   C4B26484  22.675   4.226   5.083  0.2391 -0.0847 -0.5888
    1DIPC   NC326485   1.970   8.646   2.195 -0.1096  0.4156 -0.3909
    1DIPC   PO426486   1.614   8.678   2.465 -0.0200 -0.1014 -0.0087
    1DIPC   GL126487   1.671   8.902   2.866 -0.0586 -0.1873 -0.3292
    1DIPC   GL226488   1.906   9.159   2.893  0.2792 -0.2372 -0.6380
    1DIPC   C1A26489   1.473   8.806   3.287  0.0729  0.0049 -0.0029
    1DIPC   D2A26490   1.769   8.729   3.565  0.0595  0.3292  0.3061
    1DIPC   D3A26491   1.845   8.439   3.206 -0.1124  0.1503  0.0864
    1DIPC   C4A26492   1.481   8.245   3.140  0.3395  0.1602 -0.0749
    1DIPC   C1B26493   1.941   9.230   3.345  0.0506  0.0568 -0.0224
    1DIPC   D2B26494   2.042   9.433   3.734 -0.2664  0.0226 -0.0298
    1DIPC   D3B26495   1.930   9.190   4.052  0.0638  0.1344  0.0476
    1DIPC   C4B26496   2.295   8.912   4.110 -0.0225  0.2011  0.5786
    1DIPC   NC326497   6.719   3.856   3.005  0.2841 -0.0707  0.2328
    1DIPC   PO426498   6.967   3.780   3.340  0.1315 -0.0242 -0.0015
    1DIPC   GL126499   7.050   3.742   3.749 -0.1606 -0.2674  0.2859
    1DIPC   GL226500   7.393   3.560   3.855  0.0989 -0.0717 -0.0531
    1DIPC   C1A26501   6.993   3.559   4.087 -0.3056  0.1199  0.1532
    1DIPC   D2A26502   6.689   3.625   4.384  0.0852 -0.5098  0.0123
    1DIPC   D3A26503   6.642   3.256   4.783 -0.0179 -0.0842  0.0449
    1DIPC   C4A26504   6.686   3.415   5.232 -0.0916  0.1963  0.2516
    1DIPC   C1B26505   7.461   3.416   4.238 -0.1950 -0.0075  0.2077
    1DIPC   D2B26506   7.730   3.208   4.441 -0.0705 -0.1172 -0.0673
    1DIPC   D3B26507   7.982   3.250   4.189  0.2720  0.3057 -0.2097
    1DIPC   C4B26508   8.379   3.370   4.437  0.1315 -0.0338  0.2389
    1DIPC   NC326509  17.434  21.557   2.755  0.0222  0.2818  0.3055
    1DIPC   PO426510  17.540  21.165   2.838  0.1364 -0.0532  0.0964
    1DIPC   GL126511  17.318  20.870   3.195 -0.1708  0.1130  0.2169
    1DIPC   GL226512  17.260  21.030   3.423  0.0783 -0.0727  0.2092
    1DIPC   C1A26513  17.468  20.391   3.356  0.2293  0.0294 -0.0072
    1DIPC   D2A26514  17.635  19.970   3.333 -0.1941  0.3843 -0.1261
    1DIPC   D3A26515  18.041  19.808   3.296  0.2822  0.1334 -0.0242
    1DIPC   C4A26516  18.398  20.000   3.170  0.1133  0.0368  0.1298
    1DIPC   C1B26517  17.495  21.259   3.801  0.0583  0.1007 -0.4254
    1DIPC   D2B26518  17.610  21.575   4.083  0.1464  0.0008 -0.1580
    1DIPC   D3B26519  17.325  21.436   4.503 -0.1297  0.2320  0.1390
    1DIPC   C4B26520  16.959  21.150   4.661  0.0745  0.1105 -0.1818
    1DIPC   NC326521  18.207  18.662   2.371  0.2053 -0.1199 -0.0369
    1DIPC   PO426522  17.956  18.471   2.695 -0.1027  0.1355 -0.1284
    1DIPC   GL126523  18.025  18.506   3.140  0.2305 -0.0860  0.1192
    1DIPC   GL226524  18.078  18.233   3.408 -0.2385  0.0584  0.0834
    1DIPC   C1A26525  18.124  18.849   3.362  0.1756  0.2178  0.0217
    1DIPC   D2A26526  18.054  19.260   3.404 -0.2521  0.0166  0.1963
    1DIPC   D3A26527  18.362  19.408   3.132 -0.2465 -0.0013  0.1383
    1DIPC   C4A26528  18.761  19.256   3.381  0.2123 -0.0063  0.4037
    1DIPC   C1B26529  18.244  18.267   3.753 -0.3489 -0.0186  0.0339
    1DIPC   D2B26530  18.431  17.961   4.056  0.0020 -0.0506  0.0074
    1DIPC   D3B26531  18.852  18.052   4.042 -0.1263 -0.1606 -0.0063
    1DIPC   C4B26532  18.989  18.178   3.560 -0.0354  0.0918  0.0128
    1DIPC   NC326533  11.119  23.211   2.613 -0.0729  0.0282 -0.3058
    1DIPC   PO426534  10.693  23.088   2.757  0.1614  0.4235 -0.1112
    1DIPC   GL126535  10.991  22.834   3.041 -0.2768 -0.2357  0.0626
    1DIPC   GL226536  11.294  22.923   3.032 -0.3212  0.1363 -0.0199
    1DIPC   C1A26537  10.947  22.633   3.502 -0.4765 -0.0865 -0.0300
    1DIPC   D2A26538  10.973  22.865   3.972 -0.0644 -0.0534 -0.0988
    1DIPC   D3A26539  11.340  22.854   4.359 -0.0754 -0.0310  0.0629
    1DIPC   C4A26540  11.702  22.806   4.018  0.1270 -0.1260 -0.1618
    1DIPC   C1B26541  11.294  23.171   3.352 -0.1857 -0.0295  0.3134
    1DIPC   D2B26542  11.015  23.314   3.728  0.0484  0.2526  0.3786
    1DIPC   D3B26543  10.946  23.725   3.958 -0.1818  0.0126  0.1584
    1DIPC   C4B26544  10.927  23.753   4.411  0.2131  0.1445 -0.0895
    1DIPC   NC326545   1.975   5.305   2.959  0.0301  0.1630  0.4045
    1DIPC   PO426546   2.392   5.245   2.953 -0.2400  0.1058  0.2892
    1DIPC   GL126547   2.598   5.220   3.286 -0.1098  0.0357 -0.0651
    1DIPC   GL226548   2.786   5.597   3.458  0.1886  0.0922  0.0631
    1DIPC   C1A26549   2.675   4.968   3.636  0.0499 -0.2929  0.0233
    1DIPC   D2A26550   2.400   4.618   3.762  0.2136  0.5233 -0.0322
    1DIPC   D3A26551   2.397   4.624   4.088  0.3685 -0.2067 -0.3261
    1DIPC   C4A26552   2.048   4.395   4.392 -0.0860  0.4784  0.0098
    1DIPC   C1B26553   2.433   5.400   3.712  0.0274  0.1640  0.2196
    1DIPC   D2B26554   2.355   5.137   4.052  0.1726 -0.0571 -0.1039
    1DIPC   D3B26555   2.761   4.939   4.151  0.3741 -0.5768  0.1042
    1DIPC   C4B26556   2.702   4.677   4.509  0.1566 -0.1101  0.1353
    1DIPC   NC326557   8.051   8.709   3.035  0.2610  0.1456 -0.3614
    1DIPC   PO426558   7.872   8.942   3.486 -0.2221 -0.3126  0.2486
    1DIPC   GL126559   7.674   8.997   3.848 -0.1692 -0.1895  0.1587
    1DIPC   GL226560   7.369   9.055   3.893  0.1762 -0.2351 -0.2382
    1DIPC   C1A26561   7.700   9.117   4.398 -0.1266  0.2319  0.0572
    1DIPC   D2A26562   7.588   9.475   4.469  0.0207  0.3257 -0.1582
    1DIPC   D3A26563   7.483   9.574   4.099 -0.0674  0.0887  0.5456
    1DIPC   C4A26564   7.850   9.520   3.804  0.0872 -0.2380 -0.0108
    1DIPC   C1B26565   7.144   9.278   4.210 -0.1118 -0.0543 -0.1764
    1DIPC   D2B26566   7.073   9.142   4.616 -0.1128  0.0805  0.3675
    1DIPC   D3B26567   6.944   9.218   5.073 -0.1050 -0.3679 -0.0167
    1DIPC   C4B26568   6.576   9.213   5.318 -0.0746  0.0515  0.1402
    1DIPC   NC326569  15.088  28.003   2.816  0.2569 -0.1461 -0.1532
    1DIPC   PO426570  15.228  28.370   3.062  0.0091 -0.0785  0.0140
    1DIPC   GL126571  15.315  28.297   3.475 -0.0266 -0.0764  0.0491
    1DIPC   GL226572  15.012  28.360   3.601 -0.1495 -0.0307 -0.0753
    1DIPC   C1A26573  15.350  28.111   3.892  0.1571 -0.0975 -0.2163
    1DIPC   D2A26574  15.407  27.788   4.269 -0.1855 -0.0428 -0.0784
    1DIPC   D3A26575  15.563  27.839   4.777  0.3407  0.2267 -0.1634
    1DIPC   C4A26576  15.584  28.201   4.976  0.1311  0.0326  0.0020
    1DIPC   C1B26577  14.862  28.394   3.989  0.1404  0.3174 -0.1189
    1DIPC   D2B26578  14.769  28.361   4.353 -0.1681  0.0728  0.2861
    1DIPC   D3B26579  15.083  28.767   4.294  0.1015 -0.3676 -0.2355
    1DIPC   C4B26580  15.422  28.935   4.534 -0.4308 -0.1901 -0.1238
    1DIPC   NC326581  28.415  25.675   2.670 -0.2482 -0.1031 -0.0443
    1DIPC   PO426582  28.102  25.924   2.929  0.4197  0.1585  0.0004
    1DIPC   GL126583  28.200  26.030   3.388  0.1771 -0.0406 -0.0629
    1DIPC   GL226584  28.197  26.330   3.552 -0.2099  0.1963 -0.4147
    1DIPC   C1A26585  28.438  25.819   3.652  0.0161 -0.1965 -0.1151
    1DIPC   D2A26586  28.567  25.557   3.988 -0.2725  0.4962  0.1304
    1DIPC   D3A26587  28.324  25.231   4.196 -0.1415 -0.1917 -0.0749
    1DIPC   C4A26588  28.497  24.765   4.243 -0.0803 -0.4899 -0.2214
    1DIPC   C1B26589  28.137  26.603   3.845 -0.0257  0.0135 -0.0923
    1DIPC   D2B26590  27.992  26.831   4.198 -0.0462 -0.1063 -0.1077
    1DIPC   D3B26591  27.746  27.182   4.241 -0.1432  0.2594  0.1273
    1DIPC   C4B26592  27.460  27.360   3.843 -0.2219  0.0127  0.1748
    1DIPC   NC326593  10.448  23.802   2.400 -0.0195 -0.1676 -0.0283
    1DIPC   PO426594  10.392  24.071   2.818  0.4117  0.3801  0.1377
    1DIPC   GL126595  10.404  23.887   3.238 -0.2580 -0.0115 -0.4184
    1DIPC   GL226596  10.226  23.644   3.326  0.0380 -0.1311  0.1370
    1DIPC   C1A26597  10.412  23.967   3.728  0.0305 -0.5227  0.0062
    1DIPC   D2A26598  10.465  23.896   4.122 -0.1288  0.1782  0.1302
    1DIPC   D3A26599  10.403  24.346   4.272  0.0456  0.1094 -0.1190
    1DIPC   C4A26600  10.070  24.402   4.615  0.0627  0.1796 -0.1916
    1DIPC   C1B26601  10.010  23.695   3.724 -0.2063  0.3222 -0.2114
    1DIPC   D2B26602   9.689  23.883   3.831 -0.2614 -0.1632  0.1748
    1DIPC   D3B26603   9.812  24.224   3.529  0.2186  0.0535 -0.0428
    1DIPC   C4B26604   9.629  24.587   3.606  0.3309 -0.1104 -0.0418
    1DIPC   NC326605  21.070  11.222   1.725  0.2698  0.1470  0.0103
    1DIPC   PO426606  21.288  10.963   2.106 -0.0229 -0.1355 -0.0511
    1DIPC   GL126607  21.493  11.271   2.536  0.0294 -0.0954  0.2068
    1DIPC   GL226608  21.497  11.113   2.826 -0.0382  0.4047  0.3827
    1DIPC   C1A26609  21.941  11.295   2.695 -0.1365 -0.1386 -0.2239
    1DIPC   D2A26610  22.331  11.146   3.019 -0.2938  0.1937  0.3351
    1DIPC   D3A26611  21.866  11.075   3.145 -0.0655 -0.0505  0.2741
    1DIPC   C4A26612  21.800  10.806   3.471  0.1837  0.0398 -0.1955
    1DIPC   C1B26613  21.122  11.188   3.114 -0.1195 -0.1937  0.1886
    1DIPC   D2B26614  20.761  11.150   3.421  0.0494 -0.0221 -0.0094
    1DIPC   D3B26615  20.653  11.312   3.008  0.0664  0.1173  0.0706
    1DIPC   C4B26616  21.001  11.431   2.702  0.0818 -0.1736 -0.3575
    1DIPC   NC326617  29.526   9.132   2.737 -0.0663 -0.1210 -0.0267
    1DIPC   PO426618  29.345   8.790   2.944  0.0595 -0.1083  0.1300
    1DIPC   GL126619  29.057   8.851   3.323 -0.1784 -0.4212 -0.0706
    1DIPC   GL226620  29.321   8.675   3.478  0.1295 -0.1044  0.0467
    1DIPC   C1A26621  29.053   8.884   3.845 -0.0098 -0.1400  0.0508
    1DIPC   D2A26622  28.981   9.172   4.302  0.0505  0.0155 -0.3075
    1DIPC   D3A26623  29.201   8.880   4.552 -0.0369  0.1136  0.0506
    1DIPC   C4A26624  29.590   9.020   4.776  0.0079  0.0278 -0.0829
    1DIPC   C1B26625  29.568   8.516   3.904  0.0041 -0.0265  0.1934
    1DIPC   D2B26626  29.719   8.632   4.282 -0.0574 -0.1434  0.2104
    1DIPC   D3B26627  29.957   8.780   4.068  0.1668  0.1660  0.5047
    1DIPC   C4B26628  30.163   9.179   4.045  0.0756 -0.2772 -0.0657
    1DIPC   NC326629  14.347  13.146   2.764 -0.1903 -0.0315  0.1782
    1DIPC   PO426630  14.698  13.369   2.954  0.0602  0.0061  0.3000
    1DIPC   GL126631  14.467  13.203   3.327  0.2501  0.0943  0.3825
    1DIPC   GL226632  14.186  13.325   3.231  0.3054  0.0792  0.0188
    1DIPC   C1A26633  14.213  13.099   3.715  0.0711  0.0125  0.0862
    1DIPC   D2A26634  14.060  12.950   4.059  0.0757  0.2187 -0.1535
    1DIPC   D3A26635  14.165  13.255   4.390  0.1617 -0.0863  0.0725
    1DIPC   C4A26636  14.269  13.758   4.275  0.3235 -0.3547  0.0450
    1DIPC   C1B26637  13.872  13.431   3.528  0.0642  0.1916 -0.3473
    1DIPC   D2B26638  13.494  13.711   3.632  0.0535 -0.0786 -0.1546
    1DIPC   D3B26639  13.347  13.477   3.332 -0.1768  0.0324 -0.0816
    1DIPC   C4B26640  13.547  13.121   3.272  0.1945  0.4070 -0.0362
    1DIPC   NC326641  16.574  22.623   2.637 -0.0660  0.2897 -0.1466
    1DIPC   PO426642  16.955  22.886   2.653  0.0793 -0.1418  0.1589
    1DIPC   GL126643  16.905  22.776   2.997 -0.1351 -0.1208 -0.0338
    1DIPC   GL226644  17.060  22.470   3.238  0.1197  0.1254  0.2192
    1DIPC   C1A26645  16.860  22.844   3.457 -0.0342  0.1807 -0.1765
    1DIPC   D2A26646  17.269  22.789   3.684  0.3616 -0.2451 -0.0752
    1DIPC   D3A26647  17.268  23.033   4.040  0.2058  0.3045 -0.1339
    1DIPC   C4A26648  17.447  22.711   4.436  0.2092  0.1191 -0.1069
    1DIPC   C1B26649  16.896  22.368   3.697  0.1865 -0.3775 -0.0536
    1DIPC   D2B26650  16.724  22.272   4.079 -0.0000  0.1857  0.0666
    1DIPC   D3B26651  16.995  22.502   4.370  0.0254  0.0261  0.0414
    1DIPC   C4B26652  17.186  22.282   4.657  0.1055 -0.1078  0.2336
    1DIPC   NC326653   8.506  14.482   2.733 -0.1958  0.2122  0.1460
    1DIPC   PO426654   8.645  14.087   2.781 -0.0850 -0.2541  0.1931
    1DIPC   GL126655   8.414  14.196   3.173 -0.2869  0.2314 -0.1753
    1DIPC   GL226656   8.202  14.400   3.233 -0.1822  0.0166 -0.1263
    1DIPC   C1A26657   8.429  14.294   3.646 -0.0428 -0.1018 -0.0875
    1DIPC   D2A26658   8.519  14.240   4.054  0.2766 -0.5325 -0.4692
    1DIPC   D3A26659   8.620  14.250   4.540  0.1492 -0.3002 -0.0750
    1DIPC   C4A26660   8.868  14.386   4.806  0.2326 -0.0049  0.0598
    1DIPC   C1B26661   7.955  14.471   3.535 -0.0273  0.2688 -0.0198
    1DIPC   D2B26662   7.996  14.490   3.866 -0.0773  0.2926 -0.2858
    1DIPC   D3B26663   7.770  14.384   4.264 -0.0340  0.0514  0.1279
    1DIPC   C4B26664   7.456  14.676   4.494  0.1011  0.0058  0.2641
    1DIPC   NC326665  22.904  26.779   3.094  0.1328 -0.3489  0.3515
    1DIPC   PO426666  23.121  26.530   3.266 -0.1190  0.0820 -0.1471
    1DIPC   GL126667  23.283  26.229   3.490 -0.3130  0.0834 -0.1081
    1DIPC   GL226668  23.439  26.324   3.733  0.1029  0.2658  0.1970
    1DIPC   C1A26669  23.055  26.043   3.922 -0.1577 -0.0806 -0.1615
    1DIPC   D2A26670  23.147  25.874   4.357  0.3401  0.0776  0.1367
    1DIPC   D3A26671  23.428  25.845   4.812  0.2861  0.1057 -0.0717
    1DIPC   C4A26672  23.601  26.231   5.070 -0.2014 -0.1971  0.2393
    1DIPC   C1B26673  23.429  26.315   4.133  0.0417 -0.2100 -0.0175
    1DIPC   D2B26674  23.482  26.282   4.566 -0.2207 -0.0015 -0.2570
    1DIPC   D3B26675  23.053  26.346   4.502 -0.0114 -0.1705  0.1790
    1DIPC   C4B26676  22.710  26.556   4.354 -0.0267  0.3098  0.1239
    1DIPC   NC326677   5.346  27.095   2.684  0.2644  0.1116 -0.2455
    1DIPC   PO426678   5.768  26.915   2.832 -0.0781 -0.0107  0.0131
    1DIPC   GL126679   5.577  27.002   3.177  0.4332  0.1401  0.3796
    1DIPC   GL226680   5.508  26.821   3.385 -0.0474  0.0621 -0.0139
    1DIPC   C1A26681   5.328  27.267   3.507 -0.0519  0.0535  0.0042
    1DIPC   D2A26682   5.189  27.228   4.018  0.3610  0.0078 -0.1122
    1DIPC   D3A26683   4.803  27.018   4.237  0.0856  0.1389 -0.0144
    1DIPC   C4A26684   4.544  26.669   4.161  0.1452  0.1017  0.1808
    1DIPC   C1B26685   5.211  26.761   3.704  0.0278 -0.2484  0.1777
    1DIPC   D2B26686   5.148  26.656   4.166  0.1025  0.0537  0.2556
    1DIPC   D3B26687   5.382  26.493   4.566  0.2969  0.0768 -0.0919
    1DIPC   C4B26688   5.145  26.722   4.932  0.2033 -0.2033 -0.1170
    1DIPC   NC326689  18.353  11.251   1.982  0.0450  0.0404  0.1109
    1DIPC   PO426690  18.405  11.650   2.045  0.1661 -0.2643  0.1879
    1DIPC   GL126691  18.440  11.912   2.493 -0.0713 -0.0315  0.3054
    1DIPC   GL226692  18.447  12.294   2.435 -0.1867  0.2844 -0.0440
    1DIPC   C1A26693  18.630  11.850   2.900 -0.0644 -0.0905  0.2317
    1DIPC   D2A26694  18.641  11.935   3.310 -0.2671 -0.0002  0.0033
    1DIPC   D3A26695  18.253  11.892   3.370 -0.0384  0.0081  0.0751
    1DIPC   C4A26696  18.192  11.943   3.771 -0.0414 -0.5850 -0.0451
    1DIPC   C1B26697  18.871  12.156   2.620 -0.3917  0.1254 -0.0025
    1DIPC   D2B26698  19.246  12.291   2.738 -0.2241 -0.2481  0.1252
    1DIPC   D3B26699  19.251  12.492   3.116 -0.1313  0.2269  0.1202
    1DIPC   C4B26700  19.289  12.972   3.228 -0.2727 -0.0381  0.0822
    1DIPC   NC326701  15.614  11.765   3.037 -0.3163 -0.0507  0.0860
    1DIPC   PO426702  15.651  12.239   3.246  0.0892  0.3838  0.1539
    1DIPC   GL126703  15.666  12.038   3.615  0.0344  0.0140  0.0706
    1DIPC   GL226704  15.929  11.902   3.539 -0.1927  0.0149 -0.1100
    1DIPC   C1A26705  15.833  12.111   4.003  0.0269  0.0290 -0.1553
    1DIPC   D2A26706  16.001  12.082   4.388  0.0812  0.0954  0.1975
    1DIPC   D3A26707  16.272  12.351   4.103 -0.0182  0.0928  0.0314
    1DIPC   C4A26708  16.290  12.821   3.922 -0.0190 -0.0477  0.1577
    1DIPC   C1B26709  16.263  11.849   3.925  0.1115  0.1616  0.0329
    1DIPC   D2B26710  16.456  11.932   4.297 -0.2035 -0.1217 -0.2506
    1DIPC   D3B26711  16.797  11.476   4.523 -0.0118  0.1785 -0.2942
    1DIPC   C4B26712  17.059  11.105   4.383  0.0398 -0.2065  0.1636
    1DIPC   NC326713  17.829  26.950   3.201  0.1744  0.4024  0.1819
    1DIPC   PO426714  17.490  27.083   3.281 -0.1812  0.0698 -0.5371
    1DIPC   GL126715  17.572  27.247   3.655  0.0013 -0.0487 -0.0763
    1DIPC   GL226716  17.275  27.457   3.525 -0.2133 -0.0232 -0.0257
    1DIPC   C1A26717  17.909  27.392   3.843 -0.1020  0.2956  0.0524
    1DIPC   D2A26718  18.038  27.587   4.181  0.1122  0.2624  0.0402
    1DIPC   D3A26719  17.898  27.410   4.573  0.0295 -0.0562 -0.1455
    1DIPC   C4A26720  17.735  27.621   5.002 -0.3168  0.1809  0.3492
    1DIPC   C1B26721  17.315  27.600   3.804  0.2428 -0.1377 -0.0308
    1DIPC   D2B26722  17.483  27.450   4.270  0.3286 -0.1829 -0.0007
    1DIPC   D3B26723  17.060  27.265   4.502  0.0700  0.2930 -0.0729
    1DIPC   C4B26724  16.952  26.894   4.808 -0.0260  0.0808 -0.0517
    1DIPC   NC326725   0.136   5.553   2.962  0.0424 -0.2240 -0.0317
    1DIPC   PO426726   0.063   5.997   2.972 -0.2236  0.1115 -0.3099
    1DIPC   GL126727  -0.256   6.142   3.244  0.1566  0.2387 -0.2356
    1DIPC   GL226728  -0.104   5.924   3.500 -0.1335  0.0117  0.0423
    1DIPC   C1A26729  -0.559   6.347   3.598  0.4549  0.0985  0.0226
    1DIPC   D2A26730  -0.614   6.397   4.092 -0.1524  0.3972  0.1954
    1DIPC   D3A26731  -0.841   6.434   4.453 -0.0421 -0.1156 -0.1571
    1DIPC   C4A26732  -0.986   6.001   4.466  0.1838 -0.2023 -0.2007
    1DIPC   C1B26733  -0.112   6.083   3.934  0.4377  0.0440 -0.0240
    1DIPC   D2B26734   0.163   6.388   4.118  0.2424 -0.0192  0.1835
    1DIPC   D3B26735   0.441   6.506   4.461 -0.1411  0.0587  0.0342
    1DIPC   C4B26736   0.809   6.262   4.629 -0.0161  0.1619 -0.0553
    1DIPC   NC326737  26.485  26.546   2.960 -0.0740 -0.2158  0.1216
    1DIPC   PO426738  26.278  26.492   3.416  0.0160  0.1615 -0.0827
    1DIPC   GL126739  26.221  26.508   3.875 -0.0084  0.0149  0.1952
    1DIPC   GL226740  26.493  26.730   3.955 -0.1273 -0.1472 -0.0113
    1DIPC   C1A26741  26.208  26.511   4.299 -0.2502  0.0812 -0.0050
    1DIPC   D2A26742  26.206  26.463   4.757 -0.3182 -0.3398 -0.1382
    1DIPC   D3A26743  25.805  26.456   4.838  0.1155 -0.0714 -0.0225
    1DIPC   C4A26744  25.340  26.418   4.748 -0.0667 -0.0810  0.2301
    1DIPC   C1B26745  26.672  26.744   4.383 -0.1235 -0.3351 -0.1053
    1DIPC   D2B26746  27.075  26.842   4.658 -0.1421 -0.2079  0.1174
    1DIPC   D3B26747  27.392  27.177   4.627  0.4322 -0.0707  0.0242
    1DIPC   C4B26748  27.182  27.519   4.821  0.2927  0.0434 -0.0880
    1DIPC   NC326749   9.994  25.117   2.839  0.1575  0.0834  0.0488
    1DIPC   PO426750   9.973  25.303   3.224  0.2213  0.1601  0.1260
    1DIPC   GL126751   9.876  25.306   3.622  0.0208 -0.1056 -0.0121
    1DIPC   GL226752  10.076  25.500   3.808  0.2406  0.0782  0.1092
    1DIPC   C1A26753   9.922  25.028   3.894 -0.0401 -0.2019  0.2357
    1DIPC   D2A26754   9.970  24.792   4.302 -0.3003 -0.0654  0.1667
    1DIPC   D3A26755  10.388  24.886   4.047  0.1359 -0.0387  0.1685
    1DIPC   C4A26756  10.715  24.733   4.271  0.0675  0.0089  0.1060
    1DIPC   C1B26757   9.824  25.653   4.160 -0.3331  0.3084  0.2457
    1DIPC   D2B26758   9.780  25.697   4.572 -0.0993 -0.0152 -0.0631
    1DIPC   D3B26759   9.447  25.819   4.871  0.0760  0.1324  0.2881
    1DIPC   C4B26760   9.087  25.873   4.792  0.0498  0.0231 -0.2320
    1DIPC   NC326761  24.340  10.941   2.484 -0.1251 -0.1832  0.2818
    1DIPC   PO426762  24.526  11.166   2.146 -0.0121  0.3267 -0.2521
    1DIPC   GL126763  24.755  11.465   2.465  0.2095  0.3356 -0.1091
    1DIPC   GL226764  24.523  11.333   2.762 -0.1943 -0.0255 -0.1601
    1DIPC   C1A26765  25.112  11.594   2.687 -0.0891 -0.2614 -0.1912
    1DIPC   D2A26766  25.150  11.842   3.114 -0.5963  0.0394 -0.2083
    1DIPC   D3A26767  24.846  12.010   3.405  0.1508  0.1439 -0.0778
    1DIPC   C4A26768  24.549  11.849   3.529 -0.1203  0.3501 -0.0296
    1DIPC   C1B26769  24.910  11.050   2.768 -0.1287  0.3595  0.0058
    1DIPC   D2B26770  25.078  11.117   3.060 -0.2627  0.1977  0.1800
    1DIPC   D3B26771  24.904  11.431   3.267  0.1881  0.2341 -0.1978
    1DIPC   C4B26772  25.132  11.567   3.638 -0.1377  0.1490  0.2040
    1DIPC   NC326773  14.069  28.697   2.870  0.0898  0.1538 -0.1857
    1DIPC   PO426774  14.136  28.438   3.241  0.1096 -0.0769 -0.0182
    1DIPC   GL126775  14.298  28.319   3.643 -0.0297 -0.1422 -0.0134
    1DIPC   GL226776  14.494  28.140   3.555 -0.0127 -0.0305 -0.1465
    1DIPC   C1A26777  14.344  28.491   4.068 -0.4110  0.3180  0.3168
    1DIPC   D2A26778  14.256  28.317   4.532 -0.1108  0.0772  0.1019
    1DIPC   D3A26779  14.141  28.643   4.687  0.1031  0.0122 -0.0617
    1DIPC   C4A26780  13.660  28.735   4.476 -0.0518  0.0051  0.0878
    1DIPC   C1B26781  14.730  27.911   3.835 -0.1870  0.1185 -0.0897
    1DIPC   D2B26782  14.885  27.809   4.101 -0.1855  0.3120  0.0756
    1DIPC   D3B26783  14.593  27.893   4.400 -0.0889  0.1459 -0.0103
    1DIPC   C4B26784  14.562  27.615   4.712  0.2274  0.2438 -0.0523
    1DIPC   NC326785  26.484  18.885   1.169  0.0536 -0.0788 -0.2929
    1DIPC   PO426786  26.128  19.203   1.198  0.4007  0.0373  0.0566
    1DIPC   GL126787  26.245  19.258   1.612 -0.2566 -0.0992  0.0875
    1DIPC   GL226788  26.641  19.255   1.725  0.2221 -0.2396 -0.0033
    1DIPC   C1A26789  26.134  19.440   1.964 -0.1371  0.1882  0.2657
    1DIPC   D2A26790  26.423  19.383   2.372  0.2847  0.0451  0.0271
    1DIPC   D3A26791  26.152  19.717   2.442  0.1904 -0.0308  0.1275
    1DIPC   C4A26792  26.174  19.970   2.053 -0.2595 -0.0249 -0.0732
    1DIPC   C1B26793  26.467  18.992   2.085 -0.1306 -0.0203 -0.2068
    1DIPC   D2B26794  26.479  18.962   2.600 -0.1953 -0.2294 -0.1010
    1DIPC   D3B26795  26.504  19.086   2.987  0.3134  0.1116  0.0106
    1DIPC   C4B26796  26.228  19.248   3.362  0.0875 -0.0930  0.2245
    1DIPC   NC326797  19.807  11.718   2.519  0.1434 -0.0377 -0.2313
    1DIPC   PO426798  19.683  12.149   2.562  0.0924  0.3937  0.1565
    1DIPC   GL126799  19.671  11.941   2.946  0.3678  0.2079 -0.1394
    1DIPC   GL226800  19.567  11.518   2.943 -0.3792 -0.0991  0.0209
    1DIPC   C1A26801  19.623  12.122   3.380  0.0230 -0.1795  0.4692
    1DIPC   D2A26802  19.533  12.129   3.909 -0.1684  0.1782 -0.0461
    1DIPC   D3A26803  19.788  12.358   4.047 -0.3319  0.1003 -0.0645
    1DIPC   C4A26804  19.548  12.698   4.233 -0.0223  0.0276 -0.0664
    1DIPC   C1B26805  19.625  11.560   3.393 -0.0783  0.1032 -0.1200
    1DIPC   D2B26806  19.636  11.685   3.668 -0.1293  0.3269  0.1924
    1DIPC   D3B26807  19.798  11.643   4.043  0.2201 -0.1313 -0.1015
    1DIPC   C4B26808  19.675  11.934   4.387 -0.0199 -0.1113  0.0716
    1DIPC   NC326809  16.673  16.046   2.859 -0.2244  0.3814 -0.1777
    1DIPC   PO426810  16.170  16.012   2.738 -0.0868 -0.1848 -0.0227
    1DIPC   GL126811  16.325  15.845   3.132  0.0092  0.0224  0.0894
    1DIPC   GL226812  16.119  15.898   3.397 -0.2016 -0.0047  0.4157
    1DIPC   C1A26813  16.397  15.496   3.420  0.0185  0.2248  0.0970
    1DIPC   D2A26814  16.405  15.085   3.809 -0.1570  0.0031  0.1702
    1DIPC   D3A26815  16.766  15.250   4.139  0.1796 -0.0162 -0.4636
    1DIPC   C4A26816  17.163  15.042   4.112  0.2787 -0.1423  0.2438
    1DIPC   C1B26817  15.978  15.974   3.863 -0.3465 -0.3977 -0.2673
    1DIPC   D2B26818  16.114  15.925   4.189 -0.1531  0.2579  0.0304
    1DIPC   D3B26819  16.144  16.351   4.055 -0.1450 -0.0339 -0.0003
    1DIPC   C4B26820  16.108  16.660   4.407  0.1619 -0.4056 -0.1097
    1DIPC   NC326821   9.033  20.627   2.463  0.1706  0.0655  0.0729
    1DIPC   PO426822   9.121  20.223   2.358  0.1374  0.2057 -0.0893
    1DIPC   GL126823   9.444  19.944   2.694  0.2099  0.1712  0.0713
    1DIPC   GL226824   9.730  19.981   2.613 -0.1391 -0.0650 -0.2857
    1DIPC   C1A26825   9.379  19.744   3.050 -0.0098  0.0823 -0.0319
    1DIPC   D2A26826   9.348  19.321   3.291 -0.2832 -0.0486 -0.1417
    1DIPC   D3A26827   9.192  19.236   3.664  0.1567  0.1385  0.2367
    1DIPC   C4A26828   9.438  19.352   4.010 -0.0483  0.1827  0.2744
    1DIPC   C1B26829   9.745  20.133   3.008 -0.0239 -0.0345  0.2241
    1DIPC   D2B26830   9.524  20.487   3.257 -0.0046  0.2449 -0.0956
    1DIPC   D3B26831   9.179  20.218   3.175  0.1624 -0.2322 -0.3726
    1DIPC   C4B26832   8.743  20.306   3.220  0.1150  0.0424  0.0225
    1DIPC   NC326833  24.233   7.306   2.877 -0.3598 -0.2218 -0.1059
    1DIPC   PO426834  24.129   7.035   3.236  0.1494 -0.1965 -0.1379
    1DIPC   GL126835  24.214   7.159   3.661  0.1278 -0.0500 -0.0417
    1DIPC   GL226836  24.567   7.095   3.743 -0.1464 -0.0173 -0.0736
    1DIPC   C1A26837  24.296   7.339   4.037  0.1846  0.1193  0.0705
    1DIPC   D2A26838  24.294   7.535   4.505 -0.0119 -0.0699 -0.3844
    1DIPC   D3A26839  24.486   7.225   4.752 -0.1470  0.1033  0.0580
    1DIPC   C4A26840  24.852   7.318   4.673 -0.2954  0.2870  0.1822
    1DIPC   C1B26841  24.985   7.197   3.713 -0.3286  0.0772 -0.0309
    1DIPC   D2B26842  25.291   7.517   3.893 -0.1591  0.1385  0.2217
    1DIPC   D3B26843  25.220   7.563   4.356  0.1268  0.3114 -0.2565
    1DIPC   C4B26844  24.918   7.924   4.481  0.1897  0.3164  0.2190
    1DIPC   NC326845  23.578   2.051   2.813 -0.1101 -0.0506 -0.2545
    1DIPC   PO426846  23.919   2.161   3.159 -0.0411 -0.0496 -0.5235
    1DIPC   GL126847  23.783   2.154   3.597  0.0762  0.1172 -0.0418
    1DIPC   GL226848  23.532   2.305   3.636  0.0910  0.1872 -0.2997
    1DIPC   C1A26849  23.913   2.081   3.878 -0.0637 -0.0642  0.0786
    1DIPC   D2A26850  24.286   2.033   4.135  0.1942 -0.2641 -0.1085
    1DIPC   D3A26851  23.829   1.853   4.376 -0.1142 -0.1499 -0.1313
    1DIPC   C4A26852  23.530   2.186   4.196 -0.0366 -0.0603 -0.0046
    1DIPC   C1B26853  23.783   2.596   3.861 -0.2407  0.1475  0.1019
    1DIPC   D2B26854  23.980   2.457   4.250 -0.0280  0.0605  0.1559
    1DIPC   D3B26855  24.354   2.417   4.476 -0.1285  0.3320  0.2160
    1DIPC   C4B26856  24.449   2.465   4.928 -0.1996 -0.1603  0.1077
    1DIPC   NC326857   8.836  28.951   3.541 -0.0424  0.5194  0.2700
    1DIPC   PO426858   8.444  28.770   3.410 -0.0196 -0.1267 -0.1655
    1DIPC   GL126859   8.460  28.749   3.845 -0.0112 -0.0142 -0.1276
    1DIPC   GL226860   8.454  29.028   3.908  0.0120 -0.2835 -0.0672
    1DIPC   C1A26861   8.250  28.637   4.240  0.6349 -0.1335 -0.0798
    1DIPC   D2A26862   8.129  28.678   4.714 -0.2236  0.1240  0.1048
    1DIPC   D3A26863   7.699  28.823   4.659 -0.0093  0.2825 -0.1461
    1DIPC   C4A26864   7.481  28.732   4.991  0.0150 -0.1322 -0.0054
    1DIPC   C1B26865   7.986  29.033   4.207  0.1608 -0.1682 -0.1101
    1DIPC   D2B26866   7.683  29.348   4.459  0.5429  0.1416  0.3351
    1DIPC   D3B26867   7.914  29.354   4.829  0.0228 -0.0421  0.1034
    1DIPC   C4B26868   7.769  29.106   5.184  0.4617 -0.1229  0.0812
    1DIPC   NC326869  11.372   1.486   3.805  0.0897  0.2373 -0.1953
    1DIPC   PO426870  11.509   1.818   3.825  0.1082 -0.3483  0.3263
    1DIPC   GL126871  11.544   1.785   4.243  0.0392  0.1403  0.0100
    1DIPC   GL226872  11.820   1.545   4.248  0.3539 -0.0096  0.0172
    1DIPC   C1A26873  11.581   2.080   4.678 -0.1199 -0.0933 -0.0699
    1DIPC   D2A26874  11.669   2.032   5.191  0.0215 -0.1027 -0.2059
    1DIPC   D3A26875  11.317   1.784   5.335  0.1723 -0.1577 -0.0262
    1DIPC   C4A26876  11.560   1.467   5.451  0.2830 -0.1403  0.1052
    1DIPC   C1B26877  11.924   1.703   4.607 -0.2278 -0.1473  0.1188
    1DIPC   D2B26878  12.044   1.749   5.056  0.1881 -0.2850 -0.2055
    1DIPC   D3B26879  11.932   1.446   5.000  0.1556 -0.3388  0.0269
    1DIPC   C4B26880  12.217   1.303   5.353  0.3666 -0.0984  0.1627
    1DIPC   NC326881  29.348   0.484   3.196  0.1608 -0.1845  0.0900
    1DIPC   PO426882  29.127   0.650   3.475  0.0780 -0.2013 -0.1967
    1DIPC   GL126883  28.879   0.753   3.843 -0.0006  0.1310  0.2563
    1DIPC   GL226884  28.557   0.804   3.959 -0.0538 -0.1764  0.1929
    1DIPC   C1A26885  28.947   0.774   4.244  0.0745  0.4719 -0.1063
    1DIPC   D2A26886  29.337   0.782   4.464  0.3654  0.0035  0.0297
    1DIPC   D3A26887  29.042   0.619   4.731 -0.1190  0.0352 -0.1577
    1DIPC   C4A26888  28.669   0.645   4.728 -0.3674 -0.1321  0.3490
    1DIPC   C1B26889  28.518   0.362   4.076  0.2812 -0.1649  0.0067
    1DIPC   D2B26890  28.598   0.120   4.539  0.2475 -0.1525 -0.0146
    1DIPC   D3B26891  28.293   0.299   4.682 -0.0978  0.2655  0.1238
    1DIPC   C4B26892  28.206   0.741   4.612 -0.1011  0.0589 -0.2673
    1DIPC   NC326893   3.083  27.953   2.240  0.1065  0.1623 -0.1648
    1DIPC   PO426894   3.330  27.859   2.686  0.3504 -0.0856  0.1759
    1DIPC   GL126895   3.144  27.771   3.090 -0.2895  0.0450  0.3056
    1DIPC   GL226896   3.161  27.454   3.370 -0.2585  0.1384 -0.0746
    1DIPC   C1A26897   2.805  27.826   3.472 -0.0801 -0.0829 -0.0944
    1DIPC   D2A26898   2.671  28.139   3.876  0.0086  0.2080  0.1234
    1DIPC   D3A26899   2.325  28.173   4.149  0.1008 -0.1135 -0.0548
    1DIPC   C4A26900   2.099  27.829   4.424 -0.0174 -0.0974  0.0048
    1DIPC   C1B26901   2.939  27.428   3.912 -0.0606  0.1050 -0.0829
    1DIPC   D2B26902   2.929  27.511   4.325 -0.3274 -0.0510 -0.1020
    1DIPC   D3B26903   2.635  27.831   4.273 -0.3526  0.0239  0.1602
    1DIPC   C4B26904   2.449  28.028   4.681  0.1231  0.3742 -0.1833
    1DIPC   NC326905  17.891   9.540   2.872 -0.1518  0.1124 -0.0723
    1DIPC   PO426906  17.438   9.483   2.705  0.0059  0.1298 -0.3485
    1DIPC   GL126907  17.467   9.842   3.028 -0.1512 -0.1292 -0.0046
    1DIPC   GL226908  17.775   9.877   3.215  0.1721 -0.1947 -0.1529
    1DIPC   C1A26909  17.311   9.858   3.375 -0.0390  0.2126  0.1528
    1DIPC   D2A26910  17.036   9.658   3.527 -0.5427 -0.0099  0.1750
    1DIPC   D3A26911  17.120   9.335   3.867 -0.3270 -0.2149  0.0824
    1DIPC   C4A26912  16.951   9.480   4.290 -0.0391 -0.0256 -0.3457
    1DIPC   C1B26913  17.718  10.011   3.727  0.2141  0.0348 -0.0384
    1DIPC   D2B26914  17.727  10.114   4.197 -0.0207 -0.1966  0.0859
    1DIPC   D3B26915  17.401  10.292   4.042 -0.0436  0.2171  0.1096
    1DIPC   C4B26916  17.536  10.781   4.123  0.0687 -0.3812  0.0490
    1DIPC   NC326917  25.142  27.646   3.120  0.0552 -0.0935  0.3033
    1DIPC   PO426918  25.474  27.504   3.048  0.1064 -0.0561 -0.1293
    1DIPC   GL126919  25.555  27.623   3.585 -0.0665  0.3769 -0.1360
    1DIPC   GL226920  25.713  27.946   3.655 -0.0319  0.0364  0.0560
    1DIPC   C1A26921  25.211  27.626   3.857  0.1192  0.2397  0.1567
    1DIPC   D2A26922  24.936  27.915   4.152  0.2540 -0.0134 -0.0674
    1DIPC   D3A26923  24.991  28.341   4.365  0.1753  0.0280 -0.1568
    1DIPC   C4A26924  25.186  28.381   4.688 -0.2010  0.1172 -0.0163
    1DIPC   C1B26925  25.875  27.739   4.027  0.3536  0.1791 -0.2138
    1DIPC   D2B26926  25.863  27.556   4.408 -0.2344  0.1936  0.4394
    1DIPC   D3B26927  25.576  27.292   4.711 -0.0118  0.1671 -0.1498
    1DIPC   C4B26928  25.630  27.048   5.099  0.0556 -0.0869 -0.0146
    1DIPC   NC326929  13.538  23.155   2.472  0.1641  0.1408  0.1553
    1DIPC   PO426930  13.736  22.849   2.760  0.0416  0.0655 -0.3681
    1DIPC   GL126931  13.457  23.097   3.019  0.2805  0.1506  0.1289
    1DIPC   GL226932  13.275  23.388   2.904 -0.3253  0.0857  0.4560
    1DIPC   C1A26933  13.518  22.995   3.407 -0.0437  0.1015  0.1583
    1DIPC   D2A26934  13.906  22.857   3.631  0.0466 -0.0943  0.0330
    1DIPC   D3A26935  13.696  23.015   3.935 -0.2176 -0.2219 -0.0833
    1DIPC   C4A26936  13.267  23.093   3.805  0.0627 -0.1787  0.1431
    1DIPC   C1B26937  13.272  23.426   3.390 -0.1566 -0.0423 -0.0769
    1DIPC   D2B26938  12.829  23.566   3.657 -0.0942 -0.0020 -0.0308
    1DIPC   D3B26939  12.866  23.357   4.127 -0.0914  0.2017  0.0420
    1DIPC   C4B26940  12.576  23.531   4.415 -0.0943  0.2025 -0.3351
    1DIPC   NC326941  14.859  13.821   2.789  0.2121 -0.4583  0.4194
    1DIPC   PO426942  15.246  13.967   2.572 -0.4080 -0.0095 -0.1618
    1DIPC   GL126943  15.324  14.056   2.986 -0.2532 -0.3413 -0.1622
    1DIPC   GL226944  15.073  14.080   3.171 -0.1589 -0.1749  0.3800
    1DIPC   C1A26945  15.522  13.984   3.404 -0.1268  0.0670 -0.1740
    1DIPC   D2A26946  15.813  13.695   3.665 -0.1685 -0.0635  0.1700
    1DIPC   D3A26947  16.014  13.760   4.120  0.3261 -0.0531 -0.3355
    1DIPC   C4A26948  15.628  13.915   4.400  0.1637 -0.1170  0.2139
    1DIPC   C1B26949  15.131  13.675   3.375 -0.1171 -0.0259 -0.0166
    1DIPC   D2B26950  14.987  13.427   3.726  0.1335  0.1421 -0.2723
    1DIPC   D3B26951  14.764  13.696   3.834  0.0049  0.0649 -0.3195
    1DIPC   C4B26952  14.308  13.631   3.743  0.1130  0.1463  0.0067
    1DIPC   NC326953  22.062   8.426   2.934  0.0181 -0.2409 -0.3390
    1DIPC   PO426954  21.803   8.242   3.242  0.3106  0.1743  0.0529
    1DIPC   GL126955  21.804   8.495   3.562  0.3084 -0.1031 -0.0961
    1DIPC   GL226956  21.863   8.799   3.542  0.2644 -0.0073 -0.4354
    1DIPC   C1A26957  21.774   8.461   3.937 -0.1778  0.5255  0.3308
    1DIPC   D2A26958  21.886   8.145   4.269  0.0267  0.2438  0.0932
    1DIPC   D3A26959  22.023   8.518   4.382  0.0597  0.0146  0.3249
    1DIPC   C4A26960  22.444   8.547   4.434  0.1084  0.1620 -0.3080
    1DIPC   C1B26961  21.832   8.960   3.932 -0.2916  0.1050 -0.0492
    1DIPC   D2B26962  21.607   9.164   4.229 -0.0450  0.1712 -0.0059
    1DIPC   D3B26963  21.897   9.433   4.366 -0.2214  0.2969  0.2417
    1DIPC   C4B26964  22.228   9.427   4.583 -0.2996 -0.0573 -0.1162
    1DIPC   NC326965  27.189   7.556   2.787 -0.0305 -0.3811 -0.0616
    1DIPC   PO426966  26.861   7.179   2.926  0.1432 -0.1673  0.4417
    1DIPC   GL126967  26.936   7.151   3.246  0.0056  0.1324 -0.3182
    1DIPC   GL226968  26.758   6.854   3.427 -0.1371 -0.1815  0.1551
    1DIPC   C1A26969  27.213   6.905   3.574  0.1271 -0.2358  0.3012
    1DIPC   D2A26970  27.427   7.087   3.986  0.1364 -0.2648 -0.1736
    1DIPC   D3A26971  27.080   7.268   4.160  0.2062 -0.4822  0.1094
    1DIPC   C4A26972  26.737   7.053   4.251 -0.2172 -0.2767 -0.2068
    1DIPC   C1B26973  26.813   7.221   3.697  0.0381  0.1476 -0.1591
    1DIPC   D2B26974  26.633   7.481   3.985  0.0556 -0.1607  0.1804
    1DIPC   D3B26975  26.532   7.916   3.914 -0.1298 -0.0769 -0.0084
    1DIPC   C4B26976  26.685   8.124   3.523  0.2344  0.0123 -0.2969
    1DIPC   NC326977   7.826   8.038   3.521 -0.2136 -0.1211  0.1547
    1DIPC   PO426978   7.680   8.451   3.329 -0.0272  0.0402 -0.2277
    1DIPC   GL126979   7.691   8.535   3.768 -0.2023 -0.2263 -0.1702
    1DIPC   GL226980   7.945   8.386   4.016 -0.1079  0.1397  0.0314
    1DIPC   C1A26981   7.507   8.645   4.197 -0.3196 -0.0004 -0.1236
    1DIPC   D2A26982   7.464   8.771   4.610 -0.1177  0.3972 -0.0036
    1DIPC   D3A26983   7.341   8.323   4.650  0.1207 -0.1268 -0.1266
    1DIPC   C4A26984   7.321   8.185   5.057  0.1168  0.1102 -0.2554
    1DIPC   C1B26985   7.810   8.389   4.511 -0.0846  0.0781 -0.0720
    1DIPC   D2B26986   7.769   8.410   4.957 -0.0868  0.1221 -0.0100
    1DIPC   D3B26987   7.769   8.892   4.949  0.1275 -0.3547  0.2229
    1DIPC   C4B26988   7.401   9.027   4.992 -0.0985  0.0868 -0.2773
    1DIPC   NC326989   8.678  23.313   2.045 -0.0725  0.0905 -0.1427
    1DIPC   PO426990   8.625  23.426   2.454  0.1210 -0.1828  0.3871
    1DIPC   GL126991   8.714  23.674   2.933 -0.0081 -0.3574 -0.0704
    1DIPC   GL226992   8.987  23.694   3.137 -0.0469  0.2326 -0.0342
    1DIPC   C1A26993   8.417  23.540   3.268 -0.1570 -0.0264 -0.1335
    1DIPC   D2A26994   8.456  23.266   3.610 -0.0886  0.2069 -0.3677
    1DIPC   D3A26995   8.594  22.860   3.672  0.0594 -0.2287  0.0342
    1DIPC   C4A26996   8.827  22.741   3.300 -0.0220  0.0967  0.0569
    1DIPC   C1B26997   8.924  23.693   3.550  0.3065 -0.2528 -0.0544
    1DIPC   D2B26998   9.154  23.724   3.901 -0.0844  0.0889  0.0138
    1DIPC   D3B26999   8.919  23.724   4.260 -0.1878  0.2466  0.0244
    1DIPC   C4B27000   8.801  23.361   4.506  0.2028  0.2634 -0.0326
    1DIPC   NC327001  12.646  25.076   2.322 -0.1999  0.1728 -0.1197
    1DIPC   PO427002  12.468  25.481   2.412  0.1411  0.2542  0.3356
    1DIPC   GL127003  12.535  25.666   2.914 -0.1715 -0.1296  0.1413
    1DIPC   GL227004  12.781  25.729   3.009 -0.2106 -0.2745  0.0768
    1DIPC   C1A27005  12.792  25.252   3.204  0.0825 -0.1854  0.2864
    1DIPC   D2A27006  13.086  25.079   3.524  0.0768  0.0109  0.0316
    1DIPC   D3A27007  13.293  24.563   3.545  0.2475 -0.1672 -0.1614
    1DIPC   C4A27008  13.587  24.377   3.337  0.0197  0.0682  0.3309
    1DIPC   C1B27009  12.477  25.739   3.468  0.3429 -0.0791  0.1867
    1DIPC   D2B27010  12.224  26.010   3.766 -0.2939  0.0054  0.1001
    1DIPC   D3B27011  12.535  25.875   3.927  0.2151  0.0595 -0.0463
    1DIPC   C4B27012  12.378  25.563   4.310 -0.0587  0.0074  0.0883
    1DIPC   NC327013  15.178  16.103   2.693 -0.3387  0.1510 -0.0717
    1DIPC   PO427014  15.244  16.242   3.096  0.0071 -0.2654  0.0626
    1DIPC   GL127015  15.109  16.537   3.443  0.1781  0.1557  0.2300
    1DIPC   GL227016  14.691  16.482   3.519  0.0577  0.1852 -0.1075
    1DIPC   C1A27017  15.301  16.490   3.746 -0.0172 -0.3527 -0.1020
    1DIPC   D2A27018  15.695  16.350   3.744  0.2000  0.0408 -0.3375
    1DIPC   D3A27019  15.704  16.092   3.431  0.4452 -0.0887 -0.3374
    1DIPC   C4A27020  15.588  15.718   3.557  0.3700  0.0251 -0.1193
    1DIPC   C1B27021  14.728  16.497   3.901  0.0824  0.2456 -0.0343
    1DIPC   D2B27022  14.656  16.806   4.312  0.0614 -0.6993  0.2245
    1DIPC   D3B27023  14.730  16.772   4.770  0.0433  0.1646  0.0791
    1DIPC   C4B27024  14.931  16.974   5.141 -0.2436  0.0081  0.0588
    1DIPC   NC327025  23.386  25.438   3.100 -0.2334 -0.0820  0.1978
    1DIPC   PO427026  23.323  25.053   3.028 -0.1369  0.2149  0.0223
    1DIPC   GL127027  23.449  24.966   3.446 -0.0904  0.1090  0.0786
    1DIPC   GL227028  23.470  25.233   3.647 -0.2313 -0.1988 -0.0490
    1DIPC   C1A27029  23.380  24.783   3.816 -0.2604 -0.1753 -0.0801
    1DIPC   D2A27030  23.522  24.414   4.023 -0.1059  0.0403  0.1775
    1DIPC   D3A27031  23.962  24.470   3.963  0.0582  0.1263 -0.0916
    1DIPC   C4A27032  24.132  24.606   4.324  0.0736 -0.1413  0.3163
    1DIPC   C1B27033  23.502  25.316   4.119 -0.0919  0.0741  0.0630
    1DIPC   D2B27034  23.448  25.357   4.583  0.0693 -0.1846  0.3230
    1DIPC   D3B27035  23.017  25.417   4.572  0.4098  0.2755 -0.1108
    1DIPC   C4B27036  22.751  25.128   4.874 -0.1286 -0.0415 -0.4265
    1DIPC   NC327037  23.993  13.163   1.927 -0.4895  0.5100  0.0440
    1DIPC   PO427038  24.105  13.572   1.756  0.3683  0.0873  0.0087
    1DIPC   GL127039  24.245  13.457   2.238  0.0451  0.2871  0.0634
    1DIPC   GL227040  24.027  13.691   2.406  0.0412  0.0951 -0.1088
    1DIPC   C1A27041  24.542  13.269   2.565  0.2258 -0.1462  0.2408
    1DIPC   D2A27042  24.689  12.891   2.875  0.3336  0.0026 -0.1777
    1DIPC   D3A27043  24.928  12.977   3.290  0.4377 -0.1028  0.2726
    1DIPC   C4A27044  24.923  13.270   3.603  0.0883 -0.0980  0.0870
    1DIPC   C1B27045  24.197  13.623   2.800  0.1119  0.2146  0.2361
    1DIPC   D2B27046  24.305  13.755   3.157  0.3941  0.1397 -0.3109
    1DIPC   D3B27047  23.866  13.976   3.235  0.1855  0.1552  0.0524
    1DIPC   C4B27048  23.548  14.022   3.459  0.0927  0.3117 -0.2065
    1DIPC   NC327049  28.996   1.326   3.257 -0.1077  0.0006 -0.2701
    1DIPC   PO427050  29.420   1.150   3.346 -0.1242  0.0442  0.2309
    1DIPC   GL127051  29.335   1.145   3.757 -0.1070 -0.2022 -0.2290
    1DIPC   GL227052  29.382   0.836   3.911 -0.0707 -0.0496 -0.1398
    1DIPC   C1A27053  29.095   1.238   4.101 -0.3161 -0.2372  0.0677
    1DIPC   D2A27054  29.201   1.348   4.557  0.0434 -0.1563 -0.0386
    1DIPC   D3A27055  28.891   1.135   4.703 -0.1053  0.0901 -0.1427
    1DIPC   C4A27056  28.586   1.204   4.395  0.1571 -0.0111 -0.0959
    1DIPC   C1B27057  29.341   0.462   4.094  0.0725  0.0657 -0.2660
    1DIPC   D2B27058  29.049   0.271   4.363 -0.2267  0.0407  0.0306
    1DIPC   D3B27059  29.374   0.245   4.584 -0.2807 -0.2137 -0.0980
    1DIPC   C4B27060  29.290   0.287   5.052  0.1004  0.0570 -0.0278
    1DIPC   NC327061   9.407  27.293   3.912 -0.1695  0.1900  0.2566
    1DIPC   PO427062   9.707  27.213   3.725 -0.1890  0.0342 -0.0520
    1DIPC   GL127063   9.763  26.786   3.948  0.1552  0.0750 -0.0549
    1DIPC   GL227064  10.042  26.953   4.163 -0.1852 -0.1034 -0.0232
    1DIPC   C1A27065  10.075  26.510   4.001 -0.0897  0.2051 -0.2007
    1DIPC   D2A27066  10.481  26.297   3.965 -0.2727  0.1329  0.0757
    1DIPC   D3A27067  10.446  26.275   4.367 -0.0871  0.0379 -0.0154
    1DIPC   C4A27068  10.681  26.326   4.807 -0.1706  0.0644  0.0889
    1DIPC   C1B27069   9.919  26.648   4.512  0.0119 -0.2368 -0.1139
    1DIPC   D2B27070  10.142  26.347   4.748  0.0320 -0.0904  0.2823
    1DIPC   D3B27071   9.927  26.017   4.891  0.0443  0.0236 -0.1837
    1DIPC   C4B27072  10.140  25.568   4.882 -0.2630  0.0536 -0.2825
    1DIPC   NC327073  16.011  23.355   2.775 -0.0125  0.2645  0.0814
    1DIPC   PO427074  15.970  23.033   2.973 -0.1108  0.0386 -0.2959
    1DIPC   GL127075  15.924  23.376   3.310  0.3101  0.2790  0.1607
    1DIPC   GL227076  15.707  23.381   3.503  0.0332 -0.0193 -0.2813
    1DIPC   C1A27077  16.234  23.614   3.574 -0.0461  0.1877 -0.2594
    1DIPC   D2A27078  16.606  23.872   3.510  0.2090  0.2069 -0.0680
    1DIPC   D3A27079  16.722  23.401   3.521  0.1319 -0.1844 -0.1298
    1DIPC   C4A27080  16.831  23.090   3.931 -0.1107  0.1690  0.2456
    1DIPC   C1B27081  15.900  23.137   3.897 -0.2395 -0.1039  0.1989
    1DIPC   D2B27082  16.158  23.054   4.208  0.0560  0.1410 -0.4287
    1DIPC   D3B27083  16.513  22.886   4.207 -0.4347  0.1709 -0.1076
    1DIPC   C4B27084  16.598  22.951   4.682  0.0206  0.0906 -0.1630
    1DIPC   NC327085  14.893  14.695   3.074 -0.0400 -0.2708 -0.0508
    1DIPC   PO427086  14.968  15.115   3.309  0.0759 -0.0134 -0.1064
    1DIPC   GL127087  15.195  15.455   3.623  0.1165  0.1210 -0.0826
    1DIPC   GL227088  14.909  15.594   3.784 -0.1151 -0.0769  0.0717
    1DIPC   C1A27089  15.592  15.366   4.002  0.0931 -0.0358 -0.1136
    1DIPC   D2A27090  15.995  15.277   4.233 -0.3215 -0.3504  0.0069
    1DIPC   D3A27091  15.732  14.866   4.317  0.2782  0.1913 -0.1116
    1DIPC   C4A27092  15.334  14.772   4.546 -0.1166  0.2958 -0.0368
    1DIPC   C1B27093  14.682  15.741   4.123 -0.0340  0.3441  0.3901
    1DIPC   D2B27094  14.478  16.173   4.221 -0.0076  0.0243 -0.0939
    1DIPC   D3B27095  14.626  16.318   4.625 -0.1204  0.1005 -0.1216
    1DIPC   C4B27096  14.847  16.249   4.947 -0.0195  0.0435 -0.0041
    1DIPC   NC327097  15.026  20.994   2.655  0.1523  0.1321 -0.3171
    1DIPC   PO427098  15.147  21.317   2.959 -0.0736 -0.0484  0.1213
    1DIPC   GL127099  15.087  21.445   3.429 -0.0285 -0.1746  0.2597
    1DIPC   GL227100  15.351  21.375   3.649 -0.1284 -0.1385  0.3904
    1DIPC   C1A27101  14.869  21.638   3.840 -0.1144 -0.0055  0.1007
    1DIPC   D2A27102  14.777  21.509   4.293  0.0003  0.3081  0.0404
    1DIPC   D3A27103  15.090  21.725   4.432 -0.3924  0.1609 -0.1773
    1DIPC   C4A27104  15.346  21.985   4.739 -0.2160 -0.0057  0.1900
    1DIPC   C1B27105  15.431  21.607   3.947 -0.0255  0.0620 -0.2385
    1DIPC   D2B27106  15.621  21.793   4.376 -0.2930  0.2388 -0.2583
    1DIPC   D3B27107  15.861  21.950   4.697 -0.0115 -0.0511 -0.3573
    1DIPC   C4B27108  15.698  21.849   5.115  0.0562 -0.3199 -0.0390
    1DIPC   NC327109  24.106  23.476   2.557  0.1627  0.0924  0.3637
    1DIPC   PO427110  23.825  23.832   2.391  0.2032 -0.0115 -0.0420
    1DIPC   GL127111  23.728  23.749   2.943  0.0675 -0.0844  0.3367
    1DIPC   GL227112  23.947  23.646   3.112  0.0602 -0.1378  0.1149
    1DIPC   C1A27113  23.509  23.851   3.335 -0.1030  0.0897  0.2460
    1DIPC   D2A27114  23.618  23.815   3.807  0.1140  0.3932  0.0959
    1DIPC   D3A27115  23.311  23.888   4.137 -0.2126 -0.1375 -0.0673
    1DIPC   C4A27116  23.499  23.943   4.580 -0.0939 -0.1137 -0.0820
    1DIPC   C1B27117  24.261  23.962   3.282 -0.0356  0.1689 -0.0043
    1DIPC   D2B27118  24.142  24.334   3.339 -0.2261 -0.0344 -0.1387
    1DIPC   D3B27119  24.532  24.243   3.630 -0.0559 -0.0519 -0.1495
    1DIPC   C4B27120  24.891  24.641   3.767 -0.0623 -0.0266  0.3939
    1DIPC   NC327121  14.678  27.186   2.729  0.2562 -0.0263  0.1881
    1DIPC   PO427122  14.643  27.572   2.836 -0.2305 -0.1497  0.0418
    1DIPC   GL127123  14.439  27.479   3.363  0.0365  0.4261  0.0356
    1DIPC   GL227124  14.165  27.425   3.598  0.0818 -0.1956  0.0103
    1DIPC   C1A27125  14.697  27.357   3.724 -0.1647  0.1419 -0.0905
    1DIPC   D2A27126  14.706  27.380   4.258  0.3115  0.0402  0.0543
    1DIPC   D3A27127  14.950  27.113   4.503 -0.0618  0.0287 -0.0947
    1DIPC   C4A27128  15.349  27.294   4.422 -0.0510 -0.0707  0.2178
    1DIPC   C1B27129  14.230  27.459   4.046  0.1415  0.0298  0.0720
    1DIPC   D2B27130  14.206  27.310   4.518 -0.3739 -0.1049 -0.1451
    1DIPC   D3B27131  13.724  27.236   4.524 -0.1343  0.1387  0.0616
    1DIPC   C4B27132  13.359  27.454   4.766 -0.2489  0.1101  0.0523
    1DIPC   NC327133  24.334  17.328   1.234 -0.2332 -0.1770 -0.1505
    1DIPC   PO427134  24.017  16.981   1.348 -0.1118 -0.1290 -0.1585
    1DIPC   GL127135  23.997  17.313   1.602  0.3604  0.2902 -0.3256
    1DIPC   GL227136  23.717  17.380   1.855  0.0334 -0.1039 -0.0088
    1DIPC   C1A27137  24.231  17.499   1.899  0.2776  0.0565 -0.3136
    1DIPC   D2A27138  24.602  17.327   2.118  0.0993 -0.2017  0.1624
    1DIPC   D3A27139  24.423  17.370   2.549  0.0587  0.1146  0.0106
    1DIPC   C4A27140  24.227  17.497   3.013  0.0580 -0.2234  0.1794
    1DIPC   C1B27141  23.889  17.175   2.220 -0.1926  0.1959 -0.2912
    1DIPC   D2B27142  23.704  17.153   2.638  0.2171 -0.1996 -0.0085
    1DIPC   D3B27143  24.114  16.938   2.599 -0.3098  0.1058 -0.2583
    1DIPC   C4B27144  24.366  16.952   2.866 -0.0102 -0.3276  0.0425
    1DIPC   NC327145  16.424  19.580   2.802  0.0559 -0.2922  0.0212
    1DIPC   PO427146  16.316  19.243   2.931 -0.1607 -0.2821  0.0038
    1DIPC   GL127147  16.588  19.087   3.439  0.3609  0.0899  0.1824
    1DIPC   GL227148  16.657  18.772   3.625 -0.1864 -0.3380  0.2524
    1DIPC   C1A27149  16.325  19.020   3.849 -0.2810 -0.1975 -0.1267
    1DIPC   D2A27150  16.199  19.349   4.004 -0.0152 -0.0497 -0.1785
    1DIPC   D3A27151  16.473  19.319   4.385 -0.1214  0.1218  0.1655
    1DIPC   C4A27152  16.577  19.696   4.519  0.1117  0.3682 -0.2860
    1DIPC   C1B27153  16.830  18.988   4.056  0.5122  0.0380  0.1824
    1DIPC   D2B27154  16.988  19.282   4.454  0.0262  0.0102 -0.0002
    1DIPC   D3B27155  17.021  19.677   4.477  0.0441 -0.0586 -0.1878
    1DIPC   C4B27156  16.847  19.950   4.818  0.2434  0.1243 -0.2925
    1DIPC   NC327157  25.404  15.416   0.783 -0.1143 -0.1022 -0.0217
    1DIPC   PO427158  25.836  15.481   0.963 -0.1207  0.0283 -0.0674
    1DIPC   GL127159  26.071  15.623   1.342  0.0373 -0.1009  0.0982
    1DIPC   GL227160  26.090  15.303   1.573  0.1088 -0.2112 -0.0385
    1DIPC   C1A27161  26.404  15.747   1.640 -0.2514 -0.2907 -0.1542
    1DIPC   D2A27162  26.503  15.727   2.114 -0.0245  0.2238  0.0804
    1DIPC   D3A27163  26.221  15.606   2.550  0.0011 -0.5423 -0.0494
    1DIPC   C4A27164  25.962  15.957   2.823 -0.0540 -0.1976  0.0543
    1DIPC   C1B27165  26.046  15.538   1.969  0.0896 -0.0236 -0.4228
    1DIPC   D2B27166  25.799  15.575   2.339  0.1465  0.1332 -0.0558
    1DIPC   D3B27167  25.568  15.896   2.567  0.1930  0.1796  0.0603
    1DIPC   C4B27168  25.127  16.014   2.828  0.2443 -0.1242 -0.3680
    1DIPC   NC327169  20.579  17.098   2.133 -0.1382 -0.1307 -0.2488
    1DIPC   PO427170  20.617  16.801   2.473  0.0534 -0.2061 -0.1026
    1DIPC   GL127171  20.574  16.858   2.957 -0.0831 -0.1616  0.0482
    1DIPC   GL227172  20.572  17.179   2.936 -0.0921  0.0393 -0.0819
    1DIPC   C1A27173  20.810  17.005   3.310  0.5157 -0.1221  0.5970
    1DIPC   D2A27174  20.992  17.113   3.772  0.0718 -0.0795 -0.1152
    1DIPC   D3A27175  21.131  16.707   3.752  0.1425  0.0653  0.0732
    1DIPC   C4A27176  20.889  16.302   3.780 -0.0921  0.0617  0.0106
    1DIPC   C1B27177  20.490  17.381   3.348 -0.0165  0.2186 -0.2096
    1DIPC   D2B27178  20.538  17.239   3.700 -0.0514  0.0685 -0.0139
    1DIPC   D3B27179  20.327  17.614   3.737 -0.1684  0.0036  0.1169
    1DIPC   C4B27180  20.092  17.629   4.133  0.0156 -0.2215 -0.1578
    1DIPC   NC327181   7.429   4.694   2.757  0.0086 -0.0558 -0.2554
    1DIPC   PO427182   7.464   4.840   3.205 -0.0891 -0.2372 -0.1428
    1DIPC   GL127183   7.486   4.981   3.556 -0.3899 -0.0184  0.0341
    1DIPC   GL227184   7.662   4.989   3.726 -0.4746  0.0643  0.1144
    1DIPC   C1A27185   7.273   4.882   3.952 -0.0056 -0.1467 -0.0444
    1DIPC   D2A27186   6.959   5.139   4.114 -0.0850  0.2398 -0.0635
    1DIPC   D3A27187   6.646   5.072   3.943  0.0568 -0.1253  0.1469
    1DIPC   C4A27188   6.283   4.821   4.160 -0.0895 -0.0380  0.3084
    1DIPC   C1B27189   7.852   4.870   4.087 -0.1857 -0.3780  0.0649
    1DIPC   D2B27190   7.954   4.730   4.405  0.0524 -0.0211 -0.0507
    1DIPC   D3B27191   7.989   5.163   4.502 -0.0840 -0.1083  0.2737
    1DIPC   C4B27192   8.077   5.352   4.905  0.0709  0.0041  0.0016
    1DIPC   NC327193   4.830  28.610   2.512 -0.2163  0.2407  0.0746
    1DIPC   PO427194   5.182  29.069   2.445 -0.3869 -0.2458  0.1475
    1DIPC   GL127195   4.920  29.174   2.886  0.0191  0.0948 -0.2105
    1DIPC   GL227196   5.225  29.319   3.140  0.3364  0.0821 -0.2325
    1DIPC   C1A27197   4.833  29.123   3.344  0.3032 -0.0536  0.3051
    1DIPC   D2A27198   4.733  28.939   3.769  0.4295  0.0733 -0.2207
    1DIPC   D3A27199   5.092  28.830   4.029  0.2007  0.1820 -0.0084
    1DIPC   C4A27200   5.442  29.001   3.940  0.0827  0.0950  0.2084
    1DIPC   C1B27201   5.285  29.333   3.635  0.2990  0.0240 -0.0519
    1DIPC   D2B27202   4.955  29.330   3.977 -0.1356 -0.1118  0.1284
    1DIPC   D3B27203   4.875  29.137   4.339 -0.1002 -0.0635 -0.0961
    1DIPC   C4B27204   4.687  28.885   4.620  0.3843  0.4728 -0.1904
    1DIPC   NC327205  21.824  26.075   3.320 -0.0509 -0.3425  0.0741
    1DIPC   PO427206  21.790  26.410   3.471  0.1356  0.1364 -0.1513
    1DIPC   GL127207  21.703  26.474   3.813 -0.1626  0.1346  0.1345
    1DIPC   GL227208  21.391  26.571   3.963 -0.2053 -0.0726  0.0167
    1DIPC   C1A27209  21.804  26.738   4.266 -0.0732  0.0070 -0.1261
    1DIPC   D2A27210  21.882  27.006   4.632  0.0353 -0.2384 -0.0383
    1DIPC   D3A27211  21.613  26.767   4.894 -0.1551  0.1501 -0.2722
    1DIPC   C4A27212  21.721  26.370   4.856 -0.0045  0.0871  0.0397
    1DIPC   C1B27213  21.350  26.503   4.464 -0.0780  0.0903  0.0900
    1DIPC   D2B27214  21.160  26.475   4.841 -0.1707 -0.1245 -0.0832
    1DIPC   D3B27215  20.796  26.823   5.021 -0.1668  0.3414 -0.2719
    1DIPC   C4B27216  20.377  27.092   5.171 -0.0711 -0.3401  0.1495
    1DIPC   NC327217   2.704   0.030   3.024  0.0167  0.2499 -0.3276
    1DIPC   PO427218   3.135  -0.059   2.901  0.3264 -0.2033 -0.3252
    1DIPC   GL127219   3.139  -0.002   3.350 -0.3829 -0.0998 -0.2839
    1DIPC   GL227220   3.168   0.242   3.429  0.0659  0.0916 -0.0452
    1DIPC   C1A27221   3.301  -0.203   3.755 -0.0263  0.0224  0.0471
    1DIPC   D2A27222   3.455  -0.298   4.090 -0.0464  0.4047  0.0257
    1DIPC   D3A27223   3.472   0.004   4.295  0.0726  0.0127  0.0097
    1DIPC   C4A27224   3.378   0.058   4.798 -0.1901 -0.2509 -0.3152
    1DIPC   C1B27225   2.733   0.365   3.690  0.0533 -0.1271  0.2322
    1DIPC   D2B27226   2.519   0.381   4.183 -0.2798  0.0876  0.3411
    1DIPC   D3B27227   2.372   0.399   4.573 -0.1044  0.1733  0.2107
    1DIPC   C4B27228   2.334   0.830   4.693 -0.0347  0.4458  0.1364
    1DIPC   NC327229  29.766   1.472   3.031  0.1534  0.0216  0.2510
    1DIPC   PO427230  29.993   1.208   3.268 -0.1284  0.3126  0.2638
    1DIPC   GL127231  29.819   1.293   3.658 -0.4583  0.0199  0.0762
    1DIPC   GL227232  29.946   0.977   3.833 -0.0725  0.0746  0.0980
    1DIPC   C1A27233  29.643   1.635   3.845  0.0146  0.1641 -0.1746
    1DIPC   D2A27234  29.652   1.943   4.170 -0.0556  0.2880 -0.1173
    1DIPC   D3A27235  29.671   2.069   3.689  0.0073 -0.0656 -0.1285
    1DIPC   C4A27236  29.771   2.436   3.813 -0.0347  0.1571 -0.1202
    1DIPC   C1B27237  29.818   0.866   4.322  0.0922 -0.3192  0.2121
    1DIPC   D2B27238  29.677   0.575   4.722 -0.0446 -0.6445  0.1258
    1DIPC   D3B27239  30.045   0.675   5.112  0.3636 -0.0402 -0.2553
    1DIPC   C4B27240  29.904   1.133   5.299 -0.0309 -0.1043 -0.0053
    1DIPC   NC327241   5.616   7.205   3.174 -0.1685 -0.1505  0.0999
    1DIPC   PO427242   5.536   7.550   3.473  0.0766 -0.0187  0.2587
    1DIPC   GL127243   5.488   7.499   3.908  0.1918  0.0904 -0.1820
    1DIPC   GL227244   5.348   7.716   3.948  0.3072 -0.0338 -0.3738
    1DIPC   C1A27245   5.348   7.228   4.282 -0.0540  0.0199  0.1429
    1DIPC   D2A27246   5.528   7.171   4.748 -0.0073 -0.0266  0.3609
    1DIPC   D3A27247   5.898   7.251   4.944  0.0235  0.0549 -0.1222
    1DIPC   C4A27248   6.203   7.046   4.582 -0.0319 -0.2402 -0.1118
    1DIPC   C1B27249   5.266   7.995   4.317 -0.0480 -0.2038 -0.0809
    1DIPC   D2B27250   5.142   8.183   4.723  0.2015 -0.0024 -0.0921
    1DIPC   D3B27251   5.319   8.479   4.942 -0.2173 -0.0083 -0.2825
    1DIPC   C4B27252   5.766   8.514   4.920  0.3648 -0.1917 -0.0099
    1DIPC   NC327253  24.060  24.246   2.493  0.3807  0.2246 -0.0172
    1DIPC   PO427254  23.768  24.252   2.864 -0.1033 -0.1504 -0.2658
    1DIPC   GL127255  23.421  24.372   3.156  0.2791 -0.0315 -0.0781
    1DIPC   GL227256  23.685  24.374   3.373 -0.1804 -0.2427  0.1040
    1DIPC   C1A27257  23.292  24.219   3.646  0.3764  0.0371 -0.0654
    1DIPC   D2A27258  22.914  24.352   3.966  0.0105  0.2387  0.3932
    1DIPC   D3A27259  22.905  24.622   3.632 -0.1609 -0.3459 -0.2610
    1DIPC   C4A27260  23.013  25.095   3.678 -0.2813 -0.1263 -0.1646
    1DIPC   C1B27261  23.854  24.679   3.566  0.0078  0.1620  0.2177
    1DIPC   D2B27262  23.867  24.961   3.920  0.0880  0.1467 -0.0584
    1DIPC   D3B27263  23.563  24.788   4.306 -0.1845  0.1790  0.1335
    1DIPC   C4B27264  23.542  24.439   4.567  0.2524  0.1207  0.0752
    1DIPC   NC327265  18.318  24.120   3.063  0.0156 -0.0665 -0.1112
    1DIPC   PO427266  18.549  24.056   3.244  0.3214 -0.0002  0.0034
    1DIPC   GL127267  18.498  23.852   3.596 -0.0007  0.0632 -0.3918
    1DIPC   GL227268  18.472  23.551   3.574 -0.0402  0.3861 -0.0041
    1DIPC   C1A27269  18.575  23.875   3.991 -0.3089 -0.1223  0.3880
    1DIPC   D2A27270  18.395  23.766   4.429  0.1686 -0.0268 -0.1996
    1DIPC   D3A27271  18.776  23.875   4.723  0.0933 -0.1349  0.1406
    1DIPC   C4A27272  18.614  24.174   5.130 -0.2165 -0.1290  0.0358
    1DIPC   C1B27273  18.825  23.483   3.760  0.1510  0.3526  0.1276
    1DIPC   D2B27274  18.974  23.153   3.944 -0.0140 -0.2528 -0.1481
    1DIPC   D3B27275  18.842  22.923   3.653  0.0007 -0.1857 -0.0046
    1DIPC   C4B27276  19.125  22.653   3.474 -0.3611  0.0409  0.1225
    1DIPC   NC327277   9.490  22.605   2.872  0.3341  0.0373  0.0564
    1DIPC   PO427278   9.886  22.438   2.906  0.0137  0.0166 -0.1494
    1DIPC   GL127279   9.787  22.675   3.261  0.0474 -0.1286  0.2276
    1DIPC   GL227280   9.500  22.647   3.400 -0.2683  0.0012  0.2086
    1DIPC   C1A27281   9.981  22.863   3.446  0.1708 -0.3660  0.1934
    1DIPC   D2A27282  10.202  23.137   3.465  0.0214  0.2587 -0.1388
    1DIPC   D3A27283  10.463  23.443   3.774 -0.0482  0.1048  0.0027
    1DIPC   C4A27284  10.604  23.369   4.152  0.1561  0.1850 -0.0874
    1DIPC   C1B27285   9.628  22.635   3.894 -0.0504 -0.2420 -0.1612
    1DIPC   D2B27286   9.756  22.794   4.326  0.0073  0.1967  0.4086
    1DIPC   D3B27287   9.571  22.996   4.673  0.0251 -0.1984  0.2720
    1DIPC   C4B27288   9.272  23.370   4.537  0.0651  0.2142  0.0508
    1DIPC   NC327289  17.746   2.862   3.516  0.2171 -0.1347 -0.0937
    1DIPC   PO427290  17.370   2.832   3.345  0.1002 -0.1439 -0.2679
    1DIPC   GL127291  17.256   2.859   3.745  0.1960  0.0468 -0.0864
    1DIPC   GL227292  17.069   2.524   3.735 -0.1989 -0.1825 -0.0081
    1DIPC   C1A27293  17.511   2.745   4.191  0.1605 -0.0773  0.1142
    1DIPC   D2A27294  17.720   2.715   4.610  0.1048 -0.1181 -0.1375
    1DIPC   D3A27295  17.185   2.812   4.689 -0.0768 -0.3392  0.3965
    1DIPC   C4A27296  17.004   3.023   5.097  0.0012 -0.1468 -0.1743
    1DIPC   C1B27297  16.988   2.671   4.194 -0.0772  0.2482 -0.2012
    1DIPC   D2B27298  16.763   2.378   4.508 -0.0715  0.1293 -0.4996
    1DIPC   D3B27299  16.769   2.228   4.872  0.0795 -0.2845 -0.2028
    1DIPC   C4B27300  16.894   2.462   5.038 -0.0840 -0.0891  0.0579
    1DIPC   NC327301  23.375   6.594   3.438  0.2009  0.1223  0.2353
    1DIPC   PO427302  23.485   6.968   3.295 -0.0314 -0.1539  0.0977
    1DIPC   GL127303  23.701   7.188   3.568  0.0957  0.2110  0.1526
    1DIPC   GL227304  23.515   7.499   3.690 -0.0715 -0.3453  0.1379
    1DIPC   C1A27305  23.848   7.061   4.062 -0.0265 -0.1175  0.0014
    1DIPC   D2A27306  24.072   6.971   4.382  0.2481  0.0979  0.0741
    1DIPC   D3A27307  24.120   6.525   4.409 -0.1753 -0.0649  0.2944
    1DIPC   C4A27308  23.940   6.271   4.772  0.0267  0.1361 -0.0522
    1DIPC   C1B27309  23.968   7.632   3.710 -0.1331  0.3225 -0.2733
    1DIPC   D2B27310  24.313   7.903   3.710 -0.1075  0.0948  0.1126
    1DIPC   D3B27311  24.682   7.584   3.780 -0.0347 -0.1668 -0.1829
    1DIPC   C4B27312  24.738   7.362   4.224 -0.0093 -0.3321  0.0875
    1DIPC   NC327313  14.236  10.770   2.707 -0.1675 -0.0154  0.4107
    1DIPC   PO427314  13.988  11.107   2.897  0.2758  0.1566  0.0162
    1DIPC   GL127315  14.130  11.181   3.311 -0.3617  0.1071  0.2063
    1DIPC   GL227316  14.372  11.437   3.339  0.1846  0.0467 -0.0186
    1DIPC   C1A27317  14.051  10.946   3.640 -0.0744  0.2218  0.0252
    1DIPC   D2A27318  13.860  10.677   3.941 -0.2366 -0.1924  0.1275
    1DIPC   D3A27319  13.762  10.340   4.203  0.1300  0.0795 -0.2289
    1DIPC   C4A27320  13.705  10.469   4.645  0.0714 -0.1877 -0.0400
    1DIPC   C1B27321  14.261  11.402   3.753  0.2216  0.0363  0.3316
    1DIPC   D2B27322  14.031  11.672   4.120  0.3053  0.0158  0.2609
    1DIPC   D3B27323  14.235  11.983   4.336  0.2710 -0.4418  0.3352
    1DIPC   C4B27324  14.268  12.438   4.145  0.3887  0.0139 -0.0568
    1DIPC   NC327325  10.097  19.288   2.006  0.1478  0.1607 -0.0005
    1DIPC   PO427326  10.101  18.940   2.351 -0.0929 -0.2895 -0.1242
    1DIPC   GL127327   9.879  19.106   2.728  0.0714 -0.2668  0.1691
    1DIPC   GL227328   9.953  18.851   2.903 -0.1355 -0.1962 -0.0004
    1DIPC   C1A27329   9.472  18.987   2.926  0.4404  0.0440  0.0996
    1DIPC   D2A27330   9.149  18.689   3.061  0.0066 -0.1110  0.1656
    1DIPC   D3A27331   9.432  18.797   3.454  0.3002  0.1258  0.0722
    1DIPC   C4A27332   9.267  18.802   3.915 -0.1615 -0.1665  0.3451
    1DIPC   C1B27333   9.856  19.074   3.273 -0.2421 -0.1521 -0.2082
    1DIPC   D2B27334   9.835  19.210   3.682  0.1635  0.1665 -0.1601
    1DIPC   D3B27335   9.752  18.966   3.992  0.0735 -0.0470 -0.0642
    1DIPC   C4B27336   9.551  19.007   4.387  0.1640 -0.0874  0.3702
    1DIPC   NC327337  16.524   0.969   2.910 -0.0201 -0.1143 -0.0110
    1DIPC   PO427338  16.768   0.902   3.311 -0.0441 -0.0376  0.1850
    1DIPC   GL127339  16.779   0.585   3.681  0.0542 -0.1095  0.0190
    1DIPC   GL227340  16.610   0.636   3.855  0.2060 -0.1177 -0.2280
    1DIPC   C1A27341  16.866   0.198   3.915  0.0652  0.0227 -0.4812
    1DIPC   D2A27342  17.135  -0.127   3.842  0.3876  0.0552 -0.1541
    1DIPC   D3A27343  16.772  -0.269   3.680 -0.2383 -0.1006  0.0424
    1DIPC   C4A27344  16.601  -0.686   3.721 -0.0099  0.1240 -0.0482
    1DIPC   C1B27345  16.560   0.541   4.185  0.2207  0.2514  0.1027
    1DIPC   D2B27346  16.149   0.755   4.411  0.1752 -0.0277  0.4092
    1DIPC   D3B27347  16.160   1.026   4.744 -0.1562  0.0974  0.1484
    1DIPC   C4B27348  15.841   0.973   4.895  0.1753 -0.0477 -0.2097
    1DIPC   NC327349  17.315  26.015   3.224 -0.1053 -0.1088 -0.0928
    1DIPC   PO427350  17.695  26.053   3.528 -0.2457 -0.1381  0.1304
    1DIPC   GL127351  17.837  25.904   3.801  0.0630  0.0883  0.1921
    1DIPC   GL227352  17.562  25.940   4.080  0.0413  0.0208  0.1195
    1DIPC   C1A27353  18.152  26.072   4.070 -0.0784 -0.0075 -0.2830
    1DIPC   D2A27354  18.258  26.282   4.500 -0.2440  0.1702  0.1508
    1DIPC   D3A27355  17.982  26.243   4.873  0.3119  0.0873 -0.0375
    1DIPC   C4A27356  18.044  26.470   5.286 -0.1131  0.0068  0.1982
    1DIPC   C1B27357  17.676  25.934   4.480 -0.1347  0.3892  0.1013
    1DIPC   D2B27358  18.140  25.820   4.654 -0.2245  0.0750 -0.0731
    1DIPC   D3B27359  18.318  25.800   4.943 -0.2492  0.0690  0.1922
    1DIPC   C4B27360  18.468  25.485   5.034 -0.0852  0.1232  0.0152
    1DIPC   NC327361  10.123  28.894   3.564  0.5477 -0.1704  0.0822
    1DIPC   PO427362   9.866  28.905   3.812  0.0045  0.2233 -0.1706
    1DIPC   GL127363   9.792  29.033   4.096  0.2567 -0.1822 -0.0939
    1DIPC   GL227364   9.799  29.371   3.983 -0.1155  0.0336  0.1400
    1DIPC   C1A27365   9.885  29.169   4.530 -0.1902  0.0712  0.0084
    1DIPC   D2A27366  10.070  28.939   4.955  0.0378  0.0060  0.0653
    1DIPC   D3A27367   9.963  28.650   5.326 -0.3003 -0.0009 -0.0642
    1DIPC   C4A27368  10.220  28.858   5.672 -0.1933  0.1291 -0.3882
    1DIPC   C1B27369  10.114  29.587   4.221 -0.1795 -0.0109 -0.0502
    1DIPC   D2B27370  10.376  29.617   4.524 -0.0908  0.1233 -0.3776
    1DIPC   D3B27371  10.098  29.532   4.808  0.2228 -0.0569 -0.1166
    1DIPC   C4B27372  10.207  29.361   5.209 -0.0323  0.1747 -0.0977
    1DIPC   NC327373  11.181  24.013   2.350 -0.4364 -0.2936 -0.1805
    1DIPC   PO427374  11.340  24.348   2.502 -0.0064  0.0098 -0.0158
    1DIPC   GL127375  11.149  24.566   2.858  0.2854  0.2248 -0.0574
    1DIPC   GL227376  11.265  24.977   2.941 -0.3838  0.0959  0.3645
    1DIPC   C1A27377  10.820  24.868   3.089  0.3063  0.2459 -0.2193
    1DIPC   D2A27378  10.973  25.209   3.320 -0.0338  0.1068 -0.1109
    1DIPC   D3A27379  10.791  24.954   3.650  0.1843  0.0261  0.1714
    1DIPC   C4A27380  11.113  24.709   3.898  0.0828 -0.1894  0.0321
    1DIPC   C1B27381  11.213  24.768   3.323  0.3253  0.1830  0.1862
    1DIPC   D2B27382  11.030  24.417   3.482  0.0398 -0.1100  0.0394
    1DIPC   D3B27383  11.367  24.283   3.750  0.2391  0.2339 -0.4118
    1DIPC   C4B27384  11.346  23.975   4.007  0.3013 -0.1797  0.1422
    1DIPC   NC327385  22.962  21.569   2.473 -0.1493  0.0807 -0.2117
    1DIPC   PO427386  23.177  22.009   2.375  0.1084 -0.1080 -0.1102
    1DIPC   GL127387  22.886  21.992   2.780  0.0323 -0.0998 -0.1615
    1DIPC   GL227388  22.767  21.761   2.989  0.3547  0.1023 -0.1222
    1DIPC   C1A27389  23.121  21.941   3.277 -0.0200 -0.0791  0.3391
    1DIPC   D2A27390  23.135  22.044   3.737 -0.1353 -0.3567 -0.2065
    1DIPC   D3A27391  22.809  22.419   3.873 -0.2926  0.0269 -0.0560
    1DIPC   C4A27392  22.700  22.647   3.410  0.3471  0.1358 -0.1506
    1DIPC   C1B27393  22.334  21.876   3.158  0.1891 -0.0507  0.1551
    1DIPC   D2B27394  21.867  21.979   3.156  0.1529 -0.0421  0.3239
    1DIPC   D3B27395  21.982  21.851   3.563  0.0778 -0.0339 -0.0965
    1DIPC   C4B27396  21.715  21.781   3.824 -0.0627 -0.3167  0.2106
    1DIPC   NC327397  17.042  18.432   3.099 -0.1135 -0.1779  0.1160
    1DIPC   PO427398  17.016  18.009   2.905  0.2143  0.1029  0.4354
    1DIPC   GL127399  17.022  17.772   3.364  0.2835 -0.1699  0.3401
    1DIPC   GL227400  16.698  17.733   3.538 -0.3683  0.1462 -0.2426
    1DIPC   C1A27401  17.140  17.672   3.808  0.0227 -0.0415 -0.0267
    1DIPC   D2A27402  17.453  17.841   4.192 -0.2476  0.2163  0.0607
    1DIPC   D3A27403  17.255  17.933   4.621 -0.2154  0.0913 -0.1659
    1DIPC   C4A27404  16.775  17.924   4.836  0.0124  0.2062  0.0522
    1DIPC   C1B27405  16.630  17.792   3.971 -0.1485 -0.3863 -0.1156
    1DIPC   D2B27406  16.896  17.989   4.286  0.0872 -0.0170 -0.1100
    1DIPC   D3B27407  16.960  18.365   4.412  0.0271 -0.2339  0.3553
    1DIPC   C4B27408  16.996  18.359   4.851  0.1006  0.6365  0.1329
    1DIPC   NC327409   6.130  24.193   2.937 -0.1121 -0.0310  0.2009
    1DIPC   PO427410   6.166  23.742   2.990 -0.0476  0.0264 -0.2512
    1DIPC   GL127411   6.231  23.741   3.453 -0.0940  0.0856 -0.2065
    1DIPC   GL227412   6.132  24.124   3.490 -0.0340  0.0835  0.1909
    1DIPC   C1A27413   5.992  23.489   3.712  0.2327 -0.2542  0.0005
    1DIPC   D2A27414   5.669  23.343   4.054  0.1946 -0.1441 -0.0810
    1DIPC   D3A27415   5.819  23.683   4.358 -0.2272 -0.0449 -0.2217
    1DIPC   C4A27416   5.551  24.159   4.479 -0.0730  0.1314  0.0665
    1DIPC   C1B27417   5.875  24.142   3.792  0.0452 -0.0813  0.0598
    1DIPC   D2B27418   5.569  23.984   3.913 -0.0484 -0.1782  0.1101
    1DIPC   D3B27419   5.334  23.756   4.239  0.5587 -0.0999  0.3351
    1DIPC   C4B27420   5.334  23.727   4.733  0.1040  0.0719  0.0107
    1DIPC   NC327421  14.318   6.340   2.933  0.1787 -0.0575  0.0148
    1DIPC   PO427422  14.342   6.322   3.348 -0.4104  0.1981  0.0951
    1DIPC   GL127423  14.234   6.256   3.788 -0.0056 -0.0476 -0.0285
    1DIPC   GL227424  14.572   6.112   3.825  0.3497  0.1417  0.0444
    1DIPC   C1A27425  14.066   6.422   4.140 -0.3984  0.1440 -0.0320
    1DIPC   D2A27426  13.794   6.462   4.576 -0.4717  0.0117 -0.2065
    1DIPC   D3A27427  13.975   6.651   4.913 -0.3041  0.0247 -0.0088
    1DIPC   C4A27428  14.008   6.286   5.230 -0.1116  0.0950  0.0687
    1DIPC   C1B27429  14.316   5.933   4.123  0.2398 -0.1102  0.0517
    1DIPC   D2B27430  13.970   5.860   4.219  0.2232 -0.2378 -0.2781
    1DIPC   D3B27431  13.722   6.111   3.940  0.2675 -0.2484  0.0140
    1DIPC   C4B27432  13.687   6.535   3.752  0.0883  0.2888  0.2957
    1DIPC   NC327433  29.573  27.069   3.452  0.1946  0.0533  0.2331
    1DIPC   PO427434  29.918  26.900   3.258  0.0475  0.1882  0.3645
    1DIPC   GL127435  29.902  26.915   3.764  0.0837  0.2530  0.1827
    1DIPC   GL227436  30.082  27.083   3.742 -0.2418  0.1087  0.2233
    1DIPC   C1A27437  29.931  26.978   4.245 -0.0377  0.0492  0.1101
    1DIPC   D2A27438  29.868  27.129   4.538  0.0371  0.1009 -0.1196
    1DIPC   D3A27439  29.777  27.570   4.871 -0.1744 -0.3024  0.0244
    1DIPC   C4A27440  29.360  27.594   4.799  0.1273  0.0973 -0.0979
    1DIPC   C1B27441  29.865  27.453   3.888 -0.0351  0.3793  0.3142
    1DIPC   D2B27442  29.715  27.941   4.067  0.0128 -0.1287  0.0538
    1DIPC   D3B27443  30.020  28.107   4.062  0.0369 -0.0916  0.1792
    1DIPC   C4B27444  30.040  28.283   4.496 -0.1241  0.1091 -0.0389
    1DIPC   NC327445   8.687  15.643   2.366 -0.1951  0.0932  0.0173
    1DIPC   PO427446   9.106  15.625   2.586  0.2780 -0.0205 -0.0492
    1DIPC   GL127447   9.066  15.433   2.960  0.0107  0.1868 -0.2737
    1DIPC   GL227448   8.888  15.100   3.146  0.0312 -0.0416  0.0145
    1DIPC   C1A27449   9.017  15.555   3.330 -0.0137 -0.2230  0.4946
    1DIPC   D2A27450   9.267  15.818   3.579  0.1191 -0.0041 -0.0470
    1DIPC   D3A27451   9.230  15.764   3.963 -0.0510  0.0356 -0.1506
    1DIPC   C4A27452   9.092  15.874   4.253 -0.3177 -0.1859  0.3023
    1DIPC   C1B27453   9.070  14.961   3.470  0.0431 -0.0125 -0.2921
    1DIPC   D2B27454   9.550  14.944   3.610 -0.0704  0.1747 -0.1380
    1DIPC   D3B27455   9.194  15.177   3.890  0.1270  0.1671 -0.1505
    1DIPC   C4B27456   9.153  15.254   4.269 -0.2094 -0.2115  0.3323
    1DIPC   NC327457  19.239  16.360   2.057  0.4309 -0.2871  0.0256
    1DIPC   PO427458  18.941  16.207   2.394 -0.0209  0.3461 -0.2186
    1DIPC   GL127459  18.950  15.923   2.732 -0.6643  0.2590 -0.1967
    1DIPC   GL227460  18.991  15.672   2.569 -0.0868 -0.1719  0.0689
    1DIPC   C1A27461  18.771  15.866   3.096  0.0350 -0.2260 -0.1926
    1DIPC   D2A27462  18.469  15.928   3.298  0.4151 -0.0129 -0.4434
    1DIPC   D3A27463  18.620  15.811   3.717  0.1198 -0.0328 -0.1990
    1DIPC   C4A27464  18.729  15.381   3.776 -0.1448 -0.0263  0.0253
    1DIPC   C1B27465  19.092  15.520   3.002  0.1889  0.1450  0.2567
    1DIPC   D2B27466  18.976  15.064   3.134 -0.0696 -0.2082  0.2103
    1DIPC   D3B27467  18.931  14.621   2.950  0.0394  0.1633  0.0284
    1DIPC   C4B27468  18.599  14.396   2.949 -0.0324 -0.0921  0.0463
    1DIPC   NC327469  29.050  10.372   2.262 -0.1282 -0.2855  0.1158
    1DIPC   PO427470  29.287  10.770   2.501  0.1816  0.2552  0.1694
    1DIPC   GL127471  29.632  10.943   2.789 -0.1588  0.2271 -0.0730
    1DIPC   GL227472  29.925  10.941   2.929 -0.0943 -0.1030 -0.0144
    1DIPC   C1A27473  29.573  11.065   3.282  0.0566  0.0415 -0.0180
    1DIPC   D2A27474  29.659  10.945   3.600  0.0376  0.2373 -0.0282
    1DIPC   D3A27475  29.369  11.021   3.988  0.1837  0.3325  0.0223
    1DIPC   C4A27476  29.447  11.184   4.527  0.0389 -0.0778 -0.0324
    1DIPC   C1B27477  30.038  10.688   3.387  0.2980 -0.1702  0.2600
    1DIPC   D2B27478  30.177  10.661   3.791  0.2809  0.4714 -0.0846
    1DIPC   D3B27479  29.896  10.574   4.066  0.1866  0.2757 -0.3226
    1DIPC   C4B27480  29.471  10.523   4.062  0.0353 -0.0870 -0.1211
    1DIPC   NC327481  11.105   4.208   3.527 -0.1847  0.2090  0.1483
    1DIPC   PO427482  10.835   4.526   3.613 -0.3517  0.1241 -0.2031
    1DIPC   GL127483  10.835   4.784   4.024 -0.1551 -0.3063 -0.0158
    1DIPC   GL227484  10.756   4.922   4.246 -0.2434 -0.3685  0.2727
    1DIPC   C1A27485  11.125   4.651   4.451  0.1846  0.0961 -0.1283
    1DIPC   D2A27486  11.486   4.651   4.709  0.0455 -0.2745  0.1712
    1DIPC   D3A27487  11.457   5.066   4.855 -0.2521  0.0229  0.0133
    1DIPC   C4A27488  11.737   5.236   5.136  0.0676 -0.4990 -0.0252
    1DIPC   C1B27489  10.784   4.807   4.740 -0.0414  0.1398  0.0534
    1DIPC   D2B27490  11.120   4.781   5.031  0.0845  0.0832 -0.0666
    1DIPC   D3B27491  10.933   4.838   5.362 -0.3764  0.0105  0.0356
    1DIPC   C4B27492  10.710   5.066   5.625  0.1759  0.1803  0.3910
    1DIPC   NC327493  14.355  20.684   2.993 -0.0483 -0.1047  0.1108
    1DIPC   PO427494  14.387  21.204   2.940 -0.1347  0.2588  0.0786
    1DIPC   GL127495  14.637  21.397   3.195  0.1147 -0.3453  0.1042
    1DIPC   GL227496  14.487  21.511   3.464 -0.0469  0.2533  0.2014
    1DIPC   C1A27497  14.771  21.062   3.543 -0.1628  0.1378  0.0156
    1DIPC   D2A27498  14.687  20.576   3.610  0.3184  0.0498 -0.0031
    1DIPC   D3A27499  14.303  20.502   3.873 -0.1669 -0.2407  0.0723
    1DIPC   C4A27500  13.841  20.516   3.758 -0.1771  0.0645 -0.3902
    1DIPC   C1B27501  14.365  21.351   3.870  0.3961  0.0495  0.3384
    1DIPC   D2B27502  14.458  20.944   3.969 -0.0797 -0.0680  0.1617
    1DIPC   D3B27503  14.217  20.764   4.266 -0.0335  0.1758 -0.1178
    1DIPC   C4B27504  14.252  20.362   4.359 -0.4978 -0.3843  0.1029
    1DIPC   NC327505  16.131  12.849   2.111 -0.1445  0.0500 -0.0606
    1DIPC   PO427506  15.943  13.044   2.571  0.0640 -0.0175  0.1684
    1DIPC   GL127507  15.930  13.123   3.032 -0.0162 -0.2002  0.0464
    1DIPC   GL227508  16.296  13.137   3.061 -0.2240  0.0679 -0.0974
    1DIPC   C1A27509  15.924  12.926   3.328 -0.2495  0.0896 -0.0898
    1DIPC   D2A27510  15.916  13.025   3.644  0.5682 -0.1735 -0.0771
    1DIPC   D3A27511  15.951  13.301   3.867  0.1914  0.2879 -0.0136
    1DIPC   C4A27512  16.224  13.262   4.240 -0.1960  0.2304 -0.1325
    1DIPC   C1B27513  16.324  13.250   3.413 -0.2405 -0.0475 -0.1977
    1DIPC   D2B27514  16.473  13.276   3.738 -0.2727 -0.0633 -0.0806
    1DIPC   D3B27515  16.326  13.629   3.712 -0.0748  0.1407  0.0496
    1DIPC   C4B27516  16.071  13.624   3.283 -0.0390  0.0167 -0.3304
    1DIPC   NC327517   0.871   0.207   2.565 -0.2677  0.1185 -0.0350
    1DIPC   PO427518   1.102  -0.245   2.576 -0.3409  0.1919  0.0025
    1DIPC   GL127519   1.117  -0.065   2.933  0.0194  0.0020  0.1132
    1DIPC   GL227520   0.833  -0.050   3.073 -0.0207 -0.4013 -0.2442
    1DIPC   C1A27521   1.192  -0.037   3.432 -0.3448  0.0643 -0.0687
    1DIPC   D2A27522   0.822  -0.102   3.686  0.0977  0.0202 -0.2093
    1DIPC   D3A27523   0.965   0.198   3.905  0.1768  0.1870  0.1119
    1DIPC   C4A27524   0.743   0.663   3.768 -0.1692 -0.0841  0.1580
    1DIPC   C1B27525   0.832  -0.456   3.257  0.4029 -0.2947 -0.2397
    1DIPC   D2B27526   1.071  -0.679   3.556 -0.0177 -0.0749 -0.2308
    1DIPC   D3B27527   0.700  -0.613   3.788  0.1109 -0.4105  0.2050
    1DIPC   C4B27528   0.879  -0.610   4.230  0.3914  0.3872 -0.0227
    1DIPC   NC327529   0.074   2.072   3.245  0.1861 -0.1077  0.1914
    1DIPC   PO427530  -0.379   2.304   3.190  0.1483  0.1247 -0.1668
    1DIPC   GL127531  -0.618   2.121   3.576  0.1945  0.0339  0.1310
    1DIPC   GL227532  -0.902   2.344   3.650  0.0073 -0.2759  0.1509
    1DIPC   C1A27533  -0.550   2.235   3.997 -0.2779 -0.0560 -0.2265
    1DIPC   D2A27534  -0.331   2.529   4.258 -0.0317 -0.0058 -0.2965
    1DIPC   D3A27535  -0.658   2.583   4.552  0.3733 -0.2831  0.1606
    1DIPC   C4A27536  -0.623   2.753   4.987  0.0537 -0.0433 -0.3000
    1DIPC   C1B27537  -1.048   2.044   3.981  0.0392  0.3181 -0.1138
    1DIPC   D2B27538  -1.018   2.173   4.459 -0.2173 -0.0386  0.1054
    1DIPC   D3B27539  -1.054   2.433   4.828 -0.0029  0.2303  0.0406
    1DIPC   C4B27540  -0.946   2.375   5.293  0.1474  0.1915  0.1311
    1DIPC   NC327541  22.905   5.378   3.616 -0.0951 -0.2993  0.1398
    1DIPC   PO427542  22.513   5.331   3.654  0.0102  0.0310  0.0307
    1DIPC   GL127543  22.759   5.192   4.035  0.0302 -0.2558  0.0550
    1DIPC   GL227544  22.638   5.326   4.258 -0.0155  0.1208 -0.0176
    1DIPC   C1A27545  22.747   4.835   4.381 -0.0900 -0.0930  0.0832
    1DIPC   D2A27546  22.828   4.413   4.652  0.1773 -0.0706  0.5214
    1DIPC   D3A27547  23.149   4.313   4.887 -0.4612 -0.1004  0.0565
    1DIPC   C4A27548  23.269   4.468   5.251  0.0258  0.0506 -0.2821
    1DIPC   C1B27549  22.449   5.433   4.732  0.1636 -0.1271 -0.2362
    1DIPC   D2B27550  22.424   5.470   5.158 -0.3514  0.0939  0.3683
    1DIPC   D3B27551  22.482   5.009   5.132  0.2527 -0.0107 -0.2945
    1DIPC   C4B27552  22.040   4.797   5.035  0.1217 -0.1309  0.0946
    1DIPC   NC327553   6.064  29.607   2.837  0.2635  0.1671  0.1936
    1DIPC   PO427554   6.443  29.389   2.961  0.0991 -0.0277  0.1260
    1DIPC   GL127555   6.352  29.255   3.365  0.2083 -0.1568  0.2332
    1DIPC   GL227556   6.467  29.558   3.514  0.0100  0.3485 -0.1048
    1DIPC   C1A27557   6.135  29.035   3.632  0.1342  0.0358 -0.0293
    1DIPC   D2A27558   5.910  28.909   4.096  0.0629  0.0892 -0.4853
    1DIPC   D3A27559   5.874  29.152   4.489  0.5491  0.1018  0.2043
    1DIPC   C4A27560   6.294  29.392   4.550 -0.2228  0.2838  0.1934
    1DIPC   C1B27561   6.502  29.466   3.849  0.1654  0.1635 -0.1204
    1DIPC   D2B27562   6.268  29.226   4.055 -0.3979 -0.0238  0.0442
    1DIPC   D3B27563   5.844  29.382   3.836 -0.0395 -0.0944 -0.2344
    1DIPC   C4B27564   5.681  29.740   3.825  0.1351 -0.3385 -0.1074
    1DIPC   NC327565   4.024  15.648   1.595  0.1865  0.0288  0.0948
    1DIPC   PO427566   3.834  16.044   1.836 -0.1084  0.0562  0.0384
    1DIPC   GL127567   3.856  15.757   2.269  0.0752 -0.1322  0.0638
    1DIPC   GL227568   3.570  15.778   2.445  0.1305  0.0274 -0.1062
    1DIPC   C1A27569   3.995  15.771   2.649  0.1628 -0.0879  0.2449
    1DIPC   D2A27570   4.215  16.039   2.924  0.1836  0.4599  0.0525
    1DIPC   D3A27571   4.045  16.170   3.260  0.2605 -0.1456 -0.2180
    1DIPC   C4A27572   4.017  16.608   3.358 -0.3112 -0.1144  0.0945
    1DIPC   C1B27573   3.480  16.069   2.750 -0.0254  0.1064 -0.1729
    1DIPC   D2B27574   3.641  16.335   3.072  0.0013 -0.2580 -0.0756
    1DIPC   D3B27575   3.956  16.471   2.832 -0.0772  0.0077 -0.0916
    1DIPC   C4B27576   4.165  16.936   2.953  0.3146 -0.0430  0.0996
    1DIPC   NC327577   0.212  21.921   2.553  0.0519 -0.1676 -0.1483
    1DIPC   PO427578  -0.025  21.493   2.315  0.2693 -0.3670  0.0619
    1DIPC   GL127579  -0.111  21.428   2.709 -0.1729  0.1068 -0.2976
    1DIPC   GL227580  -0.205  21.139   2.772  0.0369  0.0818 -0.0038
    1DIPC   C1A27581   0.067  21.543   3.158  0.1303  0.0396  0.4183
    1DIPC   D2A27582   0.514  21.493   3.363  0.2105  0.0334  0.1938
    1DIPC   D3A27583   0.445  21.652   3.837 -0.3656 -0.1939  0.0166
    1DIPC   C4A27584   0.412  22.185   3.812 -0.2896  0.0136 -0.0514
    1DIPC   C1B27585  -0.357  21.333   3.222 -0.1662 -0.0722  0.1082
    1DIPC   D2B27586  -0.315  21.425   3.517  0.0289 -0.0890 -0.0351
    1DIPC   D3B27587  -0.582  21.168   3.718  0.0981  0.3292  0.0359
    1DIPC   C4B27588  -0.998  21.065   3.767  0.2819  0.2752  0.1235
    1DIPC   NC327589   2.763   5.594   2.924  0.1122 -0.0919  0.3503
    1DIPC   PO427590   2.695   6.082   2.820  0.1080  0.1671 -0.0522
    1DIPC   GL127591   2.770   6.285   3.210  0.0599  0.1614 -0.3604
    1DIPC   GL227592   2.959   6.625   3.293 -0.0088  0.1182 -0.0656
    1DIPC   C1A27593   2.651   6.283   3.679  0.0418 -0.1599  0.0752
    1DIPC   D2A27594   2.447   6.134   4.087  0.0479 -0.1429 -0.3636
    1DIPC   D3A27595   2.700   5.833   3.879  0.0373  0.0588 -0.2170
    1DIPC   C4A27596   2.782   5.515   4.192 -0.2541  0.1044 -0.4624
    1DIPC   C1B27597   2.623   6.731   3.616 -0.0421 -0.2252  0.1537
    1DIPC   D2B27598   2.310   6.692   3.857 -0.0405  0.2000 -0.3062
    1DIPC   D3B27599   2.401   6.662   4.272 -0.0281 -0.2432  0.3087
    1DIPC   C4B27600   2.783   6.772   4.595 -0.2484 -0.1573 -0.1900
    1DIPC   NC327601   5.959   1.636   3.497  0.1133 -0.1854  0.0355
    1DIPC   PO427602   5.975   1.295   3.144 -0.0725 -0.3323  0.1085
    1DIPC   GL127603   5.702   0.953   3.272 -0.0767 -0.1539  0.3025
    1DIPC   GL227604   5.790   0.683   3.255  0.0169  0.0250 -0.0147
    1DIPC   C1A27605   5.438   0.840   3.683  0.0599  0.2256  0.1159
    1DIPC   D2A27606   5.653   0.922   4.063 -0.2102  0.2016  0.0745
    1DIPC   D3A27607   5.331   1.075   4.093  0.3023 -0.2165 -0.1469
    1DIPC   C4A27608   5.025   1.003   3.892  0.1517  0.1949  0.0430
    1DIPC   C1B27609   5.866   0.383   3.697 -0.0541 -0.2174 -0.1075
    1DIPC   D2B27610   5.762   0.279   4.172 -0.3969  0.0679  0.0439
    1DIPC   D3B27611   5.700  -0.200   4.293 -0.1082 -0.0703  0.2992
    1DIPC   C4B27612   5.340  -0.434   4.255  0.2793  0.0806  0.1303
    1DIPC   NC327613   3.266  23.729   3.338  0.0824 -0.0399  0.0961
    1DIPC   PO427614   3.674  23.860   3.605  0.0713 -0.1773 -0.1666
    1DIPC   GL127615   3.898  23.683   3.992 -0.1519 -0.1787 -0.2080
    1DIPC   GL227616   3.947  24.052   4.038 -0.0323 -0.1639  0.0902
    1DIPC   C1A27617   3.517  23.504   4.288 -0.1365 -0.3848 -0.2735
    1DIPC   D2A27618   3.466  23.063   4.391  0.1181  0.1295 -0.0531
    1DIPC   D3A27619   3.185  23.269   4.727 -0.2768 -0.0056  0.0347
    1DIPC   C4A27620   2.755  23.014   4.801  0.0289 -0.0309  0.2017
    1DIPC   C1B27621   4.088  24.423   4.248 -0.1543 -0.2823 -0.2020
    1DIPC   D2B27622   4.058  24.496   4.705  0.3099 -0.0058  0.1291
    1DIPC   D3B27623   3.762  24.154   4.810  0.2438 -0.0859 -0.0990
    1DIPC   C4B27624   3.797  23.791   4.588 -0.0119  0.2460 -0.1064
    1DIPC   NC327625  24.213  11.511   2.302 -0.0227  0.0843 -0.0248
    1DIPC   PO427626  23.707  11.469   2.318 -0.0913  0.0023 -0.0339
    1DIPC   GL127627  23.834  11.394   2.701 -0.0565  0.2992  0.0412
    1DIPC   GL227628  23.877  10.992   2.728  0.0263  0.0429 -0.2698
    1DIPC   C1A27629  23.622  11.356   3.086 -0.1136 -0.0641 -0.0394
    1DIPC   D2A27630  23.625  11.441   3.550  0.3050  0.0608  0.2833
    1DIPC   D3A27631  23.791  11.085   3.665  0.1306  0.2330  0.3376
    1DIPC   C4A27632  24.236  10.817   3.628  0.0323  0.1638 -0.1878
    1DIPC   C1B27633  23.824  10.556   2.829 -0.3812 -0.3580 -0.2343
    1DIPC   D2B27634  23.940  10.446   3.217 -0.0107 -0.0749 -0.0066
    1DIPC   D3B27635  23.651  10.454   3.540 -0.0830 -0.1008  0.1922
    1DIPC   C4B27636  23.873  10.417   3.917 -0.0012 -0.3148  0.2857
    1DIPC   NC327637  23.350  29.233   3.389  0.3688  0.0738 -0.0898
    1DIPC   PO427638  22.958  28.896   3.678 -0.0697  0.0614 -0.1744
    1DIPC   GL127639  23.176  28.672   4.068 -0.2252  0.0104 -0.2108
    1DIPC   GL227640  23.053  28.882   4.263  0.1812  0.3068  0.1181
    1DIPC   C1A27641  23.330  28.356   4.434  0.1390 -0.0428 -0.2956
    1DIPC   D2A27642  23.258  27.962   4.485 -0.1068  0.3199 -0.0437
    1DIPC   D3A27643  22.978  27.929   4.736  0.0654 -0.3263 -0.1143
    1DIPC   C4A27644  22.843  28.236   4.950 -0.0877 -0.1310 -0.4069
    1DIPC   C1B27645  22.806  28.599   4.466 -0.1244 -0.2065  0.1268
    1DIPC   D2B27646  22.603  28.635   4.844  0.3491  0.0360  0.3207
    1DIPC   D3B27647  22.535  28.964   5.143  0.0266  0.0081  0.2279
    1DIPC   C4B27648  22.442  29.381   5.109  0.1329  0.1411 -0.1432
    1DIPC   NC327649  24.204   5.379   3.731 -0.3606  0.0904 -0.0403
    1DIPC   PO427650  24.264   5.008   3.439  0.4098  0.2201  0.0724
    1DIPC   GL127651  24.178   4.936   3.927  0.1509 -0.0783 -0.0312
    1DIPC   GL227652  24.232   5.181   4.170  0.4174 -0.0939  0.1784
    1DIPC   C1A27653  23.807   4.872   4.214  0.1261 -0.3916 -0.0052
    1DIPC   D2A27654  23.568   4.534   4.446  0.5252  0.1103 -0.1274
    1DIPC   D3A27655  23.596   4.644   4.862 -0.0755 -0.4434 -0.1567
    1DIPC   C4A27656  23.841   4.484   5.243  0.0105  0.4323 -0.0586
    1DIPC   C1B27657  24.375   5.033   4.485  0.0347  0.2063 -0.1106
    1DIPC   D2B27658  24.289   4.834   4.966  0.0061  0.0128 -0.0582
    1DIPC   D3B27659  24.236   5.282   4.917  0.1383 -0.0262  0.1948
    1DIPC   C4B27660  24.460   5.653   5.113  0.0763 -0.1409  0.2646
    1DIPC   NC327661  10.991   7.246   3.258  0.5422 -0.1945 -0.2211
    1DIPC   PO427662  11.463   7.102   3.212  0.0184  0.1055  0.0109
    1DIPC   GL127663  11.491   7.367   3.669 -0.0646 -0.0124  0.2195
    1DIPC   GL227664  11.685   7.653   3.608  0.0079  0.1667 -0.2284
    1DIPC   C1A27665  11.298   7.282   4.013 -0.2831  0.0180  0.0501
    1DIPC   D2A27666  11.047   7.229   4.410  0.0046 -0.3269 -0.1169
    1DIPC   D3A27667  10.833   6.977   4.101  0.0473  0.0047  0.0962
    1DIPC   C4A27668  10.993   6.593   4.104  0.1067 -0.3971  0.0865
    1DIPC   C1B27669  11.478   7.843   3.969 -0.1004  0.1327 -0.0207
    1DIPC   D2B27670  11.377   7.952   4.420  0.2398  0.0878 -0.1709
    1DIPC   D3B27671  11.311   8.008   4.895 -0.0420  0.0575  0.0671
    1DIPC   C4B27672  11.108   8.432   5.030 -0.1261  0.3009  0.1467
    1DIPC   NC327673  25.189  26.690   2.726 -0.4003  0.0176  0.0572
    1DIPC   PO427674  25.012  26.514   3.110 -0.1074 -0.0638 -0.0615
    1DIPC   GL127675  24.989  26.704   3.553 -0.0189 -0.0039 -0.0059
    1DIPC   GL227676  24.977  26.737   3.860 -0.0821 -0.0702  0.0660
    1DIPC   C1A27677  25.375  26.997   3.736 -0.0790  0.1174  0.1093
    1DIPC   D2A27678  25.795  26.873   4.068  0.0169  0.0982 -0.1003
    1DIPC   D3A27679  25.685  26.812   4.515  0.1980  0.3074 -0.0055
    1DIPC   C4A27680  25.233  26.931   4.769  0.0025 -0.1011  0.0176
    1DIPC   C1B27681  25.393  26.578   3.998 -0.1953  0.1923 -0.0169
    1DIPC   D2B27682  25.758  26.268   3.952  0.3248 -0.1260  0.1128
    1DIPC   D3B27683  25.726  26.252   4.386 -0.0798  0.2561  0.0198
    1DIPC   C4B27684  25.729  25.790   4.581  0.1934 -0.2918 -0.1218
    1DIPC   NC327685  23.618  16.724   1.152 -0.2590 -0.0544 -0.1331
    1DIPC   PO427686  23.183  16.837   1.238 -0.1143  0.1535 -0.1339
    1DIPC   GL127687  23.301  16.773   1.651  0.0788  0.1680  0.1158
    1DIPC   GL227688  23.626  16.933   1.686  0.2776 -0.2150 -0.1937
    1DIPC   C1A27689  23.563  16.440   1.878  0.2938 -0.1866 -0.0393
    1DIPC   D2A27690  23.908  16.117   2.035  0.0291 -0.0279  0.1035
    1DIPC   D3A27691  24.254  15.843   2.143  0.4275 -0.1345 -0.1174
    1DIPC   C4A27692  24.695  15.810   2.062  0.1884  0.0767 -0.0267
    1DIPC   C1B27693  23.460  16.984   2.084  0.4708  0.1902 -0.0312
    1DIPC   D2B27694  23.258  17.051   2.434  0.0606  0.0843  0.3469
    1DIPC   D3B27695  22.886  16.881   2.575  0.3104 -0.0403  0.2640
    1DIPC   C4B27696  22.686  16.736   2.937  0.1178 -0.0120 -0.1356
    1DIPC   NC327697  19.495  23.483   3.047  0.0068 -0.1497 -0.0122
    1DIPC   PO427698  19.341  23.120   2.881  0.2817 -0.0867 -0.0669
    1DIPC   GL127699  19.433  23.061   3.308 -0.0135  0.0980 -0.2661
    1DIPC   GL227700  19.238  23.184   3.532 -0.1498  0.1879 -0.1005
    1DIPC   C1A27701  19.684  22.720   3.614  0.3487 -0.2384  0.0895
    1DIPC   D2A27702  19.690  22.445   3.949 -0.3843  0.1045  0.0871
    1DIPC   D3A27703  19.270  22.605   3.939  0.0091  0.1349 -0.0979
    1DIPC   C4A27704  18.845  22.461   3.989 -0.0268 -0.1492  0.2272
    1DIPC   C1B27705  19.447  23.020   3.970  0.0046  0.0720 -0.3083
    1DIPC   D2B27706  19.780  22.941   4.158 -0.0244  0.2452 -0.2121
    1DIPC   D3B27707  19.748  23.369   4.324 -0.1180  0.0508 -0.2109
    1DIPC   C4B27708  19.779  23.524   4.732 -0.0779 -0.1239  0.0437
    1DIPC   NC327709   0.107  25.978   3.568 -0.1014 -0.0739 -0.2116
    1DIPC   PO427710   0.018  26.064   3.203 -0.1664 -0.3539 -0.3693
    1DIPC   GL127711  -0.113  25.691   3.235 -0.1590 -0.0605  0.2251
    1DIPC   GL227712  -0.290  25.481   2.985 -0.0164  0.1029  0.1241
    1DIPC   C1A27713  -0.163  25.322   3.610  0.2237 -0.3326 -0.0488
    1DIPC   D2A27714  -0.155  24.877   3.587 -0.0367  0.0088 -0.0530
    1DIPC   D3A27715  -0.012  24.909   4.039  0.1783  0.2392 -0.0317
    1DIPC   C4A27716  -0.135  25.281   4.253 -0.0995  0.2975  0.1388
    1DIPC   C1B27717  -0.406  25.129   3.200 -0.2216 -0.3930 -0.1778
    1DIPC   D2B27718  -0.702  24.960   3.421 -0.0533 -0.0348  0.0513
    1DIPC   D3B27719  -0.561  24.883   3.868  0.2302  0.0088  0.2029
    1DIPC   C4B27720  -0.687  24.788   4.291 -0.0196  0.1177  0.0577
    1DIPC   NC327721   0.837  25.936   3.298  0.0627  0.2162  0.0730
    1DIPC   PO427722   0.480  26.190   3.368 -0.0916  0.1350  0.0508
    1DIPC   GL127723   0.379  26.447   3.673  0.2723 -0.0358  0.3236
    1DIPC   GL227724   0.569  26.637   3.740 -0.1046  0.2630  0.0297
    1DIPC   C1A27725   0.195  26.463   4.158 -0.1397 -0.0351  0.0489
    1DIPC   D2A27726   0.005  26.475   4.418  0.0466 -0.2206  0.1308
    1DIPC   D3A27727   0.381  26.518   4.627  0.0917  0.1255  0.0898
    1DIPC   C4A27728   0.649  26.552   4.882  0.2219 -0.0601 -0.0567
    1DIPC   C1B27729   0.601  26.902   4.074  0.0405 -0.0126 -0.0787
    1DIPC   D2B27730   0.416  27.376   4.199 -0.4231 -0.2789 -0.2590
    1DIPC   D3B27731   0.478  27.469   4.654  0.0837 -0.2278  0.0347
    1DIPC   C4B27732   0.918  27.305   4.939  0.3105  0.1800  0.3120
    1DIPC   NC327733  28.006   8.527   2.499  0.0559  0.3115 -0.1045
    1DIPC   PO427734  28.436   8.299   2.443 -0.1065 -0.1482 -0.0489
    1DIPC   GL127735  28.464   8.221   2.830  0.0867  0.0488  0.0018
    1DIPC   GL227736  28.572   7.959   3.043  0.0232  0.0342 -0.1614
    1DIPC   C1A27737  28.622   8.501   3.255 -0.2390 -0.2748  0.2615
    1DIPC   D2A27738  28.626   8.660   3.679 -0.1877 -0.0757 -0.0030
    1DIPC   D3A27739  28.284   8.725   3.881 -0.1744 -0.2361  0.2295
    1DIPC   C4A27740  28.257   8.804   4.345  0.0474 -0.1221  0.0014
    1DIPC   C1B27741  28.401   7.892   3.428  0.1255 -0.0488 -0.1921
    1DIPC   D2B27742  28.497   7.714   3.806 -0.0253 -0.0342  0.2048
    1DIPC   D3B27743  28.509   8.163   3.878  0.2306  0.0523  0.1107
    1DIPC   C4B27744  28.594   8.234   4.255 -0.1787  0.0409 -0.0436
    1DIPC   NC327745  23.469  29.571   3.720 -0.1482  0.0492  0.0017
    1DIPC   PO427746  23.821  29.260   3.654 -0.3175 -0.1093  0.1321
    1DIPC   GL127747  23.957  29.160   4.143 -0.4528 -0.0247 -0.0034
    1DIPC   GL227748  24.237  29.437   4.168  0.1297  0.1155  0.4016
    1DIPC   C1A27749  24.140  28.953   4.444 -0.3242  0.2869 -0.2141
    1DIPC   D2A27750  24.156  28.862   4.822 -0.2429 -0.1765  0.0628
    1DIPC   D3A27751  24.193  28.358   4.960  0.3465 -0.0757  0.2966
    1DIPC   C4A27752  24.402  28.030   5.143 -0.2049 -0.2355  0.0430
    1DIPC   C1B27753  24.618  29.470   4.455 -0.0821 -0.1435  0.0114
    1DIPC   D2B27754  24.576  29.158   4.746 -0.0436 -0.1547 -0.0937
    1DIPC   D3B27755  24.841  29.508   4.948  0.1469  0.0144  0.2640
    1DIPC   C4B27756  25.290  29.542   4.963  0.0642 -0.2468 -0.0438
    1DIPC   NC327757  21.880  21.033   1.989  0.0232 -0.0050  0.2302
    1DIPC   PO427758  22.105  21.231   2.225 -0.0604 -0.1019  0.0726
    1DIPC   GL127759  22.108  21.334   2.651  0.2992  0.1990 -0.1509
    1DIPC   GL227760  22.290  21.463   2.887 -0.4836  0.1833  0.0463
    1DIPC   C1A27761  21.992  21.026   2.872 -0.1036 -0.2019 -0.3003
    1DIPC   D2A27762  21.908  20.771   3.241  0.0750 -0.0295  0.2004
    1DIPC   D3A27763  21.867  21.067   3.589 -0.1224 -0.1135  0.1705
    1DIPC   C4A27764  21.819  20.847   3.935  0.2064  0.1434  0.2023
    1DIPC   C1B27765  22.197  21.285   3.246 -0.1908 -0.0651 -0.1558
    1DIPC   D2B27766  22.220  21.425   3.643  0.0465 -0.2812  0.0117
    1DIPC   D3B27767  22.444  21.008   3.674  0.0240  0.0458  0.0551
    1DIPC   C4B27768  22.411  20.783   3.304 -0.0409 -0.2139  0.0146
    1DIPC   NC327769   0.632   9.261   2.342 -0.1589  0.1870 -0.1026
    1DIPC   PO427770   0.200   9.252   2.509 -0.0621  0.2201  0.0832
    1DIPC   GL127771   0.195   9.345   2.928  0.1628  0.1030  0.1891
    1DIPC   GL227772  -0.056   9.543   3.037 -0.0867  0.1992 -0.0744
    1DIPC   C1A27773   0.301   9.234   3.252  0.1785 -0.0326 -0.0259
    1DIPC   D2A27774   0.141   9.321   3.588 -0.2966  0.1274  0.0570
    1DIPC   D3A27775   0.459   9.634   3.802  0.2559  0.1410 -0.1198
    1DIPC   C4A27776   0.705   9.876   3.713  0.0434  0.0703  0.0406
    1DIPC   C1B27777  -0.172   9.612   3.513  0.0972 -0.1474 -0.1188
    1DIPC   D2B27778  -0.031   9.620   4.095  0.1636  0.0558 -0.1268
    1DIPC   D3B27779   0.363   9.720   4.362 -0.3999  0.0035 -0.2311
    1DIPC   C4B27780   0.410   9.833   4.705  0.2839  0.0940 -0.1845
    1DIPC   NC327781   0.273   7.748   2.439  0.0202  0.1509  0.2008
    1DIPC   PO427782   0.018   8.008   2.783  0.0683  0.1716  0.2648
    1DIPC   GL127783   0.045   7.790   3.169 -0.1425 -0.1083  0.1727
    1DIPC   GL227784   0.288   7.971   3.359 -0.0218 -0.1690  0.2789
    1DIPC   C1A27785   0.218   7.463   3.364  0.1055  0.0942  0.1341
    1DIPC   D2A27786   0.198   7.419   3.851  0.2734  0.1264  0.0282
    1DIPC   D3A27787   0.071   7.771   3.755 -0.2872 -0.1650  0.4263
    1DIPC   C4A27788   0.012   8.104   4.126  0.1455 -0.1859 -0.0485
    1DIPC   C1B27789   0.334   8.317   3.651 -0.1286 -0.0571  0.1589
    1DIPC   D2B27790   0.635   8.661   3.660 -0.0342 -0.1035 -0.1739
    1DIPC   D3B27791   0.711   8.869   4.057  0.0004  0.1511  0.0125
    1DIPC   C4B27792   1.027   9.065   4.353  0.0852 -0.0257 -0.0561
    1DIPC   NC327793  10.310   7.487   3.504  0.2941 -0.0279  0.2304
    1DIPC   PO427794  10.524   7.336   3.241 -0.0850 -0.1023 -0.1832
    1DIPC   GL127795  10.750   7.763   3.432 -0.1094 -0.1073 -0.0076
    1DIPC   GL227796  10.550   8.051   3.585  0.2016 -0.0217  0.1905
    1DIPC   C1A27797  11.001   7.849   3.782 -0.0034 -0.0404  0.0621
    1DIPC   D2A27798  10.996   7.636   4.194  0.1298 -0.1184  0.1457
    1DIPC   D3A27799  10.900   7.791   4.565 -0.2841 -0.1929  0.0394
    1DIPC   C4A27800  10.795   7.379   4.808 -0.3037  0.1120 -0.1999
    1DIPC   C1B27801  10.566   7.937   3.995  0.1027  0.0121  0.1101
    1DIPC   D2B27802  10.384   7.980   4.414 -0.0661 -0.2969  0.0516
    1DIPC   D3B27803  10.447   8.514   4.611 -0.0893 -0.0030  0.0718
    1DIPC   C4B27804  10.206   8.484   4.940  0.1384 -0.0010 -0.0503
    1DIPC   NC327805   7.185   6.412   3.242  0.3488 -0.1223  0.2995
    1DIPC   PO427806   7.165   6.742   3.464 -0.3094  0.0984  0.0419
    1DIPC   GL127807   6.968   6.874   3.885  0.1135  0.2035 -0.2041
    1DIPC   GL227808   6.762   6.635   3.935 -0.1915 -0.0431 -0.0915
    1DIPC   C1A27809   7.145   6.871   4.288  0.0325  0.0978  0.3015
    1DIPC   D2A27810   7.427   6.933   4.564  0.0055  0.2882  0.1400
    1DIPC   D3A27811   7.593   6.717   4.958 -0.0463  0.0122 -0.2036
    1DIPC   C4A27812   7.470   6.296   5.045  0.0602 -0.0582  0.0484
    1DIPC   C1B27813   6.622   6.953   4.322 -0.0393 -0.1380  0.0612
    1DIPC   D2B27814   6.790   7.125   4.675  0.1282  0.2951 -0.1434
    1DIPC   D3B27815   6.606   6.895   5.040  0.2081 -0.1956 -0.0920
    1DIPC   C4B27816   6.241   7.006   5.222 -0.1010  0.0249 -0.0590
    1DIPC   NC327817  17.313   5.146   3.584 -0.2771  0.0758 -0.1392
    1DIPC   PO427818  16.889   5.194   3.403  0.2565  0.0043  0.0085
    1DIPC   GL127819  16.722   5.040   3.879  0.1738  0.2723  0.0515
    1DIPC   GL227820  16.417   4.850   4.018 -0.0899 -0.1538  0.2063
    1DIPC   C1A27821  16.659   5.302   4.208  0.0975 -0.2170  0.1910
    1DIPC   D2A27822  16.578   5.164   4.710  0.0346  0.0270  0.1447
    1DIPC   D3A27823  16.758   4.742   4.760  0.1461  0.1800 -0.0827
    1DIPC   C4A27824  16.484   4.359   4.901  0.2644 -0.0116 -0.1066
    1DIPC   C1B27825  16.360   4.784   4.463 -0.0218 -0.2287 -0.1233
    1DIPC   D2B27826  16.253   4.806   5.007 -0.1268  0.1780  0.2400
    1DIPC   D3B27827  16.519   4.839   5.286  0.0552  0.0411  0.0869
    1DIPC   C4B27828  16.774   5.041   5.156  0.1873  0.1763 -0.0660
    1DIPC   NC327829  25.524   9.565   2.154  0.0773 -0.0222  0.2400
    1DIPC   PO427830  25.875   9.739   2.414 -0.2962  0.1868  0.1006
    1DIPC   GL127831  25.902   9.820   2.842  0.2542  0.1561  0.0869
    1DIPC   GL227832  26.222   9.761   2.951 -0.0244 -0.0770 -0.1575
    1DIPC   C1A27833  25.857  10.108   3.163 -0.1545  0.4203 -0.1133
    1DIPC   D2A27834  26.245  10.252   3.181  0.2654  0.0426  0.1602
    1DIPC   D3A27835  26.073  10.339   3.585  0.1452  0.1234 -0.1541
    1DIPC   C4A27836  26.404  10.374   3.839  0.0136  0.2916 -0.1269
    1DIPC   C1B27837  25.939   9.607   3.291 -0.0597  0.1608  0.1004
    1DIPC   D2B27838  25.769   9.680   3.722 -0.0234 -0.0967 -0.0550
    1DIPC   D3B27839  25.326   9.804   3.762  0.1717 -0.1079 -0.1107
    1DIPC   C4B27840  25.120  10.270   3.745  0.1811 -0.1217  0.1470
    1DIPC   NC327841  20.939  17.887   1.997 -0.0421 -0.0943 -0.0984
    1DIPC   PO427842  20.848  17.441   1.902  0.0525 -0.1419  0.1121
    1DIPC   GL127843  21.030  17.364   2.291 -0.4553  0.3396  0.0244
    1DIPC   GL227844  20.837  17.276   2.526  0.2275  0.1018 -0.1928
    1DIPC   C1A27845  21.373  17.405   2.473 -0.0439  0.0058 -0.2059
    1DIPC   D2A27846  21.692  17.471   2.796 -0.3468  0.1210  0.2060
    1DIPC   D3A27847  21.818  17.198   3.005  0.2314  0.2289 -0.2310
    1DIPC   C4A27848  21.704  16.894   2.698  0.2039 -0.1445  0.1464
    1DIPC   C1B27849  21.090  17.291   2.955  0.3769 -0.1271  0.2154
    1DIPC   D2B27850  20.986  17.447   3.331 -0.1989 -0.0691  0.0841
    1DIPC   D3B27851  21.421  17.395   3.309  0.0313  0.0322  0.1214
    1DIPC   C4B27852  21.728  17.686   3.660 -0.3944  0.0954 -0.0573
    1DIPC   NC327853   3.994   3.634   2.995  0.0293  0.1630 -0.0605
    1DIPC   PO427854   3.740   3.263   2.972  0.1853  0.0023  0.2653
    1DIPC   GL127855   3.775   3.036   3.387 -0.3405  0.3589 -0.2191
    1DIPC   GL227856   3.981   3.199   3.632  0.2452 -0.0386  0.3691
    1DIPC   C1A27857   3.706   2.663   3.462  0.0045 -0.0237  0.0276
    1DIPC   D2A27858   3.578   2.247   3.605 -0.1383 -0.0810 -0.2198
    1DIPC   D3A27859   3.166   2.330   3.670 -0.0817 -0.2647  0.5013
    1DIPC   C4A27860   2.988   2.602   3.999  0.2157 -0.0365  0.1610
    1DIPC   C1B27861   3.899   3.098   4.130 -0.0078 -0.0520 -0.2905
    1DIPC   D2B27862   3.650   2.842   4.444 -0.0179  0.0606  0.1808
    1DIPC   D3B27863   3.801   2.804   4.775 -0.2475 -0.0668 -0.1214
    1DIPC   C4B27864   3.783   2.334   4.619 -0.2404 -0.1176 -0.2556
    1DIPC   NC327865   5.858  25.053   2.704  0.0438  0.1509 -0.2544
    1DIPC   PO427866   5.368  25.128   2.738  0.0121  0.0842 -0.2452
    1DIPC   GL127867   5.441  24.904   3.166  0.2840  0.1652 -0.1990
    1DIPC   GL227868   5.559  25.125   3.223  0.0161 -0.0187  0.1478
    1DIPC   C1A27869   5.436  24.582   3.454  0.1977 -0.4032 -0.0778
    1DIPC   D2A27870   5.378  24.381   3.739 -0.0248 -0.1889  0.0815
    1DIPC   D3A27871   5.227  24.610   4.069 -0.0051 -0.4751 -0.1995
    1DIPC   C4A27872   4.789  24.596   4.127 -0.0834 -0.4595 -0.1008
    1DIPC   C1B27873   5.615  25.013   3.676  0.0552 -0.0120  0.2673
    1DIPC   D2B27874   5.535  24.999   4.088  0.0722 -0.0434  0.0030
    1DIPC   D3B27875   5.539  25.199   4.609  0.0951 -0.0983 -0.0825
    1DIPC   C4B27876   5.265  24.838   4.934 -0.2842 -0.1336  0.3950
    1DIPC   NC327877  27.830  25.545   2.690  0.0863 -0.0501  0.1070
    1DIPC   PO427878  28.087  25.234   2.783 -0.0116 -0.4089 -0.0351
    1DIPC   GL127879  28.218  25.269   3.172  0.0164 -0.1469  0.1581
    1DIPC   GL227880  28.119  25.555   3.231  0.2001  0.3317 -0.0495
    1DIPC   C1A27881  28.257  25.181   3.647  0.0942 -0.2302  0.4465
    1DIPC   D2A27882  28.029  25.570   3.858 -0.2260  0.3353  0.2446
    1DIPC   D3A27883  28.184  25.653   4.285 -0.1974  0.0830 -0.2290
    1DIPC   C4A27884  28.027  25.571   4.685  0.1135 -0.2878 -0.0050
    1DIPC   C1B27885  27.828  25.441   3.450  0.0143 -0.0703 -0.0817
    1DIPC   D2B27886  27.514  25.321   3.737 -0.2005 -0.1117  0.1656
    1DIPC   D3B27887  27.831  25.024   3.815 -0.0266  0.4830  0.0879
    1DIPC   C4B27888  27.835  25.087   4.299 -0.1006  0.2815 -0.0676
    1DIPC   NC327889  23.312  24.013   2.689 -0.3259 -0.0392 -0.0101
    1DIPC   PO427890  22.996  24.396   2.805 -0.2171 -0.0224 -0.0947
    1DIPC   GL127891  22.791  24.229   3.210 -0.1294 -0.0989 -0.2921
    1DIPC   GL227892  23.035  23.981   3.220 -0.0290  0.0541 -0.3949
    1DIPC   C1A27893  22.426  24.129   3.229 -0.1702  0.3161 -0.1694
    1DIPC   D2A27894  21.929  24.129   3.440  0.1725 -0.0200  0.0504
    1DIPC   D3A27895  22.091  24.024   3.764  0.2657  0.0972 -0.3566
    1DIPC   C4A27896  22.523  24.291   3.673  0.1822  0.2854 -0.0696
    1DIPC   C1B27897  22.786  23.860   3.614 -0.1575  0.1382  0.1157
    1DIPC   D2B27898  22.841  23.804   4.021  0.0487  0.0257 -0.1769
    1DIPC   D3B27899  22.521  23.672   4.331  0.2500 -0.1565  0.0457
    1DIPC   C4B27900  22.073  23.564   4.258  0.1671 -0.1312  0.3277
    1DIPC   NC327901  21.762   0.381   3.480 -0.1012 -0.0140 -0.0052
    1DIPC   PO427902  22.157   0.219   3.598  0.2650 -0.1699 -0.1897
    1DIPC   GL127903  21.989   0.542   3.891  0.1005  0.0449  0.0806
    1DIPC   GL227904  21.926   0.854   4.165 -0.0425 -0.2039 -0.3239
    1DIPC   C1A27905  21.642   0.464   4.230  0.0843 -0.2673  0.0202
    1DIPC   D2A27906  21.358   0.383   4.469 -0.1045 -0.2993 -0.1312
    1DIPC   D3A27907  21.356   0.016   4.286  0.5088 -0.1529 -0.1039
    1DIPC   C4A27908  21.377  -0.380   4.488 -0.1552 -0.0474  0.2114
    1DIPC   C1B27909  21.713   0.844   4.597 -0.2950 -0.2261  0.0712
    1DIPC   D2B27910  21.649   0.539   4.905 -0.2946 -0.1200  0.1629
    1DIPC   D3B27911  21.736   0.322   5.181 -0.2451 -0.2563  0.0818
    1DIPC   C4B27912  21.430   0.006   5.406  0.1826  0.2504  0.0870
    1DIPC   NC327913   9.930  29.715   3.351 -0.1906 -0.0493 -0.3769
    1DIPC   PO427914   9.990  30.203   3.320  0.0711 -0.0374 -0.1797
    1DIPC   GL127915  10.042  30.221   3.741 -0.3763  0.3016 -0.0031
    1DIPC   GL227916   9.971  29.808   3.835  0.0423  0.0044 -0.2692
    1DIPC   C1A27917  10.238  30.072   4.175  0.0479  0.0529  0.0736
    1DIPC   D2A27918  10.141  30.016   4.505 -0.1635  0.0861  0.0557
    1DIPC   D3A27919  10.059  30.101   4.907 -0.1697 -0.0705  0.1121
    1DIPC   C4A27920  10.116  29.848   5.221 -0.2946 -0.0517 -0.1148
    1DIPC   C1B27921   9.680  29.938   4.211  0.1661 -0.0847  0.3402
    1DIPC   D2B27922   9.642  30.225   4.557 -0.0144  0.1645 -0.1887
    1DIPC   D3B27923   9.614  30.260   4.977 -0.0541  0.1720 -0.0127
    1DIPC   C4B27924   9.989  30.335   5.338 -0.4195 -0.1172 -0.2523
    1DIPC   NC327925   4.043  24.234   2.913 -0.0762 -0.1041 -0.2782
    1DIPC   PO427926   3.973  24.552   3.223 -0.0146  0.0795 -0.1862
    1DIPC   GL127927   3.714  24.706   3.589  0.0854  0.0137 -0.1629
    1DIPC   GL227928   3.861  25.067   3.494  0.1998 -0.1151 -0.4046
    1DIPC   C1A27929   3.629  24.504   4.048  0.0512  0.0328  0.1196
    1DIPC   D2A27930   3.622  24.480   4.442 -0.2131  0.0454  0.0738
    1DIPC   D3A27931   3.575  24.893   4.693 -0.0540  0.1857 -0.1925
    1DIPC   C4A27932   3.912  24.991   5.001  0.0433  0.2301  0.0717
    1DIPC   C1B27933   3.929  25.284   3.855  0.0261  0.0770 -0.0129
    1DIPC   D2B27934   4.067  25.329   4.240  0.0887  0.2005 -0.2549
    1DIPC   D3B27935   4.099  25.785   4.236  0.2241  0.0377  0.1380
    1DIPC   C4B27936   4.074  26.183   4.174  0.1661 -0.0566  0.2064
    1DIPC   NC327937  14.886   6.221   3.454  0.0627  0.0259 -0.0334
    1DIPC   PO427938  15.116   5.835   3.402 -0.3311  0.2008 -0.3274
    1DIPC   GL127939  15.022   5.761   3.806 -0.4964 -0.1056 -0.1475
    1DIPC   GL227940  15.064   6.073   3.902  0.0881  0.0283 -0.1546
    1DIPC   C1A27941  15.363   5.657   4.095 -0.1056 -0.0284 -0.2892
    1DIPC   D2A27942  15.383   5.812   4.560 -0.4396  0.0006  0.1127
    1DIPC   D3A27943  15.495   6.282   4.492 -0.2228  0.2294  0.0538
    1DIPC   C4A27944  15.578   6.621   4.806 -0.2956 -0.0845 -0.4130
    1DIPC   C1B27945  14.870   5.953   4.199  0.0225 -0.1572  0.1198
    1DIPC   D2B27946  14.580   5.838   4.531  0.3109  0.0789  0.0390
    1DIPC   D3B27947  14.774   5.903   4.943 -0.0619 -0.1476  0.2464
    1DIPC   C4B27948  14.413   5.945   5.065  0.1373  0.0285  0.0113
    1DIPC   NC327949   6.609   4.102   3.519  0.2023  0.2178 -0.2320
    1DIPC   PO427950   6.191   3.896   3.613 -0.0440  0.0326  0.2056
    1DIPC   GL127951   6.033   3.872   4.019 -0.1495  0.3155  0.2360
    1DIPC   GL227952   5.736   3.834   4.049  0.0584  0.1227  0.0549
    1DIPC   C1A27953   6.109   3.925   4.493  0.1010 -0.0622  0.4354
    1DIPC   D2A27954   6.283   4.167   4.868  0.2007  0.0868 -0.0607
    1DIPC   D3A27955   6.125   4.392   5.203  0.3129 -0.0269 -0.2361
    1DIPC   C4A27956   5.944   4.802   5.164 -0.1714 -0.1464  0.0567
    1DIPC   C1B27957   5.470   4.038   4.413 -0.0045 -0.2130  0.2569
    1DIPC   D2B27958   5.275   4.389   4.536  0.1602 -0.1882  0.0331
    1DIPC   D3B27959   5.704   4.572   4.405 -0.0384 -0.1245 -0.0753
    1DIPC   C4B27960   5.801   5.000   4.520 -0.1786 -0.3188 -0.0114
    1DIPC   NC327961  17.568  12.470   2.245  0.1411  0.1611 -0.0859
    1DIPC   PO427962  17.467  12.799   2.493  0.0777 -0.1686 -0.1199
    1DIPC   GL127963  17.531  12.955   2.934  0.1741  0.3442 -0.3605
    1DIPC   GL227964  17.230  13.069   3.096 -0.1246 -0.0254 -0.1242
    1DIPC   C1A27965  17.785  12.995   3.284 -0.1665 -0.2518  0.1502
    1DIPC   D2A27966  17.870  13.223   3.608  0.0071 -0.0833 -0.3241
    1DIPC   D3A27967  18.331  13.280   3.574  0.3903 -0.2110  0.3096
    1DIPC   C4A27968  18.467  13.213   3.952 -0.1649  0.4491 -0.1176
    1DIPC   C1B27969  17.360  13.158   3.495  0.0799 -0.0301  0.0539
    1DIPC   D2B27970  17.461  13.264   3.928 -0.3119 -0.2146 -0.1479
    1DIPC   D3B27971  17.279  13.645   4.130 -0.4310 -0.0727  0.0204
    1DIPC   C4B27972  17.288  13.989   3.938  0.1934 -0.0248 -0.0551
    1DIPC   NC327973   8.228   4.077   3.802  0.1300 -0.2277  0.0602
    1DIPC   PO427974   7.880   4.286   3.578 -0.1840  0.0261  0.0940
    1DIPC   GL127975   7.663   4.383   3.992 -0.1529  0.0124 -0.2002
    1DIPC   GL227976   7.429   4.097   3.972  0.0221  0.1112  0.0032
    1DIPC   C1A27977   7.460   4.609   4.296 -0.2242  0.2079  0.0189
    1DIPC   D2A27978   7.509   5.096   4.371 -0.2339 -0.0598  0.0426
    1DIPC   D3A27979   7.152   4.941   4.579  0.0914  0.0136 -0.1606
    1DIPC   C4A27980   7.152   4.685   5.051 -0.1080  0.1956  0.2087
    1DIPC   C1B27981   7.530   3.909   4.394  0.2586  0.1641  0.1028
    1DIPC   D2B27982   7.556   3.785   4.854 -0.1520 -0.0296 -0.0763
    1DIPC   D3B27983   7.574   3.594   5.287  0.0842 -0.1354  0.2063
    1DIPC   C4B27984   7.597   3.176   5.275 -0.1160 -0.2055  0.0143
    1DIPC   NC327985  18.151  12.442   1.644 -0.0749 -0.0583  0.3029
    1DIPC   PO427986  18.066  12.566   2.119 -0.1290  0.2063  0.3192
    1DIPC   GL127987  17.929  12.679   2.541 -0.1496 -0.1076 -0.0449
    1DIPC   GL227988  17.745  12.525   2.738  0.0089 -0.1199  0.2224
    1DIPC   C1A27989  18.044  13.058   2.816 -0.1771  0.1023 -0.1545
    1DIPC   D2A27990  18.226  13.363   3.048  0.2344  0.0585  0.1830
    1DIPC   D3A27991  18.531  13.311   3.082  0.0586 -0.1201 -0.4970
    1DIPC   C4A27992  18.953  13.188   2.919  0.3937 -0.1972 -0.1434
    1DIPC   C1B27993  18.020  12.602   3.043  0.0413 -0.0329 -0.5029
    1DIPC   D2B27994  18.278  12.900   3.251  0.3563 -0.1045 -0.2201
    1DIPC   D3B27995  18.023  12.729   3.588  0.1320 -0.1075 -0.2115
    1DIPC   C4B27996  18.243  12.567   3.953  0.0461  0.0652  0.1615
    1DIPC   NC327997  13.746  21.492   2.866 -0.2966  0.0246 -0.0757
    1DIPC   PO427998  14.237  21.677   2.942  0.0932  0.1352 -0.1327
    1DIPC   GL127999  14.068  21.384   3.272  0.1366  0.1556 -0.1853
    1DIPC   GL228000  13.895  21.053   3.331  0.3794 -0.1148 -0.0898
    1DIPC   C1A28001  13.894  21.502   3.538  0.1752  0.3246  0.2219
    1DIPC   D2A28002  13.886  21.523   3.938  0.3793 -0.0395 -0.0318
    1DIPC   D3A28003  13.720  21.578   4.275  0.0281 -0.1408  0.3295
    1DIPC   C4A28004  13.447  22.036   4.361  0.2803 -0.1196 -0.1758
    1DIPC   C1B28005  13.948  21.032   3.752  0.0877 -0.1275  0.1830
    1DIPC   D2B28006  13.806  21.099   4.229  0.1344  0.3717 -0.2122
    1DIPC   D3B28007  14.108  21.298   4.352 -0.0120  0.0165  0.1076
    1DIPC   C4B28008  14.037  21.607   4.757 -0.2286 -0.0134 -0.0938
    1DIPC   NC328009  24.566   6.774   3.305 -0.0480  0.1491  0.1309
    1DIPC   PO428010  24.269   6.486   3.222 -0.4554 -0.0640 -0.0120
    1DIPC   GL128011  24.367   6.364   3.566  0.1245 -0.1724  0.0517
    1DIPC   GL228012  24.672   6.436   3.673  0.1436  0.0851 -0.1495
    1DIPC   C1A28013  24.245   6.177   3.938 -0.1159 -0.2694  0.1007
    1DIPC   D2A28014  23.973   5.973   4.294 -0.3701  0.0827  0.1300
    1DIPC   D3A28015  24.205   5.868   4.732  0.1165 -0.1944 -0.3096
    1DIPC   C4A28016  24.502   6.104   4.920  0.0686 -0.1653  0.0873
    1DIPC   C1B28017  24.625   6.441   4.096  0.0957  0.1255 -0.0774
    1DIPC   D2B28018  24.461   6.173   4.420 -0.2497  0.0715 -0.0624
    1DIPC   D3B28019  24.649   6.452   4.629 -0.2305  0.0057  0.3582
    1DIPC   C4B28020  25.016   6.343   4.808 -0.2175  0.0779  0.0990
    1DIPC   NC328021   6.071   7.428   3.350  0.2090  0.1193 -0.0570
    1DIPC   PO428022   6.432   7.491   3.586  0.5293 -0.1269 -0.2100
    1DIPC   GL128023   6.345   7.322   4.008  0.3248  0.3092 -0.1023
    1DIPC   GL228024   6.218   7.094   4.050  0.0763 -0.3799 -0.0904
    1DIPC   C1A28025   6.532   7.458   4.440 -0.1516  0.4338  0.3406
    1DIPC   D2A28026   6.464   7.401   4.948 -0.4414  0.0045 -0.1269
    1DIPC   D3A28027   6.797   7.474   5.048  0.2042  0.0083 -0.3690
    1DIPC   C4A28028   6.927   7.901   5.065 -0.1298  0.6167 -0.3084
    1DIPC   C1B28029   5.864   7.376   4.258  0.1134 -0.0088 -0.1537
    1DIPC   D2B28030   5.548   7.650   4.432 -0.2452 -0.1878  0.0270
    1DIPC   D3B28031   5.191   7.540   4.610  0.3361  0.0933  0.1603
    1DIPC   C4B28032   4.980   7.203   4.805  0.1615  0.2468 -0.1033
    1DIPC   NC328033  12.932  18.579   2.748  0.3788  0.1081 -0.0754
    1DIPC   PO428034  12.619  18.253   2.811 -0.1545 -0.1793  0.1311
    1DIPC   GL128035  12.376  18.292   3.205 -0.4421  0.1527  0.1733
    1DIPC   GL228036  12.428  18.074   3.466  0.1272  0.0102 -0.2545
    1DIPC   C1A28037  12.495  18.577   3.578 -0.2075 -0.3611  0.1817
    1DIPC   D2A28038  12.222  18.802   3.944 -0.1736  0.0764  0.2463
    1DIPC   D3A28039  11.972  18.656   4.246 -0.0175  0.1850 -0.2332
    1DIPC   C4A28040  11.968  18.160   4.395  0.0932 -0.4153 -0.0026
    1DIPC   C1B28041  12.443  18.007   3.873 -0.0928  0.0226  0.1120
    1DIPC   D2B28042  12.423  18.359   4.116 -0.0792 -0.1095 -0.0197
    1DIPC   D3B28043  12.482  18.061   4.385 -0.1508 -0.0995  0.2568
    1DIPC   C4B28044  12.513  18.089   4.943 -0.0173 -0.0085  0.0167
    1DIPC   NC328045  11.696   1.289   3.064  0.0797 -0.0302 -0.0029
    1DIPC   PO428046  11.762   1.304   3.624 -0.0331  0.1276  0.0836
    1DIPC   GL128047  11.793   1.141   3.978  0.0648 -0.0708  0.0796
    1DIPC   GL228048  11.520   1.013   3.933 -0.2665  0.0874  0.0749
    1DIPC   C1A28049  12.051   1.107   4.255  0.0968  0.2472  0.1669
    1DIPC   D2A28050  12.213   1.122   4.650 -0.3537  0.2558  0.0785
    1DIPC   D3A28051  12.447   1.436   4.935 -0.2589 -0.0375  0.1030
    1DIPC   C4A28052  12.720   1.292   5.189 -0.0279 -0.2889  0.0363
    1DIPC   C1B28053  11.720   0.729   4.353  0.2034 -0.2459  0.0301
    1DIPC   D2B28054  11.751   0.253   4.503 -0.1075 -0.4790  0.0951
    1DIPC   D3B28055  11.529  -0.036   4.550 -0.0053 -0.3556  0.0945
    1DIPC   C4B28056  11.256  -0.136   4.231 -0.0148  0.0145  0.0155
    1DIPC   NC328057  11.109  26.406   2.573 -0.0697 -0.1372 -0.1772
    1DIPC   PO428058  11.372  26.257   2.941  0.1682  0.2364  0.0290
    1DIPC   GL128059  11.550  26.189   3.351 -0.2986 -0.0067 -0.2998
    1DIPC   GL228060  11.393  26.157   3.661  0.0111  0.1997 -0.1257
    1DIPC   C1A28061  11.919  26.418   3.510 -0.1665 -0.1454 -0.2838
    1DIPC   D2A28062  12.248  26.714   3.481 -0.0279 -0.0540  0.0478
    1DIPC   D3A28063  12.544  26.366   3.573 -0.0993 -0.1618  0.0350
    1DIPC   C4A28064  12.952  26.027   3.385  0.1383  0.1084 -0.0808
    1DIPC   C1B28065  11.300  25.785   3.975 -0.2466 -0.1050 -0.0687
    1DIPC   D2B28066  11.599  25.569   4.246  0.2142  0.1647  0.0463
    1DIPC   D3B28067  11.949  25.584   4.090 -0.2356 -0.2674 -0.2239
    1DIPC   C4B28068  11.892  25.320   3.699  0.3897 -0.0154 -0.0513
    1DIPC   NC328069  15.889  22.308   2.217 -0.1687  0.3636  0.0504
    1DIPC   PO428070  15.873  22.189   2.657 -0.3102 -0.0231  0.4005
    1DIPC   GL128071  15.769  22.072   3.125  0.0300 -0.1003 -0.0604
    1DIPC   GL228072  15.558  22.190   3.418  0.1313  0.3198  0.1041
    1DIPC   C1A28073  16.024  22.398   3.416 -0.0251  0.1106 -0.0931
    1DIPC   D2A28074  15.965  22.826   3.440 -0.3712 -0.1014 -0.2011
    1DIPC   D3A28075  16.440  23.056   3.200 -0.0505 -0.0076 -0.0595
    1DIPC   C4A28076  16.509  23.526   3.122 -0.2130  0.1842 -0.1534
    1DIPC   C1B28077  15.264  22.027   3.633 -0.3917  0.0299  0.2120
    1DIPC   D2B28078  15.078  22.109   4.064 -0.0345  0.3494 -0.0412
    1DIPC   D3B28079  15.039  22.544   3.918  0.0519 -0.2051  0.3013
    1DIPC   C4B28080  15.017  22.780   4.313 -0.2177  0.0875 -0.0221
    1DIPC   NC328081   2.341  25.574   2.564  0.2606  0.2074  0.2740
    1DIPC   PO428082   2.554  25.324   2.822 -0.0202 -0.0340  0.1812
    1DIPC   GL128083   2.420  24.991   3.105  0.0363 -0.2364  0.1947
    1DIPC   GL228084   2.232  24.713   3.072 -0.2466 -0.0918 -0.0779
    1DIPC   C1A28085   2.514  24.945   3.570 -0.0818 -0.2029  0.0008
    1DIPC   D2A28086   2.540  25.165   3.867 -0.1937  0.0305 -0.1768
    1DIPC   D3A28087   2.891  25.352   3.787  0.2586 -0.4974 -0.2399
    1DIPC   C4A28088   3.085  25.240   4.199 -0.3709 -0.2845 -0.2469
    1DIPC   C1B28089   2.138  24.531   3.460  0.2719  0.1141 -0.0325
    1DIPC   D2B28090   1.801  24.341   3.684 -0.2306 -0.0646  0.3810
    1DIPC   D3B28091   1.965  24.400   4.049  0.0156 -0.3415 -0.0235
    1DIPC   C4B28092   1.796  24.374   4.444  0.1302  0.0532 -0.1078
    1DIPC   NC328093  12.381   8.090   3.073 -0.0251 -0.0884  0.1990
    1DIPC   PO428094  12.092   8.436   3.138 -0.1099  0.0232 -0.2058
    1DIPC   GL128095  12.257   8.341   3.527 -0.1813 -0.0992 -0.0483
    1DIPC   GL228096  12.457   8.530   3.688 -0.0406  0.0330 -0.0929
    1DIPC   C1A28097  12.034   8.048   3.806  0.2835  0.0292  0.0025
    1DIPC   D2A28098  11.891   7.811   4.146  0.2107 -0.0150 -0.0556
    1DIPC   D3A28099  11.909   7.846   4.655  0.1802  0.1743 -0.0535
    1DIPC   C4A28100  11.726   7.755   4.961 -0.1712 -0.0353 -0.1809
    1DIPC   C1B28101  12.662   8.124   3.889  0.0873 -0.1123  0.3744
    1DIPC   D2B28102  12.901   7.786   3.886 -0.1020 -0.0291  0.2720
    1DIPC   D3B28103  12.936   7.579   4.321  0.0710 -0.1545  0.3677
    1DIPC   C4B28104  12.604   7.210   4.298 -0.2713  0.1067 -0.0860
    1DIPC   NC328105  27.653   0.891   2.550 -0.1449  0.0529  0.2376
    1DIPC   PO428106  27.772   0.903   3.023  0.3040  0.1759 -0.0679
    1DIPC   GL128107  27.973   1.002   3.479  0.1688  0.1186 -0.0645
    1DIPC   GL228108  28.277   1.014   3.579 -0.0747 -0.2115 -0.3012
    1DIPC   C1A28109  27.799   0.962   3.933 -0.0070  0.0291 -0.3534
    1DIPC   D2A28110  27.603   0.952   4.434  0.0097  0.1720 -0.0796
    1DIPC   D3A28111  27.598   1.454   4.651 -0.0632 -0.1968  0.0654
    1DIPC   C4A28112  27.968   1.435   4.819  0.1332  0.2260 -0.0438
    1DIPC   C1B28113  28.245   1.254   3.972 -0.2532  0.2424 -0.0595
    1DIPC   D2B28114  28.068   1.227   4.333  0.1377 -0.0467  0.2810
    1DIPC   D3B28115  27.792   1.468   4.175  0.2729  0.1931  0.1443
    1DIPC   C4B28116  27.772   1.886   4.259  0.0425 -0.2276 -0.0354
    1DIPC   NC328117  17.811   8.739   3.313  0.0014 -0.0368 -0.1359
    1DIPC   PO428118  18.052   9.027   3.247  0.1229 -0.3363 -0.0468
    1DIPC   GL128119  18.295   9.033   3.634  0.0225  0.1315  0.4256
    1DIPC   GL228120  18.555   9.328   3.586  0.2193 -0.0659  0.0688
    1DIPC   C1A28121  18.300   9.123   4.059  0.1410  0.0955 -0.0708
    1DIPC   D2A28122  18.384   9.175   4.516  0.1186  0.1964  0.1894
    1DIPC   D3A28123  18.684   9.520   4.578  0.0623  0.1890  0.2306
    1DIPC   C4A28124  18.807   9.696   4.865  0.2629 -0.0385 -0.1375
    1DIPC   C1B28125  18.622   9.474   4.003 -0.1240 -0.1384 -0.0717
    1DIPC   D2B28126  18.635   9.888   4.266 -0.0027 -0.0722 -0.1551
    1DIPC   D3B28127  18.476  10.035   4.680 -0.2622 -0.1214 -0.2014
    1DIPC   C4B28128  18.251   9.689   4.795 -0.0462 -0.1496 -0.0086
    1DIPC   NC328129   8.991  26.646   3.513  0.1044 -0.2696 -0.0464
    1DIPC   PO428130   9.068  27.062   3.564 -0.0296  0.0676 -0.2898
    1DIPC   GL128131   9.199  26.843   3.931 -0.2347 -0.0417 -0.1525
    1DIPC   GL228132   8.992  26.737   4.072  0.1523 -0.2997 -0.1734
    1DIPC   C1A28133   9.422  26.567   4.339  0.3510  0.0861  0.0881
    1DIPC   D2A28134   9.581  26.267   4.612 -0.3322  0.0600  0.1203
    1DIPC   D3A28135   9.492  26.336   5.050 -0.2742  0.0189  0.0166
    1DIPC   C4A28136   9.826  26.478   5.117 -0.0478  0.2121 -0.3513
    1DIPC   C1B28137   8.923  26.651   4.541 -0.1426  0.1512  0.1125
    1DIPC   D2B28138   9.088  26.335   4.777 -0.0699 -0.1618  0.0367
    1DIPC   D3B28139   8.825  26.387   5.105 -0.2361  0.2268  0.0856
    1DIPC   C4B28140   8.457  26.552   4.931  0.2696  0.0640  0.0457
    1DIPC   NC328141  14.770   6.486   3.044  0.1246  0.0122  0.0703
    1DIPC   PO428142  15.087   6.655   3.354  0.1097 -0.1139  0.1290
    1DIPC   GL128143  14.998   6.614   3.789 -0.0740 -0.0567  0.1287
    1DIPC   GL228144  15.342   6.744   3.883 -0.1999  0.2461 -0.2508
    1DIPC   C1A28145  15.024   6.461   4.186  0.2134 -0.1019  0.0130
    1DIPC   D2A28146  14.956   6.263   4.573  0.0883 -0.3037  0.2340
    1DIPC   D3A28147  14.574   6.349   4.397 -0.1652  0.0281 -0.1013
    1DIPC   C4A28148  14.228   6.138   4.631 -0.2616  0.0374  0.0414
    1DIPC   C1B28149  15.177   6.932   4.263  0.3934 -0.0981 -0.2187
    1DIPC   D2B28150  14.873   6.813   4.631 -0.1133 -0.0119  0.3121
    1DIPC   D3B28151  15.201   6.981   4.760  0.0104  0.1651  0.0626
    1DIPC   C4B28152  15.370   7.022   5.076 -0.1391 -0.1925  0.0607
    1DIPC   NC328153  25.087   7.002   2.711  0.2241 -0.2931  0.3842
    1DIPC   PO428154  25.469   6.793   2.914  0.2290  0.0783 -0.0254
    1DIPC   GL128155  25.567   6.847   3.369  0.0006  0.1080  0.0482
    1DIPC   GL228156  25.535   6.574   3.605 -0.0004 -0.0188  0.0104
    1DIPC   C1A28157  25.496   7.052   3.754  0.1757  0.0124 -0.2646
    1DIPC   D2A28158  25.253   7.087   4.103  0.3797 -0.0273  0.1112
    1DIPC   D3A28159  25.627   6.816   4.178  0.1650  0.0899 -0.2153
    1DIPC   C4A28160  25.335   6.461   4.380 -0.1946  0.0374 -0.2238
    1DIPC   C1B28161  25.561   6.178   3.972 -0.0497 -0.1448 -0.2181
    1DIPC   D2B28162  25.734   5.967   4.349 -0.5565 -0.1158  0.1132
    1DIPC   D3B28163  25.757   6.351   4.621  0.3372  0.0097 -0.0820
    1DIPC   C4B28164  26.135   6.579   4.559  0.0818  0.1200 -0.0983
    1DIPC   NC328165  17.874  10.106   2.206  0.0285  0.2299  0.1222
    1DIPC   PO428166  18.235  10.288   2.454 -0.1623 -0.0784  0.1339
    1DIPC   GL128167  18.261  10.377   2.916  0.1458  0.0627 -0.2028
    1DIPC   GL228168  18.037  10.548   2.991  0.0080  0.2979 -0.2573
    1DIPC   C1A28169  18.524  10.582   3.245 -0.0269 -0.0304  0.3229
    1DIPC   D2A28170  18.384  10.925   3.572  0.1492  0.2739  0.1033
    1DIPC   D3A28171  18.006  10.982   3.542 -0.1849 -0.4348 -0.1799
    1DIPC   C4A28172  17.953  10.987   3.973 -0.0200  0.1245 -0.0856
    1DIPC   C1B28173  18.046  10.509   3.384 -0.0203  0.2001 -0.2450
    1DIPC   D2B28174  17.844  10.497   3.785  0.0793  0.3432  0.4514
    1DIPC   D3B28175  17.943  10.653   4.324 -0.1540 -0.1395 -0.3051
    1DIPC   C4B28176  18.132  10.973   4.519 -0.0099  0.2947 -0.1576
    1DIPC   NC328177   0.351  23.237   2.732 -0.3765  0.3296 -0.5448
    1DIPC   PO428178   0.047  23.515   2.853 -0.0346  0.2403  0.1652
    1DIPC   GL128179   0.191  23.783   3.104  0.1797  0.2524 -0.2385
    1DIPC   GL228180  -0.170  23.931   3.195  0.2619 -0.1784  0.0479
    1DIPC   C1A28181   0.450  23.791   3.452  0.1020  0.1082 -0.3939
    1DIPC   D2A28182   0.436  23.805   3.840  0.4649  0.0054 -0.1348
    1DIPC   D3A28183   0.497  24.109   4.207 -0.0100  0.1606 -0.2143
    1DIPC   C4A28184   0.247  24.507   4.352 -0.0497 -0.0361 -0.0874
    1DIPC   C1B28185  -0.313  23.921   3.517 -0.1654 -0.1678  0.1961
    1DIPC   D2B28186  -0.276  23.865   3.944  0.2231 -0.2106 -0.0615
    1DIPC   D3B28187  -0.013  24.168   4.121  0.1732 -0.1167  0.1272
    1DIPC   C4B28188   0.071  23.997   4.517  0.0554  0.1733  0.0579
    1DIPC   NC328189  21.406   8.907   2.898 -0.1422  0.0778  0.1157
    1DIPC   PO428190  21.466   8.597   3.165  0.1948 -0.2432  0.1068
    1DIPC   GL128191  21.284   8.795   3.603 -0.1577 -0.4033 -0.1212
    1DIPC   GL228192  21.405   8.997   3.443 -0.0033  0.4355  0.0736
    1DIPC   C1A28193  21.350   8.754   3.927  0.1938 -0.2822 -0.1422
    1DIPC   D2A28194  21.165   9.008   4.379 -0.2985  0.0230  0.2858
    1DIPC   D3A28195  21.610   8.748   4.489  0.3241  0.1567  0.3550
    1DIPC   C4A28196  21.908   8.979   4.588  0.2442 -0.0638  0.3164
    1DIPC   C1B28197  21.362   9.271   3.769 -0.1902  0.1657  0.2040
    1DIPC   D2B28198  21.742   9.530   3.876  0.0221  0.0452 -0.0915
    1DIPC   D3B28199  22.172   9.626   3.971 -0.1084 -0.1618  0.2613
    1DIPC   C4B28200  22.243   9.934   4.229 -0.0965 -0.0972 -0.0374
    1DIPC   NC328201  24.700  23.436   2.246 -0.1126  0.1577 -0.1125
    1DIPC   PO428202  24.616  23.570   2.649  0.1476  0.1966  0.1042
    1DIPC   GL128203  24.355  23.091   2.863 -0.1675 -0.0086  0.4387
    1DIPC   GL228204  24.567  22.954   3.054 -0.0200  0.2056 -0.0792
    1DIPC   C1A28205  24.171  22.750   3.225 -0.1795  0.1390  0.2300
    1DIPC   D2A28206  23.884  22.782   3.573 -0.1636 -0.1298  0.3235
    1DIPC   D3A28207  23.475  22.809   3.659 -0.1082 -0.1358 -0.0367
    1DIPC   C4A28208  23.185  22.499   3.554  0.0372  0.2878 -0.2653
    1DIPC   C1B28209  24.593  22.591   3.341 -0.1182  0.1225 -0.0213
    1DIPC   D2B28210  24.211  22.415   3.524  0.0312 -0.1228 -0.1218
    1DIPC   D3B28211  24.448  22.138   3.420  0.1927  0.1163  0.1531
    1DIPC   C4B28212  24.517  22.181   3.024  0.0823  0.2370  0.2483
    1DIPC   NC328213  18.135  21.155   2.875 -0.2799  0.3930  0.1145
    1DIPC   PO428214  17.916  21.509   2.961  0.1836 -0.0412 -0.0983
    1DIPC   GL128215  17.869  21.247   3.369 -0.0842  0.0101  0.0094
    1DIPC   GL228216  18.044  21.202   3.363 -0.2568 -0.2269  0.2033
    1DIPC   C1A28217  17.771  20.911   3.618  0.0358  0.2306 -0.2493
    1DIPC   D2A28218  17.456  20.716   3.756  0.0271 -0.0696  0.1152
    1DIPC   D3A28219  17.664  20.868   4.179 -0.1085  0.1356  0.0660
    1DIPC   C4A28220  17.792  21.206   4.449 -0.0440 -0.0840  0.3344
    1DIPC   C1B28221  17.983  21.380   3.800 -0.3764  0.0114  0.2516
    1DIPC   D2B28222  18.141  21.514   4.152  0.0090  0.1949  0.0536
    1DIPC   D3B28223  18.444  21.563   4.372 -0.1015 -0.0465  0.1722
    1DIPC   C4B28224  18.348  21.864   4.627  0.0653 -0.0325 -0.1894
    1DIPC   NC328225  25.608  23.686   1.829 -0.0632 -0.2070  0.3385
    1DIPC   PO428226  25.675  23.621   2.227 -0.1679 -0.1293  0.0621
    1DIPC   GL128227  25.558  23.713   2.695 -0.0007  0.2727 -0.3306
    1DIPC   GL228228  25.250  23.903   2.849 -0.2493  0.2984  0.2430
    1DIPC   C1A28229  25.639  23.560   3.092 -0.1761 -0.0685 -0.0026
    1DIPC   D2A28230  25.657  23.629   3.470  0.1116 -0.2973 -0.1148
    1DIPC   D3A28231  25.663  23.389   3.856  0.0603 -0.1176  0.1776
    1DIPC   C4A28232  26.000  23.025   3.978  0.1136 -0.1105  0.0812
    1DIPC   C1B28233  25.315  24.019   3.262  0.1094 -0.0903  0.2305
    1DIPC   D2B28234  25.042  24.153   3.665 -0.1128  0.0661  0.1377
    1DIPC   D3B28235  24.793  23.928   3.971  0.1916 -0.3936 -0.2191
    1DIPC   C4B28236  24.809  24.001   4.375  0.1252  0.0681  0.0679
    1DIPC   NC328237  25.849   4.452   2.875 -0.0158  0.1358  0.1578
    1DIPC   PO428238  26.044   4.679   3.012  0.0319 -0.2179  0.2746
    1DIPC   GL128239  26.029   4.939   3.419  0.4117  0.1720 -0.2723
    1DIPC   GL228240  25.725   5.068   3.584 -0.3461  0.1836 -0.0425
    1DIPC   C1A28241  26.071   4.821   3.842 -0.0196  0.2143  0.2454
    1DIPC   D2A28242  26.062   4.792   4.216  0.2083 -0.0011 -0.2515
    1DIPC   D3A28243  26.134   4.501   4.524 -0.0008 -0.0867  0.0357
    1DIPC   C4A28244  26.448   4.350   4.664 -0.2644 -0.0215 -0.0722
    1DIPC   C1B28245  25.709   5.316   3.967 -0.1607  0.1446 -0.0706
    1DIPC   D2B28246  25.941   5.227   4.330 -0.0868 -0.0780 -0.3087
    1DIPC   D3B28247  25.845   5.512   4.653 -0.1380 -0.2790  0.1995
    1DIPC   C4B28248  25.489   5.660   4.918  0.0148  0.1527 -0.0008
    1DIPC   NC328249  24.215  21.107   2.235  0.3161 -0.0216  0.3591
    1DIPC   PO428250  24.282  21.507   2.335  0.0374  0.2532 -0.2101
    1DIPC   GL128251  24.401  21.254   2.660  0.0776 -0.1782 -0.2884
    1DIPC   GL228252  24.118  21.239   3.013  0.0735  0.1481  0.0332
    1DIPC   C1A28253  24.546  20.833   2.754  0.3203  0.4076  0.2186
    1DIPC   D2A28254  24.588  20.365   2.785  0.1573 -0.0352 -0.0747
    1DIPC   D3A28255  24.654  20.559   3.244 -0.0313  0.0029  0.3534
    1DIPC   C4A28256  24.858  20.926   3.230  0.0220 -0.0285  0.2702
    1DIPC   C1B28257  24.225  20.894   3.198 -0.1987 -0.3332 -0.2935
    1DIPC   D2B28258  24.277  20.582   3.565 -0.2607  0.1419 -0.0836
    1DIPC   D3B28259  24.141  20.131   3.645 -0.3343 -0.1175  0.3153
    1DIPC   C4B28260  24.041  19.776   3.416  0.1537  0.0790  0.1044
    1DIPC   NC328261  15.460   3.593   2.374  0.0716  0.0798 -0.1058
    1DIPC   PO428262  15.549   3.403   2.740 -0.0347  0.0595  0.0933
    1DIPC   GL128263  15.663   3.364   3.211 -0.2270 -0.0274 -0.1002
    1DIPC   GL228264  15.482   3.623   3.466  0.2162 -0.0145 -0.1185
    1DIPC   C1A28265  15.862   3.388   3.633 -0.0507 -0.0101  0.2023
    1DIPC   D2A28266  15.811   3.269   4.072 -0.0883 -0.0018 -0.0902
    1DIPC   D3A28267  15.771   3.696   3.958 -0.2165 -0.0532  0.0348
    1DIPC   C4A28268  15.709   3.652   4.379 -0.1440  0.0911 -0.0349
    1DIPC   C1B28269  15.131   3.600   3.882 -0.2131  0.3013 -0.0784
    1DIPC   D2B28270  14.772   3.322   4.100  0.2256 -0.0932  0.1167
    1DIPC   D3B28271  14.477   3.205   4.498 -0.0417 -0.0230 -0.0229
    1DIPC   C4B28272  14.021   3.173   4.368  0.1504  0.0339  0.1594
    1DIPC   NC328273   6.031  25.683   2.256 -0.1602  0.1231  0.0960
    1DIPC   PO428274   6.107  25.511   2.632 -0.0954  0.2396 -0.1410
    1DIPC   GL128275   6.427  25.218   2.788 -0.0238  0.0762 -0.0970
    1DIPC   GL228276   6.402  24.952   2.960 -0.2169  0.1621 -0.0374
    1DIPC   C1A28277   6.798  25.204   3.208  0.1805  0.1950  0.2602
    1DIPC   D2A28278   7.095  25.318   3.631 -0.3428 -0.0682 -0.0932
    1DIPC   D3A28279   6.829  24.953   3.651  0.1084  0.1841  0.0117
    1DIPC   C4A28280   6.698  24.959   4.161  0.2484  0.0707  0.2552
    1DIPC   C1B28281   6.513  24.653   3.354  0.0084 -0.0563  0.1667
    1DIPC   D2B28282   6.958  24.454   3.447 -0.0247  0.0630  0.0668
    1DIPC   D3B28283   7.331  24.530   3.762 -0.0650 -0.1305  0.2354
    1DIPC   C4B28284   7.178  24.874   3.947  0.0670  0.0418 -0.2576
    1DIPC   NC328285  12.636  24.516   2.236  0.0252  0.0979  0.1953
    1DIPC   PO428286  12.490  24.288   2.609  0.2344  0.2062  0.0717
    1DIPC   GL128287  12.342  24.352   2.982  0.2798 -0.0630  0.0614
    1DIPC   GL228288  12.008  24.129   2.990  0.0176  0.3028 -0.4664
    1DIPC   C1A28289  12.256  24.752   3.235 -0.2324  0.1611  0.0017
    1DIPC   D2A28290  12.657  24.904   3.625  0.1626 -0.1190 -0.0981
    1DIPC   D3A28291  12.895  24.608   3.857  0.0887 -0.3498 -0.4234
    1DIPC   C4A28292  12.745  24.330   4.190  0.1504  0.3038 -0.3465
    1DIPC   C1B28293  12.213  23.908   3.283 -0.3151 -0.1475  0.1024
    1DIPC   D2B28294  12.345  23.654   3.597  0.1176 -0.1223 -0.1242
    1DIPC   D3B28295  12.203  24.007   3.806  0.1339  0.0346 -0.3558
    1DIPC   C4B28296  11.806  24.302   4.029  0.1600  0.1340  0.2815
    1DIPC   NC328297  19.985  22.721   2.834  0.2076 -0.0783  0.1087
    1DIPC   PO428298  19.894  23.161   2.837 -0.0983 -0.0604 -0.2298
    1DIPC   GL128299  20.002  23.011   3.242  0.1179 -0.3459 -0.0809
    1DIPC   GL228300  20.314  22.961   3.151 -0.2525  0.0244 -0.1928
    1DIPC   C1A28301  20.096  22.968   3.691 -0.0055  0.1745 -0.2428
    1DIPC   D2A28302  20.206  23.069   4.022  0.6804  0.3890  0.1092
    1DIPC   D3A28303  20.699  23.038   4.068 -0.3831  0.0363 -0.1044
    1DIPC   C4A28304  20.909  22.884   4.320 -0.0052 -0.0016  0.2605
    1DIPC   C1B28305  20.388  23.273   3.306 -0.0555 -0.2032  0.3527
    1DIPC   D2B28306  20.594  23.341   3.640  0.2818  0.2001  0.1721
    1DIPC   D3B28307  20.758  23.792   3.562  0.0359 -0.1435 -0.1286
    1DIPC   C4B28308  21.047  23.939   4.035  0.0778  0.0826  0.0863
    1DIPC   NC328309  12.231  16.472   2.459 -0.1728 -0.2007  0.0932
    1DIPC   PO428310  12.278  16.407   2.903  0.1559  0.1143 -0.0023
    1DIPC   GL128311  12.171  16.708   3.294 -0.0909 -0.0832 -0.3421
    1DIPC   GL228312  12.334  16.980   3.206 -0.1907  0.0861  0.0873
    1DIPC   C1A28313  12.247  16.604   3.728 -0.1488 -0.1384 -0.3648
    1DIPC   D2A28314  12.395  16.716   4.132  0.1537  0.6741 -0.0594
    1DIPC   D3A28315  12.115  16.556   4.444 -0.0061  0.0010 -0.1869
    1DIPC   C4A28316  11.827  16.282   4.586 -0.1595 -0.1566  0.1120
    1DIPC   C1B28317  12.404  17.125   3.623 -0.2346  0.1162  0.1556
    1DIPC   D2B28318  12.693  17.066   3.999  0.1023 -0.2115  0.3399
    1DIPC   D3B28319  12.890  16.819   4.195  0.0501 -0.2117 -0.0953
    1DIPC   C4B28320  12.648  16.526   4.562  0.0519 -0.0675  0.3184
    1DIPC   NC328321  28.516  20.672   1.856 -0.2332 -0.0968  0.0831
    1DIPC   PO428322  28.505  20.936   2.100  0.0161 -0.1234  0.3314
    1DIPC   GL128323  28.416  21.183   2.539 -0.2112 -0.3683  0.1488
    1DIPC   GL228324  28.710  21.302   2.626 -0.1284 -0.0011 -0.0101
    1DIPC   C1A28325  28.036  21.350   2.738  0.2831 -0.1676 -0.1145
    1DIPC   D2A28326  27.956  21.414   3.222 -0.1409  0.1381  0.0480
    1DIPC   D3A28327  27.760  21.741   3.436  0.1370  0.0409 -0.1288
    1DIPC   C4A28328  27.796  22.125   3.513 -0.2126  0.1310  0.1428
    1DIPC   C1B28329  28.546  21.247   3.045  0.2478 -0.3098  0.0348
    1DIPC   D2B28330  28.347  21.160   3.447 -0.1438 -0.1416 -0.1033
    1DIPC   D3B28331  28.376  20.705   3.367 -0.0850 -0.0220  0.0836
    1DIPC   C4B28332  28.605  20.406   3.569 -0.3082  0.2639  0.0833
    1DIPC   NC328333  11.551  22.254   2.254 -0.0880  0.2749 -0.0821
    1DIPC   PO428334  11.813  22.637   2.343  0.1771  0.0557  0.0760
    1DIPC   GL128335  11.821  22.829   2.814  0.0830  0.0712  0.2892
    1DIPC   GL228336  12.041  23.128   2.779  0.2446 -0.1472 -0.0344
    1DIPC   C1A28337  11.819  23.095   3.198  0.1336  0.1402 -0.2083
    1DIPC   D2A28338  11.958  23.014   3.640 -0.2833  0.2658  0.0514
    1DIPC   D3A28339  11.897  23.240   4.072  0.4612  0.0380 -0.0686
    1DIPC   C4A28340  12.225  23.685   4.176  0.2251 -0.1682  0.0539
    1DIPC   C1B28341  12.352  22.953   2.931 -0.1290 -0.2712 -0.0358
    1DIPC   D2B28342  12.113  22.559   3.120  0.0253 -0.0462 -0.3425
    1DIPC   D3B28343  12.349  22.858   3.410 -0.0746 -0.1843  0.0077
    1DIPC   C4B28344  12.264  23.318   3.284  0.0731  0.2257 -0.1684
    1DIPC   NC328345   1.748   4.449   2.718 -0.3222  0.0069 -0.1676
    1DIPC   PO428346   1.604   4.866   2.955 -0.0259  0.2726 -0.0197
    1DIPC   GL128347   1.825   4.859   3.333 -0.0143 -0.2199 -0.0498
    1DIPC   GL228348   2.239   4.904   3.409  0.1143  0.1211  0.2155
    1DIPC   C1A28349   1.940   4.506   3.592 -0.0871 -0.0245  0.1032
    1DIPC   D2A28350   1.926   4.210   3.949 -0.0039 -0.1013 -0.3054
    1DIPC   D3A28351   1.533   4.482   4.118 -0.0245  0.0479 -0.1372
    1DIPC   C4A28352   1.588   4.608   4.555  0.0841  0.3145 -0.2448
    1DIPC   C1B28353   1.940   5.203   3.648 -0.1338  0.0404 -0.0967
    1DIPC   D2B28354   1.536   5.332   3.788  0.0524 -0.2086 -0.3297
    1DIPC   D3B28355   1.428   5.128   4.152  0.2215 -0.1626 -0.2238
    1DIPC   C4B28356   0.984   5.217   4.249  0.0673  0.0761  0.2027
    1DIPC   NC328357  20.972   0.860   3.636  0.2301 -0.1078 -0.1987
    1DIPC   PO428358  20.917   1.237   3.492 -0.0821  0.1663 -0.0373
    1DIPC   GL128359  20.939   1.378   3.958 -0.3147  0.1719 -0.0949
    1DIPC   GL228360  20.976   1.144   4.141  0.2213  0.0983  0.2781
    1DIPC   C1A28361  21.184   1.588   4.269 -0.2352  0.2676 -0.2214
    1DIPC   D2A28362  21.492   1.341   4.556  0.1921 -0.2352  0.1631
    1DIPC   D3A28363  21.474   1.194   5.066  0.0324  0.1350 -0.1892
    1DIPC   C4A28364  21.544   1.586   5.189  0.1644 -0.1487 -0.1985
    1DIPC   C1B28365  20.883   1.283   4.570 -0.3197  0.3095  0.2317
    1DIPC   D2B28366  21.064   1.397   4.955  0.1728  0.0093 -0.2202
    1DIPC   D3B28367  21.305   1.751   4.810 -0.0643 -0.2132  0.3864
    1DIPC   C4B28368  21.352   2.090   5.109 -0.0746 -0.3768  0.0962
    1DIPC   NC328369  28.208  28.052   3.464  0.1714  0.0272  0.2124
    1DIPC   PO428370  27.762  27.983   3.256 -0.1996  0.0585 -0.3367
    1DIPC   GL128371  27.756  28.017   3.703  0.1679 -0.1160 -0.1366
    1DIPC   GL228372  27.887  28.264   3.899 -0.3197 -0.0011  0.2392
    1DIPC   C1A28373  27.670  27.810   4.118  0.1616  0.2215  0.1236
    1DIPC   D2A28374  27.850  27.825   4.489  0.2848  0.0287  0.1337
    1DIPC   D3A28375  28.276  27.915   4.658  0.3306 -0.1525 -0.3179
    1DIPC   C4A28376  28.627  27.860   4.499  0.1503  0.2068  0.2297
    1DIPC   C1B28377  28.067  28.396   4.312 -0.0465  0.0986  0.1588
    1DIPC   D2B28378  28.514  28.585   4.490 -0.1147  0.2592  0.1096
    1DIPC   D3B28379  28.388  28.453   4.809  0.1192 -0.2538 -0.1803
    1DIPC   C4B28380  27.992  28.544   4.851  0.0284 -0.1605 -0.1594
    1DIPC   NC328381  29.636   4.748   2.968  0.0218  0.1962 -0.3607
    1DIPC   PO428382  29.995   4.586   3.272  0.0397 -0.2956 -0.1611
    1DIPC   GL128383  29.925   4.520   3.728 -0.1803 -0.0139  0.0781
    1DIPC   GL228384  30.273   4.479   3.959  0.0150  0.1474  0.0104
    1DIPC   C1A28385  29.545   4.549   3.935 -0.2543  0.2714 -0.2543
    1DIPC   D2A28386  29.173   4.791   3.957  0.0593  0.0201  0.0435
    1DIPC   D3A28387  28.903   4.782   4.412  0.1676  0.1037 -0.1944
    1DIPC   C4A28388  28.704   4.361   4.493 -0.2849  0.2753 -0.0723
    1DIPC   C1B28389  29.974   4.667   4.244 -0.0914 -0.0181 -0.2904
    1DIPC   D2B28390  29.527   4.741   4.393 -0.2534  0.1159  0.1986
    1DIPC   D3B28391  29.276   4.536   4.673  0.2265 -0.1991 -0.3030
    1DIPC   C4B28392  29.427   4.714   5.131 -0.0779  0.2238  0.2414
    1DIPC   NC328393  22.714  19.934   2.304 -0.1416  0.5290  0.1293
    1DIPC   PO428394  23.017  20.181   2.170 -0.1731  0.2733  0.0414
    1DIPC   GL128395  23.324  20.252   2.540  0.1136 -0.0363 -0.0550
    1DIPC   GL228396  23.232  20.580   2.671 -0.1080  0.0878  0.0584
    1DIPC   C1A28397  23.359  20.170   2.933 -0.3451 -0.0281 -0.0822
    1DIPC   D2A28398  23.302  20.240   3.391  0.0254  0.3997 -0.3954
    1DIPC   D3A28399  23.588  20.046   3.615  0.0641 -0.1016  0.0919
    1DIPC   C4A28400  23.613  19.590   3.706  0.0583 -0.0440  0.3777
    1DIPC   C1B28401  23.364  20.672   3.075 -0.2475  0.3774 -0.1432
    1DIPC   D2B28402  23.720  20.500   3.428  0.0635  0.0155 -0.0868
    1DIPC   D3B28403  23.327  20.685   3.589 -0.3450 -0.3171  0.1200
    1DIPC   C4B28404  23.140  20.305   3.858 -0.1772 -0.0688  0.1166
    1DIPC   NC328405  19.463  24.847   2.545 -0.2283 -0.0945 -0.3117
    1DIPC   PO428406  19.474  25.307   2.852 -0.1482 -0.2750  0.3290
    1DIPC   GL128407  19.427  25.110   3.272  0.0211  0.1049 -0.2834
    1DIPC   GL228408  19.356  24.734   3.307  0.2943 -0.2403 -0.4229
    1DIPC   C1A28409  19.716  25.307   3.625  0.3399 -0.1005 -0.0269
    1DIPC   D2A28410  19.861  25.476   4.064 -0.0496 -0.1492  0.0320
    1DIPC   D3A28411  20.301  25.448   4.062  0.0507  0.0366  0.1194
    1DIPC   C4A28412  20.745  25.608   4.139 -0.2499  0.1754 -0.2299
    1DIPC   C1B28413  19.504  24.826   3.756 -0.0393 -0.1355  0.0159
    1DIPC   D2B28414  19.878  24.995   3.903  0.0987 -0.0353 -0.1547
    1DIPC   D3B28415  19.610  24.927   4.215  0.0199  0.1104 -0.1152
    1DIPC   C4B28416  19.555  24.607   4.691 -0.0633 -0.1123 -0.1020
    1DIPC   NC328417   1.198   5.115   2.846 -0.1171  0.2518  0.1446
    1DIPC   PO428418   0.794   4.950   2.842 -0.3052 -0.1934  0.0465
    1DIPC   GL128419   0.964   5.025   3.271 -0.0269 -0.2018  0.0379
    1DIPC   GL228420   1.272   4.843   3.378  0.0497 -0.4441 -0.0147
    1DIPC   C1A28421   0.992   5.173   3.704  0.0796 -0.2314 -0.1526
    1DIPC   D2A28422   0.942   5.580   3.901  0.0290  0.1010 -0.0060
    1DIPC   D3A28423   0.548   5.524   4.072  0.0385 -0.3753  0.0087
    1DIPC   C4A28424   0.544   5.356   4.468  0.1357  0.0224 -0.1805
    1DIPC   C1B28425   1.497   4.839   3.734  0.1897 -0.0043 -0.1559
    1DIPC   D2B28426   1.947   4.824   3.943  0.0522  0.4047 -0.1502
    1DIPC   D3B28427   1.949   4.887   4.316  0.0336  0.1244 -0.3013
    1DIPC   C4B28428   2.243   4.955   4.813  0.2348 -0.0750  0.0687
    1DIPC   NC328429  25.001  24.437   2.387 -0.2126 -0.2092  0.2775
    1DIPC   PO428430  24.579  24.423   2.431 -0.3423 -0.0494  0.2163
    1DIPC   GL128431  24.777  24.203   2.824 -0.3091  0.1158  0.2566
    1DIPC   GL228432  25.040  24.328   2.977  0.3607  0.3625  0.0049
    1DIPC   C1A28433  24.740  23.981   3.199  0.0765 -0.0873  0.1223
    1DIPC   D2A28434  24.556  23.741   3.575  0.0677 -0.1405  0.1009
    1DIPC   D3A28435  24.675  23.462   3.645 -0.1955 -0.0609 -0.0241
    1DIPC   C4A28436  24.674  23.191   4.011 -0.2228  0.0592  0.2232
    1DIPC   C1B28437  24.610  24.530   3.257 -0.0592  0.2411 -0.0746
    1DIPC   D2B28438  24.375  24.764   3.552 -0.0020  0.0544  0.1467
    1DIPC   D3B28439  24.471  24.622   3.927  0.0852  0.0348  0.0705
    1DIPC   C4B28440  24.350  24.178   4.122  0.0618  0.1140  0.0062
    1DIPC   NC328441   5.020   1.379   2.442 -0.0512 -0.2537  0.2631
    1DIPC   PO428442   4.956   1.200   2.939 -0.0642 -0.0391 -0.3057
    1DIPC   GL128443   5.000   1.127   3.382 -0.1379  0.1830 -0.0525
    1DIPC   GL228444   4.713   1.317   3.453  0.3341 -0.0545  0.0836
    1DIPC   C1A28445   5.129   1.489   3.773  0.2582 -0.1251  0.0859
    1DIPC   D2A28446   4.995   1.464   4.215  0.0793  0.2371 -0.0997
    1DIPC   D3A28447   5.055   1.150   4.497  0.1015 -0.0198  0.0237
    1DIPC   C4A28448   5.437   0.795   4.526 -0.0842 -0.0109 -0.0691
    1DIPC   C1B28449   4.633   1.454   3.848  0.0050  0.3075 -0.0113
    1DIPC   D2B28450   4.531   1.285   4.224 -0.1041  0.2011  0.1579
    1DIPC   D3B28451   4.512   1.533   4.635 -0.1483  0.0516 -0.0622
    1DIPC   C4B28452   4.659   1.474   5.048  0.2201 -0.0608  0.3527
    1DIPC   NC328453  25.257  10.778   1.927 -0.2689  0.0601  0.0999
    1DIPC   PO428454  25.240  10.501   2.340  0.2791 -0.1456 -0.1723
    1DIPC   GL128455  25.173  10.561   2.752 -0.0779 -0.2339  0.2532
    1DIPC   GL228456  25.106  10.295   2.868 -0.0005  0.2624 -0.0587
    1DIPC   C1A28457  24.734  10.612   2.934 -0.1172  0.0335 -0.0700
    1DIPC   D2A28458  24.365  10.647   3.120 -0.1012  0.0267  0.3415
    1DIPC   D3A28459  24.566  11.029   3.176  0.2956 -0.0081 -0.2065
    1DIPC   C4A28460  24.582  11.217   3.584 -0.2896 -0.1291  0.0373
    1DIPC   C1B28461  24.798  10.200   3.278 -0.2002 -0.2858 -0.2539
    1DIPC   D2B28462  24.709  10.001   3.727 -0.0683 -0.0267 -0.1458
    1DIPC   D3B28463  24.854   9.980   4.077  0.3379  0.0152  0.2818
    1DIPC   C4B28464  24.776  10.387   4.135 -0.2785 -0.3108  0.0812
    1DIPC   NC328465  28.983   9.201   2.716 -0.1124  0.0255 -0.2291
    1DIPC   PO428466  29.245   9.448   2.515  0.1544 -0.0094 -0.0792
    1DIPC   GL128467  29.381   9.735   2.836  0.2224 -0.1205  0.0168
    1DIPC   GL228468  29.233   9.478   2.998 -0.3019  0.1419  0.1538
    1DIPC   C1A28469  29.332   9.920   3.293  0.1561 -0.1740  0.1661
    1DIPC   D2A28470  29.124  10.085   3.715  0.0335  0.0147 -0.2688
    1DIPC   D3A28471  28.985  10.140   4.159  0.0469  0.1058 -0.0321
    1DIPC   C4A28472  28.573  10.258   4.102 -0.1338  0.0836 -0.1743
    1DIPC   C1B28473  29.072   9.413   3.421  0.1462 -0.2592 -0.0724
    1DIPC   D2B28474  28.961   9.504   3.868  0.3628 -0.0080  0.2105
    1DIPC   D3B28475  29.243   9.688   4.031 -0.0471 -0.0319 -0.0025
    1DIPC   C4B28476  29.105   9.783   4.428 -0.1598  0.0020 -0.1787
    1DIPC   NC328477  24.199  12.200   1.649  0.2193 -0.1484 -0.0250
    1DIPC   PO428478  24.262  12.035   1.994  0.0988  0.0607  0.0939
    1DIPC   GL128479  24.483  12.146   2.367 -0.0050 -0.4516 -0.1128
    1DIPC   GL228480  24.406  11.878   2.578 -0.0130  0.0996  0.0836
    1DIPC   C1A28481  24.826  12.259   2.729  0.1462 -0.0759  0.3367
    1DIPC   D2A28482  24.915  12.500   3.021  0.1779  0.1919 -0.2291
    1DIPC   D3A28483  24.612  12.589   3.350 -0.0896  0.1612  0.0142
    1DIPC   C4A28484  24.462  13.014   3.535 -0.0987 -0.0803  0.0318
    1DIPC   C1B28485  24.202  11.689   2.916  0.0323 -0.3052  0.2140
    1DIPC   D2B28486  24.225  11.574   3.307  0.1269 -0.0846  0.1808
    1DIPC   D3B28487  24.036  11.798   3.722  0.0345  0.0447  0.2267
    1DIPC   C4B28488  24.080  11.778   4.201  0.1068  0.2246 -0.1242
    1DIPC   NC328489  12.202  14.663   2.701  0.1986  0.2436  0.2176
    1DIPC   PO428490  12.253  15.113   2.816 -0.4076  0.0038 -0.3511
    1DIPC   GL128491  12.475  15.039   3.227  0.0606  0.0484  0.1245
    1DIPC   GL228492  12.569  15.346   3.239  0.1416 -0.0627  0.0412
    1DIPC   C1A28493  12.191  15.208   3.569  0.2023  0.5009 -0.1237
    1DIPC   D2A28494  12.015  15.311   3.923  0.1585  0.1547 -0.2419
    1DIPC   D3A28495  12.196  15.296   4.394 -0.3459  0.1189  0.1899
    1DIPC   C4A28496  11.972  15.574   4.695 -0.1406 -0.2661  0.0834
    1DIPC   C1B28497  12.475  15.637   3.522  0.1334 -0.0165 -0.0580
    1DIPC   D2B28498  12.158  15.831   3.824  0.0687 -0.3420  0.1469
    1DIPC   D3B28499  12.212  15.730   4.162 -0.0193  0.0679 -0.1897
    1DIPC   C4B28500  12.612  15.605   4.355  0.0194 -0.0912  0.1188
    1DIPC   NC328501  20.052  11.127   2.488  0.0105  0.0959 -0.1740
    1DIPC   PO428502  20.201  11.661   2.277  0.1566  0.1507 -0.0217
    1DIPC   GL128503  20.247  11.616   2.770  0.2071 -0.1217  0.3365
    1DIPC   GL228504  20.066  11.503   2.999 -0.1997 -0.2148  0.2071
    1DIPC   C1A28505  20.453  11.912   2.946 -0.0880 -0.0212 -0.1573
    1DIPC   D2A28506  20.732  12.047   3.081 -0.1097 -0.0485  0.0572
    1DIPC   D3A28507  21.015  11.721   3.147 -0.1843  0.0521 -0.2684
    1DIPC   C4A28508  21.124  11.466   3.530 -0.1498 -0.2959  0.2914
    1DIPC   C1B28509  20.081  11.814   3.219 -0.0468 -0.1801 -0.0818
    1DIPC   D2B28510  20.377  12.030   3.468  0.0253  0.1764  0.1492
    1DIPC   D3B28511  20.648  11.630   3.493  0.0696  0.1568  0.0730
    1DIPC   C4B28512  20.748  11.443   3.859  0.1945  0.0502  0.0437
    1DIPC   NC328513   9.560   6.042   2.934  0.0815  0.1000  0.2423
    1DIPC   PO428514   9.704   5.951   3.341  0.0824  0.1284 -0.0027
    1DIPC   GL128515   9.995   5.950   3.708  0.2883  0.0917  0.1093
    1DIPC   GL228516   9.985   6.149   3.881 -0.0275 -0.1872  0.0681
    1DIPC   C1A28517   9.853   5.731   4.195 -0.1290 -0.2428 -0.1549
    1DIPC   D2A28518   9.590   5.980   4.530 -0.0074  0.2198 -0.1690
    1DIPC   D3A28519   9.750   5.696   4.790  0.1980  0.1546 -0.1328
    1DIPC   C4A28520  10.072   5.715   5.129  0.0625 -0.0923 -0.1388
    1DIPC   C1B28521  10.012   6.219   4.234  0.0425  0.0487  0.2545
    1DIPC   D2B28522  10.185   6.412   4.548  0.1438  0.2536 -0.0627
    1DIPC   D3B28523   9.779   6.425   4.665  0.0394  0.1604  0.0524
    1DIPC   C4B28524   9.646   6.136   5.033 -0.0865 -0.1047  0.1574
    1DIPC   NC328525  20.589  16.234   2.354 -0.2211  0.1762  0.1752
    1DIPC   PO428526  20.983  16.028   2.211 -0.2749 -0.0009 -0.2018
    1DIPC   GL128527  21.316  15.868   2.526 -0.2094 -0.0441 -0.2914
    1DIPC   GL228528  21.635  16.004   2.525 -0.1872  0.2060 -0.2248
    1DIPC   C1A28529  21.420  15.826   3.008 -0.1305  0.2855  0.6523
    1DIPC   D2A28530  21.548  15.782   3.522  0.1368  0.0013  0.0024
    1DIPC   D3A28531  21.949  15.904   3.678  0.3247 -0.2661 -0.2507
    1DIPC   C4A28532  22.149  15.820   4.155  0.0100 -0.0524  0.0491
    1DIPC   C1B28533  21.926  15.954   2.945  0.3248  0.0236  0.3693
    1DIPC   D2B28534  22.180  15.945   3.198  0.0849  0.1914 -0.2151
    1DIPC   D3B28535  22.036  15.532   3.345 -0.0837 -0.1087  0.0104
    1DIPC   C4B28536  22.286  15.092   3.467  0.0135 -0.0671 -0.2582
    1DIPC   NC328537  17.910   1.655   3.182 -0.0757 -0.1318 -0.3459
    1DIPC   PO428538  18.006   2.043   3.582  0.1910  0.0474 -0.3414
    1DIPC   GL128539  17.713   1.919   4.018  0.0196  0.2783 -0.4239
    1DIPC   GL228540  17.690   1.572   4.001 -0.1294  0.4218  0.1241
    1DIPC   C1A28541  17.653   1.812   4.440 -0.1353 -0.1379  0.1752
    1DIPC   D2A28542  17.323   1.882   4.744 -0.0225 -0.0208  0.1836
    1DIPC   D3A28543  17.008   1.993   4.403 -0.1391 -0.0249  0.0937
    1DIPC   C4A28544  16.870   2.161   4.005  0.1530 -0.3018  0.1075
    1DIPC   C1B28545  17.893   1.442   4.346 -0.0232  0.1146  0.2659
    1DIPC   D2B28546  18.202   1.425   4.674 -0.0432  0.0751  0.1491
    1DIPC   D3B28547  17.906   1.088   4.842 -0.0607  0.1063 -0.0536
    1DIPC   C4B28548  17.730   1.118   5.397  0.0949 -0.2758  0.1541
    1DIPC   NC328549  16.075  29.504   2.945  0.1341  0.2950  0.2454
    1DIPC   PO428550  15.705  29.334   2.681 -0.2507  0.1715 -0.0794
    1DIPC   GL128551  15.538  29.265   3.110 -0.3336  0.2064  0.2396
    1DIPC   GL228552  15.199  29.205   3.031  0.6908 -0.0424  0.2075
    1DIPC   C1A28553  15.625  29.073   3.663 -0.0869 -0.0829 -0.1092
    1DIPC   D2A28554  15.759  29.294   4.001 -0.2894 -0.2032  0.1194
    1DIPC   D3A28555  15.569  29.370   4.376  0.1082  0.0506 -0.2058
    1DIPC   C4A28556  15.681  29.250   4.851  0.3390  0.1441  0.4415
    1DIPC   C1B28557  15.001  29.130   3.508 -0.2318 -0.1334 -0.0855
    1DIPC   D2B28558  14.952  29.464   3.964 -0.0664 -0.0150  0.1618
    1DIPC   D3B28559  15.283  29.169   4.045  0.2687  0.0573  0.0776
    1DIPC   C4B28560  15.222  28.750   3.766  0.0974 -0.4141  0.1313
    1DIPC   NC328561  11.339  29.054   3.603 -0.0923 -0.0671 -0.0648
    1DIPC   PO428562  11.718  29.177   3.495  0.3514 -0.2254 -0.1720
    1DIPC   GL128563  11.818  28.879   3.834 -0.1091  0.0825 -0.1435
    1DIPC   GL228564  12.078  29.120   3.974  0.1680 -0.0669  0.1698
    1DIPC   C1A28565  12.304  28.728   3.817  0.0034  0.0538 -0.0341
    1DIPC   D2A28566  12.674  28.955   3.813 -0.0082 -0.2328  0.2229
    1DIPC   D3A28567  12.551  29.365   4.104 -0.1891  0.0953 -0.2165
    1DIPC   C4A28568  12.847  29.457   4.393  0.1092 -0.1371  0.1230
    1DIPC   C1B28569  12.206  29.186   4.397  0.0289  0.2831 -0.3957
    1DIPC   D2B28570  12.586  29.054   4.569  0.1403  0.1571  0.0747
    1DIPC   D3B28571  12.281  28.914   4.845 -0.2425  0.0266  0.0530
    1DIPC   C4B28572  12.019  29.261   5.096 -0.1120  0.1542 -0.1315
    1DIPC   NC328573  19.635  24.383   2.693 -0.0669  0.1097  0.2975
    1DIPC   PO428574  19.248  24.408   2.930  0.2899 -0.0610 -0.1622
    1DIPC   GL128575  19.185  24.283   3.338 -0.0281 -0.1480 -0.2951
    1DIPC   GL228576  18.935  24.143   3.546  0.1412  0.1350  0.3259
    1DIPC   C1A28577  19.502  24.227   3.648  0.2254  0.1165 -0.2344
    1DIPC   D2A28578  19.829  23.906   3.795  0.0819 -0.1432  0.3364
    1DIPC   D3A28579  20.155  24.115   3.944 -0.0729  0.2802  0.0554
    1DIPC   C4A28580  20.223  24.316   4.361 -0.0656 -0.0564 -0.3451
    1DIPC   C1B28581  18.996  24.169   4.049  0.0151  0.0254 -0.0336
    1DIPC   D2B28582  19.236  24.063   4.446 -0.2342 -0.2063  0.2415
    1DIPC   D3B28583  19.463  23.834   4.134  0.4128  0.2457 -0.5136
    1DIPC   C4B28584  19.227  23.746   3.742 -0.3723  0.0908  0.1340
    1DIPC   NC328585  19.800  16.601   2.438 -0.2990 -0.1930 -0.1437
    1DIPC   PO428586  20.092  16.763   2.263 -0.2169  0.0185 -0.4189
    1DIPC   GL128587  20.231  16.486   2.682  0.0152 -0.0121 -0.0849
    1DIPC   GL228588  20.065  16.514   2.992  0.0263  0.1493 -0.2018
    1DIPC   C1A28589  20.533  16.254   2.974  0.1064  0.2971 -0.3011
    1DIPC   D2A28590  20.650  16.507   3.345  0.0294 -0.2795  0.2242
    1DIPC   D3A28591  20.420  16.224   3.539 -0.3895 -0.1441  0.0126
    1DIPC   C4A28592  20.308  16.334   3.881  0.3123  0.1199  0.2713
    1DIPC   C1B28593  20.022  16.377   3.355  0.1182 -0.2378  0.1247
    1DIPC   D2B28594  19.920  16.215   3.650  0.4116  0.0126  0.1626
    1DIPC   D3B28595  19.809  16.099   4.027  0.0463  0.0259 -0.1230
    1DIPC   C4B28596  19.950  15.859   4.297 -0.0207  0.1280  0.0377
    1DIPC   NC328597  23.895  28.027   3.101 -0.1389  0.1438 -0.1926
    1DIPC   PO428598  23.692  28.173   3.465  0.3459  0.0155  0.0890
    1DIPC   GL128599  23.597  27.924   3.883  0.1601  0.0605 -0.2981
    1DIPC   GL228600  23.792  28.028   4.285  0.0647  0.2932  0.2342
    1DIPC   C1A28601  24.031  27.890   3.886 -0.2975  0.0695 -0.0808
    1DIPC   D2A28602  24.525  27.776   3.884 -0.2118 -0.1086 -0.0174
    1DIPC   D3A28603  24.408  28.112   4.124 -0.1390 -0.2470  0.1473
    1DIPC   C4A28604  24.459  28.055   4.554 -0.0154  0.1658 -0.0326
    1DIPC   C1B28605  23.621  28.089   4.783  0.0449  0.3276 -0.3409
    1DIPC   D2B28606  23.321  28.198   5.192  0.0102  0.0979  0.0834
    1DIPC   D3B28607  23.301  27.841   5.437  0.0407 -0.0565 -0.0403
    1DIPC   C4B28608  23.181  27.463   5.192 -0.2003  0.1715  0.4521
    1DIPC   NC328609  21.484   3.202   3.493 -0.0835  0.1280  0.4114
    1DIPC   PO428610  21.794   3.542   3.688  0.0597 -0.0571 -0.2492
    1DIPC   GL128611  21.928   3.690   4.014  0.0067 -0.0491  0.5364
    1DIPC   GL228612  21.633   3.628   4.274 -0.2947 -0.2327  0.1418
    1DIPC   C1A28613  22.186   3.913   4.240 -0.1783  0.0718  0.4769
    1DIPC   D2A28614  22.261   4.092   4.681  0.3705 -0.0988  0.2554
    1DIPC   D3A28615  22.336   3.847   5.071  0.0944 -0.1916  0.0334
    1DIPC   C4A28616  22.446   4.032   5.508 -0.3090 -0.0401 -0.1816
    1DIPC   C1B28617  21.449   3.369   4.589 -0.0698  0.2407  0.0083
    1DIPC   D2B28618  21.493   2.927   4.766 -0.0500 -0.4421  0.1204
    1DIPC   D3B28619  21.658   3.244   5.060 -0.1247  0.0333  0.1052
    1DIPC   C4B28620  22.133   3.341   5.130 -0.2469  0.1283  0.2481
    1DIPC   NC328621  10.638   1.074   3.734 -0.3311 -0.2781  0.0938
    1DIPC   PO428622  11.024   1.125   3.711  0.0078  0.0540  0.3326
    1DIPC   GL128623  11.015   1.268   4.104 -0.0688  0.1984  0.0106
    1DIPC   GL228624  11.245   1.304   4.296  0.0696  0.1054 -0.1734
    1DIPC   C1A28625  10.822   1.279   4.569  0.0517 -0.1794 -0.1422
    1DIPC   D2A28626  10.474   1.267   4.801 -0.1437 -0.0912 -0.2062
    1DIPC   D3A28627  10.558   1.335   5.191  0.0896 -0.1174 -0.0416
    1DIPC   C4A28628  10.380   1.496   5.496 -0.3466  0.2682 -0.1142
    1DIPC   C1B28629  11.527   1.144   4.514  0.4193  0.0403  0.1375
    1DIPC   D2B28630  11.774   0.992   4.884  0.1716 -0.1526  0.0405
    1DIPC   D3B28631  12.181   0.778   5.022 -0.0863  0.1842  0.1066
    1DIPC   C4B28632  12.605   0.759   5.407 -0.2360  0.1858 -0.1062
    1DIPC   NC328633  11.800  19.302   2.590 -0.0396  0.2762  0.1980
    1DIPC   PO428634  12.168  19.136   2.760  0.1556  0.3557  0.1489
    1DIPC   GL128635  11.841  19.054   3.051 -0.1726 -0.6820 -0.4005
    1DIPC   GL228636  11.649  19.345   3.143 -0.2083 -0.0329 -0.2910
    1DIPC   C1A28637  11.610  18.623   3.186 -0.0073 -0.2663 -0.1472
    1DIPC   D2A28638  11.512  18.327   3.618  0.0695  0.0165  0.2724
    1DIPC   D3A28639  11.488  18.446   4.072 -0.0421  0.2384 -0.0690
    1DIPC   C4A28640  11.351  18.281   4.410 -0.1023 -0.1390  0.1683
    1DIPC   C1B28641  11.748  19.186   3.525 -0.3069 -0.0361  0.4070
    1DIPC   D2B28642  11.703  18.791   3.763  0.3384  0.1477 -0.2989
    1DIPC   D3B28643  11.958  18.485   3.565 -0.2459  0.0303  0.1492
    1DIPC   C4B28644  11.882  18.195   3.183 -0.1633 -0.2979 -0.1570
    1DIPC   NC328645   2.271  28.833   2.467 -0.0163 -0.1540 -0.3562
    1DIPC   PO428646   2.457  29.318   2.460  0.0590 -0.2605 -0.1871
    1DIPC   GL128647   2.562  28.974   2.861  0.0351 -0.0826  0.3708
    1DIPC   GL228648   2.648  29.040   3.078 -0.0017  0.0788 -0.1163
    1DIPC   C1A28649   2.493  28.575   3.055 -0.0457  0.1381  0.0361
    1DIPC   D2A28650   2.290  28.450   3.486 -0.4202 -0.2158 -0.0324
    1DIPC   D3A28651   1.955  28.275   3.409  0.3751 -0.0653 -0.1546
    1DIPC   C4A28652   1.935  27.970   3.709 -0.0368 -0.4337 -0.3962
    1DIPC   C1B28653   2.984  28.811   3.320  0.1494  0.1718  0.2513
    1DIPC   D2B28654   3.199  28.521   3.701  0.1444 -0.0841  0.0823
    1DIPC   D3B28655   2.766  28.644   3.835 -0.0110  0.1354  0.1514
    1DIPC   C4B28656   2.511  28.911   3.562  0.2412  0.0702  0.1022
    1DIPC   NC328657  28.454  22.154   2.274  0.0863 -0.1819  0.1657
    1DIPC   PO428658  28.700  21.771   2.342  0.0711 -0.0138  0.1129
    1DIPC   GL128659  28.583  21.966   2.729  0.0834 -0.0554  0.3921
    1DIPC   GL228660  28.386  21.696   2.862 -0.2903 -0.1739 -0.2397
    1DIPC   C1A28661  28.591  22.259   2.917  0.1743 -0.0041 -0.1779
    1DIPC   D2A28662  28.647  22.547   3.139  0.3405 -0.0128 -0.0074
    1DIPC   D3A28663  28.566  22.827   3.352 -0.3451 -0.1488  0.2456
    1DIPC   C4A28664  28.733  23.068   3.670 -0.0037 -0.0399  0.1559
    1DIPC   C1B28665  28.356  21.683   3.415 -0.0220 -0.0573 -0.0356
    1DIPC   D2B28666  28.311  21.987   3.754  0.1404 -0.1634 -0.1773
    1DIPC   D3B28667  28.025  21.605   3.807  0.0502 -0.1039  0.1015
    1DIPC   C4B28668  28.184  21.225   4.011 -0.3058  0.4183 -0.0329
    1DIPC   NC328669   7.743  23.543   2.341  0.1278 -0.0665 -0.1599
    1DIPC   PO428670   7.920  23.167   2.656  0.0551  0.0419 -0.3114
    1DIPC   GL128671   8.016  23.310   3.000 -0.3617  0.3354 -0.1184
    1DIPC   GL228672   7.675  23.513   3.124 -0.0327 -0.1341  0.2757
    1DIPC   C1A28673   7.991  23.149   3.396  0.0440  0.2349  0.0475
    1DIPC   D2A28674   8.104  22.972   3.692  0.0169 -0.0213 -0.1902
    1DIPC   D3A28675   7.960  22.506   3.931  0.0526 -0.5118 -0.0289
    1DIPC   C4A28676   7.488  22.339   3.955 -0.0917 -0.1297 -0.1649
    1DIPC   C1B28677   7.525  23.244   3.500  0.1213 -0.2972  0.4053
    1DIPC   D2B28678   7.656  22.785   3.550 -0.1251 -0.0618 -0.1386
    1DIPC   D3B28679   7.562  23.026   3.988  0.1994  0.0542 -0.0343
    1DIPC   C4B28680   7.316  22.764   4.174  0.0268 -0.0789  0.3716
    1DIPC   NC328681  13.161  12.900   2.403 -0.3454  0.0413  0.0366
    1DIPC   PO428682  13.495  12.689   2.682 -0.2948 -0.3528  0.1617
    1DIPC   GL128683  13.316  12.484   3.059  0.1288  0.0070 -0.0436
    1DIPC   GL228684  13.324  12.114   3.146 -0.1727  0.3236  0.1288
    1DIPC   C1A28685  13.008  12.530   3.259 -0.3484  0.0498 -0.1691
    1DIPC   D2A28686  12.778  12.562   3.629  0.0497  0.0878  0.2364
    1DIPC   D3A28687  12.800  13.002   3.745  0.2350 -0.0835 -0.1048
    1DIPC   C4A28688  12.868  12.967   4.205  0.0664 -0.2086 -0.1344
    1DIPC   C1B28689  13.181  12.292   3.620  0.1207  0.1548  0.1556
    1DIPC   D2B28690  13.109  12.551   4.049  0.3148  0.0385  0.1465
    1DIPC   D3B28691  13.277  12.821   4.363 -0.0809 -0.0664  0.0162
    1DIPC   C4B28692  13.136  13.210   4.580 -0.0141  0.2032 -0.2543
    1DIPC   NC328693  20.171   4.673   3.768 -0.1086 -0.1259  0.1404
    1DIPC   PO428694  19.962   4.424   3.711  0.0261 -0.3224 -0.2115
    1DIPC   GL128695  20.057   4.425   4.151 -0.2245 -0.2536  0.1627
    1DIPC   GL228696  20.440   4.545   4.140 -0.0809 -0.1434  0.1950
    1DIPC   C1A28697  20.146   4.336   4.535 -0.0123  0.3253 -0.0119
    1DIPC   D2A28698  20.100   3.886   4.773 -0.2801 -0.0142  0.2332
    1DIPC   D3A28699  19.797   3.683   4.841  0.0368  0.1451 -0.3596
    1DIPC   C4A28700  19.384   3.565   4.707 -0.3769  0.2645 -0.1496
    1DIPC   C1B28701  20.862   4.422   4.306  0.1815  0.0710 -0.0174
    1DIPC   D2B28702  21.085   4.287   4.562 -0.2741  0.0363 -0.0517
    1DIPC   D3B28703  21.113   4.622   4.843 -0.0418  0.1267 -0.1773
    1DIPC   C4B28704  21.419   4.935   4.886  0.2984 -0.3503 -0.1577
    1DIPC   NC328705   7.561   3.491   3.345  0.0340  0.5609 -0.0093
    1DIPC   PO428706   7.926   3.724   3.523  0.0163 -0.0348 -0.0685
    1DIPC   GL128707   7.891   3.829   4.010 -0.0138  0.0998 -0.0125
    1DIPC   GL228708   7.997   3.719   4.238  0.0020 -0.2576 -0.1116
    1DIPC   C1A28709   7.910   4.242   4.348 -0.0123 -0.1151  0.0863
    1DIPC   D2A28710   8.161   4.286   4.700 -0.2203 -0.0670  0.0145
    1DIPC   D3A28711   7.960   4.021   4.953 -0.3289  0.0569 -0.2478
    1DIPC   C4A28712   8.069   3.674   5.209 -0.2726  0.0241  0.0217
    1DIPC   C1B28713   7.957   3.568   4.655 -0.0978  0.0995  0.0521
    1DIPC   D2B28714   8.062   3.194   4.902  0.0873 -0.4165  0.0430
    1DIPC   D3B28715   8.402   3.178   5.272  0.1733  0.0950 -0.0063
    1DIPC   C4B28716   8.417   3.196   5.704 -0.0535  0.1815 -0.1359
    1DIPC   NC328717  20.359   9.418   3.160 -0.2782  0.1284 -0.2510
    1DIPC   PO428718  20.375   9.062   3.310  0.1548  0.2072 -0.0391
    1DIPC   GL128719  20.393   9.393   3.674  0.2307  0.1565 -0.1707
    1DIPC   GL228720  20.708   9.528   3.546  0.2294 -0.1998 -0.1925
    1DIPC   C1A28721  20.309   9.754   3.844  0.3235 -0.3294  0.1000
    1DIPC   D2A28722  20.155   9.873   4.195  0.1122  0.2445 -0.2269
    1DIPC   D3A28723  20.044  10.275   4.347  0.1136  0.2108  0.0819
    1DIPC   C4A28724  20.189  10.516   4.750 -0.2890 -0.1777 -0.0739
    1DIPC   C1B28725  20.973   9.624   3.845 -0.1252 -0.6031 -0.0188
    1DIPC   D2B28726  21.329   9.625   4.127  0.1502 -0.0913  0.1694
    1DIPC   D3B28727  21.390   9.695   4.584 -0.4516  0.1276 -0.3147
    1DIPC   C4B28728  21.582   9.296   4.742  0.2127 -0.1783 -0.2335
    1DIPC   NC328729  22.277  28.125   3.482  0.1594 -0.1341  0.1839
    1DIPC   PO428730  21.807  28.369   3.543 -0.2704 -0.3702  0.1948
    1DIPC   GL128731  22.026  28.535   3.855  0.1551 -0.1129  0.0315
    1DIPC   GL228732  22.162  28.271   3.982 -0.2377 -0.0698  0.0944
    1DIPC   C1A28733  21.998  28.784   4.236  0.1796 -0.3140 -0.4742
    1DIPC   D2A28734  21.831  29.217   4.423  0.1162 -0.0421  0.0145
    1DIPC   D3A28735  22.075  29.290   4.770 -0.3156  0.0309  0.2248
    1DIPC   C4A28736  21.991  29.159   5.172  0.1943 -0.0373 -0.1359
    1DIPC   C1B28737  22.135  27.945   4.220  0.1394 -0.0531 -0.1984
    1DIPC   D2B28738  21.873  27.934   4.591 -0.2302 -0.2987 -0.1158
    1DIPC   D3B28739  21.931  28.258   4.716 -0.0865  0.3492 -0.1720
    1DIPC   C4B28740  22.227  28.349   4.496  0.0605 -0.3564 -0.6102
    1DIPC   NC328741  11.979   1.693   3.798  0.0098  0.2439  0.2963
    1DIPC   PO428742  12.304   1.497   3.865  0.0605  0.0209 -0.1197
    1DIPC   GL128743  12.373   1.736   4.222  0.0720  0.1889  0.2933
    1DIPC   GL228744  12.691   1.779   4.252  0.1977  0.4251  0.0353
    1DIPC   C1A28745  12.439   1.845   4.680  0.0384 -0.2448  0.1245
    1DIPC   D2A28746  12.724   1.901   4.978 -0.1680  0.0584  0.0682
    1DIPC   D3A28747  13.040   1.570   4.818 -0.2532 -0.3346  0.2020
    1DIPC   C4A28748  13.110   1.507   4.410  0.1114 -0.0936 -0.1067
    1DIPC   C1B28749  12.945   2.031   4.518  0.1019  0.1192  0.0536
    1DIPC   D2B28750  13.074   2.312   4.757  0.1671 -0.0948 -0.1980
    1DIPC   D3B28751  13.472   2.374   4.566 -0.2248 -0.0726  0.1466
    1DIPC   C4B28752  13.705   2.719   4.331 -0.0432 -0.1511 -0.2054
    1DIPC   NC328753   2.973  15.731   1.697  0.1836  0.0002 -0.1247
    1DIPC   PO428754   3.076  15.696   2.145 -0.0073 -0.0449  0.1449
    1DIPC   GL128755   3.097  15.944   2.479  0.0314  0.0410 -0.0718
    1DIPC   GL228756   3.067  16.309   2.491 -0.0182 -0.1146 -0.0361
    1DIPC   C1A28757   2.867  16.135   2.861 -0.0698  0.0796 -0.2368
    1DIPC   D2A28758   2.680  15.935   3.245 -0.0433 -0.0933  0.1102
    1DIPC   D3A28759   2.632  16.022   3.622 -0.1476 -0.1724 -0.0360
    1DIPC   C4A28760   2.866  16.199   3.983 -0.0285  0.0209 -0.0208
    1DIPC   C1B28761   2.662  16.124   2.425 -0.1496  0.1405  0.0536
    1DIPC   D2B28762   2.380  16.222   2.816  0.0777 -0.0772 -0.0706
    1DIPC   D3B28763   2.120  16.561   2.793 -0.2249  0.0949 -0.1189
    1DIPC   C4B28764   2.302  16.594   2.369 -0.2572  0.0420  0.1237
    1DIPC   NC328765  15.942  26.744   2.999  0.2533 -0.0561 -0.0395
    1DIPC   PO428766  15.938  27.134   3.158 -0.0684 -0.0501 -0.0569
    1DIPC   GL128767  16.151  27.292   3.589 -0.3370 -0.0128  0.2310
    1DIPC   GL228768  16.471  27.222   3.682 -0.0851 -0.1217  0.0526
    1DIPC   C1A28769  16.132  27.343   4.082  0.0606 -0.0523  0.1362
    1DIPC   D2A28770  16.229  27.191   4.422  0.0413  0.2460  0.0205
    1DIPC   D3A28771  15.835  27.195   4.716 -0.1334 -0.1184  0.1663
    1DIPC   C4A28772  15.733  26.741   4.692  0.2268  0.1558 -0.1715
    1DIPC   C1B28773  16.512  26.952   3.948  0.0862 -0.0912 -0.1208
    1DIPC   D2B28774  16.630  26.976   4.438 -0.4743  0.0826 -0.1905
    1DIPC   D3B28775  16.476  27.063   4.800 -0.5228  0.0929 -0.0435
    1DIPC   C4B28776  16.423  27.216   5.196  0.3288  0.2292  0.0481
    1DIPC   NC328777  20.399   3.777   3.508 -0.1475  0.0363  0.0391
    1DIPC   PO428778  20.355   3.594   3.830 -0.1388 -0.2692 -0.1814
    1DIPC   GL128779  20.258   3.314   4.261  0.0120 -0.0097 -0.0946
    1DIPC   GL228780  20.240   2.965   4.289 -0.0447  0.0610 -0.1127
    1DIPC   C1A28781  20.166   3.371   4.697 -0.1022  0.1352 -0.3245
    1DIPC   D2A28782  19.960   3.280   4.997 -0.1645  0.1012  0.0479
    1DIPC   D3A28783  20.337   3.405   5.230  0.1328 -0.2143  0.0481
    1DIPC   C4A28784  20.607   3.138   5.089  0.2211 -0.0923 -0.0457
    1DIPC   C1B28785  20.312   2.864   4.759 -0.0355 -0.3766  0.0747
    1DIPC   D2B28786  20.102   2.882   5.275  0.0576  0.1356 -0.1961
    1DIPC   D3B28787  19.617   2.981   5.363 -0.1315 -0.1828  0.1030
    1DIPC   C4B28788  19.542   3.381   5.409 -0.0860 -0.0390 -0.1815
    1DIPC   NC328789  18.370  23.033   2.970  0.0390  0.2582  0.1824
    1DIPC   PO428790  18.526  23.078   3.326  0.1490  0.1031  0.1353
    1DIPC   GL128791  18.281  23.035   3.670  0.0778 -0.0744  0.1426
    1DIPC   GL228792  18.095  23.367   3.784  0.2830  0.0585  0.0868
    1DIPC   C1A28793  18.208  22.983   4.043 -0.1101 -0.1211  0.2437
    1DIPC   D2A28794  18.210  22.831   4.495 -0.1275 -0.1166 -0.4537
    1DIPC   D3A28795  18.314  23.250   4.585  0.0831 -0.0317 -0.0090
    1DIPC   C4A28796  17.985  23.496   4.451  0.0395 -0.0948 -0.0934
    1DIPC   C1B28797  18.487  23.386   4.083 -0.0715 -0.0556 -0.1205
    1DIPC   D2B28798  18.893  23.581   4.308  0.1719 -0.1513  0.5770
    1DIPC   D3B28799  19.268  23.332   4.341 -0.3110 -0.2398 -0.2999
    1DIPC   C4B28800  19.336  23.056   4.552 -0.2500  0.1857  0.1745
    1DIPC   NC328801  25.347  29.372   3.397 -0.2037  0.0614  0.0780
    1DIPC   PO428802  25.130  29.718   3.491 -0.0830 -0.0607  0.5757
    1DIPC   GL128803  25.092  29.965   3.781  0.1085  0.1976  0.1809
    1DIPC   GL228804  24.807  30.178   3.760  0.1322 -0.2198 -0.3392
    1DIPC   C1A28805  25.128  30.146   4.184  0.1040 -0.2903  0.1665
    1DIPC   D2A28806  25.262  30.478   4.415  0.0354  0.1887 -0.2104
    1DIPC   D3A28807  25.265  30.885   4.158  0.0943 -0.0514  0.4348
    1DIPC   C4A28808  25.468  31.295   4.085  0.0712  0.2744 -0.3659
    1DIPC   C1B28809  24.849  30.579   3.934 -0.1612 -0.0131  0.1295
    1DIPC   D2B28810  24.862  31.069   3.894 -0.2182  0.0518 -0.2534
    1DIPC   D3B28811  24.566  31.337   4.144 -0.0105  0.1643 -0.3545
    1DIPC   C4B28812  24.162  31.207   4.138 -0.1613  0.0788 -0.0260
    1DIPC   NC328813  11.811  11.251   2.996  0.1942  0.1772 -0.0079
    1DIPC   PO428814  11.801  11.267   3.385  0.0704  0.1143 -0.0277
    1DIPC   GL128815  11.787  11.272   3.783  0.4506  0.1806  0.1814
    1DIPC   GL228816  11.804  11.553   3.832  0.0298 -0.1124  0.0470
    1DIPC   C1A28817  12.058  11.027   4.074 -0.2506  0.0455  0.4629
    1DIPC   D2A28818  12.097  10.559   4.157 -0.4549 -0.0886 -0.0791
    1DIPC   D3A28819  12.328  10.453   4.552  0.0451 -0.1257  0.0219
    1DIPC   C4A28820  12.814  10.293   4.578 -0.2718 -0.1250  0.0281
    1DIPC   C1B28821  12.016  11.526   4.220  0.1106 -0.0256  0.3313
    1DIPC   D2B28822  12.015  11.567   4.601 -0.0661  0.0059  0.2073
    1DIPC   D3B28823  12.139  11.095   4.609 -0.1045  0.0181  0.2409
    1DIPC   C4B28824  12.483  10.938   4.582 -0.0411  0.1043 -0.0478
    1DIPC   NC328825  18.360  27.822   3.166 -0.2002 -0.1448  0.3290
    1DIPC   PO428826  18.354  27.761   3.523  0.1318 -0.0120  0.1215
    1DIPC   GL128827  18.060  27.894   3.737 -0.0193 -0.0315  0.3220
    1DIPC   GL228828  18.245  28.039   4.027  0.2360  0.1896 -0.2191
    1DIPC   C1A28829  17.651  27.903   4.062  0.0575 -0.0652  0.2459
    1DIPC   D2A28830  17.665  27.869   4.540 -0.1296 -0.1042  0.2198
    1DIPC   D3A28831  17.385  28.183   4.681 -0.0063 -0.0875  0.1090
    1DIPC   C4A28832  17.159  28.203   5.055 -0.3114  0.2574 -0.0377
    1DIPC   C1B28833  18.355  27.878   4.487 -0.0633  0.1701  0.0216
    1DIPC   D2B28834  18.229  27.844   4.891  0.0560 -0.0069  0.2234
    1DIPC   D3B28835  18.698  27.741   5.078  0.0119 -0.2411  0.1695
    1DIPC   C4B28836  18.632  27.356   5.209 -0.4392 -0.0136 -0.0337
    1DIPC   NC328837  15.471  24.683   2.811  0.1920 -0.0432  0.0708
    1DIPC   PO428838  15.324  24.442   3.102 -0.0344 -0.3465  0.0889
    1DIPC   GL128839  15.201  24.126   3.393 -0.4295 -0.3591 -0.1273
    1DIPC   GL228840  15.016  24.197   3.698 -0.0941 -0.4168  0.1264
    1DIPC   C1A28841  14.990  23.675   3.656 -0.0846  0.0159 -0.3085
    1DIPC   D2A28842  14.932  23.600   4.083  0.0405  0.1031 -0.0381
    1DIPC   D3A28843  14.743  23.176   4.240 -0.0995  0.0761  0.1752
    1DIPC   C4A28844  14.537  22.950   4.591  0.1759 -0.1364 -0.2460
    1DIPC   C1B28845  15.232  24.489   3.909 -0.1560 -0.0302 -0.3339
    1DIPC   D2B28846  15.348  24.810   3.821 -0.1822  0.0769 -0.1500
    1DIPC   D3B28847  15.335  25.031   4.226 -0.4404 -0.1379  0.0833
    1DIPC   C4B28848  15.287  25.465   4.308 -0.2233 -0.1238  0.1898
    1DIPC   NC328849  19.926   7.033   2.927 -0.0701 -0.1908 -0.1360
    1DIPC   PO428850  20.031   6.736   3.197 -0.0373 -0.1599 -0.0518
    1DIPC   GL128851  20.360   6.852   3.425  0.2685  0.0092  0.0732
    1DIPC   GL228852  20.145   7.064   3.673 -0.2442  0.0699 -0.0454
    1DIPC   C1A28853  20.639   7.069   3.645  0.2087  0.2136 -0.0420
    1DIPC   D2A28854  20.836   7.026   3.963 -0.0862  0.2241  0.1370
    1DIPC   D3A28855  20.751   7.163   4.377 -0.0393  0.0067 -0.2166
    1DIPC   C4A28856  20.301   7.234   4.464 -0.0620  0.0214 -0.2567
    1DIPC   C1B28857  20.268   7.397   3.953  0.2443 -0.0480 -0.1225
    1DIPC   D2B28858  20.273   7.796   4.182  0.2795  0.1711  0.0810
    1DIPC   D3B28859  20.385   7.770   4.513  0.0965 -0.4099 -0.0564
    1DIPC   C4B28860  20.227   8.169   4.696  0.0481  0.1566  0.0390
    1DIPC   NC328861  25.590   0.563   3.237 -0.0753  0.0668 -0.1280
    1DIPC   PO428862  25.565   0.234   3.552  0.0675 -0.2235 -0.2442
    1DIPC   GL128863  25.614   0.243   3.996 -0.1046 -0.1956  0.0361
    1DIPC   GL228864  26.004   0.238   4.096  0.1612 -0.2744  0.0123
    1DIPC   C1A28865  25.551   0.179   4.446 -0.0633  0.0453 -0.1469
    1DIPC   D2A28866  25.245   0.224   4.731 -0.1527  0.0724 -0.3696
    1DIPC   D3A28867  25.008  -0.027   4.564 -0.0159 -0.2510 -0.0472
    1DIPC   C4A28868  25.155  -0.137   4.185 -0.0475 -0.0502 -0.2850
    1DIPC   C1B28869  26.024   0.157   4.519 -0.0208 -0.1819 -0.1843
    1DIPC   D2B28870  26.201  -0.210   4.633 -0.2246  0.1679 -0.0728
    1DIPC   D3B28871  26.532  -0.171   4.946  0.0082 -0.0432  0.0921
    1DIPC   C4B28872  26.661   0.129   5.248 -0.0598 -0.0572 -0.0558
    1DIPC   NC328873  22.901  12.565   1.724 -0.2255  0.2949 -0.0825
    1DIPC   PO428874  23.349  12.409   1.896  0.0656  0.1094 -0.1776
    1DIPC   GL128875  23.577  12.409   2.351  0.0547 -0.0634  0.0386
    1DIPC   GL228876  23.749  12.811   2.484  0.2923  0.1721  0.0020
    1DIPC   C1A28877  23.998  12.357   2.596  0.2770 -0.0410  0.1137
    1DIPC   D2A28878  24.350  12.447   2.819 -0.1613 -0.0769 -0.1527
    1DIPC   D3A28879  24.452  12.113   3.087  0.0347 -0.1966  0.0237
    1DIPC   C4A28880  24.697  11.800   2.997  0.3482 -0.3122 -0.1848
    1DIPC   C1B28881  23.936  12.689   2.969 -0.3354 -0.2981  0.5209
    1DIPC   D2B28882  24.142  12.554   3.323 -0.0458 -0.1224 -0.0437
    1DIPC   D3B28883  24.169  12.253   3.615 -0.2911 -0.1645 -0.0589
    1DIPC   C4B28884  24.426  12.157   3.941  0.5066 -0.2138  0.2922
    1DIPC   NC328885   8.018   1.883   3.464 -0.1980 -0.1271  0.2893
    1DIPC   PO428886   8.149   2.348   3.473 -0.3193  0.2815 -0.0175
    1DIPC   GL128887   8.113   2.326   3.922 -0.3169  0.3540  0.0679
    1DIPC   GL228888   7.912   2.378   4.010 -0.3584  0.0890 -0.0986
    1DIPC   C1A28889   8.365   2.297   4.316  0.3012  0.1052  0.0275
    1DIPC   D2A28890   8.614   2.467   4.592 -0.1039 -0.0165  0.0886
    1DIPC   D3A28891   8.495   2.440   4.959  0.1902 -0.1755 -0.0796
    1DIPC   C4A28892   8.403   2.754   5.053 -0.1969 -0.1348  0.1112
    1DIPC   C1B28893   7.571   2.144   4.184  0.2215  0.3674 -0.0524
    1DIPC   D2B28894   7.315   1.868   4.439  0.2537 -0.3853 -0.1136
    1DIPC   D3B28895   6.891   1.893   4.444  0.0442 -0.1773  0.3287
    1DIPC   C4B28896   6.750   1.769   4.910 -0.0600  0.2440  0.0349
    1DIPC   NC328897  11.263  17.982   2.543  0.3444  0.2580 -0.1294
    1DIPC   PO428898  11.659  17.694   2.709  0.1952  0.3288 -0.0841
    1DIPC   GL128899  11.941  17.686   3.136 -0.3987 -0.0382  0.1530
    1DIPC   GL228900  12.399  17.730   3.013  0.1325 -0.0299  0.1242
    1DIPC   C1A28901  11.779  17.839   3.528 -0.0664  0.0597  0.1363
    1DIPC   D2A28902  11.884  18.108   3.855 -0.1760 -0.0198  0.0458
    1DIPC   D3A28903  11.628  17.957   4.163  0.2606 -0.1442 -0.0015
    1DIPC   C4A28904  11.669  17.846   4.669  0.0384 -0.1222  0.0950
    1DIPC   C1B28905  12.308  17.582   3.428 -0.1026 -0.2261  0.0655
    1DIPC   D2B28906  12.109  17.591   3.757  0.1823 -0.0333  0.2775
    1DIPC   D3B28907  12.349  17.406   4.048 -0.1926 -0.0254 -0.0791
    1DIPC   C4B28908  12.454  17.591   4.449  0.3258  0.1033  0.1513
    1DIPC   NC328909  15.861  24.296   3.007 -0.1197  0.2056 -0.2387
    1DIPC   PO428910  15.950  24.767   3.096  0.1329 -0.1812 -0.3467
    1DIPC   GL128911  15.750  24.819   3.420  0.0850 -0.0488  0.0728
    1DIPC   GL228912  15.632  24.466   3.496  0.1959  0.2691 -0.0295
    1DIPC   C1A28913  16.020  24.781   3.866  0.1365  0.1643 -0.0780
    1DIPC   D2A28914  16.449  24.785   3.901 -0.0497  0.1051  0.0156
    1DIPC   D3A28915  16.693  24.713   4.203  0.3963 -0.1056  0.0069
    1DIPC   C4A28916  16.668  24.966   4.599  0.4951  0.2546 -0.0407
    1DIPC   C1B28917  15.635  24.335   3.708  0.1152  0.1265 -0.1899
    1DIPC   D2B28918  15.796  24.110   4.015  0.0829  0.1248 -0.1786
    1DIPC   D3B28919  15.982  24.183   4.445 -0.2838 -0.2246  0.2736
    1DIPC   C4B28920  16.195  23.927   4.598  0.0605 -0.0267 -0.0065
    1DIPC   NC328921  28.390   4.030   2.606  0.0684  0.1053  0.0347
    1DIPC   PO428922  28.311   4.517   2.802 -0.0231 -0.0663 -0.1219
    1DIPC   GL128923  28.469   4.518   3.127 -0.0572  0.0370 -0.1393
    1DIPC   GL228924  28.738   4.744   3.062  0.3224 -0.0397 -0.0263
    1DIPC   C1A28925  28.843   4.257   3.289  0.1250  0.2050 -0.2998
    1DIPC   D2A28926  29.166   4.006   3.429  0.0438 -0.2647  0.1108
    1DIPC   D3A28927  29.067   3.602   3.262 -0.1372  0.0161  0.2817
    1DIPC   C4A28928  28.713   3.714   3.490 -0.3283 -0.4100  0.0105
    1DIPC   C1B28929  28.723   5.092   3.488 -0.1048  0.2403 -0.1778
    1DIPC   D2B28930  28.845   5.396   3.817  0.3656  0.1575  0.1057
    1DIPC   D3B28931  28.571   5.161   4.025 -0.1216  0.1386 -0.0257
    1DIPC   C4B28932  28.664   5.254   4.373 -0.2597  0.1628  0.0047
    1DIPC   NC328933  20.584  28.526   3.257  0.1948 -0.2067 -0.2740
    1DIPC   PO428934  20.996  28.335   3.539 -0.1077 -0.3406 -0.0645
    1DIPC   GL128935  20.900  28.230   3.956 -0.2137  0.0328  0.0092
    1DIPC   GL228936  20.781  27.943   4.060 -0.2361 -0.1085  0.1788
    1DIPC   C1A28937  21.142  28.180   4.298 -0.0588  0.1027  0.2382
    1DIPC   D2A28938  21.374  28.104   4.622  0.1019  0.0703  0.1862
    1DIPC   D3A28939  21.639  27.938   5.001  0.2169  0.1085 -0.1959
    1DIPC   C4A28940  21.850  28.205   5.274 -0.1285 -0.1767 -0.1218
    1DIPC   C1B28941  20.484  27.840   4.327  0.2901  0.0062  0.0273
    1DIPC   D2B28942  20.440  27.790   4.728 -0.2300  0.2517  0.1753
    1DIPC   D3B28943  20.131  27.826   4.910 -0.2491  0.0298  0.1238
    1DIPC   C4B28944  19.681  27.709   4.743  0.1284 -0.1473  0.0090
    1DIPC   NC328945   5.523   2.137   2.949  0.1359 -0.3911 -0.1179
    1DIPC   PO428946   5.506   1.844   3.296 -0.3728 -0.3513 -0.1002
    1DIPC   GL128947   5.531   1.774   3.688  0.3513  0.3508  0.0288
    1DIPC   GL228948   5.641   1.989   3.830 -0.0420 -0.0688 -0.0225
    1DIPC   C1A28949   5.513   1.559   4.120  0.0719  0.0318 -0.0419
    1DIPC   D2A28950   5.690   1.281   4.428  0.0340  0.0047 -0.0938
    1DIPC   D3A28951   6.190   1.394   4.468 -0.0885  0.0698  0.0006
    1DIPC   C4A28952   6.392   1.367   4.882 -0.2005 -0.0169 -0.0266
    1DIPC   C1B28953   5.579   2.124   4.224 -0.2414 -0.2277  0.2823
    1DIPC   D2B28954   5.512   2.110   4.728 -0.1098  0.1175 -0.3633
    1DIPC   D3B28955   5.354   1.768   4.553  0.0871  0.1188  0.2424
    1DIPC   C4B28956   5.425   1.519   4.873 -0.3791 -0.1001  0.2840
    1DIPC   NC328957  28.095   6.677   2.559  0.1049 -0.0898 -0.0597
    1DIPC   PO428958  27.948   6.186   2.548 -0.1628  0.0586 -0.0703
    1DIPC   GL128959  27.861   6.335   3.015 -0.0993  0.2872  0.2667
    1DIPC   GL228960  27.496   6.301   3.027  0.0541 -0.0506 -0.2989
    1DIPC   C1A28961  27.848   6.389   3.543 -0.0842 -0.2372 -0.2122
    1DIPC   D2A28962  27.712   6.719   3.862 -0.0175  0.0102 -0.1869
    1DIPC   D3A28963  27.855   6.435   4.104 -0.0014 -0.1445  0.1321
    1DIPC   C4A28964  28.100   6.478   4.365 -0.0482 -0.3401 -0.1607
    1DIPC   C1B28965  27.359   6.419   3.444  0.1931  0.1096  0.2822
    1DIPC   D2B28966  27.409   6.258   4.021 -0.1681 -0.0264  0.1973
    1DIPC   D3B28967  27.446   6.637   4.285  0.0413  0.2153  0.0871
    1DIPC   C4B28968  27.218   6.992   4.486  0.1811  0.0739  0.2459
    1DIPC   NC328969  18.566  24.976   3.121 -0.0911  0.1617 -0.1103
    1DIPC   PO428970  18.321  25.353   3.141 -0.1033 -0.0571 -0.1377
    1DIPC   GL128971  18.404  25.081   3.597 -0.2429 -0.0249 -0.0262
    1DIPC   GL228972  18.486  25.291   3.893  0.2383 -0.3120 -0.0641
    1DIPC   C1A28973  18.423  24.739   3.915 -0.0710  0.1394  0.4517
    1DIPC   D2A28974  18.369  24.341   4.085  0.0919  0.0728 -0.0985
    1DIPC   D3A28975  18.585  24.272   4.445  0.0830  0.4063  0.2066
    1DIPC   C4A28976  18.410  24.519   4.785  0.1515 -0.1049 -0.2007
    1DIPC   C1B28977  18.349  25.612   4.174  0.3181 -0.0560  0.0968
    1DIPC   D2B28978  18.531  25.417   4.538  0.1372 -0.0036 -0.0070
    1DIPC   D3B28979  18.085  25.318   4.782 -0.0178 -0.0421  0.1820
    1DIPC   C4B28980  18.022  25.479   5.272  0.1617 -0.3848  0.1877
    1DIPC   NC328981   8.509  25.486   3.104 -0.1647  0.1761 -0.0652
    1DIPC   PO428982   8.642  25.806   3.274 -0.0573 -0.1368 -0.2925
    1DIPC   GL128983   8.583  25.697   3.700 -0.0497  0.0402 -0.2943
    1DIPC   GL228984   8.328  25.568   3.626  0.0608 -0.0773 -0.0057
    1DIPC   C1A28985   8.595  25.403   4.055  0.2057 -0.0247 -0.1172
    1DIPC   D2A28986   8.518  25.522   4.527 -0.0762  0.1054 -0.0302
    1DIPC   D3A28987   8.953  25.466   4.585 -0.1332  0.0243 -0.1217
    1DIPC   C4A28988   9.018  25.356   5.017 -0.0920  0.1521 -0.0138
    1DIPC   C1B28989   8.220  25.715   4.144  0.0132 -0.0641  0.1405
    1DIPC   D2B28990   7.955  25.723   4.444  0.5748  0.2395 -0.3599
    1DIPC   D3B28991   7.584  25.693   4.434  0.1663  0.3273 -0.0048
    1DIPC   C4B28992   7.400  25.933   4.181 -0.0754 -0.0572  0.1733
    1DIPC   NC328993  20.471   1.802   3.338 -0.1517  0.0103 -0.0204
    1DIPC   PO428994  20.082   1.841   3.676  0.1638 -0.3148  0.3431
    1DIPC   GL128995  20.036   1.922   4.157 -0.0563 -0.0378 -0.0966
    1DIPC   GL228996  20.153   2.237   4.195 -0.0390  0.0627  0.1677
    1DIPC   C1A28997  20.317   1.855   4.510 -0.5776 -0.3350  0.2664
    1DIPC   D2A28998  20.709   2.185   4.442 -0.1098 -0.0578 -0.0469
    1DIPC   D3A28999  20.498   2.570   4.418  0.2698  0.2280 -0.2301
    1DIPC   C4A29000  20.093   2.360   4.639 -0.0037 -0.2350  0.1223
    1DIPC   C1B29001  19.644   2.285   4.225  0.1279 -0.1620 -0.0303
    1DIPC   D2B29002  19.585   2.308   4.634 -0.0968  0.0945  0.2851
    1DIPC   D3B29003  19.766   2.648   4.904  0.1987 -0.0545  0.0298
    1DIPC   C4B29004  20.063   2.385   5.128 -0.2996  0.2053 -0.0521
    1DIPC   NC329005   6.596  28.883   3.104 -0.3248 -0.2545  0.0806
    1DIPC   PO429006   6.943  29.148   3.267  0.0612  0.2246  0.2341
    1DIPC   GL129007   6.807  29.077   3.636  0.2576 -0.3563 -0.2040
    1DIPC   GL229008   7.017  28.866   3.831  0.1548  0.3960 -0.4685
    1DIPC   C1A29009   6.615  28.769   4.039 -0.0331 -0.1241 -0.1774
    1DIPC   D2A29010   6.354  28.800   4.401 -0.2411 -0.0148 -0.2198
    1DIPC   D3A29011   6.464  28.462   4.726 -0.1913  0.1057 -0.0175
    1DIPC   C4A29012   6.118  28.363   4.917 -0.2598  0.1072  0.1690
    1DIPC   C1B29013   6.974  28.686   4.351  0.2097  0.2080  0.3919
    1DIPC   D2B29014   6.958  28.535   4.786 -0.1932 -0.1555  0.0478
    1DIPC   D3B29015   7.072  28.903   4.794  0.1013  0.0797  0.1624
    1DIPC   C4B29016   6.809  28.975   5.212 -0.0245 -0.3338 -0.2182
    1DIPC   NC329017  16.577  21.158   2.909  0.1830  0.1454  0.2566
    1DIPC   PO429018  16.852  20.805   2.988 -0.1108 -0.1052 -0.0915
    1DIPC   GL129019  16.829  20.501   3.250 -0.0482 -0.0167  0.3055
    1DIPC   GL229020  16.443  20.438   3.251  0.0766 -0.1050  0.0115
    1DIPC   C1A29021  16.948  20.333   3.749  0.0124 -0.2669 -0.0643
    1DIPC   D2A29022  16.992  19.956   4.059  0.3306 -0.1039  0.2700
    1DIPC   D3A29023  17.183  20.188   4.393 -0.1374 -0.2537  0.1603
    1DIPC   C4A29024  17.543  20.421   4.307 -0.4618  0.0444 -0.0848
    1DIPC   C1B29025  16.488  20.195   3.662  0.2865  0.3005 -0.0665
    1DIPC   D2B29026  16.481  19.929   4.047 -0.2336 -0.3602  0.1186
    1DIPC   D3B29027  16.088  19.839   4.224  0.2631 -0.1853  0.0522
    1DIPC   C4B29028  16.029  19.524   4.554  0.0627  0.0504 -0.0166
    1DIPC   NC329029  27.031   0.172   3.268 -0.0807  0.0122  0.0273
    1DIPC   PO429030  27.498   0.078   3.160  0.1625  0.1899  0.0121
    1DIPC   GL129031  27.506   0.034   3.537  0.0797  0.0443 -0.2267
    1DIPC   GL229032  27.554  -0.201   3.754 -0.0590 -0.0614  0.2014
    1DIPC   C1A29033  27.768   0.278   3.829  0.2251  0.0693 -0.1763
    1DIPC   D2A29034  28.167   0.568   3.789 -0.0490  0.0079  0.1224
    1DIPC   D3A29035  28.029   0.366   4.254 -0.0423 -0.2971  0.0581
    1DIPC   C4A29036  27.695   0.037   4.302  0.1991  0.1498  0.1536
    1DIPC   C1B29037  27.328  -0.341   4.155  0.3580 -0.0411  0.3845
    1DIPC   D2B29038  27.404  -0.263   4.600 -0.2295  0.5041  0.1280
    1DIPC   D3B29039  27.445  -0.620   4.908 -0.0001  0.3798  0.0231
    1DIPC   C4B29040  27.720  -0.852   4.954  0.1959 -0.0836  0.0057
    1DIPC   NC329041  20.469  21.995   2.398  0.2001  0.0742  0.0300
    1DIPC   PO429042  20.595  21.642   2.098  0.1155 -0.0040  0.1601
    1DIPC   GL129043  20.511  21.490   2.557  0.0159  0.0842  0.2236
    1DIPC   GL229044  20.877  21.558   2.507 -0.0980 -0.0543  0.2323
    1DIPC   C1A29045  20.512  21.390   2.965  0.0149  0.1209 -0.1705
    1DIPC   D2A29046  20.543  21.461   3.509 -0.0899  0.0564 -0.0500
    1DIPC   D3A29047  20.792  21.820   3.319 -0.3135  0.1320 -0.0169
    1DIPC   C4A29048  20.883  22.204   3.524 -0.1044 -0.1560  0.0844
    1DIPC   C1B29049  21.012  21.484   2.972  0.3724 -0.2034  0.3144
    1DIPC   D2B29050  21.282  21.450   3.352  0.0405 -0.4012 -0.1537
    1DIPC   D3B29051  21.599  21.448   3.473 -0.0099 -0.0100 -0.0829
    1DIPC   C4B29052  21.533  21.288   3.927  0.1033  0.0413 -0.0474
    1DIPC   NC329053  15.441   4.230   3.438  0.0884 -0.1944 -0.2992
    1DIPC   PO429054  15.362   4.717   3.435 -0.0440  0.0166 -0.0495
    1DIPC   GL129055  15.168   4.866   3.823 -0.3376 -0.0010  0.0485
    1DIPC   GL229056  14.885   4.859   3.766  0.2610  0.1439  0.0677
    1DIPC   C1A29057  15.108   4.798   4.249 -0.1374  0.1209  0.2192
    1DIPC   D2A29058  15.030   5.014   4.563 -0.0095 -0.3098  0.2732
    1DIPC   D3A29059  15.484   5.136   4.841  0.1150 -0.2782  0.1402
    1DIPC   C4A29060  15.757   4.764   5.000  0.2349 -0.1563  0.1860
    1DIPC   C1B29061  15.063   5.278   3.998 -0.1027  0.1911 -0.0148
    1DIPC   D2B29062  14.942   5.515   4.406  0.1338  0.2283  0.0003
    1DIPC   D3B29063  15.031   5.436   4.840  0.0335  0.1273  0.0244
    1DIPC   C4B29064  15.390   5.511   5.186 -0.0873 -0.0305  0.0994
    1DIPC   NC329065  16.405   5.418   3.363 -0.1924 -0.1748 -0.1669
    1DIPC   PO429066  16.474   5.822   3.606  0.1060  0.0231  0.0276
    1DIPC   GL129067  16.513   5.928   4.006  0.3722  0.3736  0.2342
    1DIPC   GL229068  16.720   5.822   4.196  0.0764  0.0055  0.3866
    1DIPC   C1A29069  16.466   6.258   4.324  0.4248  0.2458 -0.0765
    1DIPC   D2A29070  16.517   6.479   4.645  0.0524  0.1130  0.0017
    1DIPC   D3A29071  16.786   6.138   4.766  0.1398  0.2080 -0.1691
    1DIPC   C4A29072  16.919   6.025   5.180  0.1104  0.3314  0.2462
    1DIPC   C1B29073  16.448   5.661   4.522 -0.0255  0.0864 -0.1063
    1DIPC   D2B29074  16.132   5.462   4.740 -0.2961 -0.0221 -0.3074
    1DIPC   D3B29075  15.957   5.209   4.867  0.0190  0.4414 -0.0024
    1DIPC   C4B29076  16.311   5.283   5.201 -0.0227 -0.0463 -0.0012
    1DIPC   NC329077  17.439  22.978   2.694  0.1979 -0.1369 -0.2309
    1DIPC   PO429078  17.694  22.904   3.070  0.0985 -0.2265 -0.1957
    1DIPC   GL129079  17.640  22.539   3.333 -0.0771  0.0073  0.1053
    1DIPC   GL229080  17.910  22.253   3.387 -0.0826 -0.0497  0.1414
    1DIPC   C1A29081  17.455  22.290   3.716  0.0046 -0.3239  0.2301
    1DIPC   D2A29082  17.436  22.271   4.198 -0.3548  0.1779  0.0597
    1DIPC   D3A29083  17.834  22.457   4.206 -0.1140  0.2311 -0.1033
    1DIPC   C4A29084  17.968  22.543   3.786 -0.1907 -0.0035  0.0407
    1DIPC   C1B29085  18.288  22.197   3.541  0.0033 -0.1272 -0.0309
    1DIPC   D2B29086  18.457  22.596   3.795 -0.0433 -0.0593  0.0042
    1DIPC   D3B29087  18.667  22.909   4.237  0.2735 -0.1559  0.0056
    1DIPC   C4B29088  18.922  22.670   4.528  0.1466 -0.5997 -0.3892
    1DIPC   NC329089   7.660   2.287   3.550  0.0827  0.1424 -0.2747
    1DIPC   PO429090   7.639   2.707   3.514 -0.1691 -0.1678 -0.0284
    1DIPC   GL129091   7.396   2.579   3.912  0.0856 -0.0937 -0.0279
    1DIPC   GL229092   7.223   2.301   3.897  0.1066  0.1176 -0.2076
    1DIPC   C1A29093   7.362   2.724   4.355 -0.0982  0.2068 -0.0298
    1DIPC   D2A29094   7.579   2.828   4.757 -0.2726 -0.2133  0.1448
    1DIPC   D3A29095   7.894   2.752   5.068 -0.1297  0.3548 -0.0631
    1DIPC   C4A29096   8.024   2.449   5.261 -0.1463  0.3529 -0.0180
    1DIPC   C1B29097   6.969   2.364   4.292 -0.0921  0.0420  0.2112
    1DIPC   D2B29098   6.960   2.274   4.731 -0.2092 -0.2342 -0.0371
    1DIPC   D3B29099   7.178   2.016   4.959  0.1629 -0.2549  0.3240
    1DIPC   C4B29100   7.000   1.821   5.339  0.2996  0.0236 -0.0580
    1DIPC   NC329101   1.952  10.242   2.463  0.2493  0.0398  0.3438
    1DIPC   PO429102   1.998   9.844   2.484 -0.0298  0.0935  0.0275
    1DIPC   GL129103   1.806   9.623   2.856  0.0838 -0.0393  0.1507
    1DIPC   GL229104   1.542   9.531   2.844 -0.2145  0.0077 -0.0473
    1DIPC   C1A29105   1.757   9.763   3.344  0.2906  0.2162  0.1228
    1DIPC   D2A29106   1.717   9.882   3.663  0.1563 -0.0653 -0.0530
    1DIPC   D3A29107   1.696   9.695   4.065 -0.0770 -0.1407 -0.1058
    1DIPC   C4A29108   1.399   9.723   4.477  0.0104  0.3207  0.1035
    1DIPC   C1B29109   1.446   9.318   3.205  0.2709 -0.2543 -0.0624
    1DIPC   D2B29110   1.531   9.380   3.678 -0.0218  0.0930 -0.1687
    1DIPC   D3B29111   1.244   9.386   4.059  0.0698 -0.0629 -0.1352
    1DIPC   C4B29112   0.814   9.472   4.082 -0.0777 -0.2676 -0.1699
    1DIPC   NC329113  27.792   4.966   2.983  0.0814 -0.2868  0.0386
    1DIPC   PO429114  27.604   4.762   3.167 -0.1106 -0.0312  0.0237
    1DIPC   GL129115  27.836   4.949   3.520  0.0571 -0.2347 -0.2449
    1DIPC   GL229116  28.087   5.038   3.416  0.2789  0.0486 -0.1011
    1DIPC   C1A29117  28.028   4.863   3.909 -0.1856  0.3270 -0.0788
    1DIPC   D2A29118  28.369   4.726   4.241 -0.0885 -0.1396  0.0615
    1DIPC   D3A29119  28.554   4.623   3.936  0.1261  0.2211  0.0096
    1DIPC   C4A29120  28.420   4.648   3.636 -0.2715  0.2780 -0.1023
    1DIPC   C1B29121  27.808   5.387   3.688 -0.0576  0.2528 -0.0112
    1DIPC   D2B29122  27.384   5.529   3.753  0.0233 -0.2412 -0.2919
    1DIPC   D3B29123  27.482   5.337   4.101  0.2278  0.4322 -0.0290
    1DIPC   C4B29124  27.407   5.520   4.502 -0.1632  0.1275 -0.1319
    1DIPC   NC329125  27.952   0.026   3.058  0.0754  0.0774  0.0362
    1DIPC   PO429126  28.449   0.151   3.253  0.0545 -0.0881 -0.1842
    1DIPC   GL129127  28.706   0.091   3.640 -0.0057  0.0009 -0.3251
    1DIPC   GL229128  28.976   0.248   3.765  0.0870  0.0642 -0.0471
    1DIPC   C1A29129  28.770  -0.137   4.033 -0.0547 -0.0927  0.0782
    1DIPC   D2A29130  28.844  -0.312   4.417  0.0563 -0.1579  0.2119
    1DIPC   D3A29131  29.009   0.011   4.782 -0.4508  0.1744  0.1183
    1DIPC   C4A29132  28.716   0.272   5.096  0.3715  0.0788  0.3062
    1DIPC   C1B29133  29.327  -0.031   4.127  0.0011 -0.0566  0.2243
    1DIPC   D2B29134  29.324  -0.265   4.478  0.1861 -0.2190  0.3078
    1DIPC   D3B29135  29.450  -0.245   4.838  0.1198 -0.1260  0.1552
    1DIPC   C4B29136  29.771   0.112   4.995  0.1377  0.1420 -0.1357
    1DIPC   NC329137  24.595   3.788   3.383 -0.2128  0.0770  0.3700
    1DIPC   PO429138  24.972   4.008   3.382 -0.0396  0.1126  0.2306
    1DIPC   GL129139  24.936   4.211   3.831 -0.0515  0.0682 -0.2328
    1DIPC   GL229140  24.703   4.135   4.046  0.0494 -0.2321 -0.0045
    1DIPC   C1A29141  25.190   4.142   4.126 -0.1093 -0.1815  0.0362
    1DIPC   D2A29142  25.527   3.984   4.375  0.0389  0.5484 -0.0625
    1DIPC   D3A29143  25.315   3.965   4.741 -0.2144 -0.1583 -0.0374
    1DIPC   C4A29144  24.926   4.123   4.562 -0.3108  0.0447  0.0625
    1DIPC   C1B29145  24.406   4.115   4.365  0.0980  0.1551  0.0225
    1DIPC   D2B29146  24.453   3.901   4.776 -0.0143  0.1265 -0.0443
    1DIPC   D3B29147  24.353   4.245   4.964  0.0489 -0.0066  0.0474
    1DIPC   C4B29148  24.256   4.225   5.499 -0.1027  0.0955  0.0364
    1DIPC   NC329149  14.969  11.015   2.979 -0.0421 -0.2942 -0.0327
    1DIPC   PO429150  14.493  10.951   3.038  0.0360 -0.0271 -0.0806
    1DIPC   GL129151  14.749  11.083   3.416 -0.0033  0.0789  0.0976
    1DIPC   GL229152  14.975  11.385   3.521  0.0482 -0.0630 -0.2278
    1DIPC   C1A29153  14.568  11.073   3.843  0.1887 -0.2116 -0.1237
    1DIPC   D2A29154  14.240  11.176   4.175  0.0897 -0.1239  0.0929
    1DIPC   D3A29155  14.632  10.916   4.366 -0.1705  0.2253  0.2259
    1DIPC   C4A29156  14.574  10.426   4.552  0.2818 -0.0901  0.1397
    1DIPC   C1B29157  15.092  11.172   3.903 -0.1235  0.4574  0.0134
    1DIPC   D2B29158  15.070  11.210   4.365  0.0435  0.2425 -0.2059
    1DIPC   D3B29159  15.452  11.434   4.380  0.2307 -0.1882  0.2979
    1DIPC   C4B29160  15.764  11.231   4.746 -0.0470 -0.2003 -0.2145
    1DIPC   NC329161   7.328  29.438   3.222  0.1316  0.0916 -0.3951
    1DIPC   PO429162   7.218  29.890   3.259  0.0140 -0.1778 -0.3447
    1DIPC   GL129163   6.927  29.786   3.553  0.1653  0.1900 -0.2151
    1DIPC   GL229164   7.098  29.650   3.739 -0.2494 -0.0423  0.1865
    1DIPC   C1A29165   6.639  29.904   3.919 -0.4893 -0.2173  0.2233
    1DIPC   D2A29166   6.639  29.954   4.398 -0.0815  0.1962  0.2847
    1DIPC   D3A29167   6.843  29.711   4.692  0.0422 -0.1043  0.3243
    1DIPC   C4A29168   6.849  29.396   4.929  0.0025 -0.2714 -0.0209
    1DIPC   C1B29169   7.322  29.465   3.919 -0.1379 -0.0185  0.1810
    1DIPC   D2B29170   7.690  29.272   3.945 -0.0251  0.0064  0.1837
    1DIPC   D3B29171   7.956  29.496   4.009 -0.1606  0.0125  0.0808
    1DIPC   C4B29172   8.121  29.546   4.435 -0.1261  0.3194  0.1517
    1DIPC   NC329173  13.911  11.558   3.113  0.2054 -0.0266 -0.1878
    1DIPC   PO429174  13.752  11.930   3.191 -0.0065 -0.1575 -0.1473
    1DIPC   GL129175  13.515  11.913   3.631  0.0552  0.2107  0.0121
    1DIPC   GL229176  13.168  11.798   3.690 -0.1165  0.0112  0.1731
    1DIPC   C1A29177  13.365  12.113   4.041  0.0373 -0.1282  0.2464
    1DIPC   D2A29178  13.302  12.248   4.475 -0.0053 -0.1083  0.2980
    1DIPC   D3A29179  13.094  11.806   4.578 -0.0931 -0.3191  0.0035
    1DIPC   C4A29180  12.831  11.796   4.899  0.2319 -0.0536  0.2794
    1DIPC   C1B29181  12.997  11.456   4.128 -0.1285  0.2023 -0.1144
    1DIPC   D2B29182  12.641  11.704   4.412  0.5035  0.0036  0.1245
    1DIPC   D3B29183  12.467  11.305   4.272  0.0937  0.1585  0.0971
    1DIPC   C4B29184  12.664  11.052   4.065 -0.0349 -0.1107 -0.0126
    1CHOL   ROH29185  27.583  12.495   4.594  0.0513 -0.0337  0.4363
    1CHOL    R129186  27.446  12.692   4.444  0.2637 -0.0211  0.2541
    1CHOL    R229187  27.171  12.708   4.436  0.2643 -0.0895 -0.2276
    1CHOL    R329188  27.216  12.965   4.513  0.0660 -0.1025 -0.0615
    1CHOL    R429189  26.970  12.978   4.354  0.2600 -0.1340 -0.3672
    1CHOL    R529190  27.150  13.097   4.325  0.2526 -0.0498 -0.0902
    1CHOL    C129191  26.895  13.375   4.380  0.0714 -0.1722 -0.2926
    1CHOL    C229192  26.463  13.470   4.176  0.0366 -0.1423 -0.1025
    1CHOL   ROH29193   6.345  24.987   5.907  0.0928  0.1170 -0.0009
    1CHOL    R129194   6.482  24.860   5.695  0.0331  0.0464  0.0020
    1CHOL    R229195   6.380  24.641   5.561 -0.0259  0.0285  0.0723
    1CHOL    R329196   6.421  24.796   5.341 -0.0458 -0.0271  0.0292
    1CHOL    R429197   6.485  24.523   5.254 -0.0051 -0.0375  0.1047
    1CHOL    R529198   6.613  24.698   5.236 -0.0321 -0.0258  0.0572
    1CHOL    C129199   6.585  24.599   4.869 -0.0118 -0.1283  0.0833
    1CHOL    C229200   6.650  24.487   4.466 -0.0450 -0.4632  0.0848
    1CHOL   ROH29201   4.849  13.996   3.043  0.2660  0.0748 -0.0723
    1CHOL    R129202   4.652  14.054   3.238  0.2057 -0.1068 -0.0750
    1CHOL    R229203   4.686  13.996   3.507  0.2653 -0.0569 -0.0614
    1CHOL    R329204   4.629  14.260   3.538  0.0097 -0.1074 -0.0923
    1CHOL    R429205   4.607  14.147   3.807  0.0818 -0.0804 -0.0976
    1CHOL    R529206   4.456  14.264   3.703 -0.0095 -0.2404 -0.1210
    1CHOL    C129207   4.507  14.483   4.011 -0.2649 -0.1414 -0.1476
    1CHOL    C229208   4.254  14.533   4.318  0.3019 -0.0545 -0.2212
    1CHOL   ROH29209   4.531  20.885   3.026 -0.0489  0.2531 -0.0785
    1CHOL    R129210   4.592  20.736   3.259 -0.2057  0.1032 -0.1310
    1CHOL    R229211   4.770  20.825   3.451  0.0121 -0.2201 -0.1730
    1CHOL    R329212   4.560  20.782   3.618 -0.0046  0.0838 -0.1096
    1CHOL    R429213   4.786  20.844   3.795  0.1385 -0.2201 -0.1786
    1CHOL    R529214   4.657  20.668   3.806 -0.1076 -0.0420 -0.1312
    1CHOL    C129215   4.599  20.814   4.153  0.1964  0.0653 -0.1223
    1CHOL    C229216   4.475  20.696   4.428 -0.4021 -0.0714  0.2453
    1CHOL   ROH29217   4.804  23.246   3.663  0.0927  0.1400  0.2009
    1CHOL    R129218   4.695  23.265   3.924  0.1006  0.0385  0.2119
    1CHOL    R229219   4.494  23.098   4.014 -0.0143  0.1131  0.0934
    1CHOL    R329220   4.669  23.050   4.216 -0.0508 -0.1426  0.0685
    1CHOL    R429221   4.409  23.078   4.348  0.0124  0.3510  0.1163
    1CHOL    R529222   4.591  23.188   4.396  0.2226  0.0483  0.0501
    1CHOL    C129223   4.523  23.022   4.733 -0.0063  0.2495  0.1061
    1CHOL    C229224   4.291  22.902   4.924  0.0069  0.3943  0.1250
    1CHOL   ROH29225   1.705  19.922   2.877  0.0294  0.1627  0.0162
    1CHOL    R129226   1.766  19.879   3.150 -0.1029 -0.1028  0.0066
    1CHOL    R229227   1.838  20.084   3.321  0.3599 -0.3368  0.1037
    1CHOL    R329228   1.634  19.987   3.471  0.1044  0.0727  0.0362
    1CHOL    R429229   1.806  20.125   3.663  0.2769 -0.1834  0.0786
    1CHOL    R529230   1.736  19.920   3.676 -0.1073 -0.0628  0.1036
    1CHOL    C129231   1.594  20.058   4.002 -0.0113  0.2901  0.0007
    1CHOL    C229232   1.558  19.947   4.251 -0.2465 -0.3189 -0.2390
    1CHOL   ROH29233   8.059  23.891   3.130  0.1194 -0.0481  0.1014
    1CHOL    R129234   8.016  23.873   3.409  0.1736 -0.0701  0.1084
    1CHOL    R229235   7.878  23.663   3.525  0.1124 -0.0291  0.1087
    1CHOL    R329236   8.104  23.640   3.675  0.1361 -0.1445  0.0566
    1CHOL    R429237   7.922  23.437   3.783  0.0367 -0.0240  0.1260
    1CHOL    R529238   8.024  23.593   3.896  0.1586 -0.0687  0.0823
    1CHOL    C129239   8.160  23.285   4.074  0.0148 -0.1294  0.0872
    1CHOL    C229240   8.425  23.137   4.073 -0.2892 -0.1675  0.0603
    1CHOL   ROH29241   2.110   8.281   6.120  0.0006  0.1278  0.0017
    1CHOL    R129242   2.006   8.211   5.866  0.0418  0.1236 -0.0142
    1CHOL    R229243   1.752   8.284   5.784  0.0249  0.0540 -0.0255
    1CHOL    R329244   1.887   8.388   5.571  0.0093  0.1196 -0.0034
    1CHOL    R429245   1.604   8.432   5.509  0.0023  0.0765 -0.0011
    1CHOL    R529246   1.751   8.333   5.382  0.0240  0.1287 -0.0165
    1CHOL    C129247   1.643   8.615   5.150 -0.0256  0.1513  0.0340
    1CHOL    C229248   1.549   8.718   4.862 -0.2183  0.0667  0.1719
    1CHOL   ROH29249  25.982  17.302   5.236 -0.0784 -0.3175  0.1591
    1CHOL    R129250  26.182  17.263   5.039  0.0335 -0.0871  0.2249
    1CHOL    R229251  26.125  17.172   4.786  0.2318 -0.2563  0.2455
    1CHOL    R329252  26.259  17.396   4.709 -0.0737 -0.0808  0.1997
    1CHOL    R429253  26.287  17.210   4.483  0.3166 -0.1718  0.2999
    1CHOL    R529254  26.449  17.312   4.589  0.1193  0.1374  0.3322
    1CHOL    C129255  26.508  17.442   4.235  0.0791  0.0417  0.2886
    1CHOL    C229256  26.713  17.598   3.870  0.0157 -0.1200  0.0143
    1CHOL   ROH29257  28.751  22.061   5.892 -0.1763 -0.0355  0.0077
    1CHOL    R129258  28.753  21.984   5.620 -0.1678  0.0256 -0.0093
    1CHOL    R229259  28.703  22.161   5.414  0.0306  0.1141  0.0199
    1CHOL    R329260  28.942  22.072   5.321 -0.0170 -0.0594  0.0592
    1CHOL    R429261  28.819  22.207   5.092  0.1824  0.1776  0.0821
    1CHOL    R529262  28.896  22.003   5.096 -0.0058  0.0991  0.0054
    1CHOL    C129263  29.111  22.150   4.817  0.2259  0.0519  0.1554
    1CHOL    C229264  29.291  22.002   4.623 -0.2720  0.1694  0.0741
    1CHOL   ROH29265  22.053   9.870   6.096  0.0042 -0.1991  0.1594
    1CHOL    R129266  22.196   9.781   5.868 -0.0854 -0.2823  0.1351
    1CHOL    R229267  22.070   9.678   5.644 -0.1896 -0.1339  0.1229
    1CHOL    R329268  22.212   9.870   5.515 -0.0297 -0.2324  0.1504
    1CHOL    R429269  22.114   9.694   5.302 -0.2095 -0.0984  0.1220
    1CHOL    R529270  22.321   9.753   5.337 -0.1521 -0.2912  0.1140
    1CHOL    C129271  22.274   9.884   4.981 -0.0710 -0.1702  0.1473
    1CHOL    C229272  22.487   9.867   4.670 -0.2966  0.1614  0.1490
    1CHOL   ROH29273  17.668  19.222   5.964 -0.3082 -0.1574 -0.0782
    1CHOL    R129274  17.665  19.201   5.681 -0.1795 -0.1764 -0.0788
    1CHOL    R229275  17.792  19.384   5.517 -0.2368 -0.0990 -0.0376
    1CHOL    R329276  17.912  19.162   5.417 -0.0437 -0.0245  0.0230
    1CHOL    R429277  17.964  19.370   5.218 -0.2132 -0.0285 -0.0276
    1CHOL    R529278  17.875  19.175   5.181 -0.0473 -0.1155  0.0180
    1CHOL    C129279  18.177  19.153   4.949 -0.0185  0.0826  0.0351
    1CHOL    C229280  18.358  18.920   4.810 -0.0412  0.0082 -0.0454
    1CHOL   ROH29281   6.867  12.175   3.186 -0.1593  0.3183 -0.0102
    1CHOL    R129282   7.004  12.156   3.433 -0.0368  0.1176 -0.0905
    1CHOL    R229283   6.960  12.332   3.641  0.2076  0.0696  0.0072
    1CHOL    R329284   6.914  12.104   3.781  0.1135  0.0459 -0.0620
    1CHOL    R429285   6.953  12.309   3.986  0.0169  0.0005 -0.0005
    1CHOL    R529286   7.059  12.120   3.971  0.0102 -0.0033  0.0207
    1CHOL    C129287   6.906  12.082   4.318 -0.1824 -0.0620 -0.0699
    1CHOL    C229288   7.000  11.863   4.650 -0.1676  0.4758  0.2674
    1CHOL   ROH29289   2.051  15.269   6.286  0.0459 -0.1379 -0.0606
    1CHOL    R129290   2.093  15.378   6.028  0.0247 -0.1694 -0.0780
    1CHOL    R229291   2.335  15.364   5.898  0.0533 -0.0692 -0.0424
    1CHOL    R329292   2.187  15.253   5.699  0.1367 -0.1906 -0.0373
    1CHOL    R429293   2.424  15.363   5.564 -0.0338  0.1394 -0.0676
    1CHOL    R529294   2.215  15.403   5.514 -0.0958 -0.1005  0.0002
    1CHOL    C129295   2.336  15.258   5.183 -0.0062  0.1469 -0.0774
    1CHOL    C229296   2.211  15.201   4.854  0.0210 -0.1997  0.1924
    1CHOL   ROH29297   0.993  15.382   6.105  0.2379 -0.1524  0.0562
    1CHOL    R129298   1.150  15.249   5.910  0.0403 -0.2301 -0.0530
    1CHOL    R229299   1.038  15.092   5.711 -0.1860 -0.0517 -0.0757
    1CHOL    R329300   1.181  15.255   5.547 -0.0909 -0.1213 -0.0624
    1CHOL    R429301   1.100  15.030   5.377 -0.1933 -0.0700 -0.0734
    1CHOL    R529302   1.303  15.105   5.406 -0.1589 -0.1765 -0.0588
    1CHOL    C129303   1.270  15.146   5.028 -0.1082 -0.1458 -0.0595
    1CHOL    C229304   1.303  14.839   4.814 -0.4150 -0.0280  0.0885
    1CHOL   ROH29305  27.613  14.569   5.531  0.0900  0.1138  0.1109
    1CHOL    R129306  27.543  14.644   5.267  0.1586  0.0931  0.0862
    1CHOL    R229307  27.686  14.563   5.046  0.1273 -0.0533  0.1171
    1CHOL    R329308  27.444  14.473   4.962  0.0766  0.0773  0.1216
    1CHOL    R429309  27.623  14.430   4.733  0.0682 -0.1060  0.1512
    1CHOL    R529310  27.434  14.538   4.731  0.1384  0.0152  0.1022
    1CHOL    C129311  27.359  14.268   4.472 -0.0136 -0.0140  0.1753
    1CHOL    C229312  27.216  14.249   4.234 -0.5669 -0.1125  0.1509
    1CHOL   ROH29313   0.068   2.102   5.861  0.0533 -0.0936 -0.2094
    1CHOL    R129314  -0.080   2.025   5.632 -0.0607  0.0121 -0.1716
    1CHOL    R229315  -0.356   2.028   5.625 -0.0594  0.1876 -0.0927
    1CHOL    R329316  -0.317   2.183   5.406 -0.0267  0.1737 -0.0973
    1CHOL    R429317  -0.543   2.011   5.335  0.1196  0.0109 -0.2008
    1CHOL    R529318  -0.360   2.037   5.221  0.1756  0.1075 -0.0975
    1CHOL    C129319  -0.615   2.147   4.960  0.2545 -0.1050 -0.2681
    1CHOL    C229320  -0.851   1.882   4.828  0.1323 -0.0795  0.3415
    1CHOL   ROH29321   6.670  14.571   3.148 -0.0870  0.0753  0.0915
    1CHOL    R129322   6.692  14.688   3.405 -0.0054  0.0263  0.1072
    1CHOL    R229323   6.480  14.813   3.530  0.0627  0.0990  0.1529
    1CHOL    R329324   6.539  14.639   3.731  0.0129  0.0416  0.1179
    1CHOL    R429325   6.387  14.854   3.861 -0.0346 -0.0057  0.1390
    1CHOL    R529326   6.583  14.779   3.920 -0.0488 -0.0137  0.1732
    1CHOL    C129327   6.388  14.715   4.242 -0.1381 -0.1205  0.0980
    1CHOL    C229328   6.241  14.608   4.530 -0.4394  0.2973  0.0063
    1CHOL   ROH29329  11.709  15.741   4.031  0.3294 -0.0966  0.1724
    1CHOL    R129330  11.685  15.729   4.313  0.1481  0.0447  0.1659
    1CHOL    R229331  11.491  15.868   4.452 -0.0407 -0.0014 -0.0384
    1CHOL    R329332  11.434  15.622   4.553  0.0541  0.0140  0.0532
    1CHOL    R429333  11.302  15.809   4.736 -0.0808  0.0227 -0.0605
    1CHOL    R529334  11.442  15.652   4.790 -0.0195  0.1159  0.0411
    1CHOL    C129335  11.139  15.544   4.995 -0.0152  0.0512  0.0125
    1CHOL    C229336  10.805  15.335   4.933 -0.1599  0.1906  0.1878
    1CHOL   ROH29337  24.468  14.227   3.180 -0.0282  0.0081  0.1680
    1CHOL    R129338  24.242  14.296   3.336 -0.1990 -0.0445 -0.0568
    1CHOL    R229339  24.188  14.555   3.411 -0.1682 -0.1031  0.1281
    1CHOL    R329340  23.947  14.505   3.295 -0.0560  0.1323 -0.2301
    1CHOL    R429341  23.895  14.726   3.482 -0.2098 -0.1586  0.1040
    1CHOL    R529342  23.788  14.536   3.472 -0.2443 -0.1378 -0.3358
    1CHOL    C129343  23.499  14.777   3.414 -0.1286  0.0301 -0.2464
    1CHOL    C229344  23.259  15.052   3.268  0.2076 -0.0568  0.1579
    1CHOL   ROH29345   6.477  16.229   3.209  0.1431  0.0475  0.0336
    1CHOL    R129346   6.337  16.376   3.407 -0.1448 -0.1863  0.0122
    1CHOL    R229347   6.234  16.258   3.635  0.0898 -0.3541  0.0418
    1CHOL    R329348   6.380  16.450   3.761 -0.2737 -0.0384 -0.0036
    1CHOL    R429349   6.266  16.290   3.978  0.3625 -0.4696  0.0290
    1CHOL    R529350   6.251  16.506   3.954 -0.2263 -0.4849  0.1636
    1CHOL    C129351   6.421  16.489   4.295  0.1801 -0.2407 -0.0211
    1CHOL    C229352   6.586  16.386   4.718  0.2534 -0.0845  0.0314
    1CHOL   ROH29353  19.128  11.898   4.060  0.2344  0.0852  0.1723
    1CHOL    R129354  19.304  11.676   4.064  0.1748  0.0225 -0.2105
    1CHOL    R229355  19.324  11.505   4.280  0.7414  0.1422 -0.1392
    1CHOL    R329356  19.274  11.315   4.093  0.1075  0.0526  0.0975
    1CHOL    R429357  19.469  11.192   4.273  0.6291  0.0943 -0.4352
    1CHOL    R529358  19.486  11.210   4.057 -0.0260 -0.0304 -0.5060
    1CHOL    C129359  19.508  10.831   4.094 -0.0312 -0.0176 -0.3854
    1CHOL    C229360  19.696  10.486   4.023 -0.2383  0.0474 -0.1024
    1CHOL   ROH29361   8.625  17.507   6.359  0.0506  0.2450  0.0462
    1CHOL    R129362   8.486  17.601   6.131  0.1184  0.1560 -0.0322
    1CHOL    R229363   8.591  17.584   5.876  0.1785  0.0207  0.0000
    1CHOL    R329364   8.356  17.457   5.823  0.1739  0.0268  0.0043
    1CHOL    R429365   8.414  17.613   5.581  0.2980 -0.1706 -0.0925
    1CHOL    R529366   8.229  17.617   5.698  0.2536 -0.0443 -0.1681
    1CHOL    C129367   8.090  17.510   5.359  0.3634 -0.2762 -0.1422
    1CHOL    C229368   7.944  17.520   4.918 -0.1465 -0.0242  0.2692
    1CHOL   ROH29369   7.338  24.947   5.014  0.1300 -0.0833 -0.0330
    1CHOL    R129370   7.467  25.191   5.077  0.0602 -0.0485 -0.0232
    1CHOL    R229371   7.631  25.323   4.899  0.1845 -0.0987  0.0521
    1CHOL    R329372   7.465  25.532   4.950  0.1250 -0.0950 -0.1494
    1CHOL    R429373   7.734  25.651   4.937  0.1653 -0.1209  0.3138
    1CHOL    R529374   7.590  25.671   5.100 -0.0954 -0.1535  0.0942
    1CHOL    C129375   7.638  26.038   5.006  0.0984 -0.1303  0.2769
    1CHOL    C229376   7.821  26.454   4.948  0.1014 -0.0011  0.0228
    1CHOL   ROH29377   6.891  19.728   6.137 -0.0782  0.0832 -0.0169
    1CHOL    R129378   6.955  19.602   5.892  0.0250  0.0036  0.0501
    1CHOL    R229379   6.763  19.492   5.726  0.0978 -0.0816  0.0204
    1CHOL    R329380   6.878  19.654   5.540  0.1418 -0.1326  0.0036
    1CHOL    R429381   6.690  19.489   5.388  0.0953 -0.0976  0.0214
    1CHOL    R529382   6.902  19.515   5.347  0.1027 -0.1600  0.0183
    1CHOL    C129383   6.755  19.639   5.018  0.1351 -0.1548  0.0064
    1CHOL    C229384   6.653  19.447   4.797 -0.0307  0.1583 -0.0437
    1CHOL   ROH29385  26.594   9.866   3.233  0.1197 -0.3417  0.0290
    1CHOL    R129386  26.783   9.949   3.426  0.1300 -0.2660 -0.0129
    1CHOL    R229387  26.720   9.978   3.694  0.1102 -0.0394 -0.0383
    1CHOL    R329388  26.932   9.810   3.728  0.0436 -0.0951  0.1095
    1CHOL    R429389  26.912   9.957   3.981  0.0079  0.0237  0.0352
    1CHOL    R529390  27.089   9.938   3.855  0.0436 -0.0921  0.1044
    1CHOL    C129391  27.222   9.788   4.180 -0.1142  0.0083  0.2168
    1CHOL    C229392  27.218   9.350   4.417 -0.3390  0.1457 -0.0646
    1CHOL   ROH29393   0.616  19.889   2.587 -0.1031 -0.2277  0.0733
    1CHOL    R129394   0.551  19.886   2.862  0.1547 -0.0907  0.1389
    1CHOL    R229395   0.726  19.973   3.058  0.1855  0.4099 -0.0996
    1CHOL    R329396   0.517  20.132   3.128 -0.0412  0.1033 -0.0607
    1CHOL    R429397   0.639  20.054   3.382  0.0944  0.2353 -0.0791
    1CHOL    R529398   0.430  20.031   3.327  0.1161 -0.0566 -0.0681
    1CHOL    C129399   0.393  20.249   3.637 -0.1714 -0.1540 -0.0306
    1CHOL    C229400   0.157  20.282   3.911  0.1851 -0.0644  0.0219
    1CHOL   ROH29401  28.486  27.691   3.711 -0.1271  0.1003 -0.0251
    1CHOL    R129402  28.676  27.603   3.902 -0.1575 -0.0247 -0.0530
    1CHOL    R229403  28.942  27.675   3.891 -0.1373 -0.1201 -0.0348
    1CHOL    R329404  28.897  27.759   4.145 -0.0954 -0.1800 -0.0061
    1CHOL    R429405  29.185  27.798   4.104 -0.1184 -0.0218 -0.1107
    1CHOL    R529406  29.091  27.687   4.267 -0.0068 -0.0996 -0.0875
    1CHOL    C129407  29.284  27.948   4.467 -0.0682 -0.0209 -0.1280
    1CHOL    C229408  29.602  28.012   4.693  0.0492 -0.1582 -0.4038
    1CHOL   ROH29409   2.912  11.322   6.212 -0.2142  0.0906 -0.1301
    1CHOL    R129410   2.743  11.388   5.994 -0.1288  0.1415 -0.1822
    1CHOL    R229411   2.800  11.596   5.820 -0.0294  0.1457 -0.1492
    1CHOL    R329412   2.773  11.402   5.632 -0.0037  0.1648 -0.1714
    1CHOL    R429413   2.792  11.651   5.479  0.0546  0.1753 -0.1456
    1CHOL    R529414   2.635  11.501   5.463  0.0452  0.1915 -0.1945
    1CHOL    C129415   2.763  11.501   5.104  0.1277  0.2106 -0.1643
    1CHOL    C229416   2.617  11.699   4.751  0.1435  0.3657 -0.2646
    1CHOL   ROH29417   5.373  16.910   6.515  0.1488  0.2167  0.0033
    1CHOL    R129418   5.515  16.971   6.278  0.1597  0.0683 -0.0290
    1CHOL    R229419   5.672  16.786   6.146 -0.0034 -0.0746 -0.0232
    1CHOL    R329420   5.518  16.854   5.933  0.0163  0.0092 -0.0109
    1CHOL    R429421   5.765  16.747   5.816 -0.0926 -0.2267 -0.0319
    1CHOL    R529422   5.674  16.941   5.773  0.0633 -0.1572 -0.0578
    1CHOL    C129423   5.674  16.790   5.423 -0.1261 -0.2366 -0.0254
    1CHOL    C229424   5.900  16.855   5.117 -0.2860  0.1916 -0.0074
    1CHOL   ROH29425  18.108   9.610   3.500  0.0686 -0.1068  0.2396
    1CHOL    R129426  18.088   9.511   3.764  0.4052  0.0492  0.3290
    1CHOL    R229427  18.202   9.640   3.981  0.1446  0.5306  0.1942
    1CHOL    R329428  17.950   9.626   4.081  0.1926 -0.0453  0.2723
    1CHOL    R429429  18.113   9.725   4.303  0.0136  0.5872  0.1436
    1CHOL    R529430  17.979   9.553   4.307  0.4564  0.2256  0.3321
    1CHOL    C129431  17.825   9.763   4.585 -0.0177  0.0796  0.1875
    1CHOL    C229432  17.683   9.610   4.956  0.2726  0.0670  0.3021
    1CHOL   ROH29433  13.061  27.050   5.619 -0.0749 -0.1038  0.1247
    1CHOL    R129434  13.016  27.070   5.340  0.1412  0.1233  0.1024
    1CHOL    R229435  13.219  27.119   5.160  0.3461 -0.1018  0.2676
    1CHOL    R329436  13.125  26.893   5.042  0.0578  0.1082  0.0802
    1CHOL    R429437  13.343  26.983   4.867  0.3897 -0.1858  0.3241
    1CHOL    R529438  13.138  26.939   4.807  0.3592  0.1965  0.1083
    1CHOL    C129439  13.326  26.691   4.586  0.1444 -0.0377  0.1810
    1CHOL    C229440  13.108  26.647   4.274  0.0566  0.1278  0.0962
    1CHOL   ROH29441  28.564  25.176   5.804  0.1875  0.1138 -0.0029
    1CHOL    R129442  28.381  25.227   5.594  0.0532  0.1302  0.1157
    1CHOL    R229443  28.461  25.311   5.344 -0.1141  0.2653  0.1012
    1CHOL    R329444  28.317  25.096   5.261 -0.0740  0.2420  0.0962
    1CHOL    R429445  28.400  25.229   5.013 -0.0216  0.2060  0.0996
    1CHOL    R529446  28.197  25.175   5.069 -0.0290  0.1989  0.0531
    1CHOL    C129447  28.230  24.980   4.743  0.0700  0.1497  0.0939
    1CHOL    C229448  28.066  24.692   4.515  0.0227 -0.0865 -0.0266
    1CHOL   ROH29449  29.799  19.190   5.599  0.2643 -0.1014  0.0228
    1CHOL    R129450  29.743  19.171   5.323  0.1124 -0.1040  0.0532
    1CHOL    R229451  29.928  19.237   5.128 -0.0353  0.0103 -0.0489
    1CHOL    R329452  29.876  18.986   5.038  0.0425 -0.0086 -0.0426
    1CHOL    R429453  30.030  19.111   4.823  0.1463 -0.0187  0.0221
    1CHOL    R529454  29.836  19.013   4.804  0.1661 -0.0444 -0.0696
    1CHOL    C129455  30.040  18.802   4.561  0.3251 -0.0534  0.0693
    1CHOL    C229456  30.190  18.882   4.215 -0.5078 -0.0735 -0.0309
    1CHOL   ROH29457   2.781  12.283   6.475 -0.0137 -0.0508 -0.0639
    1CHOL    R129458   2.952  12.314   6.252  0.0207 -0.1240 -0.0478
    1CHOL    R229459   3.024  12.103   6.089 -0.1718 -0.1291 -0.1258
    1CHOL    R329460   2.929  12.265   5.892 -0.0175  0.0351 -0.0682
    1CHOL    R429461   3.019  12.023   5.753 -0.2445 -0.0052 -0.1551
    1CHOL    R529462   3.078  12.229   5.708 -0.0479 -0.0412 -0.0797
    1CHOL    C129463   2.928  12.129   5.372 -0.1419  0.2209 -0.1181
    1CHOL    C229464   3.004  11.923   5.028  0.0128 -0.1419  0.2695
    1CHOL   ROH29465  14.618  19.881   5.758  0.0588 -0.0450  0.0182
    1CHOL    R129466  14.453  19.844   5.531  0.1473 -0.0628 -0.0436
    1CHOL    R229467  14.554  19.771   5.284  0.2342 -0.1749  0.0229
    1CHOL    R329468  14.372  19.570   5.305  0.1586 -0.1086  0.0085
    1CHOL    R429469  14.457  19.566   5.024  0.3353 -0.2789  0.0664
    1CHOL    R529470  14.252  19.577   5.098  0.2926 -0.1780 -0.0712
    1CHOL    C129471  14.230  19.257   4.892  0.3233 -0.2770  0.0782
    1CHOL    C229472  13.926  19.281   4.760  0.1553 -0.3113 -0.0570
    1CHOL   ROH29473   3.029  13.863   2.801 -0.0096 -0.1130 -0.1917
    1CHOL    R129474   3.060  13.727   3.047  0.2895  0.0326 -0.1428
    1CHOL    R229475   3.224  13.820   3.250  0.0477  0.5020 -0.1441
    1CHOL    R329476   2.997  13.798   3.398  0.0640  0.0012 -0.1765
    1CHOL    R429477   3.212  13.830   3.595 -0.0282  0.3973 -0.1434
    1CHOL    R529478   3.063  13.671   3.590  0.2968  0.0902 -0.1988
    1CHOL    C129479   2.992  13.816   3.935 -0.0572 -0.1337 -0.1734
    1CHOL    C229480   2.849  13.886   4.306 -0.3820 -0.0148  0.0771
    1CHOL   ROH29481   7.634  20.942   2.948  0.0341 -0.2129 -0.1735
    1CHOL    R129482   7.614  20.713   3.112  0.0647 -0.1810 -0.1232
    1CHOL    R229483   7.817  20.634   3.284  0.0511 -0.0809 -0.0529
    1CHOL    R329484   7.619  20.642   3.469  0.0023 -0.0916 -0.1057
    1CHOL    R429485   7.842  20.511   3.606 -0.0381 -0.0874 -0.0493
    1CHOL    R529486   7.639  20.435   3.588 -0.0276 -0.0902 -0.1051
    1CHOL    C129487   7.670  20.448   3.968 -0.1359 -0.1013 -0.0967
    1CHOL    C229488   7.595  20.443   4.384  0.0460 -0.0842  0.0052
    1CHOL   ROH29489   0.950  15.868   5.973 -0.1908 -0.1233  0.1732
    1CHOL    R129490   1.014  15.720   5.740 -0.0746 -0.0466  0.1549
    1CHOL    R229491   0.848  15.524   5.640  0.0402 -0.1094  0.0849
    1CHOL    R329492   0.867  15.669   5.411  0.0107 -0.0538  0.1179
    1CHOL    R429493   0.797  15.399   5.321  0.3526 -0.1199  0.0358
    1CHOL    R529494   0.965  15.519   5.253  0.2636  0.0744  0.1486
    1CHOL    C129495   0.785  15.464   4.921  0.5069 -0.0739  0.0381
    1CHOL    C229496   0.906  15.178   4.653  0.0878  0.0282  0.0616
    1CHOL   ROH29497  25.992  22.391   2.505  0.0415 -0.0975 -0.0848
    1CHOL    R129498  25.749  22.381   2.649  0.0532 -0.1587 -0.0686
    1CHOL    R229499  25.663  22.154   2.780  0.1683 -0.1510  0.0233
    1CHOL    R329500  25.648  22.322   2.993  0.1004 -0.0757 -0.0405
    1CHOL    R429501  25.507  22.080   3.080  0.2434 -0.1191  0.0703
    1CHOL    R529502  25.430  22.284   3.084  0.1320 -0.1599 -0.0007
    1CHOL    C129503  25.402  22.195   3.454  0.2233 -0.0299  0.0378
    1CHOL    C229504  25.566  22.224   3.812 -0.1428  0.3516 -0.3492
    1CHOL   ROH29505   4.139  19.756   6.464  0.2726  0.3129  0.0574
    1CHOL    R129506   4.011  19.774   6.212  0.2182  0.0829  0.0671
    1CHOL    R229507   4.025  20.000   6.054 -0.0725  0.0526 -0.0029
    1CHOL    R329508   4.114  19.825   5.867  0.1146  0.1009  0.0379
    1CHOL    R429509   4.001  20.048   5.713  0.0736  0.0492 -0.0144
    1CHOL    R529510   3.950  19.837   5.692  0.1932  0.0199 -0.0448
    1CHOL    C129511   4.071  19.911   5.338  0.3343  0.0926  0.0173
    1CHOL    C229512   3.811  20.076   5.014  0.0889 -0.0943 -0.0133
    1CHOL   ROH29513   3.478   1.084   5.977  0.0347  0.3910 -0.1067
    1CHOL    R129514   3.350   1.073   5.724  0.0423  0.2079 -0.1028
    1CHOL    R229515   3.448   1.204   5.502  0.0305  0.0716 -0.1856
    1CHOL    R329516   3.435   0.956   5.390  0.0626 -0.0037 -0.0264
    1CHOL    R429517   3.516   1.132   5.170 -0.2222 -0.0824 -0.2071
    1CHOL    R529518   3.347   0.994   5.171 -0.1537 -0.1760  0.0238
    1CHOL    C129519   3.543   0.858   4.873 -0.3393 -0.2428 -0.0700
    1CHOL    C229520   3.303   0.818   4.601  0.0740  0.0164 -0.1576
    1CHOL   ROH29521   4.068   7.478   6.145  0.1836  0.1238 -0.0098
    1CHOL    R129522   4.169   7.466   5.881  0.1082  0.0452 -0.0354
    1CHOL    R229523   4.383   7.307   5.810  0.1258  0.0702 -0.0359
    1CHOL    R329524   4.209   7.211   5.624  0.0947 -0.0454  0.0514
    1CHOL    R429525   4.469   7.099   5.548  0.1134  0.0285 -0.0069
    1CHOL    R529526   4.334   7.213   5.420  0.0252 -0.0553  0.0071
    1CHOL    C129527   4.356   6.888   5.220  0.0770 -0.1043  0.0918
    1CHOL    C229528   4.704   6.736   5.047 -0.0110 -0.2386 -0.0528
    1CHOL   ROH29529  10.163   0.888   4.028  0.0474  0.1525  0.1787
    1CHOL    R129530  10.041   0.929   4.280 -0.0177 -0.1452  0.1991
    1CHOL    R229531  10.051   0.740   4.483  0.4795 -0.1342  0.2007
    1CHOL    R329532  10.150   0.948   4.627  0.0008  0.1241  0.1796
    1CHOL    R429533  10.073   0.749   4.827  0.6384 -0.1286  0.1907
    1CHOL    R529534  10.012   0.958   4.822  0.0681 -0.2820  0.2545
    1CHOL    C129535  10.180   0.949   5.164  0.2814  0.1171  0.1650
    1CHOL    C229536   9.971   1.072   5.428 -0.5681  0.0044 -0.2317
    1CHOL   ROH29537  22.239   6.922   6.212  0.0333  0.0797 -0.0114
    1CHOL    R129538  22.490   6.893   6.085  0.1279 -0.0186  0.1907
    1CHOL    R229539  22.645   6.666   6.111 -0.1173 -0.2093  0.0773
    1CHOL    R329540  22.638   6.669   5.839  0.1310  0.1165  0.0698
    1CHOL    R429541  22.793   6.430   5.906 -0.2347 -0.1586 -0.0655
    1CHOL    R529542  22.854   6.591   5.773  0.0908 -0.0790  0.1750
    1CHOL    C129543  22.871   6.296   5.532 -0.0700  0.1768 -0.1558
    1CHOL    C229544  22.866   6.257   5.132 -0.2447 -0.0679 -0.1607
    1CHOL   ROH29545  27.451   8.355   5.849  0.0829  0.0861 -0.0695
    1CHOL    R129546  27.483   8.212   5.607  0.1314  0.0647 -0.0489
    1CHOL    R229547  27.478   7.935   5.596  0.1184  0.0707 -0.0253
    1CHOL    R329548  27.285   7.979   5.410  0.1664  0.0586 -0.0808
    1CHOL    R429549  27.415   7.732   5.324  0.0507 -0.0807  0.1004
    1CHOL    R529550  27.384   7.910   5.203  0.1656 -0.1343 -0.0248
    1CHOL    C129551  27.197   7.655   4.991  0.0564 -0.1802  0.1215
    1CHOL    C229552  27.025   7.392   4.780  0.2087 -0.3998  0.0103
    1CHOL   ROH29553  10.828  12.499   5.398  0.0837 -0.1490  0.0255
    1CHOL    R129554  11.053  12.630   5.288  0.1275 -0.1595  0.1024
    1CHOL    R229555  11.312  12.557   5.348  0.1027 -0.2726  0.0674
    1CHOL    R329556  11.336  12.538   5.078  0.1042 -0.1321  0.0596
    1CHOL    R429557  11.603  12.617   5.171  0.0876 -0.1157  0.0943
    1CHOL    R529558  11.483  12.718   5.019  0.0625 -0.0684  0.1472
    1CHOL    C129559  11.794  12.635   4.814  0.0804  0.1076  0.1028
    1CHOL    C229560  12.199  12.599   4.678  0.0663 -0.0262 -0.1869
    1CHOL   ROH29561  29.397  22.538   6.151  0.0460 -0.0741  0.0671
    1CHOL    R129562  29.547  22.661   5.944  0.0091 -0.0094  0.0781
    1CHOL    R229563  29.582  22.545   5.696  0.0944 -0.0050  0.0863
    1CHOL    R329564  29.483  22.782   5.607 -0.0140 -0.0570  0.0659
    1CHOL    R429565  29.622  22.669   5.376  0.0257 -0.0153  0.0735
    1CHOL    R529566  29.653  22.867   5.461 -0.0589  0.0055  0.0519
    1CHOL    C129567  29.553  22.965   5.107 -0.1159 -0.0698  0.0469
    1CHOL    C229568  29.623  23.092   4.850  0.1948  0.2315 -0.1031
    1CHOL   ROH29569  29.766  10.201   6.129  0.3090 -0.0068  0.0189
    1CHOL    R129570  29.855  10.077   5.891  0.0708 -0.0823 -0.0350
    1CHOL    R229571  29.683  10.007   5.686 -0.1102  0.0518  0.0599
    1CHOL    R329572  29.854  10.156   5.536 -0.0767 -0.0817 -0.0333
    1CHOL    R429573  29.682  10.021   5.340 -0.0149 -0.2574  0.0456
    1CHOL    R529574  29.900  10.019   5.345 -0.0220 -0.2488  0.1028
    1CHOL    C129575  29.843  10.168   4.998  0.0722 -0.5629 -0.0501
    1CHOL    C229576  29.775  10.294   4.740 -0.0118 -0.1176  0.0210
    1CHOL   ROH29577   4.363   9.825   6.077 -0.1064  0.2265 -0.1862
    1CHOL    R129578   4.368   9.666   5.842 -0.0490  0.0779 -0.0859
    1CHOL    R229579   4.454   9.762   5.599 -0.1237 -0.0326 -0.1589
    1CHOL    R329580   4.620   9.547   5.608 -0.0114  0.0582 -0.0348
    1CHOL    R429581   4.656   9.656   5.339 -0.1575 -0.1489 -0.1380
    1CHOL    R529582   4.605   9.450   5.390 -0.0362 -0.1327  0.0504
    1CHOL    C129583   4.928   9.392   5.196 -0.0719 -0.1314 -0.0094
    1CHOL    C229584   5.026   9.276   4.830 -0.0723  0.1578  0.1058
    1CHOL   ROH29585   0.861  18.015   5.902 -0.0589  0.0380  0.1141
    1CHOL    R129586   0.832  18.118   5.640  0.0120  0.0051  0.0928
    1CHOL    R229587   1.046  18.147   5.468  0.0530 -0.0655  0.1267
    1CHOL    R329588   0.891  17.999   5.301  0.0516 -0.0596  0.1233
    1CHOL    R429589   1.084  18.132   5.125 -0.0285  0.0295  0.1132
    1CHOL    R529590   0.866  18.135   5.106 -0.0298 -0.0192  0.1647
    1CHOL    C129591   0.959  17.983   4.768 -0.0772  0.0904  0.1020
    1CHOL    C229592   0.822  17.981   4.417 -0.0279 -0.0503 -0.2445
    1CHOL   ROH29593  28.949  17.541   2.218 -0.3678  0.2014  0.1050
    1CHOL    R129594  28.977  17.392   2.457 -0.2236  0.1418  0.0525
    1CHOL    R229595  29.049  17.509   2.697 -0.0735  0.0819  0.0394
    1CHOL    R329596  28.822  17.390   2.786 -0.0230  0.0654  0.1472
    1CHOL    R429597  28.972  17.454   3.030 -0.0267  0.2911  0.0857
    1CHOL    R529598  28.893  17.259   2.974  0.0375  0.2249  0.2343
    1CHOL    C129599  28.713  17.311   3.307  0.0483  0.3972  0.2139
    1CHOL    C229600  28.706  17.399   3.643 -0.1594 -0.1066  0.0002
    1CHOL   ROH29601  20.714   5.417   4.415 -0.0770 -0.0861 -0.0485
    1CHOL    R129602  20.527   5.309   4.598  0.0230 -0.0269  0.0904
    1CHOL    R229603  20.457   5.436   4.832 -0.0593  0.1892 -0.0510
    1CHOL    R329604  20.204   5.407   4.736 -0.0464 -0.1241  0.0004
    1CHOL    R429605  20.172   5.550   4.991 -0.1210  0.2741 -0.2196
    1CHOL    R529606  20.071   5.365   4.931 -0.0108  0.1081  0.0800
    1CHOL    C129607  19.768   5.588   4.993 -0.1448  0.0295 -0.2695
    1CHOL    C229608  19.585   5.906   5.074  0.1856 -0.1017  0.1376
    1CHOL   ROH29609  24.572  29.061   4.070  0.0277 -0.0240  0.0450
    1CHOL    R129610  24.607  28.825   4.222  0.0163 -0.0151  0.0608
    1CHOL    R229611  24.796  28.803   4.423 -0.0487  0.0200  0.1218
    1CHOL    R329612  24.581  28.730   4.572 -0.0836 -0.0159  0.0549
    1CHOL    R429613  24.811  28.704   4.753 -0.1598  0.3259  0.2227
    1CHOL    R529614  24.663  28.550   4.708 -0.0154  0.1641  0.2643
    1CHOL    C129615  24.618  28.576   5.086 -0.2572  0.4704  0.2186
    1CHOL    C229616  24.759  28.739   5.419 -0.2313  0.1314  0.2249
    1CHOL   ROH29617   1.131  14.338   2.579 -0.0825  0.0909 -0.1316
    1CHOL    R129618   0.938  14.313   2.784 -0.0732  0.0873 -0.1238
    1CHOL    R229619   0.994  14.367   3.049 -0.0355 -0.0091 -0.1135
    1CHOL    R329620   0.780  14.533   3.027  0.0109  0.0616 -0.0443
    1CHOL    R429621   0.830  14.515   3.315 -0.0775 -0.1870 -0.0389
    1CHOL    R529622   0.641  14.476   3.214 -0.0584 -0.0600 -0.1294
    1CHOL    C129623   0.533  14.756   3.449 -0.0585 -0.2243  0.0695
    1CHOL    C229624   0.563  14.954   3.858 -0.0070 -0.1605 -0.2544
    1CHOL   ROH29625   5.110  12.555   6.578  0.0763  0.0549  0.0570
    1CHOL    R129626   4.977  12.496   6.335  0.0305  0.1078  0.0690
    1CHOL    R229627   4.914  12.690   6.149  0.0232  0.1449  0.1082
    1CHOL    R329628   5.050  12.525   5.980 -0.0217  0.1542  0.0627
    1CHOL    R429629   4.947  12.740   5.808 -0.1140  0.1277  0.0916
    1CHOL    R529630   4.919  12.526   5.779 -0.0976  0.1252  0.1136
    1CHOL    C129631   5.093  12.615   5.451 -0.2361  0.1266  0.0392
    1CHOL    C229632   5.310  12.711   5.131  0.2662 -0.0427 -0.0177
    1CHOL   ROH29633   2.227  18.724   2.625  0.0811 -0.1811 -0.0610
    1CHOL    R129634   2.236  18.519   2.820  0.3860 -0.0906  0.0264
    1CHOL    R229635   2.422  18.517   3.025  0.2700  0.3834  0.1516
    1CHOL    R329636   2.200  18.497   3.182  0.1995 -0.0134  0.0134
    1CHOL    R429637   2.422  18.416   3.356  0.2151  0.2213  0.1029
    1CHOL    R529638   2.240  18.303   3.316  0.3982 -0.0248 -0.0606
    1CHOL    C129639   2.215  18.339   3.695  0.1170 -0.2457 -0.0551
    1CHOL    C229640   2.258  18.358   4.038 -0.0595  0.1663  0.3267
    1CHOL   ROH29641  21.447  23.512   5.499  0.3175 -0.1789 -0.2542
    1CHOL    R129642  21.433  23.692   5.280  0.1483 -0.1709 -0.2384
    1CHOL    R229643  21.632  23.875   5.225 -0.0480  0.0641 -0.1883
    1CHOL    R329644  21.627  23.759   4.980  0.1240  0.0803 -0.2002
    1CHOL    R429645  21.817  23.981   4.953  0.0903  0.1235 -0.0724
    1CHOL    R529646  21.643  23.942   4.827  0.1742  0.0933 -0.1781
    1CHOL    C129647  21.920  23.932   4.564  0.3325  0.1729 -0.0160
    1CHOL    C229648  22.048  24.086   4.285 -0.1636 -0.0709  0.1720
    1CHOL   ROH29649   0.570  21.148   6.057 -0.2317  0.0717 -0.2695
    1CHOL    R129650   0.643  21.348   5.870 -0.1610  0.0161 -0.3031
    1CHOL    R229651   0.875  21.334   5.720 -0.2068 -0.1331 -0.3668
    1CHOL    R329652   0.703  21.366   5.512 -0.2462 -0.0465 -0.3200
    1CHOL    R429653   0.968  21.415   5.397 -0.2689 -0.0275 -0.3576
    1CHOL    R529654   0.795  21.547   5.385 -0.2595 -0.0110 -0.2759
    1CHOL    C129655   0.860  21.493   5.014 -0.3421  0.1154 -0.3084
    1CHOL    C229656   1.181  21.353   4.718  0.0007 -0.1566  0.2964
    1CHOL   ROH29657  21.830   3.813   4.694 -0.0117  0.1491  0.0820
    1CHOL    R129658  21.699   3.695   4.915  0.0149  0.3544  0.2115
    1CHOL    R229659  21.538   3.839   5.087 -0.2438  0.4591 -0.0985
    1CHOL    R329660  21.355   3.648   5.024  0.0103  0.1394  0.1042
    1CHOL    R429661  21.229   3.806   5.237 -0.2139  0.2047 -0.0906
    1CHOL    R529662  21.256   3.590   5.234  0.0739  0.2399  0.1566
    1CHOL    C129663  20.876   3.607   5.265  0.0420 -0.2437  0.1043
    1CHOL    C229664  20.566   3.723   5.492 -0.2733 -0.2427  0.4479
    1CHOL   ROH29665   1.911  18.173   5.996  0.1577 -0.1884 -0.0157
    1CHOL    R129666   2.108  18.063   5.826  0.1309 -0.1610 -0.0645
    1CHOL    R229667   2.046  17.921   5.598  0.0948 -0.1332 -0.0719
    1CHOL    R329668   2.210  18.102   5.479  0.0689 -0.1133 -0.0775
    1CHOL    R429669   2.129  17.921   5.263 -0.0601 -0.0159 -0.1117
    1CHOL    R529670   2.333  17.974   5.319 -0.0255 -0.0710 -0.1853
    1CHOL    C129671   2.332  18.091   4.955 -0.1746  0.0713 -0.1402
    1CHOL    C229672   2.321  17.829   4.690 -0.0010 -0.1535  0.0520
    1CHOL   ROH29673   8.188  15.156   6.585 -0.1560  0.2161  0.0562
    1CHOL    R129674   8.200  15.199   6.305  0.1247  0.1965  0.0625
    1CHOL    R229675   8.434  15.171   6.160  0.1794 -0.2773  0.2249
    1CHOL    R329676   8.283  15.001   6.011 -0.0682  0.0233  0.1216
    1CHOL    R429677   8.473  15.117   5.821  0.1971 -0.2352  0.2201
    1CHOL    R529678   8.256  15.113   5.801  0.1894  0.1410  0.1472
    1CHOL    C129679   8.354  14.926   5.484 -0.0250  0.0715  0.1202
    1CHOL    C229680   8.213  14.989   5.156  0.3551  0.2469 -0.1112
    1CHOL   ROH29681  10.652  12.689   3.504 -0.0104 -0.0992 -0.0558
    1CHOL    R129682  10.661  12.553   3.752 -0.3684 -0.1295 -0.0562
    1CHOL    R229683  10.822  12.634   3.961 -0.0420 -0.6185 -0.1082
    1CHOL    R329684  10.588  12.631   4.099 -0.0330  0.1164 -0.0334
    1CHOL    R429685  10.797  12.627   4.306  0.0789 -0.8045 -0.1013
    1CHOL    R529686  10.631  12.486   4.286 -0.4661 -0.2152 -0.1646
    1CHOL    C129687  10.563  12.620   4.636  0.1578 -0.2227 -0.0271
    1CHOL    C229688  10.520  12.615   5.028  0.3907 -0.3965 -0.2682
    1CHOL   ROH29689  23.711   1.087   6.245 -0.2482  0.1239 -0.3091
    1CHOL    R129690  23.575   1.013   6.008 -0.0015  0.0989 -0.4470
    1CHOL    R229691  23.706   0.965   5.770  0.2778 -0.1613 -0.2514
    1CHOL    R329692  23.574   0.727   5.782  0.0551 -0.0405 -0.2725
    1CHOL    R429693  23.575   0.798   5.497  0.3570 -0.1490 -0.2970
    1CHOL    R529694  23.400   0.748   5.618  0.2101  0.0514 -0.4253
    1CHOL    C129695  23.374   0.478   5.350  0.1942 -0.0284 -0.3433
    1CHOL    C229696  23.054   0.513   5.059  0.1471 -0.0831  0.1756
    1CHOL   ROH29697   9.705  15.963   3.371 -0.0404  0.0583 -0.0084
    1CHOL    R129698   9.758  16.093   3.617 -0.0803  0.0937 -0.0175
    1CHOL    R229699   9.560  16.153   3.799 -0.1111  0.1104 -0.0498
    1CHOL    R329700   9.720  16.016   3.971 -0.1276  0.1365 -0.0146
    1CHOL    R429701   9.539  16.169   4.144 -0.1172  0.1768 -0.0535
    1CHOL    R529702   9.757  16.168   4.152 -0.1231  0.1648 -0.0445
    1CHOL    C129703   9.677  16.048   4.505 -0.1362  0.2401 -0.0227
    1CHOL    C229704   9.682  16.062   4.826  0.1240  0.1252  0.1952
    1CHOL   ROH29705   7.097  20.739   6.137  0.0848  0.0550 -0.2202
    1CHOL    R129706   7.005  20.674   5.877  0.0798 -0.0922 -0.1814
    1CHOL    R229707   7.046  20.838   5.659  0.0150 -0.1849 -0.2592
    1CHOL    R329708   7.154  20.613   5.551  0.0654 -0.2058 -0.1683
    1CHOL    R429709   7.143  20.803   5.329  0.1707 -0.2396 -0.2098
    1CHOL    R529710   7.061  20.602   5.331  0.1667 -0.2418 -0.2129
    1CHOL    C129711   7.300  20.572   5.035  0.3087 -0.2910 -0.0958
    1CHOL    C229712   7.290  20.277   4.799 -0.0765 -0.0978  0.1044
    1CHOL   ROH29713  11.346  14.060   3.379 -0.0571  0.0606 -0.0209
    1CHOL    R129714  11.294  14.212   3.612  0.2838  0.0893  0.0410
    1CHOL    R229715  11.104  14.137   3.798  0.0864  0.4538 -0.0120
    1CHOL    R329716  11.312  14.158   3.972  0.1330 -0.1146  0.0212
    1CHOL    R429717  11.073  14.169   4.141  0.1225  0.3721 -0.0000
    1CHOL    R529718  11.236  14.313   4.137  0.4756  0.0007  0.0825
    1CHOL    C129719  11.251  14.207   4.503  0.1873 -0.2091  0.0380
    1CHOL    C229720  11.096  14.391   4.863 -0.0847 -0.1226  0.1720
    1CHOL   ROH29721  25.697  11.294   2.578  0.0349  0.1608  0.0849
    1CHOL    R129722  25.583  11.412   2.809 -0.0010  0.1277  0.0811
    1CHOL    R229723  25.572  11.282   3.052  0.0452  0.1340  0.0720
    1CHOL    R329724  25.697  11.506   3.142 -0.0362  0.1794  0.0832
    1CHOL    R429725  25.533  11.418   3.368  0.1777 -0.0664  0.1784
    1CHOL    R529726  25.534  11.616   3.277 -0.0282 -0.0053  0.2670
    1CHOL    C129727  25.629  11.707   3.635  0.1784 -0.1408  0.2509
    1CHOL    C229728  25.746  11.797   3.976  0.2912 -0.3147  0.0514
    1CHOL   ROH29729  14.473  25.264   3.585 -0.2296  0.1517 -0.0694
    1CHOL    R129730  14.510  25.193   3.856 -0.1196  0.2632 -0.0547
    1CHOL    R229731  14.401  25.339   4.064 -0.2984  0.1730 -0.0837
    1CHOL    R329732  14.297  25.098   4.136  0.0186  0.0503 -0.0204
    1CHOL    R429733  14.280  25.262   4.379 -0.2713  0.1174 -0.0861
    1CHOL    R529734  14.373  25.066   4.361  0.0092  0.2383  0.0102
    1CHOL    C129735  14.113  24.992   4.630  0.0423 -0.0301 -0.0281
    1CHOL    C229736  14.022  25.314   4.949 -0.0956 -0.2693  0.1840
    1CHOL   ROH29737   1.741  14.943   2.975 -0.1765 -0.2558  0.0958
    1CHOL    R129738   1.589  15.013   3.203 -0.0614  0.0045  0.0962
    1CHOL    R229739   1.552  14.840   3.416 -0.3687  0.0575  0.0919
    1CHOL    R329740   1.651  15.048   3.560 -0.0018 -0.1138  0.0977
    1CHOL    R429741   1.497  14.889   3.753 -0.4711  0.2573  0.0478
    1CHOL    R529742   1.475  15.102   3.714  0.0143  0.3060 -0.0206
    1CHOL    C129743   1.558  15.112   4.086 -0.1864  0.2128  0.0275
    1CHOL    C229744   1.610  15.039   4.455 -0.0081 -0.0603 -0.0448
    1CHOL   ROH29745   5.693  25.286   5.215  0.1083  0.0246 -0.0490
    1CHOL    R129746   5.821  25.525   5.134  0.1026  0.0529  0.0249
    1CHOL    R229747   5.778  25.640   4.886  0.2083  0.0514  0.0068
    1CHOL    R329748   5.717  25.859   5.035  0.0873  0.0358 -0.0187
    1CHOL    R429749   5.785  25.966   4.770  0.0469  0.0426 -0.0294
    1CHOL    R529750   5.871  26.027   4.960  0.0068  0.1080 -0.0297
    1CHOL    C129751   5.731  26.361   4.842 -0.1607  0.0228 -0.0744
    1CHOL    C229752   5.709  26.781   4.856 -0.2414  0.3029 -0.2515
    1CHOL   ROH29753  21.015  17.044   4.845  0.0758 -0.1546 -0.0366
    1CHOL    R129754  20.843  16.972   4.632  0.0198 -0.1706  0.0129
    1CHOL    R229755  20.804  17.132   4.410 -0.0956 -0.1517  0.0423
    1CHOL    R329756  20.876  16.908   4.275 -0.0846 -0.1185 -0.0058
    1CHOL    R429757  20.644  17.012   4.129 -0.0687 -0.0877  0.0001
    1CHOL    R529758  20.669  16.810   4.208 -0.0752 -0.1039 -0.0478
    1CHOL    C129759  20.619  16.731   3.838 -0.0428 -0.0192 -0.0697
    1CHOL    C229760  20.333  16.776   3.668 -0.0213 -0.1429 -0.0073
    1CHOL   ROH29761  25.567   7.544   6.150 -0.3505 -0.0989 -0.0523
    1CHOL    R129762  25.605   7.327   5.973 -0.2615 -0.0252 -0.1247
    1CHOL    R229763  25.418   7.256   5.782 -0.1679  0.0506 -0.2456
    1CHOL    R329764  25.630   7.280   5.612 -0.0853  0.1243 -0.1339
    1CHOL    R429765  25.475   7.054   5.507  0.0592  0.0558 -0.2044
    1CHOL    R529766  25.687   7.054   5.557  0.0338  0.1429 -0.0899
    1CHOL    C129767  25.707   6.959   5.188  0.2689  0.1280 -0.0754
    1CHOL    C229768  25.896   6.703   4.953  0.0962 -0.2115 -0.0893
    1CHOL   ROH29769   8.061  13.845   3.236 -0.0423  0.0094  0.1112
    1CHOL    R129770   7.973  13.958   3.480  0.0061  0.1098  0.0830
    1CHOL    R229771   7.922  13.806   3.705 -0.1120  0.1804  0.1081
    1CHOL    R329772   8.096  13.980   3.822 -0.0110  0.0918  0.0893
    1CHOL    R429773   7.993  13.818   4.043 -0.0115  0.1036  0.0900
    1CHOL    R529774   7.993  14.035   4.031  0.0725  0.1019  0.1248
    1CHOL    C129775   8.197  13.988   4.349  0.1419 -0.0242  0.0617
    1CHOL    C229776   8.168  14.078   4.652  0.0946  0.2316  0.0515
    1CHOL   ROH29777  29.400  15.223   5.876 -0.0695 -0.0005 -0.0121
    1CHOL    R129778  29.360  15.110   5.619 -0.0381 -0.1968  0.0671
    1CHOL    R229779  29.377  15.259   5.387 -0.2804 -0.3123 -0.0293
    1CHOL    R329780  29.556  15.067   5.315 -0.0953 -0.1626  0.0253
    1CHOL    R429781  29.478  15.195   5.063 -0.1805 -0.2755 -0.0054
    1CHOL    R529782  29.471  14.982   5.108  0.0085 -0.2753  0.0290
    1CHOL    C129783  29.705  14.978   4.807  0.0512 -0.1134  0.0598
    1CHOL    C229784  29.585  14.807   4.436  0.3293 -0.1792 -0.1954
    1CHOL   ROH29785   5.750  11.296   6.476  0.4266 -0.0580  0.1346
    1CHOL    R129786   5.793  11.518   6.306  0.2783 -0.0719  0.0771
    1CHOL    R229787   5.861  11.490   6.039  0.1209 -0.0938  0.0378
    1CHOL    R329788   5.645  11.651   6.001  0.0642 -0.1425  0.1488
    1CHOL    R429789   5.729  11.573   5.731  0.1100  0.0982  0.0925
    1CHOL    R529790   5.698  11.776   5.804  0.0303  0.0312  0.2486
    1CHOL    C129791   5.449  11.771   5.515  0.0503  0.1643  0.2286
    1CHOL    C229792   5.446  11.816   5.091 -0.1084 -0.1715 -0.2074
    1CHOL   ROH29793  29.174  19.859   5.840  0.1983 -0.1189 -0.0465
    1CHOL    R129794  29.147  19.969   5.581  0.0584 -0.1929 -0.0646
    1CHOL    R229795  29.361  19.998   5.408 -0.0202 -0.1711 -0.1606
    1CHOL    R329796  29.201  19.857   5.239 -0.0471 -0.2632 -0.0585
    1CHOL    R429797  29.433  19.933   5.076 -0.2578 -0.0039 -0.2465
    1CHOL    R529798  29.223  19.969   5.029 -0.3366 -0.1776 -0.0467
    1CHOL    C129799  29.325  19.764   4.724 -0.4212  0.0070 -0.2007
    1CHOL    C229800  29.444  19.681   4.287  0.2210 -0.0299  0.1169
    1CHOL   ROH29801  28.397   6.182   2.804 -0.1047  0.0538 -0.0878
    1CHOL    R129802  28.436   6.130   3.080  0.0575  0.0153 -0.1166
    1CHOL    R229803  28.358   6.307   3.277  0.0600 -0.0671 -0.0405
    1CHOL    R329804  28.225   6.091   3.374  0.2211 -0.1579 -0.0198
    1CHOL    R429805  28.292   6.251   3.611 -0.1179  0.0499 -0.0546
    1CHOL    R529806  28.338   6.040   3.579  0.1331  0.0771  0.0918
    1CHOL    C129807  28.129   6.015   3.898 -0.0700  0.0327 -0.0434
    1CHOL    C229808  28.131   6.017   4.317  0.2976 -0.2424 -0.1077
    1CHOL   ROH29809   5.304  13.720   6.345 -0.1119 -0.2729  0.0218
    1CHOL    R129810   5.351  13.664   6.071 -0.1563 -0.3826  0.0370
    1CHOL    R229811   5.170  13.526   5.915 -0.4032 -0.0270  0.0027
    1CHOL    R329812   5.191  13.744   5.754  0.0792 -0.0717 -0.0091
    1CHOL    R429813   5.213  13.514   5.572 -0.4538 -0.1487 -0.0008
    1CHOL    R529814   5.354  13.680   5.590 -0.0668 -0.4551 -0.0194
    1CHOL    C129815   5.259  13.712   5.222 -0.0303 -0.2615 -0.0138
    1CHOL    C229816   5.336  13.808   4.973  0.1909  0.1291  0.0794
    1CHOL   ROH29817  20.857  26.208   5.121 -0.1316  0.1195  0.0011
    1CHOL    R129818  21.098  26.115   5.236 -0.1756 -0.0416 -0.0300
    1CHOL    R229819  21.265  25.935   5.108 -0.1839  0.0321 -0.1626
    1CHOL    R329820  21.452  26.127   5.152 -0.1580 -0.0428  0.0520
    1CHOL    R429821  21.605  25.879   5.128 -0.2094 -0.0585  0.0171
    1CHOL    R529822  21.615  26.021   5.292 -0.2707 -0.1519  0.0925
    1CHOL    C129823  21.979  26.026   5.181 -0.2002 -0.1816  0.3234
    1CHOL    C229824  22.224  25.931   4.931 -0.0711 -0.0717  0.3903
    1CHOL   ROH29825  28.788  17.174   5.644  0.0228 -0.2020  0.0475
    1CHOL    R129826  28.828  17.272   5.381  0.0966 -0.0870  0.1014
    1CHOL    R229827  29.033  17.183   5.219  0.0117 -0.1755  0.0416
    1CHOL    R329828  28.830  17.134   5.044 -0.0415  0.1022  0.0215
    1CHOL    R429829  29.075  17.072   4.894 -0.1122 -0.4590  0.1199
    1CHOL    R529830  28.915  17.208   4.833  0.1577 -0.1879 -0.0045
    1CHOL    C129831  28.908  16.961   4.542 -0.2343 -0.3633  0.1465
    1CHOL    C229832  29.139  16.777   4.154 -0.2171  0.1981  0.2680
    1CHOL   ROH29833  20.325  20.607   3.962  0.1291 -0.0434  0.2029
    1CHOL    R129834  20.176  20.847   3.968  0.0280 -0.1054  0.1920
    1CHOL    R229835  20.059  20.956   3.742  0.1045 -0.0902  0.1611
    1CHOL    R329836  19.834  20.948   3.894  0.0248 -0.2228  0.0396
    1CHOL    R429837  19.747  21.059   3.637  0.1826  0.1087  0.1198
    1CHOL    R529838  19.715  21.147   3.834  0.1033 -0.1191  0.2148
    1CHOL    C129839  19.353  21.112   3.718  0.1531  0.0998 -0.0182
    1CHOL    C229840  19.109  21.013   3.765  0.0104 -0.0224 -0.1110
    1CHOL   ROH29841   4.918  21.070   6.445 -0.1609 -0.2976 -0.0267
    1CHOL    R129842   4.802  21.095   6.188 -0.0470 -0.2518 -0.0739
    1CHOL    R229843   4.866  21.301   6.015 -0.1294 -0.0994  0.0780
    1CHOL    R329844   4.919  21.097   5.843  0.1337  0.0422 -0.0147
    1CHOL    R429845   4.889  21.333   5.672 -0.4157  0.0501  0.0689
    1CHOL    R529846   4.783  21.143   5.652 -0.0859 -0.1469  0.0883
    1CHOL    C129847   4.953  21.160   5.311 -0.3356  0.2700 -0.0234
    1CHOL    C229848   5.271  21.113   4.994  0.3197 -0.0914  0.3662
    1CHOL   ROH29849  11.392  20.650   3.264  0.2902  0.0823 -0.0445
    1CHOL    R129850  11.320  20.695   3.534  0.1234  0.0718 -0.0857
    1CHOL    R229851  11.243  20.492   3.704  0.0669  0.0592 -0.1287
    1CHOL    R329852  11.442  20.590   3.861 -0.0446  0.1027 -0.0118
    1CHOL    R429853  11.302  20.398   4.031 -0.0107 -0.0449 -0.1439
    1CHOL    R529854  11.344  20.606   4.079 -0.1394 -0.0389 -0.0415
    1CHOL    C129855  11.523  20.435   4.369 -0.1606 -0.0645 -0.0430
    1CHOL    C229856  11.435  20.732   4.643  0.2725 -0.0472 -0.0429
    1CHOL   ROH29857  27.675  13.100   2.460  0.0328  0.1112  0.0347
    1CHOL    R129858  27.731  13.230   2.705  0.0473  0.0656  0.0550
    1CHOL    R229859  27.540  13.374   2.844  0.0769  0.0983  0.0548
    1CHOL    R329860  27.611  13.209   3.048  0.0145  0.0574  0.0442
    1CHOL    R429861  27.472  13.432   3.178  0.3021  0.2303  0.0805
    1CHOL    R529862  27.670  13.357   3.227  0.2575  0.0337 -0.0095
    1CHOL    C129863  27.498  13.310   3.564  0.3747  0.2688  0.0855
    1CHOL    C229864  27.427  13.612   3.762  0.0931 -0.1556 -0.1967
    1CHOL   ROH29865   8.132  17.261   3.159  0.0600 -0.1734  0.0964
    1CHOL    R129866   8.033  17.216   3.420 -0.0242 -0.0931  0.0803
    1CHOL    R229867   8.198  17.161   3.634 -0.0950 -0.0835  0.1432
    1CHOL    R329868   8.069  17.371   3.747 -0.0790 -0.0272  0.0544
    1CHOL    R429869   8.167  17.213   3.975 -0.2476 -0.0331  0.1210
    1CHOL    R529870   7.961  17.278   3.940 -0.2068  0.0334  0.0113
    1CHOL    C129871   8.027  17.442   4.279 -0.3215  0.0493  0.0246
    1CHOL    C229872   8.268  17.315   4.599 -0.3232  0.0996  0.4088
    1CHOL   ROH29873   1.453  21.452   6.477 -0.0364 -0.0581  0.1966
    1CHOL    R129874   1.592  21.405   6.234 -0.1506 -0.1072  0.1410
    1CHOL    R229875   1.462  21.361   5.995 -0.2622  0.1555  0.1552
    1CHOL    R329876   1.618  21.566   5.909 -0.0426  0.0145  0.2073
    1CHOL    R429877   1.569  21.405   5.669 -0.4353  0.2501  0.1093
    1CHOL    R529878   1.763  21.467   5.747 -0.2881 -0.0690  0.0271
    1CHOL    C129879   1.778  21.623   5.399 -0.3298  0.1726  0.1314
    1CHOL    C229880   1.832  21.840   5.084  0.2981  0.0134  0.4014
    1CHOL   ROH29881   0.586  12.031   6.090 -0.1553  0.1549 -0.0536
    1CHOL    R129882   0.661  11.864   5.874 -0.0419  0.1482 -0.0097
    1CHOL    R229883   0.492  11.810   5.662  0.0613  0.1252 -0.0866
    1CHOL    R329884   0.701  11.900   5.514  0.1255  0.1309  0.0063
    1CHOL    R429885   0.501  11.818   5.317  0.2916 -0.0584 -0.0871
    1CHOL    R529886   0.709  11.753   5.326  0.3143  0.0309  0.0891
    1CHOL    C129887   0.703  11.906   4.976  0.4861 -0.1599 -0.0003
    1CHOL    C229888   0.686  11.938   4.634  0.1674  0.0137  0.0315
    1CHOL   ROH29889  28.314  15.371   5.595  0.2592 -0.0848  0.1274
    1CHOL    R129890  28.235  15.372   5.324  0.0413 -0.1062  0.1902
    1CHOL    R229891  28.416  15.381   5.116 -0.1324  0.0903  0.0486
    1CHOL    R329892  28.285  15.158   5.033 -0.0030 -0.0117  0.1113
    1CHOL    R429893  28.405  15.268   4.789 -0.3917  0.2199  0.0086
    1CHOL    R529894  28.195  15.218   4.819 -0.3142 -0.0071  0.2345
    1CHOL    C129895  28.275  14.992   4.522 -0.4210  0.1995  0.0442
    1CHOL    C229896  28.036  15.084   4.175 -0.1649 -0.0130  0.0825
    1CHOL   ROH29897   4.489  19.780   2.893 -0.1523  0.1780  0.0717
    1CHOL    R129898   4.410  19.711   3.156 -0.1492  0.1967  0.0763
    1CHOL    R229899   4.565  19.553   3.321 -0.2544  0.0213 -0.0008
    1CHOL    R329900   4.538  19.763   3.492 -0.0176  0.0082  0.0590
    1CHOL    R429901   4.502  19.526   3.660 -0.3821 -0.0180 -0.0263
    1CHOL    R529902   4.366  19.695   3.644 -0.1580  0.1800 -0.0106
    1CHOL    C129903   4.440  19.707   4.018 -0.2341 -0.0533  0.0151
    1CHOL    C229904   4.459  19.715   4.349  0.0244 -0.2364 -0.4174
    1CHOL   ROH29905  27.891  16.400   5.571 -0.0320 -0.3636  0.1492
    1CHOL    R129906  27.874  16.265   5.322 -0.1218 -0.1757  0.0515
    1CHOL    R229907  27.806  16.394   5.087  0.0853  0.0647  0.1224
    1CHOL    R329908  28.039  16.285   4.999 -0.0133 -0.1421  0.1072
    1CHOL    R429909  27.893  16.357   4.755  0.1231  0.2092  0.1152
    1CHOL    R529910  27.977  16.162   4.803 -0.1125  0.0696 -0.0021
    1CHOL    C129911  28.162  16.234   4.478  0.0528  0.0995  0.0968
    1CHOL    C229912  27.974  16.085   4.260 -0.2647 -0.0558  0.0846
    1CHOL   ROH29913  23.484  13.006   2.850 -0.1188  0.2098  0.0885
    1CHOL    R129914  23.589  13.113   3.090 -0.0445  0.1247  0.0942
    1CHOL    R229915  23.535  13.006   3.338  0.0247  0.0431  0.0728
    1CHOL    R329916  23.806  12.998   3.359  0.0307  0.0262 -0.0071
    1CHOL    R429917  23.709  12.956   3.633  0.0995 -0.3384 -0.0298
    1CHOL    R529918  23.852  13.107   3.567  0.0772 -0.2428  0.1291
    1CHOL    C129919  24.064  12.920   3.824  0.1490 -0.5764 -0.1646
    1CHOL    C229920  24.304  12.679   3.929 -0.0473 -0.0003 -0.2140
    1CHOL   ROH29921   3.201   9.204   5.768 -0.0777 -0.1811  0.0536
    1CHOL    R129922   3.103   9.223   5.502 -0.0191  0.0841  0.0449
    1CHOL    R229923   3.206   9.401   5.318  0.2620  0.0411  0.1342
    1CHOL    R329924   3.237   9.177   5.167 -0.0276  0.0563  0.0497
    1CHOL    R429925   3.188   9.390   4.973  0.1613  0.1507  0.1373
    1CHOL    R529926   3.080   9.202   4.989 -0.0368  0.2761  0.1007
    1CHOL    C129927   3.208   9.174   4.631 -0.1691  0.2287  0.0597
    1CHOL    C229928   3.083   9.123   4.324  0.0782 -0.0209 -0.3355
    1CHOL   ROH29929  21.421   1.064   5.965  0.0774  0.2081  0.2214
    1CHOL    R129930  21.554   0.910   5.769 -0.0870 -0.0019  0.2710
    1CHOL    R229931  21.698   1.025   5.562 -0.3141 -0.2166 -0.0155
    1CHOL    R329932  21.897   0.865   5.656 -0.1868 -0.0618 -0.0168
    1CHOL    R429933  21.895   0.820   5.366 -0.1561 -0.0679 -0.0149
    1CHOL    R529934  21.883   0.667   5.521 -0.0348 -0.0761 -0.0131
    1CHOL    C129935  22.197   0.550   5.339  0.0554  0.1641 -0.0156
    1CHOL    C229936  22.435   0.411   5.028  0.1797  0.1203 -0.0556
    1CHOL   ROH29937   3.677  22.758   3.469 -0.0430 -0.0216 -0.0903
    1CHOL    R129938   3.623  22.595   3.693 -0.0932  0.0475 -0.0521
    1CHOL    R229939   3.813  22.540   3.886 -0.0673 -0.0837 -0.1160
    1CHOL    R329940   3.623  22.635   4.055  0.0708  0.0893 -0.0555
    1CHOL    R429941   3.753  22.417   4.203 -0.1625 -0.1211 -0.1479
    1CHOL    R529942   3.539  22.439   4.166 -0.1461  0.1480 -0.1086
    1CHOL    C129943   3.540  22.435   4.547 -0.0884  0.0192 -0.1098
    1CHOL    C229944   3.743  22.303   4.898  0.3206  0.1124  0.0651
    1CHOL   ROH29945  12.067  25.042   5.835  0.0013  0.0291  0.2147
    1CHOL    R129946  11.829  25.032   5.682 -0.0348 -0.0490  0.2772
    1CHOL    R229947  11.590  25.140   5.771  0.0413  0.1859  0.1909
    1CHOL    R329948  11.600  25.273   5.534  0.0551 -0.1223  0.0119
    1CHOL    R429949  11.323  25.303   5.625  0.1587  0.3926  0.2000
    1CHOL    R529950  11.389  25.227   5.431 -0.0978  0.0498  0.2358
    1CHOL    C129951  11.176  25.523   5.317  0.2401  0.2237  0.0374
    1CHOL    C229952  11.235  25.795   5.013  0.4221  0.2340  0.0434
    1CHOL   ROH29953  14.029  12.752   5.273 -0.2839  0.1507  0.1540
    1CHOL    R129954  13.826  12.795   5.081 -0.1260  0.0712 -0.0331
    1CHOL    R229955  13.695  12.587   4.954 -0.1349  0.0149  0.0666
    1CHOL    R329956  13.473  12.714   5.046 -0.1421  0.2118 -0.2085
    1CHOL    R429957  13.393  12.606   4.786 -0.0408 -0.0834 -0.1169
    1CHOL    R529958  13.375  12.813   4.851 -0.0043  0.0062 -0.3848
    1CHOL    C129959  13.009  12.736   4.775  0.0073  0.0441 -0.4822
    1CHOL    C229960  12.691  12.651   4.525  0.3057 -0.1489  0.0277
    1CHOL   ROH29961  29.585   9.138   3.295 -0.0496 -0.2672 -0.0439
    1CHOL    R129962  29.473   9.104   3.553  0.2430 -0.3854  0.0722
    1CHOL    R229963  29.626   9.035   3.773  0.6070  0.1126 -0.0028
    1CHOL    R329964  29.513   9.258   3.880  0.1509 -0.0824 -0.0560
    1CHOL    R429965  29.598   9.100   4.112  0.5524  0.1748 -0.0197
    1CHOL    R529966  29.399   9.180   4.075  0.3645 -0.2626 -0.0005
    1CHOL    C129967  29.476   9.347   4.409  0.0925  0.0280 -0.0795
    1CHOL    C229968  29.259   9.356   4.706 -0.4143 -0.2661  0.0141
    1CHOL   ROH29969   4.232  18.471   2.346  0.0075  0.1134  0.2207
    1CHOL    R129970   4.346  18.511   2.602  0.0402  0.1328  0.2029
    1CHOL    R229971   4.234  18.680   2.791 -0.0201  0.0290  0.2587
    1CHOL    R329972   4.245  18.458   2.948  0.1485  0.0053  0.2165
    1CHOL    R429973   4.269  18.683   3.134 -0.1209 -0.0022  0.2698
    1CHOL    R529974   4.405  18.513   3.117  0.0502  0.1287  0.2730
    1CHOL    C129975   4.300  18.477   3.482 -0.0213 -0.0427  0.2367
    1CHOL    C229976   4.261  18.546   3.816 -0.1497  0.1665  0.2035
    1CHOL   ROH29977   4.571  17.451   2.521 -0.1251 -0.0844 -0.0547
    1CHOL    R129978   4.475  17.352   2.768 -0.0892  0.0313  0.0053
    1CHOL    R229979   4.588  17.421   3.010 -0.0847  0.1801 -0.0433
    1CHOL    R329980   4.333  17.492   3.073 -0.0924  0.1673 -0.0569
    1CHOL    R429981   4.473  17.482   3.331 -0.0456  0.3679 -0.0631
    1CHOL    R529982   4.288  17.378   3.278 -0.0351  0.2902  0.0296
    1CHOL    C129983   4.167  17.584   3.575 -0.0301  0.4654 -0.0873
    1CHOL    C229984   4.351  17.437   3.835 -0.2265  0.0906  0.0477
    1CHOL   ROH29985   8.876  28.805   4.134 -0.0942 -0.1195 -0.0542
    1CHOL    R129986   8.718  28.890   4.354 -0.0420 -0.0590 -0.0395
    1CHOL    R229987   8.636  28.717   4.553 -0.0761 -0.0258 -0.0211
    1CHOL    R329988   8.754  28.900   4.716  0.0049 -0.0561 -0.0453
    1CHOL    R429989   8.671  28.682   4.895  0.0386 -0.0488 -0.0347
    1CHOL    R529990   8.622  28.894   4.917  0.0771 -0.0484 -0.0015
    1CHOL    C129991   8.802  28.834   5.248  0.1813 -0.0909 -0.0653
    1CHOL    C229992   9.084  28.740   5.472 -0.1581  0.1269  0.1778
    1CHOL   ROH29993  10.368  15.547   6.423 -0.1637  0.1025 -0.1917
    1CHOL    R129994  10.421  15.381   6.200 -0.1160  0.1089 -0.1841
    1CHOL    R229995  10.229  15.319   6.012 -0.0722  0.1197 -0.2276
    1CHOL    R329996  10.415  15.415   5.838 -0.0310  0.1186 -0.1857
    1CHOL    R429997  10.233  15.256   5.672 -0.0896  0.2465 -0.2523
    1CHOL    R529998  10.450  15.236   5.683 -0.0942  0.1616 -0.2535
    1CHOL    C129999  10.409  15.310   5.311 -0.0611  0.3193 -0.2274
    1CHOL    C230000  10.356  15.098   4.994 -0.0851  0.0082  0.0285
    1CHOL   ROH30001   3.372  21.368   2.894 -0.0381  0.0711 -0.0246
    1CHOL    R130002   3.380  21.407   3.174 -0.0584  0.1373 -0.0327
    1CHOL    R230003   3.155  21.391   3.333 -0.0414 -0.0173 -0.0175
    1CHOL    R330004   3.305  21.211   3.471  0.1174  0.1347  0.0098
    1CHOL    R430005   3.123  21.325   3.670 -0.1392 -0.1653 -0.0547
    1CHOL    R530006   3.341  21.315   3.684 -0.1331  0.1141  0.0611
    1CHOL    C130007   3.246  21.119   3.997 -0.0471 -0.1089 -0.0507
    1CHOL    C230008   3.147  20.960   4.371  0.0977 -0.1251  0.1169
    1CHOL   ROH30009   6.360  20.816   3.299  0.2599  0.0021  0.0288
    1CHOL    R130010   6.388  20.833   3.581 -0.0335  0.3199  0.0455
    1CHOL    R230011   6.184  20.920   3.745 -0.4336 -0.0780 -0.2121
    1CHOL    R330012   6.228  20.683   3.871  0.0974  0.1293  0.0200
    1CHOL    R430013   6.054  20.833   4.054 -0.4895 -0.1825 -0.2643
    1CHOL    R530014   6.246  20.742   4.103 -0.2733  0.3716 -0.0070
    1CHOL    C130015   6.021  20.561   4.352 -0.0237 -0.0488 -0.0769
    1CHOL    C230016   5.711  20.352   4.557  0.0432  0.0154 -0.0027
    1CHOL   ROH30017  25.434  21.922   5.368 -0.1435  0.1069  0.0567
    1CHOL    R130018  25.636  21.970   5.176 -0.1060  0.0978  0.0925
    1CHOL    R230019  25.785  21.767   5.062 -0.1002  0.0881  0.1100
    1CHOL    R330020  25.698  21.877   4.830 -0.0555  0.1029  0.1011
    1CHOL    R430021  25.919  21.702   4.751 -0.0915  0.0549  0.1213
    1CHOL    R530022  25.898  21.913   4.703 -0.0398  0.0564  0.1161
    1CHOL    C130023  25.916  21.768   4.351 -0.0446  0.0497  0.1194
    1CHOL    C230024  25.947  21.776   3.953 -0.0787  0.2187 -0.0023
    1CHOL   ROH30025   6.394  21.792   3.465  0.1559 -0.0592  0.0966
    1CHOL    R130026   6.550  21.822   3.700  0.0684  0.1077  0.1361
    1CHOL    R230027   6.449  21.934   3.932 -0.0949  0.0499  0.1022
    1CHOL    R330028   6.536  21.702   4.043  0.0790  0.1360  0.1446
    1CHOL    R430029   6.395  21.840   4.260  0.0145  0.0786  0.1271
    1CHOL    R530030   6.599  21.763   4.266  0.0636  0.2229  0.1205
    1CHOL    C130031   6.446  21.567   4.556  0.2415  0.1760  0.1814
    1CHOL    C230032   6.588  21.257   4.673  0.0630  0.1564 -0.1056
    1CHOL   ROH30033   8.003  12.724   6.599  0.0112  0.3213  0.0186
    1CHOL    R130034   8.112  12.660   6.346  0.0423  0.1860  0.0650
    1CHOL    R230035   7.992  12.481   6.174  0.0393  0.1242  0.1248
    1CHOL    R330036   8.009  12.688   5.998  0.1022  0.0438  0.0361
    1CHOL    R430037   8.038  12.446   5.833  0.1199 -0.0262  0.1506
    1CHOL    R530038   8.174  12.617   5.839  0.1321 -0.0391  0.1075
    1CHOL    C130039   8.080  12.621   5.470  0.2259 -0.1894  0.0823
    1CHOL    C230040   8.176  12.637   5.073 -0.2679  0.1007 -0.2133
    1CHOL   ROH30041  15.196  15.971   3.541  0.0408  0.1900  0.1119
    1CHOL    R130042  15.293  16.013   3.804 -0.2020 -0.0567  0.2447
    1CHOL    R230043  15.260  15.829   4.006 -0.0187 -0.4361 -0.0657
    1CHOL    R330044  15.530  15.852   4.028 -0.0706 -0.0058  0.1413
    1CHOL    R430045  15.445  15.719   4.276 -0.0037 -0.6191 -0.1473
    1CHOL    R530046  15.566  15.900   4.260 -0.3049 -0.3705  0.2617
    1CHOL    C130047  15.807  15.677   4.454 -0.0437 -0.3218 -0.0006
    1CHOL    C230048  15.659  15.652   4.730  0.1634 -0.1641  0.3477
    1CHOL   ROH30049   0.457  27.582   6.084  0.0985  0.2099  0.0666
    1CHOL    R130050   0.499  27.398   5.873  0.1196  0.2955 -0.0039
    1CHOL    R230051   0.721  27.408   5.710  0.3079  0.1564  0.2414
    1CHOL    R330052   0.748  27.148   5.786 -0.0602  0.0715  0.1098
    1CHOL    R430053   0.807  27.148   5.498  0.4509  0.2363  0.1996
    1CHOL    R530054   0.661  27.022   5.601  0.1476  0.2846 -0.1440
    1CHOL    C130055   0.883  26.753   5.447  0.1886  0.2033  0.0517
    1CHOL    C230056   1.074  26.633   5.106 -0.0680 -0.2539 -0.0247
    1CHOL   ROH30057  13.444  19.196   3.193 -0.0960 -0.0658 -0.0059
    1CHOL    R130058  13.438  19.248   3.471 -0.0431  0.0685 -0.0293
    1CHOL    R230059  13.245  19.407   3.588 -0.1265 -0.0195 -0.0459
    1CHOL    R330060  13.207  19.189   3.746  0.0924  0.0284  0.0764
    1CHOL    R430061  13.091  19.411   3.898 -0.3214 -0.0305 -0.1405
    1CHOL    R530062  13.242  19.270   3.969 -0.1571  0.2295  0.0459
    1CHOL    C130063  12.967  19.209   4.227 -0.2295  0.0080 -0.0808
    1CHOL    C230064  12.890  19.479   4.411 -0.0380 -0.2354  0.2958
    1CHOL   ROH30065  25.160  25.355   6.500 -0.3139  0.0804  0.0642
    1CHOL    R130066  25.129  25.345   6.219 -0.1099 -0.0300  0.0435
    1CHOL    R230067  24.938  25.492   6.084 -0.1398 -0.2222 -0.1368
    1CHOL    R330068  25.153  25.579   5.942 -0.1062 -0.0929 -0.0083
    1CHOL    R430069  24.923  25.625   5.766 -0.0211 -0.2535 -0.1552
    1CHOL    R530070  25.105  25.515   5.716  0.0799 -0.1376 -0.0341
    1CHOL    C130071  25.116  25.783   5.446  0.0794 -0.1503 -0.0453
    1CHOL    C230072  24.917  25.948   5.060 -0.2038  0.1271  0.0405
    1CHOL   ROH30073   6.025  15.332   3.024  0.0874  0.0217  0.1551
    1CHOL    R130074   5.825  15.427   3.201 -0.0092  0.0633  0.0254
    1CHOL    R230075   5.638  15.260   3.318 -0.0632  0.0869 -0.0196
    1CHOL    R330076   5.730  15.373   3.548 -0.1838  0.1588 -0.0064
    1CHOL    R430077   5.501  15.211   3.631 -0.1094  0.0350 -0.0486
    1CHOL    R530078   5.533  15.423   3.673 -0.2414  0.0555 -0.0579
    1CHOL    C130079   5.507  15.288   4.029 -0.2495  0.0722 -0.0532
    1CHOL    C230080   5.305  15.294   4.417  0.2760 -0.6808 -0.2828
    1CHOL   ROH30081   9.083  11.131   3.584  0.1276  0.0086  0.2104
    1CHOL    R130082   9.068  11.185   3.861  0.0244  0.1243  0.1819
    1CHOL    R230083   8.983  11.429   3.961 -0.1291  0.1211  0.0484
    1CHOL    R330084   8.808  11.275   4.099 -0.0862  0.0944  0.0759
    1CHOL    R430085   8.883  11.488   4.286 -0.0864  0.1186  0.0630
    1CHOL    R530086   8.893  11.273   4.323 -0.0470  0.1147  0.0660
    1CHOL    C130087   8.659  11.377   4.606 -0.0212  0.0923  0.0973
    1CHOL    C230088   8.637  11.400   4.936 -0.0739 -0.1597  0.0558
    1CHOL   ROH30089   6.529  15.689   3.081  0.0997 -0.0723 -0.0377
    1CHOL    R130090   6.620  15.728   3.346  0.1911 -0.1252 -0.0605
    1CHOL    R230091   6.513  15.921   3.513  0.3453 -0.0609 -0.0314
    1CHOL    R330092   6.477  15.710   3.680  0.2642 -0.0420 -0.0246
    1CHOL    R430093   6.486  15.944   3.857 -0.0597 -0.0003 -0.0623
    1CHOL    R530094   6.608  15.764   3.873  0.0163  0.0675  0.1161
    1CHOL    C130095   6.437  15.759   4.214 -0.3717  0.0527 -0.0739
    1CHOL    C230096   6.313  15.641   4.556  0.1748  0.2582 -0.1056
    1CHOL   ROH30097  15.108  11.779   3.848 -0.0511 -0.0672  0.0610
    1CHOL    R130098  14.955  12.006   3.919  0.0368  0.0266 -0.0440
    1CHOL    R230099  14.783  12.009   4.135  0.0048  0.1818 -0.0677
    1CHOL    R330100  14.928  12.227   4.206  0.0909  0.1439 -0.1280
    1CHOL    R430101  14.660  12.278   4.314  0.0549  0.3720 -0.3153
    1CHOL    R530102  14.775  12.410   4.185  0.2086  0.2204 -0.3372
    1CHOL    C130103  14.724  12.639   4.485  0.1650  0.4471 -0.5161
    1CHOL    C230104  14.497  12.815   4.404 -0.3170 -0.2091  0.1702
    1CHOL   ROH30105  10.342  19.009   3.348 -0.1508  0.0900 -0.1308
    1CHOL    R130106  10.309  18.910   3.611 -0.1883  0.1442 -0.1148
    1CHOL    R230107  10.088  18.762   3.688 -0.0623 -0.0899 -0.1960
    1CHOL    R330108  10.276  18.583   3.767  0.1055  0.1565 -0.0199
    1CHOL    R430109  10.090  18.598   3.992 -0.1358 -0.0867 -0.1937
    1CHOL    R530110  10.305  18.625   4.000 -0.1732  0.1995  0.0115
    1CHOL    C130111  10.267  18.333   4.243 -0.0210  0.1468 -0.0270
    1CHOL    C230112  10.446  18.237   4.641 -0.2314  0.2018 -0.1871
    1CHOL   ROH30113   1.617  10.852   6.130 -0.1468 -0.0132  0.0453
    1CHOL    R130114   1.570  10.733   5.877 -0.2108 -0.0926  0.0927
    1CHOL    R230115   1.372  10.822   5.706 -0.1460 -0.0328  0.0371
    1CHOL    R330116   1.578  10.840   5.530 -0.1174 -0.2449  0.0493
    1CHOL    R430117   1.338  10.823   5.362 -0.1332  0.1780  0.0365
    1CHOL    R530118   1.514  10.696   5.349 -0.3173 -0.0672 -0.0198
    1CHOL    C130119   1.512  10.840   4.996 -0.0990  0.1017  0.0476
    1CHOL    C230120   1.561  10.577   4.612  0.0433 -0.0319  0.3023
    1CHOL   ROH30121  21.037  12.026   3.542  0.1006  0.0564  0.1696
    1CHOL    R130122  20.806  12.091   3.693  0.1294  0.0527  0.2137
    1CHOL    R230123  20.815  12.256   3.915  0.1162  0.3432 -0.0037
    1CHOL    R330124  20.624  12.394   3.779 -0.0831  0.0124 -0.0722
    1CHOL    R430125  20.545  12.415   4.061  0.0890  0.3228 -0.0298
    1CHOL    R530126  20.421  12.344   3.896  0.0303 -0.0014  0.1346
    1CHOL    C130127  20.208  12.636   4.019 -0.1136  0.0004 -0.1093
    1CHOL    C230128  20.169  12.867   4.328 -0.1157  0.0567 -0.0526
    1CHOL   ROH30129  10.235  13.524   3.289  0.0886 -0.3172  0.1989
    1CHOL    R130130  10.265  13.662   3.534  0.1778 -0.2162  0.1327
    1CHOL    R230131  10.106  13.609   3.755  0.1100  0.0255  0.1471
    1CHOL    R330132  10.346  13.574   3.878  0.0714 -0.1118  0.1844
    1CHOL    R430133  10.158  13.624   4.096  0.0623 -0.0553  0.1579
    1CHOL    R530134  10.344  13.730   4.059  0.1194 -0.1418  0.2083
    1CHOL    C130135  10.413  13.599   4.410 -0.0016 -0.2315  0.1991
    1CHOL    C230136  10.439  13.785   4.580  0.4330 -0.1607 -0.0917
    1CHOL   ROH30137   9.286  10.541   6.301  0.0905 -0.0578 -0.0244
    1CHOL    R130138   9.197  10.421   6.060  0.2462  0.0278 -0.1271
    1CHOL    R230139   8.938  10.449   5.967  0.1536 -0.3669 -0.0093
    1CHOL    R330140   9.063  10.535   5.742 -0.0762  0.1254  0.0389
    1CHOL    R430141   8.805  10.428   5.649  0.0922 -0.2753  0.0104
    1CHOL    R530142   9.003  10.372   5.576  0.1855  0.1843 -0.1193
    1CHOL    C130143   8.844  10.496   5.252 -0.1591  0.2402  0.0671
    1CHOL    C230144   8.448  10.454   5.108 -0.0616 -0.2040 -0.1475
    1CHOL   ROH30145  18.340  21.817   3.815  0.2345 -0.1257  0.0085
    1CHOL    R130146  18.498  22.005   3.956  0.1522 -0.0095 -0.0515
    1CHOL    R230147  18.389  22.227   4.081  0.0277 -0.1196  0.0453
    1CHOL    R330148  18.520  22.128   4.297  0.2359 -0.0457 -0.0445
    1CHOL    R430149  18.451  22.402   4.372 -0.1397 -0.1835  0.1195
    1CHOL    R530150  18.649  22.312   4.379 -0.0057  0.0986  0.0134
    1CHOL    C130151  18.609  22.411   4.745 -0.0414 -0.1513  0.0783
    1CHOL    C230152  18.578  22.794   4.891 -0.2540 -0.0110  0.3423
    1CHOL   ROH30153   3.288  18.892   6.128  0.2888 -0.0921  0.0298
    1CHOL    R130154   3.222  18.978   5.866  0.0496 -0.2632  0.0305
    1CHOL    R230155   3.397  19.123   5.709 -0.2596  0.0355 -0.0508
    1CHOL    R330156   3.350  18.923   5.530  0.0555 -0.0938  0.0049
    1CHOL    R430157   3.420  19.156   5.366 -0.2230 -0.0536 -0.0573
    1CHOL    R530158   3.241  19.033   5.346 -0.0513 -0.3060 -0.0600
    1CHOL    C130159   3.390  18.989   4.998  0.0941 -0.2270 -0.0088
    1CHOL    C230160   3.289  18.912   4.602 -0.3804  0.0981  0.2214
    1CHOL   ROH30161  15.475  25.360   3.500  0.0794  0.2833 -0.1160
    1CHOL    R130162  15.518  25.341   3.780  0.0739  0.2663 -0.1161
    1CHOL    R230163  15.681  25.149   3.893 -0.0359  0.1713 -0.1129
    1CHOL    R330164  15.802  25.365   4.006  0.0936  0.1050 -0.1237
    1CHOL    R430165  15.831  25.152   4.205 -0.1866  0.1461 -0.0398
    1CHOL    R530166  15.746  25.350   4.238 -0.0339  0.2288 -0.1463
    1CHOL    C130167  16.031  25.356   4.492 -0.1528  0.0690 -0.0073
    1CHOL    C230168  16.098  25.666   4.637 -0.2393 -0.4585  0.2132
    1CHOL   ROH30169  10.045  11.423   6.708  0.1525  0.0191 -0.0638
    1CHOL    R130170  10.225  11.388   6.492  0.1202 -0.0580 -0.0778
    1CHOL    R230171  10.230  11.159   6.339 -0.0471 -0.0263 -0.1278
    1CHOL    R330172  10.198  11.334   6.133  0.0700  0.0407 -0.0907
    1CHOL    R430173  10.303  11.090   6.008 -0.1033 -0.0180 -0.1423
    1CHOL    R530174  10.385  11.291   5.989  0.0410 -0.0667 -0.1034
    1CHOL    C130175  10.315  11.215   5.622 -0.0262  0.0498 -0.1159
    1CHOL    C230176  10.458  11.191   5.325 -0.1351 -0.0935  0.2543
    1CHOL   ROH30177  19.486   4.249   6.396 -0.0044  0.2641 -0.1176
    1CHOL    R130178  19.271   4.266   6.212 -0.0368  0.0223 -0.1050
    1CHOL    R230179  19.303   4.220   5.942  0.0152  0.1238 -0.1142
    1CHOL    R330180  19.102   4.041   5.981  0.2474 -0.1531 -0.1485
    1CHOL    R430181  19.086   4.112   5.696 -0.2521  0.3986 -0.0057
    1CHOL    R530182  18.924   4.123   5.842 -0.0491 -0.0435  0.2739
    1CHOL    C130183  18.770   3.882   5.589 -0.1897  0.2988  0.0253
    1CHOL    C230184  18.564   3.805   5.288 -0.3967 -0.1966  0.0408
    1CHOL   ROH30185  26.682  16.207   5.416 -0.0243  0.3847  0.1431
    1CHOL    R130186  26.560  16.183   5.162  0.0372  0.2140  0.1285
    1CHOL    R230187  26.379  16.368   5.066  0.1338  0.2003 -0.0795
    1CHOL    R330188  26.549  16.376   4.854  0.1943 -0.0441 -0.0440
    1CHOL    R430189  26.281  16.356   4.734  0.1547  0.5424 -0.1018
    1CHOL    R530190  26.452  16.226   4.694 -0.0881  0.2115 -0.1276
    1CHOL    C130191  26.384  16.357   4.342  0.2236  0.5123 -0.0816
    1CHOL    C230192  26.494  16.329   4.057  0.1170  0.0298  0.1546
    1CHOL   ROH30193   8.708  22.163   3.029  0.0604 -0.1684  0.0228
    1CHOL    R130194   8.618  22.071   3.282 -0.0363 -0.2201 -0.0289
    1CHOL    R230195   8.566  21.804   3.333  0.1491 -0.2640 -0.0406
    1CHOL    R330196   8.740  21.844   3.538 -0.0195 -0.0968  0.0715
    1CHOL    R430197   8.566  21.628   3.630  0.2145 -0.3537 -0.0940
    1CHOL    R530198   8.608  21.814   3.735 -0.0906 -0.3303 -0.0128
    1CHOL    C130199   8.728  21.563   3.996  0.0944 -0.2490 -0.0198
    1CHOL    C230200   8.589  21.464   4.298 -0.1672  0.0313  0.3074
    1CHOL   ROH30201  22.741  28.866   6.107 -0.0040 -0.1147 -0.0181
    1CHOL    R130202  22.878  28.744   5.891 -0.2482 -0.2454 -0.1037
    1CHOL    R230203  22.746  28.637   5.673 -0.4747  0.1952 -0.1999
    1CHOL    R330204  22.911  28.801   5.533 -0.1131 -0.0368 -0.0584
    1CHOL    R430205  22.834  28.593   5.342 -0.3202  0.1295 -0.1504
    1CHOL    R530206  23.037  28.654   5.393 -0.2542 -0.2075 -0.0044
    1CHOL    C130207  23.041  28.722   5.018  0.1089 -0.1264  0.0112
    1CHOL    C230208  23.212  28.723   4.695  0.0235 -0.1397 -0.0581
    1CHOL   ROH30209   2.095  11.074   3.000 -0.2673 -0.1655  0.0538
    1CHOL    R130210   2.241  10.955   3.211 -0.1901  0.0282  0.1100
    1CHOL    R230211   2.248  11.062   3.466 -0.3555  0.0888  0.0859
    1CHOL    R330212   2.166  10.813   3.537 -0.1133  0.0166  0.1240
    1CHOL    R430213   2.236  10.944   3.790 -0.5533  0.2511  0.1403
    1CHOL    R530214   2.311  10.753   3.718 -0.2232  0.3019  0.3185
    1CHOL    C130215   2.152  10.642   4.047 -0.4412  0.2779  0.2079
    1CHOL    C230216   2.044  10.548   4.414  0.1235  0.0972 -0.0783
    1CHOL   ROH30217   3.470   8.168   5.821  0.2186  0.1798 -0.1968
    1CHOL    R130218   3.305   8.096   5.603  0.1620  0.3366 -0.2065
    1CHOL    R230219   3.322   8.219   5.357  0.4254  0.1955 -0.2592
    1CHOL    R330220   3.353   7.964   5.267  0.0467  0.0990 -0.1329
    1CHOL    R430221   3.286   8.119   5.028  0.7627  0.1973 -0.3009
    1CHOL    R530222   3.184   7.940   5.098  0.2619  0.4141 -0.4101
    1CHOL    C130223   3.293   7.822   4.752  0.6036  0.1076 -0.2067
    1CHOL    C230224   2.984   7.748   4.489  0.2485 -0.1201  0.1551
    1CHOL   ROH30225   4.737  26.359   3.829 -0.1512  0.0909  0.0511
    1CHOL    R130226   4.713  26.198   4.062 -0.1102  0.0846  0.0511
    1CHOL    R230227   4.849  26.254   4.295 -0.0708  0.0799  0.0295
    1CHOL    R330228   4.601  26.245   4.405 -0.0523  0.0750  0.0715
    1CHOL    R430229   4.781  26.165   4.622 -0.0247 -0.0329  0.0089
    1CHOL    R530230   4.607  26.054   4.550 -0.0536  0.0194 -0.0010
    1CHOL    C130231   4.507  26.104   4.915  0.0195 -0.1031  0.0363
    1CHOL    C230232   4.297  26.370   5.151  0.1001 -0.1205 -0.0097
    1CHOL   ROH30233  24.990  18.313   5.085 -0.3361 -0.1319  0.1138
    1CHOL    R130234  25.153  18.245   4.864 -0.1932 -0.1566  0.2256
    1CHOL    R230235  25.119  18.012   4.720 -0.2463 -0.0674  0.0963
    1CHOL    R330236  25.103  18.182   4.509  0.0683  0.0370  0.1507
    1CHOL    R430237  25.168  17.922   4.390 -0.2395 -0.0171  0.0830
    1CHOL    R530238  25.277  18.109   4.361  0.0313 -0.1479  0.1933
    1CHOL    C130239  25.182  18.029   4.000  0.0598  0.1102  0.1263
    1CHOL    C230240  25.267  18.291   3.722 -0.1033 -0.0576 -0.0814
    1CHOL   ROH30241   9.008  16.358   3.318  0.2311  0.2955 -0.0131
    1CHOL    R130242   8.887  16.319   3.570  0.0165  0.2531 -0.1200
    1CHOL    R230243   9.032  16.259   3.798 -0.1902  0.0552 -0.0353
    1CHOL    R330244   8.904  16.476   3.898 -0.1284  0.0905 -0.0334
    1CHOL    R430245   8.985  16.324   4.134 -0.2432  0.0230 -0.0368
    1CHOL    R530246   8.784  16.393   4.088 -0.2054  0.1088 -0.0738
    1CHOL    C130247   8.837  16.565   4.424 -0.2161  0.0375 -0.0359
    1CHOL    C230248   8.671  16.537   4.789  0.4050  0.1532  0.0768
    1CHOL   ROH30249   3.578  10.701   2.862  0.1504 -0.2184  0.1343
    1CHOL    R130250   3.379  10.749   3.058 -0.0197  0.1911 -0.1237
    1CHOL    R230251   3.383  10.627   3.306 -0.7133 -0.0023 -0.1854
    1CHOL    R330252   3.369  10.883   3.396 -0.1364 -0.0068 -0.0481
    1CHOL    R430253   3.289  10.720   3.625 -0.6464  0.0494 -0.1810
    1CHOL    R530254   3.178  10.886   3.539 -0.2072  0.3768 -0.1437
    1CHOL    C130255   3.222  11.015   3.896 -0.0658  0.0754 -0.0496
    1CHOL    C230256   3.032  11.111   4.278 -0.1881  0.1466 -0.0231
    1CHOL   ROH30257  12.430  13.475   3.674  0.0330  0.1446 -0.0865
    1CHOL    R130258  12.563  13.565   3.907  0.0120  0.1370 -0.0720
    1CHOL    R230259  12.754  13.414   4.037 -0.0521  0.1037 -0.0195
    1CHOL    R330260  12.907  13.636   4.004  0.0121  0.0611 -0.0144
    1CHOL    R430261  13.055  13.473   4.197 -0.1387  0.1051  0.1451
    1CHOL    R530262  12.995  13.681   4.222 -0.1147  0.1289  0.0254
    1CHOL    C130263  13.373  13.717   4.260 -0.1288  0.0659  0.2458
    1CHOL    C230264  13.587  13.575   4.519  0.1583 -0.0502 -0.2115
    1CHOL   ROH30265   2.488  22.190   3.240 -0.1138  0.2813 -0.0528
    1CHOL    R130266   2.333  22.069   3.443  0.0011  0.1207 -0.0566
    1CHOL    R230267   2.444  21.912   3.644  0.1680  0.2980  0.0010
    1CHOL    R330268   2.313  22.086   3.806 -0.0844  0.1711 -0.0652
    1CHOL    R430269   2.347  21.845   3.968  0.0138  0.1928 -0.0670
    1CHOL    R530270   2.160  21.949   3.929 -0.0470  0.0355 -0.1748
    1CHOL    C130271   2.168  21.969   4.310 -0.3129  0.0125 -0.1687
    1CHOL    C230272   2.288  21.950   4.712  0.1007 -0.2456  0.0116
    1CHOL   ROH30273  28.325  13.533   5.875 -0.0333  0.0149 -0.1293
    1CHOL    R130274  28.326  13.319   5.690  0.0950 -0.1361  0.0408
    1CHOL    R230275  28.395  13.352   5.425 -0.2447 -0.2335 -0.0695
    1CHOL    R330276  28.571  13.152   5.479  0.1320  0.0822 -0.0898
    1CHOL    R430277  28.572  13.174   5.186 -0.1763 -0.1215 -0.1024
    1CHOL    R530278  28.537  12.993   5.303  0.2233 -0.0992  0.0577
    1CHOL    C130279  28.840  12.883   5.099  0.2173  0.2401 -0.1407
    1CHOL    C230280  28.880  12.769   4.730 -0.2799 -0.1237  0.0491
    1CHOL   ROH30281  29.218  23.004   6.068  0.1549  0.2310  0.1324
    1CHOL    R130282  29.114  22.979   5.805  0.1465  0.1143  0.1465
    1CHOL    R230283  29.055  23.199   5.647  0.1232  0.0429  0.0598
    1CHOL    R330284  29.219  23.075   5.470  0.1241 -0.0160  0.1008
    1CHOL    R430285  28.993  23.166   5.309  0.1242 -0.0542  0.0682
    1CHOL    R530286  29.071  22.964   5.319  0.1192 -0.0574  0.1315
    1CHOL    C130287  29.112  23.031   4.946  0.1261 -0.1663  0.1116
    1CHOL    C230288  29.170  22.981   4.612 -0.2251 -0.0403 -0.6886
    1CHOL   ROH30289   4.241  11.672   6.607  0.1423  0.2617  0.1056
    1CHOL    R130290   4.186  11.634   6.332  0.0892  0.1217  0.1348
    1CHOL    R230291   4.038  11.815   6.184  0.0854  0.0603  0.0656
    1CHOL    R330292   4.256  11.811   6.022  0.0556 -0.0518  0.0267
    1CHOL    R430293   4.042  11.924   5.856  0.0692  0.0111  0.0486
    1CHOL    R530294   4.169  11.754   5.806 -0.0077 -0.0487  0.0503
    1CHOL    C130295   4.249  11.984   5.513  0.0319 -0.1228  0.0023
    1CHOL    C230296   4.403  12.037   5.174  0.1302 -0.1514 -0.1743
    1CHOL   ROH30297   7.465  10.011   3.458  0.0009  0.1017 -0.1068
    1CHOL    R130298   7.494   9.944   3.731 -0.1386 -0.0265 -0.1223
    1CHOL    R230299   7.708  10.030   3.884 -0.0603 -0.3403 -0.0480
    1CHOL    R330300   7.512  10.123   4.047  0.0182 -0.1509 -0.0597
    1CHOL    R430301   7.761  10.174   4.193  0.0667 -0.2231 -0.1229
    1CHOL    R530302   7.587  10.067   4.267  0.0181 -0.0882 -0.0449
    1CHOL    C130303   7.608  10.346   4.527  0.2142  0.0230 -0.1775
    1CHOL    C230304   7.625  10.018   4.807  0.4285  0.0018  0.0415
    1CHOL   ROH30305   5.806  18.774   6.355  0.2324 -0.0795 -0.0088
    1CHOL    R130306   5.906  18.640   6.127  0.0559 -0.1406 -0.0518
    1CHOL    R230307   5.745  18.572   5.912 -0.0549  0.0541 -0.0320
    1CHOL    R330308   5.932  18.709   5.770  0.0541 -0.1060 -0.0458
    1CHOL    R430309   5.815  18.522   5.577 -0.3078  0.1630 -0.1027
    1CHOL    R530310   6.026  18.546   5.623 -0.2447 -0.1485 -0.2003
    1CHOL    C130311   6.030  18.622   5.249 -0.3526  0.0763 -0.1569
    1CHOL    C230312   6.270  18.544   4.894  0.1294 -0.3973 -0.2227
    1CHOL   ROH30313  20.751   8.393   3.675 -0.1809 -0.0030 -0.0707
    1CHOL    R130314  20.862   8.326   3.927 -0.1094  0.0021 -0.1005
    1CHOL    R230315  20.717   8.195   4.123 -0.0390 -0.0380 -0.0747
    1CHOL    R330316  20.925   8.021   4.114 -0.0078  0.0020 -0.1344
    1CHOL    R430317  20.764   7.930   4.340  0.1065  0.0059 -0.0513
    1CHOL    R530318  20.976   7.975   4.343  0.0990  0.0488 -0.1487
    1CHOL    C130319  20.986   7.612   4.457  0.2210  0.0688 -0.0937
    1CHOL    C230320  20.733   7.507   4.736 -0.3971 -0.0527 -0.0970
    1CHOL   ROH30321   3.356  18.957   2.789  0.2105  0.1146  0.0196
    1CHOL    R130322   3.382  18.764   2.995  0.0959  0.0419 -0.0324
    1CHOL    R230323   3.452  18.830   3.253  0.2021 -0.0767 -0.0282
    1CHOL    R330324   3.224  18.695   3.315  0.1033  0.0920 -0.0181
    1CHOL    R430325   3.376  18.708   3.567  0.3128 -0.3633 -0.1107
    1CHOL    R530326   3.296  18.528   3.472  0.0481 -0.1711 -0.2659
    1CHOL    C130327   3.118  18.509   3.809  0.2845 -0.3722 -0.1493
    1CHOL    C230328   3.005  18.536   4.174  0.3929 -0.0895 -0.0453
    1CHOL   ROH30329  28.608  15.433   2.323 -0.2112  0.1880 -0.1226
    1CHOL    R130330  28.592  15.383   2.601  0.0459  0.2301 -0.0976
    1CHOL    R230331  28.547  15.584   2.786 -0.0479  0.2222 -0.1143
    1CHOL    R330332  28.342  15.424   2.863  0.1850  0.0043  0.0750
    1CHOL    R430333  28.355  15.632   3.069 -0.3077  0.4676 -0.3263
    1CHOL    R530334  28.358  15.416   3.102  0.0584  0.5218  0.1131
    1CHOL    C130335  28.050  15.510   3.306 -0.2405  0.4060 -0.2719
    1CHOL    C230336  27.892  15.799   3.526 -0.3348 -0.2326  0.1738
    1CHOL   ROH30337  28.137  19.469   2.246 -0.0802 -0.0751 -0.1930
    1CHOL    R130338  28.168  19.411   2.521 -0.1205 -0.1297 -0.1994
    1CHOL    R230339  28.188  19.609   2.714  0.1077 -0.1631 -0.1851
    1CHOL    R330340  27.981  19.474   2.827 -0.0308  0.0496 -0.1809
    1CHOL    R430341  28.149  19.556   3.053  0.1041 -0.1971 -0.1909
    1CHOL    R530342  28.081  19.354   3.009 -0.1387 -0.1091 -0.2260
    1CHOL    C130343  27.932  19.399   3.357 -0.0281 -0.0171 -0.1905
    1CHOL    C230344  28.009  19.307   3.712 -0.0109 -0.1404 -0.1285
    1CHOL   ROH30345   9.377   8.462   3.014 -0.3326 -0.2953 -0.0571
    1CHOL    R130346   9.421   8.379   3.281 -0.1078 -0.0244 -0.0040
    1CHOL    R230347   9.415   8.554   3.495 -0.1808  0.1571 -0.1417
    1CHOL    R330348   9.233   8.377   3.592  0.0485  0.0447  0.0891
    1CHOL    R430349   9.293   8.555   3.818 -0.0809  0.3178 -0.1043
    1CHOL    R530350   9.304   8.337   3.817  0.1610  0.3348  0.1024
    1CHOL    C130351   9.051   8.389   4.098  0.1927  0.3059  0.1342
    1CHOL    C230352   9.151   8.292   4.428 -0.3073 -0.1004 -0.0649
    1CHOL   ROH30353   1.017   9.895   6.165  0.3011 -0.0531 -0.0333
    1CHOL    R130354   1.019   9.998   5.902  0.1515 -0.0171 -0.0213
    1CHOL    R230355   1.204   9.919   5.713  0.1732  0.1596 -0.0762
    1CHOL    R330356   0.982   9.865   5.565  0.1804 -0.0064 -0.0286
    1CHOL    R430357   1.198   9.890   5.368  0.1293  0.0982 -0.0705
    1CHOL    R530358   1.008   9.998   5.368  0.0603 -0.0223 -0.0556
    1CHOL    C130359   0.986   9.822   5.029  0.1105 -0.0933 -0.0225
    1CHOL    C230360   0.982   9.650   4.709  0.1484  0.1365  0.1399
    1CHOL   ROH30361   5.294  10.508   6.341  0.2776 -0.1039  0.1640
    1CHOL    R130362   5.384  10.663   6.122  0.1102 -0.0370  0.1405
    1CHOL    R230363   5.616  10.605   5.983  0.1675  0.1818  0.1357
    1CHOL    R330364   5.449  10.608   5.768  0.1504 -0.0153  0.1452
    1CHOL    R430365   5.718  10.637   5.655  0.1108  0.3089  0.1305
    1CHOL    R530366   5.548  10.768   5.620 -0.0495  0.1053  0.1414
    1CHOL    C130367   5.621  10.659   5.262  0.0617  0.1980  0.1363
    1CHOL    C230368   5.659  10.604   4.889 -0.0260 -0.0813  0.1449
    1CHOL   ROH30369   4.144  13.340   3.125  0.2935  0.1186  0.1339
    1CHOL    R130370   4.086  13.407   3.394  0.2937  0.1577  0.1233
    1CHOL    R230371   3.943  13.241   3.562  0.2179  0.2237  0.1182
    1CHOL    R330372   4.160  13.270   3.723  0.2117  0.1537  0.1414
    1CHOL    R430373   3.937  13.229   3.908  0.1982  0.0631  0.1140
    1CHOL    R530374   4.079  13.393   3.911  0.1975  0.0673  0.1960
    1CHOL    C130375   4.137  13.249   4.259  0.1810 -0.0962  0.1332
    1CHOL    C230376   4.163  13.305   4.619  0.1083 -0.0564  0.1516
    1CHOL   ROH30377  21.188  23.890   5.640 -0.1411 -0.1287  0.1293
    1CHOL    R130378  21.260  24.127   5.503 -0.1558 -0.2991 -0.1837
    1CHOL    R230379  21.390  24.337   5.628 -0.5406  0.0474 -0.3444
    1CHOL    R330380  21.569  24.304   5.426 -0.1954 -0.1551 -0.0203
    1CHOL    R430381  21.611  24.579   5.518 -0.4617 -0.0088 -0.3109
    1CHOL    R530382  21.571  24.515   5.313 -0.1060 -0.2995 -0.3015
    1CHOL    C130383  21.907  24.689   5.264 -0.0917 -0.2315  0.0128
    1CHOL    C230384  22.189  25.047   5.247  0.3290  0.0749  0.0560
    1CHOL   ROH30385   6.204  17.535   6.724 -0.0706  0.0770  0.0175
    1CHOL    R130386   6.094  17.581   6.468  0.0097 -0.0199 -0.0351
    1CHOL    R230387   6.123  17.821   6.334 -0.0896 -0.0126 -0.0441
    1CHOL    R330388   6.220  17.662   6.136  0.1013  0.0313  0.0118
    1CHOL    R430389   6.164  17.918   6.005  0.0900  0.0154 -0.0149
    1CHOL    R530390   6.091  17.722   5.943  0.2043 -0.0102 -0.0711
    1CHOL    C130391   6.278  17.825   5.627  0.3739  0.0731  0.0546
    1CHOL    C230392   6.351  17.721   5.287  0.2006 -0.1452 -0.4297
    1CHOL   ROH30393  29.342  11.385   3.002  0.1266  0.0556 -0.0607
    1CHOL    R130394  29.326  11.513   3.254  0.1304  0.0059 -0.0355
    1CHOL    R230395  29.128  11.454   3.437  0.0736  0.0434 -0.0868
    1CHOL    R330396  29.339  11.411   3.603  0.0251 -0.0766 -0.0545
    1CHOL    R430397  29.125  11.509   3.779  0.1445  0.3541 -0.1323
    1CHOL    R530398  29.327  11.590   3.762  0.2515  0.0870 -0.2124
    1CHOL    C130399  29.321  11.500   4.133  0.1402  0.4223 -0.1285
    1CHOL    C230400  29.418  11.620   4.312 -0.0621  0.1283 -0.0904
    1CHOL   ROH30401   0.897   2.972   3.886  0.3151 -0.0862 -0.0091
    1CHOL    R130402   1.036   2.906   4.123  0.3362 -0.0001  0.0025
    1CHOL    R230403   1.294   2.992   4.173  0.2418  0.2481  0.0704
    1CHOL    R330404   1.183   3.088   4.402  0.1020  0.0867  0.0727
    1CHOL    R430405   1.462   3.033   4.472  0.1444  0.3220  0.1160
    1CHOL    R530406   1.285   2.959   4.576  0.1849  0.1305  0.0594
    1CHOL    C130407   1.456   3.146   4.861 -0.0437  0.2135  0.1447
    1CHOL    C230408   1.772   3.194   5.080 -0.0685  0.1191 -0.0476
    1CHOL   ROH30409  28.154  20.762   5.483  0.0714 -0.0203 -0.0196
    1CHOL    R130410  28.290  20.974   5.354 -0.0874 -0.0220 -0.1945
    1CHOL    R230411  28.565  20.985   5.335 -0.0813  0.2748 -0.0065
    1CHOL    R330412  28.513  21.011   5.070  0.0732 -0.1291 -0.0835
    1CHOL    R430413  28.775  21.137   5.107 -0.0516  0.1314 -0.0762
    1CHOL    R530414  28.600  21.227   5.013 -0.0629 -0.1334 -0.3195
    1CHOL    C130415  28.849  21.250   4.725  0.1106 -0.3312 -0.1890
    1CHOL    C230416  29.094  21.275   4.427 -0.1476  0.2367 -0.3051
    1CHOL   ROH30417   0.769  10.131   3.030 -0.0689 -0.0839 -0.0839
    1CHOL    R130418   0.859  10.184   3.293 -0.1372 -0.1212 -0.0524
    1CHOL    R230419   0.941  10.434   3.375 -0.0705 -0.1509 -0.0211
    1CHOL    R330420   0.756  10.396   3.570 -0.1522 -0.0861 -0.0853
    1CHOL    R430421   0.961  10.565   3.694 -0.0463 -0.3079  0.0421
    1CHOL    R530422   0.885  10.375   3.771 -0.2204 -0.2798 -0.0604
    1CHOL    C130423   0.799  10.604   4.064 -0.1089 -0.3386  0.0185
    1CHOL    C230424   0.488  10.790   4.322 -0.3081  0.2596  0.0591
    1CHOL   ROH30425   1.498  13.377   3.057  0.0300 -0.2767 -0.0598
    1CHOL    R130426   1.649  13.343   3.294  0.0609 -0.2213 -0.0709
    1CHOL    R230427   1.669  13.539   3.488  0.1456 -0.1468 -0.1513
    1CHOL    R330428   1.582  13.340   3.652  0.1189 -0.0593 -0.0586
    1CHOL    R430429   1.759  13.503   3.820  0.2685 -0.1012 -0.1792
    1CHOL    R530430   1.772  13.288   3.788  0.1499 -0.1152 -0.1256
    1CHOL    C130431   1.729  13.296   4.167  0.3150  0.0074 -0.1084
    1CHOL    C230432   1.702  13.075   4.341 -0.1415 -0.0568 -0.2519
    1CHOL   ROH30433  17.097   2.288   6.403 -0.0806 -0.2130  0.4772
    1CHOL    R130434  17.150   2.200   6.139 -0.0406  0.1002  0.3789
    1CHOL    R230435  17.289   1.968   6.085  0.0207  0.2005  0.1244
    1CHOL    R330436  17.070   1.910   5.935  0.0496  0.3078  0.0364
    1CHOL    R430437  17.267   1.705   5.862  0.0561  0.3252 -0.0297
    1CHOL    R530438  17.159   1.837   5.725  0.1005  0.4177  0.0142
    1CHOL    C130439  17.048   1.497   5.591  0.1039  0.4985 -0.2019
    1CHOL    C230440  16.862   1.337   5.360 -0.0217  0.0500  0.1440
    1CHOL   ROH30441  12.016  19.593   2.980 -0.2237  0.0096  0.1481
    1CHOL    R130442  12.141  19.694   3.213 -0.2127  0.0626  0.1182
    1CHOL    R230443  11.997  19.792   3.428 -0.2062 -0.0884  0.1863
    1CHOL    R330444  12.144  19.611   3.568 -0.0124  0.0019  0.1046
    1CHOL    R430445  12.070  19.816   3.765 -0.5020 -0.3063  0.2714
    1CHOL    R530446  12.272  19.744   3.721 -0.3411  0.0659  0.3399
    1CHOL    C130447  12.251  19.660   4.092 -0.4924 -0.3487  0.2444
    1CHOL    C230448  12.338  19.537   4.469 -0.2076 -0.1107 -0.1019
    1CHOL   ROH30449   5.549  17.486   2.888  0.1875 -0.4194  0.1253
    1CHOL    R130450   5.549  17.656   3.114  0.1890 -0.2570  0.0040
    1CHOL    R230451   5.374  17.622   3.326  0.1066 -0.0261 -0.0327
    1CHOL    R330452   5.603  17.619   3.472  0.0538 -0.0218  0.0526
    1CHOL    R430453   5.393  17.687   3.665 -0.0449 -0.1089 -0.0071
    1CHOL    R530454   5.576  17.798   3.629 -0.0457 -0.0615  0.0897
    1CHOL    C130455   5.618  17.721   4.000 -0.1825 -0.1531  0.0880
    1CHOL    C230456   5.519  17.658   4.403  0.0736  0.1038  0.0951
    1CHOL   ROH30457   4.385  13.601   6.089  0.1219  0.0074 -0.0191
    1CHOL    R130458   4.307  13.419   5.887  0.0535 -0.0029  0.0162
    1CHOL    R230459   4.207  13.501   5.643  0.0031 -0.0143  0.0307
    1CHOL    R330460   4.406  13.344   5.545 -0.0360 -0.0440 -0.0006
    1CHOL    R430461   4.240  13.405   5.312  0.0145  0.0883  0.0019
    1CHOL    R530462   4.299  13.207   5.381 -0.0576  0.0471 -0.0606
    1CHOL    C130463   4.445  13.202   5.028 -0.0155  0.1200 -0.0442
    1CHOL    C230464   4.453  12.910   4.797  0.0360  0.3027 -0.1124
    1CHOL   ROH30465   9.061  12.708   3.385 -0.2037  0.2152 -0.0314
    1CHOL    R130466   9.046  12.855   3.627  0.0637  0.1797  0.0100
    1CHOL    R230467   8.911  12.761   3.849 -0.0229  0.3175  0.0155
    1CHOL    R330468   9.149  12.806   3.972  0.0747 -0.0569 -0.0246
    1CHOL    R430469   8.953  12.799   4.190  0.0916  0.2536  0.0089
    1CHOL    R530470   9.097  12.958   4.150  0.3406  0.0317 -0.0159
    1CHOL    C130471   9.202  12.863   4.504  0.2498 -0.1351 -0.0326
    1CHOL    C230472   9.121  12.998   4.824 -0.2724  0.0089 -0.2002
    1CHOL   ROH30473  16.137  24.759   6.045 -0.2355  0.0206 -0.1738
    1CHOL    R130474  16.203  24.835   5.781 -0.0958 -0.0174 -0.1508
    1CHOL    R230475  16.261  25.096   5.711 -0.1674 -0.0077 -0.1786
    1CHOL    R330476  16.489  24.984   5.612 -0.0514  0.0678 -0.0003
    1CHOL    R430477  16.404  25.173   5.405  0.0875  0.0834 -0.0400
    1CHOL    R530478  16.448  24.962   5.378  0.1637  0.1014 -0.0421
    1CHOL    C130479  16.700  25.113   5.135  0.3446  0.2073  0.2081
    1CHOL    C230480  17.069  25.116   5.062  0.0260 -0.3251 -0.1790
    1CHOL   ROH30481   4.294  18.867   5.961 -0.0184 -0.0243  0.1530
    1CHOL    R130482   4.312  19.022   5.725  0.0653 -0.0205  0.1611
    1CHOL    R230483   4.530  19.009   5.555  0.0415 -0.1602  0.1359
    1CHOL    R330484   4.340  18.958   5.368 -0.0157 -0.0176  0.1550
    1CHOL    R430485   4.547  19.105   5.223  0.1435 -0.2932  0.1022
    1CHOL    R530486   4.335  19.154   5.231  0.1969 -0.0597  0.0867
    1CHOL    C130487   4.378  19.113   4.855  0.1493 -0.2365  0.1006
    1CHOL    C230488   4.235  19.281   4.562 -0.0385  0.0146  0.2844
    1CHOL   ROH30489  27.173  15.398   5.309  0.0946 -0.3178  0.0184
    1CHOL    R130490  27.167  15.567   5.082  0.1869 -0.1946  0.1058
    1CHOL    R230491  27.316  15.516   4.855  0.0102 -0.2694  0.0025
    1CHOL    R330492  27.075  15.535   4.731 -0.0355  0.0924  0.1353
    1CHOL    R430493  27.272  15.567   4.516 -0.1019 -0.3893 -0.0017
    1CHOL    R530494  27.107  15.702   4.563  0.1670 -0.0626  0.0187
    1CHOL    C130495  27.019  15.614   4.202 -0.2101 -0.1197  0.1206
    1CHOL    C230496  27.231  15.533   3.963  0.3052  0.1215 -0.2225
    1CHOL   ROH30497  28.149   0.062   3.660 -0.1307  0.0480  0.1075
    1CHOL    R130498  28.115  -0.077   3.904  0.0283 -0.1106  0.0411
    1CHOL    R230499  28.300  -0.261   3.997  0.2716  0.0964 -0.0207
    1CHOL    R330500  28.295  -0.105   4.219  0.0295 -0.0072  0.0502
    1CHOL    R430501  28.321  -0.379   4.321  0.4619 -0.0210 -0.0744
    1CHOL    R530502  28.170  -0.233   4.379  0.2287 -0.2799 -0.0040
    1CHOL    C130503  28.329  -0.301   4.719  0.3452 -0.1863 -0.0393
    1CHOL    C230504  28.657  -0.356   4.926 -0.0547 -0.1211  0.2357
    1CHOL   ROH30505   2.727  14.896   2.926  0.1905  0.0765  0.0431
    1CHOL    R130506   2.573  14.869   3.162 -0.0190  0.0124 -0.0980
    1CHOL    R230507   2.654  14.715   3.377 -0.2462 -0.1114 -0.0958
    1CHOL    R330508   2.615  14.946   3.515 -0.2947 -0.1622 -0.0248
    1CHOL    R430509   2.649  14.740   3.721 -0.0467 -0.1813 -0.0869
    1CHOL    R530510   2.483  14.880   3.704 -0.1387 -0.2752  0.0451
    1CHOL    C130511   2.610  14.972   4.052  0.0239 -0.2696 -0.0151
    1CHOL    C230512   2.380  14.988   4.203  0.1012 -0.2233  0.1434
    1CHOL   ROH30513   6.666  26.444   3.667 -0.0128  0.0965  0.1420
    1CHOL    R130514   6.837  26.419   3.891  0.0196 -0.1053  0.0964
    1CHOL    R230515   6.776  26.529   4.137  0.1615 -0.1308  0.1431
    1CHOL    R330516   6.816  26.274   4.224 -0.0177 -0.1898  0.0580
    1CHOL    R430517   6.718  26.419   4.460  0.0249 -0.2130  0.0914
    1CHOL    R530518   6.900  26.300   4.447 -0.0465 -0.3247  0.0861
    1CHOL    C130519   6.720  26.117   4.730 -0.2227 -0.3163 -0.0187
    1CHOL    C230520   6.614  26.012   5.047  0.0998  0.0215 -0.2216
    1CHOL   ROH30521  10.745  28.916   4.093 -0.1634  0.1554  0.1795
    1CHOL    R130522  10.891  28.961   4.331 -0.1162  0.1678  0.1485
    1CHOL    R230523  10.772  28.957   4.581 -0.0507  0.0941  0.1777
    1CHOL    R330524  10.965  28.774   4.634  0.0224  0.1485  0.1038
    1CHOL    R430525  10.883  28.873   4.897 -0.2120 -0.1812  0.1646
    1CHOL    R530526  11.086  28.866   4.819 -0.1532  0.0241  0.2868
    1CHOL    C130527  11.129  28.652   5.132 -0.2375 -0.2904  0.0875
    1CHOL    C230528  11.192  28.529   5.550 -0.1469 -0.2483 -0.1878
    1CHOL   ROH30529  13.086  12.728   6.353 -0.2455  0.0284  0.1989
    1CHOL    R130530  12.934  12.699   6.116 -0.2329  0.0878  0.1823
    1CHOL    R230531  12.870  12.913   5.952 -0.0303  0.0999  0.1090
    1CHOL    R330532  12.984  12.758   5.761 -0.1226 -0.0525  0.1753
    1CHOL    R430533  12.897  12.998   5.618  0.0796 -0.0448  0.0803
    1CHOL    R530534  12.848  12.792   5.567 -0.0673 -0.0223  0.1469
    1CHOL    C130535  13.019  12.901   5.244  0.0568 -0.2722  0.1260
    1CHOL    C230536  13.043  13.230   5.058  0.0778  0.3446 -0.0578
    1CHOL   ROH30537  14.119  28.823   3.638 -0.2089  0.1825 -0.0037
    1CHOL    R130538  14.220  28.917   3.885 -0.0637  0.0072  0.0047
    1CHOL    R230539  14.114  29.137   4.015  0.1031 -0.0034  0.1524
    1CHOL    R330540  14.091  28.963   4.223  0.0932 -0.0904  0.0802
    1CHOL    R430541  14.011  29.222   4.334 -0.0598 -0.1543  0.1420
    1CHOL    R530542  14.163  29.088   4.414 -0.0317 -0.1233  0.1548
    1CHOL    C130543  13.929  29.108   4.714 -0.1640 -0.3241  0.0682
    1CHOL    C230544  13.688  29.236   5.009  0.0817 -0.1470  0.0208
    1CHOL   ROH30545  21.524  27.223   4.047  0.1312 -0.1163  0.0357
    1CHOL    R130546  21.369  27.245   4.283  0.0240 -0.1104 -0.0335
    1CHOL    R230547  21.235  27.029   4.395 -0.0305 -0.1113 -0.0862
    1CHOL    R330548  21.374  27.101   4.617 -0.1246 -0.1056 -0.0301
    1CHOL    R430549  21.151  26.941   4.718 -0.1010 -0.1798 -0.1237
    1CHOL    R530550  21.206  27.141   4.782 -0.1818 -0.1796 -0.0764
    1CHOL    C130551  21.233  26.956   5.115 -0.2303 -0.2144 -0.0928
    1CHOL    C230552  21.478  27.030   5.454 -0.0013  0.0731 -0.0312
    1CHOL   ROH30553  12.397  11.498   6.178 -0.0353 -0.0208 -0.0688
    1CHOL    R130554  12.434  11.599   5.916 -0.0990 -0.1079 -0.1100
    1CHOL    R230555  12.479  11.435   5.698 -0.2448 -0.1819 -0.0760
    1CHOL    R330556  12.266  11.567   5.594 -0.2328 -0.1316 -0.0408
    1CHOL    R430557  12.424  11.485   5.361 -0.3460 -0.2899 -0.0777
    1CHOL    R530558  12.356  11.687   5.408 -0.2465 -0.2371 -0.1233
    1CHOL    C130559  12.192  11.639   5.067 -0.3938 -0.3056 -0.0455
    1CHOL    C230560  12.446  11.425   4.837  0.2068 -0.0077 -0.1079
    1CHOL   ROH30561   9.666  12.249   3.462 -0.2168 -0.2787 -0.0458
    1CHOL    R130562   9.764  12.162   3.713 -0.1602 -0.4225 -0.1164
    1CHOL    R230563   9.729  12.307   3.945  0.3922 -0.2583 -0.1173
    1CHOL    R330564   9.623  12.073   4.036 -0.0502 -0.0034  0.0521
    1CHOL    R430565   9.751  12.195   4.271  0.3557 -0.1614 -0.0817
    1CHOL    R530566   9.784  11.993   4.194 -0.1169 -0.2756 -0.0148
    1CHOL    C130567   9.664  11.911   4.547 -0.0808  0.1343  0.0981
    1CHOL    C230568   9.717  11.751   4.912  0.1903 -0.1634  0.1843
    1CHOL   ROH30569  28.165  17.697   2.086  0.0499  0.0732  0.0801
    1CHOL    R130570  27.967  17.656   2.284  0.0095  0.2460  0.0754
    1CHOL    R230571  27.989  17.461   2.479 -0.2506  0.1009 -0.0430
    1CHOL    R330572  27.949  17.671   2.648  0.0669  0.0627  0.0884
    1CHOL    R430573  27.841  17.438   2.790 -0.4753  0.1435 -0.1439
    1CHOL    R530574  27.737  17.625   2.749 -0.0922  0.3924 -0.0694
    1CHOL    C130575  27.718  17.621   3.130 -0.3083  0.1323 -0.0793
    1CHOL    C230576  27.660  17.718   3.459  0.3924  0.0330 -0.3357
    1CHOL   ROH30577  25.209  17.103   4.530 -0.2474 -0.0275  0.0954
    1CHOL    R130578  25.212  16.986   4.272  0.0012 -0.0366  0.1005
    1CHOL    R230579  25.039  17.064   4.071  0.0194 -0.2229  0.0125
    1CHOL    R330580  25.270  17.100   3.931  0.0546  0.0080  0.1236
    1CHOL    R430581  25.058  17.186   3.748  0.0575 -0.1363  0.0467
    1CHOL    R530582  25.213  17.040   3.707  0.2067  0.0053  0.0834
    1CHOL    C130583  25.285  17.291   3.429  0.1126  0.1311  0.1710
    1CHOL    C230584  25.609  17.243   3.104 -0.1638 -0.2593 -0.2179
    1CHOL   ROH30585  28.952   7.321   4.957  0.0236  0.1322 -0.2681
    1CHOL    R130586  29.202   7.213   5.034 -0.0176  0.1077 -0.1740
    1CHOL    R230587  29.388   7.123   4.850  0.0517  0.1303 -0.0991
    1CHOL    R330588  29.553   7.295   4.982  0.0160  0.0926 -0.0000
    1CHOL    R430589  29.732   7.132   4.818  0.0545  0.1721 -0.0746
    1CHOL    R530590  29.747   7.165   5.033  0.0282  0.0760 -0.0441
    1CHOL    C130591  30.087   7.298   4.922  0.0223  0.1609  0.0327
    1CHOL    C230592  30.320   7.660   4.727  0.0674  0.0349 -0.1478
    1CHOL   ROH30593   5.604  19.979   3.038  0.0004 -0.3643  0.0037
    1CHOL    R130594   5.559  20.141   3.266  0.1032 -0.2056 -0.0872
    1CHOL    R230595   5.422  20.051   3.488  0.0080  0.0200 -0.0517
    1CHOL    R330596   5.646  20.132   3.619  0.0587 -0.0848 -0.0725
    1CHOL    R430597   5.469  20.029   3.830 -0.0269  0.1261 -0.0394
    1CHOL    R530598   5.564  20.225   3.824  0.1131  0.0576 -0.1145
    1CHOL    C130599   5.707  20.091   4.152  0.0003  0.0894 -0.0517
    1CHOL    C230600   5.472  19.896   4.446 -0.1865  0.0358  0.2498
    1CHOL   ROH30601   7.026  12.312   6.608 -0.1593 -0.3877 -0.0311
    1CHOL    R130602   6.982  12.200   6.352  0.1729 -0.5376 -0.0255
    1CHOL    R230603   6.994  12.350   6.121 -0.3169 -0.4910 -0.0118
    1CHOL    R330604   7.172  12.159   6.044  0.2936  0.0549 -0.0477
    1CHOL    R430605   7.075  12.277   5.793 -0.5703 -0.5368 -0.0687
    1CHOL    R530606   7.076  12.065   5.846  0.2906 -0.5257  0.1935
    1CHOL    C130607   7.290  12.056   5.530 -0.1448 -0.0508 -0.1356
    1CHOL    C230608   7.339  11.867   5.215 -0.3088  0.1950  0.2480
    1CHOL   ROH30609   1.765  22.932   3.232 -0.1882 -0.1372  0.0259
    1CHOL    R130610   1.799  22.923   3.512 -0.0455  0.0103  0.0153
    1CHOL    R230611   1.606  23.012   3.688 -0.0558 -0.1133  0.0721
    1CHOL    R330612   1.634  22.763   3.794  0.2473 -0.0464  0.1574
    1CHOL    R430613   1.555  22.932   4.021 -0.2391 -0.1169  0.0437
    1CHOL    R530614   1.729  22.801   4.011 -0.0155  0.1597  0.2391
    1CHOL    C130615   1.551  22.652   4.314 -0.0613 -0.0563  0.1073
    1CHOL    C230616   1.321  22.573   4.622  0.1554  0.0345  0.1492
    1CHOL   ROH30617   1.894  15.995   2.678 -0.0055  0.0268 -0.0358
    1CHOL    R130618   1.975  16.029   2.947 -0.0010 -0.0267 -0.0295
    1CHOL    R230619   1.877  16.231   3.108  0.0766  0.0062 -0.0154
    1CHOL    R330620   1.814  16.025   3.273 -0.0177  0.0171 -0.0384
    1CHOL    R430621   1.822  16.259   3.448  0.0537 -0.0085 -0.0187
    1CHOL    R530622   1.931  16.073   3.476 -0.0222 -0.0487 -0.0240
    1CHOL    C130623   1.732  16.081   3.801 -0.0481 -0.0070 -0.0421
    1CHOL    C230624   1.775  16.256   4.040  0.1000 -0.1094 -0.1832
    1CHOL   ROH30625   3.167  20.432   2.826  0.1021  0.1808  0.0793
    1CHOL    R130626   3.131  20.250   3.040 -0.2245  0.1778  0.0253
    1CHOL    R230627   3.322  20.209   3.235 -0.2341 -0.3156 -0.0549
    1CHOL    R330628   3.116  20.268   3.403 -0.0545  0.0828  0.0371
    1CHOL    R430629   3.298  20.103   3.563 -0.2907 -0.2515 -0.0376
    1CHOL    R530630   3.086  20.068   3.532 -0.3755  0.1454  0.0618
    1CHOL    C130631   3.092  20.097   3.912 -0.1551  0.1602  0.0588
    1CHOL    C230632   2.991  20.026   4.301 -0.2903  0.0907 -0.2809
    1CHOL   ROH30633   2.023  16.280   6.353  0.0063 -0.1337  0.1391
    1CHOL    R130634   1.997  16.405   6.101  0.0706 -0.0967  0.1499
    1CHOL    R230635   2.108  16.299   5.871 -0.0209 -0.1580  0.1294
    1CHOL    R330636   1.853  16.320   5.777 -0.0167  0.0237  0.1579
    1CHOL    R430637   2.022  16.365   5.542 -0.0185  0.0012  0.1604
    1CHOL    R530638   1.864  16.496   5.614  0.0678  0.0692  0.2160
    1CHOL    C130639   1.734  16.423   5.263 -0.0133  0.2645  0.2050
    1CHOL    C230640   1.694  16.529   4.872 -0.0307 -0.0584 -0.0440
    1CHOL   ROH30641   1.630  11.103   2.976  0.2359  0.0555 -0.1272
    1CHOL    R130642   1.659  11.169   3.249  0.1017 -0.0983 -0.0757
    1CHOL    R230643   1.647  11.430   3.341  0.3167 -0.1302  0.0253
    1CHOL    R330644   1.456  11.329   3.505  0.0810  0.0087 -0.1555
    1CHOL    R430645   1.544  11.577   3.636  0.3094 -0.1586  0.0386
    1CHOL    R530646   1.535  11.378   3.726  0.0066 -0.2085 -0.0723
    1CHOL    C130647   1.304  11.568   3.962  0.0838 -0.0448 -0.1233
    1CHOL    C230648   1.434  11.489   4.320  0.1896  0.2224 -0.0142
    1CHOL   ROH30649   6.075  20.306   6.288  0.1307 -0.0514  0.0115
    1CHOL    R130650   6.016  20.281   6.012  0.0825  0.1135  0.0052
    1CHOL    R230651   6.038  20.493   5.836  0.1562  0.1965  0.1055
    1CHOL    R330652   6.197  20.321   5.699  0.0616  0.1890  0.0045
    1CHOL    R430653   6.121  20.524   5.502  0.0885  0.2730  0.0957
    1CHOL    R530654   6.098  20.308   5.481  0.0093  0.2940  0.0268
    1CHOL    C130655   6.319  20.381   5.179 -0.0397  0.3104 -0.0047
    1CHOL    C230656   6.113  20.372   4.911  0.2871 -0.3287  0.1723
    1CHOL   ROH30657   8.767  13.016   3.284 -0.1169  0.3320 -0.0212
    1CHOL    R130658   8.742  13.191   3.505 -0.2437  0.1010  0.1501
    1CHOL    R230659   8.646  13.107   3.750  0.1655 -0.3010  0.1848
    1CHOL    R330660   8.879  13.213   3.842  0.0569  0.0882  0.0319
    1CHOL    R430661   8.716  13.172   4.082  0.3215 -0.3119  0.1548
    1CHOL    R530662   8.812  13.358   4.020 -0.0645 -0.1034  0.1469
    1CHOL    C130663   8.976  13.310   4.361  0.3104  0.0473 -0.0061
    1CHOL    C230664   8.970  13.504   4.780 -0.1831 -0.3789 -0.0958
    1CHOL   ROH30665  28.689  26.280   3.564 -0.1378 -0.0639  0.0681
    1CHOL    R130666  28.657  26.299   3.845  0.0776  0.0095  0.0868
    1CHOL    R230667  28.443  26.185   3.977  0.0603  0.2485  0.2452
    1CHOL    R330668  28.639  26.067   4.124  0.0397  0.0703  0.1382
    1CHOL    R430669  28.401  26.060   4.297 -0.0030 -0.1450  0.0917
    1CHOL    R530670  28.597  26.141   4.349 -0.0072 -0.1985  0.2285
    1CHOL    C130671  28.560  25.876   4.621 -0.0591 -0.5414 -0.0981
    1CHOL    C230672  28.482  25.760   4.997  0.0100  0.0561  0.0998
    1CHOL   ROH30673  26.023  24.695   3.134 -0.3329 -0.2151  0.0653
    1CHOL    R130674  25.975  24.550   3.372 -0.0505 -0.2995  0.0745
    1CHOL    R230675  26.165  24.383   3.485  0.2245 -0.0580 -0.0021
    1CHOL    R330676  26.120  24.535   3.706  0.0966 -0.1243  0.0175
    1CHOL    R430677  26.263  24.299   3.806  0.2087 -0.0451  0.0056
    1CHOL    R530678  26.073  24.376   3.879  0.1576 -0.1717 -0.0172
    1CHOL    C130679  26.279  24.393   4.200  0.0795 -0.0997  0.0285
    1CHOL    C230680  26.537  24.236   4.401  0.1267  0.1920 -0.4339
    1CHOL   ROH30681   7.909  16.250   3.118 -0.0279  0.0505  0.1415
    1CHOL    R130682   7.954  16.315   3.390 -0.0171 -0.0227  0.1568
    1CHOL    R230683   7.757  16.420   3.552 -0.0158 -0.0875  0.1974
    1CHOL    R330684   7.820  16.210   3.712  0.0134 -0.1263  0.1368
    1CHOL    R430685   7.711  16.412   3.895  0.1664 -0.1172  0.2226
    1CHOL    R530686   7.903  16.311   3.913  0.1505 -0.1732  0.1059
    1CHOL    C130687   7.744  16.210   4.244  0.2998 -0.1706  0.1803
    1CHOL    C230688   7.633  16.037   4.556  0.0839 -0.0886  0.1738
    1CHOL   ROH30689   8.361  12.101   3.412  0.2969 -0.0419  0.1552
    1CHOL    R130690   8.367  12.018   3.683  0.1377 -0.1293  0.1316
    1CHOL    R230691   8.380  12.198   3.893  0.1208 -0.2053  0.1865
    1CHOL    R330692   8.158  12.065   3.978  0.0255 -0.1350  0.0572
    1CHOL    R430693   8.255  12.207   4.215  0.1152 -0.3815  0.1916
    1CHOL    R530694   8.213  11.994   4.200 -0.0244 -0.3541  0.0099
    1CHOL    C130695   7.975  12.087   4.482  0.0223 -0.4179  0.0732
    1CHOL    C230696   7.819  12.025   4.773 -0.4687 -0.1018 -0.0124
    1CHOL   ROH30697  29.171  16.092   2.208  0.4061  0.1949 -0.0866
    1CHOL    R130698  29.307  16.106   2.456  0.2415  0.2033  0.0041
    1CHOL    R230699  29.298  16.329   2.618  0.0518  0.1699  0.0376
    1CHOL    R330700  29.216  16.150   2.806  0.0003  0.1069 -0.0435
    1CHOL    R430701  29.232  16.406   2.949  0.1737  0.0249  0.0976
    1CHOL    R530702  29.328  16.219   3.006  0.0887 -0.0631 -0.0300
    1CHOL    C130703  29.116  16.282   3.317  0.1962 -0.1187  0.0564
    1CHOL    C230704  28.972  16.465   3.639 -0.2346 -0.0066 -0.0958
    1CHOL   ROH30705  27.145  25.213   3.323 -0.0700 -0.0970  0.0495
    1CHOL    R130706  27.017  25.213   3.575 -0.0452 -0.1729  0.0622
    1CHOL    R230707  26.952  24.980   3.709  0.0953 -0.2120  0.0628
    1CHOL    R330708  27.095  25.095   3.911  0.0531 -0.1391  0.0518
    1CHOL    R430709  26.895  24.929   4.046  0.1347 -0.2256  0.0677
    1CHOL    R530710  26.932  25.141   4.080  0.0396 -0.2067  0.0578
    1CHOL    C130711  26.995  25.007   4.431  0.1180 -0.1649  0.0602
    1CHOL    C230712  27.028  24.862   4.772  0.1986 -0.0971 -0.3897
    1CHOL   ROH30713   3.053  18.048   6.041  0.0749 -0.2075  0.0093
    1CHOL    R130714   3.214  17.998   5.814  0.0094 -0.0289 -0.0772
    1CHOL    R230715   3.123  17.857   5.595  0.0099 -0.0235 -0.0763
    1CHOL    R330716   3.203  18.079   5.459 -0.1993  0.0709 -0.0508
    1CHOL    R430717   3.215  17.861   5.262  0.0285  0.0895 -0.0706
    1CHOL    R530718   3.376  17.999   5.313 -0.1068  0.2490 -0.0461
    1CHOL    C130719   3.343  18.072   4.940 -0.1571  0.2438 -0.0434
    1CHOL    C230720   3.262  18.335   4.624  0.1535 -0.1660  0.3205
    1CHOL   ROH30721  23.284   3.908   5.176 -0.0721  0.3955 -0.0949
    1CHOL    R130722  23.417   3.927   5.425 -0.2575  0.1480  0.0253
    1CHOL    R230723  23.633   4.094   5.467 -0.0039 -0.2265  0.2244
    1CHOL    R330724  23.481   4.187   5.672 -0.0251  0.0246  0.1016
    1CHOL    R430725  23.738   4.323   5.704  0.1652 -0.3260  0.2490
    1CHOL    R530726  23.633   4.207   5.855 -0.1114 -0.1605  0.2048
    1CHOL    C130727  23.656   4.542   6.035  0.2436 -0.1482  0.1480
    1CHOL    C230728  23.778   4.558   6.378  0.1271 -0.2569  0.0343
    1CHOL   ROH30729  27.615  18.521   2.158 -0.3011 -0.0362  0.0727
    1CHOL    R130730  27.513  18.640   2.394 -0.2807 -0.0360  0.0813
    1CHOL    R230731  27.349  18.505   2.570 -0.1814 -0.0693  0.1485
    1CHOL    R330732  27.537  18.579   2.752 -0.1588  0.0309  0.0852
    1CHOL    R430733  27.304  18.502   2.913 -0.0365 -0.1748  0.1675
    1CHOL    R530734  27.413  18.691   2.923 -0.1703 -0.0960  0.1609
    1CHOL    C130735  27.455  18.570   3.283  0.0690 -0.1422  0.1193
    1CHOL    C230736  27.173  18.490   3.482 -0.1752  0.0919  0.2440
    1CHOL   ROH30737   1.839  16.795   5.987  0.1288 -0.0492  0.0001
    1CHOL    R130738   1.775  16.938   5.752  0.0205 -0.1169 -0.0119
    1CHOL    R230739   1.968  17.051   5.589 -0.0639 -0.0063 -0.0332
    1CHOL    R330740   1.844  16.905   5.396  0.0224 -0.1087 -0.0129
    1CHOL    R430741   1.963  17.132   5.253  0.0558 -0.1592 -0.0734
    1CHOL    R530742   1.754  17.069   5.246  0.0621 -0.1834 -0.1224
    1CHOL    C130743   1.843  17.042   4.876  0.2065 -0.3444 -0.0779
    1CHOL    C230744   1.703  17.153   4.481 -0.1819  0.0321 -0.1112
    1CHOL   ROH30745  29.314  24.734   2.945  0.2856  0.3870  0.0447
    1CHOL    R130746  29.256  24.542   3.145  0.0654  0.3175 -0.0829
    1CHOL    R230747  29.454  24.419   3.295 -0.0783  0.0227 -0.1360
    1CHOL    R330748  29.307  24.511   3.504 -0.0098  0.0371 -0.0921
    1CHOL    R430749  29.554  24.412   3.626  0.0691  0.1028 -0.1768
    1CHOL    R530750  29.350  24.356   3.681  0.0968  0.0739 -0.0799
    1CHOL    C130751  29.473  24.494   4.015  0.2192  0.1630 -0.1594
    1CHOL    C230752  29.365  24.255   4.337  0.2929 -0.0063 -0.1880
    1CHOL   ROH30753  17.445   1.064   4.998  0.0146 -0.0035 -0.2016
    1CHOL    R130754  17.519   0.791   4.979  0.1382  0.0096  0.0424
    1CHOL    R230755  17.673   0.666   5.171 -0.0971  0.1524  0.3432
    1CHOL    R330756  17.467   0.489   5.174 -0.0523  0.0938  0.1199
    1CHOL    R430757  17.703   0.328   5.240 -0.0304  0.0651 -0.0864
    1CHOL    R530758  17.559   0.288   5.082 -0.0145  0.2313 -0.1330
    1CHOL    C130759  17.527  -0.034   5.283  0.0502 -0.0408 -0.5462
    1CHOL    C230760  17.649  -0.353   5.275 -0.2551  0.0822  0.0695
    1CHOL   ROH30761   5.701   5.608   6.386 -0.0311  0.2190 -0.0584
    1CHOL    R130762   5.895   5.606   6.180 -0.0206  0.1160 -0.0479
    1CHOL    R230763   6.075   5.399   6.146 -0.0380  0.0859  0.0472
    1CHOL    R330764   5.974   5.395   5.894 -0.0245 -0.0096  0.0426
    1CHOL    R430765   6.230   5.253   5.874 -0.0121  0.0019  0.1065
    1CHOL    R530766   6.166   5.423   5.753 -0.0184 -0.0444  0.0434
    1CHOL    C130767   6.226   5.164   5.479  0.0157 -0.1366  0.1367
    1CHOL    C230768   6.521   5.340   5.289  0.1510  0.0245 -0.1804
    1CHOL   ROH30769   0.324  23.264   3.192 -0.1494 -0.1579  0.2033
    1CHOL    R130770   0.415  23.184   3.448 -0.0191 -0.0833  0.1815
    1CHOL    R230771   0.653  23.275   3.556 -0.0121  0.0271  0.0780
    1CHOL    R330772   0.493  23.347   3.763  0.0389 -0.0047  0.1273
    1CHOL    R430773   0.764  23.348   3.875  0.0658 -0.0923  0.0777
    1CHOL    R530774   0.591  23.241   3.954  0.0568 -0.0838  0.0767
    1CHOL    C130775   0.678  23.458   4.256  0.1591 -0.1916  0.1237
    1CHOL    C230776   0.519  23.676   4.467  0.2878 -0.0425  0.2478
    1CHOL   ROH30777   3.529   9.969   6.003  0.0703 -0.3136 -0.0435
    1CHOL    R130778   3.477  10.100   5.757  0.0075 -0.2026  0.0284
    1CHOL    R230779   3.675  10.220   5.607 -0.0314 -0.1383  0.0307
    1CHOL    R330780   3.578  10.061   5.410 -0.0845 -0.0475 -0.0175
    1CHOL    R430781   3.742  10.259   5.270 -0.0425 -0.0355  0.0400
    1CHOL    R530782   3.534  10.210   5.228 -0.0599  0.0292  0.0371
    1CHOL    C130783   3.689  10.132   4.889 -0.0989  0.1097  0.0004
    1CHOL    C230784   3.645  10.186   4.537 -0.1313 -0.0423  0.0128
    1CHOL   ROH30785  24.433  22.258   5.042 -0.2277  0.1238  0.2467
    1CHOL    R130786  24.337  22.413   4.825  0.0302 -0.0994 -0.0357
    1CHOL    R230787  24.298  22.307   4.573 -0.1426 -0.4966  0.1456
    1CHOL    R330788  24.048  22.409   4.605  0.0193 -0.0189 -0.0216
    1CHOL    R430789  24.069  22.349   4.318 -0.1190 -0.6703  0.0944
    1CHOL    R530790  24.012  22.540   4.407  0.2007 -0.3765 -0.3012
    1CHOL    C130791  23.700  22.469   4.199  0.0469 -0.3232 -0.0922
    1CHOL    C230792  23.455  22.402   3.960 -0.2983 -0.1205 -0.4308
    1CHOL   ROH30793   7.200  13.352   3.343 -0.1382  0.2053  0.1323
    1CHOL    R130794   7.114  13.309   3.609 -0.1668  0.3691  0.1518
    1CHOL    R230795   7.289  13.256   3.815 -0.2150 -0.0365  0.1052
    1CHOL    R330796   7.165  13.467   3.933  0.2716  0.2401  0.1493
    1CHOL    R430797   7.297  13.328   4.153 -0.3956 -0.3632  0.1829
    1CHOL    R530798   7.086  13.382   4.142 -0.2327  0.2761 -0.0193
    1CHOL    C130799   7.184  13.568   4.460 -0.0440 -0.2939  0.2696
    1CHOL    C230800   7.050  13.522   4.843 -0.2914 -0.0561  0.1590
    1CHOL   ROH30801  25.326  14.873   5.039 -0.0386  0.1363 -0.0003
    1CHOL    R130802  25.264  14.834   4.766 -0.0706  0.3135 -0.0200
    1CHOL    R230803  25.307  15.028   4.574  0.3051  0.2911  0.0314
    1CHOL    R330804  25.447  14.829   4.451 -0.0258  0.0661  0.0085
    1CHOL    R430805  25.412  15.034   4.245  0.2147  0.0917 -0.0023
    1CHOL    R530806  25.358  14.824   4.229 -0.1035  0.1676  0.0385
    1CHOL    C130807  25.603  14.852   3.938 -0.1486 -0.2356 -0.0434
    1CHOL    C230808  25.483  14.909   3.672 -0.1844 -0.0933 -0.0721
    1CHOL   ROH30809  15.724  10.328   5.650  0.0318  0.0185 -0.1342
    1CHOL    R130810  15.505  10.489   5.573  0.0774  0.0409 -0.2179
    1CHOL    R230811  15.367  10.449   5.337 -0.0621 -0.1753 -0.1016
    1CHOL    R330812  15.151  10.438   5.503  0.0128  0.1382  0.0241
    1CHOL    R430813  15.037  10.465   5.234 -0.1114 -0.5026 -0.0051
    1CHOL    R530814  14.994  10.591   5.406 -0.0702 -0.1163 -0.2635
    1CHOL    C130815  14.643  10.464   5.330 -0.0698 -0.3987  0.1691
    1CHOL    C230816  14.460  10.350   5.066  0.0444 -0.1541 -0.0721
    1CHOL   ROH30817   3.060  15.413   2.565  0.0232  0.0883 -0.0519
    1CHOL    R130818   3.169  15.458   2.822  0.1013  0.0284 -0.0760
    1CHOL    R230819   3.173  15.708   2.940  0.1066 -0.0130 -0.0113
    1CHOL    R330820   3.046  15.580   3.143  0.1961 -0.0802  0.0054
    1CHOL    R430821   3.172  15.813   3.269 -0.0956  0.1357 -0.0556
    1CHOL    R530822   3.194  15.605   3.330  0.1302  0.1728  0.0373
    1CHOL    C130823   3.052  15.753   3.652 -0.1293  0.1593 -0.0658
    1CHOL    C230824   3.129  15.837   4.127 -0.0495 -0.0894  0.3334
    1CHOL   ROH30825   2.136  20.899   3.029  0.0155 -0.0601 -0.0223
    1CHOL    R130826   2.285  20.853   3.265  0.0381  0.0773 -0.0094
    1CHOL    R230827   2.279  21.025   3.481 -0.0878  0.1060 -0.0367
    1CHOL    R330828   2.213  20.799   3.618  0.0615  0.0810 -0.0036
    1CHOL    R430829   2.308  20.985   3.823 -0.0357  0.1690 -0.0334
    1CHOL    R530830   2.379  20.782   3.789  0.0876  0.2065 -0.0136
    1CHOL    C130831   2.263  20.750   4.150  0.1347  0.1823 -0.0003
    1CHOL    C230832   2.284  20.717   4.591 -0.0728 -0.0193 -0.3094
    1CHOL   ROH30833   5.223  14.321   3.105  0.0050 -0.0554 -0.0332
    1CHOL    R130834   5.055  14.360   3.330 -0.0138 -0.3847  0.0106
    1CHOL    R230835   5.113  14.255   3.578  0.4762  0.0399  0.0756
    1CHOL    R330836   5.085  14.513   3.659 -0.3394  0.0534 -0.1481
    1CHOL    R430837   5.001  14.353   3.890  0.9105 -0.1236  0.2928
    1CHOL    R530838   4.887  14.512   3.794 -0.0250 -0.6387  0.3935
    1CHOL    C130839   4.910  14.652   4.148  0.3977 -0.2063  0.2092
    1CHOL    C230840   4.685  14.786   4.339  0.0780  0.1957 -0.2503
    1CHOL   ROH30841   1.924  17.491   2.487 -0.0982 -0.1437  0.0203
    1CHOL    R130842   2.044  17.391   2.722 -0.1462 -0.1876  0.0257
    1CHOL    R230843   2.091  17.549   2.944  0.1993 -0.1199 -0.0913
    1CHOL    R330844   1.950  17.355   3.072 -0.0485  0.1716  0.0937
    1CHOL    R430845   2.103  17.488   3.284  0.3981 -0.0384 -0.0820
    1CHOL    R530846   2.100  17.274   3.241 -0.0358 -0.0546 -0.0205
    1CHOL    C130847   1.978  17.271   3.603  0.2811  0.2830  0.0971
    1CHOL    C230848   1.869  17.326   3.950  0.0417 -0.0672 -0.2244
    1CHOL   ROH30849  24.909   9.132   5.390  0.2036 -0.0713  0.1583
    1CHOL    R130850  25.134   8.985   5.302  0.0561 -0.1714 -0.0621
    1CHOL    R230851  25.146   8.867   5.052 -0.1054  0.1041 -0.2089
    1CHOL    R330852  25.376   9.010   5.031  0.0150 -0.0689 -0.0884
    1CHOL    R430853  25.409   8.788   4.843 -0.1245  0.0072 -0.1959
    1CHOL    R530854  25.546   8.845   5.003 -0.1108 -0.1873 -0.1409
    1CHOL    C130855  25.779   8.875   4.702 -0.0225 -0.2116 -0.0750
    1CHOL    C230856  26.073   8.610   4.665 -0.1053 -0.1422  0.1296
    1CHOL   ROH30857   7.377  18.580   2.967  0.1473  0.4414 -0.0209
    1CHOL    R130858   7.303  18.492   3.226 -0.1775  0.2439 -0.1743
    1CHOL    R230859   7.458  18.542   3.450 -0.1857 -0.3753 -0.0181
    1CHOL    R330860   7.227  18.647   3.546 -0.0247 -0.0163 -0.0055
    1CHOL    R430861   7.387  18.589   3.785 -0.1392 -0.4085 -0.0030
    1CHOL    R530862   7.183  18.522   3.746 -0.2620 -0.0438 -0.0652
    1CHOL    C130863   7.128  18.715   4.070  0.0390 -0.0909  0.0176
    1CHOL    C230864   7.017  18.870   4.385  0.0069  0.2778 -0.1450
    1CHOL   ROH30865   0.260  17.028   5.964 -0.2975  0.0947  0.0049
    1CHOL    R130866   0.196  17.097   5.697 -0.0763  0.1770 -0.0300
    1CHOL    R230867   0.366  17.244   5.536  0.2165 -0.0721  0.0371
    1CHOL    R330868   0.335  17.034   5.367 -0.0108 -0.0421  0.0385
    1CHOL    R430869   0.376  17.265   5.192  0.1700 -0.0787  0.0357
    1CHOL    R530870   0.211  17.123   5.183  0.0372  0.0747  0.0640
    1CHOL    C130871   0.354  17.080   4.832 -0.0704 -0.0543  0.0362
    1CHOL    C230872   0.271  16.924   4.428  0.0642 -0.2741  0.2746
    1CHOL   ROH30873  29.292  21.248   6.057  0.0397  0.0605  0.3042
    1CHOL    R130874  29.432  21.187   5.818  0.1139 -0.0524  0.3762
    1CHOL    R230875  29.336  21.254   5.568  0.0658 -0.4019  0.3000
    1CHOL    R330876  29.578  21.375   5.543 -0.0449 -0.1945  0.1904
    1CHOL    R430877  29.481  21.349   5.268  0.0070 -0.6249  0.1987
    1CHOL    R530878  29.673  21.280   5.345  0.0701 -0.3505  0.3133
    1CHOL    C130879  29.793  21.517   5.071 -0.1313 -0.5600  0.0369
    1CHOL    C230880  29.839  21.876   4.962  0.3439  0.0248 -0.0666
    1CHOL   ROH30881  26.304  15.838   3.352 -0.0510 -0.1754  0.1825
    1CHOL    R130882  26.523  15.989   3.450  0.0112 -0.1462  0.0033
    1CHOL    R230883  26.637  16.195   3.307 -0.1681 -0.0915 -0.0695
    1CHOL    R330884  26.589  16.337   3.533  0.0127 -0.1478  0.0054
    1CHOL    R430885  26.756  16.513   3.370 -0.3479  0.0038 -0.2054
    1CHOL    R530886  26.794  16.453   3.576 -0.0255  0.0200 -0.2569
    1CHOL    C130887  26.780  16.832   3.619 -0.2829  0.0067 -0.2142
    1CHOL    C230888  26.865  17.156   3.552  0.2609  0.1390  0.0900
    1CHOL   ROH30889   7.918  15.542   6.662  0.0996 -0.1306  0.0421
    1CHOL    R130890   7.856  15.592   6.390  0.0312 -0.0005  0.0803
    1CHOL    R230891   8.050  15.644   6.201  0.0025 -0.1220  0.0146
    1CHOL    R330892   7.932  15.437   6.070 -0.2376  0.0172  0.0060
    1CHOL    R430893   8.091  15.572   5.865  0.0303 -0.2364  0.0423
    1CHOL    R530894   7.879  15.525   5.854 -0.0343  0.0560 -0.0291
    1CHOL    C130895   8.004  15.336   5.547 -0.1787 -0.1723  0.0503
    1CHOL    C230896   7.840  15.297   5.139  0.1299 -0.0606  0.4173
    1CHOL   ROH30897  25.724  13.542   5.165 -0.2536  0.1964  0.0248
    1CHOL    R130898  25.750  13.463   4.894 -0.0191  0.2850  0.0207
    1CHOL    R230899  25.553  13.324   4.759  0.2351  0.0359 -0.0960
    1CHOL    R330900  25.575  13.529   4.582  0.0324  0.1029 -0.0489
    1CHOL    R430901  25.478  13.303   4.423  0.2875  0.0228 -0.1078
    1CHOL    R530902  25.653  13.425   4.380  0.1657  0.2249 -0.0654
    1CHOL    C130903  25.455  13.483   4.060  0.1274  0.0779 -0.0705
    1CHOL    C230904  25.453  13.391   3.673  0.0785  0.1234 -0.0414
    1CHOL   ROH30905   9.965  13.490   6.700  0.1220  0.0581  0.0292
    1CHOL    R130906   9.983  13.273   6.519  0.1042  0.0986 -0.0215
    1CHOL    R230907   9.779  13.090   6.485  0.1480  0.0364  0.0465
    1CHOL    R330908   9.804  13.159   6.224 -0.0066  0.0954  0.0466
    1CHOL    R430909   9.615  12.935   6.224  0.1088 -0.0016  0.0934
    1CHOL    R530910   9.798  12.951   6.106  0.0475  0.1131  0.0128
    1CHOL    C130911   9.542  12.910   5.826 -0.0591  0.0316  0.1208
    1CHOL    C230912   9.655  12.694   5.545  0.1658  0.2137 -0.2365
    1CHOL   ROH30913  24.969   3.614   3.710 -0.2159  0.1258  0.0472
    1CHOL    R130914  25.027   3.511   3.967 -0.1305  0.0721  0.0062
    1CHOL    R230915  25.270   3.395   4.029 -0.0665  0.1723 -0.0649
    1CHOL    R330916  25.270   3.578   4.230 -0.1281  0.1065 -0.0039
    1CHOL    R430917  25.383   3.335   4.350  0.0192  0.1198 -0.1040
    1CHOL    R530918  25.214   3.451   4.426 -0.0307  0.0091 -0.0361
    1CHOL    C130919  25.448   3.472   4.726  0.0113  0.0274 -0.0694
    1CHOL    C230920  25.481   3.665   5.072 -0.1387  0.5386  0.1135
    1CHOL   ROH30921   2.714  10.151   2.948 -0.0757 -0.1055  0.0755
    1CHOL    R130922   2.634  10.066   3.206 -0.0646 -0.0432  0.1004
    1CHOL    R230923   2.734   9.838   3.325 -0.1951 -0.1187  0.0761
    1CHOL    R330924   2.794  10.009   3.528 -0.0104 -0.1551  0.0533
    1CHOL    R430925   2.838   9.742   3.641 -0.1662 -0.1769  0.0487
    1CHOL    R530926   2.712   9.900   3.724 -0.0265 -0.0865  0.0816
    1CHOL    C130927   2.954   9.848   4.015  0.0240 -0.2449  0.0112
    1CHOL    C230928   3.137   9.628   4.351  0.4857 -0.2903  0.0322
    1CHOL   ROH30929   2.788   8.978   5.892 -0.1855  0.1877 -0.0168
    1CHOL    R130930   2.811   8.898   5.622 -0.1963  0.1522 -0.0076
    1CHOL    R230931   2.594   8.885   5.451 -0.2067  0.1166  0.0053
    1CHOL    R330932   2.747   9.047   5.296 -0.2237  0.1054 -0.0229
    1CHOL    R430933   2.634   8.850   5.110 -0.0763 -0.0275  0.0342
    1CHOL    R530934   2.845   8.899   5.135 -0.1075  0.0721  0.0801
    1CHOL    C130935   2.800   8.982   4.765 -0.0162 -0.1218  0.0245
    1CHOL    C230936   2.580   8.982   4.471 -0.1155  0.0428 -0.3082
    1CHOL   ROH30937   3.084  19.959   6.342  0.0254  0.2650  0.0509
    1CHOL    R130938   3.048  19.863   6.079  0.0115  0.2148  0.0714
    1CHOL    R230939   2.815  19.903   5.936  0.0165  0.2109  0.0676
    1CHOL    R330940   2.984  20.008   5.751  0.0237  0.1527  0.0403
    1CHOL    R430941   2.748  19.928   5.598  0.0910 -0.0562  0.0306
    1CHOL    R530942   2.954  19.871   5.557  0.1301 -0.0004  0.1269
    1CHOL    C130943   2.868  20.041   5.227  0.1411 -0.2663 -0.0165
    1CHOL    C230944   2.730  19.902   4.906  0.1935 -0.0181  0.3488
    1CHOL   ROH30945   2.933  17.779   2.416 -0.0882  0.0666 -0.1769
    1CHOL    R130946   3.043  17.715   2.669 -0.0391  0.1204 -0.1852
    1CHOL    R230947   3.033  17.889   2.884 -0.1587  0.0936 -0.1704
    1CHOL    R330948   2.919  17.676   3.009 -0.0067  0.0001 -0.1863
    1CHOL    R430949   2.988  17.862   3.225 -0.3298  0.1304 -0.1889
    1CHOL    R530950   3.045  17.652   3.212 -0.0963  0.1844 -0.1055
    1CHOL    C130951   2.854  17.647   3.542 -0.2868  0.0641 -0.2145
    1CHOL    C230952   2.894  17.625   3.970 -0.0850  0.0336 -0.0837
    1CHOL   ROH30953  24.267  16.078   4.316  0.2537  0.0101  0.0328
    1CHOL    R130954  24.366  16.192   4.077  0.1163  0.0548 -0.0024
    1CHOL    R230955  24.624  16.148   3.987  0.0228 -0.0278 -0.2201
    1CHOL    R330956  24.497  16.070   3.760 -0.1873  0.1178 -0.1571
    1CHOL    R430957  24.768  16.140   3.673 -0.0553 -0.4212 -0.2514
    1CHOL    R530958  24.581  16.217   3.590  0.0569 -0.0967 -0.2351
    1CHOL    C130959  24.733  16.061   3.277 -0.2980 -0.5136 -0.2106
    1CHOL    C230960  24.599  16.019   2.943 -0.0540  0.0079 -0.3188
    1CHOL   ROH30961   8.078  13.984   6.712 -0.0601  0.1779  0.0862
    1CHOL    R130962   7.992  14.090   6.464  0.0194  0.1624  0.0510
    1CHOL    R230963   8.166  14.136   6.254  0.0610 -0.0118  0.0420
    1CHOL    R330964   7.990  13.981   6.117 -0.0354  0.0606  0.0836
    1CHOL    R430965   8.141  14.122   5.910  0.0082 -0.0467  0.0475
    1CHOL    R530966   7.924  14.116   5.930  0.0095  0.0671  0.0749
    1CHOL    C130967   7.962  13.968   5.581 -0.1130  0.0011  0.0898
    1CHOL    C230968   7.929  13.897   5.208  0.3497  0.2091 -0.1429
    1CHOL   ROH30969   5.750  11.640   3.283 -0.2178 -0.0063 -0.0529
    1CHOL    R130970   5.610  11.706   3.520 -0.2511 -0.1690 -0.0259
    1CHOL    R230971   5.590  11.533   3.734  0.1068 -0.1456  0.0328
    1CHOL    R330972   5.691  11.745   3.873 -0.1929  0.0654 -0.0633
    1CHOL    R430973   5.492  11.626   4.052  0.1669 -0.3109  0.1008
    1CHOL    R530974   5.502  11.834   3.989 -0.2845 -0.2890  0.0728
    1CHOL    C130975   5.528  11.879   4.367 -0.0795 -0.2091  0.0502
    1CHOL    C230976   5.527  11.631   4.604 -0.2008 -0.1906 -0.0613
    1CHOL   ROH30977  11.541   6.730   3.866 -0.1159 -0.3017  0.0977
    1CHOL    R130978  11.497   6.686   4.142 -0.0768 -0.1502  0.1277
    1CHOL    R230979  11.536   6.884   4.332  0.0005 -0.0609  0.0183
    1CHOL    R330980  11.280   6.823   4.400 -0.0019  0.0299  0.0969
    1CHOL    R430981  11.405   6.910   4.650  0.0693  0.0963  0.0356
    1CHOL    R530982  11.298   6.723   4.617  0.0155  0.1100  0.1322
    1CHOL    C130983  11.089   6.868   4.900  0.1072  0.2730  0.1194
    1CHOL    C230984  11.000   6.594   5.132  0.1879 -0.1145  0.1901
    1CHOL   ROH30985   9.382  29.607   6.795  0.0357  0.1086 -0.1366
    1CHOL    R130986   9.565  29.533   6.592  0.0993  0.1291 -0.0880
    1CHOL    R230987   9.563  29.646   6.341  0.1192  0.0903 -0.1087
    1CHOL    R330988   9.824  29.697   6.396  0.0920  0.1738 -0.0593
    1CHOL    R430989   9.814  29.666   6.104  0.1971 -0.0580 -0.0383
    1CHOL    R530990   9.945  29.559   6.242  0.1663  0.0710  0.0909
    1CHOL    C130991  10.206  29.725   6.019  0.2170 -0.0660  0.0490
    1CHOL    C230992  10.427  29.521   5.692 -0.0317 -0.3917  0.0917
    1CHOL   ROH30993  21.290  16.962   2.361  0.1664 -0.2272 -0.0675
    1CHOL    R130994  21.223  16.943   2.636 -0.1231 -0.0799 -0.1268
    1CHOL    R230995  21.048  16.754   2.733 -0.0410 -0.1716 -0.1871
    1CHOL    R330996  21.254  16.694   2.899 -0.1709  0.1551  0.1089
    1CHOL    R430997  21.018  16.580   3.031 -0.1990 -0.2897 -0.2680
    1CHOL    R530998  21.162  16.718   3.119 -0.5559 -0.0437 -0.0137
    1CHOL    C130999  21.194  16.423   3.360 -0.4129 -0.0518 -0.0372
    1CHOL    C231000  21.138  16.026   3.433  0.1683 -0.0854  0.0965
    1CHOL   ROH31001   6.077  12.628   3.326 -0.2347  0.0065 -0.1308
    1CHOL    R131002   6.128  12.614   3.604 -0.1642 -0.0107 -0.1441
    1CHOL    R231003   6.187  12.838   3.756 -0.0437 -0.0292 -0.1590
    1CHOL    R331004   5.979  12.749   3.907 -0.0355  0.0437 -0.1050
    1CHOL    R431005   6.156  12.884   4.097  0.1189 -0.1281 -0.1299
    1CHOL    R531006   6.079  12.681   4.113  0.0051 -0.0865 -0.1689
    1CHOL    C131007   5.942  12.828   4.437  0.2213 -0.1172 -0.0623
    1CHOL    C231008   6.071  12.900   4.721 -0.1119  0.0159  0.2464
    1W        W31009  20.170  18.966   9.294  0.1566  0.1650 -0.2846
    1W        W31010  15.170  22.253   1.316 -0.0917  0.0064  0.1492
    1W        W31011  24.485   8.421   9.253  0.1500  0.0170  0.1472
    1W        W31012   1.893  20.740   7.220  0.0779  0.1744  0.1584
    1W        W31013  20.927  23.810   2.227 -0.1243 -0.1299 -0.0054
    1W        W31014   1.526  17.809   0.259  0.2281 -0.0455  0.0055
    1W        W31015  21.524  26.671   8.259  0.1592 -0.2448  0.3535
    1W        W31016  13.869   7.810   2.317 -0.1342  0.0607 -0.0794
    1W        W31017  12.106  14.413   6.897 -0.1983 -0.2496 -0.0727
    1W        W31018  15.479  27.266   1.784  0.0404 -0.2523 -0.0167
    1W        W31019  18.931   1.374   1.625  0.3893 -0.0689  0.2761
    1W        W31020  16.453  12.004   3.169  0.0555 -0.1074  0.0341
    1W        W31021   0.944   1.287   9.510 -0.0158  0.1617  0.4975
    1W        W31022  16.103  27.867   8.311  0.0494  0.0952 -0.0539
    1W        W31023  15.535  11.059   6.279  0.1301  0.0052  0.1675
    1W        W31024   6.693  12.852   8.492 -0.3531 -0.1395  0.1517
    1W        W31025  13.883  19.793   6.203  0.2091  0.0339 -0.2053
    1W        W31026  19.284  14.078   6.374  0.2150  0.2623  0.2123
    1W        W31027  14.978  15.501   2.775  0.0736  0.1872  0.2367
    1W        W31028  14.547   9.208   2.773 -0.0046  0.0362  0.0032
    1W        W31029  16.945   0.051   8.420  0.1444  0.0745 -0.1303
    1W        W31030  23.753  18.545   0.865  0.2417 -0.1654 -0.1983
    1W        W31031  19.375   0.387   0.518 -0.1166  0.0299 -0.4085
    1W        W31032   9.753  17.452   8.229 -0.0357  0.0603 -0.1857
    1W        W31033  12.011  15.327   9.301 -0.1557 -0.0655  0.0110
    1W        W31034  22.036  11.887   7.291  0.1129  0.2497  0.0937
    1W        W31035   8.556  22.270   2.070  0.1586 -0.1134  0.0364
    1W        W31036  14.631  16.821   1.052 -0.1753 -0.1971  0.0247
    1W        W31037  26.469   8.619   6.924 -0.1470 -0.1948 -0.0643
    1W        W31038   1.864  29.653   1.794  0.0897  0.0331  0.1354
    1W        W31039  14.829   6.159   7.651 -0.1478  0.0167  0.1200
    1W        W31040  25.356   7.946   1.542  0.0324 -0.0998 -0.4959
    1W        W31041   9.040  23.606   6.331  0.0505 -0.1200  0.1067
    1W        W31042  21.938  12.964   7.412  0.0383 -0.1907  0.2492
    1W        W31043   7.231   8.281   0.385 -0.0368 -0.2999 -0.1271
    1W        W31044  26.279   1.344   2.025 -0.1460 -0.0178 -0.0962
    1W        W31045  21.442  27.496   7.426  0.1244 -0.1948 -0.3269
    1W        W31046  23.199  20.722   1.317  0.0821  0.1681 -0.1836
    1W        W31047  24.636   1.591   2.615  0.4186 -0.1466  0.2205
    1W        W31048  12.446  28.406   1.892 -0.3400  0.1804  0.1858
    1W        W31049  18.248  20.245   8.711  0.0090  0.1457 -0.3911
    1W        W31050   3.030  11.028   1.267  0.1784  0.0280 -0.0437
    1W        W31051  25.127  19.816   0.561 -0.1665  0.0240  0.0835
    1W        W31052  14.626  12.937   0.283  0.0974  0.2506  0.1035
    1W        W31053  27.327   6.084   1.374  0.1773  0.1555  0.1460
    1W        W31054  10.266  10.425   3.190  0.1053 -0.2162 -0.2551
    1W        W31055   1.335  29.209   1.188 -0.0277 -0.0891  0.0723
    1W        W31056   4.720   3.746   7.534 -0.0261 -0.0861 -0.2982
    1W        W31057  23.089   0.131   3.796  0.0757 -0.2525 -0.1132
    1W        W31058  29.007  18.301   0.521  0.3049 -0.0525 -0.0273
    1W        W31059  18.713  13.134   7.086 -0.1832  0.0567 -0.2495
    1W        W31060  19.331   6.469   2.830  0.0203  0.3079  0.1177
    1W        W31061  23.485   6.671   6.687 -0.0541  0.1850 -0.4144
    1W        W31062   8.633   6.979   9.396 -0.1546 -0.2314 -0.0985
    1W        W31063   6.591  10.865   6.659 -0.0819  0.1037 -0.2665
    1W        W31064  16.445   5.459   2.520 -0.2797 -0.3664  0.2906
    1W        W31065   8.772  12.352   2.383 -0.6033  0.1094 -0.1530
    1W        W31066  21.027  20.911   0.513 -0.0053  0.2804 -0.1243
    1W        W31067  24.197  17.765   1.530  0.1343  0.0661 -0.1124
    1W        W31068  10.416  13.985   8.791 -0.1544  0.0858 -0.1555
    1W        W31069  18.611   7.474   7.362 -0.0886  0.1867  0.1615
    1W        W31070  28.430   4.985   2.142  0.2643 -0.1354  0.2789
    1W        W31071  26.889   5.092   2.510 -0.2165  0.1362  0.2580
    1W        W31072   0.136  22.513   0.717 -0.0075 -0.0365  0.0876
    1W        W31073  25.489  17.410   5.965 -0.0072 -0.1305  0.0088
    1W        W31074  27.925  15.303   6.494  0.2769  0.1678 -0.4619
    1W        W31075  12.302  11.725   7.493  0.0233 -0.3852 -0.1297
    1W        W31076  25.066  16.637   5.720 -0.1184 -0.0052 -0.1836
    1W        W31077   3.079   9.545   7.908  0.2292 -0.1464  0.0818
    1W        W31078   9.233  26.830   8.930 -0.1201 -0.0672  0.0402
    1W        W31079   0.414  26.141   9.061 -0.3917  0.0676 -0.3203
    1W        W31080  18.642   5.291   8.053 -0.4708  0.2274 -0.2743
    1W        W31081   6.697   8.606   9.309 -0.3249 -0.2820 -0.0509
    1W        W31082   4.062   8.998   7.183  0.0752  0.1747  0.0308
    1W        W31083   0.243  10.888   8.671 -0.2231 -0.0557 -0.2131
    1W        W31084  22.505   4.889   0.517 -0.2538  0.1989  0.2310
    1W        W31085  20.092   7.964   1.795 -0.2543  0.2186 -0.4431
    1W        W31086  14.269   1.785   8.218  0.2726  0.0875 -0.1069
    1W        W31087  25.624  20.678   1.998 -0.0860 -0.0475 -0.3209
    1W        W31088  14.419  27.014   6.951  0.3404 -0.1872  0.2931
    1W        W31089  13.844   6.423   9.275 -0.1843  0.0349 -0.0987
    1W        W31090  26.990  17.860   0.971  0.0801  0.1018  0.3199
    1W        W31091  18.343   6.816   7.950 -0.0912 -0.3828  0.0507
    1W        W31092  14.504   4.983   3.465 -0.1933  0.0941  0.0702
    1W        W31093  22.150   6.088   0.936  0.1191  0.0883 -0.0145
    1W        W31094   6.011   9.371   2.291  0.1022  0.0390 -0.0477
    1W        W31095  10.126  15.932   8.060  0.1487 -0.1528  0.6207
    1W        W31096  25.458  29.203   0.051 -0.1351 -0.2293 -0.0024
    1W        W31097  26.565   8.973   1.785 -0.0495 -0.1861 -0.3045
    1W        W31098  27.015  23.975   9.264  0.2358  0.2178 -0.3978
    1W        W31099   2.874  17.206   0.805  0.2733  0.0256  0.0173
    1W        W31100  19.199   2.324   7.013 -0.1448  0.2544  0.0365
    1W        W31101  26.788   5.010   1.428  0.2094 -0.0032  0.2515
    1W        W31102   2.766  27.732   0.467  0.3230  0.2136  0.2140
    1W        W31103   4.232  17.396   7.526  0.2683  0.0424 -0.0886
    1W        W31104  19.431  13.585   7.185  0.5524  0.0550  0.0546
    1W        W31105  28.877  23.824   8.085  0.0022  0.1083 -0.0644
    1W        W31106  14.268  15.717   7.093 -0.1882 -0.1938  0.1450
    1W        W31107  14.315  16.511   0.849  0.2153 -0.2677 -0.3584
    1W        W31108   6.384  22.514   0.499 -0.2184  0.1077  0.1799
    1W        W31109  24.196  23.357   0.196 -0.0405  0.1562 -0.0394
    1W        W31110   5.092  27.210   3.123 -0.1535  0.0377 -0.2424
    1W        W31111   0.325  14.218   1.069 -0.0700 -0.2378  0.1770
    1W        W31112   7.009   8.195   2.737 -0.0779 -0.2695  0.4110
    1W        W31113  22.211   5.777   3.906 -0.0059  0.1585  0.2715
    1W        W31114  16.998  28.899   9.424 -0.2559  0.0765  0.2014
    1W        W31115   1.806   1.443   9.073  0.1342 -0.2137 -0.0693
    1W        W31116  24.676   9.277   3.198 -0.1458 -0.1149 -0.0726
    1W        W31117  14.936  20.313   7.125  0.1137  0.1743  0.2219
    1W        W31118  21.786  14.838   1.653  0.2674  0.0099 -0.2065
    1W        W31119   8.385   1.178   7.524 -0.3255 -0.1245  0.3246
    1W        W31120  21.303  14.444   8.649  0.0860  0.0474 -0.1384
    1W        W31121  29.000   6.841   8.478 -0.0646  0.1851  0.1549
    1W        W31122  14.625  11.798   1.345 -0.0810 -0.3071 -0.1712
    1W        W31123  25.165  16.847   7.978  0.0471 -0.2597 -0.4189
    1W        W31124   8.314  23.709   2.037 -0.0106 -0.3048  0.0355
    1W        W31125   4.013  14.991   7.551  0.1895  0.1293 -0.4639
    1W        W31126  21.700  11.414   1.086  0.2698  0.0365  0.0833
    1W        W31127   9.728  25.277   7.973 -0.0074  0.3340 -0.2381
    1W        W31128  23.134  27.147   2.204  0.0989  0.2153 -0.0118
    1W        W31129  21.030  22.865   8.850  0.0401  0.0540 -0.0330
    1W        W31130  14.459  14.770   8.556 -0.0225  0.1247  0.1158
    1W        W31131   2.543   9.985   1.893  0.0199  0.0930  0.1348
    1W        W31132  17.015   4.430   8.052 -0.0978  0.0040  0.2296
    1W        W31133   0.122  24.220   9.178 -0.0936  0.0549 -0.1621
    1W        W31134  17.417  10.900   1.000 -0.1979  0.1061 -0.2503
    1W        W31135  17.231   2.624   2.423 -0.1320 -0.2119  0.0845
    1W        W31136  18.248  25.663   3.602  0.2554 -0.1015 -0.1162
    1W        W31137   4.569  12.360   8.490 -0.0162  0.2069  0.1549
    1W        W31138   9.025   9.849   7.958  0.0735 -0.0247 -0.4210
    1W        W31139   3.271  21.925   8.194  0.0758 -0.0375  0.1069
    1W        W31140  18.684  13.152   5.501 -0.1767  0.3359  0.0850
    1W        W31141   7.567  12.007   2.778 -0.0708 -0.0650 -0.0365
    1W        W31142  13.948  29.393   0.277  0.1873  0.2082 -0.3476
    1W        W31143  12.099   3.396   2.211  0.0880  0.0995  0.2152
    1W        W31144   1.464   5.787   7.543  0.0997  0.0957 -0.0864
    1W        W31145   2.603  22.183   7.068  0.0768  0.1648 -0.3556
    1W        W31146  25.468   5.616   3.674 -0.2151  0.0115  0.0464
    1W        W31147  15.142  15.751   2.128 -0.1876 -0.0438  0.3251
    1W        W31148  11.807  17.166   2.448  0.1291 -0.1586  0.1404
    1W        W31149   3.548  27.474   1.340 -0.1056 -0.1223  0.1315
    1W        W31150   1.116  22.617   1.420 -0.0155  0.2067 -0.0494
    1W        W31151  16.122   8.001   2.096 -0.0613  0.2085 -0.0518
    1W        W31152  23.425  10.818   0.815  0.1211 -0.0923 -0.0266
    1W        W31153  27.608  16.844   0.495 -0.0014 -0.3524 -0.0898
    1W        W31154  25.393  22.487   0.250  0.2445  0.1558  0.0416
    1W        W31155  29.214  16.387   1.781  0.3181  0.1264  0.0306
    1W        W31156   6.482  16.603   1.303  0.1414 -0.0064  0.1612
    1W        W31157  13.699   6.879   9.168 -0.1946  0.1965 -0.1191
    1W        W31158   8.618  22.258   1.568  0.0983  0.2909 -0.0733
    1W        W31159   4.928   4.684   0.325  0.0808  0.0819 -0.1988
    1W        W31160  24.701  21.106   9.051 -0.2559 -0.1425  0.1595
    1W        W31161  11.673   7.234   9.417  0.1159 -0.1753 -0.1898
    1W        W31162  17.637   3.066   0.434  0.0080 -0.0183  0.2003
    1W        W31163  11.394   6.788   2.373  0.0099 -0.1856  0.0527
    1W        W31164  19.440  16.014   1.109  0.2762  0.0621 -0.2605
    1W        W31165  20.583  25.754   8.401 -0.0339  0.2875  0.0894
    1W        W31166  12.801  10.309   8.077  0.0614  0.2792 -0.1515
    1W        W31167   8.379  14.687   2.282  0.2315  0.0762  0.2693
    1W        W31168  28.893  24.031   6.956  0.1388 -0.2339 -0.0469
    1W        W31169   6.431  24.368   9.154 -0.1913  0.1609 -0.2826
    1W        W31170  10.725  28.348   8.566  0.0320  0.0216  0.0505
    1W        W31171   0.211  28.645   7.399  0.0190 -0.0880 -0.3486
    1W        W31172  10.831   5.759   0.651  0.0672  0.0007 -0.2638
    1W        W31173  11.982  21.030   1.603 -0.1351  0.0817  0.0884
    1W        W31174   0.633  15.971   1.888  0.1656  0.0656  0.2523
    1W        W31175  25.452   5.902   6.455 -0.1395  0.3329 -0.1477
    1W        W31176   4.775  28.296   6.613  0.0259  0.2641  0.0386
    1W        W31177   5.588   1.287   6.277 -0.0287 -0.0324  0.0963
    1W        W31178  13.252  26.574   2.251 -0.0319  0.1416  0.0213
    1W        W31179  26.041  26.402   1.697  0.0642 -0.0020  0.0192
    1W        W31180  11.017  25.862   1.093  0.2518  0.2121 -0.0435
    1W        W31181  13.732  18.078   0.829 -0.1835 -0.0368  0.0525
    1W        W31182   6.512  20.680   0.792 -0.2828 -0.0300  0.1818
    1W        W31183  14.851  26.302   2.910  0.1403 -0.1466  0.0488
    1W        W31184  12.906  26.890   2.877 -0.4739 -0.2705  0.0750
    1W        W31185  20.708   3.133   0.414 -0.3063  0.5700 -0.0931
    1W        W31186   5.574   6.610   2.132 -0.0658 -0.0387 -0.0202
    1W        W31187   4.963  26.902   2.343  0.0512  0.0053 -0.0231
    1W        W31188  24.252  24.770   6.923  0.1218  0.1628 -0.4176
    1W        W31189  14.880   6.658   7.629 -0.0940 -0.0823  0.0599
    1W        W31190  22.673  12.074   8.026 -0.1082  0.1211  0.0570
    1W        W31191  14.482   6.787   7.268  0.1307 -0.1749  0.2055
    1W        W31192  11.248   0.664   2.478 -0.0918 -0.0148  0.2410
    1W        W31193   7.921   2.115   2.181  0.5547  0.3163 -0.0370
    1W        W31194  23.667  17.436   5.894 -0.1988 -0.0267  0.1130
    1W        W31195  12.230   6.561   8.287 -0.0697 -0.0467 -0.0379
    1W        W31196  26.572   9.446   7.459  0.3110 -0.0947 -0.3254
    1W        W31197  11.856  10.202   8.184 -0.3144  0.0082  0.0564
    1W        W31198   3.284  14.789   8.580 -0.1182 -0.0103  0.1165
    1W        W31199  13.167  19.458   9.236 -0.2199 -0.1305  0.0393
    1W        W31200  28.201  19.781   0.004  0.0656  0.0471  0.0867
    1W        W31201  17.073  22.386   0.443 -0.1030 -0.1109  0.1822
    1W        W31202   0.220  10.524   2.130  0.0479  0.0736  0.0992
    1W        W31203  28.903  26.899   8.958 -0.2136  0.1305 -0.1303
    1W        W31204  22.803  27.150   1.576 -0.0733 -0.0036 -0.2191
    1W        W31205  17.460  22.352   8.135  0.0218 -0.1436  0.0366
    1W        W31206  18.542  11.529   6.068  0.2750  0.2434  0.1946
    1W        W31207  17.456   0.818   8.246 -0.2658  0.1194 -0.1711
    1W        W31208  27.200  18.729   7.094 -0.2164  0.1876  0.1208
    1W        W31209   7.054  29.170   2.471  0.2199 -0.1392  0.1629
    1W        W31210  28.084  17.531   6.620  0.1352  0.0997  0.0906
    1W        W31211   5.647   6.602   6.754 -0.4412 -0.0154 -0.5066
    1W        W31212   3.675   1.436   2.984  0.1682 -0.1243 -0.1077
    1W        W31213   4.152  14.377   1.184  0.0247 -0.0911 -0.2483
    1W        W31214  20.795   0.574   3.277  0.0489  0.1390 -0.1472
    1W        W31215   9.662  16.221   2.969 -0.0534 -0.0339 -0.2332
    1W        W31216   5.413   5.430   2.748  0.3316  0.1462  0.0132
    1W        W31217   8.919  26.825   1.156 -0.2881  0.1379  0.0548
    1W        W31218  16.558  25.042   2.085  0.2136  0.1867  0.1451
    1W        W31219   3.261   8.833   1.478 -0.1661  0.3810 -0.0305
    1W        W31220  17.886   5.277   0.879  0.1791 -0.1283  0.1771
    1W        W31221  22.615  23.972   7.072 -0.0612 -0.2930 -0.0358
    1W        W31222  25.247   8.271   8.171 -0.1673 -0.3035 -0.0112
    1W        W31223  18.803  18.520   6.730 -0.0490  0.0136 -0.2685
    1W        W31224   9.882  15.323   1.948  0.0212 -0.0303  0.2914
    1W        W31225  24.496  23.202   8.691 -0.1346  0.0978 -0.1444
    1W        W31226  12.371  21.389   7.560 -0.0224 -0.0095  0.1690
    1W        W31227  22.164  17.681   8.379 -0.1113  0.0380 -0.0723
    1W        W31228  16.752  14.926   1.368  0.0134  0.1158 -0.0875
    1W        W31229  11.396   4.804   7.988  0.1414 -0.0438  0.1361
    1W        W31230  14.296  24.328   0.196 -0.0997  0.3050 -0.0516
    1W        W31231  24.179   8.387   0.536  0.0095  0.0201 -0.1200
    1W        W31232   2.311  13.755   9.385 -0.0211  0.4607  0.0229
    1W        W31233  16.936   5.278   0.529  0.0743 -0.0890  0.1972
    1W        W31234  22.647   7.545   2.033 -0.0048 -0.0136  0.0148
    1W        W31235   9.403  24.358   0.294  0.1004  0.0215  0.1148
    1W        W31236  27.305  22.202   7.672 -0.2741 -0.3539  0.1597
    1W        W31237  19.594   0.104   2.678 -0.1015 -0.1656  0.2357
    1W        W31238  16.860   9.704   7.014  0.3231  0.1489 -0.0983
    1W        W31239  26.576   4.852   0.278  0.0830 -0.0329 -0.3279
    1W        W31240  26.893  19.468   0.673  0.1088  0.1428  0.0847
    1W        W31241  10.271  10.544   0.350 -0.0665 -0.2445 -0.0395
    1W        W31242  15.885   0.075   7.510 -0.3918 -0.1562 -0.0278
    1W        W31243   5.505  10.028   9.095  0.2346 -0.4182 -0.1805
    1W        W31244   4.687   6.362   0.354  0.0571  0.0142  0.0706
    1W        W31245   6.129   2.026   8.958 -0.0067  0.1523  0.0604
    1W        W31246   8.122  14.413   0.411  0.0910 -0.0565 -0.1071
    1W        W31247  14.885   4.664   8.203 -0.1820 -0.1824 -0.0620
    1W        W31248  14.398  24.651   6.831 -0.1810 -0.0775  0.1452
    1W        W31249  22.379   3.501   1.531 -0.4999  0.0853 -0.0948
    1W        W31250   6.754  28.959   0.315 -0.2367 -0.2176 -0.3716
    1W        W31251  21.740  22.208   5.612 -0.0571  0.0101  0.0471
    1W        W31252  26.607   7.704   0.433  0.1104 -0.0023 -0.0187
    1W        W31253  24.603  13.057   2.130 -0.1947  0.1163 -0.0261
    1W        W31254   5.895  24.595   1.158 -0.3594  0.0536 -0.0418
    1W        W31255  22.675  22.430   9.024 -0.0155  0.1228 -0.0406
    1W        W31256  19.671  23.106   2.044 -0.2541 -0.2471 -0.0422
    1W        W31257  11.231  10.440   3.225 -0.3867 -0.0257  0.1204
    1W        W31258  22.096   2.989   8.980  0.1172 -0.1335 -0.1603
    1W        W31259  29.116   3.465   7.925  0.1266  0.0256 -0.0881
    1W        W31260  20.413   6.344   8.870 -0.1787 -0.2228 -0.5600
    1W        W31261   7.790  10.569   7.204 -0.2089  0.3233  0.0408
    1W        W31262  23.298  15.992   0.568  0.4864  0.0879  0.1760
    1W        W31263  26.175  25.623   0.037  0.0105  0.0134 -0.1894
    1W        W31264   5.029  19.956   1.000 -0.0114  0.2747 -0.0038
    1W        W31265   5.438   5.244   3.278  0.0123 -0.1859 -0.1211
    1W        W31266  20.332  18.054   1.968 -0.4463  0.0847  0.1005
    1W        W31267  16.898  21.783   8.555  0.0032  0.0766  0.2482
    1W        W31268  12.302   4.481   8.664 -0.0843  0.1797  0.1459
    1W        W31269  22.824  27.506   9.207 -0.1207  0.4762  0.1268
    1W        W31270  28.846   3.569   2.032 -0.3271 -0.1243  0.2926
    1W        W31271   3.535  10.839   7.524  0.5723 -0.1018  0.2194
    1W        W31272   7.776  17.125   8.847  0.0390 -0.0538 -0.0959
    1W        W31273  14.525  11.683   8.534  0.0629  0.0147  0.4049
    1W        W31274  16.976   6.253   8.539 -0.2198 -0.0528  0.2384
    1W        W31275   5.625  10.072   2.846  0.1451  0.0816  0.2195
    1W        W31276  12.140  19.627   2.046 -0.0071  0.0490  0.2714
    1W        W31277  20.120  20.075   6.905  0.0526 -0.0713 -0.0524
    1W        W31278  14.115  21.593   8.848  0.2271  0.0896  0.1178
    1W        W31279   2.325  25.980   2.222 -0.1099 -0.3024 -0.1095
    1W        W31280  29.594   5.771   2.658 -0.0547  0.0709  0.1471
    1W        W31281  27.250  24.885   7.205 -0.0118  0.0976 -0.3809
    1W        W31282  13.469  15.742   2.852 -0.1177  0.0183  0.1830
    1W        W31283  20.499  19.965   0.563  0.0016 -0.2971  0.2890
    1W        W31284  16.504  21.947   8.164 -0.3387  0.3811 -0.2720
    1W        W31285  23.866  24.400   7.154 -0.1168  0.1921 -0.3868
    1W        W31286   0.752  17.251   1.272  0.1287 -0.0549 -0.1606
    1W        W31287  19.307  21.593   1.765  0.1836 -0.0551  0.0054
    1W        W31288  13.426  14.197   2.585 -0.0759 -0.1537 -0.2010
    1W        W31289  26.282  24.557   1.622  0.0140 -0.1339  0.0058
    1W        W31290   8.456  20.134   0.634 -0.1903 -0.0662 -0.3322
    1W        W31291  29.373  26.312   8.684  0.0265 -0.2405  0.0501
    1W        W31292   3.762  23.590   8.027  0.3889 -0.1402  0.2298
    1W        W31293  25.930  27.253   1.244 -0.0741  0.1187 -0.1239
    1W        W31294  25.107  18.471   0.118 -0.1183 -0.0542  0.1494
    1W        W31295  20.257  13.416   8.514 -0.0659 -0.0628  0.1575
    1W        W31296  21.868   0.064   0.502  0.1760 -0.1904  0.1758
    1W        W31297  14.753  24.185   9.537  0.2360  0.1692  0.1687
    1W        W31298   6.485  23.427   2.038 -0.0321 -0.2264 -0.1140
    1W        W31299  10.890   7.644   0.748 -0.0330 -0.1504 -0.3182
    1W        W31300  17.390   6.997   7.368  0.0610  0.0342  0.0349
    1W        W31301  21.492   7.078   8.401  0.4704  0.0072  0.2040
    1W        W31302   2.463  20.321   2.085 -0.1626 -0.1492  0.0023
    1W        W31303  24.470   3.295   0.078 -0.2313  0.0805  0.1392
    1W        W31304  18.452   1.038   1.371  0.1756  0.0373  0.1628
    1W        W31305   8.014   6.843   3.023  0.0490 -0.0510  0.1477
    1W        W31306  28.343   4.337   1.354  0.4441  0.0762 -0.0158
    1W        W31307  27.313  20.354   1.941  0.0418 -0.2732  0.1335
    1W        W31308  28.858   2.344   0.934 -0.0955 -0.2165  0.0423
    1W        W31309  24.523  26.537   3.038 -0.3276  0.4847 -0.1535
    1W        W31310   8.873  21.179   7.543  0.0909 -0.0024 -0.1160
    1W        W31311   8.064  25.455   8.385  0.2048  0.1136  0.2138
    1W        W31312  19.978   5.957   8.873 -0.4678 -0.2290 -0.0300
    1W        W31313  13.321  22.703   0.839 -0.0391  0.4656 -0.0854
    1W        W31314  21.182   5.096   8.281  0.1310 -0.3006  0.0590
    1W        W31315   5.911  25.405   7.053 -0.1087  0.1850  0.1139
    1W        W31316  25.280  26.130   1.948  0.0585 -0.0972  0.2517
    1W        W31317   1.546   0.249   7.629  0.0464  0.0214  0.1759
    1W        W31318  26.017   8.255   0.371 -0.1251 -0.1610 -0.2360
    1W        W31319  20.635   8.171   7.793  0.0737  0.4912 -0.0609
    1W        W31320  29.304   5.103   9.360  0.1040  0.2307 -0.1103
    1W        W31321  11.002   1.230   7.754 -0.1976 -0.4737  0.1906
    1W        W31322   8.507  26.503   1.853  0.1858  0.2242  0.0515
    1W        W31323  10.713   5.204   8.009  0.2173  0.2790  0.1556
    1W        W31324   1.507  16.063   0.069 -0.0127 -0.1163  0.2455
    1W        W31325   5.828  18.192   1.772  0.0343  0.1601  0.3052
    1W        W31326  21.053   5.909   1.971  0.0052 -0.3523  0.0408
    1W        W31327  14.808  21.581   9.186 -0.0182 -0.1813  0.1450
    1W        W31328   6.775  14.400   2.284 -0.0023 -0.0509 -0.3520
    1W        W31329  28.798   0.106   2.030  0.0950  0.3134  0.1345
    1W        W31330  24.482  10.415   2.566  0.0685 -0.1191 -0.1614
    1W        W31331  17.100  19.427   8.572 -0.0225 -0.0774  0.0946
    1W        W31332  15.016  20.700   7.415  0.0793 -0.3663  0.4777
    1W        W31333  24.757   8.283   8.808  0.3526  0.1834  0.0701
    1W        W31334   4.285   0.598   1.305 -0.1336  0.0480 -0.1642
    1W        W31335   9.958  19.845   0.837 -0.0193  0.1902 -0.1310
    1W        W31336   2.560   6.095   7.511 -0.1176  0.2638  0.0604
    1W        W31337  18.562  25.406   8.872 -0.0134 -0.0473  0.0138
    1W        W31338   0.363  11.539   9.431  0.2645  0.1959  0.0300
    1W        W31339   5.080   6.532   0.066  0.0591  0.2124  0.3026
    1W        W31340  14.852  18.970   3.207 -0.0490 -0.3079  0.0327
    1W        W31341   8.907  18.133   1.144  0.0053  0.1094  0.1116
    1W        W31342  23.549   0.535   1.816 -0.1111  0.0847 -0.4812
    1W        W31343  11.908  24.080   1.314  0.1109 -0.0132  0.0131
    1W        W31344   7.537  13.581   1.242 -0.1852  0.0353  0.2852
    1W        W31345  26.413   7.773   8.764  0.1117 -0.3057  0.1031
    1W        W31346  21.711   2.641   2.619 -0.0295  0.2362 -0.1343
    1W        W31347   9.011  12.678   2.067 -0.1147 -0.0361  0.0199
    1W        W31348  28.578  11.175   7.884  0.0359 -0.0981 -0.0467
    1W        W31349  14.594  27.875   7.355  0.1579 -0.1970  0.0295
    1W        W31350  25.762  28.576   7.368 -0.0730  0.4956  0.1732
    1W        W31351  21.640   7.489   7.064 -0.0759  0.1421 -0.3365
    1W        W31352  25.525  12.785   1.695  0.1007 -0.1988 -0.0411
    1W        W31353   8.475  17.953   7.990 -0.1099  0.0818 -0.0037
    1W        W31354  12.081  19.928   7.909  0.1056 -0.0542 -0.1753
    1W        W31355  26.820   6.860   8.741  0.1161  0.2679  0.0891
    1W        W31356  14.813   4.794   6.978  0.0020  0.1229  0.3960
    1W        W31357  28.630   0.698   2.683 -0.1214  0.1051  0.0828
    1W        W31358  29.652   8.846   0.943 -0.1093  0.0897  0.1216
    1W        W31359  17.459   1.320   1.136 -0.0460 -0.1077  0.2248
    1W        W31360  22.448  15.711   0.883 -0.3410  0.2175 -0.0399
    1W        W31361  11.789   5.914   7.264  0.4946  0.1004  0.0935
    1W        W31362  23.604  22.322   0.133 -0.2481  0.3233 -0.0827
    1W        W31363  15.886  13.466   6.993  0.0081  0.1334 -0.0441
    1W        W31364  19.191  10.593   2.534 -0.2948  0.0096 -0.2696
    1W        W31365  10.198  20.381   0.832 -0.0990  0.0765  0.1913
    1W        W31366  24.897   4.930   0.147  0.2677  0.0188 -0.2481
    1W        W31367  26.029  14.835   9.122 -0.2014  0.0238  0.0417
    1W        W31368  21.821  18.110   5.473  0.0184  0.0455 -0.1820
    1W        W31369  13.841  19.217   1.587  0.0389 -0.3363 -0.1075
    1W        W31370  21.593   9.322   7.141 -0.0555  0.0299 -0.1503
    1W        W31371  17.734  16.896   8.297 -0.2482 -0.2558 -0.3624
    1W        W31372  10.748  14.065   1.134 -0.0918  0.1699 -0.0294
    1W        W31373  18.813  14.353   9.416 -0.4418  0.1491 -0.1068
    1W        W31374  16.563  26.485   0.447 -0.1669  0.0123  0.3639
    1W        W31375  22.253  26.170   3.558 -0.0619  0.0753  0.2331
    1W        W31376  27.766  20.113   9.270 -0.3053  0.1513  0.1463
    1W        W31377  13.258  21.976   8.793 -0.1117 -0.1150  0.0409
    1W        W31378   3.880  11.105   1.595 -0.0002 -0.2022 -0.0116
    1W        W31379  23.929  22.111   1.261 -0.1707  0.0395  0.0998
    1W        W31380   4.985  19.746   0.266 -0.0668  0.0799  0.0620
    1W        W31381  16.337   2.211   8.022  0.3235 -0.1407 -0.3020
    1W        W31382   7.256   3.584   2.125 -0.2278  0.1956  0.3657
    1W        W31383  21.027   4.732   9.185  0.2798 -0.0939  0.0887
    1W        W31384  14.312  16.547   3.222  0.0813 -0.0437 -0.1102
    1W        W31385  17.614  29.020   7.128  0.0860 -0.4567  0.0777
    1W        W31386   7.037   9.324   0.285 -0.0251 -0.1251 -0.1646
    1W        W31387  11.475  20.016   1.927  0.0586  0.1845 -0.0245
    1W        W31388  23.941  29.698   3.378  0.1031  0.0175 -0.1015
    1W        W31389   7.511   1.339   8.061 -0.2196 -0.0839 -0.1122
    1W        W31390  17.949  18.193   7.777 -0.1864 -0.0857  0.1122
    1W        W31391  14.975  25.700   7.523  0.3385 -0.1224  0.0089
    1W        W31392   5.645   6.766   2.795  0.0543  0.0492  0.0426
    1W        W31393   3.032  13.491   2.406 -0.0651 -0.2570  0.2202
    1W        W31394  10.787  19.818   1.819  0.0644  0.2667 -0.0141
    1W        W31395  19.552   0.777   8.099 -0.2114 -0.3483  0.0518
    1W        W31396   6.481  24.857   8.190  0.1860  0.0185 -0.1049
    1W        W31397   1.108  12.119   7.463  0.0977 -0.1701  0.1522
    1W        W31398  18.616  16.082   7.782 -0.1836 -0.0002  0.0056
    1W        W31399   4.273  23.659   8.151  0.0191  0.3107 -0.0005
    1W        W31400  18.716  27.318   7.230 -0.2852  0.0661 -0.3926
    1W        W31401   7.437  29.359   7.787  0.1515 -0.1140  0.0204
    1W        W31402  28.055  21.744   7.817  0.3050  0.1432  0.0136
    1W        W31403   3.743  12.035   8.025  0.1386  0.1846 -0.0256
    1W        W31404  23.082  29.126   0.736 -0.0605 -0.0885  0.2247
    1W        W31405   4.085  13.263   0.340 -0.0274 -0.0280 -0.1673
    1W        W31406   6.772  13.863   2.367 -0.0287 -0.1370 -0.1072
    1W        W31407   0.433  29.109   1.532  0.2074 -0.0324  0.1229
    1W        W31408  13.970  15.564   0.966 -0.1804  0.4403 -0.2828
    1W        W31409  24.148  27.731   3.399 -0.0748  0.0232  0.0506
    1W        W31410  23.975   9.475   7.917 -0.2449  0.2178  0.2534
    1W        W31411   3.033  26.931   2.628  0.1043 -0.0784 -0.2367
    1W        W31412   3.874  22.962   7.430  0.0408  0.1259 -0.1554
    1W        W31413  14.138  16.706   7.164 -0.0925  0.0684 -0.2408
    1W        W31414  16.280  12.155   0.379 -0.0708 -0.0631 -0.1821
    1W        W31415  23.859   6.059   0.583  0.1894 -0.0161  0.1740
    1W        W31416  20.733   4.309   9.247 -0.3254 -0.0440 -0.4995
    1W        W31417  29.003   0.383   1.681 -0.1571  0.0194  0.1439
    1W        W31418  11.874  27.396   2.684  0.1039  0.0112  0.5854
    1W        W31419   4.457   7.869   8.579  0.0102 -0.0299 -0.2512
    1W        W31420  17.282   7.617   0.442 -0.0732  0.1144  0.1254
    1W        W31421   3.878  16.064   1.320 -0.1676  0.0629  0.0479
    1W        W31422  16.843  24.247   7.285  0.1174 -0.0590  0.1430
    1W        W31423   9.973  13.042   1.711  0.2012  0.0003  0.0524
    1W        W31424   0.683  27.810   8.345  0.0547  0.0821  0.0773
    1W        W31425  12.483   0.235   8.136  0.0899  0.0681 -0.0748
    1W        W31426   2.144  15.198   1.979 -0.2261 -0.1782  0.1105
    1W        W31427  10.369  12.247   8.656 -0.0172  0.1110  0.0420
    1W        W31428  23.200  27.109   2.683 -0.2348 -0.0331 -0.0226
    1W        W31429   7.225   6.064   2.375  0.4057  0.2567  0.1075
    1W        W31430  26.431   3.507   7.801  0.1760  0.1071  0.3347
    1W        W31431  24.681   2.277   9.324  0.1796 -0.3603 -0.1594
    1W        W31432  28.440  20.022   9.218 -0.4503 -0.0009  0.0418
    1W        W31433  17.623  14.275   8.368  0.2718  0.7713 -0.1825
    1W        W31434  10.848   2.553   2.772  0.0608  0.0021 -0.3889
    1W        W31435  20.519   6.053   7.969  0.2979 -0.1469 -0.1939
    1W        W31436  25.457  28.632   2.916  0.1162 -0.2589  0.2198
    1W        W31437   5.722   6.092   0.440  0.2106 -0.0363  0.0850
    1W        W31438   5.142  22.134   1.141 -0.1313  0.1253 -0.0409
    1W        W31439  18.340  20.088   6.703  0.1615 -0.1659 -0.1412
    1W        W31440   8.628  14.965   8.228 -0.1491  0.3777  0.3877
    1W        W31441  23.158   0.591   2.374  0.0174  0.1960 -0.2380
    1W        W31442  16.686  21.588   0.334 -0.0945 -0.2150 -0.0800
    1W        W31443  17.712   1.204   1.598  0.1153  0.0158  0.1892
    1W        W31444  28.505  20.840   8.636  0.1639 -0.0259  0.1291
    1W        W31445  22.164  25.923   8.383  0.1142 -0.2805 -0.1478
    1W        W31446   3.346   7.922   2.446 -0.1040  0.0473  0.1540
    1W        W31447  27.414  25.931   8.324 -0.0648 -0.0309 -0.1251
    1W        W31448  21.876   1.068   8.076  0.1923  0.0826 -0.0431
    1W        W31449  19.721  18.333   0.918 -0.1075  0.1260  0.0326
    1W        W31450  18.539  18.257   8.475 -0.0324  0.0069  0.0025
    1W        W31451  16.414  29.407   2.112  0.1725 -0.2397  0.0654
    1W        W31452  17.044   9.199   6.987 -0.1132  0.3521  0.0020
    1W        W31453  14.966   0.506   6.972 -0.2739  0.2640 -0.1692
    1W        W31454   5.505  28.792   8.224  0.0388  0.4530  0.0507
    1W        W31455  26.638   8.670   1.387 -0.1296 -0.2597  0.0863
    1W        W31456  20.953  23.400   6.912  0.2048  0.3015 -0.1500
    1W        W31457  24.729   0.522   1.090 -0.0622 -0.5286 -0.0104
    1W        W31458  22.304  24.289   5.950 -0.1455  0.0871 -0.0667
    1W        W31459   9.549  20.296   8.399 -0.2660 -0.2256 -0.2702
    1W        W31460  27.070   2.821   2.218 -0.0244  0.1945  0.0830
    1W        W31461  13.592  14.849   9.341 -0.2475  0.1947 -0.2553
    1W        W31462   6.519   5.618   2.629  0.3056 -0.1220  0.1671
    1W        W31463  22.350  11.254   6.460 -0.2266  0.0270  0.0729
    1W        W31464   0.641  17.059   7.871  0.2307  0.3900  0.1235
    1W        W31465  12.471  26.129   0.826  0.2064  0.4265  0.1837
    1W        W31466  15.217   7.840   1.639  0.0605  0.2780 -0.0266
    1W        W31467  13.385  24.481   2.842  0.0408 -0.0365  0.0698
    1W        W31468  29.299  18.812   8.569  0.2591 -0.0739  0.1729
    1W        W31469  19.141  25.013   2.128  0.0402  0.0081  0.0196
    1W        W31470  18.569   1.611   9.316  0.2615 -0.1754 -0.2460
    1W        W31471  16.172   9.620   1.031 -0.1799 -0.2466 -0.2065
    1W        W31472   0.418   9.407   1.413 -0.1046  0.0073 -0.1465
    1W        W31473   7.450  27.845   9.288  0.0877  0.5056 -0.2506
    1W        W31474   9.081  26.386   8.606  0.2287 -0.1726 -0.2046
    1W        W31475   0.870  21.202   2.482  0.3996 -0.4045  0.1128
    1W        W31476  28.687  14.010   8.046 -0.1480  0.3063 -0.0393
    1W        W31477  19.547  13.009   8.179  0.4829  0.2184 -0.3557
    1W        W31478   3.135  29.766   2.073  0.1316  0.1131 -0.1771
    1W        W31479   6.210  13.361   0.838  0.0754  0.0119 -0.1739
    1W        W31480  17.921  20.410   6.694 -0.1629 -0.1619 -0.3297
    1W        W31481   6.074  20.297   1.961  0.2954 -0.6013 -0.2807
    1W        W31482  27.371   4.349   3.106  0.2066 -0.0250 -0.0327
    1W        W31483   1.596  15.685   7.454  0.1787 -0.4030 -0.0374
    1W        W31484  19.186  22.484   8.062  0.1873  0.0540  0.1625
    1W        W31485   8.719  25.232   7.150  0.0573  0.3265 -0.3187
    1W        W31486  12.657  25.978   2.511 -0.0146  0.1968 -0.0600
    1W        W31487   0.853  18.268   0.783  0.2910 -0.4381  0.3642
    1W        W31488  27.996   9.638   8.915  0.0671  0.0809  0.2942
    1W        W31489  12.673  13.143   1.109 -0.2627  0.0724 -0.0009
    1W        W31490   9.204   9.253   0.038  0.1339 -0.6488  0.0269
    1W        W31491  12.954  22.768   8.563  0.1557  0.0288 -0.0603
    1W        W31492  29.392  23.731   0.820  0.0842 -0.0403  0.1472
    1W        W31493   3.724  26.826   0.411 -0.0268  0.1409 -0.2404
    1W        W31494   6.897   9.923   1.704 -0.0487  0.3831  0.0120
    1W        W31495  24.647  11.939   6.278  0.1333  0.1281  0.1056
    1W        W31496  15.583  10.106   0.734  0.0846  0.1321  0.0566
    1W        W31497  18.081  11.182   9.296 -0.1413  0.4407  0.0765
    1W        W31498   3.254  18.600   9.325 -0.1392 -0.0550 -0.3396
    1W        W31499  10.195  18.968   1.152  0.2473  0.2576 -0.0253
    1W        W31500  16.375   4.142   2.206 -0.1323 -0.0089 -0.2207
    1W        W31501  13.706  25.705   0.529  0.4628  0.1110  0.1290
    1W        W31502  12.008  24.443   7.427 -0.3248 -0.2314 -0.1353
    1W        W31503  14.061  13.291   2.314 -0.2280  0.2258 -0.1073
    1W        W31504   6.670  14.688   1.786  0.2728  0.0161 -0.1973
    1W        W31505  10.839   9.577   8.966 -0.0502  0.0007 -0.0207
    1W        W31506  26.303   2.272   1.133  0.1235 -0.0110 -0.1846
    1W        W31507   9.766   5.674   8.644  0.2453  0.1541  0.2473
    1W        W31508   4.948   7.076   6.382 -0.0262 -0.1658  0.1439
    1W        W31509   4.087  15.249   8.106  0.1028  0.1082  0.0441
    1W        W31510   7.590  16.710   1.781 -0.2173 -0.0666  0.1164
    1W        W31511  29.772  13.989   8.893  0.0472 -0.1093 -0.0599
    1W        W31512  13.308  29.453   0.662 -0.0715  0.0121 -0.0879
    1W        W31513   5.122   3.841   1.464  0.2627  0.1308 -0.1367
    1W        W31514   0.852  11.478   9.247 -0.2903  0.0705 -0.1790
    1W        W31515  26.744   7.454   2.438 -0.0768  0.1408  0.1358
    1W        W31516  21.102  26.947   8.620  0.1583  0.0693 -0.3368
    1W        W31517  29.193  13.754   6.800  0.3114  0.1714 -0.1658
    1W        W31518   4.214   0.769   7.052  0.1409  0.1158  0.0807
    1W        W31519   7.962  25.480   7.429 -0.0266 -0.2118 -0.1850
    1W        W31520  11.243  12.482   7.603 -0.0095  0.3212  0.2487
    1W        W31521  15.870   8.211   2.747 -0.1132  0.0912  0.3013
    1W        W31522   3.168  16.742   0.820 -0.5695  0.0475  0.0891
    1W        W31523  11.999  29.636   7.144  0.1289  0.1677 -0.1711
    1W        W31524  24.239  26.718   8.998  0.1472 -0.1090 -0.0305
    1W        W31525   1.214   2.713   8.321  0.1692  0.0881  0.0917
    1W        W31526   7.898  14.163   1.900  0.0258  0.4061  0.1106
    1W        W31527   5.001   8.749   0.878  0.2057 -0.2779 -0.1677
    1W        W31528   3.353  16.376   7.073  0.0459  0.1907 -0.2146
    1W        W31529  25.479  12.396   9.085 -0.1972  0.0432 -0.0441
    1W        W31530  15.659   4.289   7.192 -0.1382  0.1639  0.1096
    1W        W31531  12.217   7.204   2.803 -0.1968  0.2615  0.1373
    1W        W31532  23.256   5.432   2.422 -0.1291 -0.1903  0.3269
    1W        W31533   4.942  12.047   7.331 -0.0296 -0.2909  0.1759
    1W        W31534  29.162   8.552   0.463 -0.1051  0.1582 -0.0187
    1W        W31535  29.770  21.323   7.337  0.0073 -0.0141 -0.0347
    1W        W31536  16.941   7.784   8.534  0.0197 -0.2974 -0.2871
    1W        W31537  12.350   6.695   7.300 -0.1474  0.1239 -0.1869
    1W        W31538  21.074  19.686   7.004 -0.0333 -0.1465 -0.3054
    1W        W31539   5.060   9.284   2.436  0.0687  0.0823  0.0560
    1W        W31540  25.001  29.543   8.187  0.1143  0.0071  0.0987
    1W        W31541  15.112  13.144   1.091 -0.2861 -0.0099 -0.1387
    1W        W31542   3.785  25.867   1.405  0.2700 -0.1214  0.2082
    1W        W31543  29.241   8.436   0.983  0.1163  0.3749  0.0301
    1W        W31544  11.970  16.757   2.717 -0.1364  0.0340 -0.3322
    1W        W31545  19.053  22.333   6.242  0.0218 -0.0265 -0.1081
    1W        W31546   0.996  19.913   2.257 -0.1624 -0.0243  0.1335
    1W        W31547  29.272   0.017   2.798 -0.1184  0.0114 -0.2292
    1W        W31548  16.142  24.100   0.045 -0.1558 -0.2144 -0.1805
    1W        W31549  23.160  23.759   0.008 -0.1863  0.4822 -0.2520
    1W        W31550  12.317   4.274   0.611  0.0270  0.0519 -0.0735
    1W        W31551  29.487   9.132   9.325 -0.2646  0.2722 -0.1797
    1W        W31552  18.855   2.604   2.657 -0.1298  0.4540  0.1251
    1W        W31553   7.326   6.515   2.124 -0.2480 -0.0177  0.4595
    1W        W31554   1.836  23.395   0.960  0.1727 -0.1430 -0.0413
    1W        W31555   5.584  26.080   1.520  0.0101 -0.1442 -0.0523
    1W        W31556  27.690  23.139   8.077  0.0620 -0.0926 -0.0741
    1W        W31557  16.975  27.115   7.472 -0.0225 -0.1686 -0.1791
    1W        W31558  15.632   0.610   8.118 -0.0808 -0.1620  0.1791
    1W        W31559   7.422  18.611   9.054 -0.1869  0.0104 -0.1064
    1W        W31560  19.832  14.613   7.707  0.3568 -0.0319 -0.0905
    1W        W31561   9.147   5.954   2.446  0.0671 -0.1546  0.2266
    1W        W31562  23.425  22.478   6.142  0.3708 -0.2810  0.2189
    1W        W31563  28.423   9.663   2.975 -0.0387 -0.0683  0.0253
    1W        W31564  22.941   6.732   1.455 -0.1294  0.1281  0.2086
    1W        W31565  17.884  24.531   7.511 -0.0015  0.0571 -0.1336
    1W        W31566   7.724  23.163   6.762 -0.1823 -0.0129  0.0783
    1W        W31567  12.903  19.103   1.163 -0.1957 -0.1541  0.0611
    1W        W31568   1.475  11.868   7.683  0.3226  0.2859 -0.3675
    1W        W31569   9.761   1.166   9.398 -0.2721 -0.1205  0.0543
    1W        W31570  22.363   4.151   7.201  0.2019  0.2203 -0.0489
    1W        W31571   4.624  26.239   1.892 -0.1251 -0.0853  0.1466
    1W        W31572  14.161   1.151   0.139  0.1388  0.1558 -0.0832
    1W        W31573   5.544  13.275   1.086 -0.2826  0.1045 -0.1085
    1W        W31574   8.219   3.476   8.271 -0.1418  0.1391  0.1004
    1W        W31575   3.473   1.288   7.448  0.2907  0.0975  0.0778
    1W        W31576  27.076  25.729   2.993  0.1613 -0.2071 -0.0731
    1W        W31577   6.733  24.101   8.071  0.0830  0.2647 -0.2964
    1W        W31578   5.397  27.447   9.380 -0.4864  0.1068  0.2201
    1W        W31579  24.216  17.706   7.492  0.1460 -0.1029  0.1409
    1W        W31580  16.392  17.376   8.633  0.2540 -0.1623  0.0289
    1W        W31581  21.891  10.712   7.266  0.2701  0.1819 -0.4505
    1W        W31582  12.479  18.212   9.455 -0.0862 -0.2282 -0.0263
    1W        W31583  18.500  22.978   8.635  0.0355  0.1660  0.1298
    1W        W31584  24.771   6.458   7.907 -0.0919 -0.2091 -0.0449
    1W        W31585   8.806   7.373   0.406 -0.0556  0.0355 -0.1385
    1W        W31586  18.932   9.960   0.549  0.3309 -0.2223  0.1090
    1W        W31587  22.165  22.361   1.266 -0.2235 -0.0192 -0.3355
    1W        W31588  20.454  22.908   2.012  0.4883  0.2684 -0.2764
    1W        W31589   1.564  23.984   1.696 -0.5178 -0.2987 -0.0253
    1W        W31590   8.738   6.260   2.462 -0.0913 -0.0008  0.1772
    1W        W31591  11.459  12.607   1.707  0.0581  0.2729  0.1658
    1W        W31592  24.791  18.806   7.854  0.0069 -0.0865  0.1424
    1W        W31593  10.370  17.077   8.522 -0.0987  0.1154  0.0550
    1W        W31594  19.018   7.963   8.120 -0.0717 -0.0140  0.0996
    1W        W31595  29.268  13.068   9.228  0.3743 -0.2017 -0.1306
    1W        W31596  15.803   6.093   7.411  0.1023 -0.3784  0.0813
    1W        W31597  19.209   3.756   9.018  0.0430 -0.0238  0.2102
    1W        W31598  23.077   4.590   8.305 -0.1091  0.2279 -0.1172
    1W        W31599  24.851  10.140   2.407  0.0057 -0.1605 -0.0532
    1W        W31600   6.604  26.396   8.310 -0.0954  0.0532  0.1153
    1W        W31601  12.710  20.861   0.185  0.0639 -0.0014  0.4275
    1W        W31602  16.597  15.166   1.792  0.0075 -0.1135 -0.1306
    1W        W31603   1.365  14.349   0.117 -0.2016 -0.1096  0.1945
    1W        W31604  14.587   1.500   1.896 -0.1747  0.0410 -0.5753
    1W        W31605   5.347   3.126   1.139  0.0452 -0.4171  0.1491
    1W        W31606  11.594   0.927   7.645 -0.1981 -0.0920  0.1180
    1W        W31607  11.567  13.873   8.414 -0.1535 -0.0651 -0.0085
    1W        W31608  15.453   3.422   9.258 -0.0453  0.2570  0.2435
    1W        W31609  26.227  25.886   7.445  0.1593 -0.0276  0.0655
    1W        W31610   3.180  24.521   7.468  0.1146  0.2238 -0.1990
    1W        W31611   7.205   7.676   0.790 -0.0701  0.0311  0.2248
    1W        W31612  28.019  16.656   1.590  0.1349 -0.0725  0.1392
    1W        W31613   5.085  22.398   0.239 -0.2602 -0.1788 -0.3734
    1W        W31614  27.181   1.810   8.465 -0.2616  0.2678  0.0392
    1W        W31615  13.736  21.991   1.938  0.0736 -0.1844  0.2524
    1W        W31616  27.869  11.624   8.258  0.0051  0.1951  0.2668
    1W        W31617   2.403   1.895   1.341 -0.2291 -0.0297  0.0536
    1W        W31618   6.088   0.618   7.856 -0.0820  0.0792  0.1693
    1W        W31619  17.867   9.208   0.024 -0.0444  0.1822  0.0213
    1W        W31620  15.268  26.626   0.810  0.3688 -0.0948  0.1941
    1W        W31621   1.718  10.681   7.698  0.2195  0.0723  0.0482
    1W        W31622  24.707   9.026   8.826  0.0462  0.1054 -0.1697
    1W        W31623  20.814  13.055   5.334 -0.1802 -0.3851 -0.3182
    1W        W31624   6.040  20.807   8.894 -0.0908 -0.1225  0.1783
    1W        W31625  25.221  18.564   7.525 -0.1549 -0.0905  0.1896
    1W        W31626  24.723  27.401   2.956  0.2805 -0.0270  0.1705
    1W        W31627  16.644  23.531   8.590 -0.0165 -0.0491  0.1886
    1W        W31628  21.286  11.117   9.427 -0.2352 -0.4779  0.3454
    1W        W31629   7.674   6.778   1.882  0.0709  0.0184 -0.0536
    1W        W31630  29.289  13.557   1.112  0.0208 -0.0241 -0.0858
    1W        W31631   5.934  14.964   8.714  0.3795 -0.0322 -0.1873
    1W        W31632  29.113  21.029   1.262 -0.0801 -0.0846  0.5660
    1W        W31633  15.990  21.347   3.217 -0.1010 -0.0276  0.1367
    1W        W31634  23.228  23.928   7.446 -0.0002  0.0068 -0.0122
    1W        W31635  22.422  22.848   9.096 -0.1349 -0.2196  0.0565
    1W        W31636  18.225  10.315   1.876 -0.3916  0.1790 -0.1731
    1W        W31637   9.842  23.108   3.066 -0.0276 -0.1719  0.0063
    1W        W31638  11.020  14.589   2.033  0.0840 -0.2734  0.1705
    1W        W31639  12.679  23.408   7.981  0.1533 -0.1051  0.1815
    1W        W31640  20.543  14.698   8.251  0.0509 -0.0248 -0.0808
    1W        W31641   1.258   1.387   7.306 -0.3428  0.2763  0.2620
    1W        W31642   3.626   5.165   7.211  0.3962 -0.0563 -0.1472
    1W        W31643  14.308  24.156   7.468 -0.1427 -0.1408 -0.1300
    1W        W31644  27.431  23.882   0.239  0.0587  0.2520  0.2862
    1W        W31645  16.922  14.712   7.152 -0.0779 -0.0094  0.0909
    1W        W31646   6.859  14.846   2.577  0.2086  0.0169 -0.1441
    1W        W31647  22.975   1.499   8.639  0.0081 -0.0959  0.0891
    1W        W31648   2.219  24.734   2.182  0.0093  0.1467 -0.1143
    1W        W31649   2.146  26.249   3.134  0.2519  0.1008  0.2368
    1W        W31650  28.259   9.416   1.813 -0.1382  0.0662 -0.0613
    1W        W31651   8.657  26.186   8.419  0.2887 -0.4584 -0.2021
    1W        W31652  20.467  24.744   8.913  0.0014  0.1802  0.0092
    1W        W31653  16.836  18.772   2.189  0.2464 -0.0851 -0.1769
    1W        W31654  14.853  11.913   9.039  0.0179 -0.4457 -0.0715
    1W        W31655   4.044  14.512   7.630 -0.1914  0.1435 -0.1564
    1W        W31656  12.007   4.679   2.893  0.0093 -0.1443 -0.0424
    1W        W31657  24.104   6.434   1.821  0.1175 -0.0413 -0.2517
    1W        W31658   7.067  12.873   1.590  0.0347  0.2754  0.2022
    1W        W31659  19.483  20.323   9.402  0.2894 -0.1680 -0.0623
    1W        W31660  13.662  15.349   1.388  0.2285 -0.0191 -0.3519
    1W        W31661   3.518   3.711   8.312  0.2381  0.1475  0.1455
    1W        W31662  17.727  29.208   8.899 -0.0062  0.0274 -0.3047
    1W        W31663  25.473   7.854   2.617 -0.3539 -0.0255 -0.0200
    1W        W31664  28.890  10.372   8.337 -0.2755  0.0614  0.1946
    1W        W31665  25.985  25.468   7.643 -0.0953 -0.3924  0.0935
    1W        W31666   3.299   0.224   7.591 -0.0554 -0.0684  0.0558
    1W        W31667  11.409  16.102   8.046 -0.0553  0.0395 -0.0848
    1W        W31668   0.025  14.862   2.584  0.0183 -0.0709  0.1253
    1W        W31669  26.609   2.302   1.931  0.1505 -0.0935  0.1949
    1W        W31670   3.964  24.919   2.137 -0.0018 -0.0115  0.1158
    1W        W31671   0.774   8.797   1.396  0.0679 -0.2463 -0.1499
    1W        W31672  15.866  18.075   1.516 -0.2956 -0.1180 -0.0996
    1W        W31673  18.486  29.582   2.977  0.1128 -0.5039 -0.1227
    1W        W31674   5.007  14.589   0.522  0.1261 -0.0743  0.1130
    1W        W31675  21.790  27.935   1.673 -0.2714  0.2526  0.0133
    1W        W31676   1.884  10.103   6.527 -0.1393  0.3119 -0.2012
    1W        W31677  23.797   4.137   1.165 -0.0834 -0.1668 -0.0130
    1W        W31678  12.093  11.924   0.577 -0.0565  0.0513 -0.0203
    1W        W31679  19.637  16.795   1.011 -0.2228  0.0665  0.2847
    1W        W31680  14.801   0.550   1.728 -0.1114 -0.1142 -0.1773
    1W        W31681  17.750  14.668   0.772  0.1885 -0.3815 -0.1721
    1W        W31682  25.251  13.351   7.475  0.0955 -0.0565  0.0568
    1W        W31683  20.182  16.825   9.173 -0.3352 -0.0199  0.0369
    1W        W31684   3.847  27.747   8.899  0.0637  0.3029  0.1184
    1W        W31685   7.510  17.594   2.198  0.0295  0.0006  0.0664
    1W        W31686  15.248  20.730   6.963 -0.3578 -0.4580 -0.0509
    1W        W31687  28.497   4.967   8.697 -0.2677  0.0390 -0.2843
    1W        W31688  14.513  26.285   6.274 -0.2104  0.1093 -0.3505
    1W        W31689   7.837  27.327   6.961  0.0845 -0.1822  0.0217
    1W        W31690  23.566   9.750   6.374 -0.0652  0.1286  0.0105
    1W        W31691   4.153   9.519   8.897  0.1075 -0.2885  0.0346
    1W        W31692  10.282  13.702   1.974 -0.1705 -0.0995  0.0654
    1W        W31693  15.231   1.962   1.287 -0.2304 -0.1211  0.1201
    1W        W31694  28.465  12.338   0.901  0.0887 -0.1805  0.3082
    1W        W31695  15.793  13.907   0.154 -0.2790 -0.0741 -0.0963
    1W        W31696  20.641  13.917   5.719  0.1769 -0.0861  0.1846
    1W        W31697  13.550   9.086   8.126  0.0176 -0.2213 -0.2669
    1W        W31698  12.476  20.203   7.221  0.0866  0.0233 -0.4080
    1W        W31699   5.001   1.404   0.189 -0.0376  0.1048 -0.0216
    1W        W31700   3.419   8.325   7.162 -0.3063 -0.0811 -0.0303
    1W        W31701   7.931   4.419   2.686  0.1331 -0.1554  0.2357
    1W        W31702  13.206  18.658   2.320  0.3061 -0.0393  0.0854
    1W        W31703  17.826   8.057   8.330  0.2618  0.0821  0.2240
    1W        W31704   1.495  11.224   7.123 -0.1258  0.0337  0.2171
    1W        W31705  15.206  21.506   6.609 -0.0498  0.1132 -0.1513
    1W        W31706  12.761  19.364   8.007 -0.0120  0.0281 -0.1470
    1W        W31707   8.160  25.893   0.128 -0.1061  0.2978  0.1152
    1W        W31708   5.919   1.063   1.239 -0.4103  0.2871 -0.1282
    1W        W31709  17.822  25.219   6.544 -0.0272  0.1483 -0.0058
    1W        W31710  13.119  26.090   2.036  0.0078  0.1083  0.0840
    1W        W31711   5.836  19.506   6.951 -0.2158  0.5169  0.0435
    1W        W31712   8.155   1.935   1.571 -0.0777  0.0397 -0.0515
    1W        W31713  20.313  14.294   2.364 -0.2351 -0.0702 -0.2188
    1W        W31714  14.873  10.842   1.343 -0.3617  0.0959 -0.2073
    1W        W31715   7.906   4.684   8.182 -0.1866  0.2839  0.0819
    1W        W31716  22.879   5.709   7.483 -0.0954  0.0859 -0.0249
    1W        W31717  27.017  13.470   9.088  0.0096  0.4481 -0.1035
    1W        W31718   5.990  25.690   8.178  0.1211  0.1536 -0.2554
    1W        W31719   8.025  21.936   8.868 -0.2157 -0.0211  0.2291
    1W        W31720  16.839  29.272   2.411  0.1527  0.1958  0.0370
    1W        W31721   2.149  14.391   6.670  0.1552 -0.2836  0.0810
    1W        W31722   3.715   8.457   9.213 -0.2434 -0.0269 -0.1705
    1W        W31723  26.076  19.016   8.987  0.0264 -0.2529  0.2453
    1W        W31724  17.878  22.726   1.121  0.1447 -0.2182  0.2756
    1W        W31725  17.053  15.001   8.092 -0.1087 -0.1678  0.0486
    1W        W31726  20.350  17.997   0.229 -0.0196 -0.0635  0.0642
    1W        W31727  22.848  25.404   7.292  0.2338 -0.1041  0.0643
    1W        W31728  25.921   1.075   7.310  0.0554  0.1008  0.3196
    1W        W31729  27.382   9.779   1.555  0.1653 -0.0708 -0.1253
    1W        W31730  13.749  27.241   0.877 -0.1590  0.1692 -0.0366
    1W        W31731  20.074   6.110   1.041  0.1936 -0.0138  0.2229
    1W        W31732   7.440  24.241   7.833 -0.0186  0.0930 -0.4161
    1W        W31733  15.823   5.226   8.360  0.1247 -0.0822 -0.1636
    1W        W31734  21.811  29.365   7.732 -0.0121 -0.1741 -0.1507
    1W        W31735  12.195  23.171   7.991 -0.0484  0.0214  0.1159
    1W        W31736   6.153  27.352   7.750 -0.1579  0.0064  0.0741
    1W        W31737   4.534   2.429   7.851 -0.3999 -0.1337  0.1460
    1W        W31738   5.655  11.467   7.439 -0.1909  0.1874 -0.2539
    1W        W31739  13.394  16.051   7.169  0.0186  0.0459  0.0310
    1W        W31740   1.476  25.602   7.795  0.3672 -0.3754 -0.3645
    1W        W31741  12.618   5.199   7.495  0.1466  0.0357  0.0749
    1W        W31742  27.293  14.119   6.719  0.1387  0.0748 -0.0444
    1W        W31743   7.147   3.097   0.926  0.1468  0.2018 -0.1909
    1W        W31744   0.440  27.047   2.390  0.1821 -0.2306  0.0751
    1W        W31745  14.350  17.320   7.072 -0.0760 -0.2804  0.0736
    1W        W31746  29.635   1.193   8.573  0.1296 -0.2942  0.3269
    1W        W31747  23.309   6.415   1.669 -0.1106  0.0625 -0.2816
    1W        W31748  11.169  19.286   9.481 -0.1615 -0.3646  0.0431
    1W        W31749  27.623  21.971   1.647  0.0429 -0.0106  0.3802
    1W        W31750   7.989   7.773   7.411  0.1722 -0.2022  0.0782
    1W        W31751  24.863   8.144   0.020  0.4609  0.0705  0.0471
    1W        W31752  14.617  11.923   2.753 -0.0270 -0.0660  0.0025
    1W        W31753  11.969  28.568   8.191 -0.1240 -0.2612 -0.1497
    1W        W31754  22.673  24.519   0.120  0.2025  0.2129  0.2674
    1W        W31755   1.209  25.971   1.718  0.3029 -0.1874 -0.1987
    1W        W31756   1.476  14.910   0.883  0.0043  0.0121 -0.2645
    1W        W31757  23.360  11.751   9.295 -0.0327  0.2499  0.1027
    1W        W31758  17.389  29.631   2.638 -0.3496 -0.1473 -0.1231
    1W        W31759  13.992  26.358   6.363 -0.0847 -0.1498  0.1840
    1W        W31760  24.263  22.751   6.374  0.0463  0.2909 -0.0311
    1W        W31761  20.097  23.265   2.290  0.3936  0.1020  0.0095
    1W        W31762  21.584   8.974   7.662 -0.1715 -0.0273  0.5529
    1W        W31763   1.118   7.942   7.237 -0.2809  0.1625 -0.1185
    1W        W31764  23.938  21.666   1.504 -0.2002 -0.1772 -0.2515
    1W        W31765  24.122   8.064   3.227  0.4104  0.1721  0.1312
    1W        W31766  22.103   6.514   0.108 -0.0807 -0.2963 -0.0752
    1W        W31767  20.632  25.833   7.332  0.1257  0.0012  0.1969
    1W        W31768  10.078  11.226   2.472  0.0310 -0.1590 -0.1499
    1W        W31769   8.789  17.456   1.562 -0.1482 -0.1682  0.1699
    1W        W31770   9.949  19.565   1.295 -0.4879 -0.1523  0.1454
    1W        W31771   0.153  20.350   7.106  0.3390 -0.4134 -0.0358
    1W        W31772  13.105  18.748   0.889  0.3199  0.0030  0.0995
    1W        W31773  16.823  19.890   0.353  0.2109 -0.2522  0.0832
    1W        W31774  11.408  25.266   1.643 -0.1011  0.3254  0.0649
    1W        W31775  11.593   8.925   9.181  0.0747  0.0240  0.0519
    1W        W31776   2.883  20.798   2.456  0.2248  0.0720 -0.0456
    1W        W31777  18.011  27.389   3.324  0.4345  0.0277  0.1272
    1W        W31778  15.431  26.230   2.396  0.0097 -0.0220 -0.1637
    1W        W31779  14.394  26.897   7.860 -0.0074 -0.1820 -0.0374
    1W        W31780  18.100  25.877   9.264  0.0965 -0.1934 -0.1136
    1W        W31781  24.231  22.853   9.030 -0.1398 -0.2104  0.0433
    1W        W31782   8.656   4.370   1.495  0.1302  0.4060  0.1189
    1W        W31783   0.256   5.734   2.501  0.2331  0.1712 -0.3423
    1W        W31784  28.290   5.186   1.048 -0.0563 -0.0026  0.0687
    1W        W31785  15.431  27.689   2.076  0.1342  0.1885  0.0098
    1W        W31786  19.294   1.930   7.413 -0.2071  0.3351  0.1427
    1W        W31787  15.786  19.850   2.091 -0.1934  0.0503 -0.3488
    1W        W31788   2.302  11.195   0.892  0.0947 -0.3052  0.0208
    1W        W31789  29.622  28.053   7.965  0.0384 -0.2089 -0.0060
    1W        W31790  16.465  24.179   8.737  0.0553 -0.1905  0.3311
    1W        W31791  29.548  22.601   8.808 -0.0246  0.3647  0.0999
    1W        W31792  21.730   4.114   9.143 -0.2086 -0.0651 -0.0566
    1W        W31793  11.011  18.601   6.841 -0.5419  0.1835  0.0308
    1W        W31794  18.239  11.628   9.511 -0.0252 -0.1400  0.1854
    1W        W31795   7.966   4.533   3.152  0.1049 -0.0104 -0.1081
    1W        W31796  15.760  26.464   8.897 -0.1738  0.0762  0.2235
    1W        W31797  18.483   1.439   7.320 -0.0140 -0.0565  0.0567
    1W        W31798   7.144   9.170   9.327  0.0227 -0.0561  0.1827
    1W        W31799   3.264   9.856   1.336 -0.0082  0.1760 -0.0456
    1W        W31800  27.263  15.650   5.864  0.1072 -0.0435 -0.0183
    1W        W31801   4.710  26.661   3.351 -0.2287  0.0455  0.1766
    1W        W31802  23.541  21.468   6.771  0.0866 -0.2396  0.0515
    1W        W31803  15.337   6.208   0.163 -0.0874 -0.0737  0.1031
    1W        W31804  24.903  17.149   6.785 -0.0023  0.2215  0.1041
    1W        W31805   2.423  18.779   8.220  0.3649 -0.2155 -0.2107
    1W        W31806  27.909   6.921   1.582 -0.1457  0.1011  0.0644
    1W        W31807  19.424  26.871   3.236 -0.2726 -0.2812  0.0032
    1W        W31808  26.558   5.159   7.908 -0.0715 -0.0784  0.2343
    1W        W31809  15.594  18.450   1.905  0.1390  0.0159  0.0883
    1W        W31810  29.581   7.303   7.909  0.1374 -0.0059  0.0536
    1W        W31811  20.363  23.073   0.054 -0.0527  0.1756 -0.1869
    1W        W31812   6.733  13.092   7.671 -0.3817 -0.0184 -0.0850
    1W        W31813  11.036  19.766   8.601 -0.0551  0.1549 -0.1856
    1W        W31814  21.145   5.692   0.577  0.0572  0.0855  0.0029
    1W        W31815  25.185   2.504   8.167 -0.0135  0.0099 -0.2767
    1W        W31816  25.582   6.191   0.577  0.4337  0.0308  0.0932
    1W        W31817  12.139  20.113   9.539 -0.1652  0.1619  0.3267
    1W        W31818  11.434  23.839   6.671  0.2335 -0.1760  0.1457
    1W        W31819  29.389  21.643   6.983  0.1531 -0.3532 -0.4442
    1W        W31820   9.341   5.683   8.903 -0.0162 -0.1437 -0.1141
    1W        W31821  16.369  22.817   8.180 -0.1282 -0.1952  0.0229
    1W        W31822  11.734   3.813   2.306 -0.4825 -0.0035  0.4247
    1W        W31823   6.486   6.760   8.597 -0.4154 -0.3235 -0.0129
    1W        W31824  10.664  13.367   0.968 -0.0666  0.0916  0.1402
    1W        W31825  19.124  21.069   6.055 -0.0412 -0.0987  0.2922
    1W        W31826  12.033  25.830   1.003 -0.0296 -0.1489 -0.1607
    1W        W31827  14.428  27.901   0.965  0.0712  0.1845 -0.2042
    1W        W31828  18.750   7.230   2.234  0.2675 -0.0417  0.0093
    1W        W31829  26.132   4.153   8.101 -0.2786  0.0484  0.2160
    1W        W31830  16.177   2.630   0.110 -0.0003 -0.0843 -0.1751
    1W        W31831  22.222   8.171   8.565 -0.0591 -0.2159 -0.2507
    1W        W31832   1.756   1.449   0.018 -0.0113  0.1660  0.1790
    1W        W31833   1.265  11.140   8.976  0.1982  0.1459 -0.0772
    1W        W31834  27.784   5.528   8.036  0.0446 -0.1678  0.1264
    1W        W31835  16.626  26.187   8.471 -0.1499 -0.0448  0.1961
    1W        W31836   9.732   5.578   1.274 -0.2447 -0.0547 -0.0546
    1W        W31837  12.842  29.302   8.069  0.2486  0.0546 -0.0092
    1W        W31838  23.103  20.461   8.917  0.0561 -0.3319 -0.1138
    1W        W31839   8.972  14.649   2.963  0.1480 -0.1102  0.1330
    1W        W31840  20.585   2.058   8.189  0.1262 -0.0759  0.1186
    1W        W31841  27.650  25.266   7.794 -0.1239 -0.0585  0.2215
    1W        W31842  29.756  28.746   1.393  0.2222 -0.3211 -0.1094
    1W        W31843  25.253  28.819   7.161 -0.2148 -0.0771 -0.1727
    1W        W31844  22.903  18.613   0.942  0.2157 -0.1259 -0.2223
    1W        W31845  26.821  17.441   6.594  0.3311 -0.1283 -0.2063
    1W        W31846  10.409   6.893   1.197 -0.2816  0.1232 -0.1935
    1W        W31847  24.409   0.481   1.981  0.1787 -0.1352  0.0029
    1W        W31848  20.063  17.412   2.056  0.1079  0.0978  0.1024
    1W        W31849   1.028  19.597   1.276 -0.0467 -0.4244  0.0507
    1W        W31850  14.351   9.441   1.723  0.0970  0.0144  0.0238
    1W        W31851   3.586   5.344   0.106  0.2397 -0.0184 -0.2592
    1W        W31852  19.542  10.926   8.887 -0.2103  0.1676  0.2581
    1W        W31853  16.981  16.255   0.524  0.1011  0.1354 -0.2089
    1W        W31854  27.477   9.925   8.975  0.0173 -0.2125 -0.2528
    1W        W31855  15.749  28.821   2.691  0.0057  0.0680 -0.0797
    1W        W31856  26.157   9.509   7.139 -0.0086 -0.1053 -0.4598
    1W        W31857  19.968  13.574   6.448  0.1919 -0.0230  0.2003
    1W        W31858  15.238  11.988   8.701  0.0755  0.0230 -0.2643
    1W        W31859  14.924  18.800   7.967  0.0350 -0.1753  0.3183
    1W        W31860   9.673   7.981   8.985 -0.0004 -0.2306 -0.1138
    1W        W31861  24.063  15.233   8.524 -0.1323  0.0574  0.1211
    1W        W31862  19.161  24.399   1.511 -0.2224 -0.1111  0.1123
    1W        W31863  11.707  17.034   1.927  0.2771 -0.0492 -0.1433
    1W        W31864  28.997   8.089   7.614  0.0501  0.2244  0.2393
    1W        W31865  20.046  14.159   8.321  0.0337 -0.2987 -0.0603
    1W        W31866  11.303  11.757   9.531 -0.1391  0.2791  0.0980
    1W        W31867  19.511   6.863   2.537  0.0785  0.3761  0.0328
    1W        W31868   7.449  17.102   6.958 -0.1674 -0.2663  0.1674
    1W        W31869  17.155   0.988   1.279  0.1854  0.1533  0.2413
    1W        W31870  23.884  20.202   0.477 -0.2344  0.0855 -0.2288
    1W        W31871  23.782   4.741   3.520  0.2226 -0.0934  0.1774
    1W        W31872  17.135   6.229   3.990 -0.0619 -0.0099  0.3451
    1W        W31873  28.979  12.267   8.922  0.1472 -0.1141  0.1405
    1W        W31874   3.381   8.807   2.529  0.0723 -0.1375  0.0882
    1W        W31875  21.921  25.483   8.192 -0.0337 -0.0566 -0.3483
    1W        W31876  25.501  19.794   7.990  0.1924 -0.3898  0.1529
    1W        W31877  25.008  25.950   1.515  0.2454  0.1210  0.2465
    1W        W31878  12.250   3.163   7.424  0.0559  0.1638 -0.0262
    1W        W31879   6.757  20.263   0.719  0.0255  0.3106  0.4573
    1W        W31880  14.594  23.126   0.875  0.0880  0.0148  0.2899
    1W        W31881  12.138  24.266   2.168 -0.0953  0.2444  0.2393
    1W        W31882   1.919  20.802   1.572  0.0553  0.1233 -0.0771
    1W        W31883   6.994   6.352   0.822 -0.0399 -0.0584 -0.1271
    1W        W31884  24.372  22.979   9.505  0.2396  0.1034  0.1112
    1W        W31885  24.103  15.766   9.435 -0.1243 -0.0541 -0.0553
    1W        W31886  20.184   9.963   8.411  0.2512  0.1098  0.0342
    1W        W31887  26.656  29.731   0.524  0.2073 -0.0152 -0.1828
    1W        W31888  17.637  29.429   0.451 -0.2621 -0.2200  0.0602
    1W        W31889  29.186   7.246   2.555 -0.2371  0.0223  0.0565
    1W        W31890  11.987  23.443   1.153  0.1685 -0.0964 -0.1473
    1W        W31891  26.605   5.779   6.819 -0.0438 -0.0980  0.0310
    1W        W31892  16.634   8.547   8.157  0.1319 -0.0563  0.2568
    1W        W31893  14.943  28.761   2.258  0.1128  0.0929  0.1470
    1W        W31894   8.547   5.234   8.487  0.1293 -0.1074 -0.2805
    1W        W31895  24.442  19.105   7.492  0.2253 -0.1304 -0.0370
    1W        W31896  12.820   6.124   8.793  0.2650  0.1367  0.2449
    1W        W31897   5.244   1.110   8.733 -0.3329  0.1041 -0.1496
    1W        W31898  18.662  26.270   0.651  0.3510  0.4837 -0.0068
    1W        W31899   4.654  21.961   1.036 -0.0815  0.1315 -0.1861
    1W        W31900  10.620  26.537   3.417  0.1032 -0.1996 -0.0574
    1W        W31901   1.887  17.626   7.750 -0.0198  0.1117  0.0097
    1W        W31902  10.902  10.080   7.246  0.0169  0.3999  0.0918
    1W        W31903  20.903  27.454   0.296 -0.0470 -0.0635  0.2371
    1W        W31904   2.024  21.403   0.231  0.0459 -0.1748 -0.3227
    1W        W31905  20.643   9.809   8.546 -0.2720 -0.1270  0.1230
    1W        W31906  28.084  21.586   1.030 -0.1214 -0.2424 -0.0796
    1W        W31907  29.636  10.596   1.665  0.0989  0.0387 -0.2229
    1W        W31908   6.044   5.005   1.775  0.2574 -0.0635 -0.0958
    1W        W31909   9.569  22.082   2.986  0.0350  0.1021 -0.0908
    1W        W31910  10.947  13.393   9.218  0.1106 -0.1781  0.2677
    1W        W31911  21.738  16.407   9.459 -0.0965  0.1790 -0.1694
    1W        W31912   7.758  27.962   8.899  0.2399  0.2943  0.1111
    1W        W31913  15.850   3.169   7.965 -0.2943 -0.1565 -0.2060
    1W        W31914  29.304  12.864   7.301 -0.2759  0.1339  0.2428
    1W        W31915   6.298   2.457   9.147  0.2513 -0.1213 -0.2294
    1W        W31916  24.507   0.522   9.219 -0.0441  0.0874  0.2110
    1W        W31917   5.076  21.635   7.196 -0.1064 -0.0084  0.1080
    1W        W31918  21.841  22.940   9.332 -0.1761  0.0735 -0.2226
    1W        W31919  17.422  22.804   6.720 -0.1691 -0.0960  0.1930
    1W        W31920  28.773   3.309   0.583  0.1575  0.2239 -0.0745
    1W        W31921   1.698  25.608   7.328 -0.2071  0.0662 -0.0829
    1W        W31922  21.302  15.866   8.664  0.2690 -0.2331 -0.0117
    1W        W31923  21.872   7.471   0.446  0.1931 -0.2150 -0.2442
    1W        W31924  18.087   5.011   1.268  0.0428  0.1785 -0.0433
    1W        W31925  22.119   6.768   8.337  0.1134 -0.4142 -0.0878
    1W        W31926   8.241  27.674   1.913 -0.0415 -0.0746  0.0988
    1W        W31927  13.548  14.526   7.667  0.5154 -0.0419  0.1567
    1W        W31928  26.510  21.753   7.052 -0.0317  0.1147 -0.0817
    1W        W31929   6.244  27.539   2.237 -0.2698  0.0406 -0.1343
    1W        W31930  27.662  12.086   9.092  0.5920  0.0053 -0.1434
    1W        W31931   0.859   3.160   1.268 -0.0172  0.0509  0.0674
    1W        W31932  28.170  10.085   2.756 -0.3134  0.0724 -0.2069
    1W        W31933   6.947  21.245   1.465 -0.0835 -0.1243  0.2383
    1W        W31934  22.012   2.565   3.181  0.0841  0.1480  0.1770
    1W        W31935   1.655   2.192   0.756 -0.5357 -0.3126 -0.0705
    1W        W31936   1.746   9.498   9.173  0.4578 -0.1629 -0.0119
    1W        W31937  14.946   7.516   9.133 -0.1089  0.3363 -0.0922
    1W        W31938   8.346   5.626   1.528 -0.5960 -0.0855  0.0173
    1W        W31939  18.374  24.109   0.734 -0.2092 -0.0851 -0.3261
    1W        W31940   5.331   9.182   6.751 -0.0632  0.4544 -0.0839
    1W        W31941  16.164  10.126   2.079 -0.2066  0.2254 -0.1504
    1W        W31942  21.476   3.604   1.147  0.0449  0.1353 -0.1079
    1W        W31943   0.170  16.614   0.743 -0.0433 -0.2210 -0.2461
    1W        W31944   6.050   2.302   0.635  0.0905  0.0035  0.1482
    1W        W31945   0.438  14.353   0.022  0.0264 -0.2389 -0.2424
    1W        W31946  17.939  29.217   1.335  0.2368  0.0548 -0.0465
    1W        W31947   2.220  12.628   1.656  0.0812  0.0878 -0.2814
    1W        W31948   1.491  18.932   8.191  0.0249 -0.0801  0.1969
    1W        W31949   7.597   0.121   7.013 -0.0942  0.0214  0.1326
    1W        W31950  23.876  11.579   9.327 -0.1162  0.0568 -0.0049
    1W        W31951  18.797  28.147   1.927 -0.0172 -0.2145  0.1484
    1W        W31952   6.496   0.413   7.703 -0.1488  0.0917  0.1454
    1W        W31953  15.537   4.373   8.305  0.1211  0.1315 -0.3848
    1W        W31954  11.862  26.459   1.789 -0.0014 -0.1560 -0.1386
    1W        W31955  18.071  26.933   2.200 -0.1073  0.3803  0.2117
    1W        W31956  14.899  10.174   3.520 -0.3083 -0.3187  0.1073
    1W        W31957   6.557   3.172   7.650  0.0410  0.1395 -0.0747
    1W        W31958   9.977  13.609   1.553  0.1385  0.1243  0.1754
    1W        W31959  10.078  10.516   9.444 -0.0855 -0.0544 -0.2691
    1W        W31960  25.746  18.878   8.074 -0.2101 -0.1542  0.0174
    1W        W31961   4.248  11.858   2.204  0.0668  0.1059 -0.1848
    1W        W31962  25.348   3.015   1.780 -0.0070 -0.0488  0.0320
    1W        W31963  17.709  17.067   1.943  0.0792 -0.0431 -0.1433
    1W        W31964   0.498  11.985   1.786  0.0498  0.1729  0.1080
    1W        W31965   9.617  20.048   0.114  0.5545  0.2235  0.1197
    1W        W31966  25.047  17.931   0.102 -0.1410  0.0539  0.1562
    1W        W31967  19.525  29.393   9.540 -0.1075  0.1092  0.1543
    1W        W31968  13.260  12.853   7.707  0.1301  0.1126  0.1050
    1W        W31969  27.466  25.409   8.232 -0.1496 -0.2597  0.0280
    1W        W31970  17.221  20.426   2.937 -0.2060  0.0909  0.0602
    1W        W31971  18.011   5.634   8.616 -0.0673 -0.0719  0.0197
    1W        W31972  28.738   3.151   3.255 -0.3315 -0.1047 -0.0465
    1W        W31973  12.532  19.611   7.287 -0.4398 -0.0461 -0.0045
    1W        W31974   4.598  18.864   0.098  0.0086  0.2128 -0.0514
    1W        W31975  17.160  26.337   2.854 -0.1221 -0.0898 -0.0003
    1W        W31976  22.620   7.907   0.416 -0.0755  0.1906  0.1862
    1W        W31977  15.145   2.786   1.980 -0.0561 -0.1683  0.1072
    1W        W31978   5.017   5.428   0.881  0.2482 -0.0419 -0.0594
    1W        W31979   3.860   8.593   8.340 -0.0888  0.2076 -0.0628
    1W        W31980   8.619  24.141   1.371  0.1010 -0.4292 -0.1156
    1W        W31981  16.672   6.204   2.640  0.1563 -0.0515 -0.1041
    1W        W31982  22.304  19.413   7.618 -0.0491 -0.3112 -0.2443
    1W        W31983  17.073   6.695   9.038  0.2001  0.2886 -0.1438
    1W        W31984  22.911   9.180   1.852 -0.0923 -0.1593 -0.1307
    1W        W31985   0.550  19.923   1.470  0.0524  0.0555  0.1293
    1W        W31986   7.336  19.281   0.128 -0.5183  0.0322  0.0050
    1W        W31987   8.141   8.709   1.713  0.0051  0.1899 -0.4904
    1W        W31988  18.593  25.647   1.827  0.0165  0.2161  0.0871
    1W        W31989  28.545   6.889   8.115 -0.1495 -0.0563  0.0509
    1W        W31990  12.890  25.799   6.801  0.0926  0.3068 -0.0550
    1W        W31991  19.398  22.253   0.687  0.0894 -0.0297 -0.1868
    1W        W31992   5.821  21.783   7.843 -0.0892  0.3917 -0.2583
    1W        W31993  24.660  15.767   1.067  0.0259  0.0990  0.2398
    1W        W31994  17.339  15.976   7.203  0.2373  0.0619 -0.1948
    1W        W31995  24.464  22.582   8.037 -0.1915 -0.4498 -0.1699
    1W        W31996   4.340  25.922   1.566  0.0375 -0.0661 -0.0256
    1W        W31997   3.702  17.906   0.584  0.0249  0.0487  0.0737
    1W        W31998  12.342  25.765   8.058 -0.0773 -0.4032 -0.2911
    1W        W31999  10.538  21.561   6.730 -0.1305 -0.1741  0.3231
    1W        W32000   7.200  11.888   1.551  0.1577 -0.0931 -0.0671
    1W        W32001   8.359   2.213   1.058  0.2197 -0.0147 -0.0429
    1W        W32002  26.723   8.631   2.716 -0.2192 -0.0605  0.2720
    1W        W32003  22.676  24.961   8.153 -0.0476  0.1587  0.1100
    1W        W32004  13.139  20.502   2.437  0.1968 -0.0488 -0.1527
    1W        W32005  15.323  24.356   9.093 -0.0126  0.0218  0.0423
    1W        W32006   9.240  29.556   2.821 -0.0338 -0.0093 -0.0242
    1W        W32007  13.969  18.157   3.486  0.2494  0.2850  0.1555
    1W        W32008  18.731   4.774   0.136 -0.4292  0.0726 -0.1541
    1W        W32009  24.575  25.924   7.517 -0.0624  0.2874 -0.0982
    1W        W32010   1.131  14.448   7.012 -0.2846 -0.0884  0.3025
    1W        W32011  28.317  22.248   8.979  0.2603 -0.1258  0.1106
    1W        W32012  28.703   3.125   2.256 -0.1436  0.0388 -0.2690
    1W        W32013   7.639  17.702   1.536 -0.1107 -0.3277  0.0215
    1W        W32014   9.894  10.866   7.825 -0.3412  0.0375  0.1541
    1W        W32015  24.185   5.918   7.177  0.0407 -0.1284 -0.2174
    1W        W32016   9.009  10.928   7.234  0.1268  0.0707 -0.0042
    1W        W32017  13.304   2.011   2.464 -0.0292 -0.0452 -0.0744
    1W        W32018   0.589  10.068   2.110  0.3733 -0.0823  0.0767
    1W        W32019   2.207  13.080   7.129 -0.1423 -0.0204  0.0966
    1W        W32020  21.421   1.564   0.614 -0.0322 -0.0229  0.1282
    1W        W32021  11.595  26.830   3.238  0.0847  0.2006 -0.0036
    1W        W32022  28.372  10.293   7.465 -0.0487 -0.1265  0.2075
    1W        W32023  18.603   0.385   2.490  0.1760 -0.1584  0.1564
    1W        W32024   4.384   8.517   0.267 -0.1753  0.0068 -0.0666
    1W        W32025  14.230  21.226   9.378 -0.3377 -0.0903 -0.2293
    1W        W32026   1.752  12.561   1.596  0.0648 -0.2075  0.2327
    1W        W32027   1.487   1.953   2.717 -0.1672 -0.1549 -0.0066
    1W        W32028   5.818   9.530   7.910 -0.2649  0.3739 -0.0425
    1W        W32029   0.489  13.569   9.076 -0.3174 -0.4305  0.2732
    1W        W32030   5.001   0.035   9.455  0.3335 -0.0372 -0.1505
    1W        W32031   3.774   0.474   1.272 -0.1241 -0.0391 -0.2497
    1W        W32032  10.627   8.027   8.889 -0.4042  0.0298 -0.0026
    1W        W32033  13.974   5.742   7.823 -0.0571  0.2843 -0.1222
    1W        W32034   8.233  25.412   0.032 -0.1382  0.0026  0.2704
    1W        W32035  19.637  12.443   7.859  0.2273  0.1866 -0.1043
    1W        W32036  14.661  16.813   8.421  0.3229 -0.0621 -0.1855
    1W        W32037   4.015  16.582   7.849  0.0540  0.1129  0.0382
    1W        W32038   4.907  10.997   1.382 -0.1952  0.2506  0.4474
    1W        W32039  14.900   8.260   2.824  0.0471  0.2797  0.0197
    1W        W32040  27.061   1.749   6.574  0.0282 -0.0425  0.0124
    1W        W32041  19.689  20.695   7.999 -0.0744 -0.2861  0.0867
    1W        W32042   4.800   5.054   7.345 -0.1000  0.0701  0.1363
    1W        W32043   3.438  27.137   7.079  0.3419 -0.0877 -0.1103
    1W        W32044   9.598  22.673   6.339 -0.2033 -0.4002  0.1574
    1W        W32045  14.000  10.851   8.028  0.1980 -0.1235 -0.0092
    1W        W32046   7.553  12.508   7.596  0.0523 -0.1886 -0.0241
    1W        W32047  19.145  20.062   3.262  0.0131 -0.0629  0.1167
    1W        W32048  27.359  11.305   1.340  0.3632  0.0143 -0.0734
    1W        W32049   9.545   1.510   2.878 -0.1306  0.3018 -0.1244
    1W        W32050  25.328  13.143   6.090  0.0823 -0.0828 -0.0761
    1W        W32051  16.200   8.424   2.428  0.1199  0.1804  0.2010
    1W        W32052  10.307  14.505   7.889  0.0582 -0.0974  0.0158
    1W        W32053  18.029   5.172   9.435  0.1911  0.3384 -0.0183
    1W        W32054  27.573   9.183   7.385 -0.2066 -0.1354  0.2252
    1W        W32055   7.893  22.704   1.456 -0.0686  0.0407 -0.0148
    1W        W32056  13.715   1.642   9.245  0.4640 -0.0149  0.1760
    1W        W32057  26.643  23.872   0.834  0.1307  0.1276 -0.1290
    1W        W32058   3.204   9.633   8.604 -0.0822 -0.0556 -0.1198
    1W        W32059  23.726  13.120   6.853  0.2225 -0.0932  0.4098
    1W        W32060   3.509  16.784   1.282 -0.1596 -0.2250 -0.2671
    1W        W32061  24.640   5.208   3.882 -0.1178 -0.2859 -0.1022
    1W        W32062   5.750  25.625   1.358  0.0157  0.3417 -0.1513
    1W        W32063  20.659  18.570   9.211 -0.0916 -0.2212  0.0359
    1W        W32064   2.637   5.977   1.832 -0.1649 -0.0325 -0.0037
    1W        W32065  18.023   2.407   2.088 -0.1792  0.0558 -0.0581
    1W        W32066  15.750   9.303   8.794 -0.1456 -0.1973  0.1087
    1W        W32067   2.858  24.276   1.188 -0.0251 -0.1518 -0.2128
    1W        W32068   0.544  26.081   0.022  0.2487 -0.2565 -0.0866
    1W        W32069  10.566   8.569   8.887 -0.1852  0.1006 -0.0673
    1W        W32070   0.704   3.548   2.405 -0.0390  0.0283  0.2711
    1W        W32071  24.537  26.341   7.199  0.0201 -0.3450  0.0190
    1W        W32072  20.678  22.580   0.767 -0.0381  0.2731 -0.1307
    1W        W32073   6.506   6.007   2.980  0.3830  0.2816  0.1848
    1W        W32074  29.736  28.118   0.224 -0.0385  0.1216 -0.1794
    1W        W32075  17.764  22.731   2.165 -0.0794  0.0326  0.0852
    1W        W32076  27.232  17.567   6.280  0.1147 -0.2090 -0.1656
    1W        W32077   4.241  11.521   9.512  0.1575 -0.1839  0.0896
    1W        W32078  18.192   2.506   1.597  0.0416 -0.1813  0.3526
    1W        W32079  11.840  15.742   7.140  0.0034 -0.3431 -0.1552
    1W        W32080  26.638  16.510   0.576 -0.0542  0.0562 -0.1631
    1W        W32081  24.780   8.257   2.190  0.2661 -0.0002 -0.2886
    1W        W32082   1.871  12.667   0.530 -0.3426  0.1143 -0.1913
    1W        W32083   6.209   6.301   3.284 -0.0030 -0.3229 -0.0344
    1W        W32084  20.851  13.686   1.166 -0.1467 -0.3431 -0.0137
    1W        W32085  10.858  13.314   1.649 -0.2874 -0.1631 -0.1214
    1W        W32086  14.360  11.749   9.032 -0.3024  0.0326  0.1176
    1W        W32087   6.962  29.180   6.904  0.1535 -0.3622 -0.1746
    1W        W32088  26.115   6.408   0.509 -0.3267  0.2203 -0.0884
    1W        W32089  22.240  28.531   0.199  0.1461 -0.0632 -0.1322
    1W        W32090  23.097   2.570   7.126 -0.1005 -0.1144 -0.0969
    1W        W32091   0.889  29.376   1.534  0.2492 -0.1645  0.0049
    1W        W32092   7.927  10.004   0.228 -0.0240  0.0281 -0.0344
    1W        W32093  15.981   2.434   1.967 -0.2054 -0.0498  0.0739
    1W        W32094   8.588  16.132   2.090 -0.2180 -0.0029  0.0729
    1W        W32095  25.630  28.513   0.629 -0.1847  0.0532 -0.0806
    1W        W32096   5.205  17.528   6.600 -0.2029 -0.1967 -0.1014
    1W        W32097  13.502  18.292   6.704  0.1407  0.1440 -0.1722
    1W        W32098  13.610  24.882   3.150 -0.0152 -0.0631 -0.2300
    1W        W32099  22.499  16.759   8.975  0.2456  0.2400  0.1536
    1W        W32100  23.091  23.224   0.234  0.1587 -0.1394  0.1654
    1W        W32101  17.560  15.099   8.020 -0.0449  0.0279 -0.3578
    1W        W32102  29.260  14.532   0.712 -0.3059 -0.3009 -0.0972
    1W        W32103  13.030  21.685   8.437 -0.1129  0.4467  0.1132
    1W        W32104  25.642  29.247   1.587 -0.3029  0.1042  0.2539
    1W        W32105  25.721  20.516   7.512  0.0479 -0.1061  0.0372
    1W        W32106  18.438   4.858   9.235  0.0096  0.1365 -0.1354
    1W        W32107  16.741   5.443   7.359  0.0468 -0.1044 -0.0670
    1W        W32108  16.843   3.612   9.137 -0.1215 -0.0035  0.0710
    1W        W32109   4.481   5.654   1.960  0.1323 -0.0080  0.4654
    1W        W32110  29.154   8.306   3.146  0.1451  0.1101  0.0778
    1W        W32111   1.372   3.898   8.901 -0.1400  0.1969 -0.1314
    1W        W32112   6.075   5.951   2.582 -0.1820 -0.1140 -0.1195
    1W        W32113  14.233  20.470   2.516  0.2250  0.0699 -0.4609
    1W        W32114   7.819  18.915   0.443 -0.1149 -0.0107  0.0577
    1W        W32115  10.536  19.968   7.133 -0.3621 -0.0262 -0.0913
    1W        W32116  11.482  28.630   8.160  0.0545  0.0742 -0.2089
    1W        W32117  23.775   0.383   7.499  0.0675  0.1023 -0.0765
    1W        W32118  26.644  18.138   9.514 -0.1288 -0.0437 -0.3307
    1W        W32119  28.087  20.478   0.592  0.0419  0.1949 -0.0052
    1W        W32120  20.559   7.515   3.425  0.1145 -0.0514  0.0866
    1W        W32121  10.599  12.324   1.665 -0.1767  0.0820 -0.2993
    1W        W32122  25.575  13.498   7.837 -0.1816  0.0414 -0.3228
    1W        W32123  24.987  16.903   8.506 -0.1070 -0.1166 -0.2507
    1W        W32124   6.260   6.299   8.200  0.1821 -0.2102 -0.1207
    1W        W32125   5.780   0.378   1.966 -0.1338 -0.0094  0.2850
    1W        W32126  18.200   2.529   3.369 -0.0827 -0.0825  0.0332
    1W        W32127  16.614  23.758   7.787  0.4118  0.1244  0.3368
    1W        W32128  24.228  29.713   0.295 -0.3047  0.2371  0.0457
    1W        W32129  16.725   2.681   2.458 -0.0569  0.2554  0.2250
    1W        W32130  19.202  21.621   7.783  0.2245  0.0156 -0.0997
    1W        W32131   6.251  12.049   8.407 -0.1610  0.1113  0.2033
    1W        W32132  10.278   1.215   9.482  0.1688 -0.1834  0.0616
    1W        W32133  26.734   5.603   7.222  0.2392 -0.0124 -0.4568
    1W        W32134  27.758  23.559   1.725 -0.1526 -0.2596 -0.1980
    1W        W32135  27.827   7.561   7.444 -0.2237  0.1498 -0.2083
    1W        W32136  25.325  11.216   0.151  0.0170  0.0480  0.1639
    1W        W32137   3.191  10.109   2.626  0.0763  0.0057  0.1563
    1W        W32138  27.464  20.452   0.010 -0.1010 -0.1262  0.1955
    1W        W32139  14.862   6.824   2.103  0.0659  0.1082  0.1068
    1W        W32140  25.632   1.710   2.576 -0.0053 -0.0284  0.3109
    1W        W32141   4.617   9.654   8.773  0.0307 -0.0929 -0.1458
    1W        W32142  11.525   8.120   2.711 -0.1913  0.2168  0.1891
    1W        W32143  11.725   7.499   1.139  0.3098 -0.2900  0.0234
    1W        W32144   4.277  26.912   3.529  0.1360 -0.3048 -0.0038
    1W        W32145  17.759  21.145   7.993  0.1496 -0.1514  0.0288
    1W        W32146  16.642  24.990   9.197 -0.0172  0.1426 -0.0853
    1W        W32147   6.492  27.379   7.370 -0.1530  0.0509  0.0985
    1W        W32148  29.081   0.776   1.180 -0.0878  0.2558  0.2786
    1W        W32149   9.152  15.343   6.768 -0.2011  0.1725  0.2621
    1W        W32150  12.321  29.725   1.184 -0.0039  0.0097  0.1452
    1W        W32151  24.802  29.430   9.014  0.0913 -0.2500  0.3052
    1W        W32152  19.116  27.259   7.525  0.2429 -0.0768  0.0255
    1W        W32153  24.107  20.594   2.007  0.1576  0.2712  0.0166
    1W        W32154  26.032  22.609   7.802  0.1589 -0.2513  0.1502
    1W        W32155  25.052  21.260   8.000  0.0029  0.4472  0.0823
    1W        W32156  15.474  10.833   3.090 -0.0688  0.1941 -0.1164
    1W        W32157  23.566  15.282   5.719 -0.0920 -0.1724  0.1610
    1W        W32158   5.497   2.004   7.440  0.0664  0.1628  0.4293
    1W        W32159  15.970  22.793   8.985 -0.0255  0.1158  0.1608
    1W        W32160  14.902  10.543   8.296  0.1688  0.1860  0.0291
    1W        W32161  15.213  18.678   1.308 -0.1287  0.1663  0.2776
    1W        W32162  26.357   3.642   0.914 -0.1687  0.1627 -0.0551
    1W        W32163  19.387  11.993   7.758 -0.0834 -0.2704 -0.2324
    1W        W32164  21.386  26.176   1.492 -0.1313 -0.1459 -0.0392
    1W        W32165  18.702   9.406   0.604 -0.4586 -0.2218  0.1272
    1W        W32166   8.921   3.872   9.078  0.0714  0.1607  0.2757
    1W        W32167  13.382  24.193   7.949  0.0751  0.2763 -0.2065
    1W        W32168   3.823   3.619   2.471 -0.0985  0.2158  0.2382
    1W        W32169   3.186  18.969   1.426 -0.1191 -0.2396  0.0345
    1W        W32170  29.327  26.058   3.315  0.2339 -0.0325 -0.0036
    1W        W32171  11.064   2.944   8.169 -0.3567  0.1059 -0.1977
    1W        W32172  12.640   7.156   6.581  0.0243  0.0846 -0.1040
    1W        W32173  20.173  21.799   1.226  0.1906 -0.0830 -0.0852
    1W        W32174   0.984  28.240   3.020  0.1731 -0.2912  0.1108
    1W        W32175   5.029   1.456   1.007  0.3075 -0.1766 -0.1503
    1W        W32176   4.977   9.965   1.011 -0.0262 -0.1385 -0.0034
    1W        W32177  17.951   1.235   8.916  0.0002  0.1418  0.0870
    1W        W32178  25.649  24.055   6.508  0.0032  0.1658  0.0649
    1W        W32179  27.284  29.252   8.610 -0.0157  0.1051  0.0336
    1W        W32180  26.980  25.604   2.504 -0.1072 -0.0752 -0.1561
    1W        W32181  13.893  10.315   0.340  0.2033 -0.0289  0.0806
    1W        W32182  21.398  26.140   2.537  0.2771 -0.0653  0.0787
    1W        W32183   4.813  13.440   0.958 -0.1372 -0.1879 -0.1988
    1W        W32184  27.292  12.437   0.313  0.1015 -0.0589  0.1058
    1W        W32185  13.092   6.775   7.269 -0.1234  0.1513  0.1086
    1W        W32186   0.579   7.659   2.096  0.0172 -0.1131 -0.3288
    1W        W32187  16.993  24.127   2.978  0.1018  0.0513  0.0195
    1W        W32188  25.908   4.011   3.196  0.0879 -0.0124  0.1166
    1W        W32189  12.477  23.518   8.500  0.1017 -0.2501 -0.5763
    1W        W32190   3.414  17.626   1.783  0.0596 -0.1595 -0.1979
    1W        W32191  11.685  12.664   2.617 -0.0756 -0.5469  0.1647
    1W        W32192  16.759  19.192   6.352  0.1608  0.1551 -0.0119
    1W        W32193   3.825   9.604   1.357 -0.1022 -0.0350 -0.1665
    1W        W32194  22.391  20.924   5.445 -0.2183 -0.0575 -0.0508
    1W        W32195  15.754  28.497   3.255  0.0331  0.2634  0.1036
    1W        W32196  24.752  28.550   9.233  0.2515  0.1726 -0.1169
    1W        W32197  29.476   7.138   7.282 -0.1678  0.0289 -0.0656
    1W        W32198  28.153  14.607   1.102  0.0311  0.2857 -0.0451
    1W        W32199  24.621  23.110   1.034  0.2689  0.0760 -0.3034
    1W        W32200   4.762  18.771   1.501 -0.0318  0.0659  0.1126
    1W        W32201   1.276  23.429   9.077 -0.3102  0.1204  0.0851
    1W        W32202   5.936   3.705   8.852  0.0937 -0.3361  0.0981
    1W        W32203  20.658   3.953   2.258 -0.1224  0.0933 -0.0346
    1W        W32204   9.234  10.228   7.710  0.1785 -0.4590 -0.0816
    1W        W32205   8.312   4.783   8.542 -0.0508 -0.0347  0.2240
    1W        W32206  20.187  24.860   8.165  0.3714 -0.2829 -0.3498
    1W        W32207  17.073  20.070   9.417  0.0562  0.1120 -0.0442
    1W        W32208  16.389  16.373   1.737  0.2274 -0.0056 -0.1101
    1W        W32209   4.446   4.378   7.821  0.2058  0.0376 -0.0023
    1W        W32210   2.917  16.164   1.403  0.1858  0.0469 -0.2286
    1W        W32211  19.797  15.021   0.022  0.0154 -0.2851  0.0685
    1W        W32212   9.935   3.561   0.844 -0.1278  0.1027 -0.0837
    1W        W32213  18.421   2.260   7.701  0.3631 -0.1843  0.0997
    1W        W32214  25.289  17.730   7.375 -0.0961 -0.3610  0.2978
    1W        W32215   9.645  24.463   9.303 -0.0664 -0.0107  0.1758
    1W        W32216   5.758  15.489   7.502 -0.0517 -0.0004  0.4222
    1W        W32217  24.929   1.589   8.191 -0.0314 -0.1597 -0.0877
    1W        W32218   2.022  13.788   0.265  0.0133 -0.2284  0.0774
    1W        W32219  17.755  11.828   0.235  0.2400 -0.1139  0.2015
    1W        W32220  22.229   2.404   7.887 -0.0494 -0.0258  0.0587
    1W        W32221  20.710  24.799   8.431 -0.1725  0.0004  0.0244
    1W        W32222  24.889  13.875   9.252 -0.0346  0.0736 -0.2163
    1W        W32223  14.121  25.406   0.444 -0.1132 -0.2102 -0.0634
    1W        W32224  17.090  26.078   8.623 -0.0595 -0.2060 -0.0001
    1W        W32225   1.760   9.882   8.232  0.0526  0.0135  0.1565
    1W        W32226  14.029  25.282   1.291 -0.0291  0.0928  0.2631
    1W        W32227   8.197  16.132   7.154  0.3296 -0.0022  0.0050
    1W        W32228  18.257  25.943   1.274  0.1992  0.0182 -0.1003
    1W        W32229  15.202   5.028   3.070 -0.0796 -0.1037  0.1241
    1W        W32230   9.213   4.077   1.489 -0.0807 -0.1259  0.3729
    1W        W32231  21.154  27.281   1.142  0.2878  0.0997 -0.1091
    1W        W32232  14.151  10.581   0.803 -0.2758  0.0293  0.2197
    1W        W32233   1.136  16.224   7.806  0.0913  0.3705 -0.0269
    1W        W32234  27.125  22.075   1.259 -0.2701  0.1333  0.0060
    1W        W32235   9.620  24.345   7.926 -0.1420  0.2079 -0.1726
    1W        W32236  13.212   4.365   0.472 -0.2109 -0.0947  0.0010
    1W        W32237  17.112  21.961   8.021  0.2252 -0.1665 -0.4279
    1W        W32238   8.551   8.075   1.977 -0.0351  0.4413  0.1644
    1W        W32239   5.711   4.697   2.277  0.0308 -0.0803 -0.0018
    1W        W32240  16.609  29.151   7.967 -0.0651  0.0812  0.0763
    1W        W32241  27.476   9.135   1.451 -0.0918  0.2521  0.2632
    1W        W32242   3.318  26.507   2.670  0.1072 -0.1117 -0.0014
    1W        W32243  19.094  22.376   2.954  0.1653  0.0961  0.2825
    1W        W32244  20.575   4.727   3.069 -0.4402 -0.1333  0.0548
    1W        W32245  22.494   6.951   2.230 -0.1402 -0.0374 -0.0944
    1W        W32246   0.934  24.812   1.550  0.1280 -0.0398  0.0919
    1W        W32247  22.267   7.190   7.573 -0.0237 -0.1195 -0.2079
    1W        W32248   1.988   5.401   7.817  0.2318  0.0164 -0.1970
    1W        W32249  24.543  29.434   7.541 -0.2556 -0.2122  0.3544
    1W        W32250   9.616   6.764   7.634 -0.1876  0.0480  0.2962
    1W        W32251  21.093  26.531   2.688 -0.2468  0.0826 -0.3190
    1W        W32252  10.297  28.739   3.103 -0.0694  0.1401 -0.2508
    1W        W32253   7.912  24.217   7.606 -0.3314 -0.0601 -0.0510
    1W        W32254   0.702  14.331   7.571 -0.1578 -0.2039 -0.0531
    1W        W32255  18.554  23.226   9.460  0.0637  0.0744  0.2229
    1W        W32256   9.355  21.502   9.114  0.2259 -0.0194 -0.2543
    1W        W32257  25.545  15.276   6.722 -0.3264 -0.3767  0.2926
    1W        W32258  29.332  18.532   1.209 -0.2087  0.1868 -0.1814
    1W        W32259  10.926  23.796   0.695  0.0107  0.1740  0.2143
    1W        W32260  29.074   2.188   7.591 -0.0396  0.2892 -0.1484
    1W        W32261  11.461   8.428   8.501 -0.0366 -0.0434 -0.1642
    1W        W32262  12.350  11.831   2.522  0.1396  0.1947 -0.1374
    1W        W32263   3.133  21.517   0.184 -0.1765 -0.0467  0.0626
    1W        W32264  19.131  23.398   8.102 -0.1453 -0.0738  0.1171
    1W        W32265  20.989   3.569   0.342  0.1274 -0.1696 -0.1170
    1W        W32266  28.191  18.764   6.663  0.2938  0.0370  0.0251
    1W        W32267   7.791  18.894   8.434 -0.0849  0.0137  0.0158
    1W        W32268  10.547  21.775   1.434 -0.2879 -0.2719 -0.3717
    1W        W32269  15.963  24.026   8.526  0.1593 -0.1190  0.1250
    1W        W32270  11.027  24.910   1.264  0.0876  0.2238 -0.1157
    1W        W32271  21.829  25.063   0.595 -0.1081 -0.0746 -0.2001
    1W        W32272  12.525   8.565   1.793  0.2822  0.1215  0.0644
    1W        W32273  14.975  24.779   2.864 -0.0719 -0.4068  0.0114
    1W        W32274   6.250   8.424   3.335  0.0015 -0.2786 -0.0502
    1W        W32275   3.993  28.251   2.276  0.1182 -0.1252 -0.1681
    1W        W32276   2.425   1.017   9.531 -0.1373  0.3269 -0.1866
    1W        W32277  17.880   0.661   0.739  0.0853 -0.0581  0.1745
    1W        W32278  13.217  16.382   1.748 -0.0151  0.1446 -0.0479
    1W        W32279   4.233  27.469   6.657 -0.1957  0.0406  0.0705
    1W        W32280   8.765  26.662   8.856  0.1733 -0.5255 -0.1140
    1W        W32281  24.298   6.769   2.816 -0.1585 -0.2890 -0.4386
    1W        W32282  15.064  16.687   6.745  0.1045 -0.2215 -0.2096
    1W        W32283  17.644   4.868   8.764  0.0078  0.3805 -0.1324
    1W        W32284  24.746  13.559   1.065 -0.3779 -0.0515 -0.0668
    1W        W32285   9.370   6.980   1.998  0.1568  0.0123 -0.1567
    1W        W32286   5.086  18.235   8.432 -0.1835 -0.0079  0.3133
    1W        W32287  11.139   7.937   8.786 -0.2990 -0.0001  0.0141
    1W        W32288   5.303  14.733   0.140  0.0771 -0.0632  0.1288
    1W        W32289   0.942   9.394   7.337 -0.0210 -0.0348  0.0939
    1W        W32290   9.407   0.835   9.345 -0.2117 -0.0494 -0.4718
    1W        W32291   9.759  17.019   0.551 -0.1491  0.1773  0.0056
    1W        W32292  12.879  12.466   2.285 -0.0217 -0.2883 -0.2638
    1W        W32293  17.361   1.567   1.552 -0.2646  0.4979 -0.0902
    1W        W32294   3.304  21.150   9.446 -0.1282 -0.1701  0.1754
    1W        W32295   8.081  22.900   1.026 -0.0753 -0.1263  0.2277
    1W        W32296   2.976  23.019   0.452 -0.2997 -0.2786  0.1167
    1W        W32297  25.546  23.407   0.934  0.0610 -0.2638 -0.1380
    1W        W32298  10.076   3.360   9.055 -0.0014  0.4120  0.4146
    1W        W32299  24.177   4.369   0.947 -0.0731  0.1351  0.1487
    1W        W32300  16.587  16.658   3.267  0.4365  0.1606  0.3178
    1W        W32301  25.792  23.009   0.928  0.0443 -0.2395  0.0282
    1W        W32302  10.695  11.045   9.483 -0.0348  0.0297  0.0468
    1W        W32303  15.011  12.573   1.984  0.1506  0.2446  0.0516
    1W        W32304  26.439  28.740   8.408 -0.1395 -0.0000 -0.0555
    1W        W32305  21.634   3.023   1.804 -0.0084  0.1666  0.0839
    1W        W32306  28.016   2.941   7.203  0.2142  0.0558 -0.0755
    1W        W32307   3.234  13.319   1.110 -0.0757 -0.0963  0.0412
    1W        W32308  17.656   1.253   7.184  0.1510  0.1261  0.3879
    1W        W32309   6.684  24.812   0.743  0.0516 -0.1582 -0.1651
    1W        W32310   2.839   2.592   0.910 -0.0077 -0.1650 -0.0511
    1W        W32311   5.368  27.745   1.036 -0.1214 -0.1337 -0.2897
    1W        W32312  20.514   8.220   1.800 -0.1373  0.1371  0.0961
    1W        W32313  25.100   7.152   1.151  0.0377 -0.0953  0.1470
    1W        W32314   8.560  10.082   8.273  0.0341 -0.0565 -0.0538
    1W        W32315   0.441  24.524   7.049  0.1803 -0.0394  0.0850
    1W        W32316  21.060  21.256   6.765  0.2557 -0.0213 -0.1926
    1W        W32317  14.436  22.099   7.927 -0.0820  0.1776 -0.1070
    1W        W32318  20.233  21.313   6.196 -0.0078 -0.1514  0.1302
    1W        W32319   9.849  26.090   1.396  0.0724  0.0632  0.0631
    1W        W32320   7.131   1.316   8.422 -0.2262 -0.0823 -0.0421
    1W        W32321   0.699  10.783   7.334 -0.1049  0.1314  0.0473
    1W        W32322   4.498  23.431   1.993  0.1016 -0.0684  0.0222
    1W        W32323  14.309  20.816   0.226  0.1657 -0.0150  0.0186
    1W        W32324  22.524  19.792   7.214  0.2631  0.2177  0.1401
    1W        W32325   3.093   5.331   9.409 -0.1747 -0.0029 -0.0652
    1W        W32326  15.426   3.873   3.053 -0.0903 -0.0489  0.4972
    1W        W32327   4.931  12.566   2.190 -0.2392  0.3043  0.2317
    1W        W32328  13.508   2.953   8.163  0.6028 -0.2500  0.0983
    1W        W32329  11.568  27.692   1.247 -0.2291  0.0345  0.2590
    1W        W32330  26.990  11.294   1.682 -0.1341  0.1025  0.0339
    1W        W32331  26.157  22.141   1.044  0.0205  0.1408  0.3036
    1W        W32332   7.065   2.249   0.475 -0.1115  0.2730 -0.4440
    1W        W32333   5.361  23.686   0.293  0.1046 -0.0651 -0.2106
    1W        W32334  22.419   7.472   0.282 -0.3254  0.3532  0.2802
    1W        W32335  15.279   3.970   7.305 -0.1579 -0.1054  0.0733
    1W        W32336  25.057  28.902   0.933 -0.0878  0.0183 -0.0025
    1W        W32337   8.457   2.479   1.532 -0.0938  0.0722  0.0802
    1W        W32338  19.400  10.101   9.452 -0.3038 -0.0879  0.1525
    1W        W32339  24.041  29.739   8.355  0.1725 -0.2220  0.2012
    1W        W32340  20.778   5.597   7.350 -0.2628 -0.3233  0.1764
    1W        W32341  27.550  19.338   1.355 -0.0633 -0.0824  0.1823
    1W        W32342   7.030  23.098   9.526 -0.0263  0.2740  0.0153
    1W        W32343  20.392  12.937   7.079 -0.2346  0.2435 -0.1302
    1W        W32344  18.946  17.892   8.254  0.0275 -0.1586 -0.3713
    1W        W32345   0.897   8.306   1.467  0.2646 -0.0580  0.0580
    1W        W32346  20.254  16.552   1.468  0.0135 -0.2462 -0.2301
    1W        W32347   4.726  23.230   8.027  0.1856 -0.3490  0.3218
    1W        W32348  19.611  10.559   7.945 -0.0154 -0.3376 -0.1390
    1W        W32349   9.567   1.253   3.413  0.1648 -0.2079  0.0830
    1W        W32350  18.553  19.183   1.484  0.2592 -0.1803 -0.3127
    1W        W32351  16.638   5.506   1.357  0.0703 -0.2664  0.1104
    1W        W32352  28.289  20.258   1.740 -0.1557 -0.0218 -0.1871
    1W        W32353  16.550  25.611   2.885  0.3436 -0.0214  0.2914
    1W        W32354  15.160  12.661   1.421 -0.2341 -0.0139  0.3430
    1W        W32355  12.176  22.557   1.962 -0.0042  0.1190  0.3224
    1W        W32356   9.984  22.101   7.867  0.1489  0.0649 -0.0299
    1W        W32357  15.728   7.855   3.047 -0.1764  0.0591 -0.3007
    1W        W32358  17.744  25.789   2.005 -0.0253  0.0044 -0.1407
    1W        W32359   0.398   1.987   1.875  0.0081  0.0388 -0.0188
    1W        W32360  18.844  27.133   8.440 -0.1377  0.0420 -0.3072
    1W        W32361  24.535  19.930   7.636  0.2075 -0.3107  0.0055
    1W        W32362  26.151  21.857   6.110 -0.0219 -0.2106 -0.2611
    1W        W32363   0.191  22.796   2.022  0.4025 -0.0170  0.2633
    1W        W32364  10.188  21.129   9.329  0.0233 -0.0868 -0.0945
    1W        W32365  15.142  11.311   6.690  0.0737  0.3912 -0.0877
    1W        W32366  19.136  18.978   1.397  0.1766 -0.1046 -0.2017
    1W        W32367   4.660   6.857   0.130  0.2025 -0.0573  0.4316
    1W        W32368  28.675   6.392   0.192 -0.1481  0.1896  0.1843
    1W        W32369  20.205   8.231   8.106  0.3171 -0.2594  0.2219
    1W        W32370  27.440  10.595   0.661  0.0780  0.0244 -0.2015
    1W        W32371  21.557   5.235   2.469  0.3362 -0.1341 -0.0194
    1W        W32372  17.281   1.091   0.755  0.2007  0.1379 -0.1823
    1W        W32373  27.250  29.165   9.106  0.0367  0.1184 -0.3394
    1W        W32374  11.692  25.890   7.607  0.0459 -0.1400 -0.1108
    1W        W32375   1.206   7.331   2.615  0.2027 -0.2155 -0.1603
    1W        W32376  24.596  22.998   1.518  0.0776 -0.1130  0.1670
    1W        W32377  16.019  10.387   7.049 -0.1551 -0.2034  0.0071
    1W        W32378  25.733  10.214   7.461 -0.2182 -0.0280 -0.0675
    1W        W32379  28.955   9.860   9.151  0.1697  0.2142 -0.2363
    1W        W32380  21.431   9.496   7.691 -0.1828  0.0859 -0.1444
    1W        W32381  28.611  19.411   1.204 -0.0893  0.1002  0.1694
    1W        W32382  21.943  28.203   3.086 -0.1638  0.0504  0.0461
    1W        W32383  12.186   9.920   8.467  0.2213 -0.0864 -0.0476
    1W        W32384   9.632   3.852   1.145 -0.1346  0.2753  0.1549
    1W        W32385  20.723  29.191   1.936 -0.2262  0.2452  0.2210
    1W        W32386  13.117  10.593   3.011 -0.1589 -0.2672 -0.2491
    1W        W32387  23.045   0.754   7.384  0.0701 -0.0443 -0.2090
    1W        W32388  19.302   1.067   8.840 -0.1809  0.0330  0.0105
    1W        W32389   3.175   8.399   6.748 -0.0422  0.0417 -0.1169
    1W        W32390  15.889  17.256   8.628  0.1295 -0.3145 -0.0990
    1W        W32391   4.851   5.884   0.562  0.0606 -0.1160  0.0401
    1W        W32392  12.254   0.784   0.734  0.0170  0.2985  0.0989
    1W        W32393  16.596  29.718   8.778 -0.0649  0.0470  0.2044
    1W        W32394  11.469   1.143   8.074  0.1577 -0.0714  0.0223
    1W        W32395   7.324   9.371   7.678 -0.3356  0.2063  0.2139
    1W        W32396   4.499   6.763   2.093 -0.1263 -0.0592 -0.1777
    1W        W32397   5.937   1.156   2.513  0.0859 -0.0873  0.3252
    1W        W32398  27.343  20.350   9.038 -0.0532 -0.2052 -0.1176
    1W        W32399  28.935  25.823   8.544 -0.2918 -0.1697  0.0754
    1W        W32400  23.556  21.059   7.996  0.0306 -0.1496 -0.0686
    1W        W32401  19.264  16.383   8.367 -0.3967  0.2298 -0.0940
    1W        W32402  22.504   0.543   7.966 -0.0437 -0.1634 -0.1078
    1W        W32403  19.315   8.274   7.664 -0.3273  0.2112 -0.3051
    1W        W32404  27.976  19.591   0.581  0.0012  0.3883 -0.0069
    1W        W32405  25.262   2.667   9.100  0.0816 -0.3488  0.0476
    1W        W32406  13.862  22.222   0.347 -0.0681  0.2990 -0.1155
    1W        W32407  19.937  10.954   9.248  0.1100  0.2516 -0.2266
    1W        W32408  27.493  26.089   1.255 -0.0174 -0.0834  0.0082
    1W        W32409   5.616   4.848   2.989  0.2467  0.1761  0.0820
    1W        W32410  14.054  23.331   7.560 -0.2368 -0.0848  0.2281
    1W        W32411  21.644   7.627   2.403  0.1419  0.0904 -0.1746
    1W        W32412  26.284   3.010   1.696 -0.0598 -0.0788  0.0391
    1W        W32413  24.724  10.520   0.061 -0.0264  0.2018 -0.0006
    1W        W32414  12.919  10.783   2.115 -0.0621 -0.0258 -0.0936
    1W        W32415  14.190  24.494   1.791 -0.0249  0.0611  0.0769
    1W        W32416   8.246  27.865   3.581  0.1334 -0.1626  0.1319
    1W        W32417   6.484  15.695   8.457  0.2536  0.0483  0.1165
    1W        W32418   2.121   7.808   7.831 -0.0746  0.0586  0.2472
    1W        W32419  20.491  14.974   5.691 -0.3512  0.0623  0.2041
    1W        W32420  17.327  11.610   0.063  0.0181 -0.3122 -0.3081
    1W        W32421   2.207  21.199   7.503 -0.1719  0.0044 -0.2278
    1W        W32422  24.480   9.620   7.870 -0.0043 -0.1269  0.3540
    1W        W32423  26.455  13.204   8.964  0.1106  0.2162  0.1095
    1W        W32424  27.750   5.390   0.412 -0.3439 -0.1487  0.2285
    1W        W32425   4.243   4.249   1.762  0.1074  0.0222 -0.1975
    1W        W32426  23.105  28.296   0.455 -0.1035  0.1110 -0.1725
    1W        W32427   4.360  24.861   8.394 -0.0807 -0.0996 -0.0209
    1W        W32428  21.462  22.221   6.825 -0.1127  0.1062 -0.0134
    1W        W32429  24.963   8.299   1.611 -0.2219  0.2229  0.2983
    1W        W32430  13.410  24.131   7.256  0.0161  0.1271 -0.1410
    1W        W32431   4.186  25.123   7.976 -0.3512 -0.0422 -0.0018
    1W        W32432  14.594  10.603   7.561  0.0228  0.3736 -0.3696
    1W        W32433  15.362   2.675   8.564  0.1575  0.1833 -0.2397
    1W        W32434  16.235   8.541   2.957 -0.0430  0.1334  0.0441
    1W        W32435  16.724  25.523   1.933 -0.1088 -0.1136 -0.1727
    1W        W32436   5.896  18.523   0.012 -0.3201 -0.0158  0.0863
    1W        W32437  27.216  14.233   9.549 -0.1500  0.1635 -0.1288
    1W        W32438  10.051  29.474   8.099  0.1467 -0.0843  0.0597
    1W        W32439  25.115   9.094   9.127  0.1462  0.2004 -0.2031
    1W        W32440  15.884   0.299   6.620 -0.2468 -0.1469  0.1842
    1W        W32441  20.093  20.044   6.399  0.2091 -0.0569 -0.1542
    1W        W32442   0.183  21.256   8.882  0.2297  0.1612 -0.0027
    1W        W32443   4.164  20.841   7.166 -0.4030 -0.0327  0.4310
    1W        W32444  17.383  24.424   7.441 -0.1529  0.0726  0.1978
    1W        W32445  12.299   0.529   9.317 -0.0840  0.4048  0.1489
    1W        W32446   6.339  29.174   6.229  0.2047 -0.0095 -0.2502
    1W        W32447  28.415   6.431   7.197  0.0381  0.2589  0.1375
    1W        W32448  16.955   6.228   3.066 -0.1662 -0.0447  0.0621
    1W        W32449  23.366  29.356   7.489 -0.0287  0.1514 -0.0059
    1W        W32450   2.618  14.076   9.095 -0.1372  0.0444 -0.1086
    1W        W32451   2.839  20.322   9.339  0.0331  0.0437 -0.3291
    1W        W32452   0.875  19.095   1.484  0.0934  0.1763  0.0580
    1W        W32453   3.498  15.686   1.886  0.2392  0.1991 -0.1961
    1W        W32454  15.266   2.443   6.443  0.1324 -0.0351  0.3508
    1W        W32455   5.267  10.187   2.439 -0.0201 -0.3983 -0.1110
    1W        W32456  18.312   3.739   1.968 -0.2176  0.1159  0.2641
    1W        W32457  28.597   9.186   1.334  0.1708  0.1174 -0.1861
    1W        W32458  26.700  29.424   1.910  0.4763  0.0511  0.0175
    1W        W32459   1.893   0.927   1.189  0.2468  0.2440  0.2357
    1W        W32460  28.774  13.245   8.093 -0.0051 -0.2825 -0.1925
    1W        W32461  14.455  11.284   2.031  0.2826  0.1021  0.2986
    1W        W32462  27.671  12.448   2.246  0.1591  0.1908 -0.0485
    1W        W32463  25.075   4.528   7.076  0.0146  0.1112  0.0627
    1W        W32464  13.099   1.788   9.226 -0.2246 -0.3043 -0.1975
    1W        W32465  20.666  22.697   0.268  0.0499 -0.1306 -0.0062
    1W        W32466   2.342  19.425   0.372 -0.1085  0.2355 -0.0828
    1W        W32467  28.136   9.630   8.398  0.2398  0.3204 -0.1872
    1W        W32468   0.535   1.274   1.391 -0.0134  0.2982  0.0135
    1W        W32469  14.074  10.297   9.024 -0.1096 -0.5027  0.0757
    1W        W32470  15.614  26.678   7.472 -0.0557 -0.0426 -0.0551
    1W        W32471   9.925  28.180   8.862  0.1811 -0.0294  0.0221
    1W        W32472  14.480   1.807   8.930 -0.0777 -0.2235 -0.2136
    1W        W32473   5.128  28.305   7.920  0.1127 -0.1157  0.0809
    1W        W32474  19.701   0.928   2.024 -0.2056  0.1797 -0.0135
    1W        W32475   5.821  27.287   2.409  0.2252  0.4112  0.3644
    1W        W32476  28.261  24.270   1.279 -0.1562  0.0636 -0.2542
    1W        W32477   2.354  20.261   1.243  0.1556 -0.0417 -0.0333
    1W        W32478  10.780  21.926   9.256 -0.0569 -0.0369 -0.0510
    1W        W32479  26.023   4.041   2.702  0.0552 -0.0767 -0.1491
    1W        W32480  17.548   8.297   2.382  0.0550  0.0368  0.1510
    1W        W32481  16.272  23.603   7.441  0.0962  0.0599  0.0900
    1W        W32482  18.291  18.592   0.613 -0.0551  0.1042 -0.1428
    1W        W32483   7.646  28.254   7.321  0.2009  0.0789  0.2144
    1W        W32484   7.926  10.939   1.441 -0.0781 -0.1243  0.0060
    1W        W32485  15.740  13.747   7.496 -0.0817 -0.1607  0.0749
    1W        W32486  21.433   5.312   2.037  0.0578 -0.2998  0.1364
    1W        W32487   7.145  24.580   1.187  0.0645 -0.0407  0.0222
    1W        W32488   1.472   2.720   3.302 -0.0327 -0.0537  0.0911
    1W        W32489   7.775   2.814   1.624  0.0273 -0.0861  0.4049
    1W        W32490  28.570  10.744   0.073 -0.0456 -0.1437  0.1038
    1W        W32491  25.672   1.028   3.347  0.2361  0.3001  0.1017
    1W        W32492   0.236  21.835   6.560 -0.0968 -0.1957  0.0152
    1W        W32493  18.705   1.565   2.947  0.0990  0.3199  0.0271
    1W        W32494  27.165  10.600   7.907 -0.2132  0.0379 -0.0697
    1W        W32495  14.063   5.401   1.847 -0.2612 -0.4693 -0.0922
    1W        W32496  25.475   0.821   9.123 -0.1467 -0.1105 -0.3147
    1W        W32497  13.183  15.066   1.969 -0.1856  0.1530 -0.2117
    1W        W32498   3.932  24.655   2.684 -0.1717  0.0675  0.2148
    1W        W32499  10.968  12.941   9.031  0.0554 -0.1159 -0.0865
    1W        W32500  21.815   9.431   0.732 -0.1469 -0.0306  0.0293
    1W        W32501   7.004  21.618   7.369  0.0751  0.0327 -0.0684
    1W        W32502   3.940  21.828   2.192 -0.0311  0.0452 -0.1047
    1W        W32503   1.697  26.837   8.988 -0.1672 -0.1279  0.0638
    1W        W32504  22.619  26.035   8.628  0.0988  0.4428  0.3394
    1W        W32505  10.017   2.578   3.329  0.0153  0.2060 -0.3143
    1W        W32506   8.710  29.291   0.241 -0.0970 -0.0373 -0.0043
    1W        W32507  18.484  17.440   7.979  0.0265  0.0829 -0.3394
    1W        W32508  27.282  24.661   8.702  0.3914 -0.2184 -0.1834
    1W        W32509  18.993  11.502   7.117 -0.1833 -0.3116  0.2148
    1W        W32510  13.335   4.774   0.887 -0.2018  0.2380 -0.0136
    1W        W32511  21.089  14.610   1.100  0.4976  0.2155 -0.0618
    1W        W32512   6.764   6.111   1.179  0.0645  0.1775 -0.2204
    1W        W32513  18.618   1.377   2.471 -0.1986  0.0282 -0.0027
    1W        W32514   3.249   2.341   7.908  0.1139  0.2034 -0.0585
    1W        W32515  26.163   9.070   6.937 -0.2850 -0.1908 -0.1197
    1W        W32516   3.613   4.353   1.236 -0.0171 -0.0692  0.1513
    1W        W32517   9.112   7.194   9.519  0.1900  0.0910  0.1189
    1W        W32518  16.886  29.077   6.916 -0.1540 -0.4559 -0.2028
    1W        W32519  10.720  22.291   8.280 -0.1185  0.2261 -0.2358
    1W        W32520   2.816   3.952   0.878  0.1028  0.0076  0.0091
    1W        W32521   3.433  13.189   1.881 -0.4153  0.3666 -0.2472
    1W        W32522  14.032  24.977   0.761 -0.1744  0.3021 -0.0609
    1W        W32523  25.924  23.322   1.905 -0.1674  0.1096  0.1464
    1W        W32524  25.876  12.061   0.726  0.1245  0.0048  0.2234
    1W        W32525  12.074  26.607   0.335 -0.0713  0.0653  0.3643
    1W        W32526  20.819  14.964   0.293  0.2478 -0.0563 -0.1309
    1W        W32527  23.055  21.923   6.892  0.2032 -0.1941 -0.0388
    1W        W32528  22.112   5.929   9.008 -0.1259 -0.4242 -0.2155
    1W        W32529   2.291   0.040   7.101  0.0213 -0.1432  0.1817
    1W        W32530   5.393  21.713   8.769  0.1850  0.0730 -0.0315
    1W        W32531  22.173  20.824   6.838  0.1094 -0.0456  0.2107
    1W        W32532  20.225  19.319   7.067  0.1059 -0.2722 -0.0171
    1W        W32533   0.162  17.035   8.591 -0.0223  0.0652 -0.0705
    1W        W32534   9.756   8.009   2.209 -0.0015 -0.0402 -0.4623
    1W        W32535  24.978  15.408   6.653 -0.3355 -0.1669 -0.0854
    1W        W32536   8.966  25.158   1.973 -0.2326 -0.0463  0.0786
    1W        W32537  16.764  16.675   0.629  0.0333 -0.1619  0.0546
    1W        W32538  18.165  20.243   7.620 -0.4299 -0.2441  0.1688
    1W        W32539   3.360   1.367   6.468  0.1730  0.0617 -0.0281
    1W        W32540  12.319  28.685   0.898 -0.2746  0.1029 -0.0152
    1W        W32541  11.873  11.672   8.638 -0.0641 -0.0365 -0.1852
    1W        W32542  21.933   9.653   2.432  0.0570  0.0909 -0.2200
    1W        W32543  14.194  24.506   9.260  0.0980  0.2634  0.0798
    1W        W32544   2.747   0.285   2.145  0.2427 -0.2132  0.0532
    1W        W32545  10.095  10.155   1.477 -0.1366  0.1789 -0.0297
    1W        W32546  17.983  22.944   0.105  0.1177  0.0175  0.1584
    1W        W32547   1.525  28.685   1.988  0.0075 -0.1692  0.1652
    1W        W32548  10.408  11.982   0.877  0.0224 -0.1253 -0.1718
    1W        W32549  29.676  29.145   8.902 -0.0170  0.2332 -0.0753
    1W        W32550  16.488  14.089   2.574  0.0277 -0.2660  0.0544
    1W        W32551  26.872  24.667   8.310 -0.0627 -0.1363  0.0927
    1W        W32552   5.745   8.980   2.083 -0.0138 -0.0854 -0.2820
    1W        W32553  21.814  23.906   7.117 -0.5046 -0.0947 -0.1826
    1W        W32554  21.262  10.520   0.821 -0.0754  0.0897  0.0491
    1W        W32555  17.390  12.042   7.687 -0.0578  0.1301  0.1146
    1W        W32556  22.401  22.712   1.593  0.4048  0.1502  0.1988
    1W        W32557  27.985  24.125   7.911 -0.0757 -0.1853  0.2141
    1W        W32558   9.022   3.090   0.841  0.0734  0.1094  0.3659
    1W        W32559  14.173   0.642   0.294  0.1704 -0.4202 -0.1536
    1W        W32560   4.315   6.680   3.172 -0.0221 -0.0235 -0.0459
    1W        W32561   7.422  22.424   7.343  0.0878 -0.2887  0.4359
    1W        W32562   6.853  11.143   1.964  0.1991  0.0682  0.1396
    1W        W32563  19.903  29.064   2.095  0.3863  0.1660 -0.0931
    1W        W32564   4.509   4.641   2.008  0.0327 -0.3063  0.0561
    1W        W32565  11.000  13.627   0.656  0.0756 -0.2036  0.1603
    1W        W32566   8.453   9.669   8.478 -0.0385  0.0835 -0.3327
    1W        W32567   4.857  29.198   9.216 -0.1164  0.5864  0.1270
    1W        W32568  27.664  19.129   5.954  0.0842 -0.5153 -0.1177
    1W        W32569  10.593  20.857   7.661  0.1771 -0.0674 -0.2968
    1W        W32570  20.705   1.438   3.090 -0.2390  0.0357 -0.1158
    1W        W32571  25.419  15.664   5.831 -0.1551  0.0135 -0.1510
    1W        W32572   7.189   3.444   9.253  0.0862  0.1177 -0.4323
    1W        W32573  29.260  17.167   7.985  0.3451  0.1238  0.1606
    1W        W32574  25.237  11.984   1.570 -0.2888 -0.0302 -0.1262
    1W        W32575  17.124  15.405   0.653 -0.0918  0.1044 -0.3102
    1W        W32576   5.372  15.140   7.508 -0.1063  0.2397 -0.2626
    1W        W32577  19.484  12.171   1.699 -0.1544  0.1357  0.2962
    1W        W32578  12.704   8.327   7.910  0.0111 -0.0907  0.0723
    1W        W32579   1.312  10.593   7.974 -0.1296 -0.1722 -0.3212
    1W        W32580  11.865   1.564   0.513 -0.0507  0.1910  0.2014
    1W        W32581  13.874   7.488   7.428 -0.0308 -0.0881 -0.0600
    1W        W32582  21.997   4.330   8.763 -0.3766 -0.0566  0.1350
    1W        W32583  25.067  25.861   7.686 -0.0890  0.1210 -0.1416
    1W        W32584  21.174  19.097   8.024 -0.0807  0.0729  0.0893
    1W        W32585  25.279   8.308   9.299 -0.0118 -0.1713  0.0072
    1W        W32586   4.942  24.768   2.605  0.2141  0.2003  0.1859
    1W        W32587  29.337  27.228   0.052  0.4401  0.1180  0.1467
    1W        W32588   2.085   7.457   0.398  0.0284 -0.1902 -0.0331
    1W        W32589  27.389  17.716   7.322 -0.1599 -0.0737 -0.4328
    1W        W32590   3.634  13.080   7.513  0.1294 -0.1321 -0.0436
    1W        W32591  26.474   7.673   7.268  0.3536  0.0877  0.1600
    1W        W32592   5.000   8.123   8.878 -0.1017 -0.0576  0.3421
    1W        W32593  16.422  17.881   8.620  0.0609  0.4423 -0.1078
    1W        W32594  17.841  27.270   2.455 -0.0313  0.1698  0.2668
    1W        W32595   5.129  20.073   2.365  0.0166  0.0463 -0.1532
    1W        W32596  12.427  14.940   8.301 -0.2905 -0.0851  0.0674
    1W        W32597  20.194   1.051   2.101 -0.0716 -0.1841  0.1278
    1W        W32598  21.592  22.481   0.989  0.1143  0.0582  0.1121
    1W        W32599  17.314  17.001   2.259  0.2649  0.0200 -0.1392
    1W        W32600   2.669  24.253   7.562 -0.0505  0.0393  0.1026
    1W        W32601   9.185  14.289   7.253 -0.1078 -0.0099 -0.2286
    1W        W32602  22.111   6.717   2.437  0.0086  0.1419 -0.1058
    1W        W32603   5.796  23.907   6.386  0.1118 -0.0815  0.1311
    1W        W32604  19.690   9.440   0.669 -0.1957  0.0370  0.0879
    1W        W32605  26.827   1.230   1.264  0.1685 -0.0423 -0.4122
    1W        W32606  29.760  13.057   9.443  0.0546 -0.1525  0.2028
    1W        W32607  28.388   2.400   8.634  0.1500 -0.2330  0.1833
    1W        W32608  21.910  10.937   1.174 -0.0275  0.0929  0.0803
    1W        W32609  28.306   3.808   8.384 -0.1947  0.0964  0.1324
    1W        W32610  14.191  24.689   8.173 -0.1685 -0.2384 -0.0575
    1W        W32611  29.206  21.015   0.425  0.0812  0.0498  0.0521
    1W        W32612  22.023  11.717   0.699  0.0526  0.0003  0.2733
    1W        W32613   9.032   8.718   8.262  0.1474 -0.2778  0.2523
    1W        W32614   8.267  26.153   1.562  0.1559  0.1783 -0.0565
    1W        W32615  25.206   1.251   9.153  0.0451  0.1747 -0.2070
    1W        W32616   4.936   8.378   3.401  0.3637 -0.0031  0.2132
    1W        W32617  14.476   2.620   7.569  0.0850 -0.0698 -0.4796
    1W        W32618   1.758   0.410   0.473 -0.4990 -0.1628  0.1862
    1W        W32619   7.380  23.391   7.867  0.1118  0.0898  0.0173
    1W        W32620  26.191   6.899   0.278 -0.0625 -0.2329 -0.0226
    1W        W32621  18.627  18.967   0.729 -0.0597  0.1508  0.1649
    1W        W32622   1.098  18.718   8.633  0.2541 -0.0800  0.0630
    1W        W32623  16.624   6.406   3.874  0.0846 -0.0551 -0.3982
    1W        W32624   2.046   8.559   2.721  0.1238  0.1019  0.2385
    1W        W32625  14.186  14.274   1.746  0.2616 -0.2292  0.1131
    1W        W32626  12.590  15.469   2.230 -0.0275  0.0083 -0.1682
    1W        W32627   6.255   1.181   8.989  0.0238 -0.1223 -0.0011
    1W        W32628  23.503  26.795   2.435  0.0029  0.2864  0.1927
    1W        W32629   8.992  19.306   1.384  0.0483 -0.0872 -0.2177
    1W        W32630  10.841  20.815   7.134  0.0301 -0.2106  0.0569
    1W        W32631   2.801  25.374   2.037 -0.3094  0.0374 -0.1767
    1W        W32632   7.040   5.885   0.360  0.1478  0.0462  0.3667
    1W        W32633  24.574  25.276   2.695 -0.0244 -0.2066  0.0909
    1W        W32634  18.714  26.998   2.325 -0.0923 -0.1906 -0.0062
    1W        W32635  10.898   6.908   6.541 -0.4025  0.0880  0.1295
    1W        W32636   1.377  21.050   7.368  0.1662  0.2627 -0.3629
    1W        W32637   6.190  28.590   2.281  0.1135 -0.0903 -0.2155
    1W        W32638  15.816   0.040   7.019  0.0428 -0.4183 -0.0291
    1W        W32639  22.700   2.543   1.042 -0.0414  0.0975 -0.3789
    1W        W32640  12.731   5.880   1.141  0.0256 -0.0541  0.1049
    1W        W32641  29.558  13.516   0.139  0.1261 -0.1561  0.1571
    1W        W32642  17.637  19.535   1.348 -0.1007  0.1400  0.1005
    1W        W32643   0.171   0.343   8.310  0.1952  0.0184 -0.0532
    1W        W32644  20.558   9.258   0.349 -0.0727 -0.1450  0.2462
    1W        W32645  17.712  24.645   8.853 -0.1542  0.3304  0.0670
    1W        W32646  22.291   6.441   1.254  0.1081 -0.3657  0.2384
    1W        W32647   0.427  18.966   6.496 -0.0666 -0.0464  0.1548
    1W        W32648   2.814  26.159   2.194  0.1746  0.0671 -0.0919
    1W        W32649   8.704  19.036   8.937  0.2471 -0.1953  0.0082
    1W        W32650  24.921   5.095   2.946 -0.1695  0.0735 -0.0664
    1W        W32651   9.305  29.235   2.045 -0.1847  0.0546 -0.0656
    1W        W32652   0.069  12.173   0.838 -0.0218  0.0625 -0.3647
    1W        W32653  11.880   0.886   1.813 -0.0731 -0.0183 -0.3118
    1W        W32654   8.975  13.700   9.365  0.0546 -0.2621 -0.0091
    1W        W32655  10.843  28.100   9.051  0.1680  0.1669 -0.2249
    1W        W32656  29.526   1.722   3.343  0.1326 -0.0208 -0.1336
    1W        W32657  23.127  24.806   7.122  0.2515  0.0587 -0.0836
    1W        W32658   4.842   8.743   8.248  0.2699  0.4938 -0.0026
    1W        W32659  17.413  22.543   1.272  0.3462  0.2953 -0.1656
    1W        W32660  15.782  23.294   7.417  0.0934 -0.1215 -0.2242
    1W        W32661  12.566  27.663   6.898 -0.4826  0.0683 -0.0192
    1W        W32662  14.857  13.185   7.011 -0.1554  0.1314 -0.2215
    1W        W32663   8.210   0.127   0.308  0.2590 -0.1968 -0.3214
    1W        W32664  20.549   0.342   2.837  0.2008  0.2771 -0.0773
    1W        W32665  25.170  25.602   6.959 -0.0302  0.2033 -0.0101
    1W        W32666  15.351  25.046   0.301 -0.1052  0.1554 -0.2093
    1W        W32667   0.366  28.817   0.994 -0.1467 -0.3637 -0.0197
    1W        W32668  27.490  16.099   0.745  0.0344  0.2297 -0.3790
    1W        W32669  14.175  20.422   0.972 -0.1301  0.2797 -0.0183
    1W        W32670  17.366  19.027   2.875 -0.1976  0.0365  0.2609
    1W        W32671  17.461  23.544   0.011  0.0425 -0.0790 -0.1905
    1W        W32672   0.609   4.901   1.878  0.0470  0.1589 -0.0885
    1W        W32673  11.054  15.272   2.676 -0.0845  0.1869 -0.0150
    1W        W32674  12.622  27.381   2.296 -0.0111 -0.1861  0.4299
    1W        W32675   2.289   4.261   2.665 -0.1864  0.0772  0.0802
    1W        W32676  17.916   0.545   1.260  0.2598 -0.0705  0.1032
    1W        W32677  14.482  18.628   1.826 -0.1425  0.1751  0.1662
    1W        W32678   8.865  29.736   3.050  0.2874 -0.1384  0.0999
    1W        W32679  13.317   1.449   3.467 -0.3098  0.1192 -0.2478
    1W        W32680  16.247  14.658   7.664 -0.0025 -0.1462 -0.0132
    1W        W32681  25.813  26.016   8.318  0.3005  0.0824 -0.2121
    1W        W32682  27.177   6.486   8.744 -0.1046 -0.0103  0.0016
    1W        W32683  23.845  23.286   1.643  0.0025  0.0542 -0.1588
    1W        W32684  28.491  16.130   0.257 -0.0505  0.0420  0.1666
    1W        W32685  18.884  15.335   1.293 -0.1111 -0.0564 -0.0264
    1W        W32686  17.370  11.476   7.056  0.1023  0.0196 -0.3925
    1W        W32687  28.646  27.389   0.692  0.0308  0.0539 -0.0955
    1W        W32688  11.393   2.602   7.717  0.1487 -0.0531  0.1176
    1W        W32689  26.268   3.158   0.997 -0.1116  0.1022 -0.3306
    1W        W32690  17.516  13.600   6.701 -0.1799 -0.1345  0.0247
    1W        W32691  20.378   9.379   8.455  0.1377 -0.0825  0.0074
    1W        W32692  27.475  25.690   0.923 -0.0491 -0.1013  0.1748
    1W        W32693   6.252   8.080   2.859 -0.1368  0.1841  0.0243
    1W        W32694  26.920  20.040   1.030 -0.1508  0.2313  0.0808
    1W        W32695  16.358  16.283   6.751 -0.0957 -0.1564 -0.1756
    1W        W32696  15.561  16.349   6.735 -0.1304  0.1898 -0.0558
    1W        W32697  28.598  23.386   7.977  0.0760 -0.1786 -0.2540
    1W        W32698  12.890  12.643   2.758  0.1905 -0.0361 -0.2377
    1W        W32699   6.973  29.457   2.887 -0.0077  0.0601  0.0719
    1W        W32700   5.596  17.459   9.538  0.0418  0.2700 -0.2624
    1W        W32701  13.079   1.225   8.669 -0.0107  0.0486  0.3061
    1W        W32702   6.945   6.272   6.969 -0.1584  0.0494  0.0661
    1W        W32703  23.344  12.072   1.463  0.0501 -0.1893  0.3349
    1W        W32704  19.120  17.121   2.254 -0.0964  0.4451  0.0883
    1W        W32705  20.322  23.368   2.789  0.0744 -0.0397 -0.4437
    1W        W32706  15.451  28.208   0.837  0.1710  0.2860 -0.0618
    1W        W32707   5.046  18.667   1.086 -0.0302  0.3154 -0.0653
    1W        W32708  18.699   8.363   6.738 -0.1954  0.1865  0.0801
    1W        W32709  18.569   9.900   2.207 -0.0953  0.1779  0.1293
    1W        W32710  25.896   8.240   1.354 -0.4433  0.2147  0.0514
    1W        W32711  24.788   9.052   7.127 -0.1455 -0.3333 -0.1987
    1W        W32712   9.555  29.354   1.575 -0.2089  0.0920 -0.1278
    1W        W32713  19.176  15.057   7.033  0.3297 -0.0267 -0.2666
    1W        W32714  22.712  22.306   2.370 -0.1481 -0.0470  0.0857
    1W        W32715   0.986  25.170   7.083  0.0213  0.0793 -0.3051
    1W        W32716  27.125  13.345   0.020  0.0804  0.1282  0.1016
    1W        W32717   6.241  11.698   0.729  0.0385 -0.0066 -0.2493
    1W        W32718   3.874   4.662   8.914  0.1490 -0.1914 -0.0034
    1W        W32719  26.787   5.029   1.991  0.1130  0.0110 -0.1149
    1W        W32720   2.566  26.024   0.741 -0.0392  0.0516  0.0259
    1W        W32721  15.566  24.543   0.015  0.1691 -0.1033 -0.1523
    1W        W32722   0.844  10.720   7.817  0.3594  0.1902  0.1408
    1W        W32723  11.639  26.773   1.379  0.0203  0.2159 -0.2981
    1W        W32724   5.306   4.464   7.563 -0.1057 -0.0087  0.1036
    1W        W32725  23.725  18.001   7.808 -0.2239 -0.0704  0.2040
    1W        W32726  15.229  20.410   9.097 -0.1249 -0.1313 -0.1412
    1W        W32727  19.233  13.658   1.287 -0.0179 -0.0912 -0.1017
    1W        W32728  20.010   6.898   2.462 -0.0600  0.1300  0.0320
    1W        W32729   3.660  28.252   2.675 -0.2081 -0.0822  0.1904
    1W        W32730  25.192   0.897   2.209  0.0014 -0.0462 -0.0805
    1W        W32731  20.901   6.113   0.219  0.0943 -0.2990  0.2905
    1W        W32732  12.478  24.515   8.730 -0.1389  0.0530  0.1678
    1W        W32733  26.044   7.903   2.328 -0.1084  0.2592 -0.4574
    1W        W32734   9.905   7.475   2.314 -0.0105  0.0768  0.1787
    1W        W32735  15.652   0.614   1.134  0.1741  0.0120  0.1348
    1W        W32736   1.441  13.969   7.069  0.2264 -0.0308 -0.0989
    1W        W32737  16.495  10.639   0.720  0.2709  0.2053 -0.0971
    1W        W32738   6.874  16.364   7.832  0.1650 -0.1919  0.2007
    1W        W32739   1.076  16.002   1.621  0.4584 -0.0450  0.1921
    1W        W32740  26.407   1.987   1.579  0.1172 -0.2853 -0.1900
    1W        W32741   6.785   1.147   2.443  0.0125  0.2591 -0.1005
    1W        W32742   0.954  18.293   1.344  0.0059 -0.3222 -0.3120
    1W        W32743   6.094  19.076   1.802 -0.0641  0.0218  0.0830
    1W        W32744  23.896  28.576   0.569 -0.0578 -0.2275 -0.2679
    1W        W32745  24.381  26.446   2.078  0.1830  0.1976 -0.3488
    1W        W32746  22.129  20.486   2.001  0.0853  0.0502  0.1545
    1W        W32747   9.177  23.182   1.141  0.1857 -0.1639 -0.1378
    1W        W32748  26.598  15.497   7.704  0.0994 -0.0594  0.0348
    1W        W32749   4.039  11.524   1.931  0.0348  0.2808  0.0737
    1W        W32750  28.756  15.238   0.401 -0.0452 -0.1369  0.0418
    1W        W32751  23.003  27.578   2.004 -0.2356  0.0637  0.3365
    1W        W32752  23.646  26.687   8.630 -0.1926 -0.0045 -0.0960
    1W        W32753   1.767  18.873   1.162  0.0229 -0.0829  0.1042
    1W        W32754  14.936  10.087   8.567  0.1246  0.2995 -0.2097
    1W        W32755   2.469   3.407   1.586  0.1352 -0.0243  0.2800
    1W        W32756  15.973   0.281   3.357  0.2708  0.0519 -0.0149
    1W        W32757   7.526  16.156   1.619 -0.0045 -0.0661  0.3378
    1W        W32758   5.771  17.415   7.608 -0.2664  0.1060  0.2111
    1W        W32759  24.604  25.759   6.980  0.0712  0.1868 -0.1631
    1W        W32760  12.988  17.625   0.680  0.1739  0.0740  0.2954
    1W        W32761  25.547  24.731   8.489  0.3304  0.3161  0.1657
    1W        W32762  10.052  10.039   2.427  0.0455 -0.3373  0.0443
    1W        W32763  17.867  22.824   9.091  0.1501  0.0262  0.0271
    1W        W32764  23.744   9.868   8.825  0.2404 -0.2361  0.0795
    1W        W32765  27.583   7.291   1.853 -0.1062 -0.1150  0.0113
    1W        W32766  23.979  20.984   1.789  0.5113 -0.0823 -0.1413
    1W        W32767   0.031   8.734   3.473 -0.0702  0.2481 -0.2502
    1W        W32768  17.509  16.333   7.524  0.1771  0.1392  0.0710
    1W        W32769  22.437   1.029   9.429  0.0269  0.0185  0.0594
    1W        W32770   9.362  12.674   7.865 -0.0983 -0.0956 -0.1379
    1W        W32771   9.058  29.776   0.360 -0.2910 -0.3717  0.2018
    1W        W32772  25.088  21.812   9.330 -0.1707  0.1972  0.1488
    1W        W32773  19.147  29.635   1.832  0.1446  0.1056  0.0665
    1W        W32774   6.745  20.752   9.487 -0.0822 -0.2767 -0.1663
    1W        W32775   5.852  20.789   0.166 -0.0714  0.3117  0.0431
    1W        W32776  20.293  28.294   2.213 -0.0721 -0.0429  0.3824
    1W        W32777  13.643  22.898   7.758 -0.0584  0.1373 -0.1923
    1W        W32778  23.268  22.288   7.331  0.2270 -0.1301  0.0049
    1W        W32779   0.650   7.461   1.280 -0.2244 -0.0413  0.1037
    1W        W32780  16.541   1.431   1.037 -0.2855  0.3783  0.1563
    1W        W32781   3.522  29.404   0.684  0.0014 -0.0422  0.0104
    1W        W32782   6.171   1.933   0.307  0.1619 -0.1938 -0.2358
    1W        W32783   4.023  24.769   6.892 -0.2362 -0.3275  0.0868
    1W        W32784  28.826  12.816   7.595 -0.0428 -0.0785  0.0353
    1W        W32785  23.740  23.721   0.815  0.0733  0.0058  0.0053
    1W        W32786   0.289  18.911   9.502 -0.2804  0.0088 -0.0116
    1W        W32787  26.887   0.666   9.258  0.1570 -0.1399 -0.0653
    1W        W32788  11.886  28.445   0.775 -0.1030 -0.1668  0.0241
    1W        W32789  28.261  20.652   7.166  0.0154 -0.0490  0.1918
    1W        W32790  19.328  11.222   0.466  0.0550  0.1229  0.0419
    1W        W32791   4.871  27.403   9.403 -0.1274  0.1031  0.1205
    1W        W32792  20.910   0.258   1.822  0.0371 -0.1887  0.1960
    1W        W32793  14.061   9.363   8.370  0.0127  0.0010 -0.2878
    1W        W32794  29.606   0.988   2.899 -0.0951 -0.1261  0.3784
    1W        W32795  15.353  24.874   9.231  0.5145  0.2036 -0.1826
    1W        W32796  11.073   8.924   7.851 -0.0429  0.3854  0.4475
    1W        W32797  16.659  15.708   9.143 -0.0532 -0.0754  0.2628
    1W        W32798  15.797   9.131   0.254  0.4411 -0.0208  0.0573
    1W        W32799   2.148   5.946   8.149  0.0959 -0.0003 -0.0036
    1W        W32800   3.032  16.800   8.298 -0.1084  0.0080  0.1347
    1W        W32801  18.726  28.281   2.483 -0.0842 -0.1597  0.2551
    1W        W32802  14.732  18.889   2.478  0.1289  0.1187  0.0957
    1W        W32803  18.841   2.800   1.054 -0.0376 -0.2460 -0.2956
    1W        W32804   4.767  22.216   1.513  0.1027 -0.0258  0.2007
    1W        W32805   9.996  20.312   0.302 -0.1506  0.3137 -0.0446
    1W        W32806  20.957  24.907   6.118  0.1353 -0.2963 -0.5252
    1W        W32807   3.163  14.487   7.269  0.3094 -0.1669  0.0958
    1W        W32808  25.041  26.994   1.743 -0.1637 -0.1736  0.1981
    1W        W32809  29.383   1.802   1.798 -0.2588 -0.1325  0.2380
    1W        W32810  17.529  23.525   1.439  0.0844 -0.2175 -0.0387
    1W        W32811  11.330   4.697   2.794  0.4509  0.1454  0.0899
    1W        W32812   6.303  25.387   1.181 -0.1588 -0.0236  0.1651
    1W        W32813   0.477  24.172   2.696  0.0020  0.1303  0.0572
    1W        W32814  10.836  12.682   8.061  0.0536  0.0018 -0.0611
    1W        W32815  13.369  19.247   6.937 -0.2170 -0.1498 -0.0429
    1W        W32816   4.821  10.499   1.199  0.1698 -0.2366  0.1182
    1W        W32817  15.761  18.053   2.423 -0.1168  0.1459  0.3160
    1W        W32818  25.725  23.123   6.335 -0.2006 -0.0031  0.2108
    1W        W32819  25.476   8.757   9.491 -0.3778  0.0440 -0.0096
    1W        W32820  17.618  29.088   1.760 -0.1631  0.2212  0.0026
    1W        W32821  11.554  25.791   6.765 -0.2159  0.2179 -0.0603
    1W        W32822  25.313   0.166   2.991  0.2133  0.0607 -0.2438
    1W        W32823  23.869  27.325   1.610 -0.0717 -0.2334 -0.1414
    1W        W32824   5.837   8.854   9.269 -0.0009 -0.1557 -0.3185
    1W        W32825   4.513  17.724   7.244 -0.0394  0.3091  0.0507
    1W        W32826  26.037   0.304   2.344  0.0478  0.1658  0.0838
    1W        W32827   5.281  15.839   8.328  0.0153 -0.2445 -0.0940
    1W        W32828   3.718  25.043   9.452 -0.0953  0.4733 -0.1127
    1W        W32829  24.107  21.724   8.573 -0.1582 -0.1130 -0.0308
    1W        W32830  10.970  22.331   9.545  0.0676  0.2456 -0.1647
    1W        W32831  19.594  14.320   7.322 -0.3477  0.0126 -0.0237
    1W        W32832   7.936  26.950   2.360  0.0756 -0.0655 -0.1597
    1W        W32833  19.116  14.070   8.181  0.1143 -0.2814 -0.1226
    1W        W32834  25.473   4.884   8.896  0.0478  0.0907  0.2673
    1W        W32835   6.027  15.328   1.326 -0.0448  0.2491 -0.0187
    1W        W32836  21.291  16.355   8.499  0.1742  0.3436  0.0302
    1W        W32837  22.427  12.351   5.269  0.0515 -0.0245 -0.0372
    1W        W32838   4.054   5.615   2.305 -0.1764 -0.1207 -0.0964
    1W        W32839  21.835  28.255   8.989 -0.0396  0.0890  0.0961
    1W        W32840   3.254   3.195   2.184  0.3577  0.1673 -0.0908
    1W        W32841   0.026   9.230   8.894  0.1092  0.1503 -0.0358
    1W        W32842  11.798   0.809   1.006 -0.1487  0.1347  0.0913
    1W        W32843  20.619  28.429   1.007  0.0962 -0.2883 -0.0118
    1W        W32844  16.285  12.705   0.789  0.1650 -0.1165  0.1692
    1W        W32845  13.394   7.988   7.133  0.1562  0.3084  0.1383
    1W        W32846  23.673  14.250   7.301  0.6006 -0.0331  0.0304
    1W        W32847  24.719  29.030   7.242 -0.0545  0.0216  0.0494
    1W        W32848  12.059   4.797   3.376  0.1110 -0.0632  0.0927
    1W        W32849  23.401  12.595   0.674  0.0969  0.0588  0.0671
    1W        W32850   2.639   8.832   8.275  0.0034 -0.0169 -0.1228
    1W        W32851  26.264  27.341   9.192 -0.0299  0.2600  0.2471
    1W        W32852   4.724  17.298   1.201 -0.2596  0.1895  0.0847
    1W        W32853  20.503  21.884   2.885  0.1472 -0.2183 -0.0810
    1W        W32854  10.268   8.137   2.228 -0.4924  0.1418  0.4958
    1W        W32855   4.520  17.488   0.668  0.0776  0.0562 -0.0013
    1W        W32856   8.675  27.255   8.756 -0.0998  0.0687  0.2958
    1W        W32857  12.060  29.372   9.328 -0.0500  0.1087 -0.2558
    1W        W32858  27.142   4.117   7.082  0.1852  0.3399  0.0039
    1W        W32859  26.570  22.623   6.400 -0.2516  0.1347  0.2174
    1W        W32860   6.599  15.787   8.961 -0.2024  0.1303  0.0924
    1W        W32861  20.673  21.551   6.597 -0.0564 -0.3258 -0.2457
    1W        W32862  18.951   9.844   9.459 -0.1342 -0.2224  0.0464
    1W        W32863   6.361   1.666   3.115 -0.0804  0.0566  0.0383
    1W        W32864   8.285  21.186   6.258 -0.0535  0.0099  0.0467
    1W        W32865  17.108  16.799   1.407  0.1490  0.0611  0.0256
    1W        W32866   5.747  25.381   7.615 -0.4441  0.2575  0.0306
    1W        W32867  27.565  22.779   1.640 -0.0497 -0.2192 -0.0541
    1W        W32868   8.649  12.684   6.938 -0.2055  0.2541 -0.2651
    1W        W32869  25.468   5.394   2.236  0.4249  0.0180 -0.0498
    1W        W32870   7.199  18.189   0.746 -0.1921 -0.0621 -0.2984
    1W        W32871  18.663  19.032   2.197  0.0463 -0.1709  0.0289
    1W        W32872  18.318  24.000   2.555  0.0799 -0.0901  0.1317
    1W        W32873   1.084  19.888   7.145 -0.0162 -0.3600  0.2859
    1W        W32874   9.915  28.739   8.196 -0.0612  0.0880  0.1065
    1W        W32875  25.388   7.671   7.095  0.1320 -0.3473  0.0035
    1W        W32876   3.175  10.998   0.377 -0.1178  0.3533  0.0027
    1W        W32877   9.114  29.222   2.489  0.3306  0.2013 -0.3113
    1W        W32878   1.425   0.372   6.693 -0.1777 -0.2476 -0.0324
    1W        W32879  23.117  12.408   1.169 -0.0651 -0.0887 -0.1653
    1W        W32880   3.532  26.253   2.074 -0.0257  0.1084  0.0292
    1W        W32881  27.199   4.152   0.537  0.4777  0.1566  0.2283
    1W        W32882  18.477  17.917   2.924  0.1371  0.0403 -0.0082
    1W        W32883  14.221   1.979   1.263  0.3794 -0.2941 -0.0045
    1W        W32884  13.991  25.594   7.851  0.0040  0.0022 -0.0380
    1W        W32885  25.202  27.032   6.941  0.0675 -0.0790  0.1367
    1W        W32886  22.200  29.036   3.711 -0.1436 -0.2176  0.0267
    1W        W32887  29.204  14.261   7.063 -0.1866 -0.3165 -0.0553
    1W        W32888  16.106  26.512   0.266 -0.0339 -0.0732  0.2442
    1W        W32889   7.517  17.874   9.460 -0.1544  0.1485 -0.0544
    1W        W32890   8.063  11.715   7.902  0.3095  0.0331 -0.1191
    1W        W32891  17.384  25.748   2.418 -0.2807 -0.0858 -0.0847
    1W        W32892  23.336   0.454   7.769  0.0097  0.0691  0.0639
    1W        W32893  28.136   0.196   9.097  0.5430  0.1365 -0.1196
    1W        W32894  27.908   7.109   0.104  0.0603 -0.1409 -0.3258
    1W        W32895  16.085  16.858   2.185 -0.0325  0.0181  0.1920
    1W        W32896   7.143   7.000   0.673 -0.0868  0.3021  0.2588
    1W        W32897  20.760  23.644   1.218 -0.1295 -0.0126  0.2226
    1W        W32898  23.161  20.338   6.348 -0.1422 -0.0292 -0.1792
    1W        W32899   9.062   7.836   0.476  0.0328  0.1254  0.0054
    1W        W32900   8.981   7.350   3.298 -0.2284 -0.0733 -0.1023
    1W        W32901   0.808  23.204   7.415  0.0060 -0.0900  0.0272
    1W        W32902  29.216  17.676   8.096 -0.0481  0.4302 -0.0562
    1W        W32903   7.574   0.033   7.582  0.2486  0.1973  0.1440
    1W        W32904  10.662  16.973   7.069  0.2115  0.1749  0.0087
    1W        W32905  29.754  19.003   7.677  0.2846 -0.1547  0.1288
    1W        W32906  14.512  23.049   9.185  0.1051 -0.0797 -0.2131
    1W        W32907   4.236   3.550   7.175  0.0910  0.0000 -0.1995
    1W        W32908   1.242  29.060   1.733  0.4407  0.0408 -0.3023
    1W        W32909  25.530  23.703   6.856 -0.0570 -0.1433 -0.1479
    1W        W32910  24.431   2.751   1.237  0.0907  0.0508 -0.0794
    1W        W32911   0.191   0.177   1.688  0.0331  0.2380 -0.1129
    1W        W32912  10.399   2.978   9.102 -0.0727  0.1661 -0.0833
    1W        W32913  25.223   8.158   8.739  0.0066 -0.0991  0.0739
    1W        W32914   0.839   8.598   8.611  0.0278 -0.0074  0.1124
    1W        W32915  15.417  15.203   6.949  0.0096 -0.5295  0.2075
    1W        W32916  22.419   9.023   1.813 -0.4821  0.0138  0.0545
    1W        W32917   1.603  29.800   3.113  0.0979  0.1815 -0.2532
    1W        W32918  15.766   4.018   0.842 -0.1242  0.2714 -0.0561
    1W        W32919   3.843  12.921   0.667 -0.0818  0.1312  0.2685
    1W        W32920   0.551   2.470   2.159  0.0877 -0.0237 -0.1455
    1W        W32921  15.036  24.748   0.552 -0.1782 -0.1783 -0.0388
    1W        W32922  10.497  21.526   0.601  0.0565  0.0270  0.1502
    1W        W32923   4.500  11.366   2.034 -0.1596  0.0580 -0.0191
    1W        W32924  11.564  24.219   0.963  0.0932 -0.3680 -0.0775
    1W        W32925  27.078  14.529   6.549  0.0004  0.1901 -0.0744
    1W        W32926   2.753   5.344   0.545  0.3226 -0.2439 -0.2573
    1W        W32927   8.426   0.253   8.604 -0.1577 -0.0828  0.0609
    1W        W32928  24.765  10.977   6.159 -0.1931 -0.0918  0.0122
    1W        W32929  17.735  21.636   1.060 -0.2652  0.2464 -0.1144
    1W        W32930  22.587  21.169   2.474 -0.1734 -0.1254 -0.0204
    1W        W32931  27.224  27.891   8.826  0.2099  0.3137  0.0501
    1W        W32932  19.906   6.487   8.995  0.5746  0.1574  0.0202
    1W        W32933  17.770  19.963   1.074 -0.1962  0.1587  0.0933
    1W        W32934  26.061  23.510   0.817  0.1075 -0.0332  0.1371
    1W        W32935  26.564  25.343   8.595  0.0249  0.0282 -0.3730
    1W        W32936  16.248  11.237   7.636  0.4373  0.1517  0.1796
    1W        W32937  21.809  11.159   5.843  0.2567 -0.0328  0.4401
    1W        W32938  12.096  12.596   7.264  0.2083 -0.1190  0.2058
    1W        W32939  18.240  28.099   1.309  0.0461 -0.0876 -0.1904
    1W        W32940  28.538  27.372   6.515 -0.0520  0.1303  0.0204
    1W        W32941  15.851  22.313   7.584 -0.2411  0.1230  0.0064
    1W        W32942  25.767  17.358   0.662  0.0151  0.2137  0.1532
    1W        W32943  21.282  16.207   5.243  0.0971  0.0432  0.1591
    1W        W32944   7.321  17.045   7.848 -0.0656  0.1022 -0.2071
    1W        W32945  22.877  18.610   9.305 -0.0795  0.4936 -0.2026
    1W        W32946  10.545  12.899   0.880 -0.1079  0.1894  0.0001
    1W        W32947  10.911  19.556   2.308 -0.1275  0.3277 -0.0984
    1W        W32948  29.588  27.112   6.464 -0.0997  0.0962  0.0336
    1W        W32949  10.299  19.991   1.206 -0.0177 -0.2506  0.1913
    1W        W32950   8.893  16.894   6.989 -0.2901 -0.1628  0.1434
    1W        W32951  12.176  12.961   3.352  0.0108 -0.0124 -0.2655
    1W        W32952  23.787  11.844   8.003  0.0314 -0.0887  0.0269
    1W        W32953  24.669   2.250   1.481 -0.1145 -0.0092  0.0186
    1W        W32954  15.869   3.885   1.336  0.0080  0.3343  0.0474
    1W        W32955   6.660  13.365   2.350 -0.2110 -0.2416 -0.1234
    1W        W32956   4.952   6.774   1.963  0.0039 -0.4381  0.3418
    1W        W32957  23.299  17.191   8.694 -0.1424 -0.1599 -0.2444
    1W        W32958  13.181  10.134   7.337 -0.0142 -0.0180 -0.1033
    1W        W32959  22.815  24.128   0.912  0.0726 -0.2135 -0.0429
    1W        W32960  11.513  25.295   2.158  0.1929  0.4747 -0.1058
    1W        W32961  21.547  17.019   0.239  0.1137 -0.2370 -0.1109
    1W        W32962  12.151   5.113   2.220  0.0678 -0.2129  0.0627
    1W        W32963   8.350  24.922   0.022  0.0464 -0.0422 -0.4646
    1W        W32964   5.287  12.928   6.959  0.1017  0.1861 -0.4753
    1W        W32965   4.191  26.199   7.587 -0.0946  0.0365 -0.1916
    1W        W32966   7.898   4.259   0.625  0.2247  0.0839  0.0230
    1W        W32967   2.543   1.607   8.740 -0.0870  0.0960  0.2193
    1W        W32968  17.364   2.047   8.716  0.1045 -0.1610 -0.0333
    1W        W32969  27.590  26.355   9.194 -0.0707 -0.0275 -0.1393
    1W        W32970   9.504  24.405   1.786 -0.1254  0.1606  0.0638
    1W        W32971  10.531  14.391   1.416 -0.0886 -0.0249 -0.1797
    1W        W32972  12.515  15.586   2.761  0.1768 -0.0215 -0.3797
    1W        W32973   3.734   3.263   1.484 -0.1384 -0.1131 -0.1713
    1W        W32974  18.983  25.679   9.018 -0.3388 -0.1774  0.1283
    1W        W32975   3.929  17.539   1.666  0.3335 -0.0555 -0.2495
    1W        W32976  22.598  11.374   6.970  0.4767  0.2056  0.0437
    1W        W32977  23.942  14.547   1.428 -0.1728  0.0964 -0.0756
    1W        W32978   8.422  26.900   9.180 -0.0526 -0.1160 -0.0083
    1W        W32979   7.502  22.911   0.183 -0.1538  0.1723 -0.1166
    1W        W32980   6.463   9.124   7.846 -0.0752 -0.0084 -0.0614
    1W        W32981   3.029   4.650   2.725  0.2279 -0.4222  0.0016
    1W        W32982  20.420  12.795   0.970 -0.2175 -0.1770  0.1505
    1W        W32983   5.641  26.100   9.373  0.1604 -0.0248  0.0622
    1W        W32984  13.365  24.614   7.693 -0.1637  0.0927 -0.0770
    1W        W32985   8.185  17.339   7.330  0.2325  0.0322  0.1828
    1W        W32986  27.301  12.841   7.275 -0.0745 -0.1644 -0.1536
    1W        W32987   7.985  21.658   0.806 -0.1847  0.2167  0.0077
    1W        W32988  14.833   6.636   1.146  0.2533 -0.3264 -0.1881
    1W        W32989  10.772   3.289   7.297 -0.0845 -0.0904 -0.2514
    1W        W32990  12.508   2.366   8.532  0.0520 -0.2704  0.1742
    1W        W32991   2.663   5.054   8.436  0.0810  0.2254 -0.0835
    1W        W32992  29.443   8.354   2.678  0.0664 -0.0435  0.3218
    1W        W32993   5.690  21.695   1.438 -0.0946  0.3547 -0.1791
    1W        W32994   8.183   5.094   8.041  0.1315  0.4821  0.1045
    1W        W32995  17.276  11.553   1.897  0.3968  0.1170 -0.1968
    1W        W32996  27.540  18.627   6.002 -0.0909  0.2416 -0.1452
    1W        W32997  13.132   2.087   6.997 -0.2498 -0.0940 -0.0188
    1W        W32998   6.347  21.214   2.518 -0.0668 -0.1379 -0.0160
    1W        W32999  15.000   2.381   1.511 -0.0053  0.0930 -0.0783
    1W        W33000  16.121  27.135   2.671  0.1364  0.1500  0.0113
    1W        W33001   9.160   6.391   2.253  0.3143 -0.0865  0.4192
    1W        W33002   6.679  22.161   8.515  0.0037 -0.0762  0.0073
    1W        W33003  27.257   5.059   9.364 -0.0752  0.3078 -0.0064
    1W        W33004  28.959  16.174   0.152  0.0834 -0.0964 -0.0144
    1W        W33005  28.575  10.121   8.857  0.0521 -0.0495  0.0543
    1W        W33006  18.670  10.415   2.187 -0.0387 -0.2191 -0.0894
    1W        W33007  15.006   3.290   1.842 -0.0504 -0.0070  0.3764
    1W        W33008   7.642   6.803   1.343  0.0150  0.0787 -0.0929
    1W        W33009   9.499  17.094   1.010 -0.0817 -0.0186  0.0391
    1W        W33010  12.747   8.894   7.923  0.0285  0.0602  0.3483
    1W        W33011  27.569  29.501   1.327 -0.0691 -0.1551 -0.1773
    1W        W33012   9.438  18.787   8.682 -0.1045  0.3081  0.0885
    1W        W33013  25.548  15.955   7.673 -0.0345  0.1777 -0.0445
    1W        W33014  10.628  18.113   8.642  0.1297  0.3120  0.0230
    1W        W33015  13.033  25.734   7.369  0.3329 -0.2313 -0.1695
    1W        W33016  25.486  24.992   2.285  0.3299 -0.0858  0.1237
    1W        W33017   5.344  23.276   1.893 -0.0811 -0.1759 -0.1459
    1W        W33018  12.870  21.429   7.293 -0.0335 -0.0884 -0.1277
    1W        W33019  18.015  23.875   2.184 -0.1646 -0.1546  0.1031
    1W        W33020  15.584  20.709   1.776 -0.1538 -0.0103  0.0459
    1W        W33021  11.759   7.120   1.988  0.2901  0.0856  0.0031
    1W        W33022  18.356  22.719   0.339  0.1017  0.0366 -0.0361
    1W        W33023   8.340  20.784   7.635 -0.1371 -0.0493 -0.2075
    1W        W33024  15.746  25.893   0.334 -0.2135 -0.4954 -0.5921
    1W        W33025  14.160  28.475   8.044  0.2293 -0.1727 -0.1904
    1W        W33026   2.352  21.086   0.388 -0.2847 -0.3533  0.2157
    1W        W33027  27.719   5.179   9.221 -0.1683 -0.0992 -0.1670
    1W        W33028  28.278  13.861   6.635 -0.3502 -0.4276 -0.0252
    1W        W33029  21.860  13.077   6.925 -0.0298 -0.1199  0.2098
    1W        W33030   5.079  14.907   8.841  0.0956  0.1289  0.0646
    1W        W33031  22.070   4.318   0.593 -0.1517  0.2421 -0.2148
    1W        W33032  12.741   2.364   6.751 -0.3503 -0.4748  0.0744
    1W        W33033  12.557  18.739   6.412  0.1812 -0.0873 -0.1690
    1W        W33034  20.622  21.613   7.608 -0.1652 -0.1151  0.1646
    1W        W33035  16.310  23.694   9.273 -0.2322 -0.1352 -0.0566
    1W        W33036   9.848   4.043   0.057 -0.0898 -0.0349 -0.1700
    1W        W33037  17.585   4.907   3.218  0.1910  0.2704  0.4571
    1W        W33038  21.498   9.265   8.472  0.5076  0.0948 -0.0768
    1W        W33039  14.950   9.434   9.420  0.2492  0.1061 -0.0815
    1W        W33040  22.027   5.786   7.390  0.1753 -0.2556 -0.0182
    1W        W33041  12.034   4.902   8.746 -0.0029 -0.0337 -0.1666
    1W        W33042   8.444  22.952   9.284  0.1596  0.0045  0.3667
    1W        W33043  16.351   7.552   2.292  0.0572  0.2473  0.1680
    1W        W33044   2.032  25.151   9.166  0.2299  0.1718 -0.1609
    1W        W33045   2.953  26.606   3.157  0.1678 -0.2082 -0.0565
    1W        W33046  24.823  13.508   1.838  0.1404 -0.0594 -0.1042
    1W        W33047  14.713   4.861   0.584  0.1372  0.2927  0.4451
    1W        W33048   1.087   4.860   0.193  0.0295  0.3188  0.0534
    1W        W33049   6.067   9.880   2.580  0.0248  0.0215  0.1185
    1W        W33050  18.971  23.477   7.343  0.1234  0.0139  0.2266
    1W        W33051  19.136  13.986   5.889  0.1364  0.0816  0.0953
    1W        W33052  29.295  18.159   0.103 -0.2093  0.1250 -0.0606
    1W        W33053  14.375  14.765   1.808  0.0264  0.1474  0.1126
    1W        W33054   5.099  18.400   7.432 -0.0734  0.2254  0.4883
    1W        W33055  28.374  15.182   1.228  0.0348 -0.0001  0.0706
    1W        W33056  13.581  16.216   8.102 -0.0112  0.2384  0.1980
    1W        W33057  18.704   9.664   8.137  0.1322 -0.2045  0.1790
    1W        W33058  29.769  24.915   9.041  0.2390 -0.2426 -0.4386
    1W        W33059   2.008  19.378   8.785 -0.0278 -0.0403  0.2929
    1W        W33060   2.839   4.176   2.732  0.2285  0.1348 -0.0488
    1W        W33061  17.936  21.918   0.662 -0.1560  0.1622  0.2658
    1W        W33062  25.732   8.797   6.723  0.1046  0.0675 -0.0006
    1W        W33063   4.867   8.017   1.437 -0.0887  0.2407 -0.4252
    1W        W33064  25.093  20.569   0.515 -0.0165  0.4448  0.0252
    1W        W33065  13.809  20.175   0.711  0.0553 -0.0314  0.1873
    1W        W33066  26.664  28.375   7.559 -0.0920 -0.1102 -0.1555
    1W        W33067  27.784  28.233   0.650  0.1631  0.0220 -0.3538
    1W        W33068   8.646  14.168   2.279  0.2463  0.1252 -0.1666
    1W        W33069  12.298  23.853   0.900  0.0683 -0.1787 -0.0740
    1W        W33070  22.621   8.119   8.861  0.1407 -0.0126 -0.1403
    1W        W33071  12.815   8.279   0.397  0.3068 -0.1474  0.2536
    1W        W33072   0.221  25.644   2.193  0.5408 -0.0811 -0.2720
    1W        W33073  11.344  22.859   0.014  0.1811 -0.0222  0.0869
    1W        W33074  24.417  14.819   7.349  0.1767 -0.0414  0.0306
    1W        W33075   7.889   0.686   3.027 -0.0607  0.0202 -0.4016
    1W        W33076   6.837   6.562   2.291 -0.1029  0.0386 -0.0408
    1W        W33077   1.025  27.565   8.055  0.2810  0.1680  0.2015
    1W        W33078   3.514  14.487   2.324 -0.2422  0.1353  0.0470
    1W        W33079  27.473  22.850   9.003  0.1063  0.0431  0.4161
    1W        W33080   5.833   6.026   1.422  0.0819  0.0619  0.1528
    1W        W33081   2.987   1.298   3.167 -0.0723  0.1976 -0.2942
    1W        W33082  18.157   4.218   8.306 -0.0707 -0.2369  0.3419
    1W        W33083   0.792  15.391   7.491 -0.2958  0.1743  0.0155
    1W        W33084  28.249   0.722   3.097 -0.3220 -0.1578 -0.1088
    1W        W33085  22.176  24.873   8.350  0.1479 -0.0480 -0.3655
    1W        W33086  14.234   4.621   0.635 -0.4423  0.6383  0.1882
    1W        W33087   5.620  16.508   0.139  0.2226 -0.3106 -0.3666
    1W        W33088  29.751   0.620   2.602  0.1903 -0.1526  0.3494
    1W        W33089  28.739   2.027   0.556 -0.0517 -0.0506 -0.1474
    1W        W33090   6.852   3.575   7.567  0.2893 -0.1139  0.0740
    1W        W33091  27.228  22.433   8.122 -0.2662 -0.2987 -0.4082
    1W        W33092   6.461  21.176   1.596 -0.0737 -0.0044  0.2711
    1W        W33093  19.871  11.357   2.046  0.0119 -0.1234 -0.0216
    1W        W33094  28.844   1.440   2.245 -0.2875 -0.0791 -0.2134
    1W        W33095  21.978   3.078   8.498  0.0405  0.2046 -0.1880
    1W        W33096  28.418  27.034   2.700  0.0547 -0.4640  0.0943
    1W        W33097  24.696  14.604   7.878 -0.3511 -0.1302 -0.2312
    1W        W33098  18.864  12.336   6.621 -0.1911 -0.0825  0.0645
    1W        W33099  15.858  12.709   8.350  0.0082 -0.1638  0.1559
    1W        W33100  13.281   2.483   2.306  0.0560  0.0313 -0.0363
    1W        W33101  27.364  23.675   1.443  0.1365 -0.1333 -0.4092
    1W        W33102  25.146   1.674   7.296  0.0521 -0.1026  0.2859
    1W        W33103   0.449   1.730   1.383  0.2845 -0.1124  0.1391
    1W        W33104  22.777  27.366   2.497  0.0948 -0.0229  0.2488
    1W        W33105   2.241  28.095   7.808 -0.1015 -0.1979  0.2614
    1W        W33106   9.560  29.764   0.212 -0.1267  0.3326  0.0178
    1W        W33107  24.764  10.991   7.820 -0.4332  0.0912  0.0658
    1W        W33108  15.891  20.142   0.088  0.2635 -0.0605 -0.1120
    1W        W33109  19.160  29.706   0.180  0.0280 -0.3306  0.1742
    1W        W33110   5.214   0.728   7.926  0.1860 -0.2992 -0.0066
    1W        W33111   5.331  14.594   6.961  0.0410 -0.0844  0.1338
    1W        W33112  17.574  10.431   1.087 -0.0386  0.1568 -0.0459
    1W        W33113   9.803  18.280   7.114 -0.0243 -0.0198  0.2494
    1W        W33114  10.707  21.407   0.078 -0.0370  0.1226  0.0780
    1W        W33115  17.094  15.225   1.091  0.0284 -0.1460  0.0330
    1W        W33116  18.008  23.134   1.998 -0.0939 -0.1200 -0.0219
    1W        W33117  22.283  14.972   0.026  0.1910 -0.1777  0.0926
    1W        W33118  27.171   9.533   6.149  0.0198 -0.1216  0.0309
    1W        W33119  24.036  12.364   7.902 -0.0826  0.0141 -0.2259
    1W        W33120  29.700  16.387   0.410 -0.1839 -0.0596 -0.0863
    1W        W33121  16.559  11.913   7.378 -0.1495 -0.2969  0.1502
    1W        W33122  23.590  12.664   6.042 -0.0218  0.1922  0.0986
    1W        W33123   6.163   9.207   9.066  0.0510 -0.3296 -0.1871
    1W        W33124  13.173  12.242   8.896  0.0625  0.0764  0.1625
    1W        W33125  22.355  25.850   1.482 -0.2284 -0.1257 -0.0643
    1W        W33126  16.060  27.014   0.365 -0.3382 -0.1740  0.1323
    1W        W33127   3.310   1.796   9.544  0.0768  0.1141  0.0652
    1W        W33128  14.570   4.044   1.987  0.3158  0.0818  0.0247
    1W        W33129  13.635   0.734   8.964 -0.0387  0.0789  0.0530
    1W        W33130  20.173  13.731   8.104  0.0904 -0.2685 -0.0779
    1W        W33131  28.630  20.300   7.069 -0.0546 -0.1731 -0.1501
    1W        W33132  28.104   4.245   6.859  0.0967 -0.1507 -0.1354
    1W        W33133  21.760  23.869   1.377 -0.1263  0.0131  0.2565
    1W        W33134   8.464  23.895   7.039  0.0531  0.0151  0.1104
    1W        W33135   6.263  22.734   0.941  0.1124 -0.0647  0.3478
    1W        W33136  13.362  28.651   3.642 -0.2326  0.0776  0.0352
    1W        W33137   5.149   0.545   9.485 -0.0429 -0.0472 -0.2898
    1W        W33138   2.130   8.264   6.971  0.3357 -0.2453  0.0215
    1W        W33139  21.355  12.054   1.755 -0.0175 -0.1118 -0.3336
    1W        W33140   5.713  19.537   1.666  0.0434 -0.0896 -0.3498
    1W        W33141   0.351  29.331   8.705  0.2044  0.1387 -0.2656
    1W        W33142   8.073   0.782   8.589 -0.1215 -0.0781  0.1368
    1W        W33143  14.362   7.408   8.012 -0.1935 -0.0195 -0.0979
    1W        W33144  21.017  21.703   0.104 -0.0560  0.1719 -0.0842
    1W        W33145  27.576  28.787   7.958 -0.2999 -0.2812 -0.0615
    1W        W33146  11.644  14.174   6.997 -0.6454  0.0297  0.1361
    1W        W33147  14.499  29.348   1.019 -0.3875  0.0464  0.2793
    1W        W33148  20.779   2.024   1.940  0.2484 -0.0355 -0.0193
    1W        W33149   3.734  27.409   9.274 -0.0264  0.0355 -0.1955
    1W        W33150   6.805  18.663   7.379  0.0193 -0.3657 -0.0958
    1W        W33151   2.099   4.099   7.179 -0.2487 -0.2685 -0.3768
    1W        W33152  23.750  13.612   9.186 -0.1722 -0.0964 -0.1708
    1W        W33153   4.913  23.395   1.120  0.3743  0.1598 -0.0272
    1W        W33154  13.324  10.233   1.754  0.1481 -0.0068 -0.2263
    1W        W33155   5.061  11.514   8.142  0.3952 -0.1071 -0.1360
    1W        W33156  18.935  13.097   8.225  0.1276  0.0435  0.1021
    1W        W33157   7.252   6.680   2.557  0.2428  0.0456 -0.0040
    1W        W33158  25.150  29.768   2.457 -0.1234  0.0275  0.2145
    1W        W33159  25.298  29.220   9.065 -0.3871  0.3822 -0.1890
    1W        W33160  15.011  24.054   8.785 -0.0748 -0.0490 -0.1748
    1W        W33161   9.452   1.516   1.735 -0.0274  0.0101  0.0041
    1W        W33162   9.510   4.680   8.972  0.2516  0.3100 -0.0101
    1W        W33163  14.125  19.163   7.929  0.0178 -0.3094 -0.0010
    1W        W33164   5.377  22.351   9.405  0.0267  0.0848 -0.3824
    1W        W33165  21.348  23.309   0.337  0.1596 -0.1006 -0.2055
    1W        W33166   7.979   9.388   8.947 -0.0018 -0.1564 -0.1693
    1W        W33167  18.935  16.805   0.199  0.0913 -0.0217 -0.3635
    1W        W33168   7.157  22.073   6.586  0.3117  0.0747 -0.3150
    1W        W33169  15.172   4.987   7.930 -0.0507 -0.4174  0.3655
    1W        W33170  20.039  20.467   8.711 -0.2205  0.0771 -0.3106
    1W        W33171  15.193  16.582   7.772  0.1563  0.0957 -0.0343
    1W        W33172   1.683  21.475   2.423 -0.1177  0.1098  0.2082
    1W        W33173  19.772  27.268   8.853  0.1036  0.0921 -0.3292
    1W        W33174   1.635  26.248   3.063  0.0021 -0.3736  0.1852
    1W        W33175   1.420   6.261   7.851 -0.3163 -0.1660  0.0947
    1W        W33176  17.574  28.953   8.008 -0.0269 -0.0218  0.0206
    1W        W33177  23.471  19.504   9.371  0.0488 -0.2147  0.0046
    1W        W33178  16.529  10.502   8.974 -0.0261 -0.1813  0.2058
    1W        W33179   3.695   3.076   2.456  0.2227  0.0261  0.1820
    1W        W33180   1.192  27.940   0.720  0.1645 -0.1288 -0.0562
    1W        W33181  10.780  28.795   7.669 -0.0079  0.0484  0.2113
    1W        W33182  14.437  19.360   3.083 -0.2807  0.1217 -0.0223
    1W        W33183  24.307  28.103   2.183  0.1882 -0.1107 -0.2976
    1W        W33184   0.872   3.870   8.196 -0.3180 -0.1617 -0.1454
    1W        W33185   0.776   6.755   2.326  0.0413  0.1841 -0.2314
    1W        W33186  23.747  17.616   6.616  0.1590 -0.2237  0.3964
    1W        W33187  17.973  10.263   6.823  0.0609  0.0209  0.1230
    1W        W33188   6.366  19.898   2.185 -0.1547  0.4093 -0.2853
    1W        W33189  17.964  10.550   7.415  0.0010 -0.5182  0.1324
    1W        W33190  12.770  28.972   9.016 -0.1283 -0.2162 -0.1590
    1W        W33191  19.030  12.335   1.773  0.2619 -0.2234 -0.2924
    1W        W33192  24.145   1.493   9.451 -0.0834 -0.1046 -0.1456
    1W        W33193  12.137  15.134   7.761 -0.0533 -0.1927  0.2458
    1W        W33194   0.202  25.010   0.115  0.0090 -0.0743 -0.2179
    1W        W33195  13.941  15.199   7.787 -0.0755  0.1816  0.2720
    1W        W33196  17.738   7.198   0.450 -0.1371  0.3600 -0.0346
    1W        W33197   0.712   2.213   9.208 -0.1736 -0.2397 -0.2985
    1W        W33198  24.676  27.165   0.230  0.0919  0.0633 -0.1268
    1W        W33199  13.179  19.891   8.961 -0.0866 -0.3051 -0.2635
    1W        W33200   6.265  18.516   2.029 -0.2178  0.0635  0.0410
    1W        W33201   0.136  26.106   8.519 -0.0155 -0.1596  0.1881
    1W        W33202  22.251  27.937   0.400 -0.0807 -0.0546  0.3365
    1W        W33203  18.268  24.945   1.496  0.1455  0.3987 -0.2421
    1W        W33204  26.358  23.057   1.058 -0.1248  0.1403  0.1131
    1W        W33205   1.696  15.564   1.208  0.0618 -0.5417 -0.0608
    1W        W33206   0.984  25.719   2.767 -0.3835 -0.0229 -0.0606
    1W        W33207   6.963  13.662   2.854  0.0632  0.2747  0.1846
    1W        W33208   2.501  25.037   9.080  0.0745  0.0167  0.0659
    1W        W33209  22.276   8.839   2.604 -0.1069 -0.0051  0.0903
    1W        W33210   0.843  14.152   0.946 -0.0627 -0.0564  0.0397
    1W        W33211  14.689  16.146   9.069  0.4348  0.0182 -0.0566
    1W        W33212  21.097  16.174   1.188 -0.0431 -0.3696  0.0744
    1W        W33213  17.805  27.828   1.762 -0.0463 -0.1217 -0.1497
    1W        W33214  21.442  23.029   5.677 -0.1993  0.2998 -0.2582
    1W        W33215  22.584  28.810   8.490 -0.1016 -0.0798 -0.1109
    1W        W33216  23.908  26.469   2.372 -0.0811  0.0434  0.4303
    1W        W33217  18.173  24.484   8.584  0.3748  0.1380 -0.1864
    1W        W33218  10.507   8.913   8.232  0.0334  0.1056 -0.0558
    1W        W33219   1.586   3.834   2.537  0.2011  0.0166 -0.1408
    1W        W33220  21.584   0.597   8.271  0.1103  0.1586 -0.0333
    1W        W33221  24.057  15.634   1.652  0.1123  0.2353 -0.1094
    1W        W33222  18.154   1.636   6.724  0.0946  0.1020  0.0407
    1W        W33223   4.331  25.557   2.906 -0.2747 -0.0212 -0.1393
    1W        W33224  20.859  14.223   8.352 -0.0922  0.2206 -0.1704
    1W        W33225   6.669  12.203   8.059 -0.2359 -0.0835 -0.3898
    1W        W33226  27.727  15.648   0.891  0.2530  0.0194  0.1610
    1W        W33227  11.885  20.204   2.844 -0.2721  0.1829  0.0768
    1W        W33228  15.431   3.774   0.448 -0.1033  0.0087 -0.1401
    1W        W33229  24.229   7.823   2.775  0.3069 -0.1942  0.0126
    1W        W33230  19.158  21.110   8.455 -0.0280 -0.0596  0.0574
    1W        W33231   6.505  10.698   0.474 -0.0585 -0.1350 -0.3279
    1W        W33232  12.837  11.990   8.600  0.3465 -0.0717 -0.1459
    1W        W33233   3.860  10.526   7.233  0.2349 -0.0139  0.0721
    1W        W33234  10.458   6.839   8.054 -0.0910  0.0733 -0.2670
    1W        W33235  19.527  10.481   9.174  0.2033  0.0160 -0.3145
    1W        W33236   4.300  26.476   2.642  0.0436  0.1911  0.0512
    1W        W33237  10.628   7.451   1.220  0.3303  0.3202 -0.1279
    1W        W33238   3.069   5.114   0.862  0.1263  0.0105 -0.1746
    1W        W33239   9.628  23.031   2.016  0.0436  0.2448  0.1269
    1W        W33240  15.815  11.960   2.226 -0.1155  0.0070 -0.1448
    1W        W33241  28.202   0.983   1.384  0.1823 -0.1905 -0.2683
    1W        W33242  25.909  17.111   1.106  0.0664 -0.1622  0.1292
    1W        W33243  22.772   2.796   2.672  0.0810  0.0918 -0.3672
    1W        W33244  15.976   4.161   8.109  0.2690  0.0057  0.1399
    1W        W33245   2.408   0.560   9.209 -0.4827  0.4545  0.1048
    1W        W33246  23.490  26.819   9.044  0.5418  0.2440  0.3069
    1W        W33247  24.121   3.401   7.929 -0.2321 -0.2396 -0.0126
    1W        W33248  17.178  17.929   8.009  0.0496 -0.2173 -0.0496
    1W        W33249  20.612  16.647   0.636 -0.0083  0.1727 -0.0999
    1W        W33250  14.977   7.531   7.370  0.0807  0.0850  0.1145
    1W        W33251   4.069   4.701   6.621  0.0163  0.2285  0.1152
    1W        W33252  14.676  12.693   7.752  0.2119  0.1369  0.1700
    1W        W33253  28.674   0.966   2.229  0.0851 -0.0676  0.2691
    1W        W33254  15.113   3.503   0.150  0.3340  0.1354  0.0347
    1W        W33255  10.407  13.494   2.412 -0.0601  0.1724 -0.1433
    1W        W33256  27.482  12.038   0.562 -0.0913 -0.2428 -0.1108
    1W        W33257  22.382  14.702   6.181 -0.0988 -0.2356 -0.0059
    1W        W33258  16.111  26.221   0.640 -0.2360 -0.2022  0.2718
    1W        W33259  24.024  14.801   8.798 -0.0891 -0.0669 -0.1547
    1W        W33260  10.911  16.406   7.975 -0.3072 -0.0036 -0.0838
    1W        W33261   4.096  18.049   6.977  0.0137  0.1061  0.1366
    1W        W33262  12.460  10.578   9.290  0.1448 -0.0853 -0.3500
    1W        W33263  23.210  11.994   8.152  0.0418  0.2847  0.1670
    1W        W33264  13.734  11.646   0.700  0.4190 -0.1873 -0.1367
    1W        W33265   5.325   4.946   7.381  0.1917 -0.1431 -0.1348
    1W        W33266   9.202  13.410   7.645  0.1186  0.1882  0.0766
    1W        W33267  29.801  19.799   0.191 -0.0034 -0.4317  0.1803
    1W        W33268   9.255  19.500   8.216  0.0679 -0.1573 -0.0935
    1W        W33269  19.581  18.524   2.135 -0.0085  0.0953  0.2392
    1W        W33270  14.485   0.816   2.067  0.0098 -0.1769 -0.0941
    1W        W33271   5.284   1.909   0.012  0.2031 -0.0725  0.1355
    1W        W33272   6.868   1.034   7.505  0.1842 -0.1649  0.0456
    1W        W33273  11.855   5.849   3.335 -0.0805  0.0874  0.1115
    1W        W33274  17.934  22.127   7.497 -0.0488  0.1921 -0.0504
    1W        W33275  12.470  24.733   9.188 -0.0781  0.1877  0.1477
    1W        W33276  24.517  18.445   5.777  0.0178  0.2996 -0.1252
    1W        W33277  17.008  19.175   1.427  0.2788 -0.1479  0.4244
    1W        W33278   8.146  19.540   9.165  0.1918 -0.1931 -0.0640
    1W        W33279   7.567   9.319   0.209  0.1647 -0.1226  0.2801
    1W        W33280  21.319   9.006   6.645 -0.1984 -0.0531  0.0580
    1W        W33281  29.293  11.007   7.309 -0.1084  0.3258 -0.3124
    1W        W33282  28.967  26.015   2.000  0.3074  0.1579 -0.0779
    1W        W33283  18.782   8.390   7.983 -0.0668 -0.1031 -0.2535
    1W        W33284  25.028  28.122   6.922  0.1538 -0.0876 -0.1469
    1W        W33285  22.285  20.792   2.372 -0.2526  0.2162  0.0042
    1W        W33286  15.515  16.282   0.793 -0.2002  0.2483 -0.0082
    1W        W33287  26.669   0.140   7.944 -0.0623 -0.0117  0.1468
    1W        W33288  28.492  29.004   8.098 -0.0882  0.2514 -0.0631
    1W        W33289  15.954   3.694   2.441 -0.0936 -0.1930  0.0802
    1W        W33290  22.873  27.609   8.672 -0.4768  0.0957 -0.2296
    1W        W33291  27.952  27.398   1.344  0.0350  0.1987  0.1227
    1W        W33292  14.047  29.106   3.219 -0.0549  0.4269  0.0063
    1W        W33293   5.757  23.369   2.233 -0.1351  0.3597 -0.0014
    1W        W33294  11.074   8.449   8.812 -0.1793  0.0663 -0.0246
    1W        W33295  14.663   2.578   8.991  0.2331  0.2295 -0.2472
    1W        W33296  24.712   6.050   8.788 -0.3362 -0.1906  0.0603
    1W        W33297   1.004   6.121   0.042 -0.3640 -0.0358 -0.1305
    1W        W33298   7.763  28.401   1.228  0.0141 -0.2996 -0.2243
    1W        W33299   4.640  26.077   8.014  0.0391  0.1501  0.1612
    1W        W33300  29.452  28.820   6.804 -0.0123 -0.0559  0.1722
    1W        W33301  11.059  18.693   1.036  0.1877 -0.2369 -0.1191
    1W        W33302  26.325  23.228   0.076  0.1164  0.0606 -0.0277
    1W        W33303  29.507  22.510   0.338  0.1584  0.2129 -0.2837
    1W        W33304   4.883   1.003   1.099  0.2287 -0.0284  0.1504
    1W        W33305  27.345  23.313   1.875 -0.2822  0.1516 -0.3183
    1W        W33306  29.547  17.361   7.153  0.0276 -0.0620  0.0158
    1W        W33307  15.275  22.828   1.287 -0.3699 -0.0169  0.3778
    1W        W33308  26.419  11.019   7.523  0.1002 -0.0162 -0.0837
    1W        W33309  11.109   0.758   7.939 -0.1503  0.2424 -0.1708
    1W        W33310  19.909  13.258   0.144 -0.1561  0.2536 -0.2870
    1W        W33311  10.102  21.564   2.119  0.0852 -0.0998  0.2139
    1W        W33312  18.193   0.846   8.638 -0.3083 -0.2859  0.0934
    1W        W33313  11.774  19.780   2.285 -0.1224 -0.2890  0.2270
    1W        W33314   7.366  14.168   2.080 -0.0744 -0.1995  0.1699
    1W        W33315  15.373  12.283   2.173  0.2747 -0.2488  0.5138
    1W        W33316   8.976  25.798   0.892  0.2472 -0.2240  0.0732
    1W        W33317  16.637   1.350   8.469  0.2060  0.0101 -0.4855
    1W        W33318   3.448  28.833   6.812 -0.0122  0.3068  0.3028
    1W        W33319  28.046  20.195   6.573 -0.1395  0.1331  0.1635
    1W        W33320  19.094  24.959   2.900 -0.0629  0.1519 -0.0687
    1W        W33321  16.109  28.405   0.425 -0.2612  0.1824 -0.2105
    1W        W33322  22.640   2.989   0.817  0.1490 -0.1562 -0.2595
    1W        W33323  13.030  16.736   7.689 -0.0084 -0.1093 -0.0703
    1W        W33324   8.878   0.381   3.246 -0.2362  0.0583  0.1051
    1W        W33325  21.266   8.091   3.119 -0.2370  0.0625 -0.1743
    1W        W33326   9.220   8.655   9.458  0.1242 -0.0506  0.2082
    1W        W33327  26.240  15.865   5.415  0.1686 -0.0624  0.0790
    1W        W33328  22.000  21.225   6.560  0.0496 -0.1670  0.1148
    1W        W33329   6.779  19.609   2.069 -0.1537 -0.2668 -0.1760
    1W        W33330  24.036  20.882   8.237 -0.0441 -0.1517 -0.2360
    1W        W33331  25.299  12.546   6.273  0.4882  0.0952 -0.0963
    1W        W33332  12.359  10.406   0.204  0.2270 -0.0005  0.1041
    1W        W33333  10.211  10.001   7.642  0.1450  0.2374 -0.1906
    1W        W33334  15.056  23.956   8.265 -0.3153 -0.1399  0.0741
    1W        W33335  18.360  18.404   1.436  0.2498 -0.2134  0.0524
    1W        W33336   6.957   3.439   1.743  0.1444  0.0206 -0.1873
    1W        W33337  10.015   4.902   0.628 -0.2380 -0.3143 -0.1389
    1W        W33338   7.792   1.884   1.221  0.2178 -0.0450 -0.3383
    1W        W33339  14.887  15.538   1.234 -0.1243  0.0392  0.1123
    1W        W33340   2.806   0.244   7.161  0.0512 -0.0451  0.0805
    1W        W33341  23.432  11.915   6.554  0.0599  0.2973  0.0785
    1W        W33342  28.248  15.026   0.245 -0.1913  0.0585  0.0471
    1W        W33343  26.894  10.264   8.257  0.2657 -0.1163 -0.4472
    1W        W33344   1.018   1.917   9.493 -0.0119 -0.0200  0.0129
    1W        W33345  28.938  15.540   8.404  0.0047  0.3207 -0.0309
    1W        W33346  29.799  29.111   9.408  0.1192 -0.2843 -0.4685
    1W        W33347  25.825  15.433   6.374 -0.1623 -0.3129 -0.1004
    1W        W33348   9.997  17.264   1.773  0.0516 -0.1343 -0.2410
    1W        W33349  20.614  27.968   7.879 -0.0710 -0.0785 -0.5302
    1W        W33350  26.449   7.633   8.283  0.1256 -0.2602  0.2152
    1W        W33351  11.138   2.657   0.036 -0.0358 -0.0192  0.1667
    1W        W33352  14.934   5.634   7.606  0.0754 -0.0146  0.0084
    1W        W33353   5.314  15.493   0.218  0.1657  0.0140  0.0315
    1W        W33354  26.068   6.363   8.679  0.0251 -0.0105 -0.0976
    1W        W33355  18.530   0.168   8.250  0.1863 -0.0612 -0.1470
    1W        W33356  12.531  25.855   8.946 -0.1346  0.1911 -0.2345
    1W        W33357   1.512  29.503   2.139  0.0063  0.1647  0.2709
    1W        W33358   8.487  25.161   1.755  0.1588  0.1216  0.2726
    1W        W33359   8.718   0.304   2.733 -0.3244 -0.1094 -0.1153
    1W        W33360  13.051  14.068   0.851  0.1596 -0.1126 -0.0784
    1W        W33361  26.714   7.401   1.927  0.1516  0.0571 -0.2588
    1W        W33362  12.587  27.774   8.262 -0.1855  0.0266  0.0535
    1W        W33363  22.557  14.800   6.883 -0.0125 -0.2655 -0.1884
    1W        W33364  12.583  23.787   0.436 -0.0481 -0.0905 -0.1256
    1W        W33365   8.067  17.630   7.794  0.3706  0.3507 -0.4000
    1W        W33366  19.444   9.345   2.023  0.0129  0.1807  0.0491
    1W        W33367  11.460  16.484   6.952  0.3189 -0.2470  0.1014
    1W        W33368  23.725  24.756   3.036 -0.3224  0.0114 -0.4627
    1W        W33369  11.029  22.397   2.338  0.1275 -0.2481  0.3869
    1W        W33370  28.791   5.469   0.690  0.1444 -0.1438 -0.0612
    1W        W33371  15.770  10.843   7.141  0.2114  0.2937 -0.0156
    1W        W33372  23.812  15.943   5.613 -0.0982 -0.0226 -0.2168
    1W        W33373   7.541  10.864   2.633 -0.1683  0.0377  0.3291
    1W        W33374  26.490  13.747   1.715  0.2893 -0.2411  0.0906
    1W        W33375  22.925   3.340   2.919 -0.0857 -0.2393 -0.1385
    1W        W33376  24.053  17.776   8.166 -0.0386  0.5709  0.0264
    1W        W33377  21.192  22.803   8.204 -0.1785  0.3128  0.3475
    1W        W33378  14.196  12.772   6.871 -0.0315  0.0583  0.0498
    1W        W33379  27.133  18.052   8.757 -0.2086  0.0041 -0.1502
    1W        W33380   7.257   7.718   7.761 -0.0372  0.3981 -0.0719
    1W        W33381  16.391   8.774   7.655  0.1260  0.0042 -0.2952
    1W        W33382  24.137   5.773   7.954 -0.0961 -0.0141 -0.1354
    1W        W33383  27.347  18.835   1.252 -0.1023  0.0514  0.0439
    1W        W33384   1.301   5.256   9.150 -0.1541 -0.1598  0.0537
    1W        W33385  28.789  20.052   0.645 -0.1138 -0.0654  0.0529
    1W        W33386  16.032   0.135   1.687  0.4117  0.2039 -0.0112
    1W        W33387  12.583   9.570   1.738  0.1018  0.0942  0.1263
    1W        W33388   1.293   0.959   2.011 -0.1431 -0.3255  0.0701
    1W        W33389  21.451   0.184   7.262 -0.2475 -0.0131  0.0560
    1W        W33390  26.928   0.127   0.848  0.1363  0.2673  0.1854
    1W        W33391  27.552   2.941   7.542  0.2357  0.0978 -0.0833
    1W        W33392   7.937   6.621   7.820 -0.1587 -0.0919 -0.0046
    1W        W33393  27.611   7.605   0.762 -0.1489  0.1647  0.0590
    1W        W33394  12.272  28.192   3.125 -0.0727  0.1651 -0.0859
    1W        W33395   4.828  15.790   8.579  0.1468  0.1243  0.0479
    1W        W33396  14.465  28.262   8.440  0.3066  0.1906 -0.1515
    1W        W33397  15.217  26.428   0.355  0.1036 -0.2894 -0.4676
    1W        W33398  18.732  15.240   7.195  0.0155  0.0697 -0.1352
    1W        W33399   6.395   5.319   8.441  0.1385  0.2124 -0.0351
    1W        W33400  18.775  22.365   0.069  0.2322  0.1270  0.0615
    1W        W33401  25.184  25.422   2.480 -0.1307  0.2234 -0.0466
    1W        W33402  10.570  24.736   0.970 -0.1152 -0.2773 -0.3197
    1W        W33403  24.462   3.137   8.284  0.0690 -0.1501 -0.2541
    1W        W33404   5.034  12.397   8.751  0.0843  0.0963 -0.2303
    1W        W33405  25.773  25.975   1.920 -0.0143 -0.0895 -0.2049
    1W        W33406  15.216  17.333   2.626 -0.0282  0.0039  0.3652
    1W        W33407   4.728   5.892   1.479  0.3778 -0.1957 -0.2424
    1W        W33408  28.579  20.481   1.310  0.2080 -0.0248  0.1775
    1W        W33409  18.348   7.480   7.907  0.1612 -0.1569  0.2607
    1W        W33410  20.829  27.048   8.228  0.0237  0.0845  0.0353
    1W        W33411   6.894   6.703   6.718  0.1646 -0.0869 -0.1959
    1W        W33412   4.058   2.687   2.313  0.1181 -0.1239  0.0598
    1W        W33413  13.062  28.619   7.262 -0.0045  0.1429 -0.0677
    1W        W33414  10.052  25.901   1.793 -0.1862 -0.4354 -0.0378
    1W        W33415   7.762  16.268   7.288  0.2678 -0.3251 -0.1464
    1W        W33416  17.288  20.079   7.829 -0.1275 -0.2799  0.0373
    1W        W33417  27.694  16.819   7.236 -0.2056 -0.1789 -0.1215
    1W        W33418  20.480   0.895   3.029  0.0218 -0.3134 -0.0444
    1W        W33419  15.514  29.799   1.844 -0.0338  0.2500 -0.0733
    1W        W33420  14.848  27.402   6.117  0.2655  0.1445  0.1174
    1W        W33421  22.350  28.898   2.402  0.1869 -0.1024 -0.2492
    1W        W33422  25.789   7.026   2.120 -0.2090 -0.1130  0.3525
    1W        W33423  28.440  14.944   0.788 -0.2435  0.1664 -0.1570
    1W        W33424   4.710  27.916   9.295  0.0458  0.3233  0.2976
    1W        W33425  13.019   9.955   7.805  0.0880  0.1088  0.0659
    1W        W33426  20.782  17.281   6.190  0.1008  0.1372  0.0349
    1W        W33427   4.263  24.715   1.722 -0.0462 -0.2404 -0.2051
    1W        W33428   3.799  20.416   2.055 -0.0667 -0.2118  0.0619
    1W        W33429  22.680  16.362   9.282 -0.1173  0.2103  0.2837
    1W        W33430  18.468   0.545   1.083  0.1307 -0.2559 -0.0874
    1W        W33431   8.960   9.769   8.476 -0.1967 -0.0405  0.2195
    1W        W33432   2.031  12.997   8.649  0.1852  0.1922  0.0610
    1W        W33433  26.292   2.672   7.826 -0.2778 -0.2569  0.0230
    1W        W33434  23.356  18.565   8.574  0.1137  0.5275  0.1742
    1W        W33435   3.808  12.802   2.086  0.0409 -0.1326 -0.0690
    1W        W33436   6.644  27.848   2.121  0.0402 -0.1099 -0.1264
    1W        W33437  16.876   3.201   3.563 -0.3038 -0.2890  0.0308
    1W        W33438  14.113  11.996   6.564  0.0369  0.2203  0.0636
    1W        W33439  20.703   2.323   2.567  0.0016 -0.0144  0.2730
    1W        W33440  16.210   1.162   8.517  0.3197 -0.0043 -0.2954
    1W        W33441  25.649   7.272   7.364 -0.4482  0.2115  0.1194
    1W        W33442  18.449   3.251   2.890  0.3490 -0.0894  0.0597
    1W        W33443  23.057   2.502   2.929  0.0128  0.1993 -0.0425
    1W        W33444   6.416   2.681   2.884  0.0934  0.0878  0.0309
    1W        W33445  22.642  14.510   8.361 -0.1770  0.0458 -0.2018
    1W        W33446  24.860  16.546   7.729  0.1000  0.1882 -0.1381
    1W        W33447  29.262  12.785   0.638 -0.1677  0.3068  0.2164
    1W        W33448  27.005  15.020   6.612 -0.1502  0.1101 -0.0012
    1W        W33449  17.095  26.392   6.936  0.2156  0.0695 -0.0473
    1W        W33450   4.686   2.103   2.816  0.2702  0.0422 -0.2016
    1W        W33451  17.417  10.704   8.864 -0.0872 -0.0132  0.1074
    1W        W33452  15.805  29.130   0.850 -0.2113 -0.1132  0.1312
    1W        W33453  20.177  18.236   7.811  0.2948  0.3092 -0.1692
    1W        W33454   8.650   1.598   2.527  0.2975  0.2090 -0.1958
    1W        W33455  17.510  16.908   6.325  0.0927  0.0687  0.0876
    1W        W33456   9.786  21.149   0.411 -0.0633 -0.1389  0.0326
    1W        W33457  24.288  21.863   6.314 -0.1306  0.0426 -0.3582
    1W        W33458   5.104  24.032   8.219 -0.1581 -0.0373  0.1151
    1W        W33459   2.213  25.283   8.338 -0.3653  0.0908  0.0165
    1W        W33460   1.903  14.009   1.451  0.1263 -0.0351 -0.1757
    1W        W33461  12.731  16.613   1.634 -0.0192 -0.1487  0.1789
    1W        W33462  23.920  26.494   0.579 -0.2499  0.2322  0.1188
    1W        W33463  22.462   7.191   8.591  0.2169 -0.0914 -0.1231
    1W        W33464  21.502  25.757   8.327 -0.0174  0.1277  0.1379
    1W        W33465  17.787  24.714   2.589 -0.0280 -0.0158 -0.1342
    1W        W33466   6.805   2.775   8.367  0.0547 -0.0275  0.0798
    1W        W33467  17.112  16.976   0.854  0.2093  0.4017  0.1681
    1W        W33468  14.441  19.942   9.506 -0.1798 -0.0419 -0.0520
    1W        W33469  10.993  27.496   2.377  0.2884 -0.1999  0.1135
    1W        W33470  11.613  18.018   0.649 -0.1311  0.0465 -0.0198
    1W        W33471   9.079   6.474   2.756  0.1383  0.1776  0.0874
    1W        W33472   9.290  28.258   7.629  0.2174 -0.1055  0.1725
    1W        W33473  27.145  20.795   1.365  0.1980 -0.0589 -0.0359
    1W        W33474   2.021  28.069   9.305  0.0239  0.1257 -0.0920
    1W        W33475   9.641  29.619   7.768 -0.1171  0.0755  0.0993
    1W        W33476  14.648   0.651   7.710 -0.2044 -0.0164 -0.2354
    1W        W33477  28.404  15.771   8.522 -0.2202 -0.0918 -0.0160
    1W        W33478   7.226  28.016   7.554 -0.1240 -0.1324  0.0894
    1W        W33479  16.595   8.259   0.556  0.3537 -0.0295  0.1487
    1W        W33480  26.175   6.995   7.736  0.0605  0.4091 -0.0711
    1W        W33481  23.050   1.091   1.845  0.0621  0.1206 -0.0890
    1W        W33482   6.407  13.398   7.438 -0.1078 -0.2889  0.2612
    1W        W33483  24.195  19.429   6.087  0.0032 -0.0012 -0.0964
    1W        W33484  24.080   6.762   0.549  0.0885 -0.1773 -0.0989
    1W        W33485  20.845  21.801   8.004  0.1580 -0.1409  0.0121
    1W        W33486   3.083  21.354   7.483 -0.0989 -0.0562 -0.0724
    1W        W33487  15.539  20.948   7.448 -0.0651 -0.1434 -0.1726
    1W        W33488  18.678  11.875   7.324 -0.1076 -0.0761  0.2596
    1W        W33489   2.670  27.176   8.339 -0.1131 -0.0442 -0.2533
    1W        W33490   9.790  27.945   1.549  0.1855  0.1104 -0.2108
    1W        W33491   3.292   4.412   0.877  0.1470  0.1991  0.1774
    1W        W33492  17.075  19.147   6.732  0.0445  0.1073 -0.0660
    1W        W33493  18.488  10.140   8.093 -0.2186  0.1391 -0.2856
    1W        W33494  29.050  20.594   7.031  0.2013 -0.0814 -0.0317
    1W        W33495  20.738  25.726   0.446 -0.1760  0.1135  0.1384
    1W        W33496  12.254   5.287   9.149  0.0457  0.1321  0.1328
    1W        W33497   9.336   6.829   8.887  0.1301 -0.1775  0.0996
    1W        W33498  24.533  29.563   8.499 -0.2120  0.1625 -0.0666
    1W        W33499  24.469   0.470   0.695  0.0310 -0.1024  0.0916
    1W        W33500  19.988   2.327   3.223  0.0845 -0.2045 -0.1549
    1W        W33501  15.549  19.063   1.278  0.0647 -0.1601  0.2333
    1W        W33502  16.588  25.514   7.743 -0.2459  0.1129  0.2274
    1W        W33503  19.452  20.638   0.958  0.0828 -0.1695  0.1618
    1W        W33504  27.369   5.519   9.265  0.1999  0.1211 -0.0569
    1W        W33505  18.264  17.596   9.135  0.1587 -0.4701  0.0570
    1W        W33506  20.453  16.788   0.159  0.2249  0.0948 -0.1352
    1W        W33507   8.100  24.867   2.003  0.0400  0.0155  0.0438
    1W        W33508   1.013  22.084   8.883  0.0391 -0.0609  0.1061
    1W        W33509  23.760  14.794   5.680 -0.0839  0.1366  0.0987
    1W        W33510  19.859  27.499   7.943  0.4939 -0.0214 -0.1136
    1W        W33511  10.221  14.191   0.122 -0.0879  0.2242 -0.3051
    1W        W33512  20.307  22.402   8.720 -0.1684 -0.2627 -0.2148
    1W        W33513  12.004  21.962   1.773 -0.0849  0.2678  0.0290
    1W        W33514   4.720  23.832   1.287  0.1640  0.1969 -0.0616
    1W        W33515   9.870  22.297   7.425  0.1148  0.0053 -0.1454
    1W        W33516  16.614   0.448   2.798  0.2606 -0.1635  0.0117
    1W        W33517   8.151  20.947   7.215 -0.4116  0.2377  0.0933
    1W        W33518  26.422  26.824   8.427  0.1535  0.2056  0.1630
    1W        W33519  29.199  26.228   0.633 -0.0884 -0.0449 -0.0702
    1W        W33520  15.127  12.852   0.577 -0.1077 -0.0777 -0.0230
    1W        W33521  24.105  28.185   1.424  0.4241 -0.2626 -0.2329
    1W        W33522   2.963   6.344   7.714  0.2478  0.3367 -0.2452
    1W        W33523  13.826  27.794   0.891  0.1869  0.1649 -0.0938
    1W        W33524   7.986  19.989   1.341 -0.0868  0.2966 -0.0725
    1W        W33525  28.709  13.028   2.302  0.2293 -0.5883 -0.0739
    1W        W33526   9.395  12.267   1.687 -0.0928  0.0648 -0.0740
    1W        W33527   5.985   1.028   7.525 -0.0664 -0.1250 -0.1115
    1W        W33528  11.123  16.017   8.810 -0.1535  0.0567 -0.0076
    1W        W33529   1.020  26.079   0.183 -0.1038 -0.0998  0.0083
    1W        W33530  10.683   5.448   3.282  0.3022  0.1901 -0.2728
    1W        W33531   6.554  16.164   1.179 -0.1084 -0.0832  0.0825
    1W        W33532  22.511  15.194   5.988  0.0532 -0.1091 -0.0947
    1W        W33533   2.358  24.357   7.971  0.1762 -0.4047 -0.0025
    1W        W33534  26.727  11.101   7.152  0.2909 -0.0062 -0.3189
    1W        W33535  20.190  11.798   8.769  0.0719 -0.0177 -0.5165
    1W        W33536  25.678  10.931   0.020 -0.2597  0.1843 -0.0987
    1W        W33537   3.605  15.990   0.373  0.2505 -0.0851 -0.0730
    1W        W33538  18.392  22.646   8.993 -0.1230  0.0514 -0.1248
    1W        W33539  12.137   2.165   2.784 -0.1512  0.3673  0.2073
    1W        W33540   9.920  21.406   1.233 -0.1243  0.1003 -0.3318
    1W        W33541  28.986  10.328   0.468 -0.0539 -0.0221 -0.2910
    1W        W33542  29.487   7.341   1.167  0.1964  0.0464 -0.1854
    1W        W33543  19.946   1.450   9.139  0.3046  0.3564 -0.1898
    1W        W33544  13.224  14.868   0.120  0.1536  0.0774 -0.0866
    1W        W33545   6.993  11.951   2.024 -0.2195  0.1643  0.2360
    1W        W33546  19.176  15.877   1.883  0.0832 -0.0435  0.0104
    1W        W33547   3.571  23.154   0.565  0.1520 -0.1085  0.1289
    1W        W33548  17.243   7.122   0.408 -0.0329 -0.3137  0.3378
    1W        W33549  23.350  19.719   5.489  0.0268 -0.1279  0.2999
    1W        W33550  18.757  12.378   0.147 -0.3585 -0.0788  0.1344
    1W        W33551  26.873  24.441   1.510  0.1282  0.0049  0.0233
    1W        W33552   2.614  26.299   3.024 -0.3504  0.1139  0.0201
    1W        W33553  26.780   9.569   6.972  0.0534 -0.0998  0.1302
    1W        W33554   8.815  25.464   0.552 -0.0287 -0.3064 -0.2325
    1W        W33555   0.334   8.953   6.913 -0.0218  0.1487 -0.1890
    1W        W33556  18.653  24.460   8.679 -0.2270 -0.0428  0.0375
    1W        W33557  27.291  19.167   0.832  0.0972  0.0368  0.2569
    1W        W33558   2.968  15.070   9.004 -0.1355 -0.0080 -0.0276
    1W        W33559   5.919  11.152   7.699 -0.0262  0.0681  0.1350
    1W        W33560  12.796  19.575   0.756  0.0629  0.1279 -0.0190
    1W        W33561  21.133   2.380   2.120 -0.3627 -0.2029 -0.0693
    1W        W33562  23.666   2.121   7.591 -0.5275 -0.0401 -0.0514
    1W        W33563  12.020  11.771   1.708 -0.0173 -0.2826  0.0094
    1W        W33564  19.391  20.639   5.991 -0.1289 -0.3138 -0.2168
    1W        W33565  27.191   8.123   1.925 -0.1178  0.0148  0.0332
    1W        W33566   2.760  14.561   9.067 -0.2369  0.0348 -0.1771
    1W        W33567  16.457  19.431   9.189 -0.0799  0.2364  0.0990
    1W        W33568  29.538  20.575   2.096  0.0268 -0.3543 -0.1022
    1W        W33569  12.501   7.579   0.867  0.1272  0.1827 -0.0396
    1W        W33570  12.108   3.220   3.374 -0.0465 -0.3260  0.0970
    1W        W33571   4.229   3.977   7.617  0.2764  0.1503 -0.1732
    1W        W33572  11.871  21.151   2.587  0.0970  0.2960 -0.0047
    1W        W33573  20.638   0.239   7.963  0.0799  0.0282  0.0110
    1W        W33574  18.681   4.923   0.615 -0.2913  0.2684 -0.2405
    1W        W33575  18.145  11.673   0.488  0.3318 -0.1178 -0.0517
    1W        W33576  25.888   6.165   9.160 -0.0492  0.1158 -0.0571
    1W        W33577  10.640   9.843   7.855 -0.2918  0.0370  0.0131
    1W        W33578  25.955   2.446   9.363  0.1657  0.1417  0.0458
    1W        W33579  13.126   5.264   2.728  0.0042 -0.2622  0.2025
    1W        W33580  10.668  21.699   6.114  0.1384  0.2002  0.1025
    1W        W33581  22.451   4.053   0.943  0.3858  0.0290 -0.1972
    1W        W33582  10.810  26.017   9.312  0.2246  0.1549 -0.1560
    1W        W33583  19.089   5.111   8.418  0.0215 -0.1636  0.0590
    1W        W33584  27.504  12.161   6.713  0.1448  0.2579  0.0094
    1W        W33585  16.498   1.207   1.646 -0.2087  0.3402 -0.0314
    1W        W33586  28.095  12.747   1.547 -0.1201  0.1753 -0.0379
    1W        W33587  16.233  19.511   8.739  0.0526 -0.0178  0.0060
    1W        W33588   1.108   1.003   0.829  0.2064 -0.2815  0.1083
    1W        W33589  20.265  19.764   7.897 -0.1595 -0.2895  0.1805
    1W        W33590  21.876   4.744   3.431 -0.0256  0.2143  0.0799
    1W        W33591   2.768  18.110   7.125  0.2590  0.1200 -0.4216
    1W        W33592  11.095   5.936   0.223  0.1485  0.3361  0.1172
    1W        W33593   8.482   2.200   8.470 -0.0800  0.1732 -0.1665
    1W        W33594  23.257  16.876   6.225 -0.0181  0.2031 -0.0021
    1W        W33595   3.097  27.014   8.088 -0.1346 -0.0392 -0.3092
    1W        W33596  10.327  10.795   8.650 -0.3183  0.1845  0.0364
    1W        W33597  17.910  19.931   9.012  0.1371 -0.0252 -0.1242
    1W        W33598  27.964   7.619   0.326 -0.0956 -0.2180  0.2774
    1W        W33599   1.264   8.367   7.507 -0.2025 -0.0117  0.0415
    1W        W33600  23.728   3.623   8.619  0.2574  0.0046  0.1438
    1W        W33601   3.540  15.532   8.229  0.2455  0.0699  0.0472
    1W        W33602  20.556   4.584   8.006  0.0777 -0.0901 -0.1493
    1W        W33603  27.021  26.431   2.006 -0.0509  0.0595 -0.0665
    1W        W33604   6.798   4.435   8.804 -0.0796 -0.1400 -0.0257
    1W        W33605   4.933  10.055   1.974  0.2067 -0.1207  0.1175
    1W        W33606  23.287  27.256   1.646 -0.0126 -0.0339 -0.0195
    1W        W33607   6.437  18.346   8.753 -0.2821 -0.1788  0.1417
    1W        W33608  24.636  20.345   6.630  0.1053  0.1435 -0.1672
    1W        W33609  14.257  27.624   7.793 -0.0323  0.1513  0.3123
    1W        W33610   0.278   5.583   1.937  0.1163 -0.1626  0.1318
    1W        W33611  28.159  20.839   0.103 -0.0288  0.0203 -0.0951
    1W        W33612  14.001  20.948   2.695 -0.0291 -0.2364 -0.2132
    1W        W33613   5.789   6.731   7.371  0.0113 -0.0201 -0.1323
    1W        W33614  27.293  21.049   8.129 -0.2496  0.0287 -0.3430
    1W        W33615   9.838  22.697   2.492 -0.0451 -0.4202  0.2632
    1W        W33616  25.154  22.374   8.511 -0.1357 -0.3398 -0.0521
    1W        W33617  13.177  16.140   0.490  0.0295 -0.2281 -0.1095
    1W        W33618  25.412   8.570   1.000 -0.2729 -0.1514  0.0039
    1W        W33619   7.846  26.981   0.273 -0.2314 -0.0678 -0.1057
    1W        W33620   1.519  26.077   0.207 -0.1675 -0.1357  0.4084
    1W        W33621  25.008  25.710   2.860  0.1562 -0.0243  0.2406
    1W        W33622   6.473  21.080   6.721 -0.1940 -0.0364 -0.0374
    1W        W33623   2.542  25.519   0.898 -0.3809 -0.1840 -0.0935
    1W        W33624  25.110   5.869   7.240 -0.0793 -0.0696  0.3820
    1W        W33625  27.828   8.715   7.360 -0.0170  0.1333  0.1089
    1W        W33626  10.410  11.377   8.906  0.0758 -0.1210 -0.0497
    1W        W33627   0.816  12.479   7.826 -0.2279  0.0042  0.0063
    1W        W33628  26.240   4.153   7.067 -0.0461  0.1162 -0.2784
    1W        W33629   3.658   9.518   8.550  0.0578  0.0068  0.0640
    1W        W33630  20.112   9.895   6.327 -0.1760  0.3568  0.1839
    1W        W33631  25.935  18.821   1.492  0.1820  0.1856 -0.3570
    1W        W33632   3.691   6.142   1.520 -0.4233  0.0770 -0.1899
    1W        W33633  18.462  10.684   1.700  0.0907  0.2177 -0.0012
    1W        W33634  21.080  20.705   6.723 -0.2589 -0.0900 -0.4094
    1W        W33635   1.703  26.146   1.496  0.0756 -0.0026 -0.1946
    1W        W33636  17.098   4.854   0.735 -0.0106  0.0250 -0.2658
    1W        W33637   0.872   0.200   8.143  0.0866 -0.0012  0.0813
    1W        W33638   2.788  26.076   9.312  0.0269 -0.2615 -0.1208
    1W        W33639  22.610  11.562   8.878  0.2046  0.0719  0.4178
    1W        W33640  23.383   0.105   2.050  0.0514 -0.2097  0.0056
    1W        W33641   4.697   6.606   7.515 -0.1496  0.2238  0.2406
    1W        W33642  18.374  25.501   9.503  0.1439  0.3250 -0.2055
    1W        W33643  27.387  12.689   6.808  0.2840  0.0694 -0.1161
    1W        W33644   0.694  17.897   1.065  0.1170  0.1832 -0.0430
    1W        W33645   7.285   1.225   2.202 -0.2141  0.1054 -0.1758
    1W        W33646  29.731  25.371   9.410 -0.0954  0.2599 -0.0309
    1W        W33647  23.009  28.415   2.367 -0.1509 -0.2915  0.3002
    1W        W33648  18.424   9.207   1.774  0.3901  0.1149 -0.0081
    1W        W33649  22.517  15.044   8.541 -0.3653  0.0816  0.1858
    1W        W33650   3.674   6.911   0.927  0.1328  0.1518 -0.1183
    1W        W33651  11.678   0.215   8.201 -0.1211 -0.0220 -0.0197
    1W        W33652   2.419  28.457   6.401  0.1247 -0.1708  0.1256
    1W        W33653  25.206  25.929   0.045  0.3443 -0.0012 -0.1177
    1W        W33654  17.045  22.227   1.011  0.1145  0.0407  0.3083
    1W        W33655  29.672  23.434   8.637 -0.0704 -0.1433 -0.0561
    1W        W33656  10.108   6.053   0.324 -0.0009 -0.3819  0.4847
    1W        W33657  22.860   8.747   9.368 -0.0760 -0.1320 -0.2431
    1W        W33658   3.116  29.270   7.048  0.0216  0.1759  0.1859
    1W        W33659  16.507  23.343   1.345  0.2129  0.2246 -0.0501
    1W        W33660  10.747  29.712   2.663  0.1588  0.0281 -0.5152
    1W        W33661   5.389   1.566   0.442 -0.0822  0.2107 -0.0858
    1W        W33662   2.261  22.905   1.340  0.0107 -0.1768 -0.0165
    1W        W33663   7.884  16.604   8.962 -0.0625 -0.0179  0.4098
    1W        W33664  24.306   1.916   2.287 -0.0347 -0.0269  0.2554
    1W        W33665   8.802  28.454   9.261  0.1170 -0.0074  0.2373
    1W        W33666  16.107  26.778   7.696 -0.1348  0.0111  0.0375
    1W        W33667  22.670  26.084   1.109 -0.1228  0.1185  0.2860
    1W        W33668  23.819  13.572   8.478 -0.1847  0.0579 -0.0009
    1W        W33669  24.291  14.365   8.051  0.1303  0.0571 -0.0419
    1W        W33670  29.752   1.852   6.886  0.4010 -0.1422 -0.0818
    1W        W33671   4.032  28.572   6.933 -0.1803 -0.0625  0.0441
    1W        W33672  26.693   7.788   9.465  0.2624 -0.1166 -0.3911
    1W        W33673  23.865   9.755   8.302 -0.0525  0.1217 -0.2045
    1W        W33674  18.118  11.940   6.700 -0.0769 -0.1729 -0.0590
    1W        W33675  16.792   7.743   0.529 -0.3574 -0.3427 -0.0873
    1W        W33676   8.563  17.782   8.497 -0.1947 -0.1992 -0.2730
    1W        W33677  18.108   6.893   1.637 -0.1911 -0.2485 -0.1267
    1W        W33678  28.097  21.299   0.309 -0.0536  0.4145  0.2321
    1W        W33679  13.051  23.879   1.054 -0.1468 -0.2426  0.3829
    1W        W33680   8.244  29.285   8.643 -0.0584  0.0204  0.1421
    1W        W33681  23.695  11.601   8.857 -0.1042  0.1070  0.3690
    1W        W33682   3.391  29.344   1.184 -0.1230  0.1381  0.3275
    1W        W33683  14.184  12.696   2.286 -0.0213 -0.0796  0.0311
    1W        W33684  11.063  12.463   3.183 -0.1736  0.1709  0.3194
    1W        W33685   6.439   9.124   6.724  0.0946 -0.0179 -0.0086
    1W        W33686  12.972  15.831   9.288 -0.1939 -0.1696  0.0174
    1W        W33687  15.455  29.030   0.389 -0.2143 -0.1844 -0.0760
    1W        W33688  21.453   5.836   8.189  0.0761  0.1862 -0.1280
    1W        W33689  17.757   9.285   8.554 -0.2958  0.0263  0.2088
    1W        W33690  18.042  27.337   9.156  0.1278 -0.4581 -0.0134
    1W        W33691  25.362  22.802   7.228  0.1072  0.0953 -0.2189
    1W        W33692   5.955  16.723   0.955 -0.2242 -0.2540  0.3387
    1W        W33693  18.573  18.551   2.091  0.0704  0.0802 -0.0251
    1W        W33694  24.018  25.225   7.949  0.1310  0.4676 -0.1675
    1W        W33695  16.358  20.921   6.874  0.1373 -0.1118 -0.1685
    1W        W33696  28.461   8.828   7.323  0.0890 -0.1365 -0.1503
    1W        W33697  17.206  11.363   0.929  0.2727 -0.0303 -0.3074
    1W        W33698  21.200  28.566   1.866  0.1591  0.0101 -0.0383
    1W        W33699  11.240   8.797   1.270 -0.1134 -0.0845  0.0769
    1W        W33700  23.530   3.870   1.498  0.2225  0.2437  0.0819
    1W        W33701  27.193  25.718   7.631 -0.0928  0.1135  0.0556
    1W        W33702   7.765  22.839   3.039 -0.0362 -0.0725  0.1208
    1W        W33703  26.599   1.729   6.398  0.0340  0.0266 -0.0247
    1W        W33704   8.054  18.185   7.802  0.1641  0.2660 -0.0406
    1W        W33705  24.861  10.848   2.337  0.0793  0.0430  0.0106
    1W        W33706  20.856   9.328   8.526  0.1911  0.1034 -0.1503
    1W        W33707   4.252  21.628   8.200 -0.1130  0.0770  0.1267
    1W        W33708  27.271  11.409   6.899 -0.3185  0.1094  0.1227
    1W        W33709  29.402  15.558   9.468  0.0556  0.1294 -0.0911
    1W        W33710   8.512  26.719   0.802 -0.1977 -0.0712 -0.0715
    1W        W33711  26.843  29.462   7.881 -0.0591  0.2678 -0.0932
    1W        W33712  20.726   1.637   2.299 -0.2036  0.1073 -0.1253
    1W        W33713   7.901   6.070   0.747 -0.1083 -0.3972  0.0175
    1W        W33714  11.258  27.823   0.318  0.1808  0.1673 -0.1580
    1W        W33715  25.534   0.100   0.821 -0.3699 -0.2510 -0.3471
    1W        W33716  28.286   5.972   7.360 -0.0352  0.3537  0.0195
    1W        W33717  29.172  10.584   7.769  0.2449 -0.0368  0.3587
    1W        W33718   3.816   8.366   7.799  0.1428 -0.1674 -0.2863
    1W        W33719  10.761  27.401   8.252 -0.0215  0.2183 -0.3518
    1W        W33720  25.745  17.910   8.820  0.0915  0.1110  0.1179
    1W        W33721   5.183  29.512   7.256  0.1901  0.0778 -0.0145
    1W        W33722   9.384  18.053   7.809  0.0929  0.1730  0.0255
    1W        W33723  20.856  24.665   7.174 -0.0247  0.0554  0.0189
    1W        W33724  11.387  15.997   7.169  0.3016  0.2117  0.1656
    1W        W33725  23.668  25.932   2.134  0.0559  0.1909 -0.1913
    1W        W33726  14.562  22.611   7.874  0.1461 -0.1611 -0.1100
    1W        W33727  28.178  11.076   6.836 -0.1997  0.1588  0.2815
    1W        W33728  16.320   0.295   8.724 -0.4240 -0.2808  0.1211
    1W        W33729  18.542   0.224   7.117  0.1359  0.2011  0.1817
    1W        W33730  17.692  19.240   7.881  0.0665 -0.3578 -0.1533
    1W        W33731  19.966   7.849   2.833 -0.1903  0.1225 -0.1250
    1W        W33732  22.935  20.829   1.848  0.1493  0.1779  0.3513
    1W        W33733  15.804   6.823   0.537  0.1256  0.2250 -0.2275
    1W        W33734  13.548  17.680   8.936 -0.0095 -0.1937 -0.2352
    1W        W33735  27.573  25.088   1.488 -0.0836 -0.3101  0.1376
    1W        W33736  25.135  14.307   7.509  0.2447  0.1244  0.0731
    1W        W33737  28.626  11.049   9.058  0.0506  0.1669 -0.0190
    1W        W33738   4.981   2.260   0.674  0.0486  0.0031  0.1467
    1W        W33739  15.003   6.360   1.554 -0.0440 -0.1819  0.0686
    1W        W33740  19.242  24.277   8.586  0.1711  0.0591  0.0688
    1W        W33741  26.211   1.162   8.557 -0.0907  0.1355 -0.2307
    1W        W33742   5.587  22.781   9.180  0.0214  0.2851 -0.0256
    1W        W33743   1.063   4.052   9.280 -0.0485 -0.3955  0.0850
    1W        W33744  20.179  19.442   0.489  0.1638 -0.0461  0.4513
    1W        W33745   2.713  22.462   0.268 -0.0743 -0.2034  0.2080
    1W        W33746  27.246  24.446   7.938 -0.0208  0.4652  0.0557
    1W        W33747   7.356  12.039   9.291  0.4149  0.1496  0.2982
    1W        W33748  10.648  23.553   1.419 -0.0257  0.2633  0.0874
    1W        W33749  28.281  17.151   1.589  0.0610 -0.1492  0.1946
    1W        W33750   5.542   4.103   7.184  0.0771 -0.1564 -0.0618
    1W        W33751  15.851  23.680   9.177 -0.0273  0.0098  0.1223
    1W        W33752  25.635   4.424   8.576  0.0985 -0.1493 -0.0118
    1W        W33753   0.877  18.416   7.690  0.1479  0.1499  0.0042
    1W        W33754  25.283  18.196   5.449  0.2599  0.0632 -0.2474
    1W        W33755   5.320  15.569   9.296 -0.1082  0.4147  0.4505
    1W        W33756  15.669  14.984   1.600  0.0089 -0.0564  0.1474
    1W        W33757   0.946   7.270   1.648 -0.1181 -0.2072  0.0513
    1W        W33758  10.518  14.158   9.274 -0.2493 -0.0761 -0.2350
    1W        W33759  19.826  29.436   3.584 -0.0067  0.0070 -0.2337
    1W        W33760  16.789   7.263   0.586  0.0064  0.1443 -0.0687
    1W        W33761  16.729  28.002   9.201 -0.0349 -0.0011  0.1334
    1W        W33762   4.384  20.153   1.326 -0.0450 -0.1137  0.2538
    1W        W33763   1.574   7.646   0.304  0.1503  0.2854 -0.0134
    1W        W33764  28.948  12.508   6.337  0.0682 -0.0380  0.3767
    1W        W33765  15.575   7.528   8.956 -0.1807  0.1963  0.2537
    1W        W33766  23.906  12.714   6.601  0.0663 -0.1641  0.2101
    1W        W33767   6.234   8.727   0.946 -0.1148 -0.1801  0.1712
    1W        W33768   3.900  15.317   6.589  0.3779 -0.0260 -0.0867
    1W        W33769   1.682  15.658   0.391 -0.0034 -0.0125 -0.0990
    1W        W33770  15.001  26.362   8.239 -0.0106  0.0018 -0.2987
    1W        W33771  19.778  10.833   6.734 -0.2595  0.1044  0.2076
    1W        W33772   0.073  15.125   7.455 -0.1739  0.0611 -0.0198
    1W        W33773  13.352  24.756   1.935 -0.2205  0.0016 -0.1250
    1W        W33774  15.748  22.823   8.544 -0.0386 -0.0395 -0.0180
    1W        W33775  19.233  11.925   7.257 -0.0093 -0.1174 -0.2707
    1W        W33776  29.311   2.289   1.729  0.0710 -0.2217  0.1249
    1W        W33777   6.426  11.714   8.096 -0.1474  0.1695 -0.0701
    1W        W33778   6.078   1.325   0.681 -0.0900  0.1666  0.1428
    1W        W33779  27.443  10.548   7.277  0.0255 -0.0961 -0.3169
    1W        W33780   6.236  10.897   9.381  0.3246 -0.0296 -0.0765
    1W        W33781  14.823  19.283   2.766 -0.1227  0.0690  0.2134
    1W        W33782   9.909  23.650   7.367 -0.2973 -0.1730  0.0596
    1W        W33783   1.543  28.548   6.085  0.0068  0.1986  0.1478
    1W        W33784  11.187   8.467   2.590  0.2222 -0.1064 -0.2783
    1W        W33785   2.187  28.625   9.179  0.0670 -0.0973 -0.0623
    1W        W33786  10.064  12.070   2.407 -0.1509  0.1008  0.1231
    1W        W33787   0.320  18.866   8.938  0.1501  0.0344  0.3500
    1W        W33788  27.970  17.734   5.867  0.2385 -0.2443  0.1204
    1W        W33789  16.256  13.973   6.310 -0.1089  0.2079  0.0106
    1W        W33790   0.162  21.816   1.041  0.2391 -0.1066 -0.0728
    1W        W33791  27.188  15.429   1.208 -0.0086 -0.0016  0.4725
    1W        W33792  27.124  29.154   7.363  0.0389 -0.1749 -0.0458
    1W        W33793  28.767   7.293   0.202 -0.1326  0.2443  0.2246
    1W        W33794  23.026  26.688   9.338  0.3199 -0.0932 -0.0829
    1W        W33795   8.777  24.089   7.466 -0.0051  0.0945  0.0533
    1W        W33796  27.066  25.042   0.835 -0.0235 -0.1940 -0.0939
    1W        W33797   4.650  14.727   7.792 -0.0926  0.0286 -0.0486
    1W        W33798  24.581  26.084   1.748  0.0353 -0.1251  0.0553
    1W        W33799  10.157  22.836   2.144 -0.0582 -0.3543 -0.1202
    1W        W33800   6.559  18.864   7.828 -0.1084  0.0312  0.1977
    1W        W33801   6.117  29.362   7.898 -0.0163 -0.4105 -0.1621
    1W        W33802  22.551  28.359   1.201 -0.1448 -0.0499 -0.1076
    1W        W33803   9.541   7.148   7.921 -0.1048  0.2461 -0.3417
    1W        W33804  21.919   2.001   3.330 -0.0059  0.2045  0.2081
    1W        W33805  27.813  22.087   5.907 -0.2227 -0.2940  0.0918
    1W        W33806  16.508  14.258   7.881 -0.1319 -0.0629  0.2440
    1W        W33807  15.934  14.972   2.120  0.1867  0.1794  0.2450
    1W        W33808  19.293   4.670   1.615 -0.1502 -0.4274  0.1372
    1W        W33809  13.149   2.598   1.208 -0.0323  0.1457 -0.4709
    1W        W33810   7.924  27.559   9.174 -0.3664 -0.2029  0.3597
    1W        W33811   2.356  18.130   7.592  0.1779  0.0107 -0.2130
    1W        W33812  10.124  20.507   1.986  0.2998 -0.0575 -0.3295
    1W        W33813  20.417  25.317   0.665 -0.1887  0.0158 -0.0045
    1W        W33814   4.898   2.345   8.170 -0.0951 -0.1294 -0.0902
    1W        W33815   2.929   5.842   7.753 -0.0282 -0.1866  0.2044
    1W        W33816  19.496   9.892   1.800  0.2979 -0.1831 -0.0373
    1W        W33817   2.690  25.504   8.374 -0.0212 -0.4784  0.2611
    1W        W33818  16.945  24.147   0.512  0.1532 -0.0484  0.2996
    1W        W33819   2.367   7.410   1.311 -0.1416 -0.0782 -0.1977
    1W        W33820  28.010   6.363   8.549  0.2544 -0.0002  0.0063
    1W        W33821  26.826   2.430   2.467 -0.0023  0.3577  0.2946
    1W        W33822  10.286  25.283   6.457 -0.1658 -0.0551  0.0299
    1W        W33823  29.114  11.698   2.607 -0.0474  0.2462  0.2172
    1W        W33824  22.058   1.726   8.811 -0.0938  0.2484 -0.0539
    1W        W33825  27.675  10.952   9.342  0.0904  0.1922 -0.1932
    1W        W33826  22.294   7.959   2.916  0.0201  0.0962 -0.0758
    1W        W33827  22.767  13.908   1.207 -0.0250 -0.0534  0.1020
    1W        W33828  21.479  19.179   6.416 -0.0949 -0.1523 -0.1089
    1W        W33829  13.192  28.949   7.720  0.0197 -0.2273  0.0420
    1W        W33830  21.453  27.721   0.873 -0.2318  0.1190  0.3189
    1W        W33831  29.422  22.741   6.997  0.1686  0.0267  0.0293
    1W        W33832  27.056  21.385   6.444  0.1417  0.2934  0.0939
    1W        W33833  13.711  12.221   0.533 -0.0316 -0.1496 -0.1886
    1W        W33834  16.580  26.494   1.320  0.1581  0.0610  0.0277
    1W        W33835   7.521   9.242   6.703 -0.0308 -0.2182  0.0772
    1W        W33836  14.663   3.796   0.056  0.0710 -0.1102 -0.0810
    1W        W33837   9.218   6.987   7.497 -0.0746  0.1552 -0.1383
    1W        W33838   7.455  21.621   7.133 -0.0496  0.0771 -0.0588
    1W        W33839   6.046   2.297   8.109  0.3972 -0.3586 -0.1600
    1W        W33840  21.355  14.456   6.606  0.2345  0.1779 -0.0980
    1W        W33841  23.257  27.417   0.148  0.1524 -0.0498  0.0798
    1W        W33842  26.022  29.765   7.937 -0.0344 -0.1099  0.0363
    1W        W33843  20.291  26.812   0.914 -0.0638  0.0966 -0.2245
    1W        W33844   7.224  13.329   2.455 -0.0707  0.0690 -0.0765
    1W        W33845   6.954   7.326   9.159 -0.0483  0.1425  0.0728
    1W        W33846  21.486  20.807   0.221  0.4051 -0.3267  0.1355
    1W        W33847   7.427   3.639   1.530 -0.0265  0.1280  0.0900
    1W        W33848  22.067   4.286   2.505 -0.1036  0.0602  0.0628
    1W        W33849  29.369  21.895   8.805  0.0409  0.0813 -0.1055
    1W        W33850  28.732   6.966   3.138  0.1007 -0.1667 -0.3488
    1W        W33851   2.936  10.576   8.702 -0.0675 -0.2319  0.2167
    1W        W33852  27.283   7.890   9.398  0.1272  0.2305 -0.1458
    1W        W33853   6.735  16.980   8.011  0.2310 -0.1833 -0.1857
    1W        W33854   4.503  16.587   9.008  0.1539  0.0492  0.3514
    1W        W33855  17.733  28.724   1.233  0.2992  0.1384  0.2170
    1W        W33856  28.211   7.363   7.103 -0.1686 -0.1567  0.0359
    1W        W33857   4.494  28.803   7.042 -0.3588  0.1181  0.1991
    1W        W33858  25.896  15.640   7.221  0.3403  0.0391  0.0091
    1W        W33859  11.221  19.952   2.344 -0.0608  0.0463  0.0817
    1W        W33860  15.675  27.363   2.728 -0.0804 -0.0118 -0.1653
    1W        W33861  16.726  26.289   0.901  0.0798  0.1053  0.1509
    1W        W33862  29.596  26.491   1.317 -0.0232 -0.1695 -0.1638
    1W        W33863  21.838   2.274   3.711  0.0037 -0.1121  0.2116
    1W        W33864  24.658   8.092   3.186 -0.0484 -0.1368 -0.0899
    1W        W33865  18.444   8.746   1.513  0.1788 -0.2163 -0.0326
    1W        W33866  20.987  25.481   8.097 -0.3150  0.2294 -0.2405
    1W        W33867   8.567   2.454   3.707  0.3535  0.2354 -0.1433
    1W        W33868   5.763  18.323   0.490 -0.0633  0.2003  0.0970
    1W        W33869   7.828  22.378   2.736 -0.3174 -0.0870 -0.0742
    1W        W33870  17.987   2.597   8.987 -0.5321  0.0354 -0.1746
    1W        W33871   4.909  15.288   7.352 -0.2815  0.1108 -0.0733
    1W        W33872   2.925  12.038   8.951  0.0267  0.0133  0.0589
    1W        W33873  27.099  11.947   0.266  0.3660 -0.0056  0.0927
    1W        W33874  17.552  15.043   2.050  0.2264 -0.0746  0.0085
    1W        W33875   8.010  15.583   8.396  0.0018  0.1516 -0.1717
    1W        W33876  13.509   7.124   7.901  0.4187 -0.2878  0.0494
    1W        W33877  16.819   2.318   8.159 -0.0818  0.1143 -0.1204
    1W        W33878   9.812  26.417   7.598  0.0215  0.0495  0.3440
    1W        W33879  17.795  14.976   1.618  0.0724  0.2017 -0.1079
    1W        W33880  14.721   3.227   0.054  0.1676  0.1611  0.0016
    1W        W33881   4.634  21.970   8.135 -0.1194  0.3914  0.0157
    1W        W33882  10.882  27.497   2.999  0.1353 -0.1100 -0.0302
    1W        W33883  16.282  27.647   1.517  0.0788 -0.0221  0.2049
    1W        W33884   4.327  29.082   7.959 -0.4897  0.2354  0.0454
    1W        W33885  14.013   4.856   1.493 -0.0793  0.1274  0.1456
    1W        W33886   2.303  10.177   1.434 -0.0025 -0.0455 -0.5465
    1W        W33887  18.600  12.703   0.992  0.0023 -0.1414  0.0511
    1W        W33888  27.550   8.311   9.212 -0.2602  0.0578  0.0967
    1W        W33889   7.739  19.449   2.055 -0.0322 -0.0022  0.1422
    1W        W33890  23.406  28.545   0.731  0.4182  0.0440 -0.0115
    1W        W33891   0.105  16.053   0.706  0.1290 -0.0180 -0.1234
    1W        W33892  11.801  10.166   6.624  0.3306  0.1554  0.2155
    1W        W33893  20.167   2.709   1.839  0.2130 -0.1676  0.0106
    1W        W33894  21.408   7.495   1.245 -0.1102  0.0038 -0.3306
    1W        W33895  12.218  24.289   9.114 -0.2468  0.1056 -0.0868
    1W        W33896  23.419  10.408   9.363  0.1205 -0.1434  0.2507
    1W        W33897  20.596  13.938   7.574 -0.1338 -0.0357  0.3281
    1W        W33898   0.482  18.540   2.105 -0.1529 -0.2237 -0.1555
    1W        W33899  18.711  22.166   2.349  0.0128 -0.0578  0.0877
    1W        W33900   4.146  26.304   6.372 -0.0308 -0.0420  0.2341
    1W        W33901  10.457  16.372   8.202 -0.4163  0.0585  0.1268
    1W        W33902   2.836  11.071   0.793  0.3966 -0.0155  0.0705
    1W        W33903  11.800  24.152   1.766  0.1609  0.0273  0.3190
    1W        W33904   0.795  14.604   6.715 -0.0171 -0.0267  0.3255
    1W        W33905  12.548   2.778   8.212  0.0137 -0.1627 -0.2855
    1W        W33906  18.758   0.232   8.750  0.0235 -0.0519  0.1451
    1W        W33907   5.955  15.538   8.623  0.3297 -0.4056 -0.5235
    1W        W33908  26.424   9.576   1.199 -0.2819 -0.1863 -0.2142
    1W        W33909  19.601   0.565   3.115  0.1432 -0.1051  0.2800
    1W        W33910  22.863  29.161   9.439  0.1756 -0.1612 -0.3051
    1W        W33911   1.966  28.262   2.137 -0.1514 -0.1278  0.0819
    1W        W33912  20.204   4.258   8.746 -0.1778  0.4323  0.0347
    1W        W33913   3.023  10.001   7.279  0.2305  0.0226  0.1239
    1W        W33914   3.881   7.803   7.032 -0.6957  0.0581  0.2723
    1W        W33915   7.361   5.226   0.318  0.2133 -0.0164  0.0548
    1W        W33916  29.171  14.279   7.609 -0.2580  0.0979 -0.0591
    1W        W33917  23.019  22.459   6.834 -0.0610  0.1142  0.1030
    1W        W33918   2.592  11.578   9.435  0.1092  0.0002  0.0387
    1W        W33919  22.237   5.489   3.027  0.0978 -0.2068  0.2209
    1W        W33920  21.512  25.959   7.380 -0.0877  0.0942  0.1253
    1W        W33921   7.519  16.185   1.087  0.1092  0.0052  0.0047
    1W        W33922  25.400  12.429   1.388 -0.3629 -0.1181 -0.3649
    1W        W33923  21.134   5.919   3.032 -0.2074  0.0836  0.0968
    1W        W33924  15.229  23.541   3.276 -0.0776  0.1136  0.1655
    1W        W33925  15.389  29.071   2.351  0.0374 -0.0130  0.1085
    1W        W33926   6.584  24.835   9.250 -0.0735  0.0889  0.1947
    1W        W33927  19.199  15.349   1.661 -0.0655  0.3594 -0.3561
    1W        W33928   2.265  27.430   0.758 -0.1679  0.1988  0.3060
    1W        W33929  19.638   2.465   8.776  0.1226 -0.0217  0.1610
    1W        W33930  20.135  29.575   1.204 -0.0229 -0.5106  0.1861
    1W        W33931  13.081  28.999   2.798 -0.1554  0.0341  0.1808
    1W        W33932  15.641  25.865   8.046 -0.0960 -0.0245 -0.2433
    1W        W33933  15.928  17.817   1.997  0.2842  0.0820  0.0556
    1W        W33934   4.598  13.283   7.519 -0.2616  0.0567  0.0969
    1W        W33935   7.470  26.920   3.447 -0.0217  0.2232  0.0506
    1W        W33936  22.336  18.948   6.780 -0.1328  0.3054  0.0647
    1W        W33937  26.098  14.072   8.480 -0.1815 -0.0538 -0.1866
    1W        W33938  29.498   5.395   6.907 -0.1439 -0.0240  0.1263
    1W        W33939   3.799  27.730   0.925 -0.0376 -0.1463  0.0348
    1W        W33940   4.329  13.004   0.659  0.2439  0.2324 -0.2428
    1W        W33941   5.110   7.735   8.548 -0.3116  0.2017 -0.0805
    1W        W33942   2.855  19.669   7.983 -0.0794 -0.4679 -0.3232
    1W        W33943  22.680  28.245   7.742  0.0395 -0.0754  0.1465
    1W        W33944  16.666  19.746   0.853  0.1843 -0.2345  0.4522
    1W        W33945  21.979  25.274   6.628 -0.0863 -0.0513 -0.0311
    1W        W33946  14.052  16.120   7.290 -0.0667  0.2531  0.0780
    1W        W33947  23.415   0.941   2.201 -0.0616  0.2145  0.2401
    1W        W33948   0.101  15.807   1.169 -0.0695 -0.1098 -0.1003
    1W        W33949   8.614  28.869   0.752  0.0053 -0.0966 -0.1970
    1W        W33950  17.771  17.569   1.916  0.1881 -0.0680  0.0695
    1W        W33951  28.207   4.821   8.250 -0.2683 -0.1708  0.0341
    1W        W33952  22.159  10.156   1.613 -0.3147 -0.1270  0.0527
    1W        W33953  11.213   4.828   9.242  0.2541  0.2405 -0.4579
    1W        W33954  16.580  11.575   6.401  0.3472  0.0069  0.0035
    1W        W33955  18.205   1.363   1.731 -0.0243  0.4181 -0.0571
    1W        W33956  21.372   7.394   0.473 -0.1982 -0.0356  0.0115
    1W        W33957  17.557   6.772   0.257  0.0192  0.1370  0.0355
    1W        W33958  17.384  28.200   2.681  0.1398  0.2913  0.0328
    1W        W33959  11.348   1.188   7.315 -0.2237 -0.3038  0.1049
    1W        W33960  15.130  18.427   1.823  0.3660  0.1107 -0.0486
    1W        W33961  22.449   3.934   2.522 -0.1536 -0.1606  0.0517
    1W        W33962   6.305  24.447   0.679  0.2072 -0.0875 -0.1922
    1W        W33963  24.471   6.655   7.603 -0.0159 -0.1641 -0.3305
    1W        W33964  11.100   9.731   2.281 -0.1943 -0.2099 -0.2480
    1W        W33965  13.035  22.196   8.415  0.0224 -0.2070  0.4371
    1W        W33966  22.253  23.836   6.676 -0.2873  0.0257  0.1665
    1W        W33967  19.683  19.903   0.058 -0.1528 -0.1500  0.0953
    1W        W33968  12.450  25.118   2.890  0.1942  0.2061  0.1977
    1W        W33969  19.403  22.926   8.027 -0.1822 -0.1135  0.2845
    1W        W33970   5.548   3.201   7.248 -0.1175 -0.3233 -0.0141
    1W        W33971   3.016  22.995   2.354 -0.2351 -0.2435  0.0342
    1W        W33972   4.421  18.616   9.146  0.0428  0.0371  0.2139
    1W        W33973   7.616  14.065   1.022 -0.1346 -0.1816  0.2459
    1W        W33974  22.553  14.540   9.552 -0.0279 -0.1478  0.2387
    1W        W33975  12.485   6.040   7.053  0.3432 -0.4702 -0.3544
    1W        W33976  10.251  21.445   1.648  0.0110 -0.0108  0.0983
    1W        W33977  23.382  14.864   6.491  0.2538  0.0237 -0.0663
    1W        W33978  15.445   7.716   8.191  0.2972  0.0059 -0.1729
    1W        W33979  13.170  24.617   8.149  0.1633  0.0272  0.0615
    1W        W33980  16.135   5.208   1.658 -0.0465  0.2682  0.1558
    1W        W33981  27.418   6.313   0.879  0.3104 -0.1437  0.0208
    1W        W33982  25.097  27.729   8.289  0.0242 -0.2814 -0.0407
    1W        W33983   5.478   8.784   8.763 -0.0122 -0.0639 -0.0966
    1W        W33984  10.150  15.343   8.250 -0.3250  0.1564  0.0955
    1W        W33985   4.832   7.100   2.338 -0.2168 -0.2206  0.3662
    1W        W33986  21.260  25.938   2.086  0.1282 -0.2128  0.2754
    1W        W33987  11.248   7.288   0.797 -0.3704 -0.0127 -0.0787
    1W        W33988  16.294   7.784   0.581  0.1262 -0.0069  0.0392
    1W        W33989  11.272  29.139   9.462  0.1564  0.0300  0.0911
    1W        W33990  19.391  20.237   7.947  0.1486  0.3515 -0.0189
    1W        W33991  29.231  13.698   9.248  0.2419 -0.1860 -0.0082
    1W        W33992  11.992   1.850   7.737  0.0036 -0.0673 -0.2305
    1W        W33993  24.781  27.660   7.363 -0.0302 -0.0748  0.3728
    1W        W33994   6.043  29.251   0.487  0.1938  0.0132  0.0474
    1W        W33995  17.608   3.138   1.661 -0.1371  0.0499 -0.4032
    1W        W33996  12.411   8.014   1.102  0.1690 -0.0195 -0.2652
    1W        W33997  14.294   9.402   2.250 -0.3005 -0.1975  0.1562
    1W        W33998  25.507  29.575   3.883 -0.2632 -0.0490 -0.2044
    1W        W33999  15.025  12.421   2.557  0.2630 -0.2474  0.2164
    1W        W34000  21.815   4.796   6.805 -0.1806 -0.2216 -0.1177
    1W        W34001   0.381   5.623   7.984 -0.0682 -0.0654 -0.2305
    1W        W34002   0.552  29.567   7.924 -0.3273  0.4106 -0.0455
    1W        W34003  17.639  21.416   8.368 -0.1271  0.0362 -0.0612
    1W        W34004  15.412   8.090   1.135 -0.0069  0.3998  0.1542
    1W        W34005  23.500  29.650   2.717 -0.2585 -0.1647  0.1920
    1W        W34006   0.704  21.818   1.148  0.1058 -0.0351 -0.0597
    1W        W34007   6.594   3.416   9.320 -0.2870  0.2524  0.0311
    1W        W34008   4.147  28.564   1.436 -0.1230  0.0410  0.0734
    1W        W34009   1.191  26.252   2.804  0.2544 -0.2454 -0.2766
    1W        W34010  18.427  21.846   9.379  0.0733  0.0249  0.0089
    1W        W34011  20.806   3.897   3.821  0.1725 -0.2795  0.0501
    1W        W34012  12.395  17.436   0.665  0.1613  0.2068  0.1574
    1W        W34013   9.344   2.990   2.878  0.0493 -0.0522 -0.0903
    1W        W34014  15.890   5.089   0.132 -0.1433 -0.0713 -0.0224
    1W        W34015  17.733  22.026   2.844  0.0255  0.1318 -0.1434
    1W        W34016  24.481  11.418   0.382  0.4701 -0.0490 -0.0455
    1W        W34017   2.006  27.520   8.529  0.3611  0.0242  0.3374
    1W        W34018  13.124   1.975   7.888 -0.0659 -0.3256  0.1617
    1W        W34019  29.763   3.782   8.205  0.2231  0.1547  0.0824
    1W        W34020  24.898  10.572   9.128  0.1583  0.3247 -0.0175
    1W        W34021  13.971   2.127   9.213  0.1166 -0.2375  0.1270
    1W        W34022  21.722   5.334   1.357  0.2014  0.0401  0.2596
    1W        W34023  20.957  10.390   6.769  0.0351 -0.0086  0.1194
    1W        W34024  18.476   7.986   8.088  0.3143  0.0157 -0.1899
    1W        W34025  17.354  23.291   9.106  0.1595 -0.3159 -0.1203
    1W        W34026  29.413  15.440   1.114  0.1253 -0.1271 -0.1014
    1W        W34027  12.583   9.052   0.703  0.3829  0.0362  0.1602
    1W        W34028  10.436   5.472   8.443  0.1745 -0.0107 -0.1498
    1W        W34029   9.676  13.876   7.966  0.0017 -0.0013 -0.1321
    1W        W34030  22.074  10.945   0.274 -0.2149 -0.0726 -0.2685
    1W        W34031  10.037  16.990   1.238 -0.1064 -0.0935 -0.2071
    1W        W34032  11.927  21.656   0.931 -0.1233  0.4283 -0.0153
    1W        W34033  13.989  24.321   8.441 -0.1678  0.1220  0.1099
    1W        W34034   6.672  25.526   6.774  0.0742 -0.0554 -0.2472
    1W        W34035  19.211  14.533   0.953 -0.1102 -0.0087  0.4960
    1W        W34036   2.848   4.512   1.803 -0.0080 -0.2879  0.3598
    1W        W34037  24.753  24.618   0.635  0.1815  0.2560 -0.1075
    1W        W34038   8.804  19.398   0.371  0.3078  0.1459  0.3046
    1W        W34039   6.613   0.298   0.160  0.2227 -0.0830 -0.3810
    1W        W34040  12.929  13.258   7.822 -0.0167  0.0411 -0.3517
    1W        W34041   9.370   0.757   0.593  0.0334  0.0870 -0.2328
    1W        W34042  16.118   4.104   0.504 -0.0092  0.2802  0.1862
    1W        W34043  20.947   8.675   6.628 -0.0010 -0.1474 -0.0665
    1W        W34044  18.482  22.108   0.341 -0.1423  0.0368  0.3949
    1W        W34045  22.928  14.740   5.877  0.3419  0.0900  0.2028
    1W        W34046  17.250  11.728   6.608  0.2214 -0.0514  0.3915
    1W        W34047  17.484   7.448   0.004  0.1482  0.0547 -0.0146
    1W        W34048  28.476  12.084   9.414  0.0369 -0.1206  0.1801
    1W        W34049  18.346  26.795   9.073 -0.0425  0.3458 -0.1827
    1W        W34050  12.403  25.846   2.089  0.1291  0.0551 -0.0829
    1W        W34051  14.570  24.416   2.513 -0.0030  0.2377 -0.1933
    1W        W34052   8.854  22.707   2.818  0.1766 -0.4142  0.1214
    1W        W34053  20.809  12.335   0.245 -0.0392  0.1491  0.0249
    1W        W34054   0.287  18.340   7.068  0.0797 -0.0030  0.1073
    1W        W34055   0.197   6.546   3.044  0.1521  0.3531  0.1549
    1W        W34056  27.115   8.257   7.663 -0.2772 -0.0085 -0.0992
    1W        W34057   8.757   2.260   7.990  0.0343  0.0189 -0.2201
    1W        W34058  12.843  17.844   2.035 -0.1661 -0.0315 -0.0308
    1W        W34059  16.321  12.565   8.190  0.2535 -0.2252  0.0147
    1W        W34060  19.203  24.117   2.467  0.1057  0.1675  0.2499
    1W        W34061  29.398   4.559   6.483 -0.0004 -0.1347 -0.0081
    1W        W34062  25.741   3.270   7.094 -0.1334 -0.0155  0.0011
    1W        W34063  25.268  11.105   7.935  0.1248 -0.0059 -0.0737
    1W        W34064   5.067   5.357   0.356 -0.0748 -0.1584  0.1861
    1W        W34065   4.601  27.488   8.957 -0.5071  0.0890  0.1888
    1W        W34066  14.946  20.877   3.137  0.2373  0.0233  0.1245
    1W        W34067  24.944  12.254   1.228 -0.1260 -0.0117 -0.2220
    1W        W34068  25.358   6.929   0.854 -0.2504 -0.1708  0.3302
    1W        W34069  27.225   0.636   0.686  0.3629 -0.0476  0.2712
    1W        W34070  13.954  16.423   8.368 -0.0169 -0.0979 -0.1213
    1W        W34071   4.211   1.085   6.126  0.1173  0.1222  0.0145
    1W        W34072   9.385  15.517   1.378  0.0187 -0.0414 -0.3298
    1W        W34073   3.715   8.736   2.071 -0.4322  0.0193  0.0834
    1W        W34074  24.986  16.153   8.098  0.0169 -0.3536 -0.2812
    1W        W34075  27.058   4.708   7.211  0.2476  0.3212  0.1262
    1W        W34076  11.117  11.345   0.712  0.0935  0.0906 -0.0266
    1W        W34077  23.441  22.786   9.431  0.0891 -0.1081 -0.0143
    1W        W34078  19.237   2.781   2.448 -0.3021 -0.1844  0.1058
    1W        W34079  23.864   9.914   5.536  0.2956 -0.4252 -0.0738
    1W        W34080  10.103  11.346   8.464 -0.1363  0.0651  0.0165
    1W        W34081   5.987  11.866   2.897 -0.4829  0.1624 -0.0902
    1W        W34082   5.354  23.618   2.518 -0.1013  0.0633  0.1844
    1W        W34083   8.288  20.706   1.825 -0.2165  0.2277  0.0093
    1W        W34084  20.529   2.929   8.326  0.1264  0.0278 -0.3744
    1W        W34085   2.597  21.733   1.695  0.2642  0.2924  0.2001
    1W        W34086  17.362  11.290   0.443  0.2589 -0.1068 -0.2964
    1W        W34087  13.459   1.196   1.188  0.2560 -0.2384 -0.0029
    1W        W34088  17.323  21.778   9.422 -0.2410  0.0169  0.1566
    1W        W34089  18.483  26.133   3.450 -0.1158 -0.1106  0.3592
    1W        W34090  12.502  15.012   7.003 -0.1280  0.0083 -0.1896
    1W        W34091   4.501   5.394   0.823 -0.2093 -0.2020  0.1684
    1W        W34092   1.332  29.355   3.159 -0.1410 -0.1649  0.1282
    1W        W34093  20.077  26.649   6.933 -0.0118 -0.0015  0.2768
    1W        W34094  24.624  14.546   1.024 -0.0365  0.3299 -0.0375
    1W        W34095   5.688  15.035   0.898 -0.1390  0.0766  0.1582
    1W        W34096  15.939  26.410   2.084 -0.3767  0.1921  0.0446
    1W        W34097  26.798  15.674   6.175 -0.4230  0.0440 -0.0946
    1W        W34098   8.102  17.830   8.684  0.0805 -0.0754  0.2592
    1W        W34099  19.233  28.866   3.057 -0.3500 -0.1069  0.1112
    1W        W34100  24.895   8.765   6.280 -0.0308  0.1268 -0.2474
    1W        W34101  24.049  22.307   0.342 -0.1807 -0.2184  0.1888
    1W        W34102   0.789  16.694   1.218 -0.1233  0.0387  0.0828
    1W        W34103   3.232  24.219   1.579 -0.0761  0.0978  0.0745
    1W        W34104   8.955  26.496   1.643 -0.1588 -0.2061  0.1075
    1W        W34105  10.368   7.640   2.143  0.1238  0.2057 -0.0481
    1W        W34106   8.923  27.304   3.066 -0.2885  0.1982 -0.0208
    1W        W34107  24.341  26.253   2.548  0.1066 -0.0808 -0.0056
    1W        W34108  19.774   5.522   7.594  0.2308  0.1248  0.1033
    1W        W34109   7.364  20.221   0.346  0.1190 -0.0813  0.0839
    1W        W34110   8.931  10.239   1.037 -0.2448  0.2054  0.2434
    1W        W34111  12.364   4.482   1.695 -0.0314 -0.1719 -0.0715
    1W        W34112  18.231  10.842   8.235 -0.3512  0.0751  0.1082
    1W        W34113   0.098  27.961   2.426  0.3296  0.3229  0.0706
    1W        W34114  21.228  16.811   8.267  0.1983 -0.1557 -0.1478
    1W        W34115  14.791  18.493   7.238 -0.0547 -0.0795  0.1894
    1W        W34116   2.423  15.640   9.489 -0.1438 -0.0834  0.1660
    1W        W34117  20.039  14.850   1.426  0.0624  0.2732 -0.3245
    1W        W34118  18.028  19.177   1.480  0.1937 -0.2428 -0.0181
    1W        W34119  23.556  24.585   0.887 -0.0940 -0.0824 -0.0230
    1W        W34120  22.619  18.167   7.304 -0.4008 -0.2332  0.0385
    1W        W34121  21.260  17.927   7.835  0.2017  0.0815 -0.0850
    1W        W34122  26.945  21.717   6.806  0.0861 -0.0975 -0.2045
    1W        W34123  22.855  17.982   5.775 -0.3114  0.0359 -0.0494
    1W        W34124  15.341  14.689   0.937  0.1803 -0.2760 -0.0627
    1W        W34125   7.074  12.916   7.313 -0.0152  0.0718  0.0106
    1W        W34126  17.334  13.395   8.764  0.2338  0.1961 -0.0222
    1W        W34127   8.177  28.144   1.488  0.4357 -0.0629  0.0268
    1W        W34128  22.792  29.623   0.871 -0.1793  0.1048  0.5566
    1W        W34129  16.908  17.778   1.145  0.1742  0.0259 -0.1364
    1W        W34130   4.097  21.672   9.310 -0.4005 -0.1475  0.3388
    1W        W34131   9.207  12.215   2.713  0.2284 -0.3598  0.1065
    1W        W34132   5.325  15.653   1.886 -0.1522 -0.0784 -0.0238
    1W        W34133  29.336  27.455   3.190 -0.4694  0.2451  0.0257
    1W        W34134   4.650  19.274   1.834  0.3376  0.0086  0.0415
    1W        W34135   2.195  29.307   7.059  0.2641 -0.1290  0.0833
    1W        W34136  19.149   1.271   2.974 -0.1938  0.0374 -0.1243
    1W        W34137  20.896  19.967   8.039 -0.1588 -0.2372  0.1254
    1W        W34138   8.661  10.628   0.233  0.0630 -0.1087  0.0106
    1W        W34139   9.506  28.012   8.070 -0.0820  0.0779  0.1147
    1W        W34140  28.951  19.815   9.371 -0.1107 -0.2749 -0.2898
    1W        W34141  15.054  26.856   2.618 -0.1768  0.2003  0.0804
    1W        W34142   6.425  22.397   7.573  0.0327 -0.1061  0.1534
    1W        W34143  16.564  12.135   8.061 -0.0070  0.2713 -0.2921
    1W        W34144  14.446  21.349   2.029  0.0160  0.2957 -0.2390
    1W        W34145  16.595  25.295   3.500 -0.1411 -0.1483  0.2929
    1W        W34146   7.938  22.229   7.726  0.3116 -0.1206  0.0965
    1W        W34147  24.832  12.124   7.628  0.1243 -0.0484 -0.1526
    1W        W34148   4.276  15.020   8.552  0.1728  0.0703  0.1235
    1W        W34149  13.529  21.660   2.246 -0.1273 -0.0127  0.1549
    1W        W34150  25.381   8.985   6.457  0.1200  0.2965  0.1628
    1W        W34151  11.477   6.141   9.277 -0.1086 -0.2178 -0.1333
    1W        W34152   9.886  19.668   7.845  0.1311 -0.3871  0.1324
    1W        W34153  21.924  27.992   0.801  0.2436  0.1840  0.0457
    1W        W34154   6.423  26.810   0.627  0.0259 -0.0497  0.1639
    1W        W34155  11.755   5.124   2.661 -0.1449 -0.1904  0.1199
    1W        W34156   1.733  26.032   7.971 -0.0782 -0.1503 -0.0241
    1W        W34157   5.709  12.009   2.552  0.1087 -0.1209  0.2085
    1W        W34158  16.672  13.261   7.981 -0.0453 -0.0125  0.0350
    1W        W34159   8.577  29.745   9.527 -0.0537  0.2632 -0.2304
    1W        W34160  21.829  14.465   1.286 -0.1808  0.0382 -0.1683
    1W        W34161  17.463   2.875   1.138  0.1312 -0.1263  0.0833
    1W        W34162  25.139  26.255   8.675 -0.1510 -0.0520  0.2488
    1W        W34163   8.874   7.053   1.914  0.1212 -0.0879  0.2013
    1W        W34164  21.990  27.496   8.646 -0.0699  0.1994 -0.0175
    1W        W34165   1.810  25.800   3.161  0.1007 -0.2055  0.0737
    1W        W34166  17.919  10.686   2.538 -0.2775 -0.1504 -0.1080
    1W        W34167  29.444  18.040   7.780  0.2502 -0.0958  0.0328
    1W        W34168   8.272  25.836   8.136  0.1744 -0.2480  0.0958
    1W        W34169  20.184  21.153   5.660 -0.3082  0.1730 -0.3276
    1W        W34170  18.368  25.477   1.393  0.1143  0.0272  0.0501
    1W        W34171   1.497   0.125   9.322 -0.3750 -0.2237  0.0038
    1W        W34172   7.973   5.969   1.313  0.2441  0.0358 -0.0107
    1W        W34173   2.129   4.354   3.177  0.2865  0.0203 -0.3003
    1W        W34174  24.898  21.826   1.027  0.0298 -0.0529  0.2110
    1W        W34175  14.296   7.046   2.226 -0.0153  0.0302  0.2009
    1W        W34176  26.707   7.180   6.716  0.0191 -0.2654 -0.1590
    1W        W34177  25.740   3.460   7.654 -0.2296  0.2406  0.1351
    1W        W34178  26.089   0.457   1.811  0.1968 -0.0408  0.1991
    1W        W34179  18.843  12.244   9.247 -0.1693  0.2584  0.1881
    1W        W34180  21.151   8.975   1.821 -0.2085 -0.0420  0.1261
    1W        W34181  12.927  22.473   7.629  0.0004 -0.1195  0.0226
    1W        W34182   4.507  22.675   9.350 -0.1205  0.0618 -0.1579
    1W        W34183  15.614   4.246   0.451  0.1903 -0.1199  0.2631
    1W        W34184  28.424  19.499   6.988 -0.2901 -0.0289  0.2985
    1W        W34185  18.971  13.625   7.085 -0.0056 -0.0502  0.2340
    1W        W34186   6.631  17.567   2.251  0.4310  0.0584  0.0041
    1W        W34187  22.290   4.309   8.233  0.1516 -0.3160  0.2049
    1W        W34188   7.082  11.969   7.869 -0.2508  0.2219 -0.2140
    1W        W34189  26.401  11.182   6.824  0.1851 -0.1747  0.1874
    1W        W34190  25.269  11.027   0.648  0.0093 -0.1609 -0.1129
    1W        W34191  10.882  22.858   2.365  0.2079  0.2441 -0.1043
    1W        W34192   2.155   9.275   9.514  0.0025  0.1915  0.2488
    1W        W34193  29.328  26.752   7.453  0.1309  0.1954  0.1562
    1W        W34194   4.259   8.432   9.322 -0.1157  0.0740 -0.2792
    1W        W34195  16.778   0.730   1.475  0.1915  0.0464 -0.2652
    1W        W34196   1.115  16.702   7.145 -0.0933 -0.0469  0.0143
    1W        W34197  27.981  28.984   8.173 -0.0292 -0.2156 -0.1224
    1W        W34198  13.317  27.179   6.916  0.0049 -0.3314  0.1352
    1W        W34199  23.480   0.162   8.412  0.0800 -0.1559  0.0118
    1W        W34200   9.472   2.454   1.510  0.0357  0.0833  0.2978
    1W        W34201   0.892  17.921   8.855 -0.0979 -0.1634 -0.0915
    1W        W34202  14.279  14.785   9.276  0.0708 -0.0270 -0.0201
    1W        W34203  26.671   2.490   7.426 -0.1914 -0.0230 -0.2521
    1W        W34204   2.313  20.571   8.179 -0.0229  0.2750 -0.3892
    1W        W34205  16.271  28.914   2.183  0.1377 -0.2391  0.0758
    1W        W34206   1.252  16.230   6.948 -0.1032  0.2592 -0.3349
    1W        W34207   7.533  13.010   7.422  0.0328 -0.0301  0.2832
    1W        W34208  14.499  29.259   8.231  0.2592 -0.3487  0.0495
    1W        W34209  18.137  16.181   0.673 -0.0100 -0.0149 -0.2019
    1W        W34210  26.646   3.949   0.628  0.0554 -0.0303 -0.0406
    1W        W34211  10.921  12.204   7.847  0.2550 -0.0767 -0.0267
    1W        W34212  21.639  16.075   8.247 -0.0967 -0.0208  0.0560
    1W        W34213  28.811  22.049   8.804 -0.1732  0.2029 -0.0440
    1W        W34214  28.857  24.263   6.519 -0.1477  0.1204 -0.1299
    1W        W34215   0.307  20.707   8.995  0.2872 -0.2726  0.2080
    1W        W34216  17.954  29.400   0.041 -0.0368 -0.1819 -0.0256
    1W        W34217  20.693   8.795   0.986 -0.1093 -0.0652  0.1903
    1W        W34218  13.520  12.106   9.245 -0.0656  0.0026  0.2117
    1W        W34219  21.250   4.840   1.865  0.1199  0.0586 -0.2315
    1W        W34220   3.615  27.948   0.398 -0.1192 -0.2268  0.2000
    1W        W34221   0.660   3.917   7.725  0.1471  0.0447 -0.0094
    1W        W34222   5.495  10.241   6.757  0.2169  0.0880 -0.3183
    1W        W34223   4.083  10.685   2.270  0.0825 -0.1368 -0.1551
    1W        W34224   6.097   3.451   6.441  0.1472  0.0412  0.2048
    1W        W34225  21.028   5.031   2.821 -0.2310  0.1503 -0.2563
    1W        W34226  28.851  22.208   1.516 -0.1446  0.2782  0.2962
    1W        W34227   7.271  12.425   8.010 -0.1793 -0.1464  0.0911
    1W        W34228   9.648   7.246   1.702 -0.1322  0.1363 -0.2666
    1W        W34229   0.069  10.110   2.360 -0.1503  0.1613  0.0423
    1W        W34230  16.892  15.929   1.742 -0.1273  0.0331  0.0968
    1W        W34231  27.183  26.456   0.391  0.2790  0.2628  0.1766
    1W        W34232  27.541  28.219   8.000 -0.3520  0.1710  0.1352
    1W        W34233  20.615  13.288   1.875  0.1219 -0.1944  0.3237
    1W        W34234  22.466  15.602   8.462 -0.0163 -0.2584  0.0848
    1W        W34235  29.098  28.326   0.784 -0.1474  0.0149  0.1033
    1W        W34236  18.402  27.413   8.698  0.0080 -0.0640  0.1774
    1W        W34237   7.774   8.019   2.241 -0.0283 -0.4002 -0.1131
    1W        W34238  20.436   1.635   1.891 -0.1985  0.1938 -0.0074
    1W        W34239  21.266   7.596   7.551  0.3187  0.1588 -0.2696
    1W        W34240  21.218  28.552   7.415 -0.1576 -0.3112  0.2173
    1W        W34241   4.453  27.990   2.286 -0.1495  0.4435 -0.0219
    1W        W34242  23.356  28.705   2.568 -0.0720 -0.6215  0.0121
    1W        W34243  15.031   1.059   7.719 -0.2014 -0.0716 -0.0932
    1W        W34244  20.447  24.504   2.039  0.0042 -0.1519  0.2051
    1W        W34245  21.831   7.098   2.663 -0.1165  0.1072  0.0767
    1W        W34246  12.474   8.735   9.162  0.1987  0.2286  0.0714
    1W        W34247  27.918  26.426   2.147 -0.1716  0.3699 -0.2812
    1W        W34248  20.515  18.696   7.098 -0.1711 -0.0323 -0.0939
    1W        W34249  23.232  27.476   7.774  0.4573 -0.0256 -0.0157
    1W        W34250  22.132  12.173   1.539 -0.0487 -0.1609 -0.3376
    1W        W34251  15.758  10.208   7.911  0.2320  0.0207  0.0578
    1W        W34252  26.821  27.940   2.862 -0.0603 -0.1856  0.1353
    1W        W34253  26.411  14.474   8.777 -0.1624  0.2296 -0.0558
    1W        W34254   5.436  24.103   0.562  0.1176  0.1802 -0.0273
    1W        W34255  28.926  13.604   6.399 -0.0910 -0.0916  0.1331
    1W        W34256   1.381  24.826   7.305  0.2730 -0.2709  0.1496
    1W        W34257   1.237  13.879   2.321 -0.0757 -0.0155 -0.2674
    1W        W34258  16.000  19.988   6.889  0.0022 -0.0799 -0.1744
    1W        W34259  20.759  18.109   8.946  0.0131  0.1757 -0.1691
    1W        W34260  26.457  20.269   0.813 -0.0145 -0.2664  0.0300
    1W        W34261  12.348   3.307   7.899  0.0681  0.1062 -0.0644
    1W        W34262   5.667  23.587   8.885 -0.0176  0.0435 -0.1492
    1W        W34263   1.868  25.822   1.080 -0.1479 -0.0068  0.0144
    1W        W34264  16.585  18.704   6.363 -0.1408  0.3209 -0.2065
    1W        W34265  20.585   1.858   2.775 -0.1453  0.1856  0.0321
    1W        W34266   8.207  12.264   9.085 -0.3239 -0.2464 -0.0489
    1W        W34267  18.734   8.876   6.574  0.1658  0.1399  0.0543
    1W        W34268  12.246  12.258   1.748  0.1320 -0.0530  0.2744
    1W        W34269   5.994   6.537   8.581 -0.0354 -0.1308  0.0981
    1W        W34270  15.435   5.409   2.533 -0.1114 -0.2566 -0.1487
    1W        W34271  14.690   4.565   8.886  0.3494 -0.3353 -0.0897
    1W        W34272  24.555  17.799   1.192 -0.1263  0.0069 -0.0234
    1W        W34273  27.233  10.373   9.405 -0.0618  0.0725  0.1245
    1W        W34274  22.488   9.757   7.990  0.2150  0.2424  0.0587
    1W        W34275  23.346  27.313   0.768  0.0816  0.1004  0.2137
    1W        W34276  26.550  11.901   8.575  0.0099 -0.3293  0.1872
    1W        W34277   8.597  27.754   1.593 -0.2973  0.0961  0.1025
    1W        W34278   1.906   4.051   0.186 -0.0893 -0.0427  0.0114
    1W        W34279   6.453  25.599   7.257  0.0155 -0.1021  0.0666
    1W        W34280  19.616  22.837   0.868  0.2316  0.0394 -0.1292
    1W        W34281  18.406   6.451   1.126  0.0813 -0.2665 -0.0397
    1W        W34282  16.876   3.487   2.144 -0.0375  0.1521 -0.1810
    1W        W34283  27.922  20.365   5.793  0.2581  0.1025 -0.0254
    1W        W34284   2.026   7.327   0.836 -0.0033  0.4457 -0.1157
    1W        W34285   1.788  12.606   8.452  0.1949 -0.1441  0.2614
    1W        W34286   6.804   7.335   2.882  0.1378  0.0080 -0.1382
    1W        W34287  27.356   1.466   0.023 -0.0447 -0.2167 -0.1227
    1W        W34288  28.073  25.046   1.856  0.0362  0.2038  0.0004
    1W        W34289   6.643  20.133   7.209 -0.2725  0.0818 -0.0267
    1W        W34290   4.693  15.562   7.762  0.1888  0.1385  0.0435
    1W        W34291  17.289  23.821   9.131 -0.3226  0.0611  0.0604
    1W        W34292  15.709  14.769   6.795 -0.1917  0.1687 -0.0321
    1W        W34293   4.286  17.408   6.434 -0.2383  0.1221  0.3278
    1W        W34294  25.380   0.487   8.717 -0.0543  0.0227 -0.1136
    1W        W34295   2.532  21.558   0.112  0.1127  0.1178 -0.0041
    1W        W34296   0.179  21.687   7.057  0.4090 -0.1508 -0.4976
    1W        W34297  25.298  21.487   0.129 -0.0120 -0.2865 -0.1419
    1W        W34298  28.972  19.008   8.920  0.2081  0.3249 -0.1484
    1W        W34299  26.012  24.497   8.685  0.1714  0.0443  0.2679
    1W        W34300   9.983  10.156   0.263 -0.5010  0.0271 -0.1099
    1W        W34301  10.336  18.749   8.201 -0.0404  0.1362 -0.2224
    1W        W34302  22.126  24.202   6.947 -0.1719 -0.0946  0.0158
    1W        W34303  12.853   3.797   2.434 -0.0213  0.0909  0.0185
    1W        W34304  23.390   6.157   3.034 -0.2722 -0.1258 -0.0432
    1W        W34305  13.832   4.683   0.988  0.0983 -0.1050 -0.0438
    1W        W34306  20.163  13.486   1.968  0.3366 -0.3221  0.0277
    1W        W34307  25.388   5.268   2.857 -0.0239 -0.1519 -0.0208
    1W        W34308  28.620  19.479   7.484  0.1065 -0.1822 -0.2106
    1W        W34309  14.238  13.003   1.572 -0.1635 -0.0026  0.0390
    1W        W34310   2.662  15.804   8.650 -0.0216  0.0095 -0.2636
    1W        W34311  22.182   6.766   9.194  0.0894  0.2231 -0.1936
    1W        W34312  13.738  21.248   2.432  0.2715  0.0428  0.0781
    1W        W34313  12.075  23.236   1.743  0.1791  0.0267 -0.1304
    1W        W34314   5.162  27.525   8.559  0.1218 -0.2665  0.1523
    1W        W34315  10.585  11.228   2.098 -0.1756 -0.0724 -0.0178
    1W        W34316  15.241  24.128   2.206  0.0473 -0.2471  0.0818
    1W        W34317  26.241   0.129   8.795  0.1194 -0.0827 -0.0192
    1W        W34318  28.149  15.315   8.665  0.0599  0.0211  0.1029
    1W        W34319  27.300  19.107   8.048 -0.3087  0.1434  0.1617
    1W        W34320   4.654  20.850   1.682 -0.0343 -0.0489  0.0892
    1W        W34321  25.592  28.425   2.462  0.1869  0.1789 -0.1305
    1W        W34322  10.753  18.911   0.044 -0.4135 -0.3055 -0.1785
    1W        W34323  23.788  13.436   1.051 -0.2213 -0.1626 -0.1289
    1W        W34324  22.884  22.922   8.771  0.0366 -0.2736  0.1606
    1W        W34325  23.027  18.938   6.508  0.3568  0.1735  0.2283
    1W        W34326  24.142   4.109   0.528  0.1723 -0.1279  0.2118
    1W        W34327  18.546  20.180   7.906 -0.2968 -0.0679 -0.0739
    1W        W34328  26.674   3.166   8.532  0.0911 -0.3375 -0.1640
    1W        W34329  20.762  19.031   8.288  0.0190 -0.0641  0.0852
    1W        W34330  20.912  16.408   7.054 -0.2546 -0.0614  0.5547
    1W        W34331  16.763  18.980   8.412  0.0270 -0.0559  0.3250
    1W        W34332   4.243  17.088   8.840  0.1255 -0.4420 -0.2498
    1W        W34333  14.309  14.638   2.728 -0.0273 -0.0946 -0.0596
    1W        W34334  25.240   3.963   1.631 -0.1305  0.3907  0.0526
    1W        W34335  20.066  24.420   9.050  0.0420  0.1507  0.3814
    1W        W34336  18.085  28.580   8.027 -0.1333  0.0228 -0.3066
    1W        W34337  22.159  24.264   6.436  0.0133 -0.0386 -0.0096
    1W        W34338  25.642  17.519   8.528 -0.5292 -0.1094  0.0211
    1W        W34339  20.571  27.268   7.771 -0.1215 -0.1003 -0.0245
    1W        W34340  10.412  13.953   7.609 -0.2461  0.2847  0.0866
    1W        W34341  15.843  21.553   0.615 -0.1326  0.2026 -0.0186
    1W        W34342  23.852  15.132   8.028  0.0832  0.0686 -0.1624
    1W        W34343  11.716   0.911   0.493 -0.0515 -0.1325  0.1954
    1W        W34344  14.990  28.985   7.488 -0.0370  0.2162  0.3164
    1W        W34345  17.047  19.709   8.978 -0.0618 -0.1209 -0.0583
    1W        W34346  22.667   6.730   2.620 -0.2551  0.2486 -0.1936
    1W        W34347   0.443  12.334   0.442  0.3343 -0.2117 -0.0463
    1W        W34348   8.303   5.080   7.528  0.1994 -0.0924  0.2585
    1W        W34349  11.396   8.858   7.444  0.2445  0.2248 -0.1297
    1W        W34350  20.243  19.674   9.107 -0.0956 -0.1377 -0.0282
    1W        W34351  17.546  15.500   1.056 -0.0960  0.1494 -0.1252
    1W        W34352   4.942  22.029   7.601  0.1339  0.1553  0.2865
    1W        W34353  23.723  19.342   8.574 -0.0004 -0.2644  0.0734
    1W        W34354  21.255   8.713   6.236  0.0048 -0.0798 -0.0125
    1W        W34355   3.729   5.131   8.125 -0.0042  0.0484 -0.1285
    1W        W34356  25.914  25.254   3.129 -0.1088 -0.0355 -0.3198
    1W        W34357   1.045   3.266   6.561  0.1518  0.1238  0.2765
    1W        W34358  17.478   8.440   6.667 -0.2065  0.2412 -0.4048
    1W        W34359  12.083  23.522   0.223  0.1599 -0.1727  0.2708
    1W        W34360  20.893  26.070   8.174 -0.0553  0.1941 -0.3504
    1W        W34361   1.950  17.366   8.298 -0.1865 -0.1760 -0.0178
    1W        W34362   1.814  14.253   7.737  0.2095 -0.1224 -0.3950
    1W        W34363  11.054  23.753   8.406 -0.1909  0.1690 -0.1933
    1W        W34364  12.915  19.993   0.532  0.1542 -0.1557  0.2961
    1W        W34365  13.483   6.206   1.470 -0.0713  0.0573 -0.0760
    1W        W34366  14.377  17.713   2.749  0.1677  0.1749  0.1653
    1W        W34367  21.444  10.479   7.475 -0.1567 -0.2256 -0.1422
    1W        W34368  11.312  14.642   9.022 -0.2862  0.3378  0.1161
    1W        W34369  28.261  23.305   8.839 -0.1659 -0.1100 -0.2331
    1W        W34370  19.838  21.390   6.493 -0.1350 -0.1272  0.0276
    1W        W34371   7.650  16.069   0.427  0.1311  0.0914 -0.1730
    1W        W34372   8.804  11.626   1.521 -0.0578  0.2562 -0.0506
    1W        W34373  18.204  16.857   2.157 -0.1175 -0.0031 -0.3484
    1W        W34374   7.643   1.609   0.723 -0.1576  0.0293 -0.1130
    1W        W34375  27.518  15.912   6.777  0.0714 -0.2682  0.2047
    1W        W34376  28.839  26.513   7.448  0.1701 -0.0879  0.1932
    1W        W34377  21.933   6.329   9.227 -0.2283 -0.2870  0.0362
    1W        W34378   1.909   2.394   7.688  0.1467 -0.0514  0.3501
    1W        W34379  21.113  17.319   7.371  0.0638 -0.0573 -0.0897
    1W        W34380  15.665  19.375   2.200 -0.0692  0.2197 -0.0105
    1W        W34381  28.200   7.392   8.661 -0.1585  0.2749  0.0293
    1W        W34382  15.885  11.214   1.705  0.2776  0.2442 -0.3081
    1W        W34383   9.697   4.704   1.103 -0.0474 -0.1485  0.0509
    1W        W34384  15.250  16.274   1.346  0.2721  0.3552  0.1536
    1W        W34385  16.212  19.543   7.038  0.1605  0.4370  0.1498
    1W        W34386  22.446   5.808   7.165  0.4117  0.1442 -0.1028
    1W        W34387  16.530  17.434   1.292  0.0114 -0.2950 -0.2132
    1W        W34388   3.429  10.556   0.378  0.2878  0.0066 -0.0427
    1W        W34389   7.208  23.980   1.309 -0.1129 -0.0253  0.2467
    1W        W34390  29.722  26.298   9.015 -0.0891 -0.1353  0.5128
    1W        W34391  19.123   1.730   9.473  0.3064 -0.0993  0.0985
    1W        W34392  18.282  15.821   0.087 -0.3567  0.0556  0.3898
    1W        W34393  12.573  21.970   3.006 -0.1825 -0.2904 -0.0726
    1W        W34394   9.428   0.240   7.904 -0.3453 -0.2026  0.1396
    1W        W34395   9.417   5.148   0.712 -0.2630 -0.3400 -0.0623
    1W        W34396  26.428  12.844   7.479  0.2813  0.1592  0.3577
    1W        W34397   3.902   8.300   2.123  0.2664 -0.0000  0.0974
    1W        W34398  11.139   7.155   2.782  0.1247  0.2307 -0.0248
    1W        W34399  26.771   8.720   0.837  0.0498 -0.2260  0.0864
    1W        W34400   5.371  12.958   8.278  0.3227 -0.0132  0.1378
    1W        W34401   3.742  12.114   0.779  0.0638  0.0494  0.2839
    1W        W34402  22.807   4.159   3.304  0.1634 -0.0975 -0.1002
    1W        W34403   6.332  10.179   8.274  0.0874 -0.3430 -0.3772
    1W        W34404  16.336  27.540   2.546 -0.0666 -0.0450 -0.0187
    1W        W34405   0.611   1.235   8.204  0.0357  0.1526  0.2204
    1W        W34406  20.863   2.300   0.178  0.3700 -0.2682  0.1730
    1W        W34407  17.724  28.226   1.448  0.0199  0.1296 -0.3883
    1W        W34408   2.748  21.584   2.883 -0.0294  0.0734 -0.0706
    1W        W34409  14.163  17.725   2.031 -0.2364  0.2917  0.4328
    1W        W34410   9.762  15.956   7.270  0.1115 -0.0793  0.2962
    1W        W34411   5.493  29.178   0.483 -0.1433 -0.0325 -0.0226
    1W        W34412  14.563   1.157   0.726 -0.3217  0.0712  0.2454
    1W        W34413  19.781  11.396   7.558 -0.0228 -0.0371 -0.0049
    1W        W34414  21.955  22.579   8.370 -0.1588  0.1032  0.0328
    1W        W34415  19.849   4.280   1.991 -0.1622  0.0519 -0.1770
    1W        W34416  26.947   5.449   6.369  0.1106 -0.0467  0.0626
    1W        W34417   7.510  13.385   0.740 -0.1892 -0.1490  0.0085
    1W        W34418  12.424   8.059   0.533  0.2689  0.2261 -0.0649
    1W        W34419  18.666  15.716   6.852 -0.1906  0.3589  0.0948
    1W        W34420   2.145   5.677   6.200 -0.2807 -0.0016  0.2441
    1W        W34421  21.995  28.015   8.604  0.1189  0.2856 -0.0624
    1W        W34422   3.118  23.597   2.273  0.1274 -0.2329 -0.0840
    1W        W34423  10.917   7.988   1.270  0.0492  0.0322  0.0296
    1W        W34424  24.391  28.381   7.720 -0.0838  0.1769 -0.1720
    1W        W34425   3.603   5.545   6.320  0.0566 -0.1521 -0.0089
    1W        W34426   4.736  17.965   9.325 -0.1103 -0.0115  0.0194
    1W        W34427   5.584   0.670   8.747  0.1790 -0.2712  0.2146
    1W        W34428  27.571  11.185   8.128 -0.0982 -0.3064  0.0745
    1W        W34429  13.856  17.303   8.701 -0.1275 -0.2215  0.2559
    1W        W34430  14.717  13.684   8.600  0.0395  0.0570  0.1841
    1W        W34431   0.223   4.165   0.701 -0.0620  0.1115 -0.0147
    1W        W34432  25.149  18.901   6.967 -0.1936  0.0640 -0.1980
    1W        W34433   4.550  29.684   9.470  0.0744  0.2994  0.4675
    1W        W34434   7.160   8.255   9.388  0.0974  0.1934 -0.1938
    1W        W34435  14.713   2.338   1.939 -0.2966  0.0562  0.0416
    1W        W34436   4.235  22.879   7.810 -0.4233  0.1210 -0.4080
    1W        W34437  23.951  14.115   8.283  0.1108  0.3527 -0.1526
    1W        W34438   6.164  14.587   8.519  0.2449  0.4130  0.0386
    1W        W34439  12.901  11.633   1.927 -0.0322 -0.0584  0.3393
    1W        W34440  16.843  22.398   6.878 -0.0895 -0.1237 -0.3049
    1W        W34441  29.348   6.176   2.796  0.0198  0.0076 -0.1387
    1W        W34442  24.733  24.728   2.836 -0.2243  0.1119 -0.2413
    1W        W34443   9.419  19.896   7.870 -0.0372 -0.1647 -0.0485
    1W        W34444   8.377   6.233   0.828 -0.0403  0.2702  0.1255
    1W        W34445   3.423   2.865   1.244  0.1272  0.0728  0.0729
    1W        W34446  22.765  23.184   7.869  0.1554 -0.3604 -0.0585
    1W        W34447  23.948   0.264   2.008  0.1502 -0.0813  0.3941
    1W        W34448  10.820  24.450   9.523  0.1449  0.1682 -0.0153
    1W        W34449   6.769  19.060   8.256 -0.0563 -0.1835 -0.2958
    1W        W34450  27.373   9.016   8.310  0.1404 -0.0191  0.2935
    1W        W34451  12.255  21.045   9.257  0.2430 -0.0382 -0.0338
    1W        W34452   8.649   3.917   1.760  0.4905  0.0752  0.0121
    1W        W34453  19.949  24.060   6.511 -0.0396  0.2604  0.1912
    1W        W34454   0.665   5.376   1.694 -0.0920 -0.0470  0.1834
    1W        W34455  24.922   8.573   8.465 -0.1352  0.3188  0.2177
    1W        W34456   9.703  14.168   9.371  0.0296  0.0109  0.3059
    1W        W34457  26.674  10.840   5.819  0.0743  0.1313 -0.0141
    1W        W34458  12.250  26.085   8.479 -0.1555  0.2946  0.0268
    1W        W34459  24.698   9.000   8.319 -0.0358 -0.0642 -0.0639
    1W        W34460  10.140  25.384   2.376 -0.0254 -0.0613  0.0225
    1W        W34461  18.545  20.554   2.143  0.0711  0.0042  0.2879
    1W        W34462  19.363  29.468   1.156 -0.0130 -0.1678 -0.1351
    1W        W34463  21.664  15.968   9.255 -0.0259 -0.1949 -0.0197
    1W        W34464  13.179  11.039   2.526 -0.2954  0.2320  0.0870
    1W        W34465  24.335  19.123   8.568  0.0451  0.0057 -0.0073
    1W        W34466  25.600  28.958   0.924 -0.0106 -0.0061 -0.1093
    1W        W34467  11.911  22.916   0.559  0.0293  0.2963  0.2109
    1W        W34468  29.330   0.094   7.592 -0.0277 -0.2333 -0.3861
    1W        W34469  26.953  12.489   1.215  0.0926  0.2683  0.1692
    1W        W34470  22.062  12.177   2.197 -0.0236 -0.1314 -0.1313
    1W        W34471   7.143  25.597   8.888  0.3465 -0.1032  0.0382
    1W        W34472   3.544  27.831   8.375 -0.0219  0.1917 -0.1097
    1W        W34473  21.794   8.021   3.793  0.3318  0.1328 -0.1523
    1W        W34474  11.745  22.326   5.909  0.0019  0.1780 -0.0231
    1W        W34475  25.644  27.077   2.773  0.0166  0.0907 -0.0241
    1W        W34476  29.747   2.174   1.949  0.1673 -0.0455 -0.1097
    1W        W34477  17.054   8.550   3.534  0.0943 -0.1569 -0.0208
    1W        W34478   7.785  11.714   1.994  0.0756 -0.0260 -0.0489
    1W        W34479  23.712  18.153   9.379 -0.0783  0.1901 -0.3570
    1W        W34480  18.392  15.496   5.711  0.2125 -0.2050 -0.0580
    1W        W34481  10.993   8.935   1.759  0.0624 -0.0535  0.0210
    1W        W34482   4.663   3.076   0.280  0.1270  0.3021 -0.0714
    1W        W34483  21.674   9.951   0.105 -0.0108 -0.1816 -0.2507
    1W        W34484  24.587  11.633   1.986 -0.0358  0.0487 -0.1685
    1W        W34485  10.750  19.509   9.350  0.2419  0.1391  0.0485
    1W        W34486  11.165   3.589   0.136  0.2528 -0.0365 -0.2440
    1W        W34487  26.835  24.556   6.814 -0.4494  0.0377  0.2175
    1W        W34488  17.772   3.303   8.023 -0.1914  0.0278 -0.0241
    1W        W34489  22.840   4.195   8.015 -0.1090  0.0639 -0.0371
    1W        W34490   9.202   8.285   8.392  0.3151  0.2017 -0.0959
    1W        W34491  15.211  19.445   9.113 -0.1813 -0.1639  0.0222
    1W        W34492  27.215  19.020   9.267  0.0485  0.0526 -0.0923
    1W        W34493  13.583  29.109   3.008 -0.1781  0.0936  0.0808
    1W        W34494  26.265   5.905   0.483 -0.1700 -0.0327 -0.0363
    1W        W34495  10.966  23.254   1.874 -0.0375 -0.1314  0.0844
    1W        W34496   5.181   5.886   0.060 -0.0336 -0.2011 -0.4290
    1W        W34497   7.753   4.741   0.858 -0.0783  0.0167 -0.2576
    1W        W34498   6.823   1.893   3.184 -0.1803 -0.1839  0.1963
    1W        W34499   7.376   7.106   2.197 -0.0381 -0.0497  0.2268
    1W        W34500  13.314   4.932   3.016  0.1599 -0.2195 -0.2397
    1W        W34501  22.571   0.286   3.096 -0.1814  0.1085  0.5922
    1W        W34502   6.084  15.641   8.160 -0.2861 -0.0543 -0.3523
    1W        W34503   7.323   4.039   9.194  0.1207 -0.1240  0.0002
    1W        W34504  18.568  18.043   6.750  0.0170 -0.1349  0.0692
    1W        W34505   5.981  22.075   9.255  0.0898 -0.0965  0.1265
    1W        W34506   2.820   7.690   7.160  0.1077 -0.0351 -0.2247
    1W        W34507  13.145  10.170   2.170 -0.0913 -0.1195 -0.2465
    1W        W34508  12.330  19.290   0.888  0.2842  0.1365  0.1704
    1W        W34509   5.455  19.251   7.231 -0.1830 -0.3342  0.0518
    1W        W34510  23.141   3.149   8.966 -0.1563  0.1173 -0.2593
    1W        W34511  23.594   5.820   2.593  0.0206 -0.2001 -0.0089
    1W        W34512  20.495   9.682   1.093  0.2445  0.2283  0.1869
    1W        W34513   7.252   6.683   9.410  0.1840 -0.2422  0.1495
    1W        W34514   3.244  23.513   0.677  0.0720 -0.1647  0.0749
    1W        W34515  12.908  16.950   0.015 -0.3682  0.3098  0.1760
    1W        W34516   7.780  17.340   1.266 -0.0093  0.0583 -0.0945
    1W        W34517   6.817   0.703   2.733  0.0699  0.2088 -0.2147
    1W        W34518  11.802  22.004   1.272  0.1128  0.1434 -0.0167
    1W        W34519  19.736   6.326   1.444  0.0075 -0.1515  0.0227
    1W        W34520  20.597  17.804   1.581  0.0007  0.3590 -0.2146
    1W        W34521   5.545   8.745   6.318 -0.1785 -0.0583 -0.5096
    1W        W34522   1.988  13.260   0.506 -0.1098  0.1162  0.1221
    1W        W34523   5.886   1.983   9.445  0.1993  0.0434 -0.1030
    1W        W34524  26.858  19.006   0.885  0.1152  0.0688  0.1411
    1W        W34525   9.004   8.938   0.570  0.0515  0.0401  0.0585
    1W        W34526  11.998   4.695   0.490  0.0613 -0.2093  0.1441
    1W        W34527  16.947  21.038   9.347  0.3760  0.1385 -0.2282
    1W        W34528   2.080  17.842   6.882  0.1304  0.1761  0.2676
    1W        W34529  13.093   7.368   2.248  0.0651 -0.2165 -0.1303
    1W        W34530   7.367  25.808   1.874  0.3310 -0.0744  0.0264
    1W        W34531  19.881  27.642   2.698  0.0023  0.0743 -0.0271
    1W        W34532   6.008  22.846   0.376 -0.3071 -0.2269  0.0812
    1W        W34533   4.101  18.112   8.528 -0.0292 -0.1499  0.1231
    1W        W34534   1.096   3.273   7.100  0.4267 -0.3157 -0.4564
    1W        W34535   8.439  29.486   2.736  0.2435  0.0355 -0.0336
    1W        W34536  22.694  10.162   1.059  0.1925 -0.2546  0.0698
    1W        W34537  21.761  29.543   2.949 -0.1523 -0.2481  0.0008
    1W        W34538  29.536  22.472   2.680  0.0578 -0.1636  0.2276
    1W        W34539   4.638  21.872   6.866  0.0428  0.0676 -0.2243
    1W        W34540  29.410   9.659   8.017  0.2809 -0.0314  0.2741
    1W        W34541  26.355  25.249   8.131 -0.1558  0.2555  0.1010
    1W        W34542  27.497   1.918   2.197  0.2607  0.0115  0.1463
    1W        W34543  23.949  18.578   1.653 -0.0337 -0.0188  0.1323
    1W        W34544   1.771  12.173   1.298 -0.1056 -0.0506  0.1242
    1W        W34545  20.811  25.789   9.506 -0.0938  0.1317  0.2324
    1W        W34546   6.212  20.668   9.411  0.1527 -0.2779  0.1760
    1W        W34547   7.192   0.820   3.329  0.5384  0.1040 -0.3463
    1W        W34548  16.206  28.750   7.870 -0.1637  0.1819 -0.0668
    1W        W34549  14.903  22.616   2.370  0.0014  0.0489 -0.1889
    1W        W34550  20.912  12.124   1.300 -0.3491  0.2324  0.0493
    1W        W34551   1.877   8.159   2.459  0.1852 -0.0806 -0.1560
    1W        W34552   8.763  12.492   1.266  0.1505  0.0721 -0.1371
    1W        W34553  18.960  27.848   2.599  0.0486 -0.0618 -0.1251
    1W        W34554  24.770  20.361   7.604 -0.0141 -0.1590 -0.0210
    1W        W34555  28.807  21.038   8.295 -0.2332  0.0571 -0.1907
    1W        W34556  15.039   6.294   6.808 -0.0727 -0.2083 -0.0409
    1W        W34557  19.157   9.941   1.428 -0.0665  0.1696 -0.0774
    1W        W34558  12.278  23.352   7.494  0.0460 -0.3971 -0.0023
    1W        W34559   1.945  13.105   0.999  0.3762 -0.1249 -0.0249
    1W        W34560   2.298  18.450   0.251 -0.1181  0.2149 -0.1611
    1W        W34561   3.977  18.059   7.568 -0.2348 -0.1561 -0.3324
    1W        W34562  22.791  27.724   7.001 -0.1202 -0.2079  0.2027
    1W        W34563  22.825  11.401   5.467 -0.3089  0.1366  0.2470
    1W        W34564  20.518   0.681   0.712 -0.1253  0.1218  0.0254
    1W        W34565   3.033  20.645   0.143 -0.2187  0.0602  0.1541
    1W        W34566   1.853   5.730   2.744 -0.1097 -0.2766  0.0215
    1W        W34567  19.185   4.242   3.041  0.2310 -0.1646 -0.2787
    1W        W34568  11.966  19.537   9.081  0.4091 -0.0789  0.1394
    1W        W34569  11.219  24.706   8.119  0.1081 -0.1963 -0.0869
    1W        W34570  19.847   1.299   0.656 -0.2030 -0.3304 -0.2989
    1W        W34571  11.285   3.708   3.358 -0.0060 -0.0494 -0.0482
    1W        W34572  29.244   5.396   8.688  0.2158 -0.1523  0.3951
    1W        W34573  21.539  19.717   1.198  0.0756  0.0212  0.1534
    1W        W34574  27.070  22.672   6.349  0.0247 -0.0575 -0.1331
    1W        W34575   1.763   6.900   7.949  0.2225  0.2522  0.2114
    1W        W34576   2.218  17.724   8.618  0.0555  0.2729 -0.1973
    1W        W34577   1.752  23.619   9.110  0.0312 -0.0066  0.0193
    1W        W34578  10.928   1.409   2.668 -0.1381  0.0232 -0.2232
    1W        W34579  22.528  12.968   8.626  0.3115  0.2366 -0.2236
    1W        W34580  18.055   8.022   7.860 -0.0194 -0.1877  0.0686
    1W        W34581  15.583   2.076   6.668  0.0303 -0.0689  0.1795
    1W        W34582  29.345   2.016   8.903  0.1854  0.2124 -0.2873
    1W        W34583  17.852  14.714   6.775 -0.2713 -0.0198  0.1631
    1W        W34584  19.848  13.831   7.047 -0.0789  0.0745 -0.0346
    1W        W34585  16.043  15.208   6.945  0.1600  0.0861  0.1240
    1W        W34586   7.314  28.121   0.546  0.2751 -0.0957  0.0916
    1W        W34587   5.450   9.847   7.189  0.2123  0.0151 -0.4703
    1W        W34588   6.642   8.740   1.269 -0.0276  0.0927 -0.0155
    1W        W34589  12.825  27.646   8.999  0.0122  0.1756  0.3819
    1W        W34590   7.155  19.188   1.994  0.2463 -0.0306 -0.3342
    1W        W34591  11.822  18.934   7.961  0.0510  0.6036 -0.0161
    1W        W34592   4.007  10.971   7.501 -0.0724  0.0758 -0.1487
    1W        W34593  11.495   6.934   7.363  0.1134  0.0207  0.0655
    1W        W34594  28.418   4.730   0.175  0.1987 -0.2877  0.1186
    1W        W34595   5.398  18.314   0.969  0.1379 -0.5096 -0.3454
    1W        W34596   5.423  19.458   7.927  0.2337 -0.1605  0.1224
    1W        W34597  23.031  15.470   9.280 -0.4179  0.0017  0.0218
    1W        W34598  26.992  18.558   9.087  0.0620 -0.0150  0.0055
    1W        W34599  16.625   8.987   9.464 -0.1303 -0.4044  0.1188
    1W        W34600  29.440  26.724   1.773  0.3441  0.0701  0.2277
    1W        W34601   7.178  28.655   1.220 -0.0087 -0.2882  0.0904
    1W        W34602  11.251  15.695   0.251 -0.1978 -0.4287  0.0206
    1W        W34603   1.559  25.254   2.833 -0.1685  0.1959  0.1724
    1W        W34604  10.063  27.666   7.874 -0.0436  0.2245 -0.0412
    1W        W34605   4.947  28.815   8.167  0.1761  0.1118  0.2036
    1W        W34606   7.184   7.234   3.277  0.1998 -0.3655 -0.1544
    1W        W34607   5.548  12.215   0.842  0.1239 -0.0136  0.1456
    1W        W34608  23.221  13.648   0.955 -0.2082 -0.1117  0.0433
    1W        W34609  13.301  12.971   7.207  0.0815  0.1657 -0.2099
    1W        W34610  19.676  22.515   9.361  0.0940 -0.1849 -0.1184
    1W        W34611   9.420  15.912   9.460 -0.3486  0.1959  0.1325
    1W        W34612  18.171  23.185   8.224 -0.0887  0.0403  0.1321
    1W        W34613  19.126   0.833   9.367 -0.1125 -0.1953  0.0025
    1W        W34614  24.862  16.220   0.062  0.1903 -0.0857 -0.1037
    1W        W34615  27.074   8.378   6.767 -0.0448 -0.1946  0.1601
    1W        W34616  27.223   7.979   1.434  0.1076  0.2159  0.0265
    1W        W34617  16.919   9.868   0.385 -0.0055  0.3427  0.3650
    1W        W34618   2.783  28.902   7.057 -0.1486 -0.1246  0.1166
    1W        W34619  23.922  28.444   8.972  0.1339  0.0110  0.0374
    1W        W34620   0.279   2.629   8.895  0.1797  0.2888 -0.1614
    1W        W34621  26.575  16.173   0.205 -0.1840  0.1211  0.2305
    1W        W34622  27.890  11.835   0.904  0.1322  0.2100 -0.0429
    1W        W34623   4.416  22.989   2.319 -0.1201  0.2101  0.0820
    1W        W34624   6.198  24.357   6.909 -0.3482 -0.0620 -0.4160
    1W        W34625   1.414  19.218   7.734  0.3388 -0.1599 -0.3752
    1W        W34626  21.928  15.455   6.671 -0.0901 -0.0970  0.0699
    1W        W34627   2.221   6.352   2.050 -0.3455  0.0785  0.1843
    1W        W34628  20.552  27.968   8.428 -0.3043 -0.1503  0.0263
    1W        W34629  16.164  28.126   3.173 -0.0448  0.1509  0.0320
    1W        W34630  18.529   4.550   2.358 -0.0881 -0.2133  0.0176
    1W        W34631  17.847  24.825   9.245 -0.0347 -0.4769 -0.1205
    1W        W34632  20.743  10.318   1.902  0.2526  0.0503  0.0699
    1W        W34633   1.262  14.491   0.593  0.0424 -0.0080  0.0345
    1W        W34634   7.953   6.356   8.987  0.0542 -0.1410 -0.2357
    1W        W34635  22.216  14.445   6.901  0.0319 -0.0885  0.1598
    1W        W34636   3.242  10.681   9.147 -0.0205 -0.3328  0.2244
    1W        W34637  13.364  13.245   1.203 -0.0417  0.2436 -0.1100
    1W        W34638  17.493  19.158   1.673 -0.3683 -0.0961 -0.3793
    1W        W34639  13.685  21.328   9.242  0.0828 -0.2031  0.0509
    1W        W34640  14.926  13.313   7.851 -0.0593  0.0978 -0.1446
    1W        W34641  28.274   3.433   8.098 -0.0850 -0.1771  0.2438
    1W        W34642  17.403   0.657   0.491 -0.0617  0.2281 -0.1333
    1W        W34643  10.499  15.732   2.763  0.1431  0.4128  0.0556
    1W        W34644  28.788  24.752   9.219  0.1727  0.3537  0.4359
    1W        W34645   5.873   0.280   8.946 -0.0213  0.0057 -0.4542
    1W        W34646  20.571  21.088   2.219 -0.2782 -0.1446 -0.1902
    1W        W34647   6.644   8.734   1.788  0.0092  0.0061  0.0302
    1W        W34648   2.040  12.149   0.756  0.1834  0.0110  0.0781
    1W        W34649   8.819   6.912   0.314  0.0592 -0.0287 -0.3155
    1W        W34650  17.885  26.785   7.703  0.0497  0.1117  0.0017
    1W        W34651  10.821  10.791   9.088  0.0361 -0.0524 -0.2649
    1W        W34652  20.209  13.518   6.878  0.0757 -0.0622 -0.2125
    1W        W34653   3.750  18.985   7.730 -0.3684 -0.4046  0.2220
    1W        W34654  27.204   0.624   7.589 -0.2128  0.1617  0.0084
    1W        W34655  16.769   1.322   7.669  0.2296  0.3634 -0.1222
    1W        W34656  11.771  17.971   0.066 -0.0693  0.1710  0.1469
    1W        W34657  21.696   1.874   2.880  0.0239  0.0301  0.0084
    1W        W34658  19.676  25.687   3.206  0.2814 -0.0772  0.1742
    1W        W34659  11.910   4.188   7.381  0.0573 -0.0726  0.1734
    1W        W34660  19.480  22.154   1.832  0.0701  0.4584  0.1192
    1W        W34661  28.337  12.173   7.707 -0.1861  0.2675  0.1320
    1W        W34662   2.445  21.107   8.935 -0.3569 -0.0868 -0.0977
    1W        W34663  28.761  18.961   7.585  0.0804 -0.3236 -0.3165
    1W        W34664  16.362  29.711   2.553  0.0221  0.1796  0.0060
    1W        W34665  13.598   5.903   8.107  0.0006 -0.0265 -0.0629
    1W        W34666  12.054  10.839   9.487  0.0740  0.0040  0.0584
    1W        W34667  10.043  22.630   0.958  0.1089 -0.1327 -0.0331
    1W        W34668  12.884  23.116   1.468  0.4481  0.1496 -0.0667
    1W        W34669  27.678  18.794   6.935  0.1124 -0.2215  0.0348
    1W        W34670   9.908  17.651   7.279  0.0862  0.0016 -0.3576
    1W        W34671   9.286   9.393   0.584 -0.2650  0.1440 -0.2394
    1W        W34672  16.280  20.701   8.125 -0.1450  0.0741 -0.1701
    1W        W34673  18.962  22.856   3.076  0.0362  0.1840 -0.0474
    1W        W34674  11.039  18.061   8.344  0.2722 -0.0593 -0.0415
    1W        W34675  25.025  23.202   7.317  0.1557 -0.1339 -0.0715
    1W        W34676  29.779   6.494   2.020 -0.1703  0.4171 -0.1866
    1W        W34677  23.786  10.152   0.087 -0.0386 -0.1582 -0.0384
    1W        W34678  23.767  25.474   8.275 -0.1770 -0.3731  0.1112
    1W        W34679  24.268   7.206   8.772  0.1482  0.0440 -0.2598
    1W        W34680  10.151   7.491   7.492 -0.0035 -0.0482 -0.1017
    1W        W34681  24.138   4.536   0.010  0.0340 -0.1408 -0.1711
    1W        W34682   1.095   5.998   1.107  0.0964 -0.3549 -0.2441
    1W        W34683   4.598   4.165   8.238 -0.2518  0.0347 -0.0836
    1W        W34684   1.630  28.576   9.402  0.1074 -0.1413 -0.1369
    1W        W34685  17.249  17.235   1.778  0.2262  0.1391 -0.1983
    1W        W34686   9.745   4.620   7.569 -0.2381  0.2011 -0.0055
    1W        W34687  28.811  17.648   8.402 -0.1109  0.0528 -0.3419
    1W        W34688  22.452  14.226   1.050  0.1897  0.1031  0.0783
    1W        W34689  27.959  17.407   0.643  0.0608 -0.1122 -0.1737
    1W        W34690  12.323   9.897   7.679 -0.1432  0.1536  0.0081
    1W        W34691  16.365  26.698   0.875 -0.0032 -0.0999  0.4350
    1W        W34692  21.567   3.099   7.103  0.2165 -0.0405  0.1980
    1W        W34693  19.388  13.438   8.722 -0.1313 -0.0415  0.4154
    1W        W34694  25.296  14.147   7.037 -0.4730 -0.1341 -0.1404
    1W        W34695  20.516  20.180   1.066  0.0277 -0.0582 -0.1249
    1W        W34696   2.044  23.952   0.224 -0.1482  0.1658 -0.0875
    1W        W34697  12.545   3.208   6.990  0.3554 -0.2299 -0.2534
    1W        W34698  15.393   6.232   1.198 -0.2673 -0.1127 -0.0433
    1W        W34699  24.918   2.902   8.048  0.2265  0.3239 -0.1598
    1W        W34700  18.347  28.001   2.703  0.1012 -0.2186  0.1121
    1W        W34701  22.283  24.571   1.502  0.1455  0.4512 -0.2298
    1W        W34702   8.402  21.052   8.054  0.0339  0.1168  0.2551
    1W        W34703   0.526  28.963   2.434 -0.0146  0.0008  0.0999
    1W        W34704   9.225  22.098   2.139  0.0031 -0.1240  0.0247
    1W        W34705   1.985   2.066   2.090  0.1126  0.0398 -0.1078
    1W        W34706  23.360  17.584   9.021  0.2559 -0.0938 -0.1423
    1W        W34707  14.560  13.110   7.440  0.4170  0.0802  0.0013
    1W        W34708  13.127   4.219   2.139  0.0628  0.3451  0.2833
    1W        W34709   9.072  24.177   7.082  0.2666 -0.1879 -0.1173
    1W        W34710  21.219  11.987   6.212  0.0104 -0.0473 -0.0487
    1W        W34711  11.430  15.056   7.591 -0.0806 -0.0549  0.1515
    1W        W34712  18.845  24.291   1.000 -0.0141 -0.2230  0.1621
    1W        W34713  14.201   8.309   0.722 -0.1073  0.2781  0.0174
    1W        W34714  27.498  20.229   5.565  0.1599 -0.3186 -0.0531
    1W        W34715  27.543  25.116   0.968  0.0869  0.1637  0.0999
    1W        W34716  23.733  23.349   7.675 -0.2902  0.0009  0.1043
    1W        W34717   7.284   7.069   8.880 -0.1554 -0.0438 -0.0281
    1W        W34718  10.232   0.835   2.513  0.1050 -0.0506 -0.1631
    1W        W34719  22.887  19.033   1.200  0.1388  0.3160  0.1619
    1W        W34720  10.305  18.907   7.717 -0.1706  0.1010  0.2774
    1W        W34721   4.235   7.518   7.701  0.0098  0.2305 -0.3208
    1W        W34722   7.132  28.262   9.090  0.0357 -0.1648 -0.0637
    1W        W34723  21.759  15.571   2.302 -0.1672 -0.2206  0.2082
    1W        W34724  24.379  13.907   0.742 -0.2804  0.0777 -0.0076
    1W        W34725  20.417   8.476   7.210  0.4664 -0.0460 -0.2165
    1W        W34726   9.209   2.434   0.624 -0.0196  0.0362 -0.4607
    1W        W34727  13.344   3.801   9.368  0.2463  0.0034  0.1201
    1W        W34728  26.874  25.393   7.230  0.0059 -0.1021  0.1632
    1W        W34729  25.677  26.598   2.645  0.0603 -0.1231  0.0054
    1W        W34730  25.663  21.855   6.532 -0.2590 -0.1567 -0.1576
    1W        W34731  26.301   1.259   2.575 -0.2726 -0.1713  0.0217
    1W        W34732  13.002  13.515   0.873 -0.3614  0.1860 -0.1933
    1W        W34733   0.403   9.808   9.416 -0.0540 -0.0226  0.0671
    1W        W34734  11.791   3.361   9.455 -0.0372  0.1097 -0.3947
    1W        W34735  25.575  26.266   1.503 -0.0069 -0.2108 -0.1338
    1W        W34736   4.856  20.889   2.594 -0.2589  0.0376 -0.4260
    1W        W34737  13.190  13.067   8.957 -0.2404  0.0455  0.4603
    1W        W34738   0.851   1.527   1.091  0.1080 -0.3776  0.0150
    1W        W34739  19.358  20.784   9.126  0.4331  0.0689  0.0806
    1W        W34740  27.500  27.424   1.562 -0.3488  0.0062 -0.3887
    1W        W34741   1.360   4.699   0.669  0.0486  0.4445 -0.0541
    1W        W34742   7.828  22.143   0.829  0.1081 -0.1608 -0.1829
    1W        W34743   3.145   2.553   1.613  0.1274  0.2832  0.0669
    1W        W34744  21.017  13.082   8.125  0.0276  0.0958  0.0233
    1W        W34745  14.750  15.175   7.760 -0.3339 -0.1515 -0.1582
    1W        W34746  20.455   9.999   9.345  0.0208  0.2763  0.2017
    1W        W34747  25.313  24.601   1.914  0.3242 -0.4353  0.1375
    1W        W34748  27.046  22.172   9.413 -0.1660 -0.1712  0.1190
    1W        W34749   2.634   6.829   9.165  0.1558 -0.0304  0.0836
    1W        W34750   2.478   7.582   8.741  0.3294  0.1217 -0.0245
    1W        W34751  18.427   6.503   1.639  0.2194  0.1394  0.0083
    1W        W34752   0.608  18.757   0.711  0.2543  0.1006 -0.0081
    1W        W34753  17.073  29.433   8.805  0.1072 -0.2773  0.0372
    1W        W34754  24.895   9.878   6.670  0.1555 -0.3092  0.0584
    1W        W34755  13.711  18.414   1.899  0.0480 -0.2310 -0.0389
    1W        W34756  29.691  17.342   8.217 -0.1920 -0.1539 -0.0011
    1W        W34757  23.719  13.729   7.502 -0.5010 -0.3154 -0.1799
    1W        W34758  22.840  18.100   6.821 -0.0043  0.0294  0.0412
    1W        W34759  18.947  17.753   2.690  0.0328 -0.0046 -0.0616
    1W        W34760  12.152  24.729   0.265 -0.2828  0.1726  0.1535
    1W        W34761  14.475   1.642   0.977  0.2380  0.0449 -0.0263
    1W        W34762   6.529   8.267   2.020  0.0613  0.3302 -0.0491
    1W        W34763  20.659  13.576   8.167 -0.0391 -0.1077  0.2340
    1W        W34764   2.214   3.943   8.448  0.1194 -0.1205  0.3074
    1W        W34765  24.625   8.304   0.777  0.0469  0.3078  0.0467
    1W        W34766  10.873  24.823   6.335  0.1266  0.3671  0.1527
    1W        W34767  27.912  16.153   0.149  0.1560 -0.0970 -0.2969
    1W        W34768  23.963   1.824   7.918  0.0322  0.0231 -0.2052
    1W        W34769   6.575  23.979   9.437  0.0324 -0.2483  0.0484
    1W        W34770  13.978  11.214   1.389  0.0704 -0.1342  0.2416
    1W        W34771  21.377   9.575   6.742  0.0961 -0.2526  0.2369
    1W        W34772  14.521  20.904   2.534  0.0056  0.2603 -0.0019
    1W        W34773  20.941  23.415   8.812  0.1301  0.0753 -0.0843
    1W        W34774  26.581  27.145   1.194  0.1635 -0.2989 -0.0682
    1W        W34775   9.799  24.995   8.631 -0.1703 -0.0297  0.2123
    1W        W34776  17.074  22.014   9.046  0.1286  0.0241 -0.0252
    1W        W34777  19.962   6.760   1.050 -0.3354 -0.1472 -0.0845
    1W        W34778  16.362  15.625   1.771  0.1877  0.0750  0.0935
    1W        W34779   0.439  18.389   1.051 -0.0744  0.1043  0.3207
    1W        W34780  16.743  25.470   6.505  0.0302  0.0288  0.2196
    1W        W34781   1.741  18.139   8.655 -0.2339  0.1114  0.0275
    1W        W34782  23.225  10.613   6.302  0.1134 -0.1276 -0.2832
    1W        W34783  15.701   0.595   7.602  0.1145  0.0768  0.3138
    1W        W34784  11.311  22.868   1.066 -0.0109 -0.1536 -0.1900
    1W        W34785  23.509  18.797   6.626  0.0787 -0.0871 -0.1758
    1W        W34786  18.968   2.965   6.418 -0.1234  0.4118 -0.0209
    1W        W34787   1.394   8.546   8.488  0.0673  0.3028 -0.0007
    1W        W34788  17.524  17.354   0.979 -0.1038  0.1694 -0.2294
    1W        W34789   0.475   5.309   1.065  0.2727  0.0565 -0.0908
    1W        W34790  13.096  19.032   9.442  0.1834  0.1042  0.0297
    1W        W34791  10.188  14.567   7.375  0.1391 -0.1343  0.2104
    1W        W34792  20.622  19.463   0.655  0.1959  0.2687 -0.0976
    1W        W34793  24.056  17.115   5.889 -0.1336 -0.0657  0.3381
    1W        W34794  20.873   5.898   7.010 -0.2319 -0.0426  0.2994
    1W        W34795  14.703  12.209   6.578  0.1428 -0.2902 -0.0634
    1W        W34796   6.753  16.154   0.553  0.3107  0.3045  0.0603
    1W        W34797  16.683  20.746   2.482  0.3658 -0.3360 -0.1235
    1W        W34798  22.483  17.332   5.648  0.0745  0.5085  0.0711
    1W        W34799  23.395  11.250   0.497  0.0090 -0.2745 -0.2218
    1W        W34800   3.670   1.328   7.896 -0.0557 -0.1448  0.1888
    1W        W34801   5.640   8.317   6.662  0.2901  0.1297  0.3259
    1W        W34802   9.498  22.172   1.595 -0.1045  0.2105  0.0155
    1W        W34803  18.692   9.147   8.516 -0.1161 -0.0992  0.0208
    1W        W34804   3.574  18.998   0.604 -0.0748 -0.0028 -0.1389
    1W        W34805  21.006  16.007   7.565 -0.5210  0.3385 -0.1683
    1W        W34806   6.027   1.058   7.049  0.6348 -0.2207  0.1535
    1W        W34807   8.803   4.141   7.997  0.0641  0.0577 -0.0423
    1W        W34808  28.534   8.047   9.347 -0.3018  0.0133  0.1132
    1W        W34809   4.686  16.107   9.076  0.3391 -0.0397  0.3047
    1W        W34810  17.129  25.653   7.750  0.0218  0.3288  0.0272
    1W        W34811  20.381  15.694   1.014  0.0966  0.0039 -0.0880
    1W        W34812   2.501   3.530   8.317  0.0717 -0.3719 -0.0481
    1W        W34813  21.642  15.531   0.347 -0.0411  0.2201  0.0608
    1W        W34814   4.235   6.592   0.388  0.4349  0.0428 -0.1631
    1W        W34815   2.939  14.552   1.017 -0.1759  0.0121 -0.1392
    1W        W34816  26.903   1.234   7.794  0.2513  0.3047 -0.2252
    1W        W34817  19.386  15.357   8.115  0.0158  0.2939  0.1356
    1W        W34818   0.830  19.198   0.944  0.0557 -0.2327 -0.0837
    1W        W34819  25.538  23.244   1.464  0.0606  0.0786 -0.2198
    1W        W34820  27.747  11.953   7.489 -0.0277 -0.1880 -0.1680
    1W        W34821  25.642  14.347   0.629  0.0206  0.0928 -0.0753
    1W        W34822   5.852  22.509   9.513 -0.5164  0.1450  0.1953
    1W        W34823  15.319  23.068   8.523 -0.1248 -0.2024  0.0194
    1W        W34824   6.399   0.269   8.941  0.0168  0.0261  0.2006
    1W        W34825   9.264   2.274   2.135  0.2123  0.3380  0.4089
    1W        W34826   1.776   4.895   0.977 -0.1101  0.2723 -0.2288
    1W        W34827  18.529  27.884   2.284 -0.0954  0.1008  0.3724
    1W        W34828  18.523  15.437   2.814 -0.3559 -0.1243  0.1203
    1W        W34829  16.498   3.469   8.728 -0.0604 -0.2477 -0.0566
    1W        W34830  16.325   6.783   8.001 -0.0412  0.5062 -0.0467
    1W        W34831   6.390  11.227   2.223  0.2637 -0.1223 -0.1760
    1W        W34832  22.269  27.617   1.740  0.1605  0.0766 -0.0122
    1W        W34833  10.783  11.618   0.917 -0.2120 -0.0021 -0.0993
    1W        W34834  24.947  25.996   6.681 -0.1704  0.1898  0.0729
    1W        W34835  16.838   3.885   0.174  0.2719 -0.1050 -0.1586
    1W        W34836   7.031  12.562   7.606 -0.1229 -0.1172  0.1136
    1W        W34837  26.644   9.064   8.837  0.0266 -0.1034 -0.3536
    1W        W34838  17.439  27.060   7.722  0.0502 -0.1563 -0.3664
    1W        W34839   4.823   5.053   1.278 -0.1732 -0.0818  0.0622
    1W        W34840  24.451   0.079   8.932  0.1616 -0.0557 -0.1199
    1W        W34841  27.499  24.010   1.893  0.4320 -0.0869  0.0278
    1W        W34842  27.832  13.820   1.829 -0.1544  0.1707  0.3986
    1W        W34843   4.634   4.532   9.553 -0.1633 -0.2029 -0.0031
    1W        W34844  25.399  11.353   5.650 -0.0414  0.2814  0.0132
    1W        W34845   3.508   9.926   9.466  0.0314 -0.1609  0.0799
    1W        W34846  19.015  12.013   8.364  0.2233  0.0472 -0.2800
    1W        W34847   9.269   3.653   8.759  0.0661  0.0489 -0.3574
    1W        W34848  12.798   3.096   1.223 -0.0873  0.0008  0.0626
    1W        W34849   1.824  15.235   0.181 -0.2075 -0.0833 -0.0126
    1W        W34850  15.566  26.215   0.745 -0.0030  0.1594  0.0828
    1W        W34851  11.963  23.341   8.408  0.0516 -0.0457 -0.1033
    1W        W34852  13.896  24.719   7.753  0.0828  0.1969  0.2235
    1W        W34853  19.754  21.569   8.012 -0.0526 -0.5313  0.0274
    1W        W34854   5.156  25.431   3.066  0.3677  0.1582  0.1642
    1W        W34855   0.336  27.955   7.164 -0.2528  0.2492  0.0834
    1W        W34856  14.722   5.042   1.124 -0.0155  0.0840  0.1194
    1W        W34857   5.639  10.779   8.503 -0.0640 -0.2477 -0.1511
    1W        W34858   6.788  27.871   1.678  0.1075 -0.1460  0.3846
    1W        W34859  11.591  17.685   1.716  0.0420  0.0244 -0.0467
    1W        W34860   3.685  26.623   6.244  0.0122  0.5071  0.1289
    1W        W34861   2.861  28.081   6.560  0.0459  0.0336  0.1427
    1W        W34862  21.221  29.178   7.830  0.1658 -0.0702 -0.2402
    1W        W34863   0.906  15.512   0.631 -0.3339  0.0152 -0.0382
    1W        W34864  17.737  29.171   6.678 -0.1313 -0.1462  0.1691
    1W        W34865  10.617  19.404   8.808  0.1291 -0.0994 -0.0316
    1W        W34866  24.357  26.584   1.095 -0.0310  0.3039 -0.1568
    1W        W34867  23.510  19.460   6.678 -0.1655  0.1984 -0.0864
    1W        W34868   7.799   4.129   8.228  0.0949 -0.1613 -0.0260
    1W        W34869  16.361  14.069   1.349  0.0289  0.0042 -0.1537
    1W        W34870   9.360  26.020   8.388 -0.2947 -0.3197 -0.0005
    1W        W34871  15.524  27.702   0.650  0.0686  0.2170  0.1720
    1W        W34872   6.016  25.903   1.802  0.1824  0.0033 -0.2657
    1W        W34873   2.585   4.262   7.043 -0.4137 -0.0613 -0.1073
    1W        W34874  15.174  25.199   7.373  0.0190 -0.3589  0.3591
    1W        W34875  18.725  23.348   8.980 -0.0592 -0.2636  0.0363
    1W        W34876   0.628  17.523   8.901  0.0466 -0.3396  0.1579
    1W        W34877  26.021   9.008   1.797  0.1059 -0.0589 -0.1442
    1W        W34878  21.799  25.366   6.167  0.0639 -0.0150  0.0171
    1W        W34879  27.434  15.024   9.147 -0.3114  0.0330 -0.1830
    1W        W34880  23.304  10.778   7.475 -0.0335  0.0687 -0.2036
    1W        W34881  27.293   2.392   2.234  0.2589  0.0734  0.0288
    1W        W34882   2.863   3.909   9.494 -0.1807 -0.0717 -0.3657
    1W        W34883  29.574  25.946   1.310  0.0522 -0.2580  0.2259
    1W        W34884  26.641   7.327   8.589 -0.0212 -0.0347  0.1453
    1W        W34885  22.319   0.082   1.160 -0.1188 -0.2117 -0.1643
    1W        W34886   2.840  15.771   8.141 -0.0336  0.1177 -0.3642
    1W        W34887  12.761  18.501   2.228  0.1083 -0.2279 -0.0571
    1W        W34888   1.652  15.917   7.059 -0.1789 -0.3693  0.0442
    1W        W34889  27.463   6.377   7.461  0.0818 -0.2027 -0.0149
    1W        W34890   5.297  11.884   1.599 -0.1954 -0.2765 -0.0352
    1W        W34891  29.161  14.730   6.752  0.0739 -0.1959  0.0956
    1W        W34892  17.470  15.736   6.075  0.2044 -0.2506  0.0780
    1W        W34893   9.028  18.453   0.377  0.1843 -0.2659 -0.0623
    1W        W34894  27.109  25.698   0.040 -0.0641 -0.2658 -0.0147
    1W        W34895   1.722   6.485   9.245 -0.2347  0.0270 -0.3345
    1W        W34896   8.541  28.929   1.673  0.0708  0.1479 -0.0098
    1W        W34897  29.779  22.150   8.670 -0.2703 -0.0640 -0.2227
    1W        W34898  17.495  26.982   8.650 -0.1469 -0.1545  0.0081
    1W        W34899  12.985   9.893   1.792 -0.0390  0.1622 -0.0620
    1W        W34900   4.985   0.060   1.501 -0.1467  0.3831  0.0715
    1W        W34901  26.039  28.300   2.081 -0.2527  0.3222  0.1211
    1W        W34902  27.295  29.608   8.242  0.0107 -0.4049 -0.1901
    1W        W34903  21.630  10.886   0.652 -0.0767 -0.1042 -0.1646
    1W        W34904   1.347  27.261   9.483  0.0456 -0.1401 -0.1063
    1W        W34905  29.387  28.577   8.076  0.0438 -0.2880  0.2195
    1W        W34906  15.030  11.424   2.577  0.1636 -0.1478 -0.0006
    1W        W34907   6.971   0.774   2.229 -0.2521 -0.0201  0.1742
    1W        W34908   3.617   1.695   0.990 -0.2711  0.1190 -0.2607
    1W        W34909   3.788   2.416   0.181  0.1244  0.2976  0.0564
    1W        W34910   8.870  14.897   2.048 -0.2817  0.0939  0.1620
    1W        W34911   5.953  18.217   2.225  0.0908 -0.0822 -0.0547
    1W        W34912   1.913  16.757   7.623 -0.0106 -0.0238 -0.1221
    1W        W34913  15.566  13.018   1.227 -0.2047  0.0037 -0.0049
    1W        W34914  15.409  26.659   1.612  0.1120 -0.0095  0.1070
    1W        W34915  25.445  19.105   8.990 -0.1320 -0.1258  0.1325
    1W        W34916  23.159   8.594   8.092  0.1467  0.3068  0.0511
    1W        W34917  24.107   1.272   8.861  0.2541  0.1867  0.0932
    1W        W34918  14.593  27.720   0.505 -0.0652 -0.0243  0.0439
    1W        W34919   8.626  15.349   7.067 -0.2314  0.1276 -0.0465
    1W        W34920  20.893  16.286   8.955  0.4218  0.1485  0.0664
    1W        W34921   7.342  25.329   1.854  0.0104  0.0169  0.0135
    1W        W34922   0.237   1.179   1.812  0.0906  0.2554 -0.0334
    1W        W34923  22.231  29.661   8.686  0.1990  0.1130  0.5028
    1W        W34924   2.895  28.155   0.996 -0.1804  0.1427 -0.3277
    1W        W34925  11.270  28.384   8.897 -0.1663  0.1915 -0.0555
    1W        W34926   3.280   2.401   0.720  0.0058  0.1613  0.3326
    1W        W34927  19.574  20.239   5.707  0.4558  0.4214 -0.1437
    1W        W34928   0.444  24.641   9.107 -0.0428 -0.0885 -0.0783
    1W        W34929  10.229   1.639   0.907 -0.1689 -0.1980 -0.0312
    1W        W34930  28.392  13.131   7.729 -0.0911 -0.3131  0.1353
    1W        W34931  19.269  14.252   7.729 -0.0920  0.1014 -0.0897
    1W        W34932  22.057   5.259   8.522 -0.1659  0.0327  0.3717
    1W        W34933  19.990   8.825   6.952  0.3367  0.0137 -0.1797
    1W        W34934   7.674   1.178   0.355 -0.1884 -0.0935  0.0259
    1W        W34935  21.917   4.992   9.161 -0.0946  0.2000  0.1840
    1W        W34936  21.032  17.807   2.525 -0.0797  0.3125  0.0292
    1W        W34937  17.153  28.337   0.719 -0.0398 -0.0991 -0.0768
    1W        W34938  22.533  20.784   2.802 -0.1906 -0.1272  0.0218
    1W        W34939   9.607   8.413   9.240 -0.1133  0.1128  0.3961
    1W        W34940   3.717   8.022   7.454  0.2236  0.0363  0.0986
    1W        W34941  13.350  19.017   9.024 -0.1445 -0.3034 -0.1965
    1W        W34942  17.000  13.836   2.464 -0.2381  0.2027  0.1701
    1W        W34943  13.864   9.765   3.289  0.0958 -0.0269 -0.1421
    1W        W34944   0.299  27.544   2.043 -0.2578  0.1564  0.1592
    1W        W34945  16.070  23.268   6.989  0.5009 -0.2836  0.0598
    1W        W34946  12.664  29.040   8.501  0.0567  0.2705  0.2948
    1W        W34947  11.798   9.271   0.002 -0.2724  0.1001 -0.2333
    1W        W34948  23.289  22.602   8.202  0.1760  0.0384 -0.0416
    1W        W34949  21.235  13.253   6.180 -0.1047 -0.0844  0.1473
    1W        W34950   2.932   0.148   7.900  0.0052  0.5067  0.4178
    1W        W34951   7.522  10.388   8.056  0.1178 -0.0723  0.0637
    1W        W34952  21.408  13.349   7.652  0.0479 -0.1206  0.1318
    1W        W34953   9.844  20.479   7.019  0.0665 -0.0305  0.2116
    1W        W34954  16.983  24.281   9.041  0.1090 -0.0039  0.0241
    1W        W34955   3.278  18.190   6.893  0.1970  0.1441 -0.2582
    1W        W34956  29.180  22.307   9.052  0.0861  0.2090  0.1040
    1W        W34957  21.678  23.345   1.360 -0.1722 -0.0953  0.0139
    1W        W34958  13.221   2.993   2.171  0.0936 -0.1700  0.1336
    1W        W34959  16.058   5.682   3.144 -0.2352 -0.0179  0.1722
    1W        W34960  14.794  22.949   7.091  0.0773 -0.1235  0.1588
    1W        W34961  22.272   8.197   6.433  0.5221 -0.0314 -0.3232
    1W        W34962  27.157  22.604   0.373  0.0332 -0.1682 -0.0857
    1W        W34963  14.359   7.657   1.586 -0.0532  0.0297 -0.1714
    1W        W34964  22.450  27.665   3.927 -0.3040  0.2997 -0.2121
    1W        W34965  14.447  15.585   2.861  0.0647  0.0480  0.0164
    1W        W34966   7.058  20.185   7.469  0.1516 -0.3686 -0.0669
    1W        W34967  20.420   5.417   1.357 -0.1666  0.1447 -0.3634
    1W        W34968   9.447  18.563   6.402 -0.2496 -0.0583 -0.5658
    1W        W34969  11.235  29.648   0.098  0.0035 -0.1128 -0.0027
    1W        W34970  20.564   3.037   3.208 -0.0208  0.0107  0.1088
    1W        W34971  11.745  18.044   1.253  0.0840  0.1560  0.0314
    1W        W34972   1.743  19.528   7.433  0.3046  0.0093 -0.0947
    1W        W34973   6.612  29.190   7.759 -0.0119 -0.0487  0.1821
    1W        W34974  21.823   2.870   1.201 -0.2459  0.0581  0.0400
    1W        W34975  10.939  15.275   1.038  0.4418 -0.1013  0.2349
    1W        W34976  21.345  17.621   2.022  0.2940 -0.1252  0.1477
    1W        W34977  26.437  26.831   7.741 -0.1202  0.3029 -0.0823
    1W        W34978  23.602  10.687   1.851 -0.2479 -0.1056  0.1351
    1W        W34979   2.118  25.884   0.570 -0.3047 -0.2444 -0.1910
    1W        W34980  11.058  20.501   0.689 -0.1429 -0.1217  0.0282
    1W        W34981   7.939  13.622   0.952  0.1043  0.1132 -0.1201
    1W        W34982  20.907  27.728   7.529 -0.4521  0.1099 -0.2854
    1W        W34983  16.016  17.658   8.319 -0.0382 -0.1604  0.3082
    1W        W34984  25.362  10.140   6.444 -0.0661  0.0613  0.0293
    1W        W34985   5.485  27.723   0.409 -0.1480 -0.0302  0.1139
    1W        W34986  21.471  21.303   1.875  0.0983 -0.0403 -0.1594
    1W        W34987  12.672   1.401   9.381 -0.0799  0.0968 -0.1309
    1W        W34988  20.278  18.282   1.496 -0.3956  0.0195  0.0320
    1W        W34989  26.353   1.182   7.560  0.1344 -0.2170 -0.3442
    1W        W34990  13.633   2.552   7.817  0.0843  0.2933 -0.1634
    1W        W34991  21.079   6.920   8.151  0.2662  0.2535  0.1040
    1W        W34992  21.532   9.615   8.129 -0.2143  0.0109  0.0172
    1W        W34993  18.860  11.591   9.283 -0.1065  0.0012  0.4742
    1W        W34994  16.002   6.899   2.961 -0.0093  0.0051 -0.4977
    1W        W34995  18.346   2.988   3.374 -0.2071  0.1063 -0.4367
    1W        W34996  21.221  19.376   6.067  0.1145  0.1389 -0.0137
    1W        W34997   9.658   0.727   8.239 -0.0365 -0.1393  0.1995
    1W        W34998   7.538  12.399   8.433  0.2897 -0.0409  0.0812
    1W        W34999  19.754   2.942   3.769 -0.0077  0.3106  0.1652
    1W        W35000   3.883  18.426   9.277 -0.1024 -0.1247 -0.2439
    1W        W35001  25.294  28.274   9.293 -0.0612  0.0344  0.3729
    1W        W35002   1.548  23.774   0.007  0.0529  0.0851  0.0135
    1W        W35003  11.253   5.489   9.094  0.4177  0.3411  0.1212
    1W        W35004  12.713   6.356   1.883 -0.1633  0.1362 -0.0810
    1W        W35005  20.603  14.794   2.210 -0.2148 -0.0816  0.0933
    1W        W35006   8.765  16.472   8.099  0.0942  0.1630 -0.0630
    1W        W35007   4.458  15.983   7.519  0.0598  0.1390 -0.0642
    1W        W35008  21.515  13.108   1.203  0.0320 -0.0019 -0.4203
    1W        W35009  19.166   5.490   1.540 -0.0124 -0.1608  0.3787
    1W        W35010  23.454  19.640   8.860 -0.1728  0.0507 -0.5098
    1W        W35011   2.531   2.492   9.521 -0.1758  0.2361 -0.1907
    1W        W35012  19.768  15.746   2.621  0.0797  0.3910 -0.0724
    1W        W35013  21.412  13.894   9.426  0.0464 -0.0084  0.0296
    1W        W35014   0.183   2.470   7.660 -0.2061  0.0593 -0.0223
    1W        W35015  10.960   9.701   0.971 -0.0492 -0.1130 -0.2873
    1W        W35016   1.704  11.332   8.893 -0.2807  0.0191 -0.0096
    1W        W35017  25.474   8.509   8.535  0.0319 -0.1436 -0.1443
    1W        W35018   5.610  20.244   1.683  0.1494 -0.0289  0.3046
    1W        W35019  13.901  10.044   2.821 -0.1427  0.0098  0.0143
    1W        W35020  18.680  11.810   0.174  0.1408  0.1006 -0.3341
    1W        W35021  10.879  20.479   9.190 -0.4414  0.1332  0.0959
    1W        W35022  26.127  21.370   7.957  0.1093 -0.0400 -0.0266
    1W        W35023  26.228  25.668   8.445  0.0889 -0.0141 -0.0361
    1W        W35024   5.258  25.621   1.767  0.2496  0.1084  0.1085
    1W        W35025  17.629  23.821   6.827 -0.1485  0.3867 -0.0668
    1W        W35026  20.785  28.462   0.139 -0.2021  0.1171 -0.2297
    1W        W35027  25.310  18.373   7.937 -0.0330  0.1454 -0.0959
    1W        W35028  27.089  22.194   8.538 -0.1927  0.0711 -0.3384
    1W        W35029  17.232  10.558   0.640 -0.2751  0.1187 -0.0708
    1W        W35030   2.468  14.502   1.660  0.0625 -0.0308 -0.0406
    1W        W35031  14.677  24.439   7.249 -0.0729  0.2121  0.1741
    1W        W35032  21.090  28.129   1.043  0.1861 -0.0197 -0.2612
    1W        W35033  14.689   4.087   2.440 -0.0093 -0.0824  0.1515
    1W        W35034  20.654  13.705   6.560  0.0239 -0.0437 -0.1783
    1W        W35035  14.019  11.708   2.044 -0.3828  0.0965  0.0803
    1W        W35036  28.094  21.309   8.506 -0.1235  0.2969 -0.1934
    1W        W35037  27.506  29.753   1.794 -0.2761  0.1999 -0.4999
    1W        W35038   3.312  17.240   1.154  0.0106  0.0592  0.0953
    1W        W35039  10.497  26.790   0.088 -0.0234 -0.0606 -0.0706
    1W        W35040  28.052  21.560   6.498 -0.1150 -0.0506  0.0793
    1W        W35041  16.338   2.713   0.654  0.1341 -0.0064 -0.2382
    1W        W35042  16.611  21.858   8.974  0.0464  0.2677 -0.0618
    1W        W35043  11.994  26.740   7.161 -0.0797 -0.1119  0.0934
    1W        W35044  15.637  12.687   2.321 -0.3423  0.0827  0.2192
    1W        W35045  24.840  17.319   5.339 -0.0325  0.2070 -0.2814
    1W        W35046  18.906  25.516   8.163 -0.1954 -0.2534  0.4046
    1W        W35047   7.544  28.510   0.276  0.0010 -0.0108  0.1483
    1W        W35048   5.092  16.383   9.093 -0.0586 -0.0790 -0.1508
    1W        W35049  11.104   2.636   0.552  0.2630 -0.1702 -0.1274
    1W        W35050  10.514   2.475   9.074  0.1069  0.0776 -0.2452
    1W        W35051  24.824   4.372   7.530  0.0492  0.1067  0.0897
    1W        W35052  28.627   8.084   6.705  0.0425 -0.1092 -0.1299
    1W        W35053   8.742  24.584   9.029 -0.0836  0.1845 -0.1087
    1W        W35054   0.247  26.893   8.099 -0.1224  0.0997 -0.2692
    1W        W35055  25.171  14.724   7.746 -0.0633  0.2966  0.2864
    1W        W35056  29.008   6.248   0.568 -0.3216  0.0697  0.2777
    1W        W35057  10.396  28.205   7.735  0.1665  0.2218 -0.1012
    1W        W35058  24.686   0.121   7.067 -0.2075  0.1435 -0.2445
    1W        W35059  19.899  16.405   9.140 -0.0477  0.0630  0.0947
    1W        W35060  17.561  12.796   7.152 -0.0762 -0.3456 -0.0822
    1W        W35061  14.439  28.470   1.164  0.2039 -0.0619 -0.1438
    1W        W35062   8.633  21.307   5.911 -0.0289 -0.1981  0.3149
    1W        W35063  11.749   6.975   0.376  0.0029  0.1909 -0.0373
    1W        W35064   9.049   4.766   8.694 -0.2090 -0.0588 -0.1702
    1W        W35065  26.069   5.491   9.097  0.2353 -0.3957  0.2820
    1W        W35066   7.711  29.778   8.207  0.0017 -0.0220  0.0781
    1W        W35067  16.132  17.122   1.335  0.1089 -0.0930 -0.0910
    1W        W35068  23.657   3.798   3.597 -0.1920 -0.1843  0.0003
    1W        W35069  26.550   0.436   0.607 -0.2673 -0.1235 -0.1835
    1W        W35070  12.354   1.844   9.273 -0.0772  0.0293  0.3401
    1W        W35071  12.773  23.927   8.050  0.0686 -0.0159  0.1349
    1W        W35072  29.020  10.375   1.727 -0.3918 -0.2867  0.1933
    1W        W35073  25.672   8.291   8.976  0.0476  0.1277 -0.0313
    1W        W35074  22.990   6.810   0.934 -0.2444  0.1910  0.1023
    1W        W35075  28.094  23.378   7.883 -0.2225  0.1355  0.3263
    1W        W35076  21.229   5.614   9.116  0.1021  0.2088  0.2570
    1W        W35077   5.835   8.953   8.202 -0.1046  0.0692  0.0638
    1W        W35078  27.681   0.743   0.571  0.1841 -0.0637 -0.0858
    1W        W35079  21.285  28.241   8.819  0.0647 -0.1463  0.0362
    1W        W35080   0.494  25.858   2.941 -0.0510 -0.3444  0.1092
    1W        W35081  14.242  23.511   9.167  0.1555  0.1795 -0.1128
    1W        W35082  25.579   5.504   8.398 -0.0712 -0.1500 -0.0879
    1W        W35083  16.867   3.940   7.735 -0.1065  0.3326  0.1642
    1W        W35084  16.648   8.249   2.942 -0.0646  0.0368  0.1694
    1W        W35085  25.055   9.359   6.606  0.1641  0.1543  0.2100
    1W        W35086  25.450  22.792   1.825 -0.0769 -0.1772 -0.1012
    1W        W35087  27.107  26.638   2.530  0.0664 -0.2538 -0.2346
    1W        W35088  12.998  16.736   2.101  0.1800 -0.0855  0.0640
    1W        W35089   7.836   1.564   3.116 -0.5069  0.0093 -0.1926
    1W        W35090  22.055   9.862   8.430  0.0276 -0.0316  0.1547
    1W        W35091  24.363  23.461   7.778 -0.1708  0.2538 -0.2899
    1W        W35092  18.188  23.934   1.747 -0.1456  0.2095 -0.1009
    1W        W35093  18.668  20.785   9.344  0.2304 -0.2164 -0.0822
    1W        W35094  11.895  23.535   9.338  0.0351 -0.0344  0.1367
    1W        W35095   5.833  21.099   9.306 -0.0227 -0.0942  0.2477
    1W        W35096   7.919  28.857   3.716  0.0832  0.1390  0.1240
    1W        W35097  19.755  11.861   9.031 -0.1587  0.0009 -0.0966
    1W        W35098  21.383  22.077   9.503  0.3102  0.1647 -0.0547
    1W        W35099  22.375  10.433   7.443  0.1004 -0.2993 -0.2355
    1W        W35100   8.490   0.710   9.456 -0.1112  0.3891 -0.0332
    1W        W35101  25.327  25.485   0.930  0.0388 -0.1641  0.0162
    1W        W35102   4.563  20.000   8.105  0.1413 -0.0889  0.0975
    1W        W35103   0.683   6.166   1.358  0.1570 -0.2132 -0.0953
    1W        W35104  12.510   5.919   7.913  0.0871 -0.1647 -0.0549
    1W        W35105   4.580  13.504   6.572  0.1313 -0.0944  0.1096
    1W        W35106   1.182  20.270   6.878  0.2356 -0.0313 -0.1189
    1W        W35107  13.082   3.410   0.908  0.1440 -0.1339 -0.0050
    1W        W35108   5.105  20.281   9.159  0.1835 -0.0145 -0.0482
    1W        W35109  25.221  22.385   7.917  0.0868 -0.1622  0.2500
    1W        W35110  24.767   9.479   8.248  0.2060 -0.1251 -0.0003
    1W        W35111  28.486   8.334   8.826  0.2216  0.0629 -0.1526
    1W        W35112  20.788  16.931   7.912 -0.2192  0.0550 -0.2315
    1W        W35113  23.461  10.344   7.788  0.3049  0.2325 -0.0702
    1W        W35114   0.384   7.804   0.942  0.2442 -0.0946  0.1686
    1W        W35115  20.604  26.724   3.926  0.3279  0.0743  0.0494
    1W        W35116   1.948  11.458   0.576  0.3847 -0.1305 -0.0509
    1W        W35117  27.258   6.876   9.013  0.3036 -0.2727 -0.0207
    1W        W35118  17.028   8.397   7.286  0.1023  0.1890 -0.0605
    1W        W35119   6.058  25.334   6.470 -0.1238 -0.0762 -0.0955
    1W        W35120  11.752   3.477   3.140  0.0331  0.4114 -0.1131
    1W        W35121  22.633  24.791   2.188  0.3293  0.2794  0.3048
    1W        W35122  22.796  21.371   6.155 -0.2154 -0.1369 -0.3363
    1W        W35123   6.958   8.389   1.134 -0.2004  0.0221 -0.0530
    1W        W35124   1.210   9.874   7.534  0.2596  0.1736  0.0379
    1W        W35125  11.134  16.519   2.478  0.0438  0.0018 -0.0996
    1W        W35126   1.404  17.817   8.521  0.0098 -0.1170  0.0850
    1W        W35127  22.539  13.881   0.736  0.0027  0.0472  0.0487
    1W        W35128  22.796  10.467   0.054 -0.4089  0.0956  0.4412
    1W        W35129   1.396  27.117   1.250 -0.0584  0.0837  0.0020
    1W        W35130   0.867  11.637   1.904  0.0304  0.2912  0.0716
    1W        W35131  15.149  26.737   8.502  0.2761 -0.1457 -0.1645
    1W        W35132  18.314  21.767   7.790  0.1532  0.1738 -0.0164
    1W        W35133  14.980   8.464   7.806 -0.0251 -0.2713  0.0736
    1W        W35134  14.459   9.786   7.720  0.3391 -0.2624 -0.3260
    1W        W35135   3.099  10.561   1.434  0.1546  0.2741 -0.1614
    1W        W35136  10.688  22.035   2.286 -0.2881 -0.0662 -0.3495
    1W        W35137  23.621   9.771   7.733 -0.2146 -0.0029  0.1255
    1W        W35138  19.897  15.006   0.542  0.0673 -0.2130  0.0187
    1W        W35139  21.931  13.091   2.344  0.4442 -0.1360  0.0380
    1W        W35140  27.041   9.916   7.820 -0.2726 -0.0415 -0.2043
    1W        W35141  28.711   5.991   9.370  0.1238 -0.0309  0.0185
    1W        W35142   4.565  19.903   6.720  0.2127 -0.1152  0.2713
    1W        W35143   3.107  17.898   0.322 -0.0874 -0.0795  0.2406
    1W        W35144  26.903   6.404   1.518 -0.0534 -0.0145 -0.2197
    1W        W35145  25.331   3.574   7.344 -0.1275  0.0321 -0.1841
    1W        W35146  17.069   5.511   9.237 -0.0796  0.0366 -0.0330
    1W        W35147   1.736   9.798   7.544  0.0927 -0.2120  0.0939
    1W        W35148  17.819   8.494   7.945  0.2136  0.3500 -0.1243
    1W        W35149  12.523  12.523   7.414 -0.1232  0.0421  0.1000
    1W        W35150   4.264  11.267   7.178 -0.0157  0.0150  0.2361
    1W        W35151  27.631   7.472   9.454 -0.0351  0.1332 -0.0095
    1W        W35152   6.903  29.628   1.539 -0.0066  0.2590  0.3372
    1W        W35153  11.805   6.714   3.372 -0.1539 -0.1267 -0.1034
    1W        W35154   2.595   7.814   0.194  0.2861 -0.0652 -0.1897
    1W        W35155  12.929  27.979   8.568  0.2104  0.1859  0.0609
    1W        W35156   5.514  24.089   9.022  0.0748 -0.2948  0.1747
    1W        W35157   4.739   1.044   7.776  0.3020  0.0826 -0.2158
    1W        W35158  16.563  13.456   6.301  0.0572 -0.2086  0.5934
    1W        W35159  26.997  12.267   9.485  0.2380  0.0388 -0.0017
    1W        W35160  27.126   6.624   0.161 -0.2517  0.0827 -0.1666
    1W        W35161  14.346   6.320   7.591  0.0900 -0.0404 -0.1702
    1W        W35162  22.908   1.603   1.936  0.0372  0.2025 -0.2915
    1W        W35163  14.856   2.742   9.441 -0.0198 -0.0770  0.1476
    1W        W35164  14.310  11.238   8.175 -0.0157 -0.2701  0.1263
    1W        W35165  14.735  26.040   7.923  0.1356 -0.0288  0.0576
    1W        W35166  10.981  11.894   8.255  0.0941  0.1249  0.0681
    1W        W35167  11.292   2.184   0.803  0.1631  0.2203  0.1584
    1W        W35168  17.089   3.038   3.004  0.1242  0.4850 -0.0294
    1W        W35169   4.289  26.440   8.009 -0.0085 -0.0574  0.3630
    1W        W35170   7.186   1.935   1.876 -0.1209  0.2202  0.3007
    1W        W35171  11.720   3.361   3.673  0.2805  0.3152  0.0046
    1W        W35172  13.712   5.281   8.215  0.3951 -0.0009 -0.0773
    1W        W35173  25.613  16.372   0.712 -0.0056 -0.1925  0.1943
    1W        W35174  19.649  22.549   2.163 -0.2479  0.0742  0.1990
    1W        W35175   8.244  13.153   0.095 -0.0729  0.0532  0.2936
    1W        W35176  19.021  24.862   7.138 -0.0733  0.0286 -0.0592
    1W        W35177  27.655  15.373   8.110  0.2793 -0.0485 -0.2288
    1W        W35178  15.077  21.849   8.856 -0.1753 -0.1970  0.2172
    1W        W35179  11.910  18.789   1.967 -0.1711  0.5441  0.0295
    1W        W35180   8.072  17.933   9.159  0.2274  0.0046 -0.1382
    1W        W35181   0.520   7.649   0.453  0.3268 -0.2182 -0.2909
    1W        W35182  22.374   8.800   3.117 -0.1914 -0.4996 -0.2359
    1W        W35183  13.355  16.524   8.927 -0.3009  0.1375  0.3821
    1W        W35184  17.591  23.444   3.014 -0.2398 -0.1998  0.0447
    1W        W35185  17.416  23.447   7.447  0.3106  0.1275  0.0300
    1W        W35186  21.320  21.605   8.174 -0.0753 -0.2049  0.0201
    1W        W35187  28.038   9.133   1.468 -0.1449 -0.0478 -0.4192
    1W        W35188  26.457  23.944   8.985  0.0771 -0.1834 -0.1491
    1W        W35189   6.908  15.986   2.939  0.1262  0.2894  0.1576
    1W        W35190  26.369  19.916   7.664 -0.0647  0.0655 -0.1832
    1W        W35191   1.579   4.397   3.202 -0.1113  0.3581  0.1238
    1W        W35192  28.296   7.213   0.373 -0.2928 -0.1790 -0.0035
    1W        W35193   0.189  17.846   6.753  0.3276  0.3018 -0.1312
    1W        W35194  28.369  16.754   7.591 -0.1795  0.0323  0.1295
    1W        W35195  27.786   9.536   1.687  0.1680  0.0114 -0.1789
    1W        W35196  29.050  16.196   8.027 -0.0663  0.1164  0.0170
    1W        W35197  27.688  25.927   7.108  0.1427  0.0989  0.2110
    1W        W35198  21.688  17.659   6.351  0.4204 -0.3424 -0.2309
    1W        W35199   8.298   5.265   2.891 -0.1679  0.0299 -0.1877
    1W        W35200   3.909   6.602   7.819  0.0820 -0.1293  0.2560
    1W        W35201  16.618   2.506   7.723 -0.0078 -0.2046 -0.3379
    1W        W35202  14.259  15.322   0.125  0.0259 -0.0717  0.0683
    1W        W35203  28.601  24.416   6.980 -0.1725 -0.2349  0.3282
    1W        W35204  29.769  24.010   7.446  0.0895  0.1731  0.0115
    1W        W35205  23.613   8.102   0.740  0.0319  0.2332 -0.7032
    1W        W35206  24.977   5.416   0.417  0.1281 -0.4368  0.2747
    1W        W35207   0.975  28.384   6.928  0.1412  0.0927  0.1988
    1W        W35208   0.646  25.319   0.114  0.0630  0.1125  0.1123
    1W        W35209   2.574   4.007   2.258  0.0944 -0.3995  0.0571
    1W        W35210  17.981  17.831   9.538  0.2802 -0.1404 -0.0505
    1W        W35211   4.026  24.377   2.270 -0.2371 -0.2577 -0.2922
    1W        W35212  13.008   5.015   1.781 -0.4000  0.2194  0.4563
    1W        W35213   7.630   6.968   0.838 -0.1529  0.0800  0.2227
    1W        W35214   6.397   8.189   8.833  0.3640  0.1401 -0.1522
    1W        W35215  20.028  20.659   6.910  0.2088 -0.1336 -0.1198
    1W        W35216   6.548  17.562   9.057 -0.0441 -0.0073 -0.0463
    1W        W35217  26.231   0.484   2.810  0.1859  0.1455 -0.0146
    1W        W35218   3.295  23.374   2.877 -0.1060  0.1355  0.1383
    1W        W35219  20.727  26.122   0.729 -0.0326 -0.3485 -0.1867
    1W        W35220  29.286  11.819   8.906 -0.0944 -0.1710 -0.3296
    1W        W35221  29.601  28.421   7.672  0.2636  0.0879  0.2343
    1W        W35222   7.466  18.462   8.544 -0.0528  0.0780  0.1321
    1W        W35223   8.303   6.991   7.664 -0.2114 -0.1510  0.0048
    1W        W35224   0.251  15.302   2.395 -0.4319 -0.0400  0.0489
    1W        W35225  16.791  23.751   7.330  0.2406 -0.0096 -0.0793
    1W        W35226  14.301   7.384   9.099 -0.0631 -0.1113  0.0540
    1W        W35227  13.666  24.981   1.543  0.1375  0.2057  0.0329
    1W        W35228  19.303  22.850   9.381  0.4415 -0.0454  0.1501
    1W        W35229  11.410  29.135   1.447  0.2617  0.2616  0.0360
    1W        W35230   4.639  22.975   7.568 -0.1085  0.0288  0.2069
    1W        W35231  20.574   9.500   8.025 -0.0666  0.1060 -0.5147
    1W        W35232  21.148   3.935   1.375 -0.1380 -0.1714 -0.0879
    1W        W35233  15.375  23.752   0.722  0.1415 -0.0644 -0.1875
    1W        W35234  16.408  16.459   0.969  0.1504  0.1107  0.1828
    1W        W35235  13.044   7.371   8.872 -0.2909 -0.0902 -0.0055
    1W        W35236   4.415   5.154   1.649 -0.2305  0.0224  0.3063
    1W        W35237   1.351  10.178   8.320 -0.1211 -0.0258 -0.2760
    1W        W35238   7.028   0.199   2.710  0.0427  0.1065  0.2407
    1W        W35239   9.234  18.929   9.118 -0.2707 -0.1296 -0.0102
    1W        W35240   0.168  11.004   0.039  0.2104 -0.2962 -0.1602
    1W        W35241  15.194  21.099   0.781 -0.3101 -0.1993  0.3282
    1W        W35242  26.340  26.160   2.093 -0.1457  0.2060 -0.0659
    1W        W35243  20.086   5.073   1.268 -0.2885 -0.0403  0.0918
    1W        W35244   0.672  26.751   2.766 -0.1654  0.1326  0.0831
    1W        W35245  15.009  25.444   0.298  0.1061  0.0027  0.3439
    1W        W35246  20.058   0.887   8.016 -0.1323  0.1925  0.2755
    1W        W35247  14.805   5.935   1.558  0.0481  0.0994  0.2052
    1W        W35248  23.574  22.413   1.424  0.2830  0.0869  0.1775
    1W        W35249  21.415  21.790   1.635  0.1128 -0.0433 -0.1736
    1W        W35250  14.442  24.972   9.312  0.0917  0.2073  0.2108
    1W        W35251  22.444   9.866   1.394  0.0586 -0.0273 -0.1859
    1W        W35252   1.359  26.692   9.414  0.0081 -0.3419  0.0290
    1W        W35253  13.170  21.769   0.396  0.0185  0.0404 -0.3050
    1W        W35254   9.093  25.044   3.052  0.1239 -0.0099 -0.1459
    1W        W35255   6.193  28.846   0.054  0.0285 -0.1077  0.2388
    1W        W35256   0.971  20.129   1.255 -0.0587 -0.2130  0.0036
    1W        W35257   6.721  12.153   7.573 -0.1331 -0.2370 -0.1080
    1W        W35258  18.038   4.025   1.596  0.1693 -0.1361  0.0736
    1W        W35259  13.089  20.685   8.733 -0.1779 -0.0722  0.5271
    1W        W35260  10.036  11.631   7.178  0.1027  0.0351  0.1414
    1W        W35261   0.410  17.045   1.022 -0.0443  0.0837  0.2111
    1W        W35262  17.844  22.690   8.042  0.0206 -0.0884  0.1423
    1W        W35263   4.987  27.939   0.520  0.2127 -0.0695  0.1469
    1W        W35264   8.517   7.129   2.222  0.2354  0.0603 -0.1252
    1W        W35265  21.763  10.436   0.959  0.1257 -0.1424  0.0078
    1W        W35266  14.987  17.136   1.239  0.0937  0.4042 -0.1899
    1W        W35267   2.430  28.413   8.236  0.1749  0.0394 -0.0454
    1W        W35268  26.734   6.666   0.996  0.2266 -0.0443 -0.4261
    1W        W35269  26.071   2.184   7.863  0.1305 -0.0819 -0.4652
    1W        W35270   5.889  21.648   0.024  0.3101 -0.0812 -0.1018
    1W        W35271  22.893   7.048   1.923 -0.0114 -0.2298 -0.1402
    1W        W35272  12.283   6.999   8.654 -0.0660  0.0432 -0.1533
    1W        W35273  25.486  25.204   1.782  0.1726 -0.1343  0.2123
    1W        W35274  20.457  27.945   7.353 -0.0056  0.1715 -0.2265
    1W        W35275   7.780  15.858   8.078  0.0636  0.0965 -0.0536
    1W        W35276  27.603   2.818   2.387 -0.2620  0.2443  0.2140
    1W        W35277  20.312  28.603   0.139  0.2875 -0.0499  0.1325
    1W        W35278  27.776   7.676   6.895  0.2586 -0.0238 -0.0015
    1W        W35279  27.434   2.252   8.572  0.1763  0.0148 -0.0510
    1W        W35280  21.068  12.170   7.291 -0.1651 -0.0061 -0.0023
    1W        W35281  23.548  11.674   5.586 -0.1068  0.0076  0.2328
    1W        W35282   1.031  14.939   7.443  0.1536 -0.2383 -0.0027
    1W        W35283  28.486  22.749   0.670  0.0837 -0.0601  0.1633
    1W        W35284   3.788  20.387   9.338  0.1722  0.2080 -0.2600
    1W        W35285  16.247  16.411   3.017  0.0823 -0.1393  0.1264
    1W        W35286   5.769  27.699   7.683 -0.0952 -0.1834  0.1199
    1W        W35287   8.757  11.419   0.116 -0.3293 -0.0431 -0.0545
    1W        W35288  26.318  26.190   8.230 -0.0408 -0.0976  0.2225
    1W        W35289  11.695  11.184   9.379  0.0812 -0.0393 -0.1615
    1W        W35290  15.325  27.737   9.033 -0.1625 -0.4224  0.0306
    1W        W35291  10.442  13.680   1.320 -0.0142 -0.0163  0.0101
    1W        W35292   3.123  14.960   7.736 -0.1064 -0.4551  0.1736
    1W        W35293  16.212  22.374   0.395  0.1435  0.2316  0.1011
    1W        W35294   5.054  20.957   3.094  0.0899 -0.0908  0.1607
    1W        W35295  23.302   0.731   8.163 -0.2528 -0.1871 -0.2616
    1W        W35296  14.639   8.390   8.714  0.0959  0.0294  0.0129
    1W        W35297  26.788   4.565   7.609 -0.1148 -0.4730 -0.1907
    1W        W35298  22.270  19.067   7.300  0.3581  0.1086  0.1413
    1W        W35299  27.822  17.104   1.402  0.0581 -0.0829  0.1677
    1W        W35300  25.569  21.291   7.977  0.2267  0.1110 -0.1682
    1W        W35301   7.522  16.286   2.160 -0.1538  0.1893  0.2284
    1W        W35302  24.693  13.577   8.829  0.0944  0.0028  0.2442
    1W        W35303  16.604   0.595   1.909 -0.2230 -0.1342 -0.2092
    1W        W35304   3.234  24.071   6.864 -0.0414  0.3871 -0.1788
    1W        W35305  20.656   4.383   7.545  0.2567  0.0821  0.1339
    1W        W35306  22.194  24.743   9.429  0.3484 -0.1095 -0.2959
    1W        W35307  11.043   0.247   7.927  0.0139  0.1276 -0.0747
    1W        W35308   1.845   5.994   0.663 -0.2479  0.0189 -0.0540
    1W        W35309   6.605  17.497   8.020 -0.1475  0.1385 -0.1097
    1W        W35310  16.500  13.966   9.319  0.0398 -0.3354  0.0474
    1W        W35311  19.917   9.442   7.409 -0.1204 -0.0949  0.0291
    1W        W35312   3.480  16.765   7.981 -0.4249 -0.0602  0.0441
    1W        W35313  14.142  13.699   7.946 -0.1201 -0.0758  0.2123
    1W        W35314  26.470  19.601   6.952 -0.1276  0.0143 -0.1124
    1W        W35315   1.663  22.653   8.987  0.0376 -0.0959 -0.1247
    1W        W35316  24.444  14.383   5.931 -0.3291 -0.1161  0.1719
    1W        W35317   4.739  24.389   8.387 -0.1793  0.1385  0.0341
    1W        W35318   7.641  28.402   8.742  0.5658 -0.2429  0.0205
    1W        W35319  14.521  19.008   8.274  0.0506 -0.3460 -0.2988
    1W        W35320   4.382  18.963   8.047 -0.1722 -0.1366  0.1181
    1W        W35321  18.514   8.707   0.105 -0.3386 -0.1041 -0.0669
    1W        W35322   9.226  28.929   0.869  0.0707 -0.1014 -0.1759
    1W        W35323  22.697  28.124   1.981 -0.2310  0.0832 -0.1349
    1W        W35324  15.931   3.433   1.934 -0.0951  0.3659  0.0245
    1W        W35325  19.953  23.680   2.570  0.2639 -0.1205 -0.0253
    1W        W35326  23.105  12.931   0.004 -0.4051  0.0999  0.0658
    1W        W35327  13.948  18.479   0.678 -0.0628  0.1958  0.3295
    1W        W35328   8.833  19.745   6.969 -0.2618  0.1498  0.3788
    1W        W35329  26.342  28.859   2.841 -0.3495  0.2103  0.0140
    1W        W35330  10.329  12.217   7.728  0.0125 -0.2450  0.0830
    1W        W35331  25.563  29.702   1.364  0.2307 -0.0163  0.0040
    1W        W35332   0.674  11.039   0.107 -0.0371  0.1274 -0.2413
    1W        W35333   7.232   5.042   0.728 -0.0103  0.0375  0.3297
    1W        W35334  18.994  19.818   1.817 -0.2588  0.1149 -0.1133
    1W        W35335  10.050  23.525   2.320  0.0475 -0.0483 -0.5043
    1W        W35336   7.259  16.951   9.005 -0.0931  0.1014 -0.0356
    1W        W35337  19.455   8.559   7.176 -0.1218 -0.1281 -0.1382
    1W        W35338   1.537  20.944   1.849 -0.3455 -0.0463 -0.2662
    1W        W35339  22.611  20.050   1.273 -0.0754 -0.0120 -0.2461
    1W        W35340   5.097   8.334   7.889  0.1978 -0.2473 -0.0732
    1W        W35341   2.702  15.146   7.561  0.2346 -0.2680 -0.0468
    1W        W35342   6.200   0.632   7.325 -0.4571 -0.0947  0.3624
    1W        W35343  11.419  14.620   0.937  0.2423  0.0550 -0.3489
    1W        W35344  19.126  21.306   6.586  0.1438  0.2038 -0.4270
    1W        W35345   6.367   6.219   8.720  0.1436 -0.1044  0.1811
    1W        W35346  11.956   6.853   7.615  0.0183 -0.1130  0.3458
    1W        W35347   6.240  26.502   7.400 -0.3526  0.0654 -0.0984
    1W        W35348   2.280  10.106   0.910 -0.4257  0.1312  0.0551
    1W        W35349   0.642  19.175   9.165  0.1372 -0.1127 -0.0678
    1W        W35350  16.848  25.827   2.322 -0.1490 -0.0532  0.0217
    1W        W35351   0.231  26.088   2.571 -0.0075 -0.1267  0.1568
    1W        W35352   3.829   4.857   0.259 -0.1155  0.0433 -0.2392
    1W        W35353  16.610   5.979   2.191 -0.2020  0.2966  0.0475
    1W        W35354   3.841  14.776   1.494  0.0298 -0.0007  0.1866
    1W        W35355   5.940   6.457   0.702 -0.2494 -0.0964  0.0648
    1W        W35356   3.117  10.100   7.889  0.2282  0.2787  0.3292
    1W        W35357   7.319  29.019   2.011  0.2006 -0.3011 -0.0582
    1W        W35358  27.322  14.662   8.812  0.0543 -0.2903  0.4935
    1W        W35359  21.760   9.460   9.393  0.2054 -0.3858 -0.0698
    1W        W35360   4.418   0.631   6.252 -0.1923  0.2199 -0.0195
    1W        W35361  15.989  14.434   8.047 -0.2196  0.0026 -0.0041
    1W        W35362   5.119   7.892   8.068  0.3253  0.2389 -0.1321
    1W        W35363   9.236  13.825   7.463  0.0796  0.2951  0.2556
    1W        W35364   4.365   3.250   1.620  0.0865 -0.0244 -0.2995
    1W        W35365  16.141   8.394   8.218  0.1937  0.0775 -0.0413
    1W        W35366   3.170   6.993   8.308  0.0168  0.1598 -0.1746
    1W        W35367  12.695   9.249   2.306  0.2317  0.2726  0.0261
    1W        W35368  26.723  10.566   8.681  0.4495  0.0724  0.2568
    1W        W35369   6.174   8.581   1.402  0.0899  0.2450  0.0281
    1W        W35370   4.054   5.472   8.973 -0.1156  0.1416  0.0729
    1W        W35371  12.053  28.659   9.111  0.1273  0.4102  0.4096
    1W        W35372  10.123  28.627   6.972 -0.1676  0.1769 -0.1513
    1W        W35373  29.590  27.235   7.964  0.2772 -0.2148  0.1335
    1W        W35374   2.697  19.148   1.481 -0.1404  0.1308  0.0202
    1W        W35375  17.429   1.952   6.619  0.0051  0.2053  0.2078
    1W        W35376  13.962  18.491   6.621 -0.1795 -0.2261  0.1868
    1W        W35377   6.632  22.342   9.230  0.1107 -0.0459  0.0113
    1W        W35378  19.750  17.988   7.907 -0.0644  0.0495 -0.4233
    1W        W35379  23.976   3.110   9.470 -0.2607 -0.3067  0.0996
    1W        W35380  27.127  15.333   6.260 -0.0384  0.0676 -0.0582
    1W        W35381  10.350   1.345   2.811  0.0187  0.1415 -0.0766
    1W        W35382  21.374  23.631   8.963 -0.0374  0.1025  0.1149
    1W        W35383  13.857  29.547   2.570 -0.2094 -0.0183  0.1474
    1W        W35384   5.051  15.276   1.606 -0.2486 -0.1052  0.2159
    1W        W35385  15.815  28.253   2.778 -0.0953  0.0973  0.0389
    1W        W35386   1.435  11.740   1.233  0.1752  0.2026  0.3039
    1W        W35387   9.507  14.542   1.223 -0.2719  0.2715  0.0899
    1W        W35388  21.002  16.848   0.416 -0.0871 -0.1410 -0.1313
    1W        W35389   0.816  14.776   1.744  0.0746 -0.0341 -0.0787
    1W        W35390  19.778  14.152   7.869 -0.2390  0.0378 -0.0336
    1W        W35391  11.218   8.914   2.681 -0.2177  0.3115 -0.0533
    1W        W35392  12.301   7.432   0.433  0.0017  0.2466  0.2017
    1W        W35393  22.721  23.877   2.874  0.1296 -0.0272  0.0011
    1W        W35394  16.036  11.181   8.094  0.0154  0.1169  0.1025
    1W        W35395  28.026   4.568   3.254  0.1779  0.0227  0.0390
    1W        W35396  19.456  14.056   0.945 -0.0882  0.0599 -0.1418
    1W        W35397  19.262  18.223   1.843  0.2059 -0.1190 -0.3503
    1W        W35398  26.997   4.612   9.523  0.1803  0.2958 -0.1549
    1W        W35399  17.049   1.693   7.395 -0.0227  0.3397 -0.0414
    1W        W35400   2.388   4.533   0.664  0.1511 -0.0556  0.3397
    1W        W35401  21.301   4.681   8.647  0.0724  0.1079 -0.0224
    1W        W35402  10.089   9.646   0.028  0.2771  0.0415  0.0057
    1W        W35403   2.723   2.066   0.981 -0.0942  0.3271  0.1941
    1W        W35404  19.001  22.957   7.257 -0.0156  0.2499 -0.2068
    1W        W35405  20.920  12.455   6.373 -0.1633  0.2220  0.0456
    1W        W35406  18.930  28.414   8.477 -0.1061  0.1338 -0.1445
    1W        W35407  28.418  26.847   2.179  0.1251 -0.0589  0.0586
    1W        W35408  17.130   6.545   0.329  0.2878 -0.1561  0.1197
    1W        W35409  22.797  29.745   1.380  0.1512  0.1404  0.1346
    1W        W35410   6.137  20.879   2.162 -0.1159 -0.0392 -0.1793
    1W        W35411  10.858  23.416   9.306 -0.0845  0.1781  0.2852
    1W        W35412  15.330  19.353   6.205 -0.0398  0.1014  0.0461
    1W        W35413  20.184  27.080   8.137 -0.0632  0.1791  0.2138
    1W        W35414   0.214  23.311   0.287 -0.2624  0.1145  0.0091
    1W        W35415  12.816  24.438   7.898  0.2842 -0.0438  0.3748
    1W        W35416   8.953   1.216   8.006 -0.1036  0.3998  0.0496
    1W        W35417   2.733   3.967   8.320 -0.1213 -0.1716  0.1454
    1W        W35418   3.759  20.116   6.643  0.2661  0.1321  0.0355
    1W        W35419   6.940   7.882   1.167 -0.0030 -0.0790  0.0846
    1W        W35420  28.205   5.938   1.867 -0.1202  0.1644  0.2231
    1W        W35421  12.670   4.561   9.394  0.2659 -0.1990  0.0684
    1W        W35422  21.667  13.622   9.121  0.3209  0.0362 -0.2506
    1W        W35423  27.839  11.128   6.450 -0.0519 -0.0749  0.1535
    1W        W35424  21.925   6.937   8.784 -0.0251  0.2766 -0.2367
    1W        W35425  27.004   4.066   8.199 -0.2112 -0.1585  0.1057
    1W        W35426  22.410  19.700   1.549 -0.0371  0.2007 -0.0218
    1W        W35427   3.219   4.042   8.024  0.0393 -0.1012 -0.2288
    1W        W35428   1.944  19.408   9.507 -0.0754 -0.3467 -0.0561
    1W        W35429   3.914   1.350   7.131 -0.1804 -0.3484 -0.4334
    1W        W35430   3.807   9.947   6.806 -0.1901 -0.0964  0.0026
    1W        W35431  21.820   4.407   1.611  0.2011  0.0538 -0.4193
    1W        W35432   8.944  16.770   7.735  0.1146 -0.0752  0.0540
    1W        W35433  19.189  28.061   7.600 -0.1591  0.1607 -0.0504
    1W        W35434  20.616  10.712   6.705  0.0701 -0.1647  0.0040
    1W        W35435   6.227  26.964   2.181 -0.2393  0.0299  0.3353
    1W        W35436   5.983  20.495   0.588 -0.2237 -0.0523 -0.1176
    1W        W35437  19.693   1.187   7.763  0.0656  0.0621  0.2761
    1W        W35438   5.366  22.187   7.863 -0.3316 -0.1797 -0.1408
    1W        W35439  26.553  28.379   9.327 -0.1573 -0.3059 -0.2329
    1W        W35440   3.562  24.630   2.402 -0.1815 -0.3429  0.0354
    1W        W35441  10.189   6.587   7.747  0.2017  0.0198 -0.2187
    1W        W35442  13.817  17.489   7.660 -0.3036  0.0977 -0.0626
    1W        W35443  12.768   9.845   7.400  0.0625 -0.1512  0.0025
    1W        W35444  26.643   1.163   1.752 -0.0843 -0.0733 -0.1858
    1W        W35445   3.489  26.621   1.254 -0.0168  0.2322  0.1034
    1W        W35446  21.945  29.793   2.588  0.0762 -0.0361  0.1199
    1W        W35447   9.320  19.031   7.402  0.2278 -0.0103  0.0609
    1W        W35448   3.672   9.486   0.467  0.2354 -0.0572 -0.0455
    1W        W35449  25.968  13.815   6.325 -0.1625 -0.0719 -0.2790
    1W        W35450  23.965  21.823   2.006  0.0927  0.2606 -0.0436
    1W        W35451   1.588   7.354   2.249 -0.3362 -0.1038 -0.3019
    1W        W35452  17.850   7.593   9.224  0.0289  0.1879 -0.0587
    1W        W35453  22.281   8.061   1.901  0.4065  0.0420 -0.2720
    1W        W35454  12.128   2.960   3.795 -0.1239  0.0685 -0.1171
    1W        W35455  22.787   3.145   2.283 -0.0735 -0.0031  0.1091
    1W        W35456  21.594  17.335   6.816  0.2000  0.1639  0.1557
    1W        W35457  20.328   8.500   2.595 -0.2547 -0.0364  0.2054
    1W        W35458  15.430   6.792   0.125  0.1308 -0.0564  0.2019
    1W        W35459  28.795   6.767   1.860  0.0720  0.0077 -0.0123
    1W        W35460  10.984   8.684   0.407  0.1327  0.1686  0.1262
    1W        W35461   8.303   3.245   1.402  0.0457  0.0424 -0.3182
    1W        W35462  17.231   1.002   3.354 -0.3707 -0.1233  0.1187
    1W        W35463   1.160  22.516   1.992  0.3355 -0.1433  0.0044
    1W        W35464  19.750  21.179   9.247  0.0000 -0.1198  0.0161
    1W        W35465  16.566  17.286   7.300 -0.1107  0.0657 -0.2605
    1W        W35466   7.023   5.473   2.701 -0.2110  0.1580  0.0846
    1W        W35467  23.686   4.550   0.929 -0.0047 -0.2240 -0.0674
    1W        W35468  16.790   6.539   9.429  0.0143  0.1351 -0.1581
    1W        W35469  14.887  13.980   7.159  0.0592 -0.0901  0.3184
    1W        W35470  13.134  27.920   0.284  0.2795 -0.3692  0.0621
    1W        W35471  10.196   3.852   9.167 -0.1511  0.2235  0.0231
    1W        W35472  10.649  12.477   9.092  0.0335  0.0266  0.0217
    1W        W35473  11.373  27.179   1.469  0.2020  0.1128  0.0127
    1W        W35474  11.498   0.405   1.170  0.3737  0.0678  0.1275
    1W        W35475  12.812   5.612   0.232 -0.3709  0.1001  0.3178
    1W        W35476  18.214  23.290   6.193  0.2787  0.1727  0.3257
    1W        W35477   1.885   9.161   2.340 -0.2455 -0.0113  0.0027
    1W        W35478   7.604  11.978   7.698  0.2024 -0.0781 -0.0876
    1W        W35479   1.336   9.705   8.041 -0.1757 -0.2282 -0.0919
    1W        W35480  29.082  25.821   1.438 -0.2856 -0.0725  0.1405
    1W        W35481  15.381  11.250   2.191 -0.0239 -0.2224  0.0981
    1W        W35482   4.919  29.387   2.199 -0.0431  0.0376  0.2562
    1W        W35483  24.617  29.262   2.823 -0.1232 -0.2734  0.1119
    1W        W35484  29.123  14.528   8.680  0.1158  0.0397 -0.2845
    1W        W35485  11.637   7.448   6.508 -0.1030 -0.0666  0.0218
    1W        W35486  15.160  28.610   8.453 -0.0489 -0.1784  0.0248
    1W        W35487  28.232  27.626   2.629 -0.0866 -0.1380 -0.0069
    1W        W35488   0.264  28.673   1.782  0.0433 -0.0247 -0.3172
    1W        W35489  19.684  11.776   1.536  0.1912 -0.2655  0.2305
    1W        W35490   1.517   6.574   6.538  0.1423 -0.0365 -0.1352
    1W        W35491   2.731   3.835   1.848  0.1139 -0.1864  0.1896
    1W        W35492  23.367   1.196   8.650  0.0170  0.1685 -0.0310
    1W        W35493   4.019  29.724   9.276 -0.0788 -0.0727  0.0172
    1W        W35494   8.829  14.401   1.852 -0.1673 -0.2437  0.0253
    1W        W35495  24.292   5.122   1.302 -0.1039 -0.0011  0.1504
    1W        W35496   6.963  27.595   8.262  0.1425 -0.1962  0.3346
    1W        W35497   3.489  24.164   9.036 -0.0146  0.1353  0.1660
    1W        W35498  22.399  18.145   6.513 -0.0243 -0.3083 -0.2140
    1W        W35499  25.681  22.173   1.321  0.1560  0.0514  0.0371
    1W        W35500   2.049  27.667   2.066  0.0710 -0.0560 -0.2090
    1W        W35501   3.230  16.618   1.629  0.0640  0.0660 -0.1655
    1W        W35502  26.660  25.882   9.520  0.0052  0.0846 -0.1618
    1W        W35503  13.608   0.960   7.367 -0.0406  0.2474 -0.1910
    1W        W35504  13.766  15.177   0.510  0.4450  0.1156  0.0222
    1W        W35505   0.202  20.014   8.899 -0.1744  0.0992 -0.2365
    1W        W35506  22.524   7.926   8.185 -0.0537 -0.0880 -0.2482
    1W        W35507  21.484   1.396   9.538 -0.1171 -0.0735 -0.2522
    1W        W35508  21.756   2.475   7.738 -0.1131  0.1749 -0.1206
    1W        W35509  16.233  15.962   8.886  0.0064  0.0184 -0.2640
    1W        W35510  19.407   0.309   1.005 -0.3630  0.0651  0.1814
    1W        W35511   8.413  15.003   9.245  0.0125  0.0375  0.2477
    1W        W35512  22.174  20.392   0.285 -0.1696 -0.0351 -0.0486
    1W        W35513   8.546  18.738   6.556 -0.2462  0.2324 -0.1017
    1W        W35514  19.387   4.752   7.468  0.0329 -0.0271  0.0515
    1W        W35515  20.716  12.124   6.986  0.2414 -0.1332 -0.0055
    1W        W35516   4.266  22.515   2.643 -0.2500 -0.0525  0.1811
    1W        W35517   7.183   2.474   2.630  0.0711 -0.0401 -0.0653
    1W        W35518   6.922   4.559   0.728  0.2335  0.0165 -0.0485
    1W        W35519  16.777  19.194   0.983  0.0412 -0.1162 -0.0851
    1W        W35520  26.513  22.825   7.423  0.0601 -0.1860 -0.0370
    1W        W35521  28.033   4.721   6.970 -0.0972 -0.0794  0.2831
    1W        W35522   4.244  28.453   8.734  0.1927 -0.2262  0.1209
    1W        W35523   3.903  28.549   5.890 -0.1839  0.2595  0.2630
    1W        W35524  14.230   9.298   7.600 -0.0786 -0.2501 -0.1460
    1W        W35525   2.918  16.997   0.294 -0.0049  0.3312  0.0949
    1W        W35526  17.318  18.941   2.095  0.0226 -0.2376  0.3699
    1W        W35527  26.493   4.783   6.986 -0.1004 -0.0708  0.0480
    1W        W35528  16.800  20.248   2.100 -0.1390  0.2695 -0.2384
    1W        W35529  26.247   9.437   1.669 -0.1858 -0.2123  0.3000
    1W        W35530   9.030  15.359   2.156  0.1718 -0.0451  0.2433
    1W        W35531   5.614   8.986   7.258 -0.0213  0.0317  0.1176
    1W        W35532  10.393  20.131   1.852  0.0340  0.1175  0.0898
    1W        W35533   4.884   2.360   8.822 -0.3181 -0.1356 -0.0039
    1W        W35534  23.894  18.970   5.777  0.1162  0.3505  0.0640
    1W        W35535  15.914   9.488   2.687  0.2544 -0.1690 -0.1284
    1W        W35536  22.339  12.439   8.142 -0.2882 -0.0772 -0.2025
    1W        W35537   7.792  18.522   1.949  0.1319  0.1723 -0.0791
    1W        W35538  14.748  17.290   1.731 -0.0852 -0.0548  0.0372
    1W        W35539   6.398   9.710   7.955  0.0810 -0.1108 -0.2393
    1W        W35540   6.555  29.362   2.365  0.0649 -0.0675  0.0617
    1W        W35541  16.676  13.396   8.812 -0.1008 -0.1846 -0.0742
    1W        W35542   6.501  29.423   8.303  0.0834 -0.1207 -0.2246
    1W        W35543  26.871   9.062   3.038  0.0424 -0.1161  0.2195
    1W        W35544   4.537  11.639   1.073  0.1909  0.0437  0.1132
    1W        W35545  14.290  21.726   7.566 -0.0079 -0.1088 -0.0831
    1W        W35546   6.715  20.418   8.045 -0.0522  0.0838  0.1612
    1W        W35547  16.457  10.090   0.781  0.0057  0.0133  0.0049
    1W        W35548  25.766  17.536   7.513 -0.1352 -0.0428  0.3443
    1W        W35549   8.083  29.031   0.971  0.1414 -0.0664  0.1267
    1W        W35550  11.823  18.830   0.845  0.1009 -0.2030 -0.2443
    1W        W35551  17.698  18.567   7.880  0.1483 -0.0707  0.0287
    1W        W35552  16.396   6.170   0.782 -0.0254 -0.1551 -0.1348
    1W        W35553  29.406  14.956   7.186  0.1952  0.0615 -0.0140
    1W        W35554   3.759  22.537   7.615 -0.1587  0.0811 -0.1331
    1W        W35555   0.372  12.475   1.987 -0.1663  0.3913  0.0273
    1W        W35556  23.938  26.786   7.484  0.0146  0.0976 -0.0356
    1W        W35557  16.994  20.816   2.082 -0.1421  0.0736  0.0555
    1W        W35558  27.692  18.203   8.811 -0.2460  0.0457  0.1405
    1W        W35559  17.704   5.226   6.642  0.2244  0.0821 -0.0590
    1W        W35560   7.079  27.389   0.667 -0.2128 -0.0747  0.1884
    1W        W35561   8.590  10.537   0.757  0.3221  0.0729  0.3681
    1W        W35562  11.955   9.102   8.153 -0.1863  0.1738 -0.0386
    1W        W35563  10.838  19.977   9.206  0.0146  0.2993  0.1259
    1W        W35564  27.058   7.518   0.158  0.0521  0.0803  0.0528
    1W        W35565  11.920  17.015   0.582  0.0333 -0.1520  0.4279
    1W        W35566  12.191   0.428   1.111 -0.0708 -0.3195 -0.0331
    1W        W35567   1.772  27.286   1.597  0.2042  0.4547 -0.2125
    1W        W35568  26.738  25.201   2.171  0.2135  0.2387 -0.2208
    1W        W35569  18.999  28.735   2.120 -0.5216 -0.2502  0.0127
    1W        W35570   3.625   3.255   7.202  0.0350 -0.0566 -0.0867
    1W        W35571  13.531  25.358   0.245 -0.0981  0.1650  0.3300
    1W        W35572  25.325  19.244   0.693  0.0756  0.0732  0.2108
    1W        W35573   3.849  27.689   1.797 -0.0109 -0.2230 -0.1048
    1W        W35574   1.769  24.850   1.914 -0.1486  0.1480 -0.2196
    1W        W35575   3.670  15.084   7.087 -0.0533  0.2204  0.3115
    1W        W35576  15.365   2.307   1.987  0.2605  0.0732  0.0380
    1W        W35577   9.413  18.772   0.046  0.2259 -0.3638 -0.0151
    1W        W35578   2.071  14.707   1.988  0.1384 -0.0982  0.1498
    1W        W35579  26.207  19.502   9.017  0.1869 -0.1439 -0.0385
    1W        W35580   0.368  13.233   7.576  0.0119 -0.0133 -0.4591
    1W        W35581   1.023  10.184   7.858 -0.1105 -0.3428  0.1064
    1W        W35582  24.347  29.271   3.662  0.1095  0.0285  0.0394
    1W        W35583  20.376  21.863   9.003 -0.4005 -0.3984 -0.2497
    1W        W35584  26.149  10.690   1.190  0.0875 -0.1004 -0.2104
    1W        W35585   0.666  18.588   6.779 -0.2691 -0.2894 -0.0023
    1W        W35586  12.036  12.697   9.517  0.2551  0.2581  0.0690
    1W        W35587  18.025  10.808   0.118  0.1350 -0.3697  0.1120
    1W        W35588  14.935  17.655   7.807 -0.1963  0.0207 -0.1782
    1W        W35589  13.895   0.637   9.446 -0.1953 -0.3651  0.0077
    1W        W35590  18.552   2.983   1.496 -0.2118  0.0253 -0.1206
    1W        W35591  24.318   5.548   1.649  0.0313  0.0971  0.1280
    1W        W35592  16.953  27.837   1.938 -0.0682  0.2828  0.1602
    1W        W35593  28.571   1.399   8.966  0.0755 -0.0864 -0.1588
    1W        W35594   3.139   6.873   0.976 -0.1644  0.3028 -0.0005
    1W        W35595   1.851   7.393   8.053  0.0725 -0.0968  0.2591
    1W        W35596   8.263  13.867   1.647  0.3144  0.3409  0.3445
    1W        W35597  14.555  21.408   7.279 -0.0561  0.1142  0.0244
    1W        W35598   0.479   8.948   8.260  0.0665  0.0130  0.1463
    1W        W35599  13.224  21.182   1.111 -0.3509  0.4679  0.0493
    1W        W35600   8.692  22.505   7.933 -0.1240  0.0079 -0.2402
    1W        W35601  27.305   3.215   7.234 -0.2157  0.0630  0.0071
    1W        W35602  26.672   9.045   0.447 -0.0462 -0.1037  0.1774
    1W        W35603   4.859  15.792   1.677  0.0906 -0.1691  0.2366
    1W        W35604  27.522   1.387   2.296  0.4472 -0.0344 -0.1187
    1W        W35605   9.085  20.947   1.494  0.2183  0.0410  0.2548
    1W        W35606   3.567  25.802   8.677 -0.0438 -0.0052  0.1103
    1W        W35607  13.126   5.515   1.004  0.2210 -0.1166 -0.2314
    1W        W35608  11.501  25.788   2.807 -0.0466 -0.0152 -0.0073
    1W        W35609   2.395  18.716   1.634  0.2103 -0.3560 -0.0996
    1W        W35610  18.428  26.056   2.497  0.1044  0.1491  0.0583
    1W        W35611  18.825  27.171   7.941  0.1186  0.4593 -0.1360
    1W        W35612  27.187  13.874   0.354 -0.0802  0.3511  0.0806
    1W        W35613  20.781   5.616   8.871  0.1337  0.3467  0.0826
    1W        W35614  13.891  22.800   0.719 -0.0118 -0.3279 -0.1010
    1W        W35615   5.290   5.575   2.310  0.1903 -0.0701 -0.1025
    1W        W35616  12.483  29.395   2.646  0.1725 -0.0641  0.0695
    1W        W35617   1.265  15.067   1.787  0.1674 -0.1216 -0.3474
    1W        W35618   9.147   2.742   8.501  0.3111 -0.0426  0.3779
    1W        W35619  16.734   5.745   0.091 -0.1391  0.0422  0.0954
    1W        W35620   7.951  12.275   8.183 -0.1058  0.2147  0.1526
    1W        W35621  25.821  18.806   6.169  0.2570  0.0344 -0.0144
    1W        W35622  13.642  14.364   8.994  0.2743 -0.0460 -0.2494
    1W        W35623  28.116  18.734   8.100 -0.1410 -0.2129 -0.2114
    1W        W35624  25.255   1.710   1.014 -0.2576 -0.2198 -0.2501
    1W        W35625   2.562   7.332   6.877  0.1797  0.1801 -0.1279
    1W        W35626   4.463  27.387   8.143 -0.1226  0.0157 -0.0591
    1W        W35627  22.355  12.124   0.573  0.0661 -0.3229  0.1507
    1W        W35628  18.278  23.696   6.934 -0.0303 -0.2442 -0.0970
    1W        W35629   8.811   1.446   7.571  0.3730  0.1176 -0.1316
    1W        W35630  20.134   1.030   0.357  0.0339 -0.0204  0.1734
    1W        W35631  23.136  16.351   8.367  0.1906 -0.1586  0.0200
    1W        W35632   3.272  28.891   7.295 -0.0260 -0.0231  0.0036
    1W        W35633  15.540  12.057   0.839 -0.0209 -0.0929  0.4185
    1W        W35634  13.667  18.068   8.266  0.1485 -0.0297  0.1741
    1W        W35635  20.638  25.347   0.143 -0.0794 -0.1039 -0.0619
    1W        W35636   5.451  28.154   0.773  0.2710  0.1822 -0.0032
    1W        W35637   8.096  14.743   9.514  0.2625  0.1301  0.2504
    1W        W35638   9.655  26.109   6.867  0.0863  0.2290  0.2143
    1W        W35639  26.940  28.243   1.360  0.0511  0.2171  0.0315
    1W        W35640  27.067  28.521   2.135 -0.1851  0.0695  0.3802
    1W        W35641  16.973  27.498   9.096 -0.1933 -0.0135 -0.0360
    1W        W35642   8.417  18.297   8.370 -0.0239  0.1784  0.0387
    1W        W35643  11.207   1.680   0.839 -0.0505 -0.1570 -0.0711
    1W        W35644  22.458  14.594   8.880  0.1004 -0.0692 -0.2768
    1W        W35645   2.232   3.595   1.993  0.0163 -0.2051  0.3272
    1W        W35646   2.315  19.268   9.127  0.4449  0.1759 -0.2229
    1W        W35647  13.465  21.293   0.674 -0.1806 -0.3214  0.1690
    1W        W35648  21.103  13.552   1.769 -0.0271 -0.0392 -0.1861
    1W        W35649  15.962  10.127   1.068  0.0067  0.1497 -0.1238
    1W        W35650  15.601  21.494   7.866 -0.0315 -0.0165 -0.2144
    1W        W35651  12.745   5.689   7.438  0.1825 -0.0185  0.1272
    1W        W35652  13.921   9.913   7.773  0.0458 -0.0838 -0.0757
    1W        W35653  12.662  21.620   2.153  0.0460 -0.0071 -0.3574
    1W        W35654   3.946  15.925   8.228  0.0556  0.0182 -0.0688
    1W        W35655  20.615  18.181   6.855  0.3668  0.0935 -0.1371
    1W        W35656  26.756  27.482   7.306  0.0570  0.0372 -0.1289
    1W        W35657  22.428  11.626   8.360  0.2140 -0.0390  0.0203
    1W        W35658  27.214  18.169   0.097  0.3759 -0.4092  0.1396
    1W        W35659  20.511   7.324   1.422  0.1409  0.1273  0.0769
    1W        W35660   1.850  16.521   0.027 -0.1866  0.1776  0.1293
    1W        W35661   4.120   6.854   1.723 -0.0459 -0.1835 -0.0238
    1W        W35662  13.860   6.310   1.873  0.0731 -0.1108  0.1328
    1W        W35663  22.166  12.081   9.141  0.3352  0.0261  0.3019
    1W        W35664  21.029   3.759   1.987  0.0289  0.2033  0.1068
    1W        W35665   2.342  26.935   9.088  0.0748  0.1936  0.1037
    1W        W35666  14.918   9.572   2.655  0.2774 -0.0106  0.0259
    1W        W35667  23.755  25.951   8.076  0.0845 -0.1585  0.0616
    1W        W35668  17.584  16.020   2.857  0.2133 -0.3088 -0.0118
    1W        W35669   2.555  22.536   1.540 -0.5311  0.1117  0.2338
    1W        W35670   2.528   8.423   8.573  0.1389 -0.1054 -0.3223
    1W        W35671   7.377   2.519   3.100 -0.2343  0.3626  0.0710
    1W        W35672   3.981   8.696   3.029 -0.0581 -0.0489 -0.0931
    1W        W35673   5.464   6.758   3.252 -0.0133  0.3314 -0.0573
    1W        W35674  13.879   3.872   7.340  0.1167 -0.3806 -0.0719
    1W        W35675   9.212  14.701   1.622 -0.1305 -0.0860 -0.1936
    1W        W35676   1.970   0.168   6.629 -0.4092  0.0330  0.1856
    1W        W35677  10.794  18.440   1.441  0.0770 -0.0215 -0.0711
    1W        W35678  21.944  25.148   2.880 -0.1830 -0.0532  0.2062
    1W        W35679  18.272   3.345   7.982  0.0180  0.1260  0.0906
    1W        W35680  15.744  18.859   2.198 -0.2383  0.0299 -0.0269
    1W        W35681  11.434  21.450   1.343 -0.1355 -0.2758  0.0946
    1W        W35682  21.774  25.036   9.294  0.1384  0.0269 -0.1846
    1W        W35683  25.932  23.023   8.106 -0.2333  0.4281  0.2231
    1W        W35684  11.823   2.332   7.920  0.1842 -0.0515 -0.0904
    1W        W35685  20.922  15.251   1.715  0.0033  0.1865 -0.0942
    1W        W35686  28.478  25.741   8.357  0.1996  0.3472 -0.1456
    1W        W35687  27.884  28.298   2.138  0.4381  0.3641 -0.2008
    1W        W35688   7.093  17.239   8.304 -0.3581 -0.1269 -0.1926
    1W        W35689   7.863   6.381   7.369  0.1078 -0.3970  0.1525
    1W        W35690  16.381   9.226   1.910  0.0156 -0.1859 -0.1458
    1W        W35691  27.612  24.266   8.750 -0.2409  0.2488 -0.3391
    1W        W35692  17.448   5.754   0.700 -0.0265 -0.0255  0.0316
    1W        W35693  22.557   5.798   3.359 -0.1369 -0.1072  0.0200
    1W        W35694   8.387   4.268   3.342  0.3146 -0.0010 -0.1908
    1W        W35695  17.222  23.107   3.188  0.0043  0.1513  0.1871
    1W        W35696  12.657  23.027   8.287 -0.1059  0.4311 -0.1134
    1W        W35697   6.228  27.322   2.725  0.2643 -0.1609  0.1176
    1W        W35698  22.289   5.028   2.392 -0.0884 -0.0141  0.3316
    1W        W35699   1.200  12.893   7.720  0.3331 -0.3397  0.1377
    1W        W35700  12.116  18.185   0.342  0.3181  0.3276 -0.1300
    1W        W35701  18.989   9.749   7.616 -0.1045 -0.1150 -0.3248
    1W        W35702  28.717  21.399   8.610  0.0198 -0.1161  0.2479
    1W        W35703  21.019   4.429   0.117 -0.2474 -0.1870 -0.1912
    1W        W35704  14.463   8.910   2.396  0.0760 -0.1923 -0.0056
    1W        W35705  18.639   5.356   0.362  0.4584 -0.2859  0.0786
    1W        W35706  14.817   1.735   9.469 -0.2863 -0.0174 -0.0680
    1W        W35707  11.069  10.452   9.403 -0.1226 -0.2817 -0.0260
    1W        W35708  20.766   3.477   6.983  0.2037 -0.2281  0.0860
    1W        W35709  20.197  11.535   7.280 -0.0041 -0.0888  0.0282
    1W        W35710  16.120  16.297   2.202  0.0423  0.0574  0.0213
    1W        W35711  13.410   3.509   0.435  0.1325 -0.2968 -0.3042
    1W        W35712   2.872   2.998   9.537  0.4181  0.1953 -0.1839
    1W        W35713   2.142  23.590   8.380  0.1328  0.0394  0.1813
    1W        W35714  21.239   9.410   6.326 -0.2296 -0.0202  0.1530
    1W        W35715  27.160  22.775   1.958 -0.2071 -0.2289 -0.0219
    1W        W35716   0.143  13.605   7.942 -0.0017 -0.1170  0.4300
    1W        W35717  19.439  14.027   2.278  0.0691  0.0122 -0.0323
    1W        W35718   8.126  24.173   1.742  0.2149  0.2425  0.0098
    1W        W35719   7.637  15.253   7.313  0.1695 -0.0283  0.1222
    1W        W35720  16.053  11.961   8.161  0.2372  0.1059 -0.0274
    1W        W35721  11.409  23.648   0.549 -0.0359 -0.3059 -0.1211
    1W        W35722  16.073   1.805   6.783 -0.1389  0.1699  0.0035
    1W        W35723  14.788   0.018   1.868 -0.0073  0.3971 -0.0103
    1W        W35724   4.484  23.947   2.312  0.0290 -0.1730 -0.1604
    1W        W35725   6.148  19.103   6.804 -0.0346 -0.2514  0.1182
    1W        W35726  16.403  22.464   2.200 -0.1676 -0.0459  0.3134
    1W        W35727  28.613  27.072   0.266  0.1411 -0.1568  0.0929
    1W        W35728  27.830   2.985   9.203  0.0246 -0.1098 -0.2577
    1W        W35729  29.676  29.608   8.438 -0.2207  0.1191 -0.2266
    1W        W35730   8.227   1.294   2.299 -0.1760 -0.2320 -0.6731
    1W        W35731   9.051   3.266   2.602 -0.0557 -0.2183  0.0486
    1W        W35732   7.571   3.820   2.516  0.0912 -0.0679 -0.1680
    1W        W35733  26.953   5.195   0.680  0.3756  0.1074  0.0395
    1W        W35734  28.284   0.156   8.175 -0.2056  0.1016 -0.4212
    1W        W35735  19.160  10.881   0.849 -0.1601 -0.1380 -0.0906
    1W        W35736  27.243  17.573   8.493  0.1501 -0.2956 -0.0219
    1W        W35737  14.201   3.984   9.479 -0.1077  0.0810 -0.0660
    1W        W35738  22.043  21.277   7.628 -0.0120  0.0061 -0.0460
    1W        W35739  21.919  19.326   6.958  0.1760  0.0877 -0.0574
    1W        W35740  17.494  18.598   1.767 -0.0179 -0.2157  0.3782
    1W        W35741   2.463  16.126   1.135 -0.0074 -0.2039  0.2041
    1W        W35742  29.573   4.770   7.328 -0.1942  0.1839 -0.0385
    1W        W35743  11.693  17.596   8.930  0.0366  0.0637 -0.1837
    1W        W35744  18.511   3.586   0.551  0.0081  0.0030 -0.4747
    1W        W35745  19.015   8.262   0.232  0.0776 -0.0306 -0.1700
    1W        W35746   9.145  12.967   0.266 -0.2420  0.1019 -0.0682
    1W        W35747  29.650  27.758   1.981  0.0917  0.0269 -0.0412
    1W        W35748  20.751  21.916   7.161 -0.0234 -0.1099  0.0529
    1W        W35749  25.714   0.055   8.885  0.1662 -0.2614  0.0745
    1W        W35750   3.456  21.542   1.332  0.3235  0.1356  0.0417
    1W        W35751  21.045  28.511   0.652 -0.1172  0.0158 -0.2584
    1W        W35752  11.138  27.027   2.851  0.2734  0.3527  0.2689
    1W        W35753  18.800   2.722   3.160 -0.1591 -0.0622 -0.0814
    1W        W35754   6.739  24.060   1.323 -0.0735  0.0982 -0.0518
    1W        W35755  10.447   2.979   3.288 -0.0145  0.0237  0.0992
    1W        W35756  17.440  27.785   1.349 -0.0778  0.2522 -0.1697
    1W        W35757   1.819   1.687   0.651 -0.1403  0.1162  0.3644
    1W        W35758   2.155   0.301   1.936 -0.2254  0.0349  0.0891
    1W        W35759  11.590  18.577   9.014  0.0409  0.2230 -0.0841
    1W        W35760  24.521   5.410   7.055 -0.3506  0.0901 -0.1542
    1W        W35761  27.432  26.726   1.972  0.3590 -0.0691 -0.1581
    1W        W35762  24.358  20.288   0.628  0.2119 -0.1450 -0.2274
    1W        W35763  21.644  28.269   2.007  0.1895 -0.0671  0.2873
    1W        W35764  21.418  11.466   8.424  0.3173  0.5034  0.6596
    1W        W35765  25.463   7.662   8.715  0.3363  0.1829 -0.0961
    1W        W35766  11.978   7.095   8.148 -0.0379  0.1135 -0.2037
    1W        W35767   5.360   9.252   0.037  0.1483  0.1305 -0.0501
    1W        W35768  25.357  15.694   8.840 -0.1919  0.3079 -0.1838
    1W        W35769  27.599  13.467   0.258  0.0716  0.0231  0.0269
    1W        W35770   3.823  25.842   7.574  0.1471  0.1426 -0.2838
    1W        W35771  14.889  16.367   8.425 -0.2343  0.2790 -0.2162
    1W        W35772  12.812  20.494   0.766 -0.1193 -0.0834 -0.2641
    1W        W35773  29.048  24.273   8.768 -0.0110 -0.3554  0.0723
    1W        W35774  23.697   6.731   7.166  0.0102 -0.1380  0.0364
    1W        W35775   5.158  21.317   8.538 -0.2492 -0.1019  0.2454
    1W        W35776  18.975   0.572   3.400 -0.0555  0.2281 -0.0289
    1W        W35777   9.000  21.378   1.712 -0.0650  0.1806  0.0825
    1W        W35778  10.844   7.452   7.300 -0.2721 -0.0791 -0.0542
    1W        W35779  11.664   8.096   8.015 -0.1878  0.0056  0.1302
    1W        W35780   6.514   2.260   0.429 -0.0960 -0.1113 -0.0905
    1W        W35781  11.116  21.506   1.739  0.1738  0.3632  0.2862
    1W        W35782   5.499   7.739   8.863 -0.0150  0.1252  0.0844
    1W        W35783  22.404  16.847   5.454 -0.0917 -0.1522 -0.3254
    1W        W35784   6.677  29.592   8.812  0.1320  0.0734  0.1437
    1W        W35785  11.164  16.965   8.282  0.2329  0.1092 -0.2110
    1W        W35786  29.594  10.909   7.728  0.0321 -0.0673  0.1246
    1W        W35787   9.329  10.746   8.460 -0.1869 -0.0651 -0.3203
    1W        W35788  27.696  16.382   6.877 -0.0241  0.1546  0.1760
    1W        W35789  10.947  10.526   1.629  0.4196 -0.1159 -0.0985
    1W        W35790   0.041  13.923   0.288 -0.0525 -0.0192  0.1392
    1W        W35791   1.389   5.715   7.039  0.3161 -0.1873 -0.1971
    1W        W35792  12.181  26.569   2.175 -0.4829 -0.3058  0.2107
    1W        W35793  12.237  12.618   8.632  0.2571 -0.2616 -0.4386
    1W        W35794  29.112  21.458   7.392 -0.1687 -0.2077 -0.0395
    1W        W35795  27.242  18.955   0.342 -0.0807 -0.1150 -0.0543
    1W        W35796  24.063  17.098   6.542 -0.2296  0.1754 -0.4849
    1W        W35797  17.987   1.604   7.187 -0.0037  0.2164  0.3628
    1W        W35798   2.274   9.210   0.447 -0.1794 -0.3596  0.0166
    1W        W35799  28.258  13.089   8.262 -0.1550  0.0706 -0.0412
    1W        W35800   5.687  19.226   8.332  0.0535 -0.2657  0.4767
    1W        W35801   0.214   4.046   7.883 -0.0536  0.1104 -0.0137
    1W        W35802  17.315  21.973   2.540 -0.1107  0.0316 -0.1564
    1W        W35803  20.156  13.889   5.742 -0.0182 -0.0603  0.0173
    1W        W35804  13.760  18.965   9.303 -0.3920 -0.0922 -0.1161
    1W        W35805   8.632  14.621   8.634  0.1676 -0.0700  0.1560
    1W        W35806  16.645  22.962   2.255  0.0556 -0.0911  0.1323
    1W        W35807   8.622  22.474   1.098  0.2285 -0.1479 -0.0450
    1W        W35808  17.144   9.150   7.827 -0.2645  0.0519 -0.2106
    1W        W35809   9.818   4.437   8.505  0.0399  0.0622 -0.0256
    1W        W35810  18.382  15.912   9.057 -0.2839 -0.4286  0.0855
    1W        W35811   1.319  26.092   7.671 -0.0969 -0.0887 -0.0359
    1W        W35812  20.419  23.868   8.192 -0.1011 -0.0868 -0.2739
    1W        W35813  10.305   5.952   8.496 -0.0969  0.0861 -0.5709
    1W        W35814  16.413  26.378   2.220  0.0411 -0.1894  0.1046
    1W        W35815  23.373   6.199   9.510 -0.0061 -0.0766  0.1030
    1W        W35816   9.280   2.730   0.249  0.3318  0.1370  0.2189
    1W        W35817   1.307  12.949   2.332  0.0269 -0.1116  0.2154
    1W        W35818  24.518  15.393   8.113 -0.2835  0.1886 -0.2483
    1W        W35819  17.518  11.195   9.364 -0.0786 -0.0252 -0.3536
    1W        W35820  11.444  13.773   0.896 -0.0591 -0.0988 -0.0301
    1W        W35821   7.862  13.165   1.942  0.0463  0.2169 -0.0074
    1W        W35822  12.886  11.402   0.106 -0.0642 -0.0835 -0.0989
    1W        W35823  14.104  28.868   0.923  0.1081 -0.0029  0.2723
    1W        W35824  15.831   6.674   7.890  0.0788 -0.0919  0.2797
    1W        W35825   3.530   3.774   2.983 -0.1252  0.0561  0.0424
    1W        W35826  17.947  19.762   2.770 -0.1262  0.3056  0.0140
    1W        W35827  27.490  23.821   6.717 -0.0008 -0.1762  0.2359
    1W        W35828  20.524   6.862   1.239  0.1028  0.0285  0.2666
    1W        W35829  19.056  20.298   2.088 -0.0857  0.2557  0.0796
    1W        W35830  13.708  16.469   7.441  0.1439 -0.0406 -0.2612
    1W        W35831  17.390   0.433   9.122 -0.0036  0.1456  0.1760
    1W        W35832  18.597  27.079   0.372 -0.1641  0.1916  0.0369
    1W        W35833   0.494  10.265   7.052 -0.0694 -0.0413 -0.1335
    1W        W35834   3.953  22.896   2.640  0.0138  0.1168  0.0186
    1W        W35835  16.565  27.129   0.589 -0.6052 -0.0202 -0.2152
    1W        W35836   3.958  12.742   7.353 -0.0940 -0.2430 -0.0666
    1W        W35837  26.836  26.993   8.592 -0.4571 -0.2978  0.2173
    1W        W35838  24.944  20.832   7.601  0.2996 -0.2633  0.0854
    1W        W35839   1.449  18.669   8.971  0.0386  0.0163  0.3623
    1W        W35840   9.089   1.420   2.624  0.0514  0.2730  0.0716
    1W        W35841   1.341   7.173   7.890  0.0855  0.1573  0.1414
    1W        W35842  29.449  21.494   7.749 -0.3858  0.2019  0.0392
    1W        W35843  18.249  18.056   6.092 -0.1053  0.1877  0.0499
    1W        W35844  25.773  21.969   9.127  0.1497 -0.0192 -0.3291
    1W        W35845  18.981  29.467   2.346  0.0204  0.0628 -0.4953
    1W        W35846  12.520   9.252   8.291 -0.0522  0.2667 -0.1494
    1W        W35847   2.115  21.947   2.528 -0.1167  0.1229  0.3167
    1W        W35848  28.590  27.200   1.222 -0.1941 -0.2474  0.3589
    1W        W35849   5.277   8.308   8.474 -0.5221 -0.1139 -0.0751
    1W        W35850  11.207  16.448   1.826  0.2713  0.0455  0.0080
    1W        W35851  25.110  10.609   7.879  0.0205 -0.1883 -0.1207
    1W        W35852   4.008  16.565   1.979  0.1613  0.1819 -0.0134
    1W        W35853   8.308  21.299   0.638  0.0484 -0.0573  0.1099
    1W        W35854  19.655   4.870   1.297  0.0264  0.3260  0.0844
    1W        W35855  19.869  19.301   0.922  0.0224  0.0812 -0.1619
    1W        W35856   4.921  18.923   9.264 -0.0016  0.0452  0.4124
    1W        W35857   7.501   9.507   9.201  0.2615 -0.0841 -0.1485
    1W        W35858   6.951  21.854   8.941  0.1317  0.5064  0.0219
    1W        W35859   6.621   8.215   7.779 -0.2642 -0.0873  0.0837
    1W        W35860   3.926   4.445   7.541  0.1081  0.0093  0.0950
    1W        W35861  24.188   4.702   2.804  0.0813 -0.0700  0.2992
    1W        W35862  29.239  29.615   2.165  0.0736  0.4493 -0.2599
    1W        W35863  21.040  17.950   6.504  0.1735 -0.1746 -0.0652
    1W        W35864  20.914  22.861   1.511  0.1611 -0.2455  0.1380
    1W        W35865  14.322   7.522   2.304  0.0431  0.2562  0.1066
    1W        W35866  24.264  25.000   8.341  0.4055  0.2894 -0.1121
    1W        W35867  15.640   5.044   8.818  0.2395 -0.0995 -0.0795
    1W        W35868  25.318  22.324   1.613  0.3124 -0.0135 -0.1872
    1W        W35869  14.296   2.292   8.266 -0.0644 -0.0471  0.0139
    1W        W35870   5.224  20.043   0.543  0.5471 -0.2405 -0.0671
    1W        W35871  17.242   1.083   6.709 -0.0316 -0.2748 -0.0372
    1W        W35872  19.725   8.865   2.078  0.0097  0.1129 -0.0997
    1W        W35873  20.489  10.195   6.697 -0.0514 -0.0065  0.1913
    1W        W35874  28.962   1.669   8.499 -0.3185 -0.2070  0.0607
    1W        W35875   2.496  18.906   0.298 -0.1359 -0.0553 -0.2560
    1W        W35876  19.944  15.547   0.090  0.2840  0.0703 -0.3988
    1W        W35877   0.816  18.228   6.354 -0.4499 -0.2718 -0.3068
    1W        W35878   6.131  19.757   9.111 -0.1680 -0.1234 -0.0229
    1W        W35879   3.166  23.299   9.168 -0.0073 -0.0193 -0.1273
    1W        W35880   8.954  11.707   9.280  0.1292 -0.1249  0.2215
    1W        W35881  18.985  22.032   0.565  0.1649 -0.3034  0.2039
    1W        W35882  10.613   9.990   2.287  0.2199  0.1110  0.1220
    1W        W35883   8.077  23.411   7.099  0.1421  0.2492  0.2118
    1W        W35884  10.775   8.302   2.338  0.0711  0.1255  0.1082
    1W        W35885   7.153  21.252   0.601  0.4026  0.2291 -0.1034
    1W        W35886  28.086   3.515   2.400 -0.2493  0.1736 -0.2402
    1W        W35887   0.299  10.740   7.759  0.1764 -0.4935 -0.1569
    1W        W35888  10.636  26.486   8.819 -0.2203 -0.1748 -0.0577
    1W        W35889  21.827   3.093   2.298 -0.1387  0.0586  0.2513
    1W        W35890  18.364  10.961   5.744 -0.0766  0.1856  0.0316
    1W        W35891  17.019  23.351   0.183 -0.0580  0.1731  0.2217
    1W        W35892  27.749  17.188   8.470 -0.0686 -0.0358  0.3426
    1W        W35893  14.477  22.272   2.592  0.0010 -0.0820 -0.0649
    1W        W35894   2.926   2.487   0.322 -0.0836 -0.0142  0.3344
    1W        W35895  27.724   1.052   0.102 -0.0158  0.1895  0.2433
    1W        W35896  16.819   7.697   7.724  0.4288  0.0605  0.0457
    1W        W35897  11.822  18.696   2.746 -0.1032  0.1704 -0.2181
    1W        W35898  23.455  20.915   0.739  0.1311 -0.0139 -0.1885
    1W        W35899  16.297  27.934   7.282 -0.2629 -0.1654  0.1145
    1W        W35900  16.600  14.149   8.531 -0.1668  0.1578  0.0335
    1W        W35901  17.928   0.513   8.354  0.1457  0.1596  0.0497
    1W        W35902   9.398  16.451   1.685 -0.0468  0.4474  0.2042
    1W        W35903  27.784  26.498   1.251  0.1632 -0.1089  0.2619
    1W        W35904   8.300   7.833   7.842  0.0353 -0.2229 -0.2851
    1W        W35905  29.605  29.276   6.984  0.1320 -0.0361  0.1268
    1W        W35906  18.759   1.479   8.091  0.3231  0.4359 -0.1259
    1W        W35907   2.696   8.832   8.818 -0.0598  0.1569 -0.0907
    1W        W35908  26.903   9.261   8.459  0.1098 -0.0057 -0.0319
    1W        W35909  27.643   4.906   0.155  0.0569 -0.0463 -0.2015
    1W        W35910   2.469   2.529   8.698 -0.1653 -0.0582  0.1956
    1W        W35911  21.639  28.538   2.715  0.1729  0.1664 -0.1828
    1W        W35912   5.828  14.434   8.910 -0.1079 -0.3963 -0.0744
    1W        W35913  14.308   4.865   3.010  0.0885 -0.2212 -0.0583
    1W        W35914  26.492   6.262   0.813  0.1554 -0.0028 -0.0008
    1W        W35915  21.920  26.022   1.541  0.3332 -0.0177 -0.0131
    1W        W35916  22.310   2.371   0.003  0.0078  0.0735 -0.0169
    1W        W35917   5.928   5.499   1.878 -0.1546 -0.0068  0.3369
    1W        W35918  20.515   4.793   9.329  0.0074  0.0387  0.2647
    1W        W35919  21.777  14.650   7.539 -0.3649  0.1463  0.0778
    1W        W35920   9.470  11.857   2.527 -0.1593 -0.1397 -0.0052
    1W        W35921  15.105  29.787   7.902  0.0375 -0.1385 -0.0216
    1W        W35922   3.693  11.643   0.841  0.1062  0.1626  0.1159
    1W        W35923   4.178  26.894   7.805  0.1181 -0.3187  0.1141
    1W        W35924  17.326   5.538   7.990  0.0076 -0.2595  0.3672
    1W        W35925  19.046  17.742   2.016 -0.1628  0.0800  0.2931
    1W        W35926   7.758  12.483   9.333  0.0678 -0.0914 -0.0317
    1W        W35927  12.861   9.266   8.683 -0.0834 -0.0085  0.2318
    1W        W35928   7.542  11.572   0.014  0.2713  0.2329 -0.0417
    1W        W35929   3.238  25.794   1.467 -0.2296  0.4435 -0.1481
    1W        W35930  19.929  10.213   9.415  0.1801  0.1823 -0.1094
    1W        W35931  22.372   9.230   8.096  0.2435 -0.0741  0.0210
    1W        W35932  28.045   6.890   6.437 -0.2973 -0.1167  0.2799
    1W        W35933  11.451   0.544   0.683  0.1859 -0.1565 -0.0256
    1W        W35934   8.071  10.121   1.648  0.0674  0.0942 -0.0527
    1W        W35935  21.950   1.520   3.428  0.0760 -0.0636 -0.0461
    1W        W35936  22.252   3.776   7.565  0.0161  0.0557 -0.2466
    1W        W35937   7.440  15.728   0.121  0.0294 -0.2350  0.0277
    1W        W35938  25.808   3.208   1.837  0.0198  0.0309 -0.2965
    1W        W35939   3.290  23.258   8.136  0.1311 -0.3712 -0.0868
    1W        W35940  21.817  14.571   5.987 -0.0091 -0.0803 -0.1002
    1W        W35941  22.534   3.581   1.024 -0.1526  0.2185 -0.0726
    1W        W35942  17.050  11.471   9.150  0.2272  0.1005  0.1052
    1W        W35943  14.328  29.088   8.707  0.0354  0.0065 -0.0913
    1W        W35944  15.665  20.628   9.227  0.3305 -0.1468 -0.0270
    1W        W35945  17.851  16.004   7.296 -0.2728  0.1475 -0.0123
    1W        W35946  17.351  12.423   5.976 -0.0637 -0.1129  0.1311
    1W        W35947  26.531  13.197   8.414  0.1292 -0.0977  0.2023
    1W        W35948  16.539  25.421   2.429 -0.2375  0.3856  0.0311
    1W        W35949   8.270  25.118   7.326 -0.2988  0.2417 -0.2311
    1W        W35950  28.925   6.679   5.958 -0.1398 -0.2266  0.0455
    1W        W35951   8.264  28.204   0.872 -0.2373  0.0582  0.3290
    1W        W35952   3.806   2.414   6.400  0.1131 -0.0356  0.0878
    1W        W35953  14.962  10.372   7.837  0.1416 -0.1281 -0.1121
    1W        W35954   1.895  19.984   1.198 -0.0029  0.0108  0.0754
    1W        W35955   6.376  23.189   1.272 -0.0383 -0.0938 -0.0320
    1W        W35956  15.231  16.732   1.550 -0.0567  0.5362  0.0098
    1W        W35957   3.142   6.013   2.081  0.1082  0.1939 -0.3430
    1W        W35958   9.175  28.144   9.423 -0.1472  0.0299  0.3910
    1W        W35959   7.069  21.831   0.246  0.1643  0.3334  0.0468
    1W        W35960   3.225  15.793   0.589  0.0809 -0.2431 -0.0730
    1W        W35961  28.245  18.659   9.338 -0.1372 -0.0622  0.1176
    1W        W35962   1.013  14.631   7.843 -0.1888  0.0891  0.0491
    1W        W35963   8.002  20.901   0.539  0.1404 -0.2248 -0.1892
    1W        W35964  16.309   4.786   0.174 -0.2940  0.1171  0.2599
    1W        W35965  24.140  22.943   7.875  0.0468  0.1932  0.3345
    1W        W35966  22.128  17.469   0.444 -0.0988  0.0126  0.2835
    1W        W35967   9.790  25.746   0.996 -0.2561 -0.0798  0.0439
    1W        W35968  29.009   6.761   0.955  0.3009  0.0012 -0.0037
    1W        W35969  14.613   9.716   8.405 -0.2548  0.0516 -0.1323
    1W        W35970   1.781   2.246   2.467  0.0082 -0.2246  0.0559
    1W        W35971  19.286  27.340   8.174 -0.0840  0.2662  0.1017
    1W        W35972   8.789   0.105   6.672 -0.0075 -0.2223 -0.1175
    1W        W35973  20.299   2.994   0.020  0.3036 -0.2422 -0.0175
    1W        W35974   6.052  17.137   0.687 -0.0937 -0.2427  0.0887
    1W        W35975  14.774  22.272   8.779 -0.0293 -0.2241 -0.0828
    1W        W35976   3.332  12.276   1.136 -0.4354 -0.0559  0.5018
    1W        W35977  11.509   4.887   7.512  0.0255 -0.2380 -0.1176
    1W        W35978  19.851  15.258   6.274  0.1701  0.2131  0.2221
    1W        W35979  13.509  16.690   7.952 -0.1942 -0.0476  0.0965
    1W        W35980   6.745  18.746   0.471 -0.1794 -0.0116  0.3606
    1W        W35981  29.497  22.851   2.137 -0.1776  0.0306 -0.4657
    1W        W35982  14.057   5.504   0.696 -0.0846  0.1226  0.1867
    1W        W35983  18.449  25.652   8.165 -0.0413 -0.1059  0.1591
    1W        W35984  18.700   0.047   0.136 -0.0317 -0.1588 -0.3353
    1W        W35985   9.987   7.490   7.994 -0.2176  0.0205  0.3222
    1W        W35986   7.647  23.547   8.879  0.0029 -0.1670 -0.3488
    1W        W35987  13.972  18.412   8.035 -0.1568  0.1630 -0.2384
    1W        W35988  11.354   4.504   8.833 -0.2755  0.1285  0.0607
    1W        W35989  11.021  10.585   7.485  0.0511 -0.0164  0.0176
    1W        W35990  11.252   4.615   3.837  0.0319  0.2183  0.2499
    1W        W35991   4.992  19.168   7.069 -0.0983  0.2590 -0.0244
    1W        W35992  24.247   0.340   2.452  0.3049 -0.4693 -0.1596
    1W        W35993  20.943   7.800   6.904  0.0415  0.2674 -0.1818
    1W        W35994  23.634  29.014   9.521 -0.0996 -0.0477 -0.1420
    1W        W35995  27.188   6.705   0.664 -0.2714  0.0108 -0.3016
    1W        W35996  27.171  10.897   9.379 -0.5363  0.0015  0.0809
    1W        W35997  13.532  16.634   8.468  0.0341  0.4167  0.0336
    1W        W35998   6.487  20.406   2.315 -0.3221  0.0607  0.0414
    1W        W35999  15.016  26.311   8.730  0.0200 -0.1882 -0.1595
    1W        W36000  27.122   8.465   0.633  0.1739 -0.1309  0.1994
    1W        W36001   2.200  17.128   7.304 -0.1848 -0.0972 -0.0609
    1W        W36002  24.071   8.015   7.710 -0.0652 -0.4544  0.0687
    1W        W36003  11.107  14.555   8.442  0.0514  0.3073  0.4637
    1W        W36004  21.514  13.844   7.814 -0.0335  0.1691 -0.0217
    1W        W36005  23.053  28.918   8.217 -0.1052 -0.0898 -0.1147
    1W        W36006   6.961   8.910   8.776  0.1305  0.1158 -0.2056
    1W        W36007   2.781  20.524   8.067 -0.0393  0.0212  0.0785
    1W        W36008   6.671  12.359   8.536  0.1667 -0.1784  0.3080
    1W        W36009  16.148  12.139   6.621 -0.0950  0.1581 -0.2663
    1W        W36010   2.586   0.180   7.573 -0.3290 -0.2082  0.0388
    1W        W36011   0.548  28.610   2.861  0.1595  0.2728 -0.0140
    1W        W36012   6.117  14.142   1.941 -0.0102  0.1952 -0.2235
    1W        W36013  27.378  22.022   6.701 -0.0486  0.1448 -0.1856
    1W        W36014   7.472   8.819   2.126  0.1963 -0.0337  0.0804
    1W        W36015   7.021   0.327   7.602  0.0009  0.2116 -0.3586
    1W        W36016  27.222   0.375   9.438  0.0244 -0.0610  0.1374
    1W        W36017   7.004  26.168   8.174 -0.1493 -0.1337  0.0209
    1W        W36018  20.029   5.068   2.208  0.1218  0.0316  0.0093
    1W        W36019  13.251  11.355   0.572 -0.1449 -0.4174  0.4927
    1W        W36020  11.205   7.566   1.187 -0.4804  0.1041 -0.2893
    1W        W36021  25.999   0.717   8.275 -0.0462  0.1699  0.0620
    1W        W36022   4.569  11.286   8.135  0.0168  0.0976 -0.2036
    1W        W36023  10.298  26.351   0.272  0.0133  0.2525 -0.1517
    1W        W36024  20.827   6.673   0.088 -0.1824  0.0020  0.2057
    1W        W36025  14.149  23.054   1.981  0.0715  0.0742 -0.1284
    1W        W36026  28.153   2.053   7.375  0.0655 -0.1606  0.1326
    1W        W36027  23.515   4.188   8.830  0.2343  0.2235  0.0448
    1W        W36028  26.774  15.702   1.203 -0.0906 -0.1240  0.0345
    1W        W36029  14.543  24.119   8.526 -0.1271 -0.1302 -0.1049
    1W        W36030  16.579   5.754   9.145 -0.4360 -0.0369  0.1541
    1W        W36031  18.345  18.008   7.458 -0.0665 -0.0423  0.3135
    1W        W36032  17.896  18.640   1.426  0.1569  0.0792  0.0027
    1W        W36033  19.533  26.578   3.702 -0.0613 -0.1928 -0.2652
    1W        W36034  14.045   7.054   8.162  0.1607  0.2652  0.0602
    1W        W36035   0.002  23.478   7.371  0.0773  0.1261 -0.0313
    1W        W36036  28.066   8.820   6.949  0.4037  0.0204  0.0712
    1W        W36037  13.085  10.732   6.551  0.0741 -0.0981 -0.0288
    1W        W36038  27.562   1.686   7.302 -0.1280  0.2238 -0.0226
    1W        W36039  22.931   4.551   0.670 -0.3161  0.1332  0.2159
    1W        W36040  20.650  15.987   7.228 -0.1239 -0.0069  0.1212
    1W        W36041   5.079   8.672   7.338  0.1272 -0.0768 -0.4166
    1W        W36042  21.487   6.196   1.881  0.4278 -0.0521 -0.1936
    1W        W36043  15.463  26.413   8.518 -0.1854  0.3349  0.1582
    1W        W36044  18.437   4.516   8.724  0.0359  0.1073  0.2983
    1W        W36045  11.802  10.536   7.346 -0.3041  0.0240  0.2898
    1W        W36046  28.040   3.152   6.512 -0.0351 -0.2464 -0.1589
    1W        W36047  27.778  28.902   3.405  0.0541  0.2097 -0.4859
    1W        W36048  10.686  21.950   0.236  0.0042  0.0280 -0.0944
    1W        W36049  16.384  13.451   6.873  0.1870  0.1722 -0.0591
    1W        W36050   1.748  28.087   8.593  0.1682 -0.3386 -0.1666
    1W        W36051   8.535   5.818   1.988  0.3264  0.0913 -0.2372
    1W        W36052  21.645  22.712   2.592  0.1263 -0.0006  0.1792
    1W        W36053  14.074  25.616   3.334 -0.1982 -0.0571  0.1512
    1W        W36054   4.995  14.071   7.840 -0.3503  0.0758  0.2315
    1W        W36055  25.421  10.311   8.299 -0.1098  0.1135  0.1719
    1W        W36056   1.259  19.188   6.601  0.2261 -0.2691 -0.0212
    1W        W36057   8.589  18.272   0.817  0.0457  0.0132  0.1582
    1W        W36058   6.975  15.465   2.802 -0.0396  0.0469  0.0326
    1W        W36059  26.547   2.945   2.127 -0.0128  0.0316  0.1904
    1W        W36060  23.389  15.325   8.038 -0.1326  0.0616  0.3352
    1W        W36061   1.291  21.759   9.193 -0.0574 -0.2748 -0.1472
    1W        W36062   6.399   8.874   8.281 -0.1442  0.1610  0.1872
    1W        W36063  16.853  27.440   0.333  0.2442 -0.1731  0.3020
    1W        W36064  23.810  19.538   5.725  0.0672  0.0467  0.0296
    1W        W36065  20.846  27.070   0.784 -0.0234  0.0437 -0.3336
    1W        W36066  13.912  13.826   2.449 -0.0521  0.0761 -0.1790
    1W        W36067  28.529  15.176   8.369 -0.0522 -0.3844  0.1447
    1W        W36068   3.979  29.731   2.105 -0.0714 -0.0566 -0.1352
    1W        W36069   9.956   6.799   1.050  0.1850  0.0494  0.1946
    1W        W36070  23.005  12.928   1.042 -0.2503  0.0289 -0.0757
    1W        W36071  11.657  19.165   8.354  0.3087  0.1366 -0.5280
    1W        W36072  27.677  19.314   7.212  0.2627  0.0545 -0.2065
    1W        W36073   2.030  23.190   8.704 -0.0206  0.1952 -0.1229
    1W        W36074  10.919  21.620   7.078  0.3990  0.1306 -0.0622
    1W        W36075   1.981  22.846   0.945 -0.1460 -0.0421  0.1168
    1W        W36076  27.650   1.120   8.362 -0.3258  0.1485 -0.1286
    1W        W36077   2.720  25.555   8.883 -0.1713  0.1755 -0.0721
    1W        W36078  23.284   8.998   8.475 -0.2259  0.2929  0.2022
    1W        W36079   7.467   6.486   0.696 -0.1833 -0.2004 -0.3337
    1W        W36080  12.608  19.416   3.037  0.1471 -0.3505 -0.2360
    1W        W36081   7.192   5.887   1.123  0.0333 -0.0984  0.0023
    1W        W36082   0.693  27.955   6.833 -0.2041 -0.1221  0.4513
    1W        W36083   4.620  12.477   9.197 -0.1847 -0.1717  0.3141
    1W        W36084  21.776  16.705   7.496  0.3324  0.1107  0.1982
    1W        W36085   9.716  24.799   0.190  0.1932 -0.0215  0.1843
    1W        W36086   3.447   0.799   7.690 -0.4080  0.1559 -0.0975
    1W        W36087   5.137   7.214   8.771 -0.0506 -0.0586  0.0217
    1W        W36088  16.557   9.259   7.760 -0.1851  0.1568 -0.1671
    1W        W36089   2.791  17.431   7.181 -0.1580  0.3292 -0.2740
    1W        W36090  19.773  14.577   0.269 -0.1420 -0.2873 -0.2489
    1W        W36091   4.836   3.287   8.318  0.2558 -0.2875  0.0775
    1W        W36092  10.877  15.947   8.300 -0.0142 -0.0127  0.1643
    1W        W36093  19.067  28.419   9.306 -0.0173 -0.0344 -0.3285
    1W        W36094  26.967  11.735   9.348  0.0499  0.0403  0.2754
    1W        W36095   6.975  18.406   8.854 -0.0034  0.1452  0.0972
    1W        W36096  20.910   3.661   7.766 -0.2763 -0.0729 -0.0915
    1W        W36097  17.837   0.873   6.922 -0.0802 -0.0376 -0.0576
    1W        W36098  16.395   3.664   2.252 -0.0473 -0.4653  0.2973
    1W        W36099  20.845  13.587   0.637 -0.2438  0.0003 -0.1070
    1W        W36100   6.485  16.328   8.546 -0.0385  0.1861 -0.2251
    1W        W36101  29.654  28.828   0.936  0.3759 -0.2382 -0.0655
    1W        W36102   0.100  16.195   9.486  0.0255 -0.1521 -0.1235
    1W        W36103   1.827  29.712   7.268 -0.2781  0.0905 -0.2032
    1W        W36104  20.992  16.536   2.169  0.2363 -0.3292  0.0634
    1W        W36105   2.417  28.386   1.272 -0.1445 -0.3409  0.3154
    1W        W36106  27.297  17.116   7.531  0.0570 -0.2851 -0.0280
    1W        W36107  19.560  13.595   9.543  0.1436  0.2580 -0.0386
    1W        W36108  21.333  12.755   6.262  0.0373 -0.1915 -0.2464
    1W        W36109   9.841  22.677   7.775 -0.0175  0.0479 -0.2524
    1W        W36110  18.263  23.603   9.046 -0.2527  0.0338  0.2009
    1W        W36111   8.183  11.788   9.056  0.3220 -0.1225  0.1399
    1W        W36112  27.245   4.276   1.656  0.1841 -0.1024  0.2652
    1W        W36113  22.404  26.452   0.916 -0.0061  0.1679 -0.2639
    1W        W36114  13.676   6.307   8.402 -0.2060 -0.1852 -0.1397
    1W        W36115  17.422  22.037   7.624 -0.1225 -0.1784  0.0404
    1W        W36116   5.609   6.462   8.928 -0.0447  0.3680 -0.0387
    1W        W36117  13.741  29.321   2.086 -0.0075 -0.2314 -0.1118
    1W        W36118  15.912  25.944   2.484  0.1831 -0.0404  0.1945
    1W        W36119  26.829   8.774   2.199 -0.2329 -0.1037 -0.1069
    1W        W36120   8.870  18.112   7.194 -0.0232 -0.2724 -0.2421
    1W        W36121  12.183   9.794   0.419  0.1433  0.0266 -0.2848
    1W        W36122   8.151   7.631   1.949 -0.0922 -0.0934 -0.0410
    1W        W36123   9.036  28.698   1.736  0.0313  0.1710 -0.1627
    1W        W36124  27.596   2.297   1.864 -0.2068 -0.1337  0.0128
    1W        W36125  23.186  10.103   0.181 -0.0109  0.2005 -0.0006
    1W        W36126   6.355  28.040   7.999  0.0167 -0.1057  0.0444
    1W        W36127  11.708   9.620   0.397 -0.0415 -0.2037  0.0793
    1W        W36128  28.850  23.981   1.254 -0.3059  0.3477  0.3179
    1W        W36129  20.404   6.552   8.217 -0.0886 -0.0117 -0.0092
    1W        W36130  20.701  13.032   7.450 -0.2019 -0.2322  0.0352
    1W        W36131  24.819  23.135   6.898  0.1840 -0.1024 -0.0114
    1W        W36132   4.950   4.131   0.166 -0.0656  0.1283  0.1868
    1W        W36133  16.660  17.914   6.874  0.1039  0.2691  0.0855
    1W        W36134  26.008  28.094   3.277  0.0762  0.1036 -0.3525
    1W        W36135  12.295  17.351   1.738  0.3899  0.0180  0.1084
    1W        W36136  24.869  25.759   1.088 -0.0443  0.2357  0.1846
    1W        W36137   8.188  28.110   0.283  0.2599 -0.3327 -0.1148
    1W        W36138  27.913  13.241   1.146  0.2174 -0.0393 -0.0030
    1W        W36139   8.898   0.764   8.143  0.2154  0.3516 -0.1049
    1W        W36140  22.019  17.939   0.171 -0.1594  0.1859 -0.0439
    1W        W36141  28.361  25.971   6.310 -0.1474 -0.1193  0.2113
    1W        W36142   7.064  26.388   2.609 -0.1537 -0.2310  0.1640
    1W        W36143  12.963  20.116   7.300  0.1904  0.0574 -0.5915
    1W        W36144  29.572   7.424   1.705 -0.0839  0.2305 -0.2647
    1W        W36145  19.355   7.197   1.866 -0.1699 -0.1318  0.0863
    1W        W36146  12.447   2.780   7.715  0.2543 -0.1726  0.1372
    1W        W36147  14.574  10.669   9.423  0.2712 -0.0396 -0.0723
    1W        W36148   1.533  10.109   7.830  0.2521 -0.3655  0.1133
    1W        W36149  11.485  25.454   7.653  0.1317  0.0950  0.1539
    1W        W36150   6.381   8.314   7.365  0.0474 -0.0469  0.3187
    1W        W36151  10.534   0.606   8.663 -0.1530 -0.3099  0.0312
    1W        W36152  28.368  11.437   8.897  0.2785 -0.0557  0.2610
    1W        W36153  22.848  13.326   8.779 -0.0680 -0.0058 -0.3777
    1W        W36154  27.285  25.634   9.174  0.3685  0.1533  0.1699
    1W        W36155  18.395  14.149   1.998 -0.2612  0.0967 -0.0078
    1W        W36156  10.474  29.535   8.337 -0.1056 -0.2156  0.0611
    1W        W36157   5.907   2.140   2.208  0.1779 -0.1650 -0.0046
    1W        W36158  11.177  24.717   8.772 -0.1682  0.0528 -0.0540
    1W        W36159  25.817  21.095   0.410  0.0897  0.1222  0.1047
    1W        W36160  25.421  13.524   1.171  0.1126 -0.0174  0.0031
    1W        W36161  21.993  24.419   8.424  0.2564  0.3383 -0.3076
    1W        W36162   3.128  16.121   8.884 -0.0047  0.2747  0.3237
    1W        W36163  24.273  16.297   8.819  0.0017 -0.2111  0.0650
    1W        W36164   1.279  18.213   8.798 -0.1134 -0.1933  0.1047
    1W        W36165  22.502  27.585   0.649  0.0429  0.0496  0.3314
    1W        W36166  27.975  27.352   9.333  0.0901  0.1147 -0.0394
    1W        W36167  11.585  26.285   0.380  0.1033 -0.0184  0.0550
    1W        W36168  28.789   5.205   2.898 -0.1951 -0.2101 -0.1202
    1W        W36169  24.009  22.928   6.783  0.0013 -0.0349  0.2189
    1W        W36170  16.317   4.372   7.343  0.1659  0.4483 -0.1409
    1W        W36171  23.999  14.098   6.360 -0.3181 -0.2774 -0.0162
    1W        W36172  12.030  10.863   8.362  0.1164 -0.1074 -0.1770
    1W        W36173  23.908   9.191   9.294 -0.1582 -0.0141  0.2308
    1W        W36174  20.678  23.135   1.120 -0.2836 -0.1675  0.2326
    1W        W36175   1.574  27.569   0.262  0.1354  0.0646  0.0112
    1W        W36176  16.378  21.267   3.618 -0.0294  0.1225 -0.1888
    1W        W36177   3.889   8.485   0.127 -0.1527  0.0930 -0.0581
    1W        W36178  28.533   9.605   8.883 -0.1624  0.2068  0.1655
    1W        W36179  26.536  11.580   1.311  0.0301  0.2696  0.0411
    1W        W36180  10.466  11.317   6.942  0.1864 -0.1932  0.3723
    1W        W36181  11.799  27.825   8.822  0.1405 -0.0623  0.2093
    1W        W36182  22.954  15.389   5.451  0.1946  0.0896 -0.2931
    1W        W36183  19.554  14.334   6.006 -0.0413  0.1611  0.0982
    1W        W36184  19.071  23.067   1.828 -0.3075  0.2585  0.1740
    1W        W36185  21.452  18.358   1.350  0.0745 -0.1881  0.3413
    1W        W36186  19.076  24.267   9.469  0.2084 -0.2686  0.3421
    1W        W36187  15.561  24.840   1.827 -0.0531  0.0876 -0.1574
    1W        W36188   6.203   5.806   8.411 -0.2266 -0.1571  0.5212
    1W        W36189  19.373   7.855   1.078 -0.1116 -0.3601  0.0014
    1W        W36190  14.703  17.609   9.163  0.0779 -0.0529  0.0575
    1W        W36191  15.986  21.931   1.311 -0.0318 -0.1968  0.0622
    1W        W36192  28.038  20.832   8.693  0.1062 -0.0288  0.1349
    1W        W36193  26.966  11.930   6.826 -0.0164 -0.0456 -0.1052
    1W        W36194  21.600   2.328   0.197 -0.0150  0.4570 -0.0411
    1W        W36195   4.678  16.689   7.077 -0.2542  0.0803  0.3427
    1W        W36196  20.589   5.074   8.102 -0.1231 -0.0413  0.0444
    1W        W36197   6.353  11.062   2.656  0.0818 -0.0214  0.2138
    1W        W36198   8.054  25.135   1.488  0.1570 -0.1177  0.1024
    1W        W36199  27.960   6.317   7.619  0.0640 -0.1049  0.1814
    1W        W36200  25.781   9.413   1.752 -0.2922 -0.0767  0.1115
    1W        W36201  25.272  10.700   0.993 -0.1192  0.2448  0.2664
    1W        W36202   7.936   0.836   7.541 -0.0013 -0.0511 -0.0508
    1W        W36203  16.494  15.924   1.415  0.1610 -0.0568 -0.0640
    1W        W36204  19.880  29.223   9.170 -0.2311  0.1702 -0.0943
    1W        W36205  23.554  24.991   0.264  0.0864  0.0012 -0.2765
    1W        W36206  16.908  12.507   1.191 -0.5031 -0.0714 -0.2642
    1W        W36207   7.782   4.821   8.710  0.2656  0.0830 -0.0146
    1W        W36208  28.131   0.714   0.946  0.0971 -0.0632 -0.0485
    1W        W36209  29.043   7.649   7.307 -0.4642  0.1763  0.3771
    1W        W36210  12.953  28.359   1.698  0.1277  0.1233 -0.1432
    1W        W36211  14.889  10.826   6.817 -0.0773  0.2086 -0.0146
    1W        W36212  22.310   7.609   1.633 -0.1425  0.4347 -0.1713
    1W        W36213  22.262   4.997   3.213  0.2653 -0.1448 -0.1954
    1W        W36214  26.353  19.334   9.477 -0.1442  0.4397  0.1613
    1W        W36215  27.472  15.550   9.453 -0.0204  0.0611  0.0266
    1W        W36216   1.808   2.909   7.747 -0.1626 -0.2170  0.1474
    1W        W36217  25.505  19.394   8.321 -0.0097  0.0455  0.1680
    1W        W36218  18.562   7.099   8.793 -0.1144  0.0599 -0.0492
    1W        W36219  20.060   0.527   3.410 -0.1363 -0.2462  0.1439
    1W        W36220   6.113   5.969   7.456 -0.0730 -0.0916 -0.1972
    1W        W36221  26.676  13.290   0.871  0.0295 -0.2140 -0.3318
    1W        W36222  14.106  24.227   7.923 -0.0279  0.0033 -0.0004
    1W        W36223  22.405   8.578   2.107  0.1939  0.0574  0.0157
    1W        W36224  16.578  11.356   7.345  0.1561  0.0453  0.0746
    1W        W36225  16.027  19.210   7.900  0.1083  0.1377 -0.0387
    1W        W36226  21.390   0.168   9.256  0.0245  0.4416 -0.0036
    1W        W36227   8.213  27.428   7.934 -0.1400 -0.0347  0.1250
    1W        W36228  21.382  19.743   8.683 -0.2515  0.0967  0.0126
    1W        W36229  12.179  28.057   0.150  0.3009 -0.1064 -0.0124
    1W        W36230  19.987  19.567   1.347 -0.0108 -0.1496  0.1135
    1W        W36231  13.957  25.876   2.067 -0.0743  0.4892  0.1821
    1W        W36232  12.539  24.999   7.051  0.1104 -0.3455  0.1890
    1W        W36233  22.456   0.475   0.891 -0.2253 -0.2075  0.3736
    1W        W36234   4.689  26.330   0.842 -0.1005  0.2021  0.1478
    1W        W36235   9.877  15.423   7.298 -0.1884  0.1315  0.1610
    1W        W36236  28.203   2.143   2.366 -0.1007  0.0384  0.0276
    1W        W36237  19.440  16.836   8.470  0.0636 -0.0356 -0.0199
    1W        W36238   3.221   3.938   2.552  0.0877  0.2776  0.0605
    1W        W36239  26.226   1.519   8.931  0.3304 -0.2515  0.0699
    1W        W36240  11.219   4.664   0.165 -0.1843 -0.1106  0.0579
    1W        W36241  26.778   2.754   8.231 -0.2704  0.0075 -0.0566
    1W        W36242  10.869   7.767   2.249 -0.0195  0.2157  0.0008
    1W        W36243  17.343  14.202   6.118 -0.1737 -0.1536 -0.0005
    1W        W36244   6.927   8.000   2.268  0.1855 -0.2204  0.1002
    1W        W36245  19.818   2.380   1.600 -0.2792  0.1346  0.0485
    1W        W36246  10.472  12.959   8.934 -0.1822 -0.0322  0.2379
    1W        W36247  21.980  17.625   5.491 -0.0747  0.1970 -0.2170
    1W        W36248  29.510   2.483   2.671 -0.1093 -0.1414  0.1182
    1W        W36249   9.947   1.715   2.377  0.0597 -0.0655 -0.0435
    1W        W36250  22.139  14.555   0.372 -0.0566  0.1233  0.2523
    1W        W36251  10.222   9.865   1.945 -0.0754  0.0088 -0.0010
    1W        W36252  18.439   7.851   7.526  0.3240 -0.0591 -0.0480
    1W        W36253   3.319  17.286   7.329  0.0571 -0.1032 -0.1292
    1W        W36254  17.855  23.523   7.154 -0.0623 -0.1413  0.0561
    1W        W36255   1.939   6.242   1.633 -0.2616 -0.0039  0.2080
    1W        W36256  22.477   4.557   0.928  0.1093 -0.2335  0.1367
    1W        W36257  26.407  24.725   0.699 -0.0196  0.2016  0.2586
    1W        W36258  13.459  23.603   0.927  0.1874  0.3347  0.0509
    1W        W36259  13.465  18.470   8.480 -0.2108  0.2181  0.4512
    1W        W36260   4.378  26.165   6.777 -0.0044 -0.0757 -0.2187
    1W        W36261  29.750  14.074   2.001  0.0446  0.0992  0.1301
    1W        W36262   8.409   0.893   8.000  0.0324 -0.0643 -0.1667
    1W        W36263  15.852  17.715   7.753  0.0817  0.3332 -0.1620
    1W        W36264  24.696   1.968   7.487  0.0923  0.1384  0.3053
    1W        W36265   9.898  10.175   1.928  0.0178 -0.2537 -0.3378
    1W        W36266   9.502  10.098   7.267  0.1084  0.1483 -0.0203
    1W        W36267  25.424  10.621   9.027  0.2651 -0.0747 -0.0827
    1W        W36268  13.589   3.298   0.846 -0.0015  0.1646 -0.3825
    1W        W36269  19.167  27.236   7.037  0.0375 -0.1887 -0.0339
    1W        W36270  22.773  22.907   8.261  0.1819 -0.0422 -0.0895
    1W        W36271  24.395  28.969   0.741 -0.0830 -0.1348 -0.3058
    1W        W36272  13.419  28.410   6.371 -0.0546  0.3282 -0.1266
    1W        W36273  12.223  17.784   7.410 -0.0801 -0.1067  0.0042
    1W        W36274  28.910  11.873   8.594 -0.1328 -0.2663 -0.0411
    1W        W36275   9.804  16.244   8.402  0.3064 -0.0351 -0.0335
    1W        W36276   4.702   5.856   7.370  0.1010  0.0568  0.1744
    1W        W36277   4.990  15.088   7.845 -0.1469 -0.1883 -0.1450
    1W        W36278  10.546  10.844   2.499  0.0951  0.1413 -0.2264
    1W        W36279   4.575   0.032   1.190 -0.0819  0.2394  0.0128
    1W        W36280  23.964  12.370   5.238  0.0051 -0.1782  0.1786
    1W        W36281  27.056   8.475   5.516 -0.0850  0.3380  0.0694
    1W        W36282  23.797  27.989   8.700  0.1601 -0.1377  0.1141
    1W        W36283  13.510   0.679   3.072 -0.2224  0.0758 -0.1278
    1W        W36284  26.758   7.425   9.144 -0.1786  0.1908  0.0441
    1W        W36285   0.589  14.600   7.171 -0.0955 -0.1981 -0.2338
    1W        W36286  16.934  10.757   8.616  0.1836 -0.1644  0.2230
    1W        W36287   2.799  19.399   6.901  0.1589  0.0024  0.0470
    1W        W36288  26.999  25.417   1.812  0.0370 -0.5577 -0.0074
    1W        W36289   0.987   1.298   1.688  0.0832  0.1237  0.0960
    1W        W36290   6.572   2.663   9.546 -0.2340 -0.0191  0.2218
    1W        W36291   3.666  10.232   0.705  0.2287  0.1398  0.0068
    1W        W36292   0.317   5.202   6.372  0.2411 -0.1038  0.0334
    1W        W36293   2.515  22.680   7.444  0.0516 -0.0172  0.1413
    1W        W36294  18.695  18.859   8.320  0.1763  0.0076 -0.1040
    1W        W36295   8.239   3.920   0.816  0.2849 -0.0877  0.0649
    1W        W36296   4.680  14.332   1.784  0.0889  0.4367  0.1591
    1W        W36297   4.876   5.028   9.448  0.0859 -0.1587  0.0403
    1W        W36298   3.664  19.100   2.338  0.1083  0.0612  0.0307
    1W        W36299  17.191   0.092   2.216  0.0831 -0.1505 -0.0425
    1W        W36300  26.214  29.434   8.947  0.0800 -0.1994 -0.1057
    1W        W36301  17.220   6.217   7.111 -0.0221 -0.0701  0.0542
    1W        W36302  19.132   8.781   2.841 -0.0321  0.2062  0.0535
    1W        W36303  20.861   6.892   0.907 -0.0551 -0.1775 -0.3041
    1W        W36304  28.978  11.840   9.345  0.1274 -0.0939  0.1945
    1W        W36305   8.230  11.077   1.928  0.1926  0.2339 -0.2554
    1W        W36306  15.938   0.609   2.569 -0.2100 -0.3204 -0.1992
    1W        W36307  28.429  28.413   3.001  0.1641 -0.1529 -0.1221
    1W        W36308   4.716   7.223   0.589 -0.0009  0.2601  0.1265
    1W        W36309  23.777  24.916   8.411 -0.4762  0.1335  0.3067
    1W        W36310  11.184  17.697   7.629 -0.1431  0.0242  0.2761
    1W        W36311   8.601  27.335   1.883 -0.1421  0.1443 -0.2053
    1W        W36312  12.889   6.083   9.332  0.3466 -0.0244 -0.0246
    1W        W36313  24.125   3.103   7.457 -0.1569  0.2004 -0.3880
    1W        W36314  20.721  22.876   6.570 -0.1262  0.1344 -0.4159
    1W        W36315   0.082   4.473   8.821 -0.0664  0.3169 -0.1508
    1W        W36316  23.729   7.332   1.025  0.3682 -0.4580 -0.0050
    1W        W36317   7.266  23.027   7.461 -0.1984 -0.0701 -0.2634
    1W        W36318  10.494  26.972   3.972 -0.4292  0.1172  0.1206
    1W        W36319  14.409   4.472   2.699 -0.1841 -0.0378 -0.0458
    1W        W36320  13.138  24.527   6.568 -0.2135 -0.0301 -0.0124
    1W        W36321  12.679   4.608   1.319  0.3174  0.0495  0.0599
    1W        W36322  23.358   7.637   0.944 -0.0986  0.0586  0.0283
    1W        W36323   1.922  29.378   8.708  0.0817  0.0840  0.5178
    1W        W36324  12.299  26.055   0.351  0.3380  0.0480 -0.0503
    1W        W36325  13.929  17.925   7.808 -0.0095  0.1596 -0.0411
    1W        W36326  15.882  16.511   2.600 -0.0920 -0.3449  0.0362
    1W        W36327  16.101  26.844   8.895 -0.0949  0.1245  0.1229
    1W        W36328  17.949   2.514   2.619  0.2243  0.1563 -0.1152
    1W        W36329  22.625  27.536   0.147 -0.1868 -0.2435 -0.0337
    1W        W36330  11.636  15.596   1.897 -0.1827  0.1257 -0.1043
    1W        W36331  12.284  19.864   0.437  0.3201  0.0277 -0.0774
    1W        W36332  28.359  23.923   0.181  0.1982 -0.0536 -0.1324
    1W        W36333  12.546   1.371   2.311  0.0396 -0.0056  0.2010
    1W        W36334  25.135   6.212   0.348  0.2873 -0.2088  0.1241
    1W        W36335   2.089  25.535   7.041  0.0559 -0.1396  0.1802
    1W        W36336   7.394  15.229   8.673  0.0415  0.3072  0.2912
    1W        W36337  16.635   7.888   2.021  0.1627 -0.0241 -0.1415
    1W        W36338  10.626  20.435   0.410  0.2144  0.0982  0.0388
    1W        W36339   1.978   3.155   1.603 -0.1062  0.1156  0.2501
    1W        W36340   7.659   7.485   0.797  0.0577  0.0166 -0.2780
    1W        W36341  13.698  22.223   1.506  0.2620  0.2252  0.1995
    1W        W36342   3.572  25.986   9.420  0.0091 -0.0055  0.0702
    1W        W36343   2.632  15.109   9.408  0.0702 -0.2807 -0.0183
    1W        W36344  16.995  14.199   1.938 -0.0200  0.1950  0.1321
    1W        W36345   8.316   1.925   0.408 -0.2251 -0.0091  0.0993
    1W        W36346  26.278  10.843   1.934 -0.4768  0.2400 -0.0476
    1W        W36347  25.351  11.475   1.411 -0.2472 -0.1815  0.0832
    1W        W36348  17.404   8.328   3.243 -0.1074  0.1463 -0.0668
    1W        W36349  26.221   5.529   0.860 -0.0477 -0.2167 -0.0297
    1W        W36350   0.343   7.973   8.185 -0.1864  0.1455  0.0308
    1W        W36351  23.269  21.565   8.229 -0.2025  0.2728 -0.0491
    1W        W36352  27.750  18.160   7.320 -0.0591 -0.0357  0.1393
    1W        W36353   8.174   2.112   3.030 -0.2344  0.4231  0.1822
    1W        W36354  20.249  26.379   0.620 -0.3802 -0.1883 -0.4739
    1W        W36355   5.215  19.327   8.510  0.1406  0.0851  0.1575
    1W        W36356  13.286   5.585   6.326 -0.1911  0.1499 -0.1137
    1W        W36357  17.022  18.927   8.845  0.2644  0.0452  0.3083
    1W        W36358  28.601  26.034   6.747 -0.3317  0.0105 -0.2734
    1W        W36359  21.516  13.472   6.920  0.1887 -0.0989 -0.0206
    1W        W36360   8.721   2.900   1.279  0.2279 -0.1156 -0.2010
    1W        W36361  11.286  25.770   1.464 -0.0750 -0.0716  0.3668
    1W        W36362  16.373  21.475   9.466 -0.1614 -0.3458 -0.3416
    1W        W36363   9.593   2.346   7.699 -0.0222  0.0508  0.0959
    1W        W36364   1.376   3.798   1.111 -0.1938 -0.0023 -0.0116
    1W        W36365   6.373   5.484   0.763 -0.0910 -0.2373  0.1999
    1W        W36366  19.360   7.574   2.207  0.0980  0.0859 -0.2474
    1W        W36367  10.104  27.673   2.781 -0.1154 -0.1921 -0.5389
    1W        W36368  17.885  26.456   8.183  0.3348 -0.1127  0.0489
    1W        W36369  17.495  28.432   7.976 -0.2639  0.0653  0.1691
    1W        W36370  22.678  20.000   6.576  0.0944  0.1185  0.1344
    1W        W36371   2.835   5.096   9.020 -0.3154 -0.0809  0.2136
    1W        W36372   1.783   7.500   7.537  0.0726 -0.1369  0.2517
    1W        W36373   9.301  12.029   8.293 -0.0970 -0.0416  0.0957
    1W        W36374  13.871  11.563   8.828 -0.0591 -0.0607  0.0547
    1W        W36375   1.201  10.697   7.011 -0.0811  0.2333  0.1752
    1W        W36376  17.806  17.940   2.422 -0.0812 -0.1076 -0.1640
    1W        W36377   1.315  21.984   7.821  0.3576  0.0973  0.1119
    1W        W36378  18.255   9.450   9.246  0.0740 -0.0876 -0.6349
    1W        W36379  24.896  25.237   1.093 -0.1653 -0.1505 -0.2350
    1W        W36380  23.768   1.575   2.887 -0.2064  0.0331  0.1588
    1W        W36381   4.015  21.242   0.613 -0.1606  0.0334  0.1149
    1W        W36382   1.843  16.182   9.209  0.2723  0.1757  0.1017
    1W        W36383  11.310   0.283   9.246  0.1197 -0.4443  0.2135
    1W        W36384  18.193  13.768   0.259  0.1600 -0.5641 -0.0125
    1W        W36385  16.213  11.095   7.175 -0.0765  0.1291 -0.2746
    1W        W36386   4.073  27.987   2.722 -0.1599  0.1713 -0.3369
    1W        W36387  23.813  15.020   6.194  0.2805  0.0267 -0.1260
    1W        W36388   6.585  29.637   6.319 -0.2573 -0.1134  0.1651
    1W        W36389   3.381   9.556   9.091  0.1372  0.2201 -0.2388
    1W        W36390  13.869   0.463   0.685  0.0570 -0.0176  0.0551
    1W        W36391   1.265  27.091   8.930 -0.0899  0.2571  0.0382
    1W        W36392   2.254  25.047   0.040 -0.1602  0.0212 -0.0020
    1W        W36393  13.964  21.447   2.043 -0.1207 -0.3511 -0.1125
    1W        W36394   5.353  17.198   1.625  0.3252 -0.0079 -0.1563
    1W        W36395   8.877   6.194   1.929 -0.0991 -0.1526  0.0406
    1W        W36396  20.430  27.956   0.965  0.0558 -0.0711 -0.3447
    1W        W36397   9.175  21.911   2.702 -0.0533 -0.0126 -0.1390
    1W        W36398  25.538   7.673   7.677  0.0726  0.0910  0.2013
    1W        W36399  15.393  28.627   2.152  0.0689 -0.1101 -0.2011
    1W        W36400   1.548  28.291   2.435  0.3030 -0.0561  0.1033
    1W        W36401  14.857   9.275   8.234 -0.1999 -0.1248 -0.3935
    1W        W36402  20.447   3.028   2.122 -0.0984  0.1188 -0.1023
    1W        W36403   1.712  22.784   1.334 -0.1822  0.0237 -0.0834
    1W        W36404   4.705   7.644   2.291  0.2083  0.0799  0.3367
    1W        W36405  18.809   7.084   8.195  0.3075  0.0176 -0.3539
    1W        W36406   5.994  20.223   6.780 -0.1730  0.0236 -0.0635
    1W        W36407   7.604   5.182   1.103  0.2350  0.2560 -0.0450
    1W        W36408  10.122  20.320   6.539 -0.1749 -0.2007 -0.2127
    1W        W36409   6.486  17.270   0.433 -0.1652  0.0979  0.3213
    1W        W36410  25.707  10.810   1.726  0.3181 -0.0750  0.0573
    1W        W36411  24.207   6.343   0.786 -0.0781  0.1021  0.0721
    1W        W36412  11.060   4.058   1.109 -0.0248  0.0796  0.3428
    1W        W36413   0.758  17.710   1.545  0.0939 -0.3223  0.0100
    1W        W36414   0.378  21.932   9.401  0.3948 -0.0668  0.1043
    1W        W36415  12.171   0.035   1.640 -0.0882  0.1122 -0.0561
    1W        W36416  28.488  16.171   6.577  0.0865  0.1826 -0.1284
    1W        W36417  21.510   0.729   3.758  0.0319 -0.0272  0.1938
    1W        W36418  15.426  26.635   8.096 -0.0732  0.1128 -0.1960
    1W        W36419  13.819   8.768   0.851 -0.0369  0.2173 -0.1670
    1W        W36420  27.769  18.622   0.914  0.1434 -0.2887 -0.4771
    1W        W36421  10.653   0.114   8.579 -0.0059  0.0008 -0.1020
    1W        W36422  13.910   1.232   1.344 -0.1393 -0.1210 -0.0046
    1W        W36423   1.156  28.984   8.238 -0.0458 -0.0632 -0.1760
    1W        W36424   7.079   6.322   3.786  0.1627  0.0210 -0.0757
    1W        W36425  14.055  29.326   1.245  0.0640  0.5647 -0.1332
    1W        W36426  21.727  27.122   8.398  0.1507 -0.1225  0.1804
    1W        W36427   3.659  10.462   9.473  0.4636 -0.1562 -0.1197
    1W        W36428  28.549  16.130   0.750  0.0347  0.0464 -0.1649
    1W        W36429  26.204  11.571   0.318 -0.1319 -0.0830 -0.0431
    1W        W36430   4.044   8.439   8.854  0.3726  0.1537  0.2125
    1W        W36431  10.937   0.578   9.414  0.1045 -0.0631  0.0012
    1W        W36432  19.484  20.537   7.480  0.2104 -0.0974 -0.0889
    1W        W36433  21.505  28.211   9.363  0.3612  0.4229  0.0173
    1W        W36434  20.277  15.519   2.729 -0.0623 -0.0008  0.0415
    1W        W36435  26.027   1.780   7.522 -0.2631 -0.1275 -0.3496
    1W        W36436  11.460  16.742   2.730  0.1015 -0.1260 -0.0371
    1W        W36437   2.299   2.696   7.571  0.0823  0.3911  0.0435
    1W        W36438  23.335  29.798   1.112 -0.2186 -0.0709 -0.0826
    1W        W36439   4.527  10.588   8.819 -0.4598  0.0755 -0.0737
    1W        W36440  11.262  26.532   8.332  0.1961 -0.0652 -0.1113
    1W        W36441   2.972   7.406   8.131 -0.2044  0.0003  0.0536
    1W        W36442  24.165  10.217   1.894 -0.1357 -0.0227  0.3853
    1W        W36443  25.015  27.586   7.814 -0.1330  0.2392 -0.0231
    1W        W36444  21.969   9.355   8.395  0.0281  0.2273  0.1100
    1W        W36445  20.674  29.461   3.136  0.2194 -0.1268 -0.3380
    1W        W36446   5.052   3.599   0.194 -0.1978  0.2415 -0.2273
    1W        W36447   6.436  18.436   8.258  0.0434 -0.1727  0.1703
    1W        W36448   8.782   8.650   7.337  0.1697 -0.0795 -0.0380
    1W        W36449  24.031   1.290   3.703  0.1530 -0.4548  0.2396
    1W        W36450   8.506  22.738   1.483 -0.0526 -0.1274  0.0486
    1W        W36451  19.696  17.287   1.775  0.0101  0.2523 -0.1340
    1W        W36452  17.325  23.081   1.378  0.2682 -0.1919 -0.2943
    1W        W36453  12.139   7.685   2.751  0.0638 -0.0138 -0.0798
    1W        W36454  19.684  14.119   0.006  0.3513  0.0695  0.0758
    1W        W36455  12.889  19.355   7.049  0.0756  0.2259  0.0427
    1W        W36456  25.275  14.423   5.488  0.2805 -0.2350  0.2293
    1W        W36457   7.370  15.898   7.239 -0.1983 -0.0527 -0.0488
    1W        W36458  11.517  14.507   1.905  0.0029  0.2082 -0.1990
    1W        W36459  10.362  19.783   9.061  0.1115  0.0041 -0.1022
    1W        W36460   9.965   2.269   1.575 -0.1311  0.1658 -0.1463
    1W        W36461   6.342  26.543   2.062  0.0899 -0.2364 -0.0661
    1W        W36462  19.885   0.118   0.950  0.2604  0.1263  0.1961
    1W        W36463   9.329  21.808   6.869 -0.2038 -0.1034  0.1286
    1W        W36464  12.752   2.393   1.529  0.0985  0.0283  0.1617
    1W        W36465  10.175  22.689   9.508 -0.0800 -0.1135  0.0592
    1W        W36466   0.078  25.837   9.293  0.3440  0.0435 -0.0525
    1W        W36467  11.835   4.962   0.908 -0.0858 -0.0990 -0.1973
    1W        W36468   2.600  10.410   1.758  0.1893  0.1811 -0.1372
    1W        W36469   0.703   6.651   1.249 -0.3314 -0.0986 -0.1246
    1W        W36470  20.382  21.082   6.888  0.1829 -0.0534  0.1757
    1W        W36471  17.764   1.182   8.468  0.0759  0.2465 -0.0875
    1W        W36472  20.550  17.807   9.360 -0.1540 -0.1977  0.2053
    1W        W36473  23.578  10.522   0.351 -0.3812 -0.0622  0.0909
    1W        W36474  15.538  21.083   2.687 -0.3979 -0.2110  0.0303
    1W        W36475   0.551  18.960   8.473 -0.2001  0.0416  0.1077
    1W        W36476  23.123  23.813   1.198 -0.0832  0.2197  0.3530
    1W        W36477  14.356  29.615   3.231 -0.1642 -0.2536  0.0200
    1W        W36478   7.629  14.820   0.496  0.0969 -0.0572  0.0509
    1W        W36479  27.652   7.706   7.889 -0.0583  0.1974  0.0806
    1W        W36480  10.875   0.884   3.265 -0.0050  0.0922 -0.0563
    1W        W36481   3.719   9.424   9.534  0.0951  0.2140  0.1422
    1W        W36482  23.605  26.817   6.965  0.0902 -0.0584 -0.0221
    1W        W36483   0.580  17.607   7.863  0.0907  0.4487  0.0800
    1W        W36484  20.996  13.927   7.876  0.0309  0.1331  0.0302
    1W        W36485   3.136  25.447   6.886  0.1792 -0.2430 -0.1480
    1W        W36486  10.758   1.123   0.177 -0.0058 -0.1431  0.2932
    1W        W36487  19.950  13.862   8.683 -0.1780 -0.1342 -0.0743
    1W        W36488   4.238   1.478   2.257  0.0872 -0.1586  0.1973
    1W        W36489   9.549   0.198   0.697 -0.1252  0.4342  0.2390
    1W        W36490   0.329   6.396   9.055 -0.0626  0.4563  0.3430
    1W        W36491  19.991  28.807   0.620 -0.0342 -0.5501 -0.2190
    1W        W36492   1.077   0.619   1.615  0.0797 -0.2368  0.0755
    1W        W36493   7.943  10.248   9.309 -0.1509  0.2141 -0.0465
    1W        W36494  15.139   9.181   1.175  0.2186  0.0933 -0.2041
    1W        W36495   3.440  16.361   0.643  0.0335 -0.0434 -0.3010
    1W        W36496  22.680  11.442   1.059  0.2462  0.2418 -0.0727
    1W        W36497  13.150  10.080   0.451  0.0638  0.1736  0.1791
    1W        W36498  23.231   3.451   7.567  0.2554 -0.0207  0.1246
    1W        W36499  25.687  26.905   2.230  0.0067  0.0122 -0.0623
    1W        W36500  15.421  13.503   0.155 -0.1922 -0.0953  0.3602
    1W        W36501  17.052   2.493   1.883 -0.4401  0.0039  0.4164
    1W        W36502   4.003  26.525   1.386 -0.1221  0.2900 -0.0001
    1W        W36503  18.999  26.004   1.808 -0.0413  0.2755 -0.0835
    1W        W36504  25.077  20.665   0.034  0.1070  0.1743 -0.3406
    1W        W36505  17.497  19.934   1.897 -0.1828 -0.3086  0.3143
    1W        W36506   3.814   6.874   9.090  0.2516  0.1360  0.1861
    1W        W36507  22.261  24.142   7.485 -0.0682 -0.1713  0.0981
    1W        W36508  12.848  16.205   0.004  0.2600 -0.1830  0.2553
    1W        W36509  22.747  24.014   6.583 -0.0973 -0.0651  0.0017
    1W        W36510   4.005  10.540   1.600 -0.0928 -0.0671  0.1953
    1W        W36511   3.356   7.487   7.821  0.3917  0.1383 -0.0715
    1W        W36512  10.779  12.631   8.632  0.3340 -0.1198  0.0528
    1W        W36513  13.084   5.870   0.681 -0.2134 -0.2463  0.0945
    1W        W36514   1.663  25.891   2.095  0.1694 -0.3578  0.0317
    1W        W36515   1.277  15.781   6.806  0.2803  0.2343  0.2390
    1W        W36516  11.747   8.396   2.303 -0.0635 -0.0580 -0.0707
    1W        W36517  16.621  26.682   3.502 -0.0495 -0.3156 -0.3985
    1W        W36518  20.160  15.471   7.246 -0.1088 -0.2960 -0.1941
    1W        W36519  24.738  12.185   6.724 -0.1414  0.1514 -0.0678
    1W        W36520  15.177  25.534   9.195 -0.3697  0.0219  0.1431
    1W        W36521  19.930  25.904   1.725  0.1243 -0.2823 -0.1458
    1W        W36522  18.895  11.904   6.823 -0.1301 -0.1592  0.0770
    1W        W36523   3.280  13.843   8.448 -0.0589 -0.0621  0.0732
    1W        W36524   5.897  16.403   8.517 -0.0858  0.0622 -0.0719
    1W        W36525  19.186  18.623   7.136  0.0271 -0.2482  0.1302
    1W        W36526   0.356  22.086   0.695 -0.0918  0.1676  0.1716
    1W        W36527  29.604  20.823   1.669  0.0038 -0.2672  0.0749
    1W        W36528   4.661   2.511   0.948 -0.0089 -0.2450 -0.0234
    1W        W36529  11.748   4.659   7.182 -0.2638  0.5234 -0.4048
    1W        W36530  11.565  12.073   8.194  0.1647 -0.1395 -0.0683
    1W        W36531  26.722   8.456   1.832 -0.2689 -0.3159 -0.0437
    1W        W36532  13.238  11.921   7.858 -0.1008  0.1554 -0.1386
    1W        W36533   6.690  23.056   1.725 -0.2122  0.1764  0.0103
    1W        W36534  29.038  16.815   8.704 -0.0854 -0.0171 -0.1935
    1W        W36535  20.567  25.148   8.008  0.1649 -0.0086  0.1240
    1W        W36536   4.051  21.994   0.107 -0.0224 -0.3176 -0.3126
    1W        W36537   3.418  26.729   7.428 -0.0849  0.1955  0.3019
    1W        W36538  13.114  26.383   8.506 -0.0451  0.0138  0.0063
    1W        W36539  27.317  25.547   7.141 -0.0138 -0.3659 -0.2191
    1W        W36540  17.102  21.349   0.134  0.0615 -0.1785 -0.0522
    1W        W36541   9.601   5.067   0.259  0.1504 -0.2288 -0.3354
    1W        W36542   7.663   2.084   1.769 -0.0179  0.2926  0.2702
    1W        W36543  21.070  23.295   7.454  0.2351 -0.3173 -0.1223
    1W        W36544   8.404  22.108   7.927  0.1225 -0.0273  0.1981
    1W        W36545   6.312   3.366   2.126  0.0675  0.1324 -0.2083
    1W        W36546  13.045   9.473   7.480 -0.0831 -0.3561 -0.0715
    1W        W36547   1.924  21.875   0.563 -0.0226  0.0857  0.0030
    1W        W36548  15.002   4.065   0.265  0.1492 -0.1026  0.0386
    1W        W36549  15.036   8.124   8.768 -0.2458 -0.0405  0.0659
    1W        W36550   8.983  11.352   2.535  0.1581  0.2463 -0.1509
    1W        W36551  27.751   8.082   8.185  0.2636 -0.1589 -0.0965
    1W        W36552  26.007   8.767   0.223 -0.0411 -0.2301  0.2382
    1W        W36553   7.436  23.955   0.006 -0.1103 -0.0803  0.0135
    1W        W36554  12.341  21.491   1.783 -0.1389 -0.0915  0.3850
    1W        W36555  25.948   4.682   0.961 -0.3778 -0.1792  0.0892
    1W        W36556  16.037   5.612   0.982  0.2196 -0.0624  0.0888
    1W        W36557  26.587   5.745   0.169  0.2573  0.4455  0.3103
    1W        W36558  23.995  14.636   7.149  0.1879 -0.1543 -0.2695
    1W        W36559   5.322  22.279   8.528 -0.0508 -0.1307 -0.0166
    1W        W36560  22.501  21.399   0.241 -0.0050 -0.1139  0.0488
    1W        W36561  24.774  16.255   1.195 -0.2425 -0.2118 -0.1132
    1W        W36562   8.033  11.600   8.422 -0.0368 -0.1018  0.0399
    1W        W36563   7.339   3.821   2.981  0.0496 -0.0728  0.2363
    1W        W36564  11.491  21.258   8.783  0.2169 -0.1412  0.1744
    1W        W36565  13.545   6.173   6.855 -0.3947  0.0586 -0.4209
    1W        W36566   2.218   5.341   8.719 -0.0602 -0.1798 -0.2394
    1W        W36567  18.397  23.628   7.468 -0.0844  0.2220  0.2700
    1W        W36568  17.091  19.514   0.577  0.1408 -0.4939 -0.0410
    1W        W36569  15.648   2.129   1.103 -0.1603 -0.1139  0.0913
    1W        W36570   4.216  10.961   9.022 -0.2858 -0.2215  0.0000
    1W        W36571   1.424  19.604   0.692  0.1556 -0.2513  0.3288
    1W        W36572  29.406  25.342   6.618  0.4061 -0.0454 -0.2069
    1W        W36573  14.619  27.508   1.529 -0.0569 -0.0280 -0.1602
    1W        W36574  23.585   4.648   7.653 -0.3621  0.0454 -0.5577
    1W        W36575   2.314  26.838   0.163 -0.4036  0.2756 -0.1431
    1W        W36576  20.484  19.562   6.608 -0.0209 -0.1497 -0.0399
    1W        W36577   1.950  26.900   2.388  0.2275 -0.0660 -0.0582
    1W        W36578  12.609  15.477   7.242 -0.0475 -0.2663  0.0037
    1W        W36579  16.352  16.698   7.046 -0.0112 -0.1442 -0.1634
    1W        W36580   2.085   1.286   8.617 -0.0472 -0.1051 -0.0201
    1W        W36581  19.421  26.966   7.886 -0.1296 -0.0492  0.1075
    1W        W36582  23.308   7.090   1.439  0.1322  0.1525 -0.0186
    1W        W36583  22.467  27.117   0.286  0.3910 -0.0361  0.1543
    1W        W36584  19.137  11.101   8.445  0.1029  0.4279 -0.1124
    1W        W36585  12.985  19.096   2.934 -0.4422 -0.1450 -0.1911
    1W        W36586   0.418   4.513   2.243 -0.2726 -0.0146 -0.4326
    1W        W36587  11.952  11.349   2.374 -0.1677  0.0389 -0.0744
    1W        W36588   0.653   1.088   3.016  0.1002 -0.2165 -0.2037
    1W        W36589   9.718  14.929   9.431  0.0663 -0.0762  0.0137
    1W        W36590  22.297  28.123   8.164  0.3426 -0.2322  0.0447
    1W        W36591  19.072   6.255   8.098  0.4415 -0.1636 -0.0187
    1W        W36592  16.688  12.752   7.922 -0.0891 -0.3175 -0.2984
    1W        W36593   5.572  22.784   7.745 -0.1556 -0.0834  0.1251
    1W        W36594  22.764  21.822   0.068  0.2516  0.0449  0.0108
    1W        W36595   9.873  19.100   1.570  0.1636 -0.2733 -0.1064
    1W        W36596   2.668   8.747   1.973  0.1708 -0.4362 -0.4132
    1W        W36597  10.374  24.360   2.355  0.2074 -0.3405  0.1123
    1W        W36598   0.851  29.017   1.038  0.1228  0.1134 -0.1044
    1W        W36599   1.520  23.594   7.607  0.0116 -0.0551  0.0442
    1W        W36600  25.273  21.593   1.875  0.1144  0.2862 -0.0778
    1W        W36601  11.091  13.714   1.234  0.1453  0.1966  0.0667
    1W        W36602   7.720  28.946   1.305  0.1705  0.4354  0.0958
    1W        W36603   6.788   8.021   9.082 -0.0596 -0.1040 -0.1895
    1W        W36604  28.944   8.138   1.768  0.0084 -0.0757 -0.0306
    1W        W36605  22.378  18.313   1.404  0.1849 -0.2325 -0.1374
    1W        W36606  27.440  19.560   8.319 -0.0354  0.0821 -0.0260
    1W        W36607  17.269  15.819   8.860  0.2091 -0.1725 -0.0959
    1W        W36608  27.967   9.267   6.646  0.2770 -0.2332 -0.1190
    1W        W36609  18.978  15.178   9.396 -0.1267 -0.0473 -0.3204
    1W        W36610  27.175   3.894   2.992 -0.0276 -0.1449 -0.1980
    1W        W36611  14.325  28.284   2.690  0.1679  0.1519  0.0027
    1W        W36612  21.157   1.035   0.399 -0.0236  0.0798  0.1164
    1W        W36613   2.730  23.146   9.039 -0.0591  0.1748  0.1971
    1W        W36614  26.439  18.106   6.526 -0.1020  0.0591  0.4415
    1W        W36615  21.212   9.621   7.262  0.1082  0.0016 -0.0171
    1W        W36616  18.769  15.591   1.735  0.1420 -0.1287  0.1570
    1W        W36617  15.331  13.880   2.078 -0.3359  0.0124 -0.2098
    1W        W36618  18.849  18.715   8.814 -0.2172  0.3319 -0.0314
    1W        W36619  10.099   0.287   8.897  0.2318  0.0973 -0.1741
    1W        W36620  20.801  10.713   0.901  0.1120  0.1495 -0.2714
    1W        W36621  25.547  22.418   8.845 -0.1145  0.0426 -0.1500
    1W        W36622  14.982   7.943   8.161 -0.1364  0.3015  0.3354
    1W        W36623   0.385   4.214   2.899  0.2578 -0.0055  0.2073
    1W        W36624  10.134   8.261   0.908  0.4357 -0.0985  0.0066
    1W        W36625  17.056  10.154   7.028 -0.1880 -0.2338  0.2232
    1W        W36626   4.652  21.723   2.794  0.1635 -0.1741 -0.0563
    1W        W36627   5.272   8.922   2.111 -0.2788 -0.2400 -0.2324
    1W        W36628  19.049  20.232   7.570  0.0523 -0.1464 -0.1233
    1W        W36629  12.523  28.089   7.842 -0.3925  0.0390  0.0040
    1W        W36630  26.992  28.020   1.938 -0.1304  0.0127  0.1083
    1W        W36631  22.034  13.930   8.332  0.2990 -0.2343  0.2115
    1W        W36632  26.788   4.091   1.910  0.0224 -0.2074  0.0105
    1W        W36633   5.420   2.837   6.716  0.0923 -0.1825  0.0759
    1W        W36634  10.779  20.118   6.758 -0.0956 -0.1381 -0.0236
    1W        W36635   7.411   4.376   8.010 -0.3042 -0.1872 -0.0406
    1W        W36636   9.668  22.506   0.670 -0.0921 -0.1295 -0.0721
    1W        W36637  29.399   3.073   6.666  0.0865  0.0214  0.0758
    1W        W36638  22.034  20.473   6.455  0.0107  0.0826  0.0639
    1W        W36639  16.504  26.877   0.155  0.1660  0.0131  0.1147
    1W        W36640  16.807   2.110   0.120 -0.0853 -0.2624  0.1039
    1W        W36641   2.926  14.593   1.957  0.0534 -0.3887 -0.1794
    1W        W36642  23.850  24.648   1.782 -0.0942 -0.1956  0.1183
    1W        W36643   5.941  11.161   1.381  0.3843  0.4309  0.2901
    1W        W36644  22.362   2.911   2.925  0.1374 -0.0758  0.0406
    1W        W36645   7.985   8.203   6.894  0.1071 -0.2990 -0.1010
    1W        W36646  13.212  22.085   6.220 -0.1211 -0.1220  0.2940
    1W        W36647  15.610  13.553   2.385  0.3173 -0.0549  0.3853
    1W        W36648   1.001   1.234   8.489 -0.0429 -0.1755  0.4268
    1W        W36649  15.138   6.602   7.167  0.0182  0.0312 -0.2170
    1W        W36650  16.072  27.048   0.924  0.1091 -0.0962 -0.1550
    1W        W36651   9.683   6.549   9.117 -0.1139 -0.1103  0.3134
    1W        W36652  19.666  24.426   8.793  0.0620 -0.0763  0.2492
    1W        W36653   3.194   2.419   2.583 -0.0878  0.0358 -0.1506
    1W        W36654  21.949   9.983   9.179 -0.1291 -0.0619 -0.1354
    1W        W36655   2.746  26.166   8.085  0.2456  0.0418 -0.2912
    1W        W36656  27.468   5.042   8.805 -0.1853  0.0786 -0.0648
    1W        W36657  11.676  16.982   9.166  0.0005 -0.1250 -0.0302
    1W        W36658  15.213  16.783   0.988 -0.0165  0.2659 -0.2171
    1W        W36659  11.101  23.485   7.962  0.0394  0.1230  0.0841
    1W        W36660   2.556  20.792   2.068 -0.0407  0.0678  0.0296
    1W        W36661   1.829   2.713   2.508  0.2812 -0.0989 -0.0858
    1W        W36662  24.841  24.055   8.309 -0.0406  0.0593 -0.1172
    1W        W36663  17.532  20.360   2.163  0.0226  0.0985  0.2384
    1W        W36664   6.734  17.325   1.757 -0.2224 -0.5256 -0.2103
    1W        W36665   4.512   5.602   8.220  0.0170  0.2569 -0.2561
    1W        W36666  14.798  16.364   2.233 -0.1919  0.3300 -0.0470
    1W        W36667  18.985  16.049   7.381 -0.0728  0.1111 -0.0629
    1W        W36668  22.465   4.477   9.112  0.1383 -0.1488 -0.2350
    1W        W36669  28.049   6.876   7.006  0.2792  0.2328 -0.0618
    1W        W36670  24.161  12.962   8.833 -0.2041 -0.0009 -0.1446
    1W        W36671  16.653   7.053   7.781 -0.3146  0.3632  0.2642
    1W        W36672   9.487  27.134   9.302  0.0790  0.3899  0.1537
    1W        W36673  11.252  15.983   1.731  0.0240 -0.1782 -0.0644
    1W        W36674  17.929   6.300   1.371 -0.0678  0.0670  0.0303
    1W        W36675  17.587  13.070   9.103 -0.1992 -0.0522 -0.1958
    1W        W36676  11.931  26.140   9.532 -0.1532  0.1567 -0.0422
    1W        W36677  27.239  15.304   8.336  0.1207 -0.2552 -0.1537
    1W        W36678  18.623   5.509   3.296 -0.1612  0.1701 -0.0065
    1W        W36679  12.862  19.530   1.483 -0.1413  0.0456  0.2022
    1W        W36680  26.814   1.648   7.547  0.1939 -0.2325 -0.0651
    1W        W36681  26.593   0.742   7.884 -0.0148  0.1168 -0.1322
    1W        W36682  23.005  22.658   0.218 -0.1887  0.1304  0.3764
    1W        W36683  29.685  17.576   1.478 -0.1145 -0.0114  0.0284
    1W        W36684  26.526  24.280   8.366 -0.0550  0.4370  0.1835
    1W        W36685  29.424  25.937   7.774 -0.1797 -0.1603 -0.3000
    1W        W36686  18.532   5.157   1.490  0.2464  0.2255  0.4253
    1W        W36687  25.688  29.399   8.767 -0.1446 -0.0318 -0.1121
    1W        W36688   7.198  26.121   8.962 -0.2655  0.0227  0.1705
    1W        W36689  12.276  27.680   2.683  0.1263  0.0142  0.2247
    1W        W36690   7.660  17.893   7.888 -0.0755 -0.0834  0.0166
    1W        W36691  28.702  16.878   6.109  0.1364  0.0259 -0.1916
    1W        W36692   4.833  26.651   9.236  0.1110  0.0135  0.1750
    1W        W36693  18.903  26.978   8.978 -0.2020  0.3443 -0.0602
    1W        W36694   4.885  13.058   8.085  0.3242  0.0424 -0.2611
    1W        W36695  18.340  11.130   6.954 -0.0857 -0.0648 -0.0378
    1W        W36696   6.162  15.998   8.820  0.0585  0.1845  0.0143
    1W        W36697  24.576  15.895   9.315 -0.0553  0.2815 -0.3006
    1W        W36698   2.674  19.576   1.716 -0.3699  0.2303  0.3648
    1W        W36699   9.893  24.383   2.123 -0.0344 -0.0273  0.3758
    1W        W36700  11.342  24.245   0.046 -0.1653 -0.0077 -0.0312
    1W        W36701  12.326   0.504   2.470  0.0200  0.3269 -0.6200
    1W        W36702   3.893  26.972   9.381 -0.1613 -0.1419  0.0118
    1W        W36703  18.274   4.895   0.205 -0.0011  0.4065 -0.0563
    1W        W36704   2.274  27.913   1.232 -0.0263  0.0635  0.1901
    1W        W36705  27.021   3.261   1.927 -0.0000  0.3403 -0.2598
    1W        W36706   5.040   7.303   8.230 -0.0688  0.2099  0.3012
    1W        W36707  29.550  23.237   7.749 -0.0028  0.0612  0.1930
    1W        W36708  13.846   1.121   9.306  0.1389 -0.0547  0.1408
    1W        W36709  27.526  19.450   7.811  0.0805  0.1858 -0.0644
    1W        W36710   9.680  24.280   0.747 -0.0298 -0.0892  0.0767
    1W        W36711  21.914   0.822   2.773  0.2265 -0.1511 -0.0062
    1W        W36712  23.629   6.376   7.487 -0.2611 -0.1718  0.3863
    1W        W36713   9.499   6.044   3.864  0.0689 -0.4642  0.0597
    1W        W36714  28.756   8.375   7.198  0.3244 -0.2102 -0.0942
    1W        W36715   6.882  27.124   0.224  0.0840  0.2678 -0.3050
    1W        W36716   0.904  14.181   9.471 -0.3178 -0.2189 -0.0992
    1W        W36717  23.127  11.665   6.931  0.0263  0.1119 -0.0008
    1W        W36718  13.808  29.552   3.117 -0.1301 -0.2789 -0.2337
    1W        W36719  28.839   7.062   2.292  0.0392  0.1101 -0.0583
    1W        W36720   3.390  21.606   8.540  0.1212  0.1053  0.2003
    1W        W36721  29.214   4.274   2.433 -0.0001 -0.0504 -0.3132
    1W        W36722   0.052  12.676   0.192  0.0744  0.3887  0.2145
    1W        W36723  19.788  29.289   0.842  0.2064 -0.1833  0.0427
    1W        W36724  14.094   3.472   0.863  0.2560 -0.0692 -0.3101
    1W        W36725   9.829   4.915   7.128  0.0570  0.0174 -0.2272
    1W        W36726  19.331  24.744   7.863 -0.2522  0.0790 -0.2190
    1W        W36727  19.762  15.497   8.343  0.0962  0.0065 -0.0712
    1W        W36728   5.503  11.444   1.692 -0.0685 -0.0238  0.1625
    1W        W36729  20.661  15.401   1.322 -0.0553  0.1136 -0.1076
    1W        W36730   7.709   3.248   1.442 -0.0839  0.2738  0.0210
    1W        W36731  29.298  11.318   1.892 -0.0050 -0.0244 -0.1285
    1W        W36732  21.775  20.038   8.416  0.2025 -0.0393 -0.2598
    1W        W36733   4.984   8.638   8.712  0.3378 -0.4153  0.0677
    1W        W36734  20.371  19.236   1.036  0.3342 -0.0101 -0.2012
    1W        W36735  10.520  22.294   8.742  0.3107  0.1546 -0.6117
    1W        W36736  28.924  23.003   0.829 -0.3510  0.2050 -0.0722
    1W        W36737  12.503  23.658   6.761  0.1429  0.4765  0.2043
    1W        W36738  16.904  25.298   6.945 -0.0313 -0.1412 -0.2075
    1W        W36739  28.484   7.803   2.551  0.3789  0.2529 -0.0396
    1W        W36740  19.483   9.699   2.789  0.1916 -0.5191 -0.2313
    1W        W36741  21.901  14.664   9.281 -0.2585 -0.3569 -0.0852
    1W        W36742  10.307  24.091   8.020  0.1518  0.1276 -0.1100
    1W        W36743   1.222  13.487   0.761 -0.1140  0.0032 -0.0806
    1W        W36744   0.143  10.257   1.103  0.2288  0.3886  0.0857
    1W        W36745   1.049  24.821   0.663 -0.0348 -0.1037 -0.0157
    1W        W36746  22.513  14.399   7.892  0.0765 -0.0155 -0.0350
    1W        W36747   3.746  17.446   8.496  0.1304  0.2737  0.4055
    1W        W36748   2.947   8.317   8.289  0.0141  0.0411  0.3369
    1W        W36749   4.169   7.733   8.195  0.3551  0.1239 -0.1178
    1W        W36750  14.916   9.795   9.009 -0.0496 -0.3956 -0.1400
    1W        W36751  12.539  12.285   2.722 -0.0659 -0.1924  0.2580
    1W        W36752  10.849  11.862   1.977 -0.1649  0.0377  0.1067
    1W        W36753  14.006  18.426   8.617  0.0655  0.0796 -0.0912
    1W        W36754  17.562   6.898   7.817 -0.1076  0.0684 -0.1296
    1W        W36755   9.351  27.930   0.368  0.1634 -0.2387 -0.2612
    1W        W36756  22.414  13.972   7.312  0.1500 -0.3349  0.1910
    1W        W36757   1.874  29.725   8.355  0.1226 -0.0856  0.0417
    1W        W36758  14.841   9.079   0.770 -0.2379  0.1485  0.1546
    1W        W36759  11.503   2.402   1.209 -0.0552  0.0615 -0.0460
    1W        W36760   8.423   4.618   7.769 -0.1516  0.0062  0.0906
    1W        W36761   6.552   3.138   3.746 -0.1337 -0.1250  0.1092
    1W        W36762  14.853  24.655   9.299 -0.2992  0.1493  0.3796
    1W        W36763  26.483  20.353   7.857 -0.1714 -0.1337 -0.1158
    1W        W36764  10.373  18.399   1.085  0.4053  0.4327 -0.1140
    1W        W36765  17.213   0.214   0.831 -0.0020 -0.1547  0.2252
    1W        W36766  14.684   8.854   8.400 -0.1597 -0.3527 -0.4095
    1W        W36767  19.645  23.437   9.317  0.1890  0.0265 -0.2690
    1W        W36768  12.770   0.533   2.706  0.0013 -0.1979 -0.0979
    1W        W36769   6.227   0.112   9.427  0.0235  0.2187 -0.1124
    1W        W36770   9.841  13.977   8.416 -0.3137  0.0348  0.2922
    1W        W36771   9.726   0.820   0.280  0.2921  0.2560  0.0982
    1W        W36772   9.009  17.272   7.742 -0.0256 -0.1607  0.0264
    1W        W36773  21.991  22.812   8.873  0.0776  0.3590  0.1385
    1W        W36774   5.314  28.816   7.739 -0.4148  0.0603 -0.3108
    1W        W36775  18.596  24.536   9.190 -0.0545 -0.2540 -0.1351
    1W        W36776   6.731  11.800   0.843 -0.0067  0.0291 -0.0582
    1W        W36777  13.992   4.390   7.425 -0.3208 -0.2645  0.0630
    1W        W36778  16.237  13.772   8.889  0.3117  0.0003 -0.0354
    1W        W36779   2.412   6.279   1.563  0.0178 -0.2106  0.2597
    1W        W36780  16.944  24.123   7.714 -0.2221 -0.1064  0.0903
    1W        W36781  19.871  15.613   1.130 -0.0728 -0.0252  0.0069
    1W        W36782  21.534  12.588   0.033  0.3121  0.0176 -0.2174
    1W        W36783  28.145   6.361   1.289 -0.0530  0.1352  0.1823
    1W        W36784  20.635   9.457   2.680  0.3602  0.2073 -0.1260
    1W        W36785  10.362  27.886   8.163 -0.1000 -0.2616 -0.0471
    1W        W36786   8.918  18.716   0.966 -0.0675 -0.0503  0.4168
    1W        W36787   7.416  27.652   8.501 -0.2402 -0.2195  0.2969
    1W        W36788  28.790  22.906   9.494  0.1745  0.2711 -0.0044
    1W        W36789  16.846  14.611   8.709 -0.0409 -0.1071  0.4580
    1W        W36790   1.447   2.512   7.562  0.3524  0.1910  0.0517
    1W        W36791  23.886  27.370   0.638  0.1836  0.3115  0.2180
    1W        W36792   3.540   6.632   1.948  0.0884  0.2405 -0.0811
    1W        W36793   5.325  12.888   8.804  0.0841  0.0877 -0.1047
    1W        W36794   8.641   9.128   7.506 -0.1727 -0.2483  0.1028
    1W        W36795  19.346  17.514   2.474 -0.1565 -0.2586  0.2531
    1W        W36796  25.054   3.097   8.862  0.0867 -0.1191  0.0375
    1W        W36797  26.358   5.148   8.373  0.2111 -0.1938  0.2390
    1W        W36798  20.278  11.093   8.238  0.1413  0.1914  0.1793
    1W        W36799  28.490  22.919   2.127 -0.0421  0.0100  0.1094
    1W        W36800  21.598  27.631   8.417  0.2464 -0.4058  0.1898
    1W        W36801   1.162  22.382   0.928  0.1638 -0.1163  0.0646
    1W        W36802  19.698  18.446   7.774  0.0236  0.2284  0.2385
    1W        W36803  18.841   2.732   7.846 -0.0682  0.1304 -0.2649
    1W        W36804   8.766  13.010   1.747  0.2784  0.1911 -0.2167
    1W        W36805   6.094  16.571   7.196  0.0928 -0.3875 -0.0591
    1W        W36806  25.002   7.047   9.530 -0.1677 -0.4920  0.0854
    1W        W36807  18.397  18.845   6.732  0.1644  0.1464  0.2157
    1W        W36808   6.009  13.396   2.934  0.0488 -0.1188  0.1024
    1W        W36809  20.992   3.844   8.299 -0.0759  0.0302  0.0646
    1W        W36810   9.037  14.553   1.165 -0.0244  0.2135  0.2133
    1W        W36811  12.372   3.685   3.051 -0.0587  0.0179 -0.0988
    1W        W36812  14.783  23.809   7.338 -0.2775  0.3169  0.2049
    1W        W36813  19.632  22.709   8.470  0.1634 -0.3303  0.2544
    1W        W36814  23.946   4.282   9.113  0.0032  0.1982  0.0518
    1W        W36815   3.305  19.050   8.399 -0.0928  0.2294  0.2720
    1W        W36816  28.077  13.661   9.087  0.1230 -0.0603 -0.0027
    1W        W36817   2.532   8.310   0.159  0.0085 -0.1102  0.3935
    1W        W36818  26.182   2.931   8.713  0.2121  0.2351 -0.0788
    1W        W36819   3.701   7.561   6.565 -0.0970  0.0537  0.1961
    1W        W36820  29.540  19.764   7.875  0.1435  0.1244  0.0455
    1W        W36821  24.145   6.538   2.363  0.1573 -0.0106 -0.1741
    1W        W36822  14.300  28.926   7.869 -0.1081 -0.0597 -0.2303
    1W        W36823  27.139  20.500   6.894 -0.4327  0.1708  0.1987
    1W        W36824   6.941  24.797   8.415 -0.1413  0.1567 -0.0192
    1W        W36825   9.617  17.298   9.076  0.1133 -0.1519 -0.0026
    1W        W36826  26.582  17.306   0.159 -0.0155 -0.2567  0.1160
    1W        W36827  11.111  16.499   2.991  0.0684 -0.1450  0.3006
    1W        W36828  15.360  23.377   1.221 -0.2620 -0.0285  0.4473
    1W        W36829  18.892  23.320   6.849 -0.1696 -0.1566  0.0244
    1W        W36830  26.613  11.527   8.167  0.0825 -0.0566  0.0692
    1W        W36831  14.029  18.811   1.826  0.0660  0.0898 -0.2686
    1W        W36832  14.437  12.199   9.242 -0.1055  0.0171 -0.0555
    1W        W36833  26.554   5.541   9.276 -0.0096  0.1711  0.1430
    1W        W36834  14.366   2.260   8.811 -0.3629 -0.0588  0.1461
    1W        W36835   4.705  17.886   8.167 -0.1429  0.0112 -0.1298
    1W        W36836   4.156  28.886   1.063  0.1362 -0.1000 -0.0128
    1W        W36837   9.807  10.683   0.311 -0.1215  0.0054  0.2206
    1W        W36838  24.529   0.248   0.218  0.1667 -0.2868 -0.0696
    1W        W36839  23.615   5.604   0.671 -0.3832 -0.0885 -0.0900
    1W        W36840   8.180  20.273   2.071  0.1413 -0.0326 -0.3211
    1W        W36841  21.581  25.356   2.066  0.2279  0.2911 -0.2071
    1W        W36842  23.731   4.438   3.071  0.2747  0.2438  0.0388
    1W        W36843  18.377  26.130   7.336 -0.1227 -0.1355  0.1221
    1W        W36844   7.485   3.542   1.055 -0.1514 -0.0601  0.2246
    1W        W36845  25.728  10.435   6.623 -0.2120 -0.3018 -0.0686
    1W        W36846  19.810   0.547   7.686 -0.1139 -0.1507  0.1023
    1W        W36847  18.442  13.211   2.620  0.0801 -0.1203 -0.0216
    1W        W36848   5.892  23.847   0.262  0.1667 -0.0945 -0.1837
    1W        W36849   3.774  20.960   8.219  0.3110  0.0876  0.3177
    1W        W36850   1.241   9.219   8.071  0.0643  0.1791  0.2601
    1W        W36851  21.950   3.543   8.880  0.1461  0.0946  0.1064
    1W        W36852  15.234  18.706   9.418  0.2980  0.1369 -0.2760
    1W        W36853   9.435  20.119   1.766  0.0746  0.3456  0.2720
    1W        W36854  12.278   3.987   0.235  0.1693  0.1243  0.3054
    1W        W36855  29.416   0.245   2.263 -0.2190 -0.0091  0.0158
    1W        W36856  26.685  12.395   7.662 -0.0581  0.0031 -0.1752
    1W        W36857  22.402  15.226   0.943  0.2487  0.0092  0.1672
    1W        W36858  20.104   2.499   1.217 -0.2934 -0.1019  0.0567
    1W        W36859  10.041  14.896   1.153 -0.1578  0.3567  0.0204
    1W        W36860   3.289  20.372   1.072  0.0152  0.0058 -0.2109
    1W        W36861  21.974  27.569   3.868  0.0179 -0.2181  0.0417
    1W        W36862   4.452  27.621   2.664  0.1112 -0.1009  0.2902
    1W        W36863  23.722   7.086   0.483  0.1318 -0.0296 -0.1085
    1W        W36864  11.978  14.643   8.333  0.0090 -0.0396 -0.0999
    1W        W36865  12.251  20.095   1.851  0.0013 -0.0819  0.1429
    1W        W36866   7.997   7.443   7.839  0.0266 -0.1333 -0.0795
    1W        W36867   6.415   6.378   7.664 -0.0705 -0.2308 -0.4490
    1W        W36868  27.576   7.637   1.537  0.1920 -0.0846  0.0074
    1W        W36869  28.999  24.749   6.611 -0.0253  0.0079 -0.1106
    1W        W36870  28.321  10.649   1.464  0.0270  0.0162 -0.0075
    1W        W36871  21.524  21.654   5.991 -0.1332  0.1666 -0.2185
    1W        W36872  26.763  11.698   1.836 -0.1547  0.0997  0.3210
    1W        W36873  12.180  18.929   0.507  0.1278  0.1427 -0.6673
    1W        W36874  12.295   2.184   8.017 -0.1056  0.1597 -0.0696
    1W        W36875  20.583  20.015   9.277 -0.2716  0.0770  0.0811
    1W        W36876  11.333   0.087   2.101  0.2364 -0.0760 -0.2884
    1W        W36877  14.331  13.482   9.150  0.1787 -0.1711 -0.0335
    1W        W36878   2.112  13.906   8.900  0.1107 -0.3010  0.4968
    1W        W36879  21.811   6.911   7.466  0.0046  0.2821  0.0802
    1W        W36880   9.083  26.378   9.104  0.2066  0.2234  0.1738
    1W        W36881  15.575  29.436   0.014  0.0362  0.0528  0.2620
    1W        W36882  11.095  26.061   8.116  0.3098 -0.3250  0.0565
    1W        W36883   7.766  11.520   7.568 -0.2652  0.1769 -0.0260
    1W        W36884  10.521  11.506   9.460  0.0962 -0.0763 -0.0775
    1W        W36885   9.745   2.530   8.159  0.2863 -0.0258 -0.0474
    1W        W36886  27.272   0.028   2.708 -0.1692  0.1495  0.1283
    1W        W36887  16.889  10.976   8.193 -0.4958 -0.3009 -0.0345
    1W        W36888  12.488   1.884   3.033  0.0689 -0.0385 -0.1417
    1W        W36889   8.302  24.295   2.195  0.1530 -0.0777  0.0026
    1W        W36890   4.302  10.518   7.434  0.0487  0.0040  0.0101
    1W        W36891   7.233  14.531   2.440 -0.2505 -0.0616  0.3997
    1W        W36892  26.352  27.055   0.055  0.0292 -0.1819  0.0408
    1W        W36893   9.593  23.937   0.445 -0.3056 -0.1216  0.5179
    1W        W36894   8.029  18.759   1.330  0.2920 -0.0129 -0.1388
    1W        W36895  20.062  14.909   9.010  0.1622 -0.0331 -0.1770
    1W        W36896  18.430  10.478   6.147  0.3024 -0.1032 -0.0288
    1W        W36897  19.982  11.180   8.676  0.0591  0.0631 -0.2651
    1W        W36898   7.589  14.818   2.623 -0.1775  0.0414  0.0827
    1W        W36899  16.811   5.707   3.228  0.1021 -0.2468 -0.0782
    1W        W36900   0.690  26.764   1.340  0.3682  0.0254  0.0337
    1W        W36901   2.970   6.338   0.773 -0.1515  0.3331 -0.1499
    1W        W36902  16.755  12.482   8.462  0.1597  0.2534  0.1086
    1W        W36903  23.597   0.673   3.160 -0.0482 -0.0436  0.0042
    1W        W36904   5.470   7.325   9.245  0.0309  0.1358 -0.4492
    1W        W36905  26.591  26.415   1.698 -0.1190  0.1204 -0.0776
    1W        W36906  12.438  25.200   7.551  0.1320  0.0422 -0.2162
    1W        W36907   8.296   0.500   1.213  0.0673 -0.1535 -0.0486
    1W        W36908  14.608   8.818   7.425  0.0950 -0.0100 -0.0432
    1W        W36909  12.209   3.636   9.344  0.3900 -0.2574 -0.0087
    1W        W36910  11.873  20.594   1.262  0.4173  0.0436  0.0622
    1W        W36911   5.933  24.023   8.193  0.1772  0.0454  0.1002
    1W        W36912   3.408  22.771   2.102 -0.0398  0.1098  0.1028
    1W        W36913   4.840  27.295   2.680 -0.1927  0.4918  0.0593
    1W        W36914   3.703   6.870   8.329  0.2030 -0.1977  0.0667
    1W        W36915  14.439   3.589   8.288 -0.2288  0.1361  0.1343
    1W        W36916  14.880   8.743   6.569  0.2481  0.1343 -0.0096
    1W        W36917  18.461   4.832   8.152 -0.2791 -0.1267 -0.2769
    1W        W36918   9.835   7.983   9.541 -0.3003 -0.0975 -0.0632
    1W        W36919   6.912  24.171   2.566 -0.1678  0.4170  0.0892
    1W        W36920  16.061  19.664   7.605 -0.3010 -0.1042  0.0367
    1W        W36921  13.610  24.091   1.186 -0.1638 -0.0229 -0.2010
    1W        W36922  16.899   1.522   1.366 -0.0497  0.0463  0.0879
    1W        W36923  10.443  12.547   2.150  0.0385  0.1294 -0.0533
    1W        W36924   2.967  11.369   1.608  0.3450  0.0358 -0.1999
    1W        W36925  23.582   7.537   9.307  0.0344  0.0699 -0.0034
    1W        W36926  29.763  23.122   6.422  0.1888  0.0703  0.2171
    1W        W36927   8.786  25.295   2.719  0.1890  0.2776 -0.2444
    1W        W36928  29.004   9.917   1.403 -0.0462  0.1091  0.1979
    1W        W36929   3.832   7.864   2.923 -0.1032  0.0621 -0.2045
    1W        W36930   6.227   6.035   0.592 -0.1083 -0.0578  0.1255
    1W        W36931  19.628  28.966   8.250 -0.2895  0.0108 -0.3086
    1W        W36932   5.852  27.833   1.673 -0.0537 -0.2665  0.1749
    1W        W36933  19.453   2.245   8.416 -0.2799  0.0395  0.0211
    1W        W36934  28.928  12.567   1.039 -0.2705 -0.0107  0.1205
    1W        W36935   5.484   2.078   8.189  0.2493 -0.3118  0.3484
    1W        W36936  14.149   7.850   0.534  0.0674  0.0197 -0.0522
    1W        W36937  21.442  22.907   1.519  0.2083  0.1589  0.0614
    1W        W36938  29.610  11.348   7.306 -0.0353 -0.2717 -0.0522
    1W        W36939  14.230   3.513   1.354 -0.1435 -0.0997 -0.0836
    1W        W36940   0.703  17.616   2.136 -0.1786  0.0587  0.1147
    1W        W36941  23.175  13.233   2.473  0.1736 -0.0589  0.0826
    1W        W36942  20.580   5.784   1.747 -0.0488 -0.1223 -0.5633
    1W        W36943   4.476  10.747   1.493  0.0925 -0.0158 -0.0758
    1W        W36944  12.274  13.748   9.223 -0.0914  0.3288 -0.1413
    1W        W36945   5.044   6.215   8.690 -0.1262 -0.0441  0.0626
    1W        W36946  18.315   3.476   2.457 -0.0133 -0.0878 -0.0995
    1W        W36947  25.072  14.838   8.557 -0.1229  0.1087  0.1252
    1W        W36948  16.213  14.064   1.849 -0.2890 -0.0207  0.0545
    1W        W36949   9.098  28.795   9.007 -0.3631 -0.1281  0.0292
    1W        W36950  17.288  22.692   9.133  0.1709 -0.0246  0.0065
    1W        W36951   2.813  11.542   7.989 -0.2441 -0.0547  0.0955
    1W        W36952  17.896  18.193   0.318 -0.0482  0.1656 -0.1875
    1W        W36953  24.888  19.414   0.878  0.1359  0.0947  0.0754
    1W        W36954  26.810  16.931   5.843  0.1627 -0.1248  0.1065
    1W        W36955  26.839  16.660   1.344 -0.2552 -0.3205  0.0403
    1W        W36956  16.208   9.287   0.065 -0.2025  0.2039  0.1483
    1W        W36957  22.687  27.699   2.848 -0.0151 -0.0851 -0.0246
    1W        W36958   6.402  18.878   9.501 -0.0644 -0.2640 -0.2104
    1W        W36959  29.282  16.633   0.476  0.3115 -0.0219 -0.0865
    1W        W36960   3.332  14.470   7.751  0.0464  0.0358  0.0752
    1W        W36961  10.952  10.119   1.394  0.2222 -0.0829 -0.0921
    1W        W36962  11.466  15.540   7.396  0.0345 -0.2247 -0.2362
    1W        W36963   3.883   5.153   2.574  0.3794 -0.2037  0.3454
    1W        W36964  23.539  22.952   6.035 -0.1494 -0.0415 -0.2678
    1W        W36965  13.733  15.315   2.863  0.3620 -0.4026 -0.1860
    1W        W36966  11.302   3.770   8.124  0.1401 -0.1377 -0.0532
    1W        W36967   4.195  11.940   0.714 -0.0381 -0.2042 -0.0624
    1W        W36968  27.300  26.978   8.201  0.4942  0.0186 -0.0806
    1W        W36969  22.989  21.279   6.630  0.1749 -0.0904  0.2661
    1W        W36970   7.957  12.783   2.414 -0.0990  0.0439 -0.0367
    1W        W36971   7.290  10.312   6.549  0.0294 -0.2401 -0.1341
    1W        W36972  28.053  11.214   8.384 -0.0204  0.3027 -0.0594
    1W        W36973  17.954  13.189   7.460 -0.2963 -0.2374 -0.2340
    1W        W36974   1.702  27.851   7.605  0.0939  0.2604  0.3878
    1W        W36975  24.432  19.113   8.099  0.1628  0.0144  0.1756
    1W        W36976   7.226   3.980   1.180 -0.1434  0.2900  0.1100
    1W        W36977  17.970   9.485   1.674  0.0719  0.0056  0.0005
    1W        W36978   1.687  22.459   1.863 -0.1725  0.0877  0.0104
    1W        W36979   4.793  22.294   9.150  0.1022 -0.0609 -0.0211
    1W        W36980  26.530  14.933   8.912  0.2370  0.1758  0.1873
    1W        W36981   9.267  11.549   0.225 -0.1389  0.2742  0.1008
    1W        W36982   9.197   5.961   7.355  0.3484  0.1795 -0.2242
    1W        W36983  15.325  13.488   6.111 -0.4369  0.1973  0.3703
    1W        W36984  18.637  16.997   1.483  0.0991 -0.0696 -0.0523
    1W        W36985   1.786   0.156   1.391  0.2802 -0.1693 -0.0353
    1W        W36986  14.271   0.479   1.125 -0.0526 -0.2344  0.2525
    1W        W36987  20.485  27.406   8.490  0.2331  0.3377 -0.3752
    1W        W36988  23.939  29.182   7.714  0.0559  0.1084 -0.3216
    1W        W36989  17.763  26.995   8.179 -0.0843 -0.0856 -0.3979
    1W        W36990  17.364  15.598   6.599  0.0164  0.0897  0.0142
    1W        W36991   9.155  21.462   0.017  0.1157  0.0477 -0.0045
    1W        W36992  18.996   6.642   0.498 -0.0585  0.0996  0.2811
    1W        W36993   2.313  20.115   0.214  0.0916 -0.1262  0.0927
    1W        W36994   3.363  10.732   7.060 -0.1567  0.3887  0.0080
    1W        W36995   8.800  15.687   0.468  0.2119 -0.1894  0.0442
    1W        W36996  21.882   4.411   7.955  0.1117 -0.0031  0.0462
    1W        W36997  11.177   2.363   1.614 -0.1589 -0.1269 -0.0595
    1W        W36998   7.447  23.212   2.802  0.0501 -0.2016 -0.2512
    1W        W36999  27.464  17.255   8.018 -0.1307  0.1655  0.0572
    1W        W37000  10.422   2.280   2.518 -0.0731  0.0729  0.0629
    1W        W37001  15.000  27.526   1.891  0.0574  0.0842 -0.1602
    1W        W37002  17.249  28.758   7.678  0.1723  0.1096 -0.1680
    1W        W37003  17.688  23.434   2.302 -0.1421 -0.0656  0.0876
    1W        W37004  20.335  10.559   1.051  0.4278  0.0811  0.1515
    1W        W37005  26.853  22.056   8.078 -0.2459 -0.0077 -0.0876
    1W        W37006  15.451  29.225   9.091  0.6205 -0.0111 -0.0775
    1W        W37007   8.470  26.654   2.315 -0.0117 -0.1678  0.2839
    1W        W37008   9.148   6.561   1.737 -0.2753  0.1262  0.2091
    1W        W37009  29.099  21.795   7.851 -0.1378  0.1711 -0.1186
    1W        W37010   8.065  29.179   2.485 -0.0472 -0.2232 -0.0951
    1W        W37011  21.540   9.466   0.292  0.0002 -0.0074  0.0125
    1W        W37012   4.707  20.232   2.782 -0.0268 -0.2878  0.0522
    1W        W37013  14.105  16.253   0.454  0.0706  0.2595 -0.0196
    1W        W37014   5.550  21.178   1.583 -0.0243 -0.1369  0.1036
    1W        W37015   3.686  11.878   1.754  0.1866 -0.0670 -0.2944
    1W        W37016  15.602  11.173   9.460  0.2284 -0.1670 -0.0541
    1W        W37017   5.975  28.227   7.166  0.0500  0.0478 -0.0373
    1W        W37018  27.143  12.262   8.022  0.5840 -0.1654 -0.3214
    1W        W37019   8.224   8.122   2.396  0.3415  0.2474  0.1594
    1W        W37020  26.927   2.993   0.790 -0.2627 -0.0652 -0.2309
    1W        W37021  13.765   2.165   1.470  0.1649 -0.0992  0.0917
    1W        W37022   7.898  26.706   9.368  0.0663  0.0806 -0.1570
    1W        W37023  14.063  21.092   1.678 -0.0043  0.1155  0.0145
    1W        W37024  17.341  22.005   3.161 -0.0437 -0.1350  0.0528
    1W        W37025  29.032  10.685   0.742 -0.1637 -0.2730  0.2018
    1W        W37026   4.380   2.674   8.960 -0.0629  0.2692  0.1727
    1W        W37027   9.978  25.690   2.874  0.0307  0.0411  0.2417
    1W        W37028   8.431   7.954   7.307  0.1898  0.0447 -0.0352
    1W        W37029  21.075   0.874   2.333  0.1995 -0.2177 -0.2098
    1W        W37030   9.630  15.438   9.164 -0.2110 -0.1087  0.0882
    1W        W37031  13.979  14.894   0.150 -0.2198  0.0230 -0.1709
    1W        W37032  28.244  28.482   8.051  0.2422  0.0459 -0.1892
    1W        W37033  21.048   4.668   1.301  0.2478 -0.0622 -0.0534
    1W        W37034   1.192  28.801   0.298  0.0339 -0.1193  0.1394
    1W        W37035  10.224  24.948   0.015 -0.2434  0.0316 -0.0036
    1W        W37036   2.554  23.478   2.283  0.0016  0.0011 -0.2261
    1W        W37037  14.272  21.252   1.191 -0.0167  0.0466 -0.1958
    1W        W37038   8.251  26.952   1.941 -0.3097  0.1274  0.0280
    1W        W37039  17.253  20.782   7.743  0.1104 -0.0439 -0.0810
    1W        W37040  20.428  13.920   8.587 -0.0316  0.2226 -0.0107
    1W        W37041   3.135   1.749   7.710  0.0221  0.0183  0.0238
    1W        W37042  13.778  21.305   7.321 -0.1209  0.1399 -0.2606
    1W        W37043   7.134   4.803   7.308 -0.0333 -0.3682  0.0952
    1W        W37044  12.904   0.002   7.698 -0.1909  0.0659 -0.2798
    1W        W37045  13.457  16.916   2.153 -0.4219  0.2195  0.2579
    1W        W37046  17.664  11.704   9.259  0.0446 -0.1409  0.0344
    1W        W37047   8.723   6.706   7.549  0.0123  0.3752 -0.2540
    1W        W37048  18.360   9.778   1.822  0.1072 -0.1323 -0.3485
    1W        W37049  11.416  20.998   1.560 -0.2265 -0.1339 -0.1694
    1W        W37050  21.552  12.626   6.922  0.3220  0.0521  0.0527
    1W        W37051  23.641  12.324   6.792 -0.3305 -0.0183  0.0069
    1W        W37052   4.642   8.282   2.952 -0.0038 -0.1851 -0.0254
    1W        W37053  12.815  27.179   7.040 -0.2366 -0.1334  0.1196
    1W        W37054  11.887   4.715   2.389  0.0282  0.0052 -0.1556
    1W        W37055   0.439  12.543   8.166 -0.1467 -0.1158  0.0012
    1W        W37056  18.122   1.916   9.500  0.2695 -0.0810  0.4723
    1W        W37057  12.094   7.528   1.795 -0.0854 -0.1811 -0.0884
    1W        W37058  18.087  12.417   8.859 -0.0394 -0.1790 -0.0775
    1W        W37059  26.013   5.300   2.254 -0.0146  0.2180  0.3986
    1W        W37060  10.934   6.739   2.172 -0.0830 -0.1179  0.2225
    1W        W37061  29.516  16.927   0.105  0.3330 -0.0462 -0.1581
    1W        W37062  22.262   8.891   8.448 -0.3197 -0.4569  0.1082
    1W        W37063  12.436  24.021   8.650 -0.1797 -0.0990 -0.0825
    1W        W37064  14.778  12.612   8.319 -0.0474  0.0577 -0.0736
    1W        W37065   4.800  22.076   8.684  0.0655  0.3625 -0.3620
    1W        W37066  15.438  10.886   1.349  0.2728 -0.3085 -0.1374
    1W        W37067  18.429   2.956   7.722 -0.3271  0.0746 -0.0283
    1W        W37068  16.599   8.686   2.612  0.1533  0.1395  0.6464
    1W        W37069  23.073  17.598   1.273  0.3550  0.0763  0.1477
    1W        W37070   8.230  23.588   6.620 -0.1311 -0.1944  0.0230
    1W        W37071  20.919  18.778   6.814  0.0788  0.1150  0.0146
    1W        W37072  18.466  25.882   2.988  0.0938  0.0831 -0.0716
    1W        W37073   8.056  18.174   1.610  0.0760  0.0256 -0.2153
    1W        W37074  24.881   3.496   0.286 -0.0579  0.2094  0.1644
    1W        W37075  25.600  20.500   0.247 -0.0066 -0.0313  0.1774
    1W        W37076   8.367  10.723   1.162  0.1148 -0.2107  0.2268
    1W        W37077  21.817  11.322   0.527 -0.2670  0.0008  0.1211
    1W        W37078  27.738  20.555   6.322 -0.0819  0.3101  0.2023
    1W        W37079  24.835  27.233   8.233 -0.1039 -0.1089  0.0149
    1W        W37080   6.385  23.912   2.130  0.0532  0.0365  0.2467
    1W        W37081  12.163   3.451   8.920 -0.3389 -0.1791 -0.2205
    1W        W37082  17.511  29.277   9.544  0.3553 -0.0884  0.0433
    1W        W37083  21.512  16.400   8.944  0.0802 -0.0508 -0.0386
    1W        W37084   3.627  28.897   0.948 -0.1934  0.0526 -0.1385
    1W        W37085   8.141   7.624   0.959  0.1159  0.1722  0.0113
    1W        W37086   9.379  29.722   3.756 -0.1429  0.0121  0.2305
    1W        W37087  13.821   9.486   1.670  0.0228 -0.0062  0.0232
    1W        W37088   5.716  23.259   7.827 -0.3332 -0.1178 -0.0444
    1W        W37089   6.041   3.964   1.021 -0.2914 -0.1055  0.3078
    1W        W37090   1.541  25.659   1.551  0.0822 -0.1159 -0.0361
    1W        W37091   9.101  18.948   0.459 -0.0425 -0.0184  0.2168
    1W        W37092  29.518   1.891   0.032 -0.1111  0.2868 -0.0489
    1W        W37093  15.276  11.896   0.298  0.1930 -0.1988 -0.1625
    1W        W37094   9.902   3.386   7.680  0.1080 -0.0885 -0.2074
    1W        W37095  27.438   6.744   6.909 -0.0579  0.1025  0.3288
    1W        W37096   5.921  11.965   8.067  0.3520  0.0121  0.2260
    1W        W37097  14.720  24.320   0.485  0.0770  0.1184 -0.1731
    1W        W37098  24.570   7.234   6.993  0.2015 -0.2595  0.1800
    1W        W37099   8.906   3.161   1.786 -0.0871  0.1442 -0.3353
    1W        W37100  23.498  20.156   8.722 -0.1611 -0.2584  0.1459
    1W        W37101  24.975  26.032   7.236  0.3280 -0.3127  0.3426
    1W        W37102  17.265  20.181   0.387 -0.0342 -0.1597 -0.1920
    1W        W37103  16.861  20.904   0.421  0.1128 -0.3112  0.4010
    1W        W37104  28.061  14.373   8.932  0.2364 -0.0065  0.0705
    1W        W37105  14.462  20.013   1.707 -0.0861 -0.2207 -0.0805
    1W        W37106  26.036  11.558   1.298 -0.0391 -0.3065 -0.2106
    1W        W37107  19.199  10.033   8.997  0.1779 -0.2443  0.1153
    1W        W37108  27.883  23.091   7.068  0.1496 -0.0364 -0.0599
    1W        W37109  22.907   9.746   8.253  0.1067  0.2483  0.0592
    1W        W37110  27.057  20.296   5.792  0.1902  0.0749  0.1870
    1W        W37111  25.089   9.824   2.117 -0.0497 -0.1457  0.2362
    1W        W37112  10.681  21.660   1.941 -0.0014  0.1608 -0.1415
    1W        W37113  23.691   8.036   8.710 -0.2685  0.0988 -0.3351
    1W        W37114  21.797   0.010   8.428  0.0684  0.1695 -0.0155
    1W        W37115  18.109  18.890   0.997 -0.0947 -0.0859 -0.2236
    1W        W37116  26.334  16.624   9.071  0.1183 -0.1257 -0.3041
    1W        W37117  20.977   8.002   7.396  0.1570 -0.1897  0.2043
    1W        W37118  18.472  18.733   6.187  0.3737  0.2513 -0.2751
    1W        W37119  18.495  29.459   3.871 -0.1886  0.1755  0.0394
    1W        W37120  14.206  18.722   7.169 -0.0240 -0.2171  0.2458
    1W        W37121  28.493  16.941   8.211  0.0148 -0.5319 -0.1005
    1W        W37122  20.896  10.392   7.557  0.1761 -0.1245 -0.1442
    1W        W37123   3.170  17.757   7.072  0.1693  0.0241  0.1877
    1W        W37124  27.211  16.880   9.094  0.3103  0.1916 -0.0285
    1W        W37125   4.913  24.256   2.904 -0.0629  0.0123  0.0301
    1W        W37126  13.222  17.959   0.439 -0.0695 -0.0945 -0.1276
    1W        W37127   1.185   2.063   1.115 -0.1954  0.0630  0.0015
    1W        W37128   2.347   9.607   1.094 -0.1234  0.0563 -0.1592
    1W        W37129  28.409  13.988   1.054 -0.2709  0.0296 -0.1792
    1W        W37130  13.353  12.663   9.256 -0.2311  0.0255 -0.0130
    1W        W37131  20.130  22.235   9.271  0.0725  0.1626 -0.0001
    1W        W37132  13.404   6.161   2.614  0.0993  0.1375  0.3236
    1W        W37133  20.263   8.784   1.994 -0.3152 -0.0021 -0.0266
    1W        W37134   3.953  19.344   9.307 -0.2016 -0.1202 -0.1201
    1W        W37135   0.959   9.104   8.566  0.0018  0.2383  0.2399
    1W        W37136   6.041   0.349   1.439  0.1249 -0.1207  0.3415
    1W        W37137  20.502   8.625   1.548 -0.1505  0.0014  0.2545
    1W        W37138  24.984  21.290   6.054 -0.1523 -0.1485 -0.0086
    1W        W37139   0.062  12.521   8.519 -0.1870  0.1666  0.0475
    1W        W37140  29.594   6.597   2.822 -0.0181  0.0362 -0.0068
    1W        W37141  14.785  11.901   7.410  0.1176  0.2267  0.1560
    1W        W37142   0.685   9.014   7.808 -0.1605 -0.0471  0.0308
    1W        W37143  13.974  10.925   9.034 -0.0103  0.1624  0.4215
    1W        W37144  22.891  11.914   1.119 -0.2067 -0.2669 -0.0288
    1W        W37145  15.574  25.453   0.562  0.2543 -0.1882 -0.2480
    1W        W37146  21.770  29.220   0.612  0.0225  0.1410 -0.1092
    1W        W37147  24.117  28.256   7.327 -0.0566  0.0783  0.3534
    1W        W37148   8.863   1.654   3.064 -0.2622 -0.0179 -0.0499
    1W        W37149  11.805  10.094   0.250  0.0553  0.3979 -0.1789
    1W        W37150   7.476  20.460   8.058 -0.1903  0.0843 -0.0474
    1W        W37151   3.604   0.018   1.024  0.0816 -0.1920  0.2293
    1W        W37152  11.603  21.747   9.534 -0.0548  0.0210 -0.1185
    1W        W37153  23.429   5.476   8.779  0.0483  0.0688 -0.2578
    1W        W37154   9.645   8.181   0.837 -0.1632  0.1332 -0.0824
    1W        W37155  23.771   4.997   9.033  0.0421 -0.0283  0.1441
    1W        W37156  14.387  29.403   9.169  0.0007 -0.1433  0.1063
    1W        W37157  28.291   3.322   7.003 -0.1530  0.1686  0.0914
    1W        W37158  10.307  13.179   8.056 -0.2119 -0.1598 -0.1314
    1W        W37159   9.595  27.836   7.607 -0.1119  0.0137  0.5454
    1W        W37160  28.242  17.947   8.551  0.1128 -0.2939 -0.0487
    1W        W37161  21.834   5.421   8.948  0.1404  0.0427  0.2286
    1W        W37162  17.958  27.098   8.702  0.1167 -0.3351  0.1738
    1W        W37163  19.446  11.871   8.599  0.0783  0.0877 -0.0571
    1W        W37164  15.339  27.584   7.285  0.0759 -0.0316 -0.1345
    1W        W37165  12.649  26.570   8.281  0.5658  0.0604 -0.2434
    1W        W37166  15.180   0.221   1.461  0.3329  0.1319  0.1928
    1W        W37167  12.484  17.942   0.702  0.3055  0.1395 -0.3673
    1W        W37168  17.349  28.111   1.794 -0.3571 -0.3873  0.2815
    1W        W37169   0.823   4.348   2.644 -0.2490 -0.4544  0.0483
    1W        W37170   0.823   5.469   2.738  0.0709 -0.0886 -0.0405
    1W        W37171  11.840   5.261   3.511 -0.1523 -0.0853  0.0111
    1W        W37172   4.459  28.763   2.962 -0.1904  0.1076  0.0214
    1W        W37173   7.032  14.672   8.070  0.3374  0.1267 -0.0236
    1W        W37174  25.181  29.331   8.609  0.1945 -0.0509  0.0301
    1W        W37175   1.485   3.098   7.455 -0.1489 -0.0199 -0.0946
    1W        W37176  12.941  25.666   2.238  0.0731 -0.1198 -0.0875
    1W        W37177  14.116   5.486   0.084 -0.3159 -0.0742  0.0435
    1W        W37178  23.872  22.839   1.896 -0.0116 -0.1392  0.3472
    1W        W37179   5.757  11.652   8.513 -0.2260 -0.3074  0.0831
    1W        W37180  12.669  25.773   0.506  0.1881 -0.1865 -0.1550
    1W        W37181   7.028  22.641   7.730  0.2146  0.2582 -0.0970
    1W        W37182  17.864  27.302   7.808 -0.0747  0.4287 -0.1100
    1W        W37183  23.353  15.301   6.245 -0.0929 -0.0326 -0.4403
    1W        W37184  12.165  27.780   3.501  0.3176  0.0615  0.0557
    1W        W37185  19.992   9.649   8.037  0.1752  0.4888 -0.0596
    1W        W37186  21.540  19.571   6.782 -0.0482 -0.2541  0.1116
    1W        W37187  13.220  29.536   1.459  0.0145  0.0604  0.1011
    1W        W37188   4.944   6.727   0.542 -0.1282  0.0346  0.2088
    1W        W37189   3.588  29.638   6.344  0.0046  0.3974  0.2592
    1W        W37190  14.207   9.126   0.845 -0.0284  0.1674 -0.0515
    1W        W37191  17.377  28.153   8.403 -0.4072  0.2736  0.0060
    1W        W37192  16.671   5.258   9.466  0.1026  0.0750  0.1913
    1W        W37193  10.111  10.665   1.645 -0.0391  0.0189  0.1596
    1W        W37194  27.138  29.144   0.030  0.0594  0.4049  0.1224
    1W        W37195   8.154  26.859   7.702 -0.2139  0.1116  0.0024
    1W        W37196  20.809   5.183   9.181 -0.1271 -0.2585 -0.0530
    1W        W37197  23.093   8.068   7.940 -0.0217 -0.2540 -0.0572
    1W        W37198   9.315  19.801   2.182 -0.0185  0.2154 -0.1060
    1W        W37199  25.207   1.611   2.153 -0.0233  0.2064 -0.0364
    1W        W37200  11.187  20.568   6.792 -0.0611  0.2844  0.0693
    1W        W37201  17.119  15.475   7.786  0.0760 -0.1473  0.1180
    1W        W37202  17.395   7.521   3.549 -0.1150  0.0108  0.1765
    1W        W37203  19.004  14.588   8.101 -0.2445  0.2825  0.0388
    1W        W37204  15.881   4.871   0.988  0.0259 -0.3167 -0.1879
    1W        W37205  20.593  16.644   1.836 -0.1579  0.0749  0.1574
    1W        W37206  25.399   3.104   7.769  0.1331  0.0074  0.1909
    1W        W37207  27.402  12.063   1.033 -0.1457  0.4174 -0.0722
    1W        W37208  10.657   4.094   3.263 -0.2031  0.0141  0.0712
    1W        W37209   6.976   5.272   8.452 -0.1314  0.0241  0.0073
    1W        W37210  24.548  26.650   1.632  0.0432  0.2452  0.0819
    1W        W37211  20.007   2.322   2.087 -0.4382  0.0985  0.1164
    1W        W37212  13.573  14.506   1.763 -0.0265  0.1045 -0.1250
    1W        W37213  12.705  19.174   7.467 -0.0892 -0.0036 -0.1262
    1W        W37214  14.040  12.379   7.853  0.1648  0.0872  0.2825
    1W        W37215  18.169  13.537   1.300 -0.0700 -0.1148 -0.2163
    1W        W37216  20.767  24.922   9.377 -0.1594  0.1551  0.2519
    1W        W37217  19.729  10.259   7.568  0.2135  0.0155 -0.0978
    1W        W37218   0.418  10.730   0.376  0.0997 -0.3654  0.1181
    1W        W37219   3.991  29.277   7.694  0.2323  0.1511 -0.2408
    1W        W37220  26.960   7.434   8.157 -0.1307 -0.1848 -0.2658
    1W        W37221   3.338   3.844   1.036 -0.1736 -0.0018 -0.0331
    1W        W37222   2.336  18.985   8.725 -0.0786 -0.1301 -0.0762
    1W        W37223  25.078  26.429   9.283 -0.1492 -0.1172  0.1450
    1W        W37224  29.756  15.497   1.509 -0.1118  0.0992 -0.2765
    1W        W37225  11.656  28.713   0.370 -0.2143  0.3359 -0.2289
    1W        W37226   4.791  10.033   8.299 -0.0459 -0.0882  0.3334
    1W        W37227  19.552  28.072   1.537 -0.1884  0.1502 -0.0961
    1W        W37228  13.567   6.588   7.133  0.3593  0.0163  0.0409
    1W        W37229  17.011  28.361   0.040  0.0890 -0.1206 -0.1553
    1W        W37230   2.657   4.169   3.264  0.0929  0.0367 -0.5804
    1W        W37231   9.864  13.538   2.288 -0.1326  0.0819 -0.1478
    1W        W37232  22.871  18.658   8.797  0.2045  0.0616  0.3659
    1W        W37233   4.555  28.869   8.928  0.4617  0.0626 -0.0240
    1W        W37234  24.071   1.012   9.310  0.1745 -0.1251  0.0424
    1W        W37235   7.990   5.913   2.815 -0.2192  0.0328  0.0724
    1W        W37236  15.073   7.118   9.504  0.1758 -0.1734 -0.1044
    1W        W37237  14.269  19.222   8.715  0.0566  0.0722 -0.1910
    1W        W37238  19.685   2.546   2.365 -0.0249  0.2632 -0.1167
    1W        W37239   2.998   1.885   8.695 -0.0819 -0.0841 -0.0144
    1W        W37240   3.415   7.985   6.709  0.0420  0.0630  0.1828
    1W        W37241  21.308  11.887   5.726  0.0264 -0.1887 -0.0042
    1W        W37242   6.839  14.875   9.534 -0.2276  0.1671  0.0756
    1W        W37243   0.189  28.180   6.762  0.1347 -0.4814 -0.1200
    1W        W37244  25.311  29.397   0.741 -0.1178  0.2469 -0.2099
    1W        W37245   2.864  12.565   8.810  0.0681 -0.2388 -0.1432
    1W        W37246  25.683  22.115   6.064  0.4340  0.0057  0.1963
    1W        W37247  13.805   8.280   0.275 -0.0032  0.3192  0.1964
    1W        W37248  13.023  25.559   0.197 -0.3571  0.1008 -0.1037
    1W        W37249   6.339  18.666   1.005 -0.1289  0.1584  0.3701
    1W        W37250  29.663  16.323   1.402  0.0217 -0.0292 -0.1093
    1W        W37251   7.997  24.334   8.607 -0.1524 -0.2024 -0.1052
    1W        W37252  25.778  11.931   8.278 -0.2444 -0.2060 -0.1403
    1W        W37253  21.570   8.220   9.028  0.3469  0.3803  0.2021
    1W        W37254  15.315  24.956   7.856 -0.1439  0.1649  0.0460
    1W        W37255  28.819   6.485   7.629  0.0485  0.1552 -0.1659
    1W        W37256  29.151   7.246   1.493 -0.3047 -0.0562  0.0938
    1W        W37257  16.573  13.047   6.589 -0.0431 -0.2533 -0.1333
    1W        W37258  10.304   6.599   0.250 -0.2819  0.4360 -0.1251
    1W        W37259  25.624   0.339   1.581 -0.0413  0.0281  0.1401
    1W        W37260   4.308  24.849   3.413 -0.0957  0.1897  0.1188
    1W        W37261   1.509   8.311   0.710  0.2643  0.1544  0.1189
    1W        W37262  12.142   9.269   7.031  0.3376  0.2275  0.1735
    1W        W37263   6.502  22.041   1.971  0.0377  0.1121  0.0117
    1W        W37264   8.345  25.435   0.502  0.1405  0.0910 -0.1036
    1W        W37265  20.333   0.091   3.230  0.3792 -0.1273 -0.3107
    1W        W37266  18.791   7.025   7.640 -0.2403 -0.0502  0.0849
    1W        W37267   2.350  26.483   9.378 -0.2020  0.2171 -0.3228
    1W        W37268  23.310   0.411   0.744  0.0810  0.1987  0.2389
    1W        W37269  18.220  27.803   7.453 -0.1371 -0.0186 -0.1702
    1W        W37270  27.062   8.944   1.658 -0.0129 -0.0410 -0.1021
    1W        W37271  26.973  15.683   0.164  0.1547  0.1192  0.1130
    1W        W37272   5.495  17.193   2.467  0.1971  0.2063 -0.2066
    1W        W37273   9.390   6.970   0.830  0.1467 -0.0627  0.2275
    1W        W37274  11.764  25.549   1.359 -0.4895  0.2039 -0.0820
    1W        W37275   7.464   6.941   8.417  0.2286  0.0485  0.2874
    1W        W37276   5.570  14.300   0.225  0.4666  0.0198 -0.1836
    1W        W37277  17.943   6.814   8.216 -0.4224  0.0104  0.2512
    1W        W37278   8.497  28.105   1.968 -0.1130 -0.0521 -0.0783
    1W        W37279   7.330  25.841   8.442  0.1923 -0.3337 -0.1291
    1W        W37280   7.160  28.685   8.585  0.1263  0.0917  0.1287
    1W        W37281  27.808   2.716   0.689  0.2334 -0.2329 -0.1266
    1W        W37282   5.531   7.778   7.464  0.1270 -0.2159 -0.0264
    1W        W37283  12.946  27.230   1.602 -0.1835 -0.1352 -0.2571
    1W        W37284  29.774  12.783   2.025 -0.0274  0.1529  0.4287
    1W        W37285  19.317  14.393   9.155  0.1300  0.0400  0.1484
    1W        W37286  12.371  22.864   8.723  0.1876 -0.1318  0.0608
    1W        W37287  26.584   4.031   2.400 -0.2599 -0.1529  0.0521
    1W        W37288   1.837   0.979   0.152  0.1320 -0.2201 -0.0759
    1W        W37289  26.338  19.886   9.423 -0.1087 -0.2329  0.3266
    1W        W37290   2.950  16.548   7.404  0.0142 -0.0216  0.1497
    1W        W37291  23.028  23.704   0.528  0.1312 -0.0857 -0.1278
    1W        W37292  14.172  22.218   7.500  0.4411 -0.0024  0.0126
    1W        W37293  15.139  15.896   0.976  0.2075  0.0230  0.3033
    1W        W37294   4.930  15.834   7.314 -0.1726 -0.1045  0.2080
    1W        W37295  15.439   2.741   8.059  0.0503  0.3180 -0.3343
    1W        W37296  14.037  19.796   1.572 -0.3432  0.0746 -0.2820
    1W        W37297   8.014  20.286   0.931 -0.1015  0.2916  0.2415
    1W        W37298  19.262  18.128   0.808  0.1408  0.0905 -0.2829
    1W        W37299   4.232  19.154   8.539  0.1536  0.0085  0.0115
    1W        W37300  21.726  14.097   6.473  0.3089 -0.0528 -0.0569
    1W        W37301  24.999  20.664   6.752 -0.0986  0.1035 -0.0214
    1W        W37302   4.885   0.783   8.312  0.1009  0.0816 -0.1607
    1W        W37303  14.273   6.620   1.950 -0.0569 -0.1238 -0.1698
    1W        W37304   4.833   4.936   2.486  0.2861  0.2206  0.1781
    1W        W37305  24.464  19.298   9.107 -0.1067  0.0388 -0.1448
    1W        W37306  16.989  12.599   2.285  0.0488  0.2124 -0.0362
    1W        W37307   0.098  23.273   8.155 -0.0531  0.0786  0.0753
    1W        W37308  11.368  13.734   8.959  0.1430 -0.2590 -0.0528
    1W        W37309  22.965  29.148   7.228 -0.4029 -0.1326  0.1206
    1W        W37310  23.536   7.579   1.425 -0.0774 -0.4793  0.0732
    1W        W37311  29.116  14.249   8.134 -0.2438  0.1643 -0.1260
    1W        W37312  25.574   9.596   1.325  0.0082 -0.2976 -0.0655
    1W        W37313  24.298  17.998   5.943 -0.2446 -0.0456 -0.1686
    1W        W37314  15.662  19.381   1.729  0.4347  0.4291 -0.1146
    1W        W37315  17.314  26.139   0.990  0.3238  0.2848 -0.0289
    1W        W37316  24.075  16.578   0.959  0.1318 -0.2197  0.1731
    1W        W37317  12.504   7.076   0.784  0.3008  0.2506 -0.0830
    1W        W37318   4.006  19.878   1.502 -0.2114  0.1358 -0.1308
    1W        W37319  25.029  23.575   6.932  0.0742 -0.1227 -0.3230
    1W        W37320  20.951   9.644   8.966  0.0857 -0.4955 -0.0298
    1W        W37321  18.593  20.085   7.324 -0.0622 -0.1789 -0.0712
    1W        W37322  10.126  15.211   9.386  0.0239 -0.3610 -0.3458
    1W        W37323  19.679  20.402   2.121  0.3219 -0.3562 -0.0392
    1W        W37324   2.269  18.163   0.676  0.0716 -0.0020 -0.4558
    1W        W37325  28.735   4.546   8.415 -0.0093 -0.1421  0.1595
    1W        W37326  23.852   9.307   0.738 -0.1356 -0.2769  0.3580
    1W        W37327  10.665   9.463   8.422  0.2074  0.2830 -0.0493
    1W        W37328  17.461  28.644   1.636 -0.0334 -0.0685  0.0988
    1W        W37329  13.139  23.594   0.324  0.2082 -0.0817 -0.5068
    1W        W37330  19.037  13.543   9.500 -0.0055  0.0268 -0.1342
    1W        W37331  25.879  16.901   6.136  0.2814  0.2294 -0.1511
    1W        W37332  22.441  28.640   7.995  0.4109  0.1478  0.1605
    1W        W37333   7.694  10.580   1.707 -0.2868 -0.0716 -0.0659
    1W        W37334   5.453   0.835   9.170  0.4377  0.0904  0.1314
    1W        W37335  14.567  12.480   2.736 -0.2914  0.0265  0.3256
    1W        W37336   0.666  21.103   8.779  0.0194 -0.0420  0.0278
    1W        W37337  28.948  11.584   7.953 -0.1550  0.1028  0.0839
    1W        W37338  19.460  17.367   1.294 -0.3280  0.1143  0.0874
    1W        W37339  14.788  21.929   3.417  0.0932  0.0235 -0.3116
    1W        W37340  29.531  27.191   7.424 -0.2623  0.0349 -0.1207
    1W        W37341  21.683   5.911   0.813 -0.0179 -0.0109  0.3043
    1W        W37342   2.384   3.013   1.864 -0.0548 -0.2596  0.2393
    1W        W37343  17.137   4.959   9.258 -0.2116  0.1774  0.1524
    1W        W37344  22.438  19.146   0.464 -0.1392 -0.2183  0.2287
    1W        W37345   2.420   5.687   7.799 -0.1863  0.0188  0.1094
    1W        W37346  25.205   4.677   9.313  0.1446 -0.0731  0.0278
    1W        W37347   1.904   9.633   0.252 -0.0283  0.1107 -0.0365
    1W        W37348   3.606  15.909   0.909  0.2146 -0.1912 -0.0259
    1W        W37349  14.210   6.955   1.593 -0.0405  0.0172  0.0187
    1W        W37350  22.257  15.904   9.088  0.0051  0.1316  0.0676
    1W        W37351  10.940   3.290   9.154 -0.1273  0.0392  0.1116
    1W        W37352  12.977  25.169   8.332 -0.1449 -0.1261  0.0171
    1W        W37353  15.324  13.733   7.903  0.0834  0.3068  0.3200
    1W        W37354  28.281  27.161   1.676  0.1571  0.0205 -0.0449
    1W        W37355  12.682   8.354   1.297 -0.1397 -0.3321 -0.0330
    1W        W37356   8.324  16.278   8.976  0.0401 -0.2207  0.2140
    1W        W37357  13.877  24.004   6.522 -0.1570  0.1720 -0.2017
    1W        W37358  25.354  20.962   0.289  0.1933 -0.0501 -0.2715
    1W        W37359  16.270  29.204   1.655  0.0676  0.0119  0.2307
    1W        W37360  16.881   8.981   6.521 -0.1030  0.0156  0.1039
    1W        W37361  13.982   0.323   6.800 -0.0880 -0.0762 -0.2732
    1W        W37362   0.349   1.970   7.631  0.2594  0.0098 -0.2130
    1W        W37363  28.923  12.385   0.580 -0.2878 -0.0004  0.0133
    1W        W37364  29.490  18.523   7.719  0.3689 -0.0662 -0.1885
    1W        W37365  17.570  20.404   0.852 -0.3804 -0.0537 -0.2925
    1W        W37366  15.559  12.756   1.799 -0.4657  0.1348  0.1468
    1W        W37367   2.299  17.363   6.881  0.2091 -0.1204 -0.0704
    1W        W37368  24.214  14.421   0.666  0.0275  0.3320  0.4820
    1W        W37369   9.110   5.874   8.513  0.3549  0.1142 -0.0485
    1W        W37370  20.675  11.050   1.304 -0.1277  0.0457 -0.2466
    1W        W37371   9.934  19.611   9.118  0.0603  0.1659  0.3136
    1W        W37372  13.209  11.846   0.154 -0.0159 -0.0468 -0.0698
    1W        W37373   1.429  26.037   7.190 -0.1206 -0.2544 -0.2210
    1W        W37374  16.261  25.746   6.623  0.0262 -0.1067 -0.2848
    1W        W37375  26.915   2.668   0.151  0.1033 -0.1543 -0.2452
    1W        W37376  17.510  24.394   9.359  0.0741 -0.2199 -0.0026
    1W        W37377   5.296  13.240   7.857  0.1339  0.0107 -0.0075
    1W        W37378  24.757  15.156   0.300  0.4061 -0.2241  0.0498
    1W        W37379  23.754   5.187   1.216 -0.3537  0.2132  0.2647
    1W        W37380   7.565  23.993   8.581  0.0545  0.1141 -0.0368
    1W        W37381  29.715  15.333   8.990  0.2747  0.1196 -0.0978
    1W        W37382   5.694  23.942   2.764  0.1494 -0.1237 -0.1291
    1W        W37383  21.387   0.951   6.884 -0.1835  0.0099 -0.3058
    1W        W37384   2.537   8.679   1.403 -0.2931 -0.1262 -0.0222
    1W        W37385  22.568   5.736   9.326  0.0207 -0.0005 -0.0130
    1W        W37386  24.808  28.780   2.603  0.2187 -0.1341 -0.3504
    1W        W37387  22.091  22.159   7.584  0.1929 -0.1103 -0.0618
    1W        W37388   1.040  12.434   1.180  0.0103 -0.0268 -0.2939
    1W        W37389   5.659  20.406   7.814 -0.0445 -0.3969 -0.0667
    1W        W37390  12.826  24.122   1.672  0.1097 -0.3736  0.0593
    1W        W37391   6.305  23.887   7.223  0.0745 -0.3747  0.0980
    1W        W37392   4.151   3.399   2.120  0.5043 -0.1400 -0.1457
    1W        W37393  17.860  22.087   7.983 -0.0041  0.2574 -0.2833
    1W        W37394   5.421   0.944   1.219  0.0965  0.2516 -0.0729
    1W        W37395  24.040  17.557   6.212  0.0628 -0.1838  0.2510
    1W        W37396   4.032   1.105   8.272  0.2528 -0.1906 -0.2079
    1W        W37397  21.552  16.888   1.509  0.0994 -0.0222  0.1571
    1W        W37398  18.381  23.541   3.087  0.0359 -0.1214 -0.0933
    1W        W37399  16.580   2.925   2.862  0.2631  0.1384  0.2537
    1W        W37400   0.995  21.492   8.645  0.0183  0.1142 -0.1488
    1W        W37401  26.389  24.838   2.105  0.3923  0.1845 -0.0826
    1W        W37402  15.086  12.176   1.168  0.0468 -0.1875  0.1047
    1W        W37403  15.974   7.417   0.309  0.1305 -0.0946  0.0910
    1W        W37404  28.567   7.890   7.253  0.0824 -0.0490  0.1515
    1W        W37405  12.055   2.761   8.189  0.1545 -0.0359 -0.1454
    1W        W37406  11.018  28.119   0.939 -0.0734 -0.0385  0.0193
    1W        W37407  13.473   5.902   2.979  0.1218 -0.0225 -0.2875
    1W        W37408   6.689  11.842   8.467 -0.1625 -0.0800 -0.4212
    1W        W37409  11.867   3.593   6.714  0.1446 -0.2875 -0.0397
    1W        W37410   3.271  20.038   8.583 -0.0220  0.2368 -0.3227
    1W        W37411  21.163  12.325   6.800  0.0303  0.1977  0.0303
    1W        W37412  20.809   4.127   1.731  0.1826  0.0554  0.2276
    1W        W37413  19.074  29.588   8.830 -0.1250 -0.2618  0.2333
    1W        W37414  18.585   1.395   8.803  0.1958 -0.1565  0.0052
    1W        W37415  21.008   7.622   0.094  0.0274 -0.1720  0.1533
    1W        W37416  17.941  22.813   0.623  0.0107 -0.2402 -0.2888
    1W        W37417  12.051  10.247   1.420 -0.0453 -0.1979  0.0056
    1W        W37418   9.372  27.625   9.328  0.3538 -0.1149  0.0846
    1W        W37419   9.668  22.964   1.141 -0.0004 -0.0359  0.1483
    1W        W37420  14.396  19.074   9.257  0.1004  0.0908  0.0281
    1W        W37421   9.879   6.431   0.641  0.1951 -0.1388 -0.4250
    1W        W37422   2.266  18.809   9.371  0.0205  0.1594  0.1675
    1W        W37423  10.805  16.737   7.556 -0.0921  0.1371  0.0548
    1W        W37424  26.018  18.005   6.126  0.1443 -0.0066 -0.2977
    1W        W37425  25.693   0.912   8.645  0.1422 -0.0584  0.2483
    1W        W37426   2.112   8.625   1.660  0.3834  0.0207  0.2560
    1W        W37427  18.437  22.850   0.854  0.1728  0.3512  0.1504
    1W        W37428  12.797  16.664   7.023 -0.0563  0.0846 -0.2716
    1W        W37429   9.008   2.296   1.474 -0.0953 -0.0209  0.1034
    1W        W37430   8.976  19.331   2.187  0.0763 -0.2968  0.0462
    1W        W37431  14.017   5.491   1.254 -0.1733  0.0952  0.0607
    1W        W37432   3.468   8.859   0.977 -0.0792  0.0428 -0.1811
    1W        W37433  25.011   6.756   7.482  0.0745 -0.1552 -0.0044
    1W        W37434  23.800   2.279   0.848  0.1719 -0.1353 -0.2695
    1W        W37435  19.801   3.936   1.633 -0.0670  0.1051 -0.0738
    1W        W37436  10.236  29.585   0.418 -0.1455  0.1646 -0.0778
    1W        W37437  23.148  19.230   6.881  0.0223 -0.0882 -0.2920
    1W        W37438  21.884  16.174   6.544  0.4051 -0.0884 -0.0450
    1W        W37439  21.935  23.513   6.852  0.1217  0.0388 -0.0695
    1W        W37440  11.036  24.849   1.736  0.3065  0.0370  0.0153
    1W        W37441   8.053  22.923   7.280 -0.2030 -0.0525  0.0228
    1W        W37442  17.488  21.904   7.121  0.1381  0.0221 -0.1239
    1W        W37443  21.644  23.537   8.516  0.0263 -0.1919  0.1077
    1W        W37444  21.100  24.341   8.678  0.1804 -0.0662  0.0452
    1W        W37445  11.813  21.381   6.366  0.3199 -0.1553 -0.0367
    1W        W37446  16.909   2.003   1.591  0.0857 -0.0339 -0.2211
    1W        W37447  21.330  24.327   0.105  0.2311  0.2227  0.3422
    1W        W37448   9.535   6.078   0.227  0.0215  0.0781 -0.1458
    1W        W37449  14.059  25.292   7.436  0.1522 -0.1155  0.1034
    1W        W37450  28.696  23.094   8.666 -0.2195 -0.0910 -0.1883
    1W        W37451   0.187  22.742   0.246  0.0367  0.1566 -0.1753
    1W        W37452   3.043   9.756   2.240 -0.0033  0.1111  0.0976
    1W        W37453  14.192  12.135   2.625  0.4069 -0.1762  0.2155
    1W        W37454   6.281   0.855   0.756 -0.5201  0.0717  0.3083
    1W        W37455   0.799   1.729   7.589 -0.1382  0.1438 -0.1711
    1W        W37456   9.074  10.096   1.495 -0.0090  0.1666  0.0008
    1W        W37457  27.377  10.135   8.133 -0.2168 -0.1813 -0.3660
    1W        W37458  20.546  21.027   0.969 -0.0275  0.0057  0.2724
    1W        W37459  12.500  26.128   6.529  0.1339  0.0928  0.0970
    1W        W37460   9.696  28.106   2.031  0.0761  0.1825  0.0645
    1W        W37461  14.180  15.037   8.868 -0.2210 -0.0950  0.1086
    1W        W37462  12.963   9.021   1.732  0.0816 -0.3004  0.0529
    1W        W37463  11.507  13.671   1.872  0.0003 -0.0984 -0.3059
    1W        W37464  21.795  24.552   0.597  0.3014 -0.0944 -0.1197
    1W        W37465  19.740  15.279   9.143 -0.0440 -0.2021 -0.3008
    1W        W37466  17.486   0.729   1.535  0.0277  0.0311  0.2458
    1W        W37467  17.612   8.548   8.416  0.0438  0.2712 -0.1758
    1W        W37468  25.679  10.551   1.266 -0.1267 -0.0155 -0.2928
    1W        W37469   9.519  26.698   0.001  0.0575  0.2162  0.0298
    1W        W37470   3.359   4.917   9.022  0.1926  0.0184  0.2519
    1W        W37471  20.154  14.476   0.524 -0.1334 -0.3180 -0.0237
    1W        W37472  12.998  13.602   7.418 -0.1503  0.0817 -0.0437
    1W        W37473   8.075  25.967   8.974  0.0651 -0.2508  0.3721
    1W        W37474   3.887  22.050   7.759 -0.0109  0.2631  0.0524
    1W        W37475   6.686   6.052   7.375  0.1013  0.0153 -0.2282
    1W        W37476  28.042  17.083   0.163  0.0973 -0.2138  0.4902
    1W        W37477   3.061  17.359   9.216  0.1149 -0.1151  0.1652
    1W        W37478   2.691  27.004   9.459  0.2439  0.1730 -0.0560
    1W        W37479   3.219  10.454   7.494  0.2626 -0.1222 -0.0619
    1W        W37480  14.851   2.699   1.144  0.1035  0.2570  0.1137
    1W        W37481  16.239  15.698   6.861 -0.3060  0.2097 -0.0106
    1W        W37482  17.003  21.132   7.465  0.0173 -0.2613 -0.3494
    1W        W37483  18.954   9.588   1.899  0.1654  0.4008  0.0703
    1W        W37484   0.479   1.731   9.176  0.1385  0.1669  0.1717
    1W        W37485   6.379   7.800   1.259 -0.2375 -0.1258 -0.3911
    1W        W37486  21.390   5.723   8.662 -0.2792  0.0277  0.1196
    1W        W37487   1.728  23.352   8.324  0.3996  0.2972 -0.4320
    1W        W37488  15.078  12.418   7.994  0.0736  0.2844 -0.2276
    1W        W37489   8.556   9.677   7.610  0.0617  0.0317 -0.0520
    1W        W37490   6.547  24.447   1.073 -0.2026 -0.0827 -0.0085
    1W        W37491  16.008  11.454   0.867  0.2596  0.2797 -0.1251
    1W        W37492  26.425  13.734   8.359 -0.1042  0.0898  0.2379
    1W        W37493  25.643  28.062   7.470  0.1533  0.1241  0.0616
    1W        W37494   4.405   5.154   2.193  0.3727  0.2201  0.2352
    1W        W37495   1.727  21.826   0.055 -0.1770  0.0077  0.2330
    1W        W37496  19.948   7.344   6.609 -0.0886  0.0717 -0.2707
    1W        W37497  24.202   8.006   0.910  0.0261  0.0068 -0.0016
    1W        W37498  10.877   2.558   7.613  0.2614  0.1311 -0.2978
    1W        W37499   4.722  26.990   7.753 -0.3230 -0.2671 -0.3625
    1W        W37500  23.040   0.124   2.437  0.1994 -0.0917  0.3378
    1W        W37501  10.342   5.273   1.124 -0.0498 -0.1425  0.0776
    1W        W37502  13.288   0.228   0.586 -0.1806 -0.0300  0.1863
    1W        W37503  25.552  12.177   6.054  0.0252  0.1150 -0.1367
    1W        W37504  25.449  11.465   7.662 -0.0309 -0.1883 -0.5039
    1W        W37505  13.727   1.413   0.308 -0.0699 -0.0620 -0.1363
    1W        W37506   5.835   9.609   9.178  0.1395 -0.1039 -0.2381
    1W        W37507   4.682   1.585   2.829  0.0318 -0.1520 -0.2844
    1W        W37508  10.043  25.401   9.445 -0.0711 -0.2975  0.1790
    1W        W37509  26.336   8.015   7.939  0.0527 -0.1128  0.2299
    1W        W37510   7.435   1.526   1.212  0.0792  0.1538  0.2880
    1W        W37511   5.278   6.738   0.972  0.0937 -0.0912 -0.1128
    1W        W37512  14.411  10.627   8.051 -0.1711  0.1123 -0.1049
    1W        W37513   3.696  27.311   0.702 -0.1435  0.1580  0.1108
    1W        W37514   8.251  16.584   8.074 -0.3277  0.0277  0.0636
    1W        W37515  15.501  11.920   1.328  0.1923 -0.0567  0.2484
    1W        W37516   3.629   2.175   9.341 -0.1207  0.0154  0.5496
    1W        W37517  27.773   1.328   1.292  0.0695 -0.0855  0.1669
    1W        W37518  17.527  24.897   0.533  0.0871 -0.2616  0.3260
    1W        W37519   0.706   1.200   6.646  0.0944 -0.0021 -0.2585
    1W        W37520  15.943  11.480   9.157 -0.2417  0.0174  0.0009
    1W        W37521  15.788  22.824   7.664 -0.0130 -0.0861  0.2258
    1W        W37522  22.411  10.402   6.905 -0.1581  0.5074 -0.2346
    1W        W37523  25.994  14.851   0.281  0.2626  0.0379 -0.3427
    1W        W37524   1.064   7.513   2.179 -0.2100  0.2639  0.0504
    1W        W37525  24.878  13.414   0.149  0.2424 -0.1112  0.0798
    1W        W37526   6.227  28.248   6.723  0.1722 -0.0582  0.1111
    1W        W37527  18.800   7.605   7.803 -0.0256 -0.1382  0.0875
    1W        W37528  24.334  15.933   5.431 -0.0763 -0.0530 -0.3391
    1W        W37529   1.042   3.090   8.713  0.0482  0.2796  0.2233
    1W        W37530  28.237   5.936   0.883 -0.0577  0.1469  0.2945
    1W        W37531  26.623   1.770   8.580  0.0037  0.2837  0.1582
    1W        W37532   0.834   2.524   1.110 -0.2328  0.3358 -0.1708
    1W        W37533   2.509   7.836   7.501  0.1572 -0.2821  0.0483
    1W        W37534  24.757   7.838   6.174  0.1226 -0.0184 -0.0341
    1W        W37535   2.707  28.284   7.830  0.2815 -0.1074 -0.2382
    1W        W37536  21.427   6.684   0.805  0.3281  0.0644 -0.0383
    1W        W37537   7.180  15.808   8.868 -0.1712  0.0354  0.2075
    1W        W37538   1.837   4.448   0.658 -0.2373 -0.0283  0.0397
    1W        W37539  10.787   2.684   1.844 -0.0760 -0.0053 -0.2619
    1W        W37540   5.126   7.554   7.588  0.4377 -0.2055  0.2704
    1W        W37541  29.673   5.166   8.660  0.1698  0.0563 -0.0239
    1W        W37542  20.468  14.387   0.998  0.1850  0.1806  0.1162
    1W        W37543  17.979   7.659   7.543 -0.1214 -0.1108  0.0339
    1W        W37544  15.895  27.775   1.799  0.4952 -0.1851 -0.2551
    1W        W37545   2.126  11.042   9.087  0.1086 -0.0991 -0.1934
    1W        W37546  18.082  25.361   8.617  0.1303 -0.3487  0.0574
    1W        W37547  24.609  10.932   9.415  0.0971 -0.1299 -0.3244
    1W        W37548  23.856  26.083   2.750  0.1067 -0.1482 -0.0309
    1W        W37549  12.309  25.788   6.145  0.1793 -0.1726  0.0104
    1W        W37550  23.099  20.237   6.874  0.3279 -0.0933 -0.0366
    1W        W37551  28.708   9.850   0.992 -0.1056  0.1201  0.2731
    1W        W37552   5.028  25.206   6.194 -0.2769  0.1378  0.0632
    1W        W37553  17.986  25.844   3.175 -0.0414 -0.0760 -0.2947
    1W        W37554  26.791  20.460   8.884  0.0883 -0.0318 -0.1368
    1W        W37555  16.348  28.138   1.515  0.2391 -0.2138  0.1514
    1W        W37556   4.157  27.072   0.781  0.2006  0.0710 -0.3235
    1W        W37557   9.806   9.603   2.076  0.3825  0.1718  0.0316
    1W        W37558   1.694  27.767   8.967  0.3422 -0.0377 -0.1808
    1W        W37559  23.418   7.749   2.194  0.1091  0.0482  0.3827
    1W        W37560  27.993  25.687   7.465 -0.1102 -0.1512  0.0445
    1W        W37561   7.770  15.078   8.379  0.2020 -0.3122  0.1348
    1W        W37562  11.086  27.559   1.312 -0.0737 -0.0190  0.0705
    1W        W37563  24.916   0.014   8.665  0.3095  0.0899  0.2792
    1W        W37564   0.748   6.426   7.723 -0.1386 -0.3803 -0.1458
    1W        W37565  16.607   8.586   3.310 -0.0420 -0.2195  0.2174
    1W        W37566  28.458   2.910   6.809  0.0519  0.2147 -0.3265
    1W        W37567  15.500  25.605   0.039  0.0688 -0.0117  0.1234
    1W        W37568  26.859  25.983   1.806 -0.1356  0.4773 -0.1668
    1W        W37569  24.700  15.637   5.588  0.0251 -0.1859  0.0721
    1W        W37570   0.407  21.429   2.592 -0.3389  0.1550  0.1651
    1W        W37571  13.047  11.307   1.377 -0.0822 -0.1253  0.0625
    1W        W37572   3.010  29.631   7.563  0.1124 -0.0864 -0.0132
    1W        W37573  11.069  25.613   2.389 -0.1414  0.0892  0.1544
    1W        W37574  13.162  10.213   6.743 -0.1194  0.2175  0.0319
    1W        W37575  21.912  23.741   7.759 -0.0659 -0.2828 -0.1273
    1W        W37576  12.046  18.419   7.757 -0.0836 -0.1651  0.0075
    1W        W37577   0.547  15.124   7.108 -0.1069  0.2440 -0.4142
    1W        W37578  25.561   5.327   7.360 -0.2215  0.3229  0.2719
    1W        W37579  15.758  25.131   2.658 -0.0234 -0.1503  0.2491
    1W        W37580  19.031   1.172   2.245 -0.0599 -0.1020 -0.0538
    1W        W37581   5.330  24.066   1.645 -0.0069  0.2801  0.0082
    1W        W37582  20.570  29.738   2.552  0.0012  0.0205  0.1766
    1W        W37583   5.207   2.735   8.985 -0.4094  0.3935  0.2624
    1W        W37584  18.842  26.589   8.588  0.0641  0.2315  0.2045
    1W        W37585   5.667   8.429   0.025  0.0549  0.0296  0.0434
    1W        W37586  21.681   1.757   3.772  0.2259 -0.0498  0.0920
    1W        W37587  16.887   0.496   2.309 -0.0412  0.0864 -0.0594
    1W        W37588  18.717   3.679   9.360 -0.0031 -0.3685 -0.0113
    1W        W37589  25.147   9.732   8.516  0.3039 -0.2666 -0.0022
    1W        W37590  11.967   9.664   7.349 -0.0873  0.1729  0.0656
    1W        W37591   1.744  25.446   8.169  0.2539 -0.1630 -0.0266
    1W        W37592  10.078  25.001   7.725  0.0330  0.3693  0.1338
    1W        W37593  27.284   7.809   8.207 -0.0087 -0.0655  0.4330
    1W        W37594  22.822  13.050   1.657 -0.0147  0.1612 -0.2661
    1W        W37595  23.828  18.911   5.263  0.2555  0.2104  0.0629
    1W        W37596  23.564  28.441   2.972  0.0093  0.0543  0.0824
    1W        W37597  24.231  22.029   0.761 -0.1392  0.0619  0.0145
    1W        W37598  21.974   3.063   3.833  0.1433  0.2070 -0.0089
    1W        W37599  15.649  17.943   7.241 -0.1135 -0.0266 -0.0431
    1W        W37600   4.303  26.680   3.087  0.3665  0.0501  0.0288
    1W        W37601   0.385   5.869   0.994 -0.1162  0.0106 -0.1479
    1W        W37602  26.054  19.355   6.838  0.0935 -0.0710 -0.2287
    1W        W37603  21.950   5.111   7.975 -0.0195  0.1828 -0.3527
    1W        W37604  16.613  15.046   8.482 -0.2253 -0.0749  0.1815
    1W        W37605  13.982  19.490   1.188 -0.1165 -0.0124  0.2976
    1W        W37606  13.445  22.447   8.656  0.2060  0.1409 -0.0494
    1W        W37607   0.413  13.705   1.918 -0.1260 -0.0368 -0.2383
    1W        W37608  14.903   8.445   9.271  0.0906  0.0169  0.1508
    1W        W37609  18.577   0.074   7.666  0.1775  0.1004 -0.2421
    1W        W37610   4.523  11.926   8.784  0.2030 -0.0159 -0.2734
    1W        W37611  12.758   0.447   7.605 -0.0324  0.1548 -0.0812
    1W        W37612  16.378  25.923   0.972  0.1759 -0.1347  0.1372
    1W        W37613  16.396   2.234   9.426 -0.1648  0.1417 -0.1205
    1W        W37614  22.766  16.030   0.585  0.1746  0.2389  0.3416
    1W        W37615   7.271  29.149   1.113 -0.0344 -0.1898  0.0581
    1W        W37616  17.778  17.924   8.689 -0.1410 -0.0999  0.0017
    1W        W37617  25.137  22.449   2.132 -0.1336 -0.3598  0.1841
    1W        W37618  12.903  22.518   0.554  0.0754 -0.1638  0.2164
    1W        W37619  20.597  28.001   3.331  0.1782  0.1225 -0.1958
    1W        W37620  16.212  22.421   8.423  0.1214 -0.3210 -0.0648
    1W        W37621  24.670   0.358   1.546  0.0749 -0.1103  0.0243
    1W        W37622  26.319  26.778   1.407  0.0649 -0.4180  0.0238
    1W        W37623  13.461   1.401   8.407  0.1733 -0.1038  0.0458
    1W        W37624  18.352  24.225   2.070  0.1580 -0.0277 -0.4142
    1W        W37625  29.790   3.803   2.556  0.0771 -0.0997 -0.1382
    1W        W37626  15.634  20.713   8.719  0.2713  0.0676  0.1728
    1W        W37627  27.234   0.933   8.558  0.2723  0.2000 -0.2853
    1W        W37628   0.318  21.085   8.428 -0.0532  0.2424 -0.0800
    1W        W37629  27.577  17.496   6.720  0.1927 -0.0961 -0.1060
    1W        W37630   8.531  11.362   9.262 -0.0172  0.0194  0.1185
    1W        W37631   4.000   0.785   0.885 -0.0971 -0.0036 -0.2282
    1W        W37632  16.603  13.307   0.469  0.1183 -0.2843  0.0728
    1W        W37633   4.108  17.667   8.755 -0.1452 -0.1470 -0.0177
    1W        W37634  19.666  22.044   1.315 -0.3419  0.1543  0.0849
    1W        W37635   3.339  10.922   8.713  0.0801 -0.0076  0.0084
    1W        W37636   5.128  14.607   7.722  0.1781  0.3275 -0.1590
    1W        W37637   3.719  19.913   1.929 -0.0863 -0.2153  0.0900
    1W        W37638   5.125  19.304   9.443 -0.1784  0.2031 -0.1868
    1W        W37639  26.828   5.054   8.674  0.0898 -0.2414 -0.2024
    1W        W37640  29.577  23.025   0.319 -0.2079 -0.1416  0.0139
    1W        W37641  28.934   9.843   8.141  0.1150  0.0831 -0.1049
    1W        W37642  18.487  29.056   3.560  0.0513  0.2458  0.1391
    1W        W37643   5.016  28.062   1.268 -0.1643  0.0455  0.2082
    1W        W37644   7.276  14.501   8.788 -0.1576  0.1605  0.0704
    1W        W37645   6.190  20.693   1.172 -0.2640 -0.0712  0.2411
    1W        W37646  22.982   9.374   0.844  0.1112  0.0032  0.1020
    1W        W37647   3.262  25.342   0.204  0.0597  0.0594  0.3559
    1W        W37648  12.088  22.181   2.223  0.1199  0.1827  0.1515
    1W        W37649  24.269  18.608   1.002 -0.0846  0.0009 -0.1548
    1W        W37650  16.337   2.717   1.341 -0.0440 -0.3503 -0.4201
    1W        W37651   7.490   2.213   9.199  0.1166 -0.2199  0.0288
    1W        W37652  27.373  13.635   8.433 -0.2106 -0.1839  0.3346
    1W        W37653   7.864  12.764   1.387 -0.2723 -0.1193  0.1746
    1W        W37654   2.596  20.895   8.517 -0.0777 -0.0729  0.5035
    1W        W37655  14.178   7.927   8.076  0.3091 -0.0375  0.0051
    1W        W37656  10.602  27.235   1.742  0.0622  0.0408  0.1908
    1W        W37657  13.171  10.161   8.346  0.1164 -0.1666  0.1174
    1W        W37658  16.485  27.176   8.872 -0.1991  0.0109  0.0305
    1W        W37659  10.010  26.854   9.446  0.1304 -0.0258  0.0869
    1W        W37660  12.375  19.881   9.086  0.0504  0.0907  0.2865
    1W        W37661  11.224  29.160   8.165  0.0388 -0.2971 -0.1525
    1W        W37662  24.262  21.622   9.080  0.1312 -0.0877 -0.2065
    1W        W37663  19.363   7.793   7.786 -0.1986  0.0013 -0.3323
    1W        W37664  22.946  23.030   1.596 -0.1426  0.1712 -0.1515
    1W        W37665   8.143  25.339   7.884  0.0007  0.1755 -0.0264
    1W        W37666   1.422   1.557   2.395  0.1567  0.0573  0.0872
    1W        W37667  27.386  17.564   1.061  0.3739 -0.0208 -0.0291
    1W        W37668   9.468  22.278   2.528  0.0264  0.0701  0.0355
    1W        W37669   8.412   1.911   3.794 -0.0156  0.0821 -0.1792
    1W        W37670   6.839  24.626   8.893 -0.2976 -0.2304  0.1674
    1W        W37671  25.656  15.001   9.451  0.0444 -0.0745  0.1068
    1W        W37672  19.096  21.252   1.247 -0.2498  0.0096 -0.1407
    1W        W37673   6.968   3.427   2.982  0.0016 -0.0796 -0.1070
    1W        W37674  11.784  21.268   6.876 -0.2996 -0.0236  0.0293
    1W        W37675  25.835  15.580   8.189 -0.0622 -0.1247 -0.2120
    1W        W37676   4.429   4.376   9.069  0.3317  0.1565 -0.0830
    1W        W37677   6.875  19.245   1.567 -0.0479  0.0200 -0.1847
    1W        W37678  11.027   7.380   6.337 -0.1634 -0.0819 -0.0803
    1W        W37679  27.383  28.330   1.763  0.1239 -0.1490  0.0279
    1W        W37680  27.068   2.166   3.640 -0.2411  0.1794  0.0235
    1W        W37681  21.623   4.281   2.679 -0.0385  0.0141 -0.1022
    1W        W37682  13.171  22.385   7.141  0.1764 -0.0497  0.2263
    1W        W37683   6.136  29.103   2.582  0.1638  0.0462  0.1999
    1W        W37684  15.548  18.171   7.673 -0.0240  0.1716 -0.1127
    1W        W37685   9.789  21.647   0.776  0.1280 -0.3389  0.0412
    1W        W37686   1.274   0.292   0.808  0.1117 -0.0369  0.0366
    1W        W37687  23.463   9.510   8.580  0.0863 -0.3680  0.0018
    1W        W37688  28.484  23.803   7.170  0.0844 -0.1593  0.2094
    1W        W37689  27.758  14.039   9.196 -0.0616 -0.1109 -0.2094
    1W        W37690  22.804   4.692   7.827  0.1413 -0.0534 -0.2430
    1W        W37691   2.472   6.453   0.930  0.3009 -0.1773 -0.5103
    1W        W37692  16.561   3.144   0.458 -0.1282 -0.0830  0.0348
    1W        W37693   0.755   1.422   7.144  0.0747 -0.1166  0.1399
    1W        W37694  25.701  15.190   9.018  0.0690  0.0278  0.2338
    1W        W37695  26.316   0.589   0.977  0.1409  0.1524 -0.1427
    1W        W37696   5.307  18.636   0.600  0.1809  0.2031 -0.1414
    1W        W37697   3.270   7.314   0.237 -0.2476 -0.1555  0.1426
    1W        W37698   9.246  29.311   0.200  0.0381  0.3191  0.1461
    1W        W37699   2.604  14.168   6.540  0.2546 -0.0671  0.1134
    1W        W37700   4.197  12.554   6.933  0.1997  0.0524  0.1398
    1W        W37701   3.096  12.347   1.575 -0.0598  0.0089  0.2641
    1W        W37702  23.821   4.949   0.182  0.3188  0.2544 -0.0699
    1W        W37703   0.928  16.503   9.059  0.1483 -0.2218 -0.1871
    1W        W37704  11.170  28.752   0.357 -0.0488 -0.1179 -0.0634
    1W        W37705   4.892   0.499   1.230 -0.1430 -0.0692 -0.2854
    1W        W37706  23.340  23.420   1.488  0.0963 -0.1686 -0.0932
    1W        W37707  17.947  16.466   1.100 -0.0168  0.1146  0.0349
    1W        W37708  16.247  25.133   9.461 -0.0531 -0.2090 -0.0404
    1W        W37709  14.241   6.549   8.357  0.2194 -0.3638  0.0973
    1W        W37710  24.442  24.660   6.387  0.0626 -0.0938  0.1176
    1W        W37711  17.022  21.445   9.058 -0.2018  0.0661 -0.0264
    1W        W37712   6.811   0.893   8.324 -0.3136  0.1681 -0.0139
    1W        W37713  28.773  18.184   7.257 -0.2921  0.0712  0.0567
    1W        W37714  26.483   7.379   5.022  0.1713  0.2732 -0.0815
    1W        W37715  26.149  28.960   7.258  0.3327 -0.0219  0.3254
    1W        W37716  22.287  24.249   2.090  0.3226 -0.0606 -0.2558
    1W        W37717  14.453  18.348   2.592 -0.0405 -0.0658  0.2098
    1W        W37718  25.314  13.536   7.043  0.0506  0.2543  0.0807
    1W        W37719   2.963  22.987   9.462  0.0409  0.1918  0.0104
    1W        W37720  29.697  12.990   6.892  0.2862 -0.2435 -0.0902
    1W        W37721  26.126  24.773   1.113  0.1261 -0.0087 -0.3709
    1W        W37722   6.223   3.175   0.778 -0.2729 -0.0528  0.0518
    1W        W37723   2.830  12.456   7.471 -0.4670 -0.0398 -0.1787
    1W        W37724  26.623  27.343   8.258 -0.0372  0.1490  0.2875
    1W        W37725  10.736   2.130   7.408  0.1066  0.3716 -0.1191
    1W        W37726  25.676   1.377   0.877  0.2005 -0.0501  0.1421
    1W        W37727  14.981  28.505   0.021  0.1763  0.2280 -0.0754
    1W        W37728   8.588  10.608   2.441  0.1811 -0.1212 -0.1636
    1W        W37729  11.335  28.348   0.644 -0.0630 -0.0535  0.5985
    1W        W37730  22.105   3.017   1.608 -0.1462  0.2588  0.0792
    1W        W37731  14.647  26.488   7.095  0.1173  0.4326 -0.2243
    1W        W37732   9.415  18.153   0.288 -0.2159 -0.0925 -0.1263
    1W        W37733   2.842   0.658   6.821  0.0567  0.0683  0.0929
    1W        W37734  28.269  11.840   1.913  0.3480  0.0772 -0.4252
    1W        W37735  27.819  21.784   7.042 -0.0776 -0.6470 -0.0281
    1W        W37736   4.888   8.646   2.200  0.4602 -0.0781 -0.2193
    1W        W37737  24.521  21.765   7.752  0.2836  0.1862  0.0982
    1W        W37738  12.557  13.490   7.544  0.0613  0.0630 -0.0548
    1W        W37739  21.942  10.911   9.194 -0.0425 -0.2076  0.0563
    1W        W37740  11.379   6.460   1.876  0.4330  0.2305 -0.1068
    1W        W37741   5.384  18.399   0.151 -0.3752 -0.0829 -0.1444
    1W        W37742   2.044  14.474   1.479 -0.0802  0.1703 -0.0063
    1W        W37743  24.348  12.718   8.436 -0.0022 -0.0389  0.0670
    1W        W37744  14.015  16.238   7.805 -0.0463  0.1254 -0.0166
    1W        W37745  25.334  23.219   6.763  0.0527  0.3739 -0.0133
    1W        W37746   5.522   1.590   8.539 -0.2833 -0.2091  0.1746
    1W        W37747   4.818   3.517   0.686  0.1735  0.2992 -0.0388
    1W        W37748  18.473  18.206   0.315  0.3400  0.2506 -0.0891
    1W        W37749   4.280  29.302   9.153 -0.0791  0.0203  0.1687
    1W        W37750  14.885  18.971   1.803  0.1039  0.0954  0.1845
    1W        W37751  20.937   0.852   1.789 -0.0454 -0.1551  0.0327
    1W        W37752  20.920  11.518   6.045 -0.2164  0.0970 -0.0809
    1W        W37753  24.014  19.451   6.647  0.0259 -0.1551 -0.1108
    1W        W37754  15.722  11.122   8.947 -0.1671  0.1277 -0.0408
    1W        W37755  18.597  12.052   1.632 -0.1139 -0.0934  0.0329
    1W        W37756   1.674  22.977   7.317 -0.3275 -0.1060 -0.2668
    1W        W37757  11.910  25.970   3.163  0.1214 -0.1211 -0.1213
    1W        W37758   9.865  13.832   1.090 -0.0806 -0.2866 -0.1049
    1W        W37759   8.644   1.912   1.402 -0.1945  0.1565 -0.0445
    1W        W37760  20.009  28.006   1.307 -0.0720  0.2915 -0.1069
    1W        W37761   0.359   5.583   9.064  0.1155  0.0548 -0.0523
    1W        W37762  13.633  11.879   8.099  0.0227  0.0083 -0.0261
    1W        W37763   3.135   4.126   1.806  0.1251 -0.3079 -0.0064
    1W        W37764   6.989  13.683   0.946  0.1932 -0.1935 -0.0940
    1W        W37765   6.475   7.756   0.393 -0.1595 -0.1261 -0.2775
    1W        W37766  15.255  17.203   7.086 -0.1786  0.2119 -0.1591
    1W        W37767  26.362  12.743   6.411 -0.3804  0.1243  0.1108
    1W        W37768  24.709   2.800   9.369 -0.5791 -0.2129 -0.2257
    1W        W37769   4.203   7.643   1.383 -0.2213  0.0023  0.0277
    1W        W37770  26.578  29.631   1.473  0.0635  0.1601 -0.0848
    1W        W37771  28.097   9.984   0.626  0.4389 -0.1543  0.3546
    1W        W37772  22.193  22.979   7.944 -0.1595 -0.1362  0.1518
    1W        W37773   2.965   4.666   8.724 -0.0133  0.2890  0.1330
    1W        W37774  29.252  25.808   0.915 -0.2368  0.0409 -0.0625
    1W        W37775  22.399   1.789   0.736  0.0978  0.0843 -0.1452
    1W        W37776  22.400   2.264   3.474  0.1582 -0.0242 -0.4219
    1W        W37777  13.528  18.500   1.036  0.0125  0.0338 -0.0420
    1W        W37778   5.592   1.292   3.609  0.0988 -0.4723  0.1579
    1W        W37779  26.247   7.182   2.737  0.1785  0.3933  0.1482
    1W        W37780   6.661  12.263   2.218 -0.1187 -0.2515  0.2251
    1W        W37781   8.512   7.895   1.340 -0.2478  0.0728  0.0271
    1W        W37782  11.005   5.633   7.885 -0.1132 -0.1640 -0.0312
    1W        W37783   4.020  16.844   0.246  0.0087  0.0067 -0.0300
    1W        W37784  14.662   8.337   0.953 -0.1053 -0.1248  0.2170
    1W        W37785   9.393   7.840   2.958  0.4251 -0.1844 -0.0501
    1W        W37786  14.180  16.138   9.024  0.0073  0.0712 -0.1537
    1W        W37787  16.840   3.035   8.526 -0.2375 -0.0860 -0.0022
    1W        W37788   1.296   1.688   3.234 -0.1383 -0.1090  0.0397
    1W        W37789   4.512   6.279   8.898  0.4194 -0.0111 -0.5464
    1W        W37790  29.435  20.636   9.299 -0.2098 -0.0994  0.0635
    1W        W37791   5.969  19.010   1.263  0.3156 -0.0250 -0.1861
    1W        W37792  11.306   4.215   0.675  0.0303 -0.2344  0.0082
    1W        W37793  13.957   1.648   7.845  0.2157 -0.1074  0.1299
    1W        W37794  25.077  19.260   5.678 -0.0560 -0.1167 -0.1636
    1W        W37795  19.549  11.432   8.803 -0.0472 -0.0938 -0.3961
    1W        W37796  14.623   3.071   7.679 -0.0605 -0.0852 -0.0272
    1W        W37797   1.868   0.558   9.350  0.0308 -0.1260  0.1052
    1W        W37798  23.753   9.205   8.328  0.4700  0.0565  0.0868
    1W        W37799   3.164   2.983   0.791  0.0156  0.0567 -0.1474
    1W        W37800  22.106  16.848   8.729 -0.1786 -0.1198 -0.1407
    1W        W37801  23.699  22.705   6.459  0.1284 -0.1437  0.2488
    1W        W37802  21.441  23.926   3.125 -0.1891  0.0140  0.2206
    1W        W37803   7.528   1.393   2.682  0.2265  0.0628  0.1029
    1W        W37804  20.608  18.054   7.808 -0.1179 -0.1345 -0.0334
    1W        W37805  18.077   7.585   0.211 -0.2626  0.3069 -0.1210
    1W        W37806  21.843   8.365   9.547  0.1049 -0.0750 -0.0543
    1W        W37807  12.496   5.075   1.150 -0.0594  0.0349 -0.0725
    1W        W37808   7.062  17.514   0.170 -0.1012 -0.0478 -0.0708
    1W        W37809  16.771  14.647   7.665  0.3782  0.2460 -0.4046
    1W        W37810  15.433  22.889   7.314 -0.1524 -0.0768  0.1024
    1W        W37811  13.650   1.963   0.144 -0.1276 -0.0837 -0.2603
    1W        W37812  26.572   1.188   8.972  0.1170  0.4455 -0.1123
    1W        W37813  25.476  26.721   1.842  0.2155  0.1196  0.1527
    1W        W37814  14.104  13.170   0.598  0.1022  0.2926  0.0654
    1W        W37815  28.073   9.161   0.556 -0.0761  0.0189  0.1267
    1W        W37816   3.775  10.697   0.782  0.1172  0.3086  0.3373
    1W        W37817   8.909  12.862   7.382 -0.0971 -0.0416 -0.1819
    1W        W37818  22.624  29.198   1.165  0.0528  0.0744  0.0326
    1W        W37819   9.398  18.054   7.283 -0.1282 -0.0650  0.0615
    1W        W37820  17.771  25.724   1.499 -0.3602  0.0924  0.2434
    1W        W37821  25.254  26.359   0.326 -0.2281  0.1922 -0.0842
    1W        W37822  10.401   7.064   2.188  0.3458  0.0519 -0.2414
    1W        W37823  12.303  19.580   8.694 -0.0009  0.0034 -0.0064
    1W        W37824  19.206   3.349   7.630  0.2174  0.0792  0.1714
    1W        W37825  10.854  11.853   0.489  0.0901 -0.0550 -0.1477
    1W        W37826  27.315  28.976   2.448  0.2100  0.1714  0.5188
    1W        W37827  29.361  16.628   2.159 -0.0601 -0.3082 -0.0618
    1W        W37828  24.098  15.570   5.646  0.0861 -0.1162 -0.0000
    1W        W37829  29.268   3.674   2.357  0.2444 -0.0079 -0.0879
    1W        W37830  24.704  16.549   0.589  0.1877 -0.1923  0.1249
    1W        W37831   2.831   9.366   7.027 -0.1011 -0.0334  0.1465
    1W        W37832   3.263   3.386   1.623  0.1696 -0.1273 -0.3210
    1W        W37833  13.565  26.485   1.853 -0.2211  0.1813 -0.1891
    1W        W37834  21.584  15.096   6.698  0.2482  0.0182 -0.1666
    1W        W37835  24.761  21.613   7.107  0.0697  0.1295  0.0395
    1W        W37836  23.602  28.988   0.465  0.1139  0.0799 -0.1710
    1W        W37837  11.982   4.239   2.680 -0.0902 -0.0779 -0.1534
    1W        W37838   5.021  11.530   1.390  0.0833  0.0189 -0.0643
    1W        W37839  10.670   5.854   2.973 -0.0997 -0.2689  0.3549
    1W        W37840   3.050   6.697   9.445 -0.1095  0.3519 -0.0015
    1W        W37841  23.599   7.632   6.450 -0.2172  0.1745 -0.0599
    1W        W37842   4.101   2.276   9.315  0.0663 -0.0221  0.2622
    1W        W37843  18.654  28.566   8.999 -0.3654  0.1760 -0.2771
    1W        W37844  23.752  16.381   6.778  0.0008 -0.0514 -0.0251
    1W        W37845   4.580   6.133   6.494  0.0621  0.0872 -0.1177
    1W        W37846  24.629  17.661   5.617 -0.0194 -0.2146 -0.0051
    1W        W37847  19.049  27.855   9.414  0.2000 -0.2277 -0.2423
    1W        W37848  10.151  26.978   7.678 -0.1197 -0.1982 -0.0103
    1W        W37849  25.633  24.043   9.492 -0.1408  0.0912 -0.0065
    1W        W37850  24.574  29.748   2.725 -0.0838 -0.2665 -0.3216
    1W        W37851  25.784   7.024   2.626  0.3561 -0.0341  0.0516
    1W        W37852  20.764  19.478   7.904  0.1334 -0.0979  0.0096
    1W        W37853  29.211   6.804   9.043 -0.2474  0.1056  0.1711
    1W        W37854  17.404  23.842   1.074  0.2113  0.0158  0.0205
    1W        W37855  27.709  10.983   7.482 -0.1790  0.1983 -0.0724
    1W        W37856  24.404  10.124   7.956 -0.1701  0.1343  0.1291
    1W        W37857  22.131  14.772   8.276 -0.0780 -0.3336 -0.0516
    1W        W37858  13.206  14.184   7.656  0.0800  0.0771 -0.2404
    1W        W37859   6.398   1.165   1.091  0.1335  0.1163 -0.2706
    1W        W37860   2.435  13.253   9.367 -0.0330 -0.1524 -0.1018
    1W        W37861  22.805  29.537   6.938  0.5480 -0.1328 -0.0638
    1W        W37862  17.929   9.018   6.817 -0.0547 -0.1119 -0.1172
    1W        W37863   5.741   3.367   0.766  0.1250 -0.2012 -0.0033
    1W        W37864  21.147  29.026   2.102  0.1161  0.0490  0.0682
    1W        W37865   7.604  18.671   6.848 -0.0489 -0.2793  0.1645
    1W        W37866  18.956  25.838   0.579  0.0787  0.0377 -0.0551
    1W        W37867   6.705   6.324   8.396 -0.0071  0.0285 -0.1419
    1W        W37868  20.211   4.923   2.685  0.2274  0.0094  0.4411
    1W        W37869  25.734  28.590   8.885  0.1775  0.0558  0.0788
    1W        W37870  27.955   1.713   2.220  0.1218  0.4059 -0.0356
    1W        W37871   5.473   8.857   0.703  0.2251 -0.1049  0.0647
    1W        W37872  27.934  21.895   0.613 -0.0369  0.1594  0.2970
    1W        W37873  16.954  24.616   1.594 -0.1411 -0.2653  0.2211
    1W        W37874  20.504  23.512   0.645  0.0296 -0.0090 -0.3286
    1W        W37875  25.592  24.967   0.993  0.0211 -0.0103 -0.1673
    1W        W37876  29.559   0.084   0.468 -0.3060  0.4494 -0.1620
    1W        W37877   0.941  12.059   2.585  0.1095  0.1189 -0.0860
    1W        W37878  11.886  23.809   0.680 -0.0205 -0.2221 -0.1603
    1W        W37879   0.344  26.613   9.444  0.2918  0.0267  0.0071
    1W        W37880   6.796  25.554   7.625 -0.0179  0.2971 -0.3549
    1W        W37881  13.298  18.244   7.158  0.0802 -0.0457  0.0153
    1W        W37882  28.049  28.573   6.740 -0.2501 -0.0416 -0.0176
    1W        W37883   0.473  29.568   1.833  0.1274 -0.0876  0.1651
    1W        W37884  22.145  24.055   9.379 -0.1380  0.0515 -0.1132
    1W        W37885  19.954  23.973   7.873 -0.2318  0.0001 -0.2374
    1W        W37886  17.000   1.619   0.093 -0.2762  0.0401  0.0514
    1W        W37887   6.758  24.815   6.728 -0.2108 -0.1082 -0.2095
    1W        W37888  10.974  20.674   1.535  0.0834  0.0054 -0.0984
    1W        W37889  23.981  18.988   8.886  0.2060  0.1019 -0.1887
    1W        W37890  17.782  11.577   1.893  0.1199  0.2651  0.4356
    1W        W37891   8.478  15.291   0.595  0.2706  0.0317  0.1144
    1W        W37892  16.633  22.079   1.849  0.1640  0.2103  0.4125
    1W        W37893  10.188  20.054   2.305  0.0561 -0.2029 -0.2975
    1W        W37894  11.200  19.280   8.537 -0.0128  0.1313 -0.0039
    1W        W37895   0.466  10.764   8.231  0.0505 -0.0160  0.0363
    1W        W37896  27.158   8.763   7.847  0.0724  0.0617  0.2774
    1W        W37897  12.454  26.968   0.484 -0.1743 -0.3098 -0.0123
    1W        W37898  27.284   4.590   2.668 -0.1456  0.1416 -0.3311
    1W        W37899   4.388  24.731   2.295 -0.2233  0.0687  0.0607
    1W        W37900   8.989   0.780   2.006  0.1452 -0.0261 -0.0444
    1W        W37901   4.754   1.258   0.626 -0.1948 -0.0602  0.2450
    1W        W37902  25.094  12.171   7.170 -0.1233 -0.0851  0.1744
    1W        W37903  22.756  18.838   7.080  0.0162  0.2754  0.0837
    1W        W37904  18.181  21.536   0.488 -0.1546 -0.3606  0.0467
    1W        W37905  26.971  29.440   2.506  0.1324  0.0894 -0.0970
    1W        W37906  27.098  12.077   9.009 -0.1026 -0.1481 -0.1844
    1W        W37907   9.281  11.859   8.813 -0.2191  0.1641  0.3206
    1W        W37908  15.321   7.854   9.194 -0.0627 -0.0473 -0.2224
    1W        W37909  13.158  15.472   2.299 -0.2115 -0.5396  0.0709
    1W        W37910  28.388   0.990   9.138 -0.2986 -0.1183 -0.0032
    1W        W37911  25.398  13.247   0.098  0.2481  0.2920 -0.0208
    1W        W37912  25.707   5.069   1.327  0.2389  0.1387 -0.0512
    1W        W37913  21.548  21.542   7.351 -0.3136  0.1529 -0.0613
    1W        W37914   9.706  17.385   1.354 -0.1010 -0.1580 -0.3905
    1W        W37915  27.757  28.703   2.500 -0.3233 -0.1078 -0.0759
    1W        W37916  16.274  10.783   6.765  0.3416  0.1131  0.0253
    1W        W37917  16.255  17.046   8.322 -0.3823  0.1066 -0.0191
    1W        W37918  14.717  22.216   7.547  0.1708 -0.2562 -0.2831
    1W        W37919   2.147  15.087   8.251  0.2720  0.0878  0.1125
    1W        W37920  21.002   4.818   7.858 -0.1702  0.0761  0.3059
    1W        W37921  12.288  25.967   7.586  0.3045  0.1937  0.1480
    1W        W37922  16.019  25.528   9.356 -0.2442  0.1430  0.2171
    1W        W37923   7.245  19.382   8.812 -0.1755 -0.0890 -0.1222
    1W        W37924   0.547   0.443   1.958 -0.0333  0.0189  0.0185
    1W        W37925  29.274  12.179   1.362 -0.0456  0.1027 -0.1167
    1W        W37926  18.313  19.319   0.121 -0.0322 -0.0051 -0.2890
    1W        W37927  15.895   7.398   2.829  0.0373  0.0589  0.0673
    1W        W37928  12.346  26.350   7.877  0.1150 -0.0780 -0.0548
    1W        W37929  25.636   5.363   8.891 -0.2039 -0.2082  0.2015
    1W        W37930   4.013  24.239   1.752 -0.0917 -0.4108 -0.3988
    1W        W37931  20.571   8.964   7.527 -0.2110  0.1209 -0.1832
    1W        W37932   1.096   9.203   0.650 -0.1669  0.0187 -0.1392
    1W        W37933  12.781  20.995   7.580 -0.4315 -0.1408 -0.1465
    1W        W37934  12.757  14.030   7.466  0.3615 -0.1620  0.0511
    1W        W37935  23.489   8.825   6.829  0.0344 -0.2970  0.0475
    1W        W37936  29.590  22.553   1.279  0.0036 -0.0762  0.3823
    1W        W37937  17.935   3.758   6.634 -0.0021 -0.0876 -0.2001
    1W        W37938   1.582  11.800   1.703  0.2052  0.0344  0.2855
    1W        W37939  25.540   2.923   9.437 -0.1396 -0.0635  0.0799
    1W        W37940   1.698   3.425   1.030  0.0460 -0.1211  0.0613
    1W        W37941  20.611  10.418   7.126 -0.2894 -0.2508 -0.0160
    1W        W37942  27.259   6.710   1.154 -0.0106  0.1311  0.2091
    1W        W37943   7.044  14.442   9.369 -0.1182 -0.2557  0.1926
    1W        W37944  16.586  15.080   6.827 -0.3023  0.0080  0.0849
    1W        W37945  11.539  15.317   8.466 -0.0159  0.0426  0.0422
    1W        W37946  24.739   7.185   7.460  0.0393  0.0152  0.3280
    1W        W37947  17.106   3.535   2.718  0.0715 -0.1116  0.2777
    1W        W37948  15.853  25.670   8.417 -0.0292  0.1561 -0.1580
    1W        W37949   1.271   1.635   8.333  0.3000 -0.0246 -0.2380
    1W        W37950   9.571  12.313   9.183  0.2408 -0.0398  0.0347
    1W        W37951   7.510   6.725   2.994 -0.2142  0.0656  0.1884
    1W        W37952  17.987   5.589   3.985 -0.0080  0.0905 -0.0021
    1W        W37953  19.670   1.430   3.323  0.1213  0.3720  0.0708
    1W        W37954   8.965  17.807   7.586  0.1119  0.0501 -0.0502
    1W        W37955  16.609  22.072   0.212  0.1107  0.2927  0.0439
    1W        W37956  23.972  21.827   8.097  0.0918 -0.0332  0.0833
    1W        W37957  16.247   5.357   7.561 -0.0993  0.1740  0.0224
    1W        W37958  18.450   2.084   1.355  0.1040  0.1060 -0.0129
    1W        W37959   3.266  12.210   7.592 -0.0412  0.2063 -0.3283
    1W        W37960   1.155  27.261   7.241  0.1348  0.1184 -0.0186
    1W        W37961  25.267  28.760   2.334  0.0098  0.1181  0.3843
    1W        W37962   3.321   8.116   0.700  0.0279  0.1804  0.1791
    1W        W37963  21.928  23.232   7.646 -0.1016 -0.1121  0.1769
    1W        W37964  24.169  13.786   1.186  0.0794  0.0839 -0.1581
    1W        W37965  20.545  11.830   0.073  0.1206  0.3411  0.4203
    1W        W37966   2.396  20.758   7.330 -0.1461 -0.0797 -0.1228
    1W        W37967  19.101  22.237   8.520  0.0433  0.2875 -0.0528
    1W        W37968   6.757  18.338   1.907 -0.0951 -0.1431  0.1668
    1W        W37969  27.320  27.480   7.186  0.0434 -0.1220 -0.3807
    1W        W37970  29.032  28.969   8.143 -0.1702 -0.0221  0.2786
    1W        W37971   9.266   5.511   0.413  0.1129  0.0675  0.2128
    1W        W37972  25.513  12.700   0.047  0.1357 -0.0516 -0.0789
    1W        W37973   4.245   0.809   1.879  0.0474  0.1314 -0.1998
    1W        W37974  23.814  19.908   8.461  0.1001  0.1667  0.2618
    1W        W37975  23.009  12.468   8.160 -0.0061  0.0352  0.0946
    1W        W37976  18.024   6.329   2.394 -0.0135  0.1453  0.2091
    1W        W37977   8.634   9.897   1.645  0.0878  0.2376  0.0786
    1W        W37978  22.814   6.041   8.333 -0.0858  0.1525  0.0869
    1W        W37979   7.564  26.627   1.988  0.2971 -0.1329 -0.1300
    1W        W37980  15.601  27.827   2.620  0.2367 -0.1161 -0.2165
    1W        W37981  17.093   6.150   2.347 -0.1062 -0.0324  0.0226
    1W        W37982   7.481   6.644   7.583  0.0618  0.0741 -0.0874
    1W        W37983   6.724  24.463   0.076 -0.0094  0.0971 -0.1866
    1W        W37984  23.907  27.045   9.278 -0.4880 -0.0518 -0.1332
    1W        W37985   4.653  28.595   1.724 -0.0717 -0.0012 -0.1168
    1W        W37986  24.612  26.913   2.084 -0.1394 -0.2665  0.3343
    1W        W37987  25.478  25.228   8.555  0.1834 -0.0353 -0.0835
    1W        W37988  10.071  10.164   8.577  0.0615 -0.1867  0.2365
    1W        W37989  25.706   6.546   0.867 -0.1203 -0.0317  0.0800
    1W        W37990   3.112  23.883   0.246 -0.1918 -0.0785  0.0953
    1W        W37991   2.684  19.312   8.643 -0.0360  0.1324  0.1337
    1W        W37992  23.394   9.542   2.565  0.1195  0.0517 -0.0380
    1W        W37993   5.960   9.254   0.101  0.0394 -0.1639 -0.2246
    1W        W37994  27.009  10.319   7.216  0.0822 -0.1237  0.1884
    1W        W37995  27.222   7.559   1.084  0.1192 -0.1712 -0.1737
    1W        W37996   7.835   8.478   2.100  0.0568 -0.1352  0.0960
    1W        W37997  15.780   9.644   1.754  0.2455 -0.1223  0.1810
    1W        W37998   2.349  25.816   1.283  0.0352  0.1779  0.1081
    1W        W37999  10.199  23.696   8.745 -0.3939  0.2884  0.0105
    1W        W38000  10.465   0.603   9.170 -0.0046  0.0471 -0.1097
    1W        W38001   3.524  19.763   1.255 -0.3732  0.0880 -0.1981
    1W        W38002  13.862  21.868   1.185  0.3912 -0.1759  0.0535
    1W        W38003  22.090  25.132   0.151  0.2457 -0.1015  0.2034
    1W        W38004  29.197  16.860   0.896 -0.0435  0.1270  0.0157
    1W        W38005  19.943  14.402   6.364  0.0880 -0.2527 -0.2286
    1W        W38006  28.944  27.614   2.497 -0.0636  0.0554 -0.2535
    1W        W38007  25.366  16.850   8.891  0.0016  0.1851  0.0543
    1W        W38008  29.681  19.657   8.775 -0.0121  0.2004  0.0446
    1W        W38009   7.847  23.180   8.632  0.2429  0.0303  0.1059
    1W        W38010  26.879   8.301   9.276  0.1273  0.3236  0.2044
    1W        W38011  22.834   2.066   2.950  0.3998  0.6537  0.0360
    1W        W38012  23.394  18.501   1.204 -0.1333 -0.1015 -0.2949
    1W        W38013  11.714  28.176   0.380  0.2489 -0.2822 -0.0400
    1W        W38014  16.885  19.263   2.049 -0.1435 -0.1668  0.1386
    1W        W38015  19.831   9.449   2.469  0.1046  0.2532  0.1140
    1W        W38016  25.932   3.717   8.003  0.3130 -0.0591  0.0970
    1W        W38017  10.679  20.703   2.868  0.1673  0.2203 -0.0430
    1W        W38018   0.431  16.226   8.438 -0.0224 -0.1870 -0.0611
    1W        W38019   1.712   3.857   8.554  0.1334 -0.1163 -0.2094
    1W        W38020  24.198  24.276   7.644 -0.0024 -0.3414 -0.0175
    1W        W38021  27.500  27.863   8.357  0.1505 -0.2077 -0.2183
    1W        W38022  22.044  14.196   9.096  0.0420  0.0522  0.0099
    1W        W38023   0.987   2.889   2.615  0.1127 -0.3175  0.1066
    1W        W38024   3.284   6.810   1.461 -0.1060 -0.2864  0.2606
    1W        W38025  19.778  12.192   9.505  0.0128  0.3151  0.0361
    1W        W38026  18.285   5.925   3.199 -0.1126 -0.1117  0.0711
    1W        W38027  27.053  18.450   6.076  0.1069  0.2100 -0.1313
    1W        W38028  22.517  20.522   6.479 -0.2554 -0.1428  0.1351
    1W        W38029  23.187   2.706   9.205 -0.2236  0.2456 -0.3799
    1W        W38030  15.518  13.354   7.295 -0.0411 -0.2008  0.1415
    1W        W38031   0.220   4.638   7.128 -0.0667  0.1144 -0.0026
    1W        W38032  20.507   1.006   3.515  0.5845 -0.0101 -0.3060
    1W        W38033  26.671  18.972   9.333 -0.0094 -0.2279  0.1059
    1W        W38034  22.661  18.848   8.322  0.0842  0.4353 -0.2812
    1W        W38035  19.359   6.598   7.577 -0.1572 -0.0011 -0.2663
    1W        W38036  23.105  22.174   1.850 -0.2359 -0.0391 -0.1613
    1W        W38037  13.869  26.558   8.717  0.0742 -0.1649  0.0468
    1W        W38038  15.636  25.244   9.295 -0.1778  0.1612  0.0441
    1W        W38039  19.057  15.862   1.404  0.0282 -0.0798 -0.1061
    1W        W38040  21.715  24.945   7.356  0.0348 -0.0476 -0.3255
    1W        W38041  19.072   1.447   8.650 -0.1459 -0.2182  0.2846
    1W        W38042  23.810  14.816   6.731 -0.0261  0.2751 -0.1402
    1W        W38043  21.972  19.845   6.518  0.0938  0.2118 -0.2582
    1W        W38044   3.961  16.101   7.659 -0.0901  0.0178  0.2285
    1W        W38045  24.331   9.338   8.451 -0.2347 -0.1321 -0.1352
    1W        W38046  17.410  11.827   1.001  0.0260  0.2730 -0.0919
    1W        W38047  27.868  20.535   7.453 -0.0139 -0.1175 -0.1018
    1W        W38048  12.168   6.294   2.573  0.1498  0.1222 -0.2802
    1W        W38049   8.725   1.800   8.152 -0.0270 -0.0900 -0.1320
    1W        W38050  15.705   1.000   8.548 -0.0709  0.1378  0.0983
    1W        W38051  10.245  23.085   7.962 -0.0483  0.0621  0.1053
    1W        W38052  16.235  23.219   8.482 -0.0071 -0.2430 -0.0959
    1W        W38053  22.406  22.992   0.508 -0.2958  0.3204  0.1118
    1W        W38054  19.661   4.054   2.403  0.2058  0.1106 -0.2091
    1W        W38055  13.915   7.150   6.549  0.2178 -0.0845 -0.1510
    1W        W38056   4.838  25.494   7.652 -0.0697 -0.2584 -0.0643
    1W        W38057  27.595  15.624   8.623 -0.0690  0.1027  0.0090
    1W        W38058  11.660  11.000   2.486 -0.0726  0.1059  0.1168
    1W        W38059  27.364   5.353   1.793  0.1525 -0.0185  0.0514
    1W        W38060  22.525  14.578   7.425 -0.0830 -0.0472  0.4500
    1W        W38061  13.476   9.811   2.561 -0.0980  0.3798 -0.1508
    1W        W38062  10.362  11.596   1.236 -0.0725  0.0262  0.2002
    1W        W38063  10.549  19.222   2.281 -0.0717  0.0732 -0.1390
    1W        W38064  12.124   0.977   8.780 -0.0907 -0.0706 -0.1282
    1W        W38065  11.879   7.236   1.480 -0.1793  0.1620 -0.0216
    1W        W38066  19.690   7.946   1.491 -0.1231  0.0755  0.0034
    1W        W38067  28.515   9.964   8.385 -0.1607 -0.1184  0.0444
    1W        W38068   6.062   3.222   8.646 -0.1322  0.0017 -0.0418
    1W        W38069  19.226  14.429   8.571  0.0988  0.3180  0.0242
    1W        W38070  10.373  13.112   7.553  0.1230  0.0054 -0.0922
    1W        W38071   6.489   3.202   8.321 -0.1683 -0.1200 -0.2161
    1W        W38072  19.089  27.263   9.511  0.0950 -0.0110  0.0612
    1W        W38073   8.796  25.819   2.837  0.0894  0.0589  0.2449
    1W        W38074   0.312   3.563   2.111 -0.0849  0.1737 -0.3284
    1W        W38075  24.406  13.554   0.418 -0.1506 -0.0889 -0.0793
    1W        W38076  14.684  27.308   7.756 -0.0848 -0.0868 -0.1948
    1W        W38077  27.176   3.728   1.752 -0.1141  0.1843 -0.2679
    1W        W38078  22.205  23.645   7.275 -0.3039  0.1890  0.0708
    1W        W38079   4.166   5.969   8.259 -0.0125 -0.2209 -0.3122
    1W        W38080   3.127  17.016   6.908  0.0970  0.2553  0.0589
    1W        W38081  27.611  22.199   7.152  0.0096 -0.1115  0.1046
    1W        W38082  27.318  20.962   0.615 -0.2655 -0.0550 -0.0455
    1W        W38083  24.432  12.427   7.141  0.2277  0.1886 -0.1100
    1W        W38084   4.178  14.842   0.514 -0.2748 -0.0227 -0.0046
    1W        W38085  20.973  18.768   2.272  0.1341 -0.2097  0.0837
    1W        W38086  10.745   2.234   2.157 -0.5688 -0.2504  0.1465
    1W        W38087  21.780   0.418   2.404 -0.0970 -0.1304 -0.0890
    1W        W38088  18.702   8.762   7.691  0.4888 -0.0757  0.2294
    1W        W38089  13.056  20.199   8.485  0.2114  0.2695 -0.1005
    1W        W38090  25.806  11.503   2.143 -0.0509 -0.1963 -0.3023
    1W        W38091  16.965   2.744   8.042 -0.1205 -0.1061 -0.1288
    1W        W38092  17.462  13.346   7.231  0.0442 -0.1533 -0.3995
    1W        W38093   6.075  17.100   6.979 -0.3485  0.2154 -0.3753
    1W        W38094   3.077  16.160   6.446  0.0342  0.1258 -0.1402
    1W        W38095   7.264  26.619   7.285 -0.1403 -0.4550 -0.1665
    1W        W38096  10.023   2.538   7.722  0.0803 -0.0811  0.4681
    1W        W38097  20.686  27.134   8.858  0.1781  0.2661  0.1607
    1W        W38098  24.756   3.022   0.366  0.3061 -0.2215 -0.0776
    1W        W38099   8.617  21.349   0.220 -0.1979  0.1586  0.1512
    1W        W38100   9.309   1.555   7.764  0.1086  0.0253  0.0422
    1W        W38101  13.858  12.723   0.663  0.0729 -0.1923 -0.0145
    1W        W38102  26.855   9.981   9.288  0.2159 -0.0832 -0.0059
    1W        W38103   5.900   0.322   2.853  0.2490 -0.0526  0.1633
    1W        W38104  16.276  23.549   2.387  0.1897 -0.0795  0.2685
    1W        W38105   4.226   8.492   7.457  0.0200 -0.1871  0.3254
    1W        W38106  20.570  29.584   8.707 -0.1616 -0.0837 -0.0965
    1W        W38107  16.005  15.421   0.390  0.0432 -0.3138 -0.0259
    1W        W38108   1.752  29.459   9.425  0.0082 -0.0048  0.0357
    1W        W38109  23.687   5.869   9.212  0.0136 -0.0857  0.3029
    1W        W38110  22.333  25.726   7.337 -0.1090 -0.2436 -0.3237
    1W        W38111  27.654  13.112   6.937  0.0937 -0.3528  0.3966
    1W        W38112  13.043  11.152   8.416 -0.3216 -0.1238  0.0273
    1W        W38113  26.302  27.716   7.892  0.0963 -0.2432 -0.2016
    1W        W38114  21.067  24.988   8.082  0.1343 -0.1693 -0.0913
    1W        W38115   5.704  18.941   8.711  0.1027 -0.2542 -0.0370
    1W        W38116  16.949   4.624   8.921  0.1541 -0.0790 -0.2793
    1W        W38117  25.682  11.874   0.224 -0.3908  0.0293  0.1271
    1W        W38118   5.345  16.094   7.420  0.0222 -0.1393 -0.0164
    1W        W38119  15.699   8.984   7.577 -0.1334  0.1918  0.0162
    1W        W38120  24.003  16.787   7.001  0.0878  0.0470  0.1069
    1W        W38121  19.924   4.013   7.302  0.0859  0.0921  0.1146
    1W        W38122  12.597  26.876   1.924  0.1989 -0.0317 -0.0383
    1W        W38123   4.680  26.453   7.668  0.0300 -0.0746  0.0458
    1W        W38124  14.212  11.619   1.064 -0.0917 -0.1138 -0.0070
    1W        W38125  18.561   8.842   8.164  0.1938 -0.2430  0.1832
    1W        W38126   8.699  15.724   2.855 -0.0407  0.1706 -0.0189
    1W        W38127  10.509   7.854   2.580  0.2836  0.3214  0.1284
    1W        W38128  25.910  10.233   9.059 -0.2351 -0.0050 -0.1791
    1W        W38129  11.232  19.913   1.460  0.0233  0.1200  0.0953
    1W        W38130   4.243   2.247   1.074 -0.0642  0.1153 -0.0290
    1W        W38131   5.201   6.497   7.377 -0.2772  0.1279  0.0764
    1W        W38132  10.531  14.660   1.889 -0.0167  0.0990  0.1734
    1W        W38133  26.146  13.607   9.187 -0.0211  0.2252 -0.0545
    1W        W38134  11.581  24.689   0.052  0.1394  0.2028 -0.0328
    1W        W38135  21.886  22.658   1.664 -0.1343  0.0146  0.0380
    1W        W38136   3.433   0.126   1.602  0.4496 -0.0675  0.0357
    1W        W38137   8.462  17.263   1.999  0.0889 -0.2426 -0.0140
    1W        W38138  12.908   1.759   2.218  0.1459 -0.1687  0.1916
    1W        W38139   1.019  16.934   0.846 -0.0660  0.1466 -0.0554
    1W        W38140  12.032  18.343   0.830  0.3540 -0.2738 -0.0652
    1W        W38141  13.516  26.872   6.516 -0.1975  0.1106 -0.2852
    1W        W38142   0.310  24.000   2.161 -0.1085  0.2031 -0.0080
    1W        W38143  25.318  28.728   9.162 -0.2199 -0.0611 -0.1935
    1W        W38144   3.305  27.713   0.030 -0.0746 -0.0156 -0.2494
    1W        W38145   8.428  20.185   1.653  0.2090  0.1557  0.1844
    1W        W38146   1.436  16.610   7.683 -0.2269  0.3625  0.3008
    1W        W38147  12.096  12.654   6.682  0.2441 -0.0425 -0.1733
    1W        W38148  14.132  11.850   0.448  0.0697 -0.0881  0.1733
    1W        W38149  22.340  23.070   6.831 -0.1351 -0.0474  0.1764
    1W        W38150  10.740  14.061   6.666  0.3878  0.4814 -0.3560
    1W        W38151   5.455  12.057   8.655  0.0149  0.0894  0.2361
    1W        W38152   8.024  14.146   8.183 -0.1376  0.1594 -0.4196
    1W        W38153  25.458  16.578   6.177  0.1360 -0.1693 -0.0043
    1W        W38154  10.289  21.368   7.208 -0.0629 -0.1323 -0.0061
    1W        W38155   8.122   1.113   3.249  0.4247  0.0316  0.3127
    1W        W38156  15.623  19.660   5.934  0.1808  0.1823 -0.2709
    1W        W38157  10.440  25.196   8.017  0.1101 -0.1434  0.0756
    1W        W38158   9.166   4.582   3.839 -0.1593  0.0173 -0.3080
    1W        W38159  24.190  23.775   0.520  0.4037 -0.2703 -0.1682
    1W        W38160  10.239  27.354   1.317 -0.2061  0.3026  0.3262
    1W        W38161  27.968  27.684   0.767 -0.3616  0.3184  0.3046
    1W        W38162  18.218  15.207   0.435 -0.0765  0.1061  0.0189
    1W        W38163   9.327  13.687   2.333  0.0749 -0.0011 -0.0745
    1W        W38164  17.381   8.962   6.530 -0.0129 -0.0276 -0.0661
    1W        W38165  18.043  12.394   7.023  0.1839 -0.0996 -0.3183
    1W        W38166   6.201  20.347   8.207 -0.0918 -0.1648 -0.1819
    1W        W38167  22.003  15.573   8.745 -0.1239  0.0797 -0.0761
    1W        W38168  21.280   3.418   3.039 -0.1885  0.2299  0.1497
    1W        W38169  17.407   7.191   6.843 -0.0573  0.0636 -0.0962
    1W        W38170  12.226  15.592   0.139 -0.1208 -0.2080 -0.2428
    1W        W38171  25.120  28.274   8.182  0.2564 -0.1343 -0.2414
    1W        W38172  10.842  22.584   1.405  0.0801  0.0439  0.0125
    1W        W38173  25.006   5.214   7.171 -0.1731 -0.1817  0.0691
    1W        W38174  20.499   9.216   1.295 -0.0455  0.1033  0.0110
    1W        W38175   9.355   8.742   8.732  0.3217 -0.2589  0.1572
    1W        W38176  10.000   5.749   6.883 -0.0558  0.0391  0.1500
    1W        W38177   4.047  19.272   7.254 -0.1626  0.0069  0.0682
    1W        W38178  16.179  24.261   1.278  0.0726 -0.6588  0.1226
    1W        W38179  22.582  26.869   8.009 -0.0191  0.2791  0.0749
    1W        W38180  23.753  12.126   1.855 -0.0720  0.0192  0.2090
    1W        W38181  20.566  17.621   2.248  0.0510  0.0292 -0.1769
    1W        W38182   6.735   1.616   7.724  0.1778  0.1332 -0.1998
    1W        W38183   5.949  19.184   7.329 -0.0611  0.0478 -0.0002
    1W        W38184  12.763  20.264   8.933 -0.1193 -0.2503  0.3623
    1W        W38185  11.476  21.864   7.903 -0.2676 -0.1053  0.0419
    1W        W38186   5.604   9.388   0.439  0.1617 -0.1672  0.0900
    1W        W38187   1.971   3.341   9.490  0.4280  0.1090 -0.2283
    1W        W38188  18.624  20.926   5.955 -0.1182 -0.2808  0.0344
    1W        W38189  19.743   5.138   0.266  0.1086  0.0744 -0.3139
    1W        W38190   7.354  25.331   0.153  0.2745  0.1726  0.1991
    1W        W38191  17.017  19.836   7.520 -0.1152 -0.0410  0.0599
    1W        W38192   1.278   9.037   7.067  0.1226 -0.3235  0.0926
    1W        W38193  19.420  25.950   8.918 -0.2570 -0.3424  0.3157
    1W        W38194  13.295  27.647   8.779 -0.2799  0.1985 -0.0966
    1W        W38195  23.962  15.500   0.271  0.0567  0.0295 -0.0511
    1W        W38196   4.922  15.516   0.611  0.0077 -0.0498 -0.1270
    1W        W38197  26.960   9.886   1.182 -0.3235 -0.2319 -0.0086
    1W        W38198  10.250  13.972   6.656  0.0614  0.2835 -0.1045
    1W        W38199   6.102  20.194   2.501  0.1603  0.0689  0.1220
    1W        W38200  24.894  16.866   7.228  0.0374 -0.1068 -0.0350
    1W        W38201  24.042   8.902   8.584  0.0793 -0.1285 -0.0321
    1W        W38202   9.288  24.450   3.154  0.0995 -0.2107  0.2714
    1W        W38203   0.492  11.404   1.703  0.0823 -0.0626 -0.2188
    1W        W38204  18.929   5.775   0.548 -0.3492 -0.1597  0.1052
    1W        W38205  29.385   0.424   1.308  0.0057 -0.2696 -0.1298
    1W        W38206   4.487  16.659   1.738 -0.0385  0.1349 -0.0225
    1W        W38207   4.559  29.645   6.987  0.0523  0.2538 -0.0120
    1W        W38208  23.406   8.801   0.540 -0.2139 -0.1214 -0.1401
    1W        W38209  19.407  28.631   8.583  0.2933 -0.2931  0.0761
    1W        W38210   2.604   4.486   8.337  0.1343 -0.2751  0.2513
    1W        W38211  18.779  14.640   6.979 -0.0828  0.1176 -0.0440
    1W        W38212  17.756  27.654   7.415  0.1404 -0.2421 -0.1359
    1W        W38213  19.920   1.100   2.481  0.2186  0.0754 -0.2174
    1W        W38214  16.468  12.438   2.206 -0.0313 -0.2916  0.1781
    1W        W38215   3.216   5.991   1.004  0.2140 -0.0437 -0.0086
    1W        W38216  14.646  14.848   0.754  0.1115 -0.2253 -0.1356
    1W        W38217   4.332  26.725   9.347  0.1816  0.0081  0.1561
    1W        W38218  18.399   2.541   8.662  0.0129  0.0238 -0.0842
    1W        W38219   2.340  14.310   7.572  0.1579 -0.1465 -0.3819
    1W        W38220   1.996  10.534   6.907 -0.1852  0.0256 -0.0586
    1W        W38221   8.632  16.986   8.019 -0.2815 -0.2486 -0.0608
    1W        W38222  18.433  17.987   7.984  0.0692  0.2909  0.2391
    1W        W38223  10.474  16.348   7.693 -0.1581  0.0367  0.1536
    1W        W38224  11.354   5.721   2.201  0.2471  0.1610 -0.1033
    1W        W38225  14.805   8.115   1.770 -0.0800 -0.2042 -0.0631
    1W        W38226  28.905  22.621   7.219 -0.2190  0.1313  0.2732
    1W        W38227   9.773   7.273   0.717 -0.1424 -0.2474  0.0815
    1W        W38228  16.875  24.839   0.205 -0.0314  0.4328  0.0897
    1W        W38229  14.248  13.070   1.078  0.1808 -0.1599 -0.0986
    1W        W38230  17.027  11.863   1.531 -0.4146  0.3038  0.1150
    1W        W38231  24.204  18.868   0.456 -0.1986  0.1404 -0.4196
    1W        W38232  11.637  16.220   8.577 -0.3870  0.3214 -0.0698
    1W        W38233  11.831  11.762   2.830  0.1538  0.0661  0.0556
    1W        W38234  17.317  10.230   7.578 -0.1362  0.1237  0.0359
    1W        W38235   3.668  26.309   0.410  0.2433 -0.0940  0.1858
    1W        W38236   9.890  22.745   7.268 -0.0430 -0.1357 -0.2560
    1W        W38237  15.408  10.837   6.748 -0.0925  0.3183  0.0323
    1W        W38238  26.175  17.384   0.400 -0.1404 -0.2863 -0.1640
    1W        W38239  20.530  28.773   0.578 -0.0983  0.3592 -0.0555
    1W        W38240   0.921  13.693   9.281  0.0260  0.1043  0.0056
    1W        W38241  23.757  15.143   9.045 -0.0324  0.2918  0.1998
    1W        W38242  21.004   2.246   1.055 -0.0336 -0.1779  0.2514
    1W        W38243   4.273  24.671   7.617 -0.2514  0.0605  0.2578
    1W        W38244  11.118  14.193   9.177 -0.1309 -0.4989 -0.4011
    1W        W38245  18.813  18.050   9.536  0.0281  0.0179 -0.0747
    1W        W38246  12.020  20.812   8.235  0.0155 -0.2790 -0.0664
    1W        W38247  14.786   4.309   1.450 -0.1806 -0.0403 -0.1387
    1W        W38248  26.567  14.717   6.224  0.2232  0.0698 -0.0083
    1W        W38249  19.951  23.930   9.197  0.4269 -0.2030 -0.1822
    1W        W38250   4.444  15.872   1.282 -0.0632 -0.1608  0.0187
    1W        W38251  15.446   7.828   6.637 -0.0686  0.0835  0.0960
    1W        W38252  25.027   6.156   6.638 -0.2396  0.2877 -0.1660
    1W        W38253  19.961  16.983   1.290 -0.0007 -0.4179  0.2983
    1W        W38254   9.330  11.081   8.874 -0.1881 -0.0499  0.2283
    1W        W38255   1.776   8.263   1.563 -0.0784 -0.1737  0.0594
    1W        W38256  25.285  25.209   7.230  0.0377  0.1328  0.1406
    1W        W38257  13.853   6.889   1.129  0.3508 -0.3574 -0.1316
    1W        W38258  27.107   7.966   0.759 -0.0792 -0.0370 -0.1938
    1W        W38259  24.534  29.476   0.708 -0.1757 -0.1632 -0.1514
    1W        W38260  15.450   7.249   0.298 -0.2468  0.1609 -0.1594
    1W        W38261  14.785  11.031   8.032 -0.1316 -0.0777 -0.0483
    1W        W38262   7.498   6.324   1.230  0.3243  0.1146 -0.3195
    1W        W38263  27.926  11.007   2.016  0.1316  0.0963 -0.1811
    1W        W38264   2.358  13.066   1.406 -0.1829 -0.0178 -0.0207
    1W        W38265   7.100   9.849   0.199 -0.2949 -0.2821  0.1576
    1W        W38266  18.374  16.019   7.285 -0.2230  0.0926 -0.0535
    1W        W38267  25.737   6.263   1.622 -0.4326  0.1261 -0.1094
    1W        W38268  16.301   2.226   7.406  0.2814  0.1318 -0.1518
    1W        W38269  25.869  25.341   2.608 -0.0432 -0.0994 -0.2073
    1W        W38270   8.334   6.237   2.988 -0.0768  0.2867 -0.2111
    1W        W38271   3.980   1.932   2.339 -0.1437 -0.1527  0.1344
    1W        W38272  24.225  19.868   6.367  0.5110 -0.1473 -0.0615
    1W        W38273  24.648  10.055   9.116  0.1108 -0.1808  0.3333
    1W        W38274  28.082  15.307   0.618  0.1078 -0.1178 -0.1722
    1W        W38275   6.442  13.587   1.226  0.1921 -0.0149  0.0996
    1W        W38276  16.767   2.012   7.728 -0.1763 -0.1412 -0.0122
    1W        W38277  22.364  25.412   2.891  0.0113 -0.3313  0.0200
    1W        W38278  11.077   7.756   8.280 -0.1018 -0.1938  0.3610
    1W        W38279  22.285  25.984   0.666 -0.2466  0.0211  0.0092
    1W        W38280   1.800  11.798   0.934  0.1417  0.3104  0.0773
    1W        W38281  15.123   1.227   0.198  0.2413 -0.0488 -0.0863
    1W        W38282   9.337   4.214   8.681  0.2133 -0.1376 -0.2401
    1W        W38283  25.880  10.991   2.217  0.2137  0.1350 -0.2764
    1W        W38284  19.913   9.495   2.951  0.1636 -0.0041  0.3255
    1W        W38285  26.281   8.088   1.845 -0.1120  0.2403 -0.2821
    1W        W38286  27.535  19.846   8.894  0.1731  0.2572 -0.0055
    1W        W38287  25.678  14.364   6.566  0.0790 -0.0191  0.1527
    1W        W38288  28.963   6.548   7.167 -0.0110 -0.1291  0.1107
    1W        W38289  27.628  25.747   7.875 -0.0685  0.3349  0.2026
    1W        W38290  10.296  22.683   8.998 -0.1459  0.2518 -0.1894
    1W        W38291  21.331  11.515   6.488  0.1321  0.0656 -0.2113
    1W        W38292   6.409  27.913   3.097 -0.0401 -0.0732  0.2492
    1W        W38293  26.728   9.184   1.333 -0.4330 -0.2345  0.0852
    1W        W38294  21.267   2.562   9.463 -0.2163 -0.4019  0.2156
    1W        W38295   0.246  16.699   0.262 -0.1140 -0.1028  0.1222
    1W        W38296  29.668  28.771   2.296 -0.3793 -0.0016  0.3520
    1W        W38297  29.733  17.336   1.017  0.2734  0.2695 -0.2333
    1W        W38298  10.879   9.195   6.401  0.0569 -0.0527 -0.2580
    1W        W38299   7.804   0.904   8.091 -0.0000  0.1896 -0.1025
    1W        W38300  27.545  12.979   0.028 -0.3071  0.2718  0.0667
    1W        W38301   1.797  23.564   0.489  0.0381 -0.0387 -0.1157
    1W        W38302  20.595   4.960   1.252 -0.0322 -0.2882 -0.3052
    1W        W38303   6.419  11.012   1.776  0.6009 -0.1846 -0.0431
    1W        W38304   1.782  29.311   1.327 -0.0529 -0.0547 -0.0513
    1W        W38305   6.124   7.044   8.671  0.2468  0.4376 -0.3235
    1W        W38306  14.027  18.217   0.144 -0.1132  0.1140 -0.0508
    1W        W38307  14.649  20.146   7.989  0.0839 -0.3542 -0.1706
    1W        W38308   6.743  27.156   6.590 -0.2006  0.0892 -0.4586
    1W        W38309   5.048  11.278   2.142  0.2762  0.0830 -0.0020
    1W        W38310  21.841  29.080   0.047  0.3384 -0.0224 -0.0592
    1W        W38311   9.584  24.110   6.387 -0.2993 -0.1060  0.1046
    1W        W38312   6.538  24.310   6.570 -0.1022  0.1002  0.2094
    1W        W38313  21.354  14.286   6.123 -0.2273  0.2744  0.0493
    1W        W38314  17.105  14.838   3.279  0.0331  0.1467 -0.0948
    1W        W38315  19.033  25.317   8.696 -0.0476  0.0663  0.0426
    1W        W38316   1.223  22.913   9.071  0.2627 -0.1321 -0.2948
    1W        W38317   4.104   0.407   9.382  0.0148 -0.2479 -0.2363
    1W        W38318   0.534  12.610   1.095 -0.0668 -0.2294  0.1627
    1W        W38319  23.256  24.029   6.605 -0.0207  0.0031 -0.0897
    1W        W38320  23.662   3.953   3.099  0.1206  0.2907 -0.1938
    1W        W38321   1.349   6.448   1.380 -0.1656 -0.2817  0.2192
    1W        W38322  26.219  17.694   7.893  0.0127  0.1728 -0.1531
    1W        W38323  16.172   2.190   6.358 -0.2880 -0.0759  0.1400
    1W        W38324  19.339  26.995   1.410 -0.1134  0.1177 -0.1533
    1W        W38325   5.830  12.373   2.165  0.1253 -0.3626  0.0858
    1W        W38326   3.328   8.353   7.684  0.1029  0.0821 -0.0405
    1W        W38327  29.490  10.707   0.465 -0.0664 -0.0874  0.1707
    1W        W38328  27.777  27.103   0.169  0.1947 -0.2602 -0.1055
    1W        W38329  14.863   0.132   7.452 -0.0573 -0.1713 -0.1605
    1W        W38330   7.162  26.457   7.739  0.1610 -0.1044 -0.1734
    1W        W38331   5.430  17.079   7.804  0.1155 -0.0292 -0.3890
    1W        W38332   2.176  11.899   7.193 -0.1868 -0.3906 -0.3439
    1W        W38333  16.846   7.437   3.299  0.0201  0.0476  0.2545
    1W        W38334  21.057  14.519   7.032  0.1633 -0.0838 -0.2449
    1W        W38335  23.846  11.560   0.247  0.1094 -0.3643  0.2760
    1W        W38336  21.830  23.057   0.256  0.1053  0.1063 -0.3744
    1W        W38337  18.427  17.669   0.091 -0.4372  0.0363  0.4401
    1W        W38338  22.841   3.616   2.473 -0.2636  0.1396  0.1020
    1W        W38339   8.436  15.206   2.088  0.0202  0.1238  0.1744
    1W        W38340  21.929  25.519   1.364 -0.5448 -0.4101  0.0699
    1W        W38341   5.296  14.816   1.417  0.0899 -0.0657  0.1556
    1W        W38342  26.751   2.007   0.835  0.0734 -0.3901  0.0766
    1W        W38343   2.272  19.878   6.744  0.0707 -0.1150 -0.2033
    1W        W38344   3.255   0.377   1.119 -0.1515 -0.1138 -0.2645
    1W        W38345  22.467   7.519   3.146  0.1157  0.0346  0.2283
    1W        W38346  14.767  22.594   1.581 -0.0656  0.1674  0.2465
    1W        W38347  10.438  21.300   1.196 -0.4574  0.1870  0.1259
    1W        W38348  23.090  26.793   1.655 -0.1113 -0.0346  0.2141
    1W        W38349   7.220  26.333   1.754 -0.0141 -0.4878  0.0730
    1W        W38350  19.693   5.040   2.607 -0.1749 -0.1795 -0.2520
    1W        W38351  19.133   9.497   9.030 -0.0112 -0.0875  0.0293
    1W        W38352  10.794  23.960   9.465  0.0530 -0.0251  0.1089
    1W        W38353  26.207  15.003   6.580 -0.1154 -0.0736 -0.1015
    1W        W38354  25.196  15.918   6.710 -0.1392  0.4073  0.2588
    1W        W38355  12.239   8.973   0.007 -0.2161  0.1202 -0.5417
    1W        W38356  26.637   0.603   1.770 -0.0444  0.3561  0.3571
    1W        W38357  15.917   6.384   6.856 -0.0260  0.1299  0.0434
    1W        W38358  23.712  17.393   0.482 -0.1169 -0.1708  0.0936
    1W        W38359  23.447   9.100   9.519  0.2210  0.4809  0.1332
    1W        W38360  21.623  24.367   2.790  0.0895  0.0360  0.3309
    1W        W38361  16.354  17.447   2.633 -0.1823 -0.0952  0.2521
    1W        W38362  28.111   1.871   7.829 -0.0149  0.2913  0.0555
    1W        W38363   7.371   6.548   1.639 -0.2469 -0.1712  0.1446
    1W        W38364  24.982  24.907   8.608 -0.2159  0.0852 -0.1172
    1W        W38365  11.094  10.727   2.671 -0.0142  0.1406  0.0669
    1W        W38366   0.501  11.126   0.642  0.2153  0.2639  0.0677
    1W        W38367  16.792  14.707   6.183  0.0068  0.0678  0.2729
    1W        W38368   0.435   4.366   7.587  0.3491 -0.3195 -0.0196
    1W        W38369   3.934  20.021   1.028 -0.1594 -0.1899 -0.0760
    1W        W38370  20.554   1.503   8.508  0.1581  0.0133  0.4932
    1W        W38371   8.128  27.246   9.498  0.3482 -0.0050  0.2130
    1W        W38372  20.693   6.868   8.627 -0.2752  0.1215  0.2365
    1W        W38373   8.371  22.027   0.813 -0.1335  0.1176  0.0488
    1W        W38374  22.948  16.018   6.404 -0.1897  0.3876  0.3070
    1W        W38375   4.517  15.216   2.248 -0.0055 -0.0171 -0.1391
    1W        W38376  17.741  14.871   0.273 -0.0459  0.1390  0.1639
    1W        W38377   0.422   7.613   8.683 -0.1374 -0.2490 -0.0267
    1W        W38378   0.425  24.697   8.173 -0.0329 -0.0639  0.1495
    1W        W38379   0.215  14.803   0.956 -0.0682  0.0474 -0.3177
    1W        W38380  21.999   4.290   1.080 -0.2381  0.1364  0.2940
    1W        W38381   4.709  14.785   8.471  0.1642  0.0181  0.0760
    1W        W38382  16.822  13.874   1.552 -0.1137 -0.2884 -0.2009
    1W        W38383   6.930   7.344   3.722  0.0942  0.0615  0.2509
    1W        W38384  19.529  20.335   8.898 -0.0280 -0.1505 -0.1322
    1W        W38385  23.245   9.217   7.015  0.3470  0.1109  0.1889
    1W        W38386   9.572   4.276   8.102  0.0112  0.3046  0.1694
    1W        W38387  17.579   8.738   7.074 -0.0795 -0.0006 -0.0482
    1W        W38388  10.287  16.036   0.102  0.3952  0.1588 -0.0016
    1W        W38389   4.806   2.064   0.172  0.2431 -0.1920  0.5130
    1W        W38390  13.054   0.605   3.367  0.2856  0.1711 -0.3258
    1W        W38391  13.081   5.241   8.908 -0.2751  0.0664 -0.0304
    1W        W38392   7.594   4.279   7.021  0.2250  0.3408 -0.0183
    1W        W38393  28.584  12.491   1.451 -0.0873 -0.2235  0.0809
    1W        W38394  28.980   3.483   9.164 -0.3094 -0.1201  0.2272
    1W        W38395   6.657   4.017   6.739 -0.1280 -0.3047  0.0935
    1W        W38396   4.822   3.020   1.771  0.0853 -0.1483  0.0165
    1W        W38397  18.732   6.856   2.516 -0.0312 -0.0620 -0.2853
    1W        W38398  28.151  19.277   1.331 -0.1727 -0.2095 -0.1492
    1W        W38399   4.373   8.516   2.096 -0.0554 -0.0333  0.2752
    1W        W38400   5.264   2.433   0.308  0.0291 -0.1795 -0.1249
    1W        W38401  23.763  13.811   2.025  0.1951  0.1920 -0.0201
    1W        W38402  11.703   9.171   0.772 -0.0439  0.0638  0.1361
    1W        W38403  27.930   2.852   0.235 -0.0306 -0.1434 -0.0233
    1W        W38404  23.328   7.623   2.751  0.2147 -0.0059  0.1152
    1W        W38405  16.282  14.382   8.989  0.1238  0.1464  0.2942
    1W        W38406   5.575  21.099   2.121  0.0290  0.0271  0.2150
    1W        W38407  14.460   4.289   6.705  0.2521 -0.1056  0.1038
    1W        W38408  15.011  22.593   7.334 -0.1585  0.0647  0.4094
    1W        W38409  15.103  24.210   0.752 -0.1315 -0.0013  0.0580
    1W        W38410  25.012   5.254   8.855 -0.0359  0.0923  0.0055
    1W        W38411  16.988  27.600   7.157 -0.0170  0.0364  0.2972
    1W        W38412   9.417  15.608   7.616 -0.1284 -0.0554 -0.0192
    1W        W38413  13.315   7.818   2.143 -0.0295 -0.1841 -0.3991
    1W        W38414  27.699  11.485   7.685 -0.1884 -0.4184 -0.0265
    1W        W38415  14.137   8.605   7.585 -0.0488  0.0301  0.0261
    1W        W38416  22.577  18.622   2.342 -0.0076  0.1775  0.2679
    1W        W38417  20.244   1.982   1.353 -0.0668  0.0303 -0.0651
    1W        W38418  14.667  23.687   8.958 -0.0236 -0.0007  0.2301
    1W        W38419  12.759   8.201   2.206  0.1409  0.0700  0.2712
    1W        W38420   7.072  11.363   0.101  0.1307 -0.0098  0.3175
    1W        W38421   1.052  21.679   7.449  0.2118  0.1860  0.4095
    1W        W38422   4.795  11.449   7.649 -0.1769 -0.1123  0.1865
    1W        W38423  23.116  14.834   9.273  0.3864  0.3059 -0.0876
    1W        W38424  27.941   9.596   6.271 -0.0565 -0.3140 -0.2993
    1W        W38425  27.377  12.857   7.878  0.0374  0.3019  0.1887
    1W        W38426   8.357  24.814   0.564 -0.1970  0.1378  0.2854
    1W        W38427  29.361  29.324   2.565 -0.0923  0.0006  0.1132
    1W        W38428   6.159   4.916   2.229 -0.0829  0.2489  0.2481
    1W        W38429  29.702  25.729   8.850 -0.2816 -0.0707  0.4350
    1W        W38430  16.803  16.450   0.084 -0.3149  0.1834 -0.1123
    1W        W38431  14.610  12.792   1.318  0.3832 -0.0454  0.1855
    1W        W38432   8.266   1.138   0.075  0.0970 -0.2687  0.1392
    1W        W38433   3.538  15.973   7.299  0.0011 -0.0272 -0.1107
    1W        W38434   5.841  20.914   0.900  0.0035 -0.0557 -0.0548
    1W        W38435  21.799   1.277   2.512 -0.0322 -0.4733  0.0540
    1W        W38436  16.614   0.643   7.877 -0.2754 -0.0024 -0.3146
    1W        W38437  23.408  13.880   5.551 -0.1129  0.3248 -0.2653
    1W        W38438   7.235   3.443   0.604  0.1445  0.0412 -0.1163
    1W        W38439   6.769  25.973   6.973  0.1360  0.0029  0.2270
    1W        W38440  25.344   1.350   7.887 -0.0603 -0.1881  0.0031
    1W        W38441  10.036   2.396   2.828  0.0131  0.1150  0.0393
    1W        W38442   9.660  14.992   1.529  0.2643 -0.2534  0.3718
    1W        W38443   2.648   2.303   7.053 -0.0384  0.0192  0.0048
    1W        W38444  25.938   6.718   1.631 -0.1820 -0.4168 -0.1889
    1W        W38445   5.475  23.897   2.137  0.0403  0.0207  0.0327
    1W        W38446  22.287   2.543   9.074  0.2745  0.0987 -0.0412
    1W        W38447   0.477  14.067   0.595  0.0363 -0.2280 -0.2926
    1W        W38448  13.208   1.916   0.670 -0.1606  0.2731 -0.0262
    1W        W38449  27.978  17.638   7.172  0.1140 -0.2265  0.1506
    1W        W38450   3.081  24.217   2.072  0.0864  0.1106  0.1265
    1W        W38451   6.962  25.142   8.061  0.0358  0.2527 -0.0191
    1W        W38452   6.831   3.855   7.181 -0.1199 -0.4359 -0.2119
    1W        W38453  16.063  17.206   9.068  0.1366 -0.1820  0.4538
    1W        W38454  19.746  27.030   8.319 -0.0838  0.2232  0.2580
    1W        W38455  10.599  18.180   2.019  0.1108  0.0277  0.1195
    1W        W38456  18.297   5.919   2.526 -0.3249 -0.0251 -0.1323
    1W        W38457  11.411  13.286   6.741 -0.0266  0.0433 -0.0363
    1W        W38458  12.765   9.102   7.477  0.2063  0.1388 -0.3120
    1W        W38459  11.237  21.012   8.487 -0.0520  0.0211 -0.0919
    1W        W38460  13.528  27.210   8.909 -0.0986 -0.3197 -0.2402
    1W        W38461  13.721   0.545   2.589  0.1428 -0.1461 -0.1948
    1W        W38462   8.247   4.200   1.876  0.2114 -0.0265 -0.2523
    1W        W38463  17.680  18.448   2.238 -0.1253 -0.0295  0.0912
    1W        W38464  22.486  19.498   0.048 -0.0010  0.0990 -0.0383
    1W        W38465  20.054  21.756   9.513  0.0439  0.0329  0.0383
    1W        W38466  17.746  11.482   0.739 -0.1908  0.1540  0.4175
    1W        W38467  25.189  21.478   5.622  0.3660 -0.1843  0.1816
    1W        W38468  18.035  26.362   3.304 -0.1448 -0.0220  0.0925
    1W        W38469  17.184  27.699   9.522  0.1070 -0.0204 -0.3615
    1W        W38470  19.375  14.888   2.903  0.0628 -0.0848  0.1668
    1W        W38471  28.990   3.987   1.270  0.2247 -0.0767 -0.4243
    1W        W38472  22.957  11.513   8.114 -0.1357 -0.2677  0.3700
    1W        W38473   1.761  11.645   8.533  0.1579 -0.1831  0.0490
    1W        W38474  12.084  17.298   0.996  0.1591  0.1297  0.0136
    1W        W38475  12.909  29.467   8.565 -0.0810  0.0631 -0.4155
    1W        W38476  19.837  16.017   0.349  0.1040  0.0839 -0.1939
    1W        W38477  13.391  10.091   1.020 -0.0985 -0.0603  0.1093
    1W        W38478  26.387  18.649   6.813  0.0464 -0.0234 -0.0188
    1W        W38479   6.531  14.509   0.160 -0.5101  0.3112 -0.1279
    1W        W38480   7.535   1.099   3.110 -0.0098  0.0526 -0.0881
    1W        W38481  14.020  22.961   0.270  0.0140  0.1082 -0.1922
    1W        W38482   6.957  23.496   1.660  0.0400 -0.3712 -0.0964
    1W        W38483   7.278   8.839   3.453  0.0298  0.0038 -0.0288
    1W        W38484  26.286  11.949   7.151  0.0693 -0.2371  0.0113
    1W        W38485  11.998  18.855   9.235 -0.0303 -0.3313  0.2967
    1W        W38486  14.655  27.371   0.957 -0.0049 -0.0949 -0.2218
    1W        W38487   4.090   3.905   2.141 -0.1558 -0.2830  0.2223
    1W        W38488  18.367  28.723   9.388 -0.0339  0.0265  0.2428
    1W        W38489  14.382  24.599   7.719 -0.2957  0.0754 -0.2248
    1W        W38490   9.404  28.384   1.601  0.0878 -0.3376 -0.0321
    1W        W38491   1.905   2.892   0.151  0.4080 -0.1841 -0.1615
    1W        W38492  17.554  25.837   7.477 -0.0190  0.2510 -0.2724
    1W        W38493  25.125   2.203   9.137  0.4644 -0.0351  0.0153
    1W        W38494  20.019   6.261   8.054  0.0511  0.0426  0.2241
    1W        W38495   3.528  24.726   9.005  0.1554 -0.2451  0.0574
    1W        W38496   2.452  12.884   8.981  0.0208  0.2497 -0.0205
    1W        W38497  28.246  29.478   8.075 -0.0174  0.0933 -0.1159
    1W        W38498  28.138   9.016   7.688  0.2941 -0.1061  0.1008
    1W        W38499   1.984  16.201   7.417  0.2099 -0.0984 -0.2526
    1W        W38500   7.476   9.292   3.475 -0.1004 -0.2982  0.2080
    1W        W38501   5.777  13.793   8.921  0.2468  0.1504  0.1195
    1W        W38502  13.430  28.356   7.514 -0.1080  0.3558 -0.1427
    1W        W38503  19.805   1.755   7.623 -0.2445  0.1385 -0.3975
    1W        W38504  13.526  26.806   0.998 -0.1826  0.1516 -0.2447
    1W        W38505   4.957   4.292   8.644  0.2715 -0.0129 -0.1770
    1W        W38506  18.269  10.586   7.833 -0.1565 -0.3307 -0.0282
    1W        W38507  23.621   8.870   6.355 -0.2247 -0.0218  0.0707
    1W        W38508  20.586   7.779   8.127 -0.0480  0.3082 -0.0423
    1W        W38509  27.771  29.179   2.268 -0.0460  0.1147 -0.1924
    1W        W38510   8.919  15.808   1.434  0.1028  0.1691  0.0589
    1W        W38511   9.334   0.835   6.867 -0.0300  0.0389  0.0098
    1W        W38512  17.787  24.248   8.298  0.2737  0.0617 -0.1701
    1W        W38513   9.893  22.074   0.939 -0.3176 -0.2267 -0.0779
    1W        W38514  19.879   4.747   0.691 -0.1447 -0.0812 -0.2505
    1W        W38515  25.573  25.269   0.489  0.1208  0.1656 -0.3296
    1W        W38516  10.338  22.777   3.086 -0.1055  0.2063  0.1115
    1W        W38517   9.242  13.682   2.864 -0.2876 -0.0614 -0.1239
    1W        W38518  18.910   8.013   7.573 -0.3581 -0.0528  0.0947
    1W        W38519  26.099  28.279   8.468  0.3048 -0.1038  0.0888
    1W        W38520   7.692   2.038   3.116 -0.0062  0.2448  0.0345
    1W        W38521   1.759  27.214   2.083  0.0164  0.2737 -0.0418
    1W        W38522  16.526  14.312   2.099 -0.0682 -0.1220 -0.3680
    1W        W38523   7.556  11.157   9.303  0.1978 -0.1463 -0.1229
    1W        W38524  15.266  24.409   1.496  0.0443  0.0889  0.0681
    1W        W38525   3.676  21.016   1.206  0.1320  0.0493  0.1712
    1W        W38526  19.791  25.474   7.134 -0.2757  0.1431 -0.2701
    1W        W38527   1.017  23.754   9.337 -0.0635  0.0146  0.2680
    1W        W38528   8.729  26.715   8.282 -0.0520  0.0101  0.0406
    1W        W38529   5.271   9.686   0.699 -0.0095  0.1643 -0.2886
    1W        W38530   5.030   1.581   8.760 -0.3328 -0.6825  0.0223
    1W        W38531   1.041  25.675   0.830  0.0634 -0.0084  0.0039
    1W        W38532   1.635  11.541   2.425 -0.1241 -0.3727  0.0855
    1W        W38533   4.293  15.366   0.624 -0.0099  0.0791  0.1524
    1W        W38534  24.981  22.711   1.601 -0.1437  0.0272  0.1947
    1W        W38535  23.456  26.887   3.013  0.1139 -0.2301  0.0296
    1W        W38536  13.232  16.163   8.483  0.0410 -0.2032  0.3100
    1W        W38537  18.922  26.634   8.089 -0.0007 -0.1535  0.1888
    1W        W38538  18.805   3.159   0.704  0.0827  0.0601 -0.1521
    1W        W38539   4.429   6.459   0.835  0.1984  0.0898  0.0360
    1W        W38540  22.934  14.968   7.293  0.0805  0.1283 -0.1457
    1W        W38541   1.810   2.619   8.249  0.2385  0.0119  0.0897
    1W        W38542  10.547  15.457   7.180 -0.5818  0.1692 -0.4270
    1W        W38543  13.571  13.530   1.566  0.0262 -0.1400  0.2729
    1W        W38544  21.682  15.108   2.089 -0.4328 -0.0964  0.2351
    1W        W38545   6.017  10.001   7.885 -0.1370  0.0775  0.3036
    1W        W38546   5.077   4.160   2.964  0.1667 -0.0664 -0.0832
    1W        W38547  16.647  10.470   6.603  0.1210 -0.2102 -0.0187
    1W        W38548  22.477  16.880   8.394 -0.2132 -0.2412 -0.0848
    1W        W38549  24.568  27.383   6.761 -0.1654 -0.0880 -0.1829
    1W        W38550  17.996  11.647   2.369 -0.1024  0.1777  0.1017
    1W        W38551   9.415   7.551   2.037  0.0006  0.4065  0.1303
    1W        W38552  11.751   6.275   3.577  0.1622 -0.6375 -0.3252
    1W        W38553  20.543  18.524   7.584 -0.2702  0.0468  0.1092
    1W        W38554  21.003  22.847   6.971 -0.1858  0.1390  0.2035
    1W        W38555  28.986  10.399   9.393 -0.3906  0.0618 -0.0489
    1W        W38556   7.893  18.772   8.887  0.1850 -0.0477 -0.2549
    1W        W38557  27.578  18.027   8.369  0.3822  0.1054  0.0120
    1W        W38558  19.125   9.338   1.500  0.1156  0.2825 -0.0640
    1W        W38559   0.983   3.833   2.638 -0.1187 -0.0597 -0.1658
    1W        W38560  24.917  14.680   7.331  0.1515 -0.1801  0.0425
    1W        W38561  18.601  20.519   8.887  0.1194 -0.1872  0.0863
    1W        W38562  18.463  11.953   9.224 -0.2164 -0.2171 -0.0052
    1W        W38563  10.034   5.239   8.653  0.1775  0.0480  0.0572
    1W        W38564  26.292  15.375   0.236  0.1039 -0.0076 -0.1475
    1W        W38565  12.170  19.149   2.263 -0.0580 -0.0703 -0.1919
    1W        W38566   9.837   0.778   8.759 -0.2489 -0.0278 -0.0726
    1W        W38567   7.818   7.971   0.707  0.0071 -0.1168  0.0793
    1W        W38568  10.434   9.779   8.702 -0.2797 -0.4043  0.0083
    1W        W38569  23.359  28.375   9.007 -0.0392 -0.0429  0.0641
    1W        W38570  27.480  27.055   3.422  0.1826 -0.1843  0.2698
    1W        W38571   2.714  13.839   0.854 -0.1643  0.2271 -0.0405
    1W        W38572   2.096  16.995   9.527  0.0372  0.1712  0.0818
    1W        W38573  16.661   9.539   8.809 -0.1248  0.0610  0.0828
    1W        W38574   3.143  13.481   0.229  0.0037 -0.0834 -0.1511
    1W        W38575  24.706  27.951   8.041  0.3389  0.1889  0.0948
    1W        W38576  15.868   3.188   2.353  0.2159 -0.1083 -0.3216
    1W        W38577   3.630  17.904   8.343  0.0412  0.2802 -0.0499
    1W        W38578   8.281  13.442   1.856  0.1013  0.0241  0.0203
    1W        W38579  18.911  28.962   9.349  0.0046 -0.1770 -0.1098
    1W        W38580  25.268  27.472   6.487 -0.0899  0.1763 -0.0364
    1W        W38581   0.499  20.040   0.169 -0.1140 -0.3359  0.1416
    1W        W38582  12.530   9.845   1.313  0.1384  0.0529 -0.1877
    1W        W38583   5.206  12.974   1.891  0.2178  0.1695 -0.0267
    1W        W38584  24.789  15.353   8.593 -0.3982  0.0393  0.0095
    1W        W38585  22.430  18.609   7.391 -0.3667 -0.1762 -0.0549
    1W        W38586   9.231   1.061   7.517 -0.1302 -0.0442 -0.0638
    1W        W38587  14.438  16.920   1.496 -0.1970 -0.3016  0.1113
    1W        W38588  19.497  19.945   7.521  0.3015  0.2275 -0.2119
    1W        W38589  28.175  20.954   8.184 -0.2216 -0.1106 -0.3563
    1W        W38590  20.040   3.146   8.662  0.2250  0.2118 -0.0772
    1W        W38591   7.717  24.494   2.082  0.1096  0.1763 -0.0502
    1W        W38592   2.156  26.936   0.606  0.1742  0.0541 -0.1847
    1W        W38593   5.034  25.072   8.991 -0.2482 -0.0235  0.0266
    1W        W38594  20.875   0.774   2.762 -0.1540 -0.1794 -0.0608
    1W        W38595   2.642  18.323   6.193 -0.0893 -0.0578  0.0475
    1W        W38596   2.741  27.989   7.029 -0.0165 -0.0832  0.1716
    1W        W38597  15.913   0.648   8.841  0.0416  0.1889  0.2854
    1W        W38598   4.447   5.939   7.825  0.1146  0.0996  0.4192
    1W        W38599  22.273  15.651   6.325  0.3255 -0.1162 -0.1818
    1W        W38600   2.601  28.258   8.853 -0.1037 -0.1076 -0.0474
    1W        W38601   1.268  15.312   7.704 -0.3886 -0.3526  0.2192
    1W        W38602  16.311  17.544   1.701  0.0849  0.0044 -0.3507
    1W        W38603   5.191  13.461   7.246 -0.0821  0.0361  0.1350
    1W        W38604   0.153  29.538   0.819  0.0301  0.0340 -0.0558
    1W        W38605   4.786  25.426   6.715  0.1401 -0.1419 -0.2067
    1W        W38606   5.651  28.591   9.537 -0.1986  0.1902  0.1898
    1W        W38607  26.186   9.963   7.429  0.0160  0.0656 -0.1018
    1W        W38608  29.013  13.695   8.214  0.1805 -0.1455 -0.1192
    1W        W38609   3.672   2.298   3.104 -0.0582 -0.0836  0.3294
    1W        W38610   6.048  22.112   2.297  0.0550  0.2277 -0.1429
    1W        W38611  28.504  26.483   2.674  0.2728  0.0741  0.0489
    1W        W38612  17.873   9.633   7.425 -0.0748 -0.1381  0.0299
    1W        W38613  14.652  11.940   0.324  0.2470 -0.3307 -0.3063
    1W        W38614  20.354  10.278   0.180  0.0166 -0.0969  0.1078
    1W        W38615   6.306   3.855   9.198  0.0109  0.0144  0.0515
    1W        W38616  17.431  27.352   7.162  0.0507  0.0551  0.3581
    1W        W38617  28.917  29.714   9.261 -0.1949  0.1569  0.0803
    1W        W38618  13.298  28.179   2.973 -0.2304 -0.1139  0.1513
    1W        W38619  19.035  11.502   8.717 -0.1293  0.1546  0.0401
    1W        W38620   4.958  20.918   0.381  0.2557 -0.0997  0.1728
    1W        W38621  10.639   6.993   2.839 -0.1341 -0.5401 -0.0021
    1W        W38622  22.025   7.196   3.121 -0.1832 -0.3992 -0.2724
    1W        W38623  20.620  12.284   0.911  0.5571 -0.2051  0.1351
    1W        W38624  22.363  10.549   0.354  0.0602 -0.0563  0.1787
    1W        W38625  16.219  21.391   2.208 -0.2200  0.0651 -0.0730
    1W        W38626  16.971   8.052   1.708  0.2653  0.2199 -0.2949
    1W        W38627  16.046   3.990   7.482  0.2139 -0.1263  0.1464
    1W        W38628  13.197   8.825   2.618 -0.0655 -0.1337  0.2587
    1W        W38629   6.117  10.697   1.497 -0.0390  0.1198 -0.2464
    1W        W38630  10.110  17.913   0.924 -0.0810 -0.2459 -0.3128
    1W        W38631  28.226  21.941   6.782 -0.0845  0.0090  0.2299
    1W        W38632  29.217  22.886   2.529 -0.0989  0.1219  0.1663
    1W        W38633   3.491   9.083   8.383 -0.1077  0.2196  0.0229
    1W        W38634   1.278  27.604   1.111  0.0954  0.2114 -0.1836
    1W        W38635  15.341  22.588   7.688 -0.0359 -0.0074 -0.0211
    1W        W38636  11.601  27.040   2.424  0.1630 -0.0040 -0.0958
    1W        W38637  18.389  24.734   8.258 -0.4236  0.2727  0.0262
    1W        W38638  11.053  18.382   1.870 -0.2135 -0.1252 -0.2953
    1W        W38639  15.997  29.015   3.071 -0.2372  0.4206  0.0024
    1W        W38640  20.349  28.186   2.908  0.0147  0.1025 -0.1944
    1W        W38641   7.195   2.798   3.552 -0.3758 -0.2980  0.0902
    1W        W38642  15.142  24.496   8.166 -0.3243  0.0001 -0.2015
    1W        W38643  12.274  23.820   9.434  0.2151  0.1334 -0.2459
    1W        W38644  14.488  22.823   0.517  0.1485 -0.3364 -0.3239
    1W        W38645  24.280  18.853   6.087  0.0141  0.1221 -0.1733
    1W        W38646  21.967   0.421   0.932 -0.3855 -0.1604  0.0226
    1W        W38647  12.708  19.912   1.852  0.1315 -0.1664 -0.0777
    1W        W38648   5.270   3.849   8.879  0.1065 -0.0020  0.2587
    1W        W38649  15.605  15.175   8.276 -0.0568 -0.0125 -0.0870
    1W        W38650  14.952   5.321   3.549 -0.1450  0.2074 -0.0192
    1W        W38651  19.315  29.480   2.789 -0.1155 -0.1136 -0.1167
    1W        W38652   9.845  13.078   7.759  0.2114  0.0193 -0.0180
    1W        W38653  28.392   2.580   0.013  0.1449  0.1228 -0.1555
    1W        W38654   9.906  27.788   8.374  0.1477 -0.0872  0.0196
    1W        W38655  11.599  12.103   0.298 -0.1197  0.0851  0.6300
    1W        W38656   3.021  18.404   8.969  0.1351 -0.0722  0.0140
    1W        W38657  22.189   7.066   0.454 -0.0363  0.0079 -0.0799
    1W        W38658  24.231  11.960   9.425  0.0472  0.0194 -0.1096
    1W        W38659  18.962  18.852   7.606 -0.0303 -0.1688  0.0077
    1W        W38660  18.120  22.755   3.271  0.1282  0.0327  0.0139
    1W        W38661  21.061  26.594   8.048  0.0508  0.0982 -0.2351
    1W        W38662  22.970   3.917   0.781 -0.0521  0.0223 -0.2566
    1W        W38663  29.762  11.575   9.140 -0.2443 -0.0392  0.1559
    1W        W38664  10.854  17.212   8.779 -0.0591  0.0483  0.1259
    1W        W38665   9.838   5.210   0.970  0.2879 -0.0830  0.0749
    1W        W38666  22.639  13.037   0.713  0.4653  0.2144  0.0474
    1W        W38667   0.883  24.133   7.396 -0.0300  0.0263 -0.3209
    1W        W38668  17.912  21.856   8.712 -0.3051 -0.1717 -0.0378
    1W        W38669   0.039  26.210   0.125  0.1207 -0.0860 -0.2322
    1W        W38670  20.142   1.291   2.875 -0.1521 -0.0569  0.3053
    1W        W38671  28.179   9.619   0.254  0.0566 -0.0070  0.0363
    1W        W38672  17.547   8.814   2.409 -0.1886  0.2285 -0.2149
    1W        W38673  17.281  22.757   7.952  0.1583  0.1185  0.2782
    1W        W38674  21.122  14.848   6.692 -0.1565  0.0205 -0.1608
    1W        W38675  14.716   6.913   2.655  0.3659  0.0816  0.3428
    1W        W38676  14.956   9.290   3.047  0.0934 -0.1173 -0.1510
    1W        W38677  20.253  24.473   2.726 -0.0711 -0.0014 -0.1900
    1W        W38678  11.559  17.136   7.487  0.5277  0.0768  0.0032
    1W        W38679   9.598  12.548   8.335 -0.0367 -0.0740 -0.0624
    1W        W38680  13.569   5.270   1.029  0.2110 -0.5794 -0.1099
    1W        W38681   9.283  20.433   1.415 -0.0311 -0.0893 -0.1548
    1W        W38682  26.357  12.113   1.647  0.0875 -0.3988  0.2328
    1W        W38683  19.086   9.938   6.082 -0.4339 -0.3253  0.0650
    1W        W38684  12.035  29.310   1.071 -0.2362 -0.2660 -0.1205
    1W        W38685  25.542  13.593   6.116 -0.0081 -0.2273 -0.3013
    1W        W38686  28.282  24.968   9.040 -0.0966  0.1836 -0.2055
    1W        W38687  23.516  14.680   9.500 -0.0390  0.2370  0.1295
    1W        W38688  29.635   1.391   7.155 -0.2692 -0.1322 -0.0543
    1W        W38689   1.975   1.884   7.469  0.5274 -0.0628 -0.0736
    1W        W38690  23.123  13.006   8.066  0.5137  0.0647 -0.0428
    1W        W38691  13.789   7.801   0.086  0.1097  0.2106 -0.4501
    1W        W38692  11.556   2.324   8.423 -0.0195  0.1448 -0.1038
    1W        W38693   9.824  17.190   2.915 -0.0674  0.1476 -0.2906
    1W        W38694  24.241   9.824   8.824 -0.0792  0.0550 -0.1206
    1W        W38695  18.199  16.172   2.029 -0.1081  0.2307  0.0713
    1W        W38696  11.641  28.210   8.483  0.0788  0.5144  0.0612
    1W        W38697   1.250  29.402   6.575  0.0632  0.1592 -0.0580
    1W        W38698  20.087  14.313   6.993  0.1485  0.1410  0.2868
    1W        W38699  11.746  24.714   6.666 -0.1509  0.1833  0.1883
    1W        W38700  22.792  16.511   6.290 -0.3135 -0.1390  0.0458
    1W        W38701   4.357   3.145   9.189  0.1792 -0.1560  0.1347
    1W        W38702   0.444   1.187   9.502 -0.1861 -0.0879  0.0605
    1W        W38703  16.289  13.334   1.978  0.3375 -0.0090 -0.1820
    1W        W38704  13.867  26.779   6.180 -0.1199 -0.0860  0.0223
    1W        W38705  15.580  22.508   9.391  0.0964  0.0640  0.0422
    1W        W38706  12.113  19.868   7.358 -0.0832 -0.1478  0.0920
    1W        W38707   5.122  20.307   1.878  0.0474 -0.1308  0.0315
    1W        W38708  29.283  22.834   7.621 -0.2755 -0.0608  0.0177
    1W        W38709  27.324   5.845   0.916  0.0212  0.0649 -0.0844
    1W        W38710  27.062   2.563   1.790 -0.3433  0.0581  0.1021
    1W        W38711   3.129  27.568   7.228 -0.1527 -0.0024 -0.4311
    1W        W38712  20.110  29.629   8.950  0.2918  0.1666  0.4299
    1W        W38713   2.821   6.861   6.872  0.0895 -0.2098 -0.1511
    1W        W38714  24.713  14.376   8.345 -0.0974  0.4654 -0.0752
    1W        W38715  25.018  17.597   0.490  0.2373 -0.0453  0.0699
    1W        W38716   8.537  19.060   1.941  0.2001 -0.2206 -0.0539
    1W        W38717  17.689  26.281   7.596 -0.1661  0.1415 -0.1286
    1W        W38718  10.474   8.949   7.629  0.4414  0.1607 -0.1227
    1W        W38719  11.423  16.193   2.178 -0.1890 -0.1039  0.0199
    1W        W38720   5.502   7.959   7.046 -0.0449  0.1519  0.2043
    1W        W38721  15.463  17.176   8.368  0.1855  0.1602 -0.0040
    1W        W38722  14.509   5.395   2.140  0.0523  0.1325  0.0786
    1W        W38723  12.428   5.087   1.702  0.0869  0.2335 -0.0686
    1W        W38724  18.242  19.794   2.324 -0.1512  0.0899  0.1118
    1W        W38725  10.629  27.379   3.504  0.1436  0.0762 -0.0350
    1W        W38726  22.420  17.685   0.824 -0.0794 -0.2769 -0.0069
    1W        W38727  26.351  16.793   7.708 -0.1121  0.1337 -0.1861
    1W        W38728  13.481  16.867   9.315  0.0140 -0.1989 -0.1166
    1W        W38729   0.182  24.130   1.651 -0.1555  0.0678 -0.1660
    1W        W38730  23.114  28.716   8.648  0.1784 -0.1415  0.0390
    1W        W38731  19.838  26.795   7.435 -0.4446 -0.1369  0.1305
    1W        W38732  21.886   7.889   7.365  0.3812 -0.2193 -0.1183
    1W        W38733  20.130  18.290   2.557 -0.1848 -0.1309 -0.2396
    1W        W38734  15.021  18.898   6.963 -0.2281  0.2227 -0.0952
    1W        W38735   6.621  11.559   1.835 -0.1078  0.0568 -0.3024
    1W        W38736  17.763  21.256   8.869 -0.1246  0.0436 -0.5418
    1W        W38737  15.085   4.178   9.191  0.1767 -0.3099  0.2423
    1W        W38738  12.686  24.794   8.289 -0.3004 -0.1151  0.0084
    1W        W38739  18.258  18.772   7.422 -0.0157  0.0009  0.0847
    1W        W38740   7.994  21.018   1.540  0.5063 -0.3690  0.0974
    1W        W38741  24.643  17.032   4.472 -0.3336  0.0716 -0.1167
    1W        W38742   2.173  25.026   7.893  0.0872 -0.0522 -0.0467
    1W        W38743  16.753  13.118   9.250  0.0389  0.1066 -0.1707
    1W        W38744  21.972  25.199   8.633  0.1862 -0.2433 -0.0076
    1W        W38745  21.866   4.982   1.984 -0.1349 -0.3559  0.2487
    1W        W38746   6.436  11.462   9.395 -0.0576  0.2470 -0.0994
    1W        W38747  28.296  17.080   5.754 -0.2246 -0.2154 -0.0725
    1W        W38748  11.398   3.004   1.237  0.0161  0.2310  0.0163
    1W        W38749  17.610   8.898   7.726 -0.2543  0.4522 -0.4286
    1W        W38750  10.566  29.042   3.452 -0.3862 -0.2310  0.2717
    1W        W38751   3.774   8.991   1.387 -0.0694 -0.0260  0.2619
    1W        W38752  20.445  12.331   1.462  0.1182 -0.2382 -0.0600
    1W        W38753  20.878  23.933   0.822 -0.1738 -0.1263 -0.2768
    1W        W38754  23.904  24.710   2.519  0.0909  0.1815  0.0454
    1W        W38755   0.753  10.575   6.796 -0.0371 -0.0650  0.3234
    1W        W38756  19.513   9.024   7.079 -0.1474 -0.2431  0.0716
    1W        W38757  19.003   9.505   8.540  0.2249 -0.0209  0.1848
    1W        W38758   6.281  25.785   6.338  0.2797  0.0557 -0.0721
    1W        W38759   2.285   5.677   0.463  0.1382 -0.0214  0.2053
    1W        W38760  20.159   0.976   1.329 -0.0203 -0.1187 -0.1630
    1W        W38761  26.309  15.119   7.926 -0.0181 -0.0762  0.0184
    1W        W38762   7.142  24.545   0.490  0.2955 -0.3841 -0.0023
    1W        W38763   1.654  17.043   7.194 -0.0306  0.1452  0.2158
    1W        W38764  19.210  23.095   2.278  0.2556 -0.2943  0.1500
    1W        W38765  17.021  12.742   5.917 -0.2835 -0.0375  0.0371
    1W        W38766   0.771   2.443   2.668  0.0743 -0.0148 -0.0509
    1W        W38767  10.341   7.457   7.023  0.0686 -0.2848  0.1095
    1W        W38768   1.324   8.522   6.426 -0.1692  0.1576 -0.0667
    1W        W38769  11.466  15.251   0.126 -0.2520 -0.0130  0.0814
    1W        W38770   2.965   7.910   1.892  0.2477  0.1802  0.0007
    1W        W38771   8.963  29.589   6.995  0.1523  0.1523 -0.2777
    1W        W38772  23.462  19.830   0.986  0.0958  0.5588 -0.0877
    1W        W38773  10.522  21.806   8.788  0.0369  0.2178 -0.1683
    1W        W38774   9.323  29.021   3.707  0.1240 -0.1294 -0.0291
    1W        W38775   4.948  25.939   0.687 -0.0971  0.1587  0.1049
    1W        W38776  14.400   9.433   8.077 -0.0083  0.0751  0.1400
    1W        W38777   4.510  29.730   1.740  0.1583  0.1619  0.0028
    1W        W38778  12.025  13.093   2.499  0.0259 -0.1693 -0.1892
    1W        W38779  21.000   9.891   6.510 -0.2385  0.1126 -0.0497
    1W        W38780   2.873  23.576   9.462  0.1546 -0.2520  0.0228
    1W        W38781   3.048   4.482   9.210  0.0345 -0.2765 -0.1579
    1W        W38782   4.757   0.394   9.245  0.0823  0.1093  0.3344
    1W        W38783   8.438  20.267   1.168  0.2198 -0.2337  0.1792
    1W        W38784   8.224  29.468   0.132 -0.2168  0.0955  0.0575
    1W        W38785  27.728   9.227   9.073 -0.0043  0.1300  0.1934
    1W        W38786  17.708  17.376   2.367  0.0746 -0.0275  0.1205
    1W        W38787  22.649   7.078   0.610  0.3195 -0.4300  0.0930
    1W        W38788  12.508   4.451   8.199 -0.1922  0.1217 -0.0609
    1W        W38789  18.174  26.919   1.607 -0.3097  0.0227 -0.0959
    1W        W38790  20.712  18.432   0.484 -0.0524 -0.3120  0.1460
    1W        W38791   6.982  15.459   2.245 -0.0159  0.0574  0.0763
    1W        W38792  25.155  16.082   8.596  0.3579 -0.0848  0.0202
    1W        W38793  14.106   2.963   3.024 -0.1315 -0.0063  0.3860
    1W        W38794  14.523   3.542   1.828  0.0249 -0.0840  0.0038
    1W        W38795  24.292   6.912   1.545 -0.0879 -0.0588 -0.2899
    1W        W38796  25.514  23.825   8.907  0.0312  0.1747  0.0091
    1W        W38797  26.247   9.048   9.230 -0.0154 -0.2099  0.1002
    1W        W38798  25.476   4.721   1.627 -0.0116  0.2274  0.2318
    1W        W38799   5.712  17.935   7.856 -0.3574  0.3065 -0.0046
    1W        W38800  22.381  16.117   7.880  0.3423  0.2253  0.0914
    1W        W38801  23.413  25.230   8.539 -0.2931 -0.2583  0.0034
    1W        W38802  21.994  11.193   7.244 -0.1616  0.0356 -0.0952
    1W        W38803   9.091   0.890   1.075 -0.1569  0.4069  0.1441
    1W        W38804  16.302   7.290   1.398 -0.1298  0.4648 -0.0896
    1W        W38805  13.371   8.716   3.423  0.1516  0.1783 -0.0657
    1W        W38806  27.022  10.076   1.842  0.1422  0.0578  0.0639
    1W        W38807  19.119  26.065   9.340 -0.0751  0.0363  0.1614
    1W        W38808  23.484  17.212   1.323 -0.2669 -0.3368 -0.1926
    1W        W38809  16.075  17.652   1.237  0.1675  0.0438  0.4859
    1W        W38810  12.310   1.490   7.853 -0.0741  0.1305  0.1592
    1W        W38811  17.911   9.814   8.180  0.1334 -0.0334 -0.1822
    1W        W38812   3.578  23.766   0.355  0.1816 -0.0007 -0.1531
    1W        W38813   7.787  12.343   2.211 -0.3287  0.1705 -0.0813
    1W        W38814   0.231   0.368   9.169 -0.1081 -0.2261  0.0323
    1W        W38815  17.925  28.188   7.631 -0.2986 -0.3275 -0.3930
    1W        W38816   4.287  10.366   8.042 -0.0336  0.0369  0.0583
    1W        W38817  16.727  17.632   7.765 -0.3138  0.3516 -0.1839
    1W        W38818  18.054  11.876   8.984 -0.1180  0.0051 -0.0981
    1W        W38819   5.458  21.960   7.394 -0.0357  0.3811 -0.0929
    1W        W38820   7.074  21.122   2.096  0.0266  0.0521 -0.1090
    1W        W38821   7.244  28.153   1.126 -0.0597  0.0264 -0.0283
    1W        W38822   0.820   0.537   1.051 -0.2320 -0.2500  0.1619
    1W        W38823  18.327   1.393   3.204  0.1968  0.3740 -0.2546
    1W        W38824   9.466  11.401   2.680  0.0805 -0.0111 -0.1634
    1W        W38825  28.857  15.312   1.087 -0.0312  0.0422 -0.1949
    1W        W38826   0.296  13.541   0.551 -0.0952 -0.0171  0.1156
    1W        W38827  20.697  20.311   0.157  0.0809  0.0924  0.0034
    1W        W38828  18.666  10.188   1.606  0.1683 -0.0162 -0.1102
    1W        W38829   2.129   0.608   0.186  0.2872  0.2780 -0.0152
    1W        W38830  22.800   6.684   7.028 -0.4183 -0.0914  0.1507
    1W        W38831   8.271   5.631   8.242  0.3963  0.0060  0.0199
    1W        W38832  24.861   7.474   3.351  0.4111  0.2835  0.1685
    1W        W38833  20.286  18.505   5.686  0.0868  0.1997  0.1545
    1W        W38834  28.844  22.134   8.227 -0.0948 -0.2216  0.4645
    1W        W38835  22.858  20.864   5.614  0.0457 -0.2263  0.2495
    1W        W38836  26.511   2.857   6.302 -0.3563 -0.2562 -0.0439
    1W        W38837  11.027   5.117   7.635  0.2327  0.0499  0.2461
    1W        W38838   1.560  13.461   1.640  0.2544  0.1688 -0.1359
    1W        W38839  17.988   4.302   2.539  0.0726 -0.1706 -0.0587
    1W        W38840  16.205  23.100   7.822 -0.0556  0.0404 -0.0007
    1W        W38841  10.451  19.442   7.158 -0.2003  0.0593 -0.3010
    1W        W38842   0.495   1.862   0.596 -0.1027  0.0651  0.1969
    1W        W38843   3.198  27.981   5.971  0.1306  0.1675 -0.0576
    1W        W38844  23.943   3.124   8.444  0.0712 -0.0641  0.0816
    1W        W38845  17.515  27.979   7.778 -0.1824 -0.1842  0.0465
    1W        W38846   9.901  18.765   8.481 -0.0967  0.1422 -0.1034
    1W        W38847  13.592  14.628   0.315 -0.0991  0.3222 -0.1357
    1W        W38848   9.314   1.626   8.902  0.1591  0.0548  0.0044
    1W        W38849  10.465  26.800   2.015  0.0660  0.1138  0.0994
    1W        W38850   2.654  11.256   7.579 -0.3914 -0.1649 -0.2976
    1W        W38851   0.667  22.322   1.509 -0.2073 -0.1387 -0.0328
    1W        W38852   7.268  29.022   2.922 -0.1194 -0.2600  0.0392
    1W        W38853   6.416  13.616   7.925  0.2067  0.0310 -0.1604
    1W        W38854   4.336  19.106   1.426 -0.0375  0.0990 -0.1598
    1W        W38855  13.828   9.868   6.487 -0.2362  0.0150  0.5023
    1W        W38856  17.005   6.052   9.275  0.2743  0.0828  0.4142
    1W        W38857   2.115  26.773   2.927 -0.3152  0.0835 -0.0510
    1W        W38858  21.759   9.921   0.613  0.0770  0.0685 -0.4076
    1W        W38859  10.834  14.578   9.238 -0.1480 -0.0805  0.0475
    1W        W38860  16.263   3.938   1.015 -0.0267 -0.3722 -0.2209
    1W        W38861   1.073   3.365   8.052 -0.0003  0.3000 -0.0955
    1W        W38862  26.262  19.106   8.036  0.0104  0.0280  0.1949
    1W        W38863  18.277  24.130   1.223  0.1884  0.0063  0.2234
    1W        W38864  26.988  22.285   2.048  0.0633  0.0549 -0.3232
    1W        W38865  24.710   3.402   1.766 -0.2023 -0.0514  0.0081
    1W        W38866  16.864  14.735   1.852 -0.0651 -0.2766  0.1218
    1W        W38867  19.849   5.741   0.646  0.1414  0.0702  0.0292
    1W        W38868  17.177  16.185   9.236  0.1510 -0.1296  0.1361
    1W        W38869  20.723   9.359   7.074  0.1258 -0.0509  0.0559
    1W        W38870  11.422  27.596   6.965 -0.1609  0.0440  0.1454
    1W        W38871  13.361   3.713   3.056  0.0456 -0.2013 -0.1202
    1W        W38872   5.296  18.792   7.176 -0.3629 -0.0204 -0.0747
    1W        W38873   8.802  10.305   6.364 -0.1221  0.1769  0.0920
    1W        W38874  29.178  26.283   1.259 -0.1110 -0.0148  0.1231
    1W        W38875   1.990   4.061   9.013  0.2091  0.0631 -0.2322
    1W        W38876   0.673  26.596   9.028  0.0270 -0.1694 -0.1380
    1W        W38877  21.663   3.081   7.830  0.0818  0.0112 -0.2971
    1W        W38878  21.679   1.572   9.139  0.1479  0.0735  0.1517
    1W        W38879  11.146  17.188   1.047  0.2988 -0.2742 -0.0431
    1W        W38880  20.730   9.800   3.126  0.2235 -0.1078  0.0442
    1W        W38881  14.859  27.171   2.276 -0.0791 -0.1881 -0.1371
    1W        W38882  29.575  10.543   9.213  0.0271  0.0232 -0.2637
    1W        W38883  28.739  21.971   0.363 -0.2004  0.0374 -0.0819
    1W        W38884  14.772  10.650   2.587  0.0673  0.2492 -0.0146
    1W        W38885  22.895  17.552   8.776 -0.0082 -0.0705 -0.1432
    1W        W38886  16.086  24.965   7.192 -0.0606  0.0387  0.2140
    1W        W38887  19.551   8.047   1.972 -0.1283 -0.1536  0.0333
    1W        W38888  14.521  13.836   9.518 -0.2377  0.0175 -0.1642
    1W        W38889  25.505   4.372   2.543 -0.2308 -0.1646  0.1349
    1W        W38890   6.641  28.878   7.262 -0.0091  0.0645 -0.1759
    1W        W38891  24.792   2.366   7.889  0.0436 -0.0053 -0.0742
    1W        W38892  17.070  15.087   6.698 -0.1623  0.1133 -0.1707
    1W        W38893   1.925  18.950   9.044  0.0660 -0.0446  0.1553
    1W        W38894  19.413  13.505   6.615  0.2061  0.2590  0.0957
    1W        W38895  12.137   5.231   8.251 -0.0155  0.0468  0.0772
    1W        W38896  12.260   0.193   6.920  0.4375  0.1820  0.0280
    1W        W38897  12.411  19.237   9.072  0.0262 -0.2698 -0.2119
    1W        W38898  12.425  14.695   7.854  0.1756 -0.1325 -0.1289
    1W        W38899  22.042  12.571   9.396  0.1929 -0.0348 -0.0220
    1W        W38900   6.113  22.455   1.899 -0.2000 -0.1960  0.3790
    1W        W38901   4.246  24.411   8.525  0.1289  0.1646  0.0753
    1W        W38902  28.226  21.079   1.697  0.0378  0.2166  0.1749
    1W        W38903   6.717  21.880   6.724  0.0242  0.2195  0.0803
    1W        W38904  28.113  21.926   9.267 -0.1004  0.2135  0.0674
    1W        W38905  13.479  25.581   8.514  0.2919  0.3743 -0.3866
    1W        W38906  12.982  27.634   2.037  0.3140  0.0159 -0.4957
    1W        W38907  11.631  24.882   1.886  0.0541 -0.1120 -0.0609
    1W        W38908  13.792  14.880   2.566  0.0383  0.1593 -0.3718
    1W        W38909  11.874  26.131   2.167 -0.2386 -0.1314  0.1615
    1W        W38910  12.258   5.969   7.478  0.2062  0.1321  0.0661
    1W        W38911   9.476  28.540   3.131  0.2382 -0.1165  0.0812
    1W        W38912  18.103  21.709   8.258 -0.0642 -0.1913 -0.0751
    1W        W38913   2.712  15.240   8.056 -0.0286  0.1190 -0.0494
    1W        W38914   5.393   2.872   2.379  0.2569  0.3206  0.0850
    1W        W38915   1.681  17.222   1.244 -0.0134 -0.1125 -0.1130
    1W        W38916   8.962   5.586   7.656 -0.2441 -0.2266 -0.1294
    1W        W38917   7.153  12.084   8.374  0.0682 -0.3184 -0.1758
    1W        W38918  11.810  20.612   7.485 -0.1935  0.4775 -0.0668
    1W        W38919  19.261  15.320   7.578  0.2456  0.1826  0.2272
    1W        W38920  12.546  19.920   7.668 -0.1010  0.0745 -0.1676
    1W        W38921  22.618  16.878   0.678  0.0476  0.0210  0.0301
    1W        W38922   6.036   6.833   2.485  0.2242  0.2133 -0.2085
    1W        W38923   9.196  13.899   6.975 -0.0206  0.2072 -0.1694
    1W        W38924   9.891  20.632   7.541  0.1190 -0.2712  0.0131
    1W        W38925  28.005  27.754   8.592 -0.1703  0.0875 -0.2916
    1W        W38926  16.340   6.649   6.839  0.4233  0.0958  0.3874
    1W        W38927  28.287  17.141   6.898 -0.3632  0.1829 -0.1359
    1W        W38928  28.976  20.215   9.040 -0.1900  0.1775 -0.1048
    1W        W38929  26.399  16.962   7.157 -0.1161  0.1324 -0.1899
    1W        W38930  23.994   9.032   7.591 -0.2038 -0.0273  0.5116
    1W        W38931  20.956  26.347   2.205 -0.3263 -0.0731  0.1935
    1W        W38932  12.941   5.331   7.102  0.1466  0.0227  0.1723
    1W        W38933  12.873  14.615   0.654 -0.3053 -0.0753  0.1298
    1W        W38934   5.890  16.773   7.886 -0.0784 -0.1807  0.2949
    1W        W38935  18.887   2.228   7.871 -0.0720  0.0253 -0.0170
    1W        W38936  14.571   5.168   6.732 -0.0988  0.0408  0.1508
    1W        W38937  10.268  17.430   1.344  0.1127  0.1533  0.0873
    1W        W38938  15.104  14.826   7.738 -0.0790 -0.1225  0.2334
    1W        W38939  13.943  15.605   2.013  0.1709  0.0369 -0.0568
    1W        W38940  28.506  11.461   8.262 -0.1651 -0.1942 -0.0882
    1W        W38941  10.722   4.733   7.366 -0.0102  0.1719 -0.0383
    1W        W38942  24.025  16.324   7.314 -0.0914 -0.1583 -0.0739
    1W        W38943   9.535  24.768   7.614  0.0855 -0.1096  0.0791
    1W        W38944  29.310  13.230   6.500 -0.2995  0.2076 -0.0819
    1W        W38945   7.499  24.224   3.165  0.2100 -0.4250 -0.2097
    1W        W38946  12.571  26.628   6.547 -0.1184 -0.1523 -0.1311
    1W        W38947  16.013  12.821   1.213 -0.2383 -0.0673 -0.5504
    1W        W38948  13.631   5.588   9.098  0.1048 -0.1599  0.2626
    1W        W38949  16.577   7.358   6.804  0.3245 -0.3506  0.3596
    1W        W38950  28.369   1.546   3.516 -0.2655  0.3305 -0.0321
    1W        W38951   3.511  15.732   9.015  0.0019  0.4789 -0.0562
    1W        W38952  18.916  24.406   2.004  0.0358  0.0298 -0.2849
    1W        W38953  23.003   0.589   1.907 -0.3057 -0.0671  0.2126
    1W        W38954   6.810  22.961   8.678 -0.3179  0.3279  0.4210
    1W        W38955   0.178  10.755   0.778  0.2567 -0.2211  0.2353
    1W        W38956  28.070   0.385   0.455 -0.1362 -0.0705  0.1627
    1W        W38957  14.735   7.756   7.749  0.2725 -0.1102  0.0160
    1W        W38958   3.930  13.373   0.916  0.1650  0.3275  0.1860
    1W        W38959  28.962   0.290   7.933  0.0880  0.0033  0.0961
    1W        W38960  23.813   5.149   8.552 -0.2507  0.1490  0.4644
    1W        W38961  15.946   1.430   1.948  0.2556 -0.1932  0.0116
    1W        W38962  21.825   1.174   1.512 -0.1508  0.1401 -0.2074
    1W        W38963  21.492   4.985   0.981  0.0635  0.0559  0.0079
    1W        W38964  12.912  29.527   0.302 -0.1642  0.4127  0.1231
    1W        W38965   0.026  27.396   2.431 -0.0884 -0.0626  0.1170
    1W        W38966   4.845  18.407   0.402 -0.0060  0.1516  0.2698
    1W        W38967  19.143  23.631   2.608 -0.2417  0.2203  0.0636
    1W        W38968  26.693   6.867   2.443 -0.1785  0.5132 -0.1569
    1W        W38969  28.681  14.312   1.400 -0.0436 -0.0362 -0.0174
    1W        W38970  15.161  25.540   6.866 -0.0407 -0.2150 -0.0702
    1W        W38971  29.008  23.818   8.596  0.1867 -0.1058  0.0680
    1W        W38972  28.279  24.521   8.157 -0.0714  0.1712  0.0525
    1W        W38973   0.192  22.637   1.558 -0.1056 -0.1178  0.2942
    1W        W38974  14.978  17.672   1.964  0.5400  0.2477 -0.1119
    1W        W38975  28.201  28.706   2.087  0.4453 -0.2176 -0.0883
    1W        W38976   0.362  21.015   7.506  0.0705  0.0111 -0.1385
    1W        W38977   8.625  20.376   2.186 -0.0808 -0.0045 -0.2897
    1W        W38978   0.200  15.978   7.716 -0.2259  0.0487  0.0129
    1W        W38979  21.707  17.431   0.723 -0.0434 -0.1021  0.2794
    1W        W38980   1.843  29.358   3.177 -0.0077  0.1195  0.0274
    1W        W38981   3.451   5.375   1.043 -0.2307 -0.1969  0.0072
    1W        W38982  21.068  10.691   7.911 -0.0172 -0.0095 -0.1561
    1W        W38983  19.548   3.474   6.986 -0.1345  0.1991 -0.2296
    1W        W38984   5.735   2.626   0.304  0.2546 -0.1218 -0.3710
    1W        W38985  24.261  21.062   0.164 -0.0003  0.1180 -0.0041
    1W        W38986  21.422  16.103   6.396  0.2637  0.0692 -0.0484
    1W        W38987   5.712  12.977   7.841  0.2193  0.0562 -0.2934
    1W        W38988  24.232  11.001   7.767  0.0808 -0.3522 -0.2959
    1W        W38989   7.538  26.835   6.844 -0.0274  0.0320 -0.1107
    1W        W38990  18.147  13.611   7.260  0.0975 -0.1627  0.5133
    1W        W38991  15.742  23.618   1.008 -0.3058 -0.1698 -0.1121
    1W        W38992  18.972  19.240   0.988  0.2765  0.1119 -0.1053
    1W        W38993   8.669  26.918   1.641 -0.1839 -0.2226  0.2867
    1W        W38994  10.925  23.964   1.562  0.2046 -0.0498  0.0648
    1W        W38995   0.733   8.304   8.208  0.0486  0.1528  0.1464
    1W        W38996  18.902  27.623   6.772  0.4204 -0.0300  0.0288
    1W        W38997  21.271  28.394   0.259  0.0868  0.1440  0.1310
    1W        W38998  16.959   9.952   2.446 -0.0992 -0.0623 -0.1464
    1W        W38999  24.949   5.355   2.138 -0.2643 -0.1719  0.1167
    1W        W39000  16.023  28.816   8.353  0.0815  0.2893 -0.0884
    1W        W39001  29.440  16.441   8.994  0.0631 -0.0493 -0.1304
    1W        W39002  18.243  15.470   9.068 -0.0153 -0.0143  0.0863
    1W        W39003   0.794   4.854   2.369  0.1830 -0.0011 -0.0267
    1W        W39004  23.072   0.815   2.807 -0.1363  0.1355  0.0840
    1W        W39005  14.291  11.691   9.549  0.0796  0.1044 -0.1422
    1W        W39006  29.132  21.691   8.346 -0.1897 -0.0954 -0.0997
    1W        W39007  24.780  21.647   1.501 -0.2642  0.0672  0.2072
    1W        W39008   1.481  18.154   2.102  0.2013 -0.2017 -0.0573
    1W        W39009  25.117  19.539   6.097 -0.1229  0.2423 -0.0583
    1W        W39010   5.644  15.841   7.852 -0.1435 -0.0016  0.0450
    1W        W39011   8.440  11.766   2.593 -0.0266 -0.1006  0.0300
    1W        W39012   3.112  21.879   1.647 -0.2964 -0.0004 -0.0457
    1W        W39013  18.873  20.874   2.356  0.1603  0.0226  0.2098
    1W        W39014   5.602  14.602   1.784 -0.3446  0.2339  0.2361
    1W        W39015  20.103   4.416   8.230 -0.0100  0.0881 -0.1711
    1W        W39016  13.082   8.616   1.961  0.0013 -0.0982 -0.0963
    1W        W39017   3.329   7.948   8.024  0.1475 -0.0467  0.2858
    1W        W39018  26.432   4.608   1.244 -0.1425  0.2293 -0.1351
    1W        W39019  14.495  23.709   7.786  0.0942  0.3739  0.5209
    1W        W39020   5.311  25.705   3.465 -0.0434  0.1686 -0.0898
    1W        W39021  21.189  20.332   9.535  0.0455  0.2739 -0.1552
    1W        W39022   8.406   1.624   3.171 -0.0728 -0.0119  0.2678
    1W        W39023  27.976  26.642   9.143  0.1732  0.0366  0.2291
    1W        W39024  25.580  18.588   0.917 -0.0583  0.2566 -0.2716
    1W        W39025  16.340   7.284   8.198 -0.2942 -0.1872  0.0371
    1W        W39026   0.457   4.894   7.554  0.3685  0.2115 -0.1918
    1W        W39027  18.102   3.256   0.460 -0.1135  0.3803  0.1874
    1W        W39028  11.071  28.327   2.251  0.1984 -0.2517  0.0971
    1W        W39029  21.944   7.285   7.958 -0.0472 -0.2988  0.2297
    1W        W39030  12.779   4.700   6.558  0.1917 -0.1907 -0.1223
    1W        W39031  16.476  14.588   0.545  0.3045 -0.0288  0.1499
    1W        W39032  25.151   2.843   3.189 -0.4582  0.3290 -0.3657
    1W        W39033  27.636  21.927   1.156  0.2512 -0.1797  0.5960
    1W        W39034   9.374  25.632   0.643  0.1120 -0.0791 -0.2095
    1W        W39035   9.351   2.296   1.076 -0.1364 -0.1304 -0.1671
    1W        W39036   6.907   4.869   8.088  0.1147  0.1082  0.2242
    1W        W39037  19.447   1.352   2.443 -0.0946  0.0527 -0.3040
    1W        W39038  18.928   3.578   2.700  0.0212 -0.1621 -0.1041
    1W        W39039  12.179  22.168   2.742 -0.2477 -0.0163  0.0902
    1W        W39040  18.255  21.202   8.117  0.0407 -0.0198 -0.3060
    1W        W39041   8.509  25.686   9.154 -0.1260 -0.0915  0.0896
    1W        W39042  16.821  17.568   1.660  0.2669  0.1499  0.0487
    1W        W39043  16.146   4.205   8.582 -0.1499 -0.2885 -0.3105
    1W        W39044  12.021  10.373   1.939  0.3635  0.0988 -0.3511
    1W        W39045  23.336   5.789   8.348  0.0912  0.0678  0.2564
    1W        W39046  24.289  15.880   5.972 -0.2044 -0.0068 -0.2291
    1W        W39047  24.988  27.448   9.507  0.2005 -0.0325  0.1061
    1W        W39048  26.034   4.710   7.022 -0.1102  0.1478 -0.2352
    1W        W39049  29.636  26.879   6.878  0.2433  0.0611 -0.1231
    1W        W39050  12.548  10.904   8.383 -0.1331  0.2043 -0.1082
    1W        W39051  16.876  14.015   7.454  0.1342  0.3014 -0.1407
    1W        W39052  12.652  17.431   0.114 -0.2221 -0.0227  0.1237
    1W        W39053  10.434  20.997   6.920  0.1155 -0.2815 -0.2803
    1W        W39054  11.562   2.847   8.115 -0.3456  0.0096  0.3274
    1W        W39055   6.655  11.072   0.139  0.0276  0.3237 -0.1070
    1W        W39056   6.348   4.142   7.143 -0.0691  0.3078  0.2335
    1W        W39057   5.112  25.562   8.743  0.0249 -0.1011  0.0542
    1W        W39058   1.707  23.131   7.827 -0.0088 -0.1036 -0.0600
    1W        W39059  26.169  19.967   0.524 -0.2005  0.1733  0.1276
    1W        W39060  15.846  14.750   8.438 -0.1400 -0.1073  0.1467
    1W        W39061  26.489   8.179   0.178  0.0100  0.3944  0.0075
    1W        W39062   4.895   4.760   3.875 -0.3861  0.3580 -0.1019
    1W        W39063  13.728  21.280   8.509  0.2140  0.4298 -0.2825
    1W        W39064   0.625  22.955   8.804  0.1620  0.0243 -0.1870
    1W        W39065  21.376   2.455   8.936 -0.0140 -0.4420  0.2209
    1W        W39066   0.402  21.222   7.017  0.0289  0.2853  0.2714
    1W        W39067   8.261  14.376   1.187  0.2881 -0.0322  0.2972
    1W        W39068  21.779   3.465   1.484  0.0470 -0.2482 -0.1565
    1W        W39069   4.892  23.023   2.630 -0.3160  0.0652 -0.1295
    1W        W39070   0.738  17.939   0.086 -0.1242 -0.0354 -0.0522
    1W        W39071   4.305   3.336   8.213 -0.3581 -0.4646  0.3714
    1W        W39072   4.656   9.136   3.166 -0.0327  0.0104  0.2133
    1W        W39073  17.550  21.380   7.024  0.2358  0.2962  0.0817
    1W        W39074  24.612  19.697   5.932  0.0403 -0.2696 -0.0438
    1W        W39075  17.808   9.755   6.881 -0.1093  0.0505  0.2542
    1W        W39076  24.266  25.238   9.083 -0.1451 -0.0032 -0.1223
    1W        W39077  12.378  11.363   0.117 -0.1629  0.4433 -0.1114
    1W        W39078   7.937   1.385   1.080  0.0044  0.1608  0.3794
    1W        W39079  25.660   0.718   6.506  0.1691  0.1378 -0.1070
    1W        W39080  15.461  19.082   7.213  0.0678 -0.0479 -0.0000
    1W        W39081  25.234  18.516   6.233 -0.0352  0.2537 -0.0388
    1W        W39082   2.244  29.309   9.201  0.3758  0.1251  0.0817
    1W        W39083   8.548   6.021   8.115  0.2272  0.1922 -0.3450
    1W        W39084   3.010  10.167   8.420  0.0424 -0.1311 -0.0927
    1W        W39085  27.665  23.776   0.662 -0.2007 -0.1281  0.0335
    1W        W39086  17.448   3.772   0.939  0.4832  0.0776 -0.1534
    1W        W39087  24.174  25.668   1.587 -0.2066  0.1530 -0.0759
    1W        W39088   3.932  10.583   0.337  0.1173 -0.1274 -0.0906
    1W        W39089  18.153  27.540   0.040  0.4727 -0.1506 -0.2661
    1W        W39090  14.067   5.258   7.863  0.0028 -0.0807 -0.1284
    1W        W39091  11.725  24.417   0.517 -0.2768 -0.0206 -0.2064
    1W        W39092   4.541   3.560   0.247 -0.1775  0.0147  0.2131
    1W        W39093   8.527  28.800   9.072 -0.3789 -0.0522 -0.1877
    1W        W39094  20.374   9.706   2.359  0.0753 -0.5006 -0.0709
    1W        W39095   9.052  17.913   8.217  0.1897 -0.0936 -0.1995
    1W        W39096   0.032  29.404   1.703 -0.1317 -0.1497 -0.1777
    1W        W39097   0.755  25.813   1.754  0.0779 -0.1151 -0.2111
    1W        W39098   7.487   9.889   0.474 -0.0606 -0.1859  0.3284
    1W        W39099  10.389  23.793   0.613 -0.0558 -0.0596 -0.1475
    1W        W39100  24.360  13.097   6.378 -0.1164  0.0492  0.0122
    1W        W39101  26.932  12.993   8.738  0.0448  0.3462 -0.1259
    1W        W39102  20.508  11.819   0.960  0.0153  0.0570 -0.1673
    1W        W39103  10.738   6.164   2.482 -0.0856  0.1890  0.1490
    1W        W39104   7.792  19.760   0.056 -0.0026 -0.2323  0.0012
    1W        W39105  13.852   6.619   7.990 -0.3979  0.2234  0.0356
    1W        W39106  18.511  13.478   0.000 -0.1758 -0.0625 -0.0079
    1W        W39107  14.342   8.234   9.099  0.0700 -0.2348  0.0031
    1W        W39108  16.203  25.084   2.421 -0.1657 -0.1011 -0.0480
    1W        W39109  19.219   7.735   2.812  0.1315 -0.0503 -0.0678
    1W        W39110   8.353  13.294   0.953 -0.1559  0.2504  0.0197
    1W        W39111  23.024   0.247   3.297 -0.0994  0.3928  0.1624
    1W        W39112  15.151  14.455   7.330  0.0512 -0.1599 -0.0413
    1W        W39113  12.834  11.434   0.926  0.0208  0.1927  0.0387
    1W        W39114  16.994   0.294   9.543 -0.0558  0.2070 -0.0893
    1W        W39115   4.593  16.122   0.825  0.3017  0.2280  0.1066
    1W        W39116  11.444  16.809   0.050 -0.4410  0.1615 -0.4002
    1W        W39117   4.998   5.922   1.051  0.2375  0.0775  0.0439
    1W        W39118  17.820  25.191   0.111  0.2613 -0.1689  0.2571
    1W        W39119  19.559  17.452   5.582 -0.1902  0.3295 -0.0472
    1W        W39120   6.396  18.966   7.221  0.2305  0.1243 -0.2390
    1W        W39121  19.101  17.621   0.115 -0.1252  0.0461  0.4360
    1W        W39122   8.514  21.521   7.120 -0.0283 -0.0247  0.0648
    1W        W39123  24.916  28.931   8.858  0.2463 -0.0259  0.0154
    1W        W39124  17.519   6.374   2.655  0.1478 -0.1265  0.0244
    1W        W39125   8.579   9.043   8.300  0.2939 -0.0730 -0.1885
    1W        W39126  20.885  26.862   7.540 -0.0914  0.2569 -0.0051
    1W        W39127  16.688  28.878   2.692  0.2445 -0.0410 -0.0444
    1W        W39128  18.085  25.337   9.159  0.1168 -0.0348 -0.1673
    1W        W39129   1.270   8.557   6.992  0.0203  0.3539  0.0678
    1W        W39130  16.400  24.692   2.809  0.2041 -0.0314  0.1669
    1W        W39131  15.114   8.377   1.482  0.0135  0.0136 -0.1220
    1W        W39132   6.559  23.839   2.649 -0.2821  0.3755 -0.3042
    1W        W39133   8.948  20.052   1.454 -0.0407  0.0149 -0.2163
    1W        W39134  28.461  16.736   0.120 -0.1842  0.0248 -0.2183
    1W        W39135   4.819  10.460   2.227  0.0472 -0.2487 -0.1207
    1W        W39136  14.766  28.862   0.261  0.0365 -0.1915 -0.0332
    1W        W39137  23.945   9.335   8.780 -0.0299 -0.3527  0.0854
    1W        W39138   5.219   6.301   9.191 -0.4444 -0.0103  0.0832
    1W        W39139  25.248  20.657   1.155 -0.0495 -0.0046 -0.1142
    1W        W39140  22.125   5.652   0.468  0.0317  0.5778 -0.4024
    1W        W39141   7.637  21.117   7.391 -0.0183 -0.1173  0.0209
    1W        W39142  28.042  17.153   8.059 -0.1274  0.2357  0.4924
    1W        W39143  29.726  13.065   8.872 -0.2373  0.0900  0.0455
    1W        W39144   2.862  11.842   2.415 -0.1401  0.1920  0.1474
    1W        W39145   5.528   3.326   6.645  0.1688  0.2429 -0.0257
    1W        W39146   1.779  21.379   7.390  0.3424  0.0552  0.0663
    1W        W39147  15.201  22.743   0.027 -0.2640 -0.0093  0.2776
    1W        W39148  15.600  17.066   1.314 -0.0980 -0.0701 -0.0762
    1W        W39149   4.550  21.719   0.080  0.1047  0.1877  0.1946
    1W        W39150  23.745  17.345   8.161  0.0416 -0.2204 -0.0936
    1W        W39151  23.421   3.224   9.400  0.1616 -0.1168 -0.1204
    1W        W39152  23.219  25.386   2.604  0.0498  0.1050 -0.0954
    1W        W39153  13.218   1.285   7.557 -0.1764 -0.0957  0.1745
    1W        W39154  21.325   7.824   2.032 -0.4626 -0.2365 -0.1077
    1W        W39155   9.812  27.604   4.079  0.2044  0.0234 -0.1403
    1W        W39156  29.087  29.256   6.660  0.1514 -0.0978 -0.0196
    1W        W39157  25.679   7.414   9.097  0.2075 -0.0881  0.0350
    1W        W39158  21.106   7.056   1.829 -0.0713  0.1273  0.0239
    1W        W39159  18.283  29.797   9.450 -0.0013  0.2351  0.1514
    1W        W39160   3.543   2.268   7.042 -0.0549  0.3291 -0.1948
    1W        W39161  27.749  25.914   2.271 -0.0597  0.1121 -0.0171
    1W        W39162   4.137  10.150   9.464 -0.1283 -0.0711 -0.2132
    1W        W39163  16.622  18.371   9.299  0.1506  0.1164  0.0948
    1W        W39164   3.697  24.739   6.493  0.0628 -0.0645  0.1965
    1W        W39165  25.546   1.990   7.211  0.0803  0.0761  0.3066
    1W        W39166  12.400  14.572   3.146  0.0872 -0.3172  0.1117
    1W        W39167   5.763   6.249   8.213 -0.1226  0.0636 -0.3936
    1W        W39168   9.333  22.660   7.355 -0.0852  0.1121  0.0138
    1W        W39169  10.236  12.132   0.381 -0.2297  0.1938 -0.1141
    1W        W39170   4.606   6.283   2.935  0.0272 -0.2063  0.1287
    1W        W39171   2.663  21.492   7.711  0.0350  0.3776 -0.0926
    1W        W39172   8.744  20.889   2.008  0.2816 -0.1141  0.0984
    1W        W39173  15.698   2.619   0.199  0.2304  0.0850  0.0010
    1W        W39174  21.165  17.474   6.447 -0.0512 -0.1266  0.0957
    1W        W39175  22.189   2.399   7.274 -0.2679 -0.0925 -0.3007
    1W        W39176  14.445  21.819   2.496 -0.1168  0.2921 -0.2156
    1W        W39177  26.633   2.287   7.887 -0.0789  0.2450  0.1029
    1W        W39178   6.836   2.001   2.178 -0.4462 -0.3092 -0.0026
    1W        W39179  28.639  19.827   8.394  0.0150 -0.2688 -0.0119
    1W        W39180   3.270  10.358   1.000 -0.1265 -0.2032 -0.1594
    1W        W39181  25.460  11.221   9.202 -0.1068 -0.0382  0.0145
    1W        W39182  14.018   1.932   3.129 -0.2517  0.0820  0.1297
    1W        W39183  10.061  26.511   1.216  0.2841  0.2041 -0.0030
    1W        W39184   0.176  10.669   6.963 -0.3576  0.1315  0.1682
    1W        W39185  27.427  26.324   2.286  0.4175 -0.2681 -0.1720
    1W        W39186  23.984  25.302   8.690  0.2639  0.3426 -0.0347
    1W        W39187  20.298   5.475   3.445 -0.0059  0.2720 -0.0654
    1W        W39188   2.635  29.230   6.701 -0.1871 -0.1009 -0.1915
    1W        W39189   6.231   2.829   8.145 -0.0479 -0.2053 -0.0476
    1W        W39190   1.039  20.640   7.154  0.2509  0.0406  0.0966
    1W        W39191  17.564  26.174   8.882  0.0604 -0.1383 -0.0533
    1W        W39192  19.108  29.075   2.582  0.3218  0.0447 -0.0374
    1W        W39193  23.234   4.937   7.894 -0.1913  0.0094  0.0080
    1W        W39194   1.288   3.552   8.506 -0.1122 -0.1212 -0.0345
    1W        W39195  10.994  25.922   2.810 -0.0646 -0.3249  0.0328
    1W        W39196  11.423  23.587   2.354 -0.1507 -0.3575 -0.1784
    1W        W39197  19.435   1.319   9.349 -0.1411  0.0719 -0.2427
    1W        W39198  23.970  20.603   0.788  0.1969 -0.0208  0.0649
    1W        W39199  13.082  17.109   7.057 -0.1820 -0.1826  0.0728
    1W        W39200   6.541   6.689   8.053 -0.0233 -0.1486  0.1075
    1W        W39201   3.507   3.161   8.211 -0.0311  0.3575 -0.0129
    1W        W39202  23.640  22.209   2.251 -0.4636 -0.1624 -0.1777
    1W        W39203  12.279  10.774   8.834 -0.1488  0.1839 -0.0906
    1W        W39204  21.871  12.200   8.625  0.0878  0.1195 -0.0450
    1W        W39205  20.484  20.469   6.963  0.1158 -0.0017 -0.0160
    1W        W39206  12.715  25.584   7.769 -0.1124  0.2222  0.2266
    1W        W39207  28.188  21.878   1.814 -0.1869 -0.0771 -0.2606
    1W        W39208  25.038   2.151   6.926 -0.0601  0.2769  0.0774
    1W        W39209  28.681   3.265   8.415 -0.0156  0.1246 -0.4764
    1W        W39210   7.735   2.938   7.847 -0.1213  0.2317  0.0862
    1W        W39211  15.701  27.198   9.039  0.1549  0.1138 -0.1046
    1W        W39212  11.642  16.007   7.597 -0.0956 -0.3136 -0.2687
    1W        W39213  16.459  18.341   6.832 -0.2432  0.1458 -0.0345
    1W        W39214   1.866   7.718   9.435  0.2439 -0.1248  0.1268
    1W        W39215  29.749  28.450   6.409  0.0199  0.1329  0.4894
    1W        W39216  20.268  11.737   7.764  0.2610  0.1485 -0.0258
    1W        W39217   9.528  17.823   9.257 -0.1180 -0.2042 -0.0332
    1W        W39218   2.277  18.423   8.533 -0.3632  0.1550 -0.2708
    1W        W39219  10.481  23.044   1.693 -0.1212 -0.1042 -0.1559
    1W        W39220  18.478  27.914   0.236 -0.2021 -0.1192 -0.3698
    1W        W39221   0.658   0.950   2.004  0.2604 -0.2745  0.0102
    1W        W39222  21.118  16.607   1.583  0.0283  0.0503  0.2363
    1W        W39223  10.746  12.555   2.541  0.3814  0.0634  0.1001
    1W        W39224  23.415  26.590   7.777 -0.4114 -0.3078  0.4121
    1W        W39225   2.474   6.012   8.571  0.0442  0.4490  0.0999
    1W        W39226  18.638  18.435   7.564  0.1218  0.1462 -0.0440
    1W        W39227  23.237  22.004   5.999  0.0447  0.2518 -0.2484
    1W        W39228  26.966   3.760   0.257  0.1200  0.2925 -0.2129
    1W        W39229  27.693  15.542   1.416 -0.1337 -0.0551 -0.0752
    1W        W39230  17.123   7.291   8.579 -0.1628  0.0626  0.2704
    1W        W39231  18.910  13.870   6.656 -0.3479  0.1003 -0.2703
    1W        W39232  25.906  20.316   1.586  0.2881 -0.0989 -0.3384
    1W        W39233  20.587  11.362   1.666  0.1822 -0.3709  0.1202
    1W        W39234  28.495  29.462   3.573 -0.1072  0.0142 -0.2876
    1W        W39235  15.097   4.537   8.596 -0.1115  0.4022  0.0824
    1W        W39236   1.743  17.194   9.134 -0.1081 -0.1584  0.1664
    1W        W39237  10.500  29.167   1.288 -0.0263 -0.2333  0.2529
    1W        W39238  10.728  28.855   8.518  0.1359  0.1976  0.1404
    1W        W39239  21.389  21.080   8.907  0.1274 -0.0115  0.2259
    1W        W39240  21.889  18.109   9.207 -0.4086  0.1559 -0.1838
    1W        W39241   5.882  13.533   2.316  0.1888  0.1212  0.1207
    1W        W39242  15.685   7.506   9.428 -0.2367 -0.0300 -0.0425
    1W        W39243   1.812  20.690   8.290  0.2242  0.3349 -0.0064
    1W        W39244  17.240   9.002   0.905  0.0299  0.1198  0.0437
    1W        W39245  17.153   1.363   2.557  0.1092  0.3126 -0.3410
    1W        W39246  20.354   9.627   7.258  0.0662  0.1869  0.0293
    1W        W39247  10.128  21.633   6.321  0.0183 -0.0759 -0.0022
    1W        W39248  29.684  18.648   7.269  0.1117 -0.1956  0.0972
    1W        W39249  26.560   0.572   6.897 -0.1297 -0.0755 -0.0575
    1W        W39250   5.529   9.703   8.756 -0.3205 -0.0673  0.4605
    1W        W39251  25.655   4.495   9.443 -0.1940 -0.1203  0.3101
    1W        W39252  22.634  28.448   2.690  0.0068  0.3061  0.3044
    1W        W39253  22.191  11.430   1.125 -0.3528  0.1858 -0.0527
    1W        W39254  13.795  24.237   7.546 -0.0150 -0.1132  0.0616
    1W        W39255  27.065   3.643   6.985 -0.2896  0.2025 -0.3505
    1W        W39256   5.565  25.977   2.068  0.0308  0.0204 -0.1558
    1W        W39257  22.874   7.641   7.852 -0.1699 -0.1582 -0.0770
    1W        W39258  19.154   9.590   2.369  0.2418  0.0064  0.0256
    1W        W39259  10.987  15.694   7.282 -0.0953  0.2176 -0.0835
    1W        W39260  27.546  19.415   0.403  0.2549  0.2191 -0.2551
    1W        W39261   1.004  15.817   0.062 -0.2096 -0.1257 -0.2154
    1W        W39262  19.874  17.177   9.048  0.0078  0.1069  0.0009
    1W        W39263  16.619  20.307   8.276  0.1482  0.0417 -0.0539
    1W        W39264  11.797  18.802   8.620  0.1969  0.2071 -0.1044
    1W        W39265  12.749  23.203   8.765  0.0093 -0.3556  0.0815
    1W        W39266  14.346  25.705   6.906 -0.5248  0.1453 -0.1688
    1W        W39267   9.681  20.558   1.716  0.1458 -0.3976 -0.1414
    1W        W39268  17.676   3.079   7.548  0.1799  0.1072  0.3079
    1W        W39269   7.210  21.348   8.225  0.0048 -0.3152  0.1815
    1W        W39270  16.323  26.498   1.772 -0.0518  0.1593 -0.1665
    1W        W39271  25.330  14.872   5.712 -0.3294 -0.0650  0.3442
    1W        W39272  16.091  28.073   8.805  0.3374  0.0246 -0.0137
    1W        W39273  21.451   2.891   3.048  0.2074 -0.1769 -0.0174
    1W        W39274   2.725  16.468   6.963  0.1197 -0.0578  0.4861
    1W        W39275   5.073   7.541   0.500  0.0160 -0.0803  0.2848
    1W        W39276  21.683  17.494   0.232  0.2067  0.2883  0.0660
    1W        W39277   6.885  26.864   7.512 -0.0936 -0.1392  0.1607
    1W        W39278  19.663   6.249   3.229 -0.1112  0.1576 -0.0263
    1W        W39279  24.069   7.193   9.227 -0.1491  0.2208 -0.2147
    1W        W39280  21.328   1.125   7.371  0.1447  0.1026  0.0315
    1W        W39281  24.921   7.612   6.920  0.1552 -0.1353  0.2689
    1W        W39282  16.985  24.334   8.160  0.2996 -0.0782 -0.2134
    1W        W39283   2.745  10.870   1.719  0.1977 -0.0231 -0.1148
    1W        W39284  24.376   7.667   7.849 -0.2523  0.2310  0.1520
    1W        W39285  13.034  26.688   8.883 -0.3073 -0.0516  0.0541
    1W        W39286  18.299  21.381   1.828  0.0259 -0.1573  0.1421
    1W        W39287  15.128  16.145   8.783 -0.0801  0.0295 -0.3837
    1W        W39288  19.555  12.276   0.466 -0.0957 -0.5111 -0.1711
    1W        W39289  22.264  22.570   6.553  0.2441  0.0808  0.0924
    1W        W39290  21.893  22.875   1.184  0.2438 -0.0925 -0.1262
    1W        W39291   4.924  24.156   9.254  0.5134 -0.2099 -0.1811
    1W        W39292  17.833  13.261   6.923 -0.0550  0.1329 -0.0621
    1W        W39293  10.771   4.446   0.973 -0.1503  0.1934 -0.1174
    1W        W39294  13.645   2.853   0.352 -0.1956 -0.3640  0.1981
    1W        W39295  29.432  11.715   2.214  0.1816 -0.0753  0.0183
    1W        W39296  26.141   8.036   8.443  0.3143  0.0854  0.2384
    1W        W39297  21.591  19.673   0.695 -0.1738  0.1020 -0.0689
    1W        W39298  19.624  16.559   7.973  0.0657  0.0284 -0.1901
    1W        W39299   1.558  20.744   7.752  0.2864  0.0880  0.3853
    1W        W39300  25.821  22.853   1.513  0.0294 -0.2338  0.0423
    1W        W39301  17.035   3.518   6.874 -0.0414  0.4735 -0.2237
    1W        W39302   8.453   3.156   9.112  0.1410  0.1433  0.0716
    1W        W39303  28.409   6.627   6.772 -0.1437 -0.1556  0.4573
    1W        W39304  28.343   3.585   0.555  0.0130  0.2279 -0.0640
    1W        W39305  11.361   3.263   8.442 -0.1742 -0.2664 -0.1063
    1W        W39306  15.131  16.752   7.276 -0.2139 -0.0531 -0.0974
    1W        W39307  22.714  29.057   1.688 -0.0633  0.3613 -0.2675
    1W        W39308  28.076  28.352   7.170  0.1406 -0.0971  0.1376
    1W        W39309  11.709  19.360   9.474  0.0189  0.0874  0.2366
    1W        W39310   6.941  27.862   0.772 -0.0650  0.0696  0.0450
    1W        W39311   2.439  24.913   8.571 -0.1081 -0.2198  0.0088
    1W        W39312   8.746  10.367   2.929  0.1612 -0.1443 -0.2412
    1W        W39313   4.022  20.387   0.280 -0.0956 -0.1878  0.3033
    1W        W39314  13.234   9.103   2.227  0.0155 -0.2498  0.1824
    1W        W39315   3.945   9.976   8.544 -0.0172 -0.2023  0.0495
    1W        W39316  11.888   0.613   9.048  0.1707  0.1564 -0.1395
    1W        W39317  25.928  25.941   1.407  0.2038  0.1623 -0.0359
    1W        W39318   0.656  23.691   8.966 -0.1911  0.4265 -0.2902
    1W        W39319  11.296   3.693   1.407  0.0830  0.0234 -0.0864
    1W        W39320   4.232  17.203   1.004  0.1922  0.0742  0.1469
    1W        W39321  29.366   4.390   8.623 -0.0865  0.1803  0.1122
    1W        W39322  26.462  10.339   7.343 -0.2117  0.1589  0.1965
    1W        W39323  17.972   7.160   7.902 -0.0223 -0.0519 -0.0388
    1W        W39324  23.304  19.851   8.386 -0.1696  0.2866 -0.0462
    1W        W39325   8.008   7.208   0.518  0.0760 -0.1631  0.1342
    1W        W39326   5.391   4.555   7.052 -0.1433 -0.1111  0.0363
    1W        W39327  12.982  10.750   9.330 -0.1898  0.2653 -0.1167
    1W        W39328  19.674  14.339   8.751 -0.2099 -0.1929 -0.0713
    1W        W39329  20.759   5.746   9.404  0.1128 -0.0121  0.0422
    1W        W39330  24.706   9.521   0.284 -0.1859  0.2424  0.0234
    1W        W39331  22.119  26.959   8.833 -0.1822 -0.0223  0.3758
    1W        W39332  22.997  11.515   1.429  0.2413 -0.3878  0.2732
    1W        W39333  21.019  22.651   1.951  0.0966  0.0591  0.1471
    1W        W39334  14.403   3.406   7.332  0.4072  0.2065  0.1712
    1W        W39335  21.153  14.587   0.196 -0.0008  0.0257  0.0307
    1W        W39336  10.423   6.065   2.083  0.3341 -0.0083 -0.0821
    1W        W39337  15.108   8.428   8.402 -0.0717  0.3023  0.2504
    1W        W39338  18.470  12.939   9.011 -0.2979 -0.1791 -0.2496
    1W        W39339  14.944  17.565   6.925 -0.5511 -0.0860 -0.0049
    1W        W39340  12.649  20.822   6.490  0.0954  0.0087 -0.1097
    1W        W39341  14.819  28.650   7.040 -0.1180 -0.0190 -0.3309
    1W        W39342  22.789  17.355   0.555 -0.4094  0.0026 -0.0511
    1W        W39343  13.942   1.375   8.238 -0.1965  0.2577  0.0151
    1W        W39344  26.638  29.115   1.552  0.1240  0.0715  0.1857
    1W        W39345   6.598   1.982   2.756  0.1571 -0.0587  0.2540
    1W        W39346   6.425  24.289   7.554  0.0296  0.0263 -0.1830
    1W        W39347   9.563  19.688   8.745 -0.0528 -0.2058  0.3085
    1W        W39348  25.188   6.452   1.725 -0.0370 -0.1508  0.3300
    1W        W39349   2.023  21.831   8.753 -0.2008  0.2955 -0.0432
    1W        W39350   0.239   2.716   1.765  0.1320 -0.0327  0.2083
    1W        W39351  11.036  28.808   8.984 -0.0084  0.1504  0.0241
    1W        W39352  18.701   3.567   8.781 -0.0663 -0.0754 -0.1382
    1W        W39353  19.390   7.021   9.029  0.2480  0.1429  0.1647
    1W        W39354  24.061  27.747   1.777  0.0456  0.0609  0.3691
    1W        W39355  20.311  17.289   6.835  0.1094 -0.1705  0.1812
    1W        W39356  20.302   7.940   0.657 -0.1119 -0.0153 -0.0641
    1W        W39357  18.154  27.880   8.510  0.0905  0.0533  0.2977
    1W        W39358  27.126  27.085   1.829  0.0403 -0.3220  0.3160
    1W        W39359  13.031  27.746   6.663 -0.0546 -0.1445 -0.1093
    1W        W39360  11.498  18.111   7.522 -0.0871  0.1538 -0.0081
    1W        W39361  28.992   6.812   0.111 -0.2977  0.0365 -0.2412
    1W        W39362   9.068  28.194   2.822  0.2778  0.2578  0.3830
    1W        W39363   8.619   9.989   8.887 -0.3231 -0.1650 -0.1996
    1W        W39364  28.380  25.276   2.381  0.2565  0.1056  0.1602
    1W        W39365   8.956  10.711   9.021 -0.0102 -0.3778  0.0857
    1W        W39366   8.659   3.551   8.688 -0.0118 -0.1847 -0.1907
    1W        W39367  20.032   5.382   2.632  0.0037 -0.1603 -0.0014
    1W        W39368  29.619   4.935   0.911  0.0093 -0.1325 -0.3354
    1W        W39369  18.057  11.954   7.230  0.0602  0.0510 -0.0757
    1W        W39370  19.477   9.898   6.812 -0.3579  0.1751 -0.0601
    1W        W39371   0.849   3.056   0.182 -0.2043  0.1118  0.2305
    1W        W39372  16.895   5.697   2.518  0.0418  0.1376  0.3168
    1W        W39373  17.897   0.738   2.997  0.3969  0.1412  0.2134
    1W        W39374   6.989  22.609   9.421  0.1905 -0.1575 -0.1989
    1W        W39375  22.830  25.252   0.436 -0.0329 -0.1386 -0.0946
    1W        W39376   3.389  25.705   7.781  0.3946  0.0394  0.0541
    1W        W39377  27.945  25.122   7.143 -0.1775  0.0852 -0.2493
    1W        W39378  29.356   3.808   9.322  0.1972 -0.1865  0.0843
    1W        W39379   2.192   4.359   1.373 -0.2405 -0.2684 -0.1330
    1W        W39380  16.795  10.934   3.087  0.2881 -0.1127 -0.2244
    1W        W39381  22.630  29.591   0.013 -0.0764 -0.0128 -0.0970
    1W        W39382  23.074  24.966   0.142  0.2904 -0.2594  0.1690
    1W        W39383  15.949  29.397   1.248  0.2572  0.2494 -0.1726
    1W        W39384  17.419  17.416   8.818  0.0754  0.0221 -0.3177
    1W        W39385  12.943   3.994   7.435  0.1002  0.1508 -0.0489
    1W        W39386  27.954   3.579   1.855  0.1545 -0.3324 -0.1624
    1W        W39387  17.754  16.505   1.987  0.1835  0.2819 -0.1156
    1W        W39388   1.717  19.868   8.819  0.2037 -0.0159  0.0261
    1W        W39389  18.788   8.497   1.867  0.1533  0.3817 -0.1135
    1W        W39390   3.680  18.188   7.185 -0.0402  0.1884 -0.1872
    1W        W39391  27.208   1.295   7.444 -0.0982  0.0428 -0.0224
    1W        W39392  28.245   8.820   2.135 -0.1067  0.0398 -0.0804
    1W        W39393   7.638   3.429   2.870  0.1258  0.0257 -0.2990
    1W        W39394  28.152   4.004   0.786 -0.1033  0.2326 -0.0261
    1W        W39395  27.556   4.844   0.693 -0.3239 -0.0061 -0.0552
    1W        W39396  26.556  11.926   0.097  0.0769  0.0565  0.0985
    1W        W39397  20.841  17.729   7.599 -0.0037  0.1979 -0.1136
    1W        W39398  14.831  28.019   9.270  0.3530 -0.2801  0.0015
    1W        W39399  13.424  27.015   1.485 -0.1822 -0.3864  0.1509
    1W        W39400  29.521  17.460   7.663  0.2557 -0.0235  0.3090
    1W        W39401   1.182  10.784   6.336 -0.0878 -0.1032  0.1091
    1W        W39402   1.253  14.341   8.616  0.4041 -0.2588  0.1970
    1W        W39403   9.110   9.438   7.644  0.1438  0.0926 -0.2874
    1W        W39404   9.632  10.437   1.588  0.2105 -0.3283  0.1270
    1W        W39405   0.481   3.090   8.787  0.2830  0.0768 -0.0884
    1W        W39406   0.501   1.644   7.992  0.1888 -0.1230 -0.0739
    1W        W39407  28.031   2.924   7.700 -0.1525 -0.1702 -0.2456
    1W        W39408  24.129  23.513   7.379 -0.3204  0.1578 -0.1999
    1W        W39409  11.173  28.240   3.291 -0.1423 -0.1074 -0.2211
    1W        W39410   0.422  11.629   8.900  0.1811 -0.0800 -0.3104
    1W        W39411  28.911  27.594   1.358  0.4053  0.1849 -0.0120
    1W        W39412  28.790  12.982   0.715 -0.1688  0.2333 -0.3021
    1W        W39413  20.889  24.011   8.101  0.0701  0.0427  0.1783
    1W        W39414   5.648  24.810   0.104  0.1797  0.0476  0.1421
    1W        W39415  28.349  27.543   6.967 -0.2482 -0.0218 -0.0428
    1W        W39416  13.824  11.532   7.432  0.0972  0.0320 -0.1027
    1W        W39417  20.089  20.934   1.672 -0.1091  0.1398  0.1121
    1W        W39418  16.692  18.243   1.121  0.1927 -0.0632  0.2435
    1W        W39419   1.394  20.329   0.369 -0.0778 -0.2568  0.1159
    1W        W39420  16.621  26.144   7.288  0.2553 -0.2092 -0.0505
    1W        W39421   0.390  18.216   0.561  0.0470 -0.2811 -0.1337
    1W        W39422   6.001  11.669   2.224  0.1682  0.0983  0.0786
    1W        W39423   4.211  26.967   0.267 -0.1859  0.0365  0.0336
    1W        W39424   6.739   7.073   7.792  0.2769  0.2314 -0.1693
    1W        W39425   4.608  22.785   8.227  0.0629  0.0064  0.0963
    1W        W39426  27.182  27.806   1.537 -0.0005 -0.0367 -0.0520
    1W        W39427  16.995   6.326   0.858 -0.0225  0.0150  0.0722
    1W        W39428  14.159  10.578   1.382 -0.1889  0.1319  0.0287
    1W        W39429  20.120  16.047   1.241 -0.4137  0.0501 -0.5215
    1W        W39430   1.476  21.248   1.498 -0.0665  0.1514  0.0470
    1W        W39431  12.067  16.063   0.272  0.0029  0.0852  0.0718
    1W        W39432  17.022  20.534   9.135 -0.2007  0.0126  0.0956
    1W        W39433  17.800  20.003   0.476 -0.4828 -0.1876 -0.1803
    1W        W39434  26.694  20.405   8.409 -0.3904 -0.4618  0.0975
    1W        W39435   2.530  15.900   7.057 -0.0152  0.0610  0.1283
    1W        W39436  22.891  14.795   6.344 -0.1562 -0.0128 -0.1810
    1W        W39437  22.651   9.105   8.901 -0.1125 -0.2172 -0.0512
    1W        W39438  15.286  16.467   0.350 -0.1448 -0.1120  0.1778
    1W        W39439  17.661  29.720   6.689  0.0527  0.1449  0.1525
    1W        W39440  23.695   8.665   9.301  0.1981 -0.0650 -0.2754
    1W        W39441  21.012  20.292   7.673  0.1656  0.1094 -0.3719
    1W        W39442  19.720  18.090   2.322  0.0976  0.1001  0.3420
    1W        W39443   1.189   2.331   3.437  0.0240 -0.1355  0.2728
    1W        W39444  17.039   8.647   6.880  0.0893 -0.0683  0.1909
    1W        W39445  14.635   4.978   7.904 -0.0604 -0.1438 -0.2222
    1W        W39446  18.135  12.203   0.350  0.0770 -0.1636  0.2429
    1W        W39447   1.926  29.749   0.594  0.4174 -0.0352  0.1240
    1W        W39448  18.634  16.564   1.990 -0.0904 -0.0628 -0.2547
    1W        W39449  19.623   8.637   8.612 -0.0518 -0.2099 -0.1106
    1W        W39450   9.198  20.593   1.889  0.0186  0.0880 -0.0492
    1W        W39451  27.735  17.679   1.822  0.1841  0.0435  0.0792
    1W        W39452  18.864  28.299   7.961  0.0472 -0.1126 -0.2415
    1W        W39453  25.540  26.157   9.238 -0.0300 -0.1456 -0.0989
    1W        W39454  11.947   7.873   1.379 -0.2887 -0.0608 -0.0626
    1W        W39455  14.756  18.004   8.277  0.0964  0.1826 -0.0092
    1W        W39456   9.727  23.196   2.488  0.0795  0.0350  0.1186
    1W        W39457   2.193   2.531   2.765 -0.0200 -0.0658 -0.0528
    1W        W39458  21.261  24.800   9.363 -0.2450 -0.0381 -0.4145
    1W        W39459   9.598   4.491   3.608  0.0735  0.1029  0.1381
    1W        W39460  14.384   2.812   2.642  0.0697  0.2633 -0.0796
    1W        W39461  14.082   2.335   7.775  0.1219 -0.0384  0.1703
    1W        W39462  17.586   5.566   1.230 -0.0756 -0.2636 -0.1569
    1W        W39463  14.790  24.179   7.668  0.0582 -0.3410 -0.1053
    1W        W39464   6.922   9.431   1.962 -0.1903  0.0337 -0.2548
    1W        W39465  18.875   6.966   1.812  0.0706 -0.1129  0.2142
    1W        W39466  23.668  20.458   9.242  0.0864  0.1860 -0.1345
    1W        W39467  16.580   6.511   1.074  0.1370 -0.1259  0.3751
    1W        W39468   7.989  11.442   9.411 -0.1581  0.0249 -0.1746
    1W        W39469   7.143   7.566   2.511 -0.1371  0.0308  0.0261
    1W        W39470   1.939   1.163   6.864  0.1210  0.2850  0.3630
    1W        W39471   0.233  17.710   7.273 -0.1466 -0.2182  0.2111
    1W        W39472  13.219  18.626   1.670  0.3355  0.0572 -0.1580
    1W        W39473  18.691  19.690   0.086 -0.4748  0.1265 -0.2120
    1W        W39474  20.040  21.059   8.748  0.1775 -0.0691  0.1382
    1W        W39475   2.498   9.537   1.645 -0.1578 -0.0816  0.1843
    1W        W39476  22.228  26.629   7.761  0.1262  0.1824 -0.1251
    1W        W39477  19.635  12.796   0.375  0.0360  0.0754  0.0725
    1W        W39478   4.030  14.236   9.028  0.0631  0.1431  0.0452
    1W        W39479   2.275  29.555   1.987  0.2623  0.2558 -0.2329
    1W        W39480  13.475   2.504   8.293  0.3180  0.0246 -0.3134
    1W        W39481  28.633  29.244   3.112  0.1304 -0.1286 -0.3503
    1W        W39482  12.087  28.492   3.481  0.1754 -0.1752  0.2282
    1W        W39483  10.329   3.421   1.270  0.2534  0.3085  0.0737
    1W        W39484  22.877   5.114   8.156 -0.1085 -0.3263 -0.1565
    1W        W39485   5.328  15.741   1.393 -0.0408 -0.2229  0.0415
    1W        W39486   4.897  23.752   9.553  0.0671  0.4981  0.1216
    1W        W39487  12.496  13.992   8.177 -0.0959  0.2689 -0.2451
    1W        W39488  10.677  20.076   2.268  0.2879 -0.2722  0.0029
    1W        W39489   9.466  16.682   1.241  0.2725  0.0507 -0.0529
    1W        W39490  26.179  17.366   7.319 -0.1003  0.0372  0.2624
    1W        W39491  27.976   2.514   2.149 -0.0661 -0.2573 -0.0764
    1W        W39492  24.840  12.371   6.112  0.1408 -0.1732 -0.0959
    1W        W39493  19.003   6.215   9.397  0.3528  0.3296 -0.1300
    1W        W39494   4.447   2.436   8.416 -0.0748  0.0436 -0.1717
    1W        W39495  14.404   8.363   2.081  0.1645  0.2226 -0.1441
    1W        W39496  11.092   9.171   6.894 -0.1022  0.0244  0.0788
    1W        W39497  22.418  22.767   1.052 -0.1167 -0.2060  0.2817
    1W        W39498  23.790  13.304   8.008 -0.0256  0.2649 -0.0608
    1W        W39499  18.436  29.047   3.098  0.1369 -0.1338  0.2295
    1W        W39500  29.537   4.285   8.128  0.0539 -0.1570  0.0328
    1W        W39501  26.353   5.391   1.800  0.1575  0.0897  0.0984
    1W        W39502  15.892   4.341   1.665 -0.0467 -0.0310 -0.2677
    1W        W39503  12.234  17.774   6.271  0.3097  0.2271  0.0231
    1W        W39504  13.247  27.417   2.411  0.1477 -0.1088 -0.1428
    1W        W39505  19.377   4.354   1.961 -0.1242  0.0519 -0.0515
    1W        W39506   3.264  28.952   0.509  0.0631 -0.0552 -0.0592
    1W        W39507  22.028  12.750   7.811 -0.0385  0.5186  0.0582
    1W        W39508  22.619   1.890   1.660  0.1290  0.0724  0.0023
    1W        W39509  13.981   3.267   9.175  0.1483  0.0700  0.1684
    1W        W39510  15.437  29.133   1.351 -0.0533 -0.0574  0.0124
    1W        W39511  19.058  15.262   0.369 -0.1184  0.2943 -0.2066
    1W        W39512   7.284  19.631   1.198 -0.2139 -0.1489  0.2973
    1W        W39513  25.304  17.335   8.125  0.1954 -0.1309 -0.0773
    1W        W39514  19.884   0.373   3.953 -0.0424 -0.1076 -0.0202
    1W        W39515  14.077   2.645   1.423 -0.2078 -0.2197 -0.5045
    1W        W39516  12.182  12.738   2.862  0.0818  0.1718 -0.2734
    1W        W39517   1.375  24.411   0.677 -0.1192  0.0567 -0.0901
    1W        W39518   4.780  18.893   0.616  0.0828  0.0770 -0.1883
    1W        W39519   1.345  26.341   2.320  0.0117 -0.2702 -0.0159
    1W        W39520   6.182  13.383   1.979  0.2510 -0.2142 -0.3963
    1W        W39521  23.551  14.315   8.072  0.1647 -0.0837 -0.1214
    1W        W39522  20.123  22.286   7.072 -0.0520 -0.3077  0.2536
    1W        W39523  18.449  18.316   2.654  0.0570 -0.1387  0.1257
    1W        W39524  27.144  24.871   1.756  0.0780  0.0648 -0.0230
    1W        W39525  28.513   1.833   2.112 -0.2224  0.1186  0.0280
    1W        W39526  17.975  11.360   8.847 -0.1588  0.1135  0.1713
    1W        W39527  14.209  20.928   0.756 -0.2450 -0.0066 -0.0060
    1W        W39528   2.344   2.188   7.570 -0.0577  0.3239  0.0321
    1W        W39529   3.003   8.250   8.797  0.6901 -0.2785 -0.1266
    1W        W39530  10.492  28.560   9.061 -0.3328  0.1654  0.1593
    1W        W39531  29.421  10.152   8.282 -0.1486 -0.1248  0.2612
    1W        W39532   0.414  29.106   3.047  0.1598 -0.2586 -0.0982
    1W        W39533  20.326  17.525   6.295 -0.2605 -0.0121  0.1080
    1W        W39534  12.427  10.638   1.814 -0.1590  0.0347 -0.0377
    1W        W39535  13.186  13.502   9.218  0.0520  0.0243  0.2644
    1W        W39536   7.236  13.306   0.090  0.0111 -0.1206 -0.0436
    1W        W39537  17.465  10.538   7.189 -0.0530  0.1530 -0.1788
    1W        W39538  19.058  17.844   1.499  0.1141  0.0606  0.2580
    1W        W39539  12.521  26.922   1.435  0.1693 -0.1348 -0.0158
    1W        W39540   9.244  21.980   0.001  0.1694 -0.1507 -0.1138
    1W        W39541  13.417   5.449   8.629 -0.0237  0.0128  0.0727
    1W        W39542   0.690  24.115   6.105  0.3826  0.1797 -0.0315
    1W        W39543   7.766   4.356   9.262  0.1855 -0.0261 -0.0904
    1W        W39544   1.689   7.832   1.929 -0.1726  0.2801 -0.1427
    1W        W39545   6.469  15.445   2.202 -0.2512 -0.1344  0.1720
    1W        W39546  12.703  22.680   5.690  0.2225  0.1021 -0.1747
    1W        W39547  29.607   3.555   2.007  0.0295 -0.0655 -0.2029
    1W        W39548   7.085  28.140   3.294 -0.2945 -0.1468 -0.2373
    1W        W39549  27.715   9.556   0.420  0.1635 -0.0154  0.1176
    1W        W39550  16.482   7.457   0.250 -0.2469 -0.0438  0.2023
    1W        W39551  19.378   5.138   2.982  0.0473 -0.2023  0.0279
    1W        W39552  12.814   3.549   7.201  0.0496 -0.1366  0.1698
    1W        W39553  16.641  25.129   7.353  0.1642  0.3536  0.2243
    1W        W39554   7.850   8.817   8.927  0.2569  0.2530  0.0247
    1W        W39555   7.290   5.280   1.788  0.1669  0.0516 -0.0106
    1W        W39556  26.189  21.226   1.558  0.3114 -0.2259 -0.0670
    1W        W39557  13.767   9.457   6.742  0.1076  0.2598 -0.1756
    1W        W39558  19.583   9.820   6.347 -0.1386 -0.0891  0.2233
    1W        W39559  29.179  28.831   1.051  0.2277 -0.0631  0.1800
    1W        W39560   0.000  10.904   8.151 -0.0892  0.1089 -0.0256
    1W        W39561  12.848  16.382   2.410 -0.1330 -0.1281 -0.0814
    1W        W39562   4.887   5.887   6.853  0.1446 -0.7706  0.0139
    1W        W39563   2.646  24.424   2.357  0.2676  0.2643  0.3686
    1W        W39564   5.347  27.918   7.719  0.1978 -0.0422 -0.0116
    1W        W39565  22.028  13.056   1.170 -0.0911  0.2247 -0.1330
    1W        W39566  27.129   7.119   2.043 -0.1700  0.0675  0.1987
    1W        W39567  15.903   9.124   9.201 -0.0741  0.1543 -0.1364
    1W        W39568  18.369   9.733   8.493  0.1592 -0.1260  0.2333
    1W        W39569   1.406  15.218   8.182 -0.1791 -0.1449 -0.1307
    1W        W39570   6.692  29.395   7.239 -0.0017  0.0630 -0.2361
    1W        W39571   5.100  25.270   8.333  0.0619 -0.1049  0.1933
    1W        W39572  25.205   6.691   0.314  0.0173 -0.1426  0.2674
    1W        W39573  17.724   3.332   1.030 -0.1326  0.2425  0.0632
    1W        W39574   5.463  12.293   1.351 -0.2238 -0.2778  0.1785
    1W        W39575  26.406  22.175   8.460  0.0503 -0.0751 -0.2287
    1W        W39576   9.870   8.061   1.283 -0.0557 -0.0575  0.1161
    1W        W39577  12.022  21.279   8.699  0.1816 -0.1703  0.0274
    1W        W39578  21.433  18.377   7.531  0.0297 -0.0004 -0.3500
    1W        W39579  22.787  26.302   0.611  0.0081  0.0767  0.5106
    1W        W39580  27.538  13.571   1.505  0.1861 -0.0522 -0.1720
    1W        W39581  18.504  10.336   1.172 -0.0338 -0.2957  0.1529
    1W        W39582  11.227  27.420   3.383  0.0511 -0.3886  0.0066
    1W        W39583   8.898  15.377   1.051  0.1174  0.1248  0.4408
    1W        W39584  15.398  13.504   5.613  0.1442  0.1505 -0.1860
    1W        W39585  11.737  27.431   1.776  0.2226  0.1641 -0.3295
    1W        W39586   9.067   3.571   3.009 -0.3195  0.1536 -0.2043
    1W        W39587  23.865  25.240   6.810  0.2349  0.1036  0.0678
    1W        W39588  10.588   4.995   2.888 -0.0687 -0.2211 -0.1442
    1W        W39589   7.122  29.607   9.005  0.0349 -0.1773 -0.0683
    1W        W39590  11.262  12.436   8.828  0.0574 -0.0143 -0.0651
    1W        W39591  26.586  24.145   7.463  0.1308  0.2199  0.0807
    1W        W39592  29.177  28.275   0.258 -0.1026  0.0393 -0.3293
    1W        W39593  14.836  12.258   3.098  0.0037 -0.2386  0.1353
    1W        W39594   0.681  18.637   7.272 -0.0833  0.3452  0.0492
    1W        W39595  22.931  11.733   2.358 -0.0226 -0.2380 -0.1834
    1W        W39596  29.434   3.032   7.231 -0.2004 -0.0908 -0.0918
    1W        W39597  22.620  24.014   9.517 -0.3260  0.1801  0.0983
    1W        W39598  26.537   5.360   0.461  0.5174 -0.2368 -0.1523
    1W        W39599  23.888  27.116   3.231 -0.0707  0.3833 -0.0020
    1W        W39600  27.861  27.686   7.844  0.3525 -0.2123 -0.1910
    1W        W39601  23.545  27.104   7.804  0.1213 -0.1069  0.0449
    1W        W39602  17.938   2.844   0.987 -0.0346 -0.0609  0.1346
    1W        W39603   0.392  16.707   8.185  0.0085  0.4759  0.3006
    1W        W39604   7.107  18.331   9.350  0.1090 -0.2110  0.2011
    1W        W39605   4.673  20.073   0.584 -0.1464  0.0376 -0.2654
    1W        W39606  26.093  26.500   0.093 -0.0230 -0.1519  0.0425
    1W        W39607   5.587   7.082   2.276 -0.1615 -0.2715  0.0455
    1W        W39608  16.657   1.671   8.105  0.0345 -0.4086  0.0725
    1W        W39609  28.299  23.098   8.302 -0.5404 -0.1722  0.0104
    1W        W39610  21.643  21.895   2.066 -0.2435  0.1166 -0.2120
    1W        W39611  23.347   3.339   8.482  0.3497 -0.0985  0.0919
    1W        W39612  28.192  24.679   7.720 -0.1569  0.2145  0.1990
    1W        W39613  27.201  13.656   5.848 -0.2175  0.2496 -0.4683
    1W        W39614  18.051   6.432   7.852 -0.1276  0.1429 -0.1017
    1W        W39615  12.871   8.042   0.877 -0.3428 -0.1285  0.3684
    1W        W39616   2.809  14.248   0.554  0.1343  0.0571 -0.4007
    1W        W39617   0.677   2.073   1.065 -0.2122 -0.1555  0.2865
    1W        W39618  11.363  19.423   2.406 -0.6215 -0.1993  0.0147
    1W        W39619   3.697  18.085   1.821 -0.2536 -0.3293 -0.1057
    1W        W39620  10.960   8.104   7.587 -0.1337  0.2307 -0.0604
    1W        W39621  18.471   4.567   1.008 -0.2032  0.2633 -0.0470
    1W        W39622  14.328  14.145   2.470  0.1386  0.2782 -0.0653
    1W        W39623   6.513  22.106   2.544 -0.2476  0.0341  0.0502
    1W        W39624   3.762  20.384   0.723 -0.0391 -0.0473 -0.2022
    1W        W39625  26.148   5.000   0.488 -0.0524  0.0163  0.0860
    1W        W39626  18.819  13.001   1.942  0.0017  0.2144 -0.3321
    1W        W39627  22.404   8.369   9.230  0.1926  0.0718 -0.2428
    1W        W39628  14.153  19.205   7.400 -0.1427 -0.3119  0.0675
    1W        W39629   9.567  29.689   1.144  0.4613 -0.1476 -0.0345
    1W        W39630   5.173  23.693   9.135 -0.5419  0.2321  0.0993
    1W        W39631  22.941  25.469   9.516 -0.1547  0.0695 -0.1490
    1W        W39632  19.917   0.740   8.483 -0.0952  0.1190 -0.1702
    1W        W39633  14.922  12.622   0.954 -0.0994  0.3185  0.0729
    1W        W39634  18.825  13.365   6.652 -0.3174 -0.1649  0.3677
    1W        W39635  22.998  23.976   1.654  0.1794 -0.0399  0.1771
    1W        W39636  20.890  10.227   0.572 -0.1461 -0.1195  0.2052
    1W        W39637  28.704  21.660   9.059 -0.2395  0.1862  0.1412
    1W        W39638  29.670   5.554   8.055  0.1579 -0.3574  0.0292
    1W        W39639  23.811  11.001   0.450 -0.1141  0.1069  0.2621
    1W        W39640   2.182   5.169   7.274  0.1773 -0.1050  0.2399
    1W        W39641  17.126  13.638   7.041  0.1376  0.0956 -0.0788
    1W        W39642  27.618  25.599   6.670  0.3949 -0.3628  0.1544
    1W        W39643   4.000  15.666   0.190 -0.0202  0.1872  0.0364
    1W        W39644  24.543   6.696   1.968  0.0737  0.0740  0.1096
    1W        W39645  22.444   4.523   3.288  0.1438  0.0656  0.0646
    1W        W39646  18.205  21.054   0.433  0.3530  0.4915 -0.0865
    1W        W39647  10.324  26.239   2.089 -0.0079 -0.2408  0.0394
    1W        W39648   3.593   7.661   0.445 -0.0804 -0.2572  0.3267
    1W        W39649  27.793  17.651   8.643 -0.1849 -0.0352 -0.1001
    1W        W39650  16.862  26.795   0.885 -0.1407  0.0587 -0.2186
    1W        W39651   8.844  11.066   0.454 -0.1445 -0.1478  0.1700
    1W        W39652  20.336  29.052   8.919  0.1364 -0.0477  0.1182
    1W        W39653   6.915   0.726   7.874 -0.1198 -0.1918 -0.1227
    1W        W39654  18.705  10.984   8.153 -0.1171  0.1019  0.1511
    1W        W39655  27.462   4.291   8.278  0.1887  0.2174 -0.0340
    1W        W39656   7.469   5.983   0.599 -0.0816  0.0532  0.1591
    1W        W39657   0.782  14.454   1.388  0.0047 -0.1553 -0.3021
    1W        W39658  25.458  27.257   9.351 -0.1455 -0.1552 -0.1934
    1W        W39659  22.360  17.815   5.802 -0.1966 -0.0388  0.0490
    1W        W39660   1.951  28.385   0.224  0.0738  0.1510  0.0096
    1W        W39661  11.156  26.809   7.714 -0.1917 -0.1471  0.1222
    1W        W39662   8.918   4.581   0.243 -0.0629 -0.0051 -0.1098
    1W        W39663  19.860   8.233   8.453 -0.0827  0.2685  0.1965
    1W        W39664  28.412   4.447   6.458  0.2087  0.0751  0.3480
    1W        W39665  22.507  21.473   1.205  0.1561  0.2098  0.0565
    1W        W39666  16.566   2.018   2.013 -0.0088 -0.1920 -0.0816
    1W        W39667  10.949  22.040   7.889 -0.0123 -0.2868 -0.3153
    1W        W39668   9.351  10.567   7.375  0.1929  0.1501  0.1733
    1W        W39669   3.340  28.658   8.139 -0.1368 -0.0200 -0.3352
    1W        W39670   5.543   1.448   2.665  0.1566 -0.0926  0.0979
    1W        W39671  12.650   9.043   2.746  0.3408  0.1737 -0.0278
    1W        W39672  24.734   9.472   2.328  0.1253  0.0068 -0.0364
    1W        W39673  28.400   3.136   2.685 -0.1645  0.2730 -0.3609
    1W        W39674  28.820  19.779   8.886 -0.1231  0.1150  0.2943
    1W        W39675  23.920   5.785   3.678 -0.2928 -0.2698  0.2296
    1W        W39676   0.393  21.242   6.509 -0.2221  0.2350  0.0233
    1W        W39677   2.065  23.793   0.840  0.0048  0.1790  0.3357
    1W        W39678   9.090  21.833   1.594 -0.4162 -0.1748 -0.1424
    1W        W39679   9.691  13.513   7.542  0.0668 -0.4030  0.0261
    1W        W39680   4.921   3.884   2.629  0.4295 -0.0007  0.0555
    1W        W39681  13.524  20.913   0.339  0.0356 -0.0607  0.0527
    1W        W39682  26.057  23.343   1.378  0.2274  0.1697  0.0342
    1W        W39683   9.688  28.675   0.958  0.1353 -0.2854  0.3604
    1W        W39684   6.326  25.186   8.524 -0.0777 -0.1672  0.0490
    1W        W39685  19.425  12.138   1.119 -0.1213 -0.0131  0.3258
    1W        W39686  11.204  27.769   8.299  0.0126 -0.0471  0.0753
    1W        W39687  10.892  13.411   2.530  0.2546 -0.2121 -0.1326
    1W        W39688  25.511  22.786   7.879 -0.1874  0.2227 -0.0667
    1W        W39689  13.915  25.129   8.129 -0.2194 -0.1028  0.4351
    1W        W39690  25.329  21.669   6.157 -0.1986 -0.2809  0.0735
    1W        W39691   3.175   7.059   2.121 -0.2339 -0.0062  0.1185
    1W        W39692   5.318  29.186   1.043  0.2183 -0.1970 -0.0784
    1W        W39693  11.725  28.264   9.054  0.0069 -0.3156 -0.0124
    1W        W39694  19.166  20.221   6.002  0.0304 -0.0050 -0.0984
    1W        W39695  28.855   4.113   8.511  0.2673  0.0234 -0.2870
    1W        W39696   0.979   8.175   6.811  0.0238 -0.1977  0.0544
    1W        W39697  12.726  26.566   2.523 -0.2258  0.0472  0.1268
    1W        W39698  15.209   3.082   6.996  0.0975 -0.0227  0.1334
    1W        W39699  17.407  15.031   6.298 -0.0061 -0.0466  0.3745
    1W        W39700  20.922  16.213   1.760  0.1156  0.2686  0.2723
    1W        W39701  25.835   1.498   1.728 -0.1715  0.0290  0.1731
    1W        W39702  16.906  21.115   6.992 -0.0192 -0.0235  0.0959
    1W        W39703  20.189  18.725   7.966 -0.1964  0.0841 -0.5088
    1W        W39704  28.117  11.355   7.374 -0.1056 -0.1161  0.0584
    1W        W39705  27.779  29.356   7.167  0.2120  0.1839  0.1239
    1W        W39706   6.284   9.845   9.379  0.0014  0.0708 -0.1491
    1W        W39707  22.754   0.447   2.678  0.0316  0.2986 -0.1686
    1W        W39708  24.742  17.960   8.791  0.0744  0.0270 -0.0489
    1W        W39709  17.488  23.317   6.786 -0.2013  0.1510  0.0033
    1W        W39710  15.704  10.557   0.984 -0.0505 -0.1100 -0.2216
    1W        W39711  16.556   7.970   0.086  0.2609  0.0854  0.1268
    1W        W39712  25.339   8.575   6.182  0.0370  0.2920 -0.0630
    1W        W39713  25.642  25.647   0.088  0.0864  0.3830 -0.5082
    1W        W39714  28.425  21.202   6.532 -0.0991 -0.0391 -0.1318
    1W        W39715   3.522  11.162   1.174 -0.2939  0.1141 -0.0678
    1W        W39716   7.156  21.143   7.188  0.1553  0.2073  0.0642
    1W        W39717  27.137   3.260   7.699 -0.0502 -0.3689  0.1519
    1W        W39718  11.721  11.410   1.950 -0.1556 -0.0741  0.0387
    1W        W39719  13.257   5.831   8.952  0.0030  0.0547 -0.0065
    1W        W39720  20.548   2.015   0.408  0.0443 -0.1257 -0.0941
    1W        W39721  24.366  23.963   7.288  0.1125 -0.0503  0.0636
    1W        W39722  12.897  14.457   0.084 -0.0054  0.0268 -0.0669
    1W        W39723   1.557   4.072   0.688  0.2532 -0.2098  0.0728
    1W        W39724  20.232  17.573   8.945  0.3332  0.1028 -0.0233
    1W        W39725  28.565  23.769   7.681  0.4798 -0.0376  0.0167
    1W        W39726  26.680  23.658   2.502  0.0114  0.2125  0.2715
    1W        W39727   0.395  15.501   1.927 -0.3421 -0.2193 -0.1820
    1W        W39728  18.103   3.970   3.404  0.3194 -0.1679 -0.0063
    1W        W39729  16.343   8.969   8.120  0.0469  0.1196 -0.1851
    1W        W39730   7.796  27.212   7.640  0.1930 -0.1594 -0.3297
    1W        W39731  22.906   9.707   1.719  0.1750 -0.1444  0.2598
    1W        W39732  10.966  25.694   8.793  0.1603 -0.0453  0.0797
    1W        W39733   5.797   8.744   2.579 -0.0081  0.0202 -0.1246
    1W        W39734  20.376   3.028   2.714  0.2327  0.1454  0.1363
    1W        W39735  26.991   3.466   3.228 -0.3188 -0.1031 -0.2175
    1W        W39736  26.045  16.665   0.761  0.0144 -0.1226  0.2350
    1W        W39737  15.856   8.315   1.105  0.2280  0.0727 -0.0222
    1W        W39738  17.003  11.644   7.446 -0.1871 -0.0039 -0.2897
    1W        W39739   0.713   6.485   9.330 -0.0656 -0.1376  0.2139
    1W        W39740  28.019  24.645   6.935 -0.2048  0.0617 -0.2476
    1W        W39741  16.911  28.113   2.871  0.0808  0.2926 -0.1153
    1W        W39742   7.772  12.157   7.223  0.0437  0.1910  0.2404
    1W        W39743  26.756  24.972   7.545 -0.1554  0.2479  0.0501
    1W        W39744   5.591  23.269   0.496  0.1788  0.2719 -0.1614
    1W        W39745   5.014  15.921   9.410  0.2461 -0.2569 -0.0094
    1W        W39746   6.873   5.159   2.007 -0.0083  0.0105 -0.0293
    1W        W39747   7.184  10.038   1.228 -0.0756 -0.0527  0.0148
    1W        W39748   4.135   2.550   7.494  0.2543 -0.2210  0.2137
    1W        W39749  17.322  17.710   1.567  0.0360 -0.0334  0.1257
    1W        W39750  19.875  17.094   8.448 -0.0197 -0.3182  0.1626
    1W        W39751   1.728  22.421   0.860 -0.0262  0.1371  0.0606
    1W        W39752   1.200   7.999   2.121 -0.0687  0.3779 -0.2084
    1W        W39753   4.265  12.295   8.066  0.0221  0.4639  0.0996
    1W        W39754  25.309  18.489   9.042  0.1606  0.2579  0.1534
    1W        W39755  26.312   9.583   0.652 -0.2881  0.0334 -0.0918
    1W        W39756   4.913  13.556   7.786 -0.0368 -0.1535 -0.1588
    1W        W39757  26.118  21.777   1.517 -0.2313  0.2474 -0.0051
    1W        W39758  15.113  11.285   1.240  0.0778 -0.3140 -0.1564
    1W        W39759  20.591  22.080   1.284  0.3511 -0.3618 -0.0362
    1W        W39760  15.041  23.202   1.674 -0.0724  0.2871  0.0226
    1W        W39761  10.559   1.378   8.060  0.3008 -0.0026 -0.0334
    1W        W39762   2.014  23.115   0.467  0.3356 -0.0256 -0.1291
    1W        W39763  29.498   4.796   8.967 -0.0148  0.0269  0.0905
    1W        W39764  28.248   0.538   9.518 -0.2387 -0.0058  0.0614
    1W        W39765  28.355  19.730   0.915 -0.3831 -0.1545 -0.0251
    1W        W39766  14.976   9.027   2.566  0.0301  0.3868  0.0874
    1W        W39767  14.419  26.436   8.048 -0.3655 -0.0706  0.2640
    1W        W39768   0.824  10.419   9.171 -0.3435 -0.2955  0.1914
    1W        W39769  19.098   2.453   7.458  0.2544  0.1185  0.0746
    1W        W39770   3.195  27.454   6.745 -0.1116 -0.2113 -0.3852
    1W        W39771  29.686  21.625   0.616 -0.0806 -0.6180 -0.0888
    1W        W39772  22.912  28.640   0.883  0.0329 -0.0607 -0.2312
    1W        W39773  12.139   2.043   3.399 -0.3031 -0.0240 -0.3003
    1W        W39774  14.076  12.789   0.225  0.1696 -0.6160 -0.0545
    1W        W39775  11.967  12.669   1.621  0.1665  0.0776 -0.0951
    1W        W39776  29.326  21.068   7.117  0.1979 -0.1292 -0.0479
    1W        W39777  19.737   5.355   8.069 -0.1332 -0.1047 -0.0065
    1W        W39778  24.912   5.939   2.813  0.0216  0.2580  0.1816
    1W        W39779  28.921  27.139   2.765 -0.1429 -0.0535  0.0177
    1W        W39780  20.255   4.587   1.059 -0.2601 -0.1844  0.0757
    1W        W39781  10.594  10.805   1.837 -0.0379 -0.3175  0.2782
    1W        W39782   4.559  25.862   7.593  0.2383  0.2371  0.3761
    1W        W39783   8.058  14.687   2.727 -0.1467 -0.0112  0.1227
    1W        W39784  24.961   9.106   1.092  0.0818  0.3941 -0.0490
    1W        W39785   8.065  26.376   7.460  0.5316 -0.0520 -0.0031
    1W        W39786  20.854  13.465   7.723 -0.2216 -0.1320 -0.0449
    1W        W39787  16.639  19.778   8.521 -0.2553  0.2976 -0.2682
    1W        W39788  16.528   9.951   1.383  0.0281 -0.1286 -0.5200
    1W        W39789  10.704   2.565   0.836 -0.0598 -0.0015 -0.2125
    1W        W39790  11.377  15.088   1.179  0.0790 -0.0348  0.0863
    1W        W39791  14.785   3.836   7.277 -0.0960  0.1870 -0.0268
    1W        W39792  24.988  12.952   9.458  0.2155 -0.2018  0.0617
    1W        W39793  16.607  28.299   2.044 -0.3395  0.0428 -0.2310
    1W        W39794  20.560   3.828   7.482  0.2141 -0.0321 -0.0518
    1W        W39795  15.622   5.896   2.309 -0.1449 -0.3960 -0.0144
    1W        W39796  24.230   0.165   3.016  0.0258 -0.0456 -0.0607
    1W        W39797   8.936  12.451   7.679 -0.0538  0.3896 -0.2993
    1W        W39798  23.528  17.256   9.492  0.0061  0.1707  0.0676
    1W        W39799  23.026  21.656   8.711  0.1256  0.2221  0.2026
    1W        W39800  13.167  27.389   9.264 -0.0564 -0.0177  0.0160
    1W        W39801   7.945   0.390   7.210  0.1299  0.2614 -0.0407
    1W        W39802  12.949   4.255   8.435 -0.0753 -0.0796 -0.1217
    1W        W39803  25.248   0.448   1.099 -0.1249 -0.0355  0.0291
    1W        W39804  13.465   6.523   6.522 -0.2155  0.1129  0.0477
    1W        W39805   2.944  23.225   1.908  0.0908 -0.1635  0.2937
    1W        W39806   8.602  24.446   6.831  0.2338  0.2220 -0.0676
    1W        W39807   5.787   3.854   8.058 -0.0691  0.0179 -0.2722
    1W        W39808  28.048  10.641   0.026  0.0986 -0.2401  0.0949
    1W        W39809  25.792  13.720   8.794 -0.0298 -0.0265 -0.0118
    1W        W39810  22.412  28.963   2.905  0.0445 -0.2340  0.1448
    1W        W39811  14.595   5.455   8.279 -0.2861 -0.0531  0.0192
    1W        W39812   7.620  16.739   9.332  0.0892 -0.1356  0.1664
    1W        W39813   9.366   4.814   8.039  0.1479  0.0664  0.3719
    1W        W39814  12.449  12.184   7.778  0.2529 -0.0832 -0.0610
    1W        W39815  16.047  17.704   8.831 -0.0571  0.0379 -0.2341
    1W        W39816  19.387   9.524   3.288  0.1130 -0.4548  0.2351
    1W        W39817  27.286  12.138   2.021 -0.2435  0.2482 -0.0196
    1W        W39818  28.456  26.117   8.804  0.1564 -0.0925  0.2601
    1W        W39819  10.498   6.033   8.011 -0.1794  0.0580 -0.2035
    1W        W39820   0.607   1.555   1.868  0.1618  0.1237  0.0444
    1W        W39821  20.670  19.874   7.578  0.0124  0.2831 -0.4551
    1W        W39822  22.505  16.789   7.116 -0.1516 -0.2918  0.0000
    1W        W39823  10.782   6.679   0.582  0.2884  0.1222  0.1974
    1W        W39824  12.858  24.787   1.854  0.0913 -0.1504  0.1520
    1W        W39825  22.026  21.707   7.398  0.1524  0.0057  0.2052
    1W        W39826  19.204   3.175   6.747  0.0994  0.2779 -0.0756
    1W        W39827  23.064  15.131   8.422 -0.0103 -0.1846  0.0710
    1W        W39828   8.530  12.746   7.726 -0.1189 -0.1150 -0.0321
    1W        W39829   2.964  21.711   1.151  0.0480 -0.4438 -0.0109
    1W        W39830  28.261   8.383   7.234  0.0974 -0.1372  0.0947
    1W        W39831  24.492  16.292   5.753  0.1197 -0.2728  0.0435
    1W        W39832  26.944  28.687   0.240 -0.0271  0.0507 -0.1457
    1W        W39833  21.948  25.372   2.436 -0.1339 -0.0873  0.0925
    1W        W39834  29.674  18.452   9.528 -0.0114  0.1514 -0.1527
    1W        W39835   4.375  18.952   7.535  0.0804  0.0639 -0.0077
    1W        W39836   9.004  25.877   9.306  0.0146  0.0004  0.0699
    1W        W39837  12.055  27.570   1.125 -0.1270  0.1622  0.0982
    1W        W39838   1.299   2.991   7.910  0.0072 -0.0029 -0.1749
    1W        W39839   5.888   9.908   8.337  0.1407 -0.3132 -0.1855
    1W        W39840   9.847  14.663   7.741 -0.0470  0.4054 -0.3139
    1W        W39841  19.744   6.056   2.769 -0.0843  0.0799 -0.0879
    1W        W39842  18.736  26.111   8.184  0.0158  0.0597  0.0411
    1W        W39843   8.488   6.626   2.702  0.0388  0.3410  0.1143
    1W        W39844  17.165   0.024   7.948 -0.1768  0.1777  0.1617
    1W        W39845  26.225  15.599   6.139 -0.0714  0.1369  0.1855
    1W        W39846  16.155  23.682   1.373 -0.0496  0.0868  0.0915
    1W        W39847   8.436   4.669   2.922  0.2426  0.1296 -0.1399
    1W        W39848  15.486   4.583   2.180  0.2016 -0.0065  0.0351
    1W        W39849  19.073  26.762   2.117  0.0456 -0.1391  0.2025
    1W        W39850  29.598  24.511   7.186  0.0282  0.0422  0.0667
    1W        W39851  23.769   2.078   6.533 -0.1276 -0.0346  0.1840
    1W        W39852  29.393  23.706   6.915 -0.1423 -0.0068 -0.2247
    1W        W39853  29.422  13.419   2.465  0.2032  0.0937  0.0311
    1W        W39854  26.995  26.266   1.391  0.2731 -0.0725  0.2578
    1W        W39855  26.790   3.280   8.066 -0.2892  0.2046  0.0574
    1W        W39856   9.742  20.862   8.207  0.2606  0.2645  0.0252
    1W        W39857   4.001   6.508   6.576 -0.0567  0.1178  0.1851
    1W        W39858   4.846  28.885   2.073 -0.0533  0.1277  0.3266
    1W        W39859   7.401  13.544   2.014 -0.2096 -0.0304  0.0997
    1W        W39860  16.529  25.967   1.927  0.2522  0.2674 -0.2795
    1W        W39861  20.357  18.991   6.220  0.3238  0.1691  0.2560
    1W        W39862  16.104  24.680   0.801 -0.1297  0.0306 -0.1073
    1W        W39863  16.408  26.680   9.252 -0.1970  0.0211 -0.1948
    1W        W39864  18.903  23.290   8.550 -0.3356  0.0669  0.0437
    1W        W39865  12.576  14.449   2.262 -0.1157 -0.2438 -0.1584
    1W        W39866  25.792  24.940   8.894  0.0581  0.1512  0.2520
    1W        W39867  16.876   7.707   3.774 -0.3116 -0.0510  0.0951
    1W        W39868  24.689   6.745   7.054  0.1310 -0.3421 -0.1706
    1W        W39869  22.311  29.464   7.747  0.1373  0.2446 -0.0253
    1W        W39870   4.084  16.866   2.383  0.2986  0.0118 -0.2355
    1W        W39871   0.684  28.378   1.901  0.2032  0.1220  0.3099
    1W        W39872   7.310  12.018   6.895  0.1223 -0.0490 -0.0923
    1W        W39873   5.898   5.994   3.545  0.0630  0.2801  0.0519
    1W        W39874   1.844  16.720   1.916  0.1889  0.1519  0.3924
    1W        W39875  29.768  24.441   8.755  0.2555  0.1267  0.1943
    1W        W39876  16.476  11.414   9.175 -0.0703 -0.1950 -0.1421
    1W        W39877   4.280  20.248   0.783  0.2839  0.0147 -0.1417
    1W        W39878   5.147  28.658   1.113 -0.2756  0.2716  0.0143
    1W        W39879   0.079  12.057   8.835 -0.1970 -0.0876  0.1019
    1W        W39880  23.083   2.244   0.172  0.1338 -0.0606  0.1747
    1W        W39881   3.015  19.081   7.218  0.3940 -0.0473 -0.0997
    1W        W39882  26.488  28.237   8.049 -0.0232 -0.5482 -0.0901
    1W        W39883  17.338   2.287   2.760  0.0843  0.2656 -0.0987
    1W        W39884  15.725  21.729   8.309  0.2387 -0.0910  0.0697
    1W        W39885  13.973  25.757   1.483  0.0110 -0.0827  0.0753
    1W        W39886   1.379  20.279   2.071  0.1734 -0.1722  0.3285
    1W        W39887  13.125  28.800   6.722 -0.3046 -0.2193 -0.2303
    1W        W39888  27.993  20.479   7.957 -0.0786  0.0909  0.0704
    1W        W39889  29.205   2.183   0.283 -0.2652  0.0131  0.0766
    1W        W39890   2.381  21.615   9.162  0.2339 -0.1195  0.0775
    1W        W39891   0.955  24.544   8.975  0.0877 -0.0063  0.1045
    1W        W39892   0.135  29.219   7.324 -0.1496 -0.2622 -0.0277
    1W        W39893  29.707  15.180   9.550  0.0939 -0.3625  0.1377
    1W        W39894   9.935  16.814   7.614 -0.0934 -0.1614  0.2739
    1W        W39895   5.339  17.246   9.194  0.0353  0.4136  0.1438
    1W        W39896   2.955  13.655   1.962  0.3075 -0.3511 -0.1067
    1W        W39897  14.709  17.444   2.464  0.0018 -0.2131  0.2448
    1W        W39898  16.949   9.774   3.021  0.0029 -0.1032  0.3431
    1W        W39899   6.955   9.802   6.465  0.1644 -0.3352  0.1654
    1W        W39900   0.030   8.366   8.222 -0.2058 -0.2106 -0.0388
    1W        W39901  18.736  13.931   0.240 -0.0671  0.1949 -0.2813
    1W        W39902  15.817  17.499   2.579 -0.0171 -0.0644  0.1155
    1W        W39903   1.378  27.296   2.408  0.1990 -0.0296 -0.1262
    1W        W39904  14.280  11.223   8.756  0.1111 -0.0766 -0.1040
    1W        W39905  17.229  25.621   8.787  0.0275 -0.0068 -0.1086
    1W        W39906  21.645   8.524   2.691  0.0064  0.1448  0.2234
    1W        W39907  15.836   6.686   2.551  0.2021  0.1018 -0.1253
    1W        W39908   5.107  21.651   1.350  0.1484 -0.0800  0.2168
    1W        W39909   2.659  12.949   7.353 -0.1055  0.1329  0.1066
    1W        W39910   2.126  21.707   7.568  0.0684  0.1522 -0.0422
    1W        W39911   3.682   6.020   0.870 -0.1527 -0.1433 -0.0819
    1W        W39912  27.382  14.841   8.289 -0.0609  0.1934  0.0728
    1W        W39913   2.750   5.378   7.957 -0.2092  0.0715  0.0253
    1W        W39914   9.327  25.669   1.224  0.0872  0.3017  0.2868
    1W        W39915   3.920   6.479   0.861  0.0055 -0.1847 -0.1483
    1W        W39916  25.752   7.758   9.438 -0.0163 -0.0599  0.1401
    1W        W39917   5.956   7.719   7.214 -0.2578 -0.4128  0.1135
    1W        W39918   8.026   2.736   0.759  0.2979  0.1685  0.0576
    1W        W39919  11.380  14.268   8.735  0.0824  0.2525  0.1116
    1W        W39920  21.866  22.580   6.892  0.3279 -0.0109 -0.1613
    1W        W39921  18.006   2.713   0.343  0.0998 -0.2533 -0.3089
    1W        W39922   7.133  15.463   7.227 -0.0293 -0.1859 -0.1594
    1W        W39923  26.706   5.943   1.917 -0.2365 -0.0453 -0.1925
    1W        W39924  10.040  21.115   7.616  0.1691 -0.0912 -0.0581
    1W        W39925   0.410  21.845   1.532 -0.1425  0.1234 -0.1916
    1W        W39926  11.403  24.016   1.494 -0.1037 -0.0244  0.1498
    1W        W39927  10.336   9.835   0.429 -0.3117 -0.1063  0.1263
    1W        W39928  10.991   6.727   3.141  0.1724 -0.1883  0.1467
    1W        W39929  26.635  27.073   9.029 -0.1249  0.0354 -0.2795
    1W        W39930  21.119  15.937   8.124 -0.1118  0.3418  0.2710
    1W        W39931  29.248  26.493   2.173 -0.3292 -0.1726 -0.1471
    1W        W39932   8.386  28.734   1.186  0.0290  0.1305  0.3255
    1W        W39933  11.993  11.882   2.170 -0.1848 -0.0307 -0.0861
    1W        W39934  18.335  19.618   1.397 -0.2525  0.2397 -0.0320
    1W        W39935  29.285   2.981   7.712  0.2100 -0.0683  0.2071
    1W        W39936  15.933  18.822   8.194  0.1437  0.4259  0.1511
    1W        W39937   6.925  26.065   2.214  0.0955  0.0744  0.1238
    1W        W39938  26.759  14.318   0.431  0.1830  0.2724 -0.0981
    1W        W39939  22.475  23.355   8.198 -0.2588 -0.0668 -0.7052
    1W        W39940  17.493   0.508   0.042  0.2350 -0.1260  0.0661
    1W        W39941  14.705  22.912   1.932 -0.1528 -0.0084  0.0129
    1W        W39942  14.477  22.503   6.280  0.2350  0.2251 -0.1282
    1W        W39943  14.222  17.154   0.887  0.2884  0.1803 -0.2099
    1W        W39944  20.010  27.770   1.782 -0.2952  0.1855 -0.3321
    1W        W39945  14.782   1.584   7.652  0.4748 -0.3625  0.0697
    1W        W39946   2.558  11.702   1.366 -0.4509  0.0883  0.0144
    1W        W39947  11.398  11.874   2.033  0.0168  0.0353 -0.1181
    1W        W39948  22.467   7.450   8.114  0.2173  0.0489  0.0938
    1W        W39949  22.726  19.516   5.770  0.0448 -0.0696 -0.1470
    1W        W39950   1.703  13.286   7.321  0.1046  0.3355  0.2056
    1W        W39951   0.098   8.861   2.928  0.0780  0.1858 -0.1071
    1W        W39952  22.024  12.998   1.814  0.1588 -0.2934  0.3095
    1W        W39953  13.718  11.995   7.623  0.0549  0.0558  0.0464
    1W        W39954   2.891  25.077   8.536  0.0702 -0.1192  0.3621
    1W        W39955  19.122  24.077   6.160 -0.0603  0.2243 -0.1669
    1W        W39956  21.116   2.519   3.342 -0.2677  0.1284 -0.0039
    1W        W39957  10.573  29.450   8.889 -0.0369 -0.0742  0.3571
    1W        W39958  18.729  10.586   7.867  0.2280  0.0141  0.0815
    1W        W39959  19.881   2.398   3.767  0.0494 -0.2581  0.1284
    1W        W39960   5.002  26.360   0.309 -0.0302  0.0331 -0.2012
    1W        W39961  26.859  19.465   5.702 -0.0557  0.0303  0.0665
    1W        W39962  22.481  26.729   9.467  0.1261 -0.3773 -0.0398
    1W        W39963  20.870  12.948   6.415 -0.0025  0.0199 -0.1021
    1W        W39964  24.248  16.660   6.163  0.3570 -0.0495 -0.2042
    1W        W39965   7.622  25.315   0.830 -0.0583 -0.0410  0.1457
    1W        W39966  26.222  13.306   1.212 -0.0554  0.0469  0.2483
    1W        W39967  21.602  23.398   9.349  0.1655  0.2053 -0.1076
    1W        W39968   6.000   7.206   2.830 -0.2196  0.0386  0.1737
    1W        W39969   5.736  14.791   0.296 -0.2042 -0.2785  0.0223
    1W        W39970  24.146  28.287   3.587  0.2115  0.2548  0.0158
    1W        W39971  19.448  12.375   7.391 -0.2004  0.0402 -0.2739
    1W        W39972  21.576   6.360   7.930 -0.0425 -0.1578  0.0796
    1W        W39973   7.155   1.183   9.232 -0.0850  0.1118 -0.0886
    1W        W39974   4.699  22.238   2.005 -0.2508  0.0883 -0.1503
    1W        W39975   5.202  11.779   9.428  0.1395 -0.1563  0.0638
    1W        W39976  10.171   5.376   1.697 -0.0835  0.3013 -0.1153
    1W        W39977   6.507   5.620   7.500  0.4179 -0.3240 -0.0201
    1W        W39978  20.682  23.605   7.362  0.1187  0.0050 -0.0905
    1W        W39979  25.749   2.641   0.292  0.0244  0.0866  0.0161
    1W        W39980   4.512  14.221   9.378 -0.0026 -0.0305  0.0223
    1W        W39981  26.218  18.202   8.656  0.0304  0.1441  0.0670
    1W        W39982  26.801   8.040   8.082 -0.1585  0.0971 -0.1081
    1W        W39983  26.257   0.207   8.268 -0.1232 -0.0330 -0.1395
    1W        W39984  28.401  28.943   1.029 -0.0671  0.2371  0.3411
    1W        W39985  17.258   0.485   6.591  0.1223 -0.0547 -0.1645
    1W        W39986   6.375  22.609   0.019 -0.1264 -0.1101 -0.0153
    1W        W39987  20.496  16.161   0.912  0.1411 -0.2543 -0.1236
    1W        W39988   8.486  21.571   7.956 -0.1184  0.0510 -0.0115
    1W        W39989  11.861  11.098   0.419 -0.0290 -0.0877  0.3744
    1W        W39990   2.692  26.294   1.216 -0.3445 -0.0212 -0.3220
    1W        W39991  17.987  22.349   0.317 -0.0020  0.0224  0.0419
    1W        W39992  22.167  12.224   7.659  0.0649  0.0873  0.4089
    1W        W39993  26.656  29.266   2.959 -0.0662  0.1544  0.0442
    1W        W39994  28.718  16.830   9.080 -0.2306 -0.3739 -0.1378
    1W        W39995  17.357   3.302   7.229  0.0101  0.0557  0.1009
    1W        W39996  21.045  22.016   2.920 -0.2106  0.0123 -0.1794
    1W        W39997  18.554  24.450   1.615  0.1363  0.0822 -0.3518
    1W        W39998  10.196  29.060   2.650 -0.0208 -0.1434 -0.0145
    1W        W39999  22.034   2.252   2.300  0.1636  0.0252  0.4029
    1W        W40000  17.622  10.766   1.494 -0.2135  0.1211  0.0934
    1W        W40001  20.804  23.053   2.960  0.0455 -0.2529  0.1179
    1W        W40002  29.186  26.477   9.129  0.0397 -0.1280  0.1220
    1W        W40003  23.195   4.230   0.410  0.1220 -0.0365 -0.1724
    1W        W40004  18.484   7.261   1.754  0.1909 -0.4300  0.2100
    1W        W40005  26.055  25.356   6.703  0.4148 -0.1257 -0.0681
    1W        W40006  19.903   9.325   6.905  0.1806  0.2230 -0.0514
    1W        W40007   7.261   3.040   1.996 -0.3416 -0.0267  0.2191
    1W        W40008  15.454   6.281   3.553  0.7452 -0.0632 -0.0330
    1W        W40009  19.343   2.491   1.983 -0.1742  0.0217 -0.2890
    1W        W40010  14.947  11.512   2.084  0.0441  0.0919  0.0010
    1W        W40011  20.315  17.071   8.764 -0.2338 -0.0761 -0.0013
    1W        W40012   3.638  26.141   2.782 -0.2298  0.2818 -0.0434
    1W        W40013  15.551  12.650   6.032  0.1252 -0.1604 -0.0035
    1W        W40014  16.974   9.043   0.380  0.0044  0.2046  0.2135
    1W        W40015   2.544  11.950   8.142 -0.0759  0.0947 -0.0612
    1W        W40016   7.151  28.038   1.949  0.1395 -0.1413 -0.1557
    1W        W40017  13.133  20.657   7.193  0.1342 -0.2765  0.0676
    1W        W40018  27.078   4.974   7.723 -0.0840 -0.0935 -0.0856
    1W        W40019  26.747  11.438   0.921  0.0275  0.1853 -0.0915
    1W        W40020  10.283   9.108   3.371 -0.2330  0.2018  0.0368
    1W        W40021   6.693  26.039   6.481 -0.0670  0.0110 -0.1651
    1W        W40022  21.934   9.017   3.115  0.0787  0.1838  0.3106
    1W        W40023   3.113  24.760   2.240  0.1529 -0.0952  0.2394
    1W        W40024  14.248   7.772   9.449  0.0038  0.1837  0.2933
    1W        W40025  28.073  15.700   6.886  0.2979  0.1876 -0.0092
    1W        W40026  29.005  12.007   0.860  0.0179  0.0160  0.0430
    1W        W40027  26.833   0.877   7.335 -0.1209 -0.1722 -0.0794
    1W        W40028  22.122  17.774   1.462 -0.2200  0.2540 -0.2011
    1W        W40029   1.311  29.672   8.521 -0.0908  0.0066  0.0798
    1W        W40030   2.141   2.300   7.154  0.1428 -0.4097 -0.1002
    1W        W40031  15.318  13.144   6.827 -0.1164  0.7067  0.0850
    1W        W40032  13.443  23.960   1.860  0.1192  0.3076  0.2513
    1W        W40033  17.605   0.981   0.241 -0.1212  0.1070  0.1470
    1W        W40034  18.849   9.210   7.939  0.2156  0.0688 -0.0936
    1W        W40035   8.979  24.594   2.025  0.0451 -0.1042 -0.1188
    1W        W40036  12.363  14.407   7.415 -0.0204 -0.0317  0.1494
    1W        W40037   3.506   7.656   9.461  0.2080  0.0365 -0.0305
    1W        W40038  16.182   8.757   9.371  0.0975  0.1737 -0.0864
    1W        W40039  12.184  26.967   0.010 -0.0837 -0.0826 -0.0817
    1W        W40040   9.209  22.272   6.992  0.1388  0.3038 -0.2295
    1W        W40041  22.756  10.905   7.608 -0.1973  0.1361  0.1442
    1W        W40042  19.428   1.351   1.848  0.0008  0.1911 -0.0813
    1W        W40043  24.021   4.145   2.823 -0.1774  0.0452 -0.1191
    1W        W40044   6.221  20.359   7.219 -0.0872 -0.0816  0.3366
    1W        W40045  17.468   7.336   0.830 -0.0413 -0.0561 -0.3325
    1W        W40046  28.537  12.547   2.447 -0.1372 -0.1380 -0.2765
    1W        W40047  13.262  11.396   7.368 -0.0124  0.1387 -0.0557
    1W        W40048  14.257   2.547   9.313  0.2683  0.1857 -0.0226
    1W        W40049  12.715  12.235   9.017 -0.0260 -0.1241 -0.0913
    1W        W40050  14.987  20.214   7.610  0.1691 -0.0058  0.3749
    1W        W40051  15.274  25.963   8.344  0.2274 -0.0750  0.1651
    1W        W40052   2.690   1.527   0.889 -0.2746 -0.2898 -0.1436
    1W        W40053  24.527  16.672   0.051  0.0562 -0.0202 -0.0432
    1W        W40054  26.540   0.343   0.082  0.1173  0.0983  0.1963
    1W        W40055  17.082   3.388   8.795 -0.0686  0.0262  0.3805
    1W        W40056  17.386  29.075   8.496  0.4471  0.0298  0.1223
    1W        W40057  14.396   1.463   1.402 -0.2942  0.0388 -0.0741
    1W        W40058   0.220   5.048   2.193  0.3348 -0.1161 -0.0512
    1W        W40059   8.944  16.283   9.371 -0.4304 -0.2072 -0.2732
    1W        W40060  22.917  26.503   7.979 -0.0340 -0.2629  0.1412
    1W        W40061   7.588   5.275   7.947 -0.2338  0.0703 -0.0338
    1W        W40062   8.747  14.077   0.042  0.2769  0.0679 -0.1253
    1W        W40063   3.026   1.991   0.574 -0.1902 -0.2496 -0.1678
    1W        W40064  12.755  18.816   1.553 -0.0848 -0.0878  0.0067
    1W        W40065   6.458   4.627   0.368 -0.0331  0.0046  0.1316
    1W        W40066  24.366   6.853   8.272  0.1854  0.2124 -0.0670
    1W        W40067   2.411  28.040   2.314 -0.0091 -0.3442  0.0663
    1W        W40068  10.769  22.752   9.439 -0.1492  0.0543  0.2830
    1W        W40069  14.770  16.551   1.422 -0.0977 -0.3638 -0.0201
    1W        W40070  16.818  18.845   7.688 -0.0093 -0.1356 -0.1982
    1W        W40071  14.431  18.001   7.856 -0.2639  0.1315  0.0805
    1W        W40072  11.234  21.843   2.440  0.2352 -0.5079 -0.0321
    1W        W40073  22.078  22.405   2.502 -0.5006 -0.2426  0.1196
    1W        W40074  29.553  23.034   9.015  0.0704  0.0756  0.2602
    1W        W40075  24.040  25.712   7.721  0.0091  0.0475  0.1870
    1W        W40076   5.715  25.002   7.255 -0.4356 -0.2158 -0.0396
    1W        W40077   4.245  12.282   8.877 -0.1746  0.1223 -0.1899
    1W        W40078  12.569  19.166   8.574 -0.0794 -0.0124 -0.2238
    1W        W40079  11.106  25.170   8.548 -0.1063  0.1212 -0.1746
    1W        W40080  24.250   1.996   8.461  0.5050  0.0691  0.1804
    1W        W40081  12.162  27.123   0.942 -0.1581  0.0073 -0.2974
    1W        W40082  27.380   3.903   8.583  0.2605 -0.1249 -0.2363
    1W        W40083  27.523  20.056   1.125  0.0518 -0.2095 -0.1648
    1W        W40084  21.317  16.915   7.730 -0.1551  0.1428  0.1053
    1W        W40085  23.957   2.823   0.831  0.1555 -0.1415  0.0131
    1W        W40086  17.921  23.537   7.695 -0.0684 -0.0471 -0.0640
    1W        W40087  15.362  20.266   2.076 -0.1508 -0.0324 -0.0414
    1W        W40088   2.733  12.782   7.834  0.2219 -0.1304  0.1175
    1W        W40089  11.266  19.846   7.406  0.0653  0.1706  0.1188
    1W        W40090  13.755  16.885   1.572 -0.1328 -0.1745 -0.1866
    1W        W40091  23.002  14.148   8.182  0.1650 -0.1147 -0.2099
    1W        W40092  21.474   5.202   9.266 -0.1669 -0.2277  0.1124
    1W        W40093  13.077  22.920   0.340 -0.1069 -0.1004  0.1714
    1W        W40094  22.458  10.330   9.276  0.0159  0.1921  0.1323
    1W        W40095   8.813   9.522   7.103  0.4113  0.0788  0.2389
    1W        W40096  11.322  17.346   1.474  0.0418 -0.1190 -0.0015
    1W        W40097  28.053  22.760   9.021  0.0234  0.6084  0.2185
    1W        W40098   3.675  20.120   8.275  0.0415 -0.2955 -0.0692
    1W        W40099  25.738   2.424   1.179 -0.0014 -0.1108 -0.0510
    1W        W40100  13.414   7.858   0.499  0.0400 -0.1902 -0.0194
    1W        W40101   1.349   1.835   6.760  0.2258 -0.0008 -0.2007
    1W        W40102  14.854  13.408   0.040 -0.1044 -0.0849 -0.1377
    1W        W40103   5.875  11.238   0.027  0.0817  0.1134  0.2875
    1W        W40104   3.151  12.124   2.005 -0.1439 -0.1693 -0.0988
    1W        W40105  24.291   2.182   1.103  0.0609 -0.1133  0.1242
    1W        W40106  16.971  27.063   1.455 -0.1106 -0.0693  0.0164
    1W        W40107  20.503   0.584   1.609  0.3270 -0.1369  0.0752
    1W        W40108  22.666   4.084   9.544 -0.0480 -0.0334  0.3167
    1W        W40109  27.528   2.306   0.362 -0.0528  0.0179  0.0285
    1W        W40110  14.528  22.728   8.742  0.2279  0.3363 -0.0059
    1W        W40111  17.421   9.747   9.040  0.1897 -0.1140  0.1789
    1W        W40112  10.660  25.919   8.428  0.1654  0.3040  0.0941
    1W        W40113  26.879   7.513   1.488 -0.2734  0.0123  0.0990
    1W        W40114   5.142   9.562   1.924  0.0413  0.4399 -0.2536
    1W        W40115  14.082  29.307   7.236  0.0253  0.2040 -0.0157
    1W        W40116   1.739  10.605   9.394  0.0346  0.0305 -0.0173
    1W        W40117   1.484  22.163   0.423 -0.1589 -0.1049  0.4171
    1W        W40118   1.985  17.127   1.646  0.1199 -0.0719 -0.0737
    1W        W40119  27.890  15.006   6.883  0.3539 -0.0308  0.1182
    1W        W40120  29.645   4.683   9.501 -0.1808  0.0714  0.0296
    1W        W40121   5.321  29.068   1.944  0.0908  0.0184 -0.1397
    1W        W40122   7.982  17.011   1.633 -0.0120 -0.2353  0.0604
    1W        W40123  11.026   3.114   0.224  0.1178  0.0786 -0.1576
    1W        W40124  20.781   6.701   3.105 -0.0631 -0.0843 -0.0672
    1W        W40125  18.755  14.983   8.498  0.0245 -0.0187 -0.0116
    1W        W40126  10.121  12.544   1.759 -0.1380  0.4284  0.2293
    1W        W40127  19.897   9.861   2.092 -0.1952  0.0941  0.2869
    1W        W40128   4.991  21.287   8.056 -0.1523  0.1011 -0.1717
    1W        W40129  27.211   4.930   0.295  0.2841 -0.1970 -0.2293
    1W        W40130  21.933  26.582   1.654 -0.2048  0.0304 -0.2948
    1W        W40131   5.521   1.201   2.252 -0.1693  0.0601 -0.0917
    1W        W40132   2.868  28.747   0.177 -0.0771 -0.1528 -0.3381
    1W        W40133  24.505  28.761   3.652  0.3471  0.1113 -0.3416
    1W        W40134  20.127  24.691   1.369  0.1922 -0.0892  0.2223
    1W        W40135  11.000   4.382   2.491 -0.1765  0.0194 -0.1382
    1W        W40136   4.943  19.948   1.586 -0.0851 -0.0764  0.2157
    1W        W40137  24.147  19.840   1.768 -0.0011  0.3384 -0.1634
    1W        W40138  16.993  18.999   7.200 -0.0974 -0.4904  0.0370
    1W        W40139   0.499  21.328   1.191  0.2438 -0.0664 -0.1467
    1W        W40140   0.040  14.334   0.624 -0.4973 -0.0513  0.1231
    1W        W40141  24.278  28.551   9.349  0.2558 -0.0120  0.2701
    1W        W40142  25.504   1.355   8.399 -0.0560  0.1833  0.0656
    1W        W40143  14.643  20.065   1.025 -0.2749  0.0797  0.2263
    1W        W40144  15.415  27.065   2.966 -0.1906  0.0129  0.0488
    1W        W40145  13.283   9.408   1.774 -0.0066 -0.0670 -0.1152
    1W        W40146  17.400  26.722   9.442 -0.2724 -0.0058 -0.0638
    1W        W40147  25.337  23.847   7.470  0.1692  0.0844 -0.2984
    1W        W40148  28.248  10.620   2.546 -0.0279 -0.0194 -0.0773
    1W        W40149  16.345   6.791   0.056 -0.1479  0.2645  0.1033
    1W        W40150  18.760   2.520   1.452  0.5122 -0.2745 -0.2827
    1W        W40151   1.412  26.444   8.414  0.0545  0.3675  0.0962
    1W        W40152   6.217  13.767   1.633 -0.0391  0.0455 -0.0305
    1W        W40153   3.712  14.247   1.864 -0.0433 -0.0817 -0.0961
    1W        W40154   1.242   1.912   7.210  0.1730 -0.1136 -0.0437
    1W        W40155  24.599   4.700   2.163 -0.2215 -0.1279 -0.1184
    1W        W40156   8.428  11.184   1.427  0.0631 -0.1709 -0.2199
    1W        W40157  17.568   9.142   1.741 -0.0984  0.1665  0.1225
    1W        W40158  18.174  26.321   7.775  0.3290  0.1750  0.1448
    1W        W40159   1.962   3.544   7.019 -0.1954  0.0517 -0.1198
    1W        W40160  14.655  27.005   1.412 -0.3185  0.2942  0.4470
    1W        W40161  11.712   3.960   1.687  0.1541  0.0677 -0.1417
    1W        W40162  10.547  24.949   1.468 -0.0889  0.0788  0.1383
    1W        W40163  23.844  23.917   8.443 -0.1831  0.1279 -0.2985
    1W        W40164   2.635  17.594   8.866  0.2998  0.1969 -0.0635
    1W        W40165   9.551   8.812   1.533  0.0663 -0.0298 -0.0496
    1W        W40166  15.336   7.385   7.757 -0.2108 -0.0671 -0.2384
    1W        W40167   1.351  26.778   7.368  0.1229  0.0830  0.0835
    1W        W40168  25.717   7.778   0.529 -0.0683 -0.1075 -0.1340
    1W        W40169   9.771  29.440   2.020 -0.1393  0.0725  0.2242
    1W        W40170  15.088   2.117   6.846 -0.2454  0.1612 -0.1509
    1W        W40171   0.959   1.935   2.502  0.0780 -0.1061  0.0271
    1W        W40172   6.051   5.911   7.929  0.1239  0.0987 -0.0413
    1W        W40173  26.586  19.934   8.688  0.1355  0.1290  0.0926
    1W        W40174  18.548  12.459   1.975 -0.3037  0.0583  0.1135
    1W        W40175   9.988   4.822   3.595 -0.1597 -0.0386  0.2282
    1W        W40176  21.663  14.479   8.349 -0.0296  0.0381 -0.0415
    1W        W40177  18.109  28.234   3.298  0.2797  0.0482  0.0520
    1W        W40178  15.807  18.475   7.303 -0.4205 -0.1618 -0.1503
    1W        W40179   2.033  10.994   0.048  0.0607  0.0206 -0.2430
    1W        W40180   8.263  21.819   1.965 -0.0177 -0.1240  0.0021
    1W        W40181  16.721   2.391   7.254 -0.1474 -0.1135 -0.4031
    1W        W40182  17.164   6.702   1.776 -0.0754 -0.1806 -0.0835
    1W        W40183  19.655  21.449   0.309  0.0013  0.0775 -0.1977
    1W        W40184   0.294   6.662   6.209  0.0665  0.0103  0.1061
    1W        W40185  29.291  24.953   8.168 -0.0028  0.1972  0.0876
    1W        W40186   6.226   6.497   2.808 -0.3638  0.1650 -0.1799
    1W        W40187  15.762  19.718   8.841  0.0443  0.0205 -0.0952
    1W        W40188  15.795   9.677   3.466  0.0087 -0.2250  0.0187
    1W        W40189  12.344  19.691   1.590 -0.1025 -0.0061  0.4207
    1W        W40190  24.466  20.859   1.824  0.1521  0.1460 -0.0565
    1W        W40191  27.903  20.116   1.397 -0.0188 -0.1381  0.0939
    1W        W40192  19.734   8.074   7.948  0.0770 -0.0515 -0.0295
    1W        W40193  26.211  28.668   2.400  0.1505  0.1102  0.0324
    1W        W40194  26.789   1.737   1.287  0.2276  0.2417  0.1792
    1W        W40195  26.044  27.958   1.760  0.0589 -0.1298  0.2542
    1W        W40196  20.235  29.379   7.424 -0.2395  0.3023 -0.0895
    1W        W40197  23.258   1.800   0.275  0.1278  0.0696  0.1463
    1W        W40198  11.410   2.493   3.027  0.2593  0.1704  0.0004
    1W        W40199  23.962  10.817   6.170 -0.0425  0.0004  0.0411
    1W        W40200  13.587  13.105   0.653  0.2077 -0.0927 -0.0502
    1W        W40201  16.437  25.012   1.063  0.1414 -0.0636  0.0242
    1W        W40202   2.157  20.711   8.662  0.1996  0.0453 -0.0120
    1W        W40203  24.318  19.084   0.987  0.1555  0.0216  0.2017
    1W        W40204  18.295  24.929   8.809  0.0535 -0.2993  0.1561
    1W        W40205  12.881   1.558   3.169  0.0401 -0.5543 -0.0798
    1W        W40206   8.489  11.304   2.868  0.3614 -0.4378  0.0063
    1W        W40207   1.574  18.973   7.318  0.0654 -0.1207 -0.0294
    1W        W40208   7.690   5.367   8.811 -0.1943 -0.1212 -0.2169
    1W        W40209  27.479  22.835   0.979 -0.1867 -0.0075  0.5086
    1W        W40210  20.974   6.079   1.505 -0.1658 -0.0985 -0.1780
    1W        W40211  14.133  20.398   3.397 -0.2384 -0.0143  0.0748
    1W        W40212  17.795   0.338   1.727 -0.2431  0.0624 -0.0411
    1W        W40213  10.229  26.558   8.492  0.3308 -0.0077 -0.1143
    1W        W40214   6.200   7.433   0.922  0.3217  0.2253 -0.0214
    1W        W40215  29.044  25.131   7.258  0.4315  0.1631  0.1386
    1W        W40216   5.623   8.478   2.174 -0.0109  0.1072  0.1386
    1W        W40217   8.280   5.224   0.053 -0.3459 -0.3359 -0.0560
    1W        W40218  16.214  13.635   1.579 -0.2626  0.1722  0.0799
    1W        W40219   1.135   5.207   2.315 -0.0467  0.1419  0.1110
    1W        W40220  14.990  11.574   8.638 -0.0743  0.0106 -0.1095
    1W        W40221   1.410   6.852   8.757  0.1204 -0.1034  0.1954
    1W        W40222   4.566  21.595   7.276 -0.3416  0.2280  0.0704
    1W        W40223  22.041  24.080   2.962 -0.0050 -0.3180 -0.0183
    1W        W40224   9.099   4.751   2.288 -0.3786  0.1575  0.3042
    1W        W40225  28.383  12.815   7.316 -0.1787  0.2445  0.0026
    1W        W40226  13.732   6.658   1.572 -0.3173  0.0892 -0.2821
    1W        W40227   0.282   0.694   2.988 -0.0921  0.2479 -0.0306
    1W        W40228  10.629  20.615   1.886 -0.1098 -0.2038  0.1014
    1W        W40229   1.191   1.604   0.246  0.1550  0.1277 -0.2545
    1W        W40230  28.333  28.703   0.315 -0.1531 -0.0337 -0.1107
    1W        W40231  17.698  10.278   1.728  0.1519  0.2588  0.2086
    1W        W40232  19.040   9.702   6.569  0.1677 -0.0062 -0.0075
    1W        W40233  12.327   0.446   8.802 -0.0618 -0.2668  0.0895
    1W        W40234  12.011   6.377   7.458 -0.0014  0.1101  0.0422
    1W        W40235  24.773  18.814   7.350 -0.0846 -0.2349  0.0582
    1W        W40236   0.305   3.540   8.898 -0.0799  0.3799  0.2865
    1W        W40237  11.154  24.792   9.368  0.0462  0.2867  0.4481
    1W        W40238  25.899   8.679   9.215 -0.3582  0.1016  0.0383
    1W        W40239  12.880   6.824   0.889 -0.1896  0.2809  0.1140
    1W        W40240  29.620  10.950   2.187  0.1116  0.1977 -0.0079
    1W        W40241  17.231  17.780   6.807 -0.0221  0.4096  0.0896
    1W        W40242   1.824   5.647   8.429 -0.0536 -0.0516 -0.1564
    1W        W40243   6.794  25.320   9.372 -0.0928  0.0228  0.1770
    1W        W40244  12.355  25.966   7.083 -0.2440  0.1969  0.2119
    1W        W40245  12.868  21.165   8.885 -0.4254 -0.3052  0.1936
    1W        W40246  20.031  11.830   0.237  0.1405  0.0677 -0.2422
    1W        W40247  21.111  26.358   7.632  0.0061 -0.4253 -0.0106
    1W        W40248  24.702  26.948   3.210 -0.1754 -0.3948 -0.1268
    1W        W40249  28.238  23.865   1.626 -0.0781 -0.1090 -0.0162
    1W        W40250  24.441  24.992   0.487 -0.1629 -0.1122 -0.0461
    1W        W40251  26.553  26.623   0.378 -0.1241 -0.0016 -0.1805
    1W        W40252  10.536  10.588   0.854 -0.0985  0.3011 -0.3076
    1W        W40253   3.916   3.651   8.039 -0.1870  0.0171  0.0832
    1W        W40254  15.311   5.911   1.667  0.1316 -0.1563  0.0051
    1W        W40255  25.446  18.006   6.772  0.2155 -0.1246  0.0834
    1W        W40256  14.743   5.133   3.007  0.2656  0.1454  0.1359
    1W        W40257  26.909  23.950   1.298 -0.2575  0.0164  0.3370
    1W        W40258  15.928  10.770   2.839 -0.1977  0.1225 -0.1010
    1W        W40259  25.565   0.915   1.517 -0.2762 -0.2272 -0.4947
    1W        W40260  21.135  17.319   0.434  0.0484 -0.3554 -0.0383
    1W        W40261  11.342  13.241   8.899  0.0636  0.1153 -0.1133
    1W        W40262   7.860   6.626   8.430 -0.0512  0.0688 -0.1327
    1W        W40263  12.861   5.866   1.786  0.2271  0.0469 -0.2197
    1W        W40264  27.507  25.445   1.794  0.2094 -0.2011 -0.2285
    1W        W40265   0.318  16.128   7.267  0.0174 -0.0549 -0.1501
    1W        W40266   9.023  23.673   7.133  0.0520 -0.1290 -0.1427
    1W        W40267  26.599  24.290   0.584 -0.1762  0.3914  0.2365
    1W        W40268  17.019  18.747   1.690 -0.0305  0.3608  0.1183
    1W        W40269   5.457   7.874   0.376 -0.0983  0.1301 -0.0060
    1W        W40270  18.994  20.149   8.218  0.1066  0.1042  0.0867
    1W        W40271  12.524  26.803   7.000 -0.0775  0.0347 -0.0448
    1W        W40272  27.484  13.611   8.987  0.2291 -0.0799 -0.2821
    1W        W40273   1.109  20.819   0.573  0.3712 -0.2554 -0.3026
    1W        W40274  15.115   4.099   8.243  0.1284  0.0220  0.0003
    1W        W40275   6.087   9.655   7.507 -0.3439 -0.0251  0.0703
    1W        W40276   7.855  24.008   0.781 -0.1363  0.1611 -0.2073
    1W        W40277  23.921   2.823   8.869 -0.2270  0.0219  0.1387
    1W        W40278  12.429   9.975   9.357  0.0430 -0.1692 -0.1911
    1W        W40279   6.236  29.196   1.530  0.5060 -0.0833 -0.3300
    1W        W40280   6.781   2.103   1.684  0.1019  0.4377  0.0370
    1W        W40281  27.168  29.731   9.105  0.0916 -0.0420  0.2179
    1W        W40282  11.689   3.977   3.232 -0.0304  0.0350  0.1011
    1W        W40283  25.368  24.306   1.374  0.2072 -0.0304  0.2076
    1W        W40284   5.791  15.571   9.520  0.1896  0.0018 -0.0395
    1W        W40285   5.090  11.977   1.085 -0.0578 -0.1103  0.1510
    1W        W40286  23.737  27.701   7.761 -0.3057  0.0670 -0.3330
    1W        W40287  17.829  13.763   8.095  0.1785  0.1463  0.1725
    1W        W40288  23.361  13.944   7.033  0.0470 -0.0795  0.0903
    1W        W40289   2.922   2.988   1.833 -0.3385 -0.2387 -0.0645
    1W        W40290   0.537  24.984   7.546 -0.1175 -0.0257 -0.0803
    1W        W40291   3.520  21.348   0.825  0.1003  0.1946 -0.4914
    1W        W40292  21.502   1.967   1.405  0.0602 -0.2705  0.0824
    1W        W40293  15.871  18.176   6.844  0.0287  0.3126  0.1047
    1W        W40294  14.532  11.863   1.884 -0.4547  0.3020 -0.2192
    1W        W40295  23.570   0.034   9.288 -0.0304 -0.0222 -0.2983
    1W        W40296  13.439  18.251   1.474 -0.0638 -0.4205 -0.4128
    1W        W40297  27.927   7.191   0.695 -0.1043  0.0225  0.0936
    1W        W40298  10.092   1.747   9.410 -0.3251  0.1398  0.1495
    1W        W40299  18.493  29.007   1.604  0.1544 -0.2055 -0.1083
    1W        W40300   9.211   7.076   1.430 -0.1719  0.1443  0.1662
    1W        W40301   9.416  11.958   9.480 -0.0117  0.2417 -0.1959
    1W        W40302  19.363   9.818   0.329  0.1220  0.0135  0.0308
    1W        W40303  26.895  21.432   7.324  0.1092 -0.0324 -0.0819
    1W        W40304  16.904  17.918   2.060 -0.0670  0.1285  0.1229
    1W        W40305  29.415  27.518   2.691 -0.1749  0.3816  0.0095
    1W        W40306  28.027   5.590   7.036 -0.2139  0.0480 -0.0409
    1W        W40307  14.218  12.635   8.294 -0.0174  0.2725  0.0216
    1W        W40308  24.897   0.330   2.133 -0.0651  0.1159  0.2804
    1W        W40309  18.968   5.330   0.834  0.0143 -0.2400  0.0875
    1W        W40310   9.928  28.407   3.291 -0.1622 -0.1454  0.0835
    1W        W40311  18.766  11.126   0.525  0.0578  0.4751 -0.0492
    1W        W40312  16.718  17.058   0.257  0.0110  0.0580 -0.3561
    1W        W40313  26.694  17.638   9.367  0.0702 -0.4116 -0.0143
    1W        W40314   7.578  14.138   9.081  0.2001  0.2832  0.0658
    1W        W40315   7.780   9.996   7.066  0.1831 -0.1630  0.1055
    1W        W40316   9.327  14.008   1.123  0.0775  0.1231  0.3278
    1W        W40317  28.033  24.299   2.496 -0.0894 -0.2330 -0.0838
    1W        W40318  15.845  21.725   6.805  0.0325 -0.0261 -0.0580
    1W        W40319  21.422  25.763   3.445 -0.1568  0.2977  0.1103
    1W        W40320  22.882  14.302   8.869 -0.1384  0.0050  0.1970
    1W        W40321  14.844  10.636   8.825 -0.0195 -0.1614  0.0022
    1W        W40322  19.727  14.038   6.620  0.2183 -0.4572 -0.1827
    1W        W40323   0.713   1.976   7.140  0.1268 -0.3530  0.0837
    1W        W40324   2.953  12.551   0.742 -0.0145 -0.1255  0.2327
    1W        W40325   5.532  25.464   0.462  0.0646 -0.0922  0.0338
    1W        W40326  16.702   3.401   2.840  0.1201  0.3995 -0.2019
    1W        W40327  11.805  19.725   1.655  0.1581  0.2928 -0.3233
    1W        W40328   7.717  22.011   1.899  0.0170  0.1531  0.0072
    1W        W40329   4.496  26.116   0.280 -0.1253 -0.0944 -0.1514
    1W        W40330  11.961   7.847   7.722  0.0232 -0.0332 -0.1404
    1W        W40331  29.659   1.154   2.426 -0.0147  0.0397 -0.1892
    1W        W40332  21.434   0.786   1.738 -0.0321  0.0088 -0.0767
    1W        W40333  10.797  28.002   8.049 -0.1160  0.1280  0.1151
    1W        W40334  15.799   6.358   2.153 -0.0959  0.2686 -0.3216
    1W        W40335  21.075  14.025   6.497  0.1462 -0.2493 -0.2211
    1W        W40336  23.097  25.804   0.953  0.1557 -0.3229  0.1176
    1W        W40337  16.812  12.840   0.600 -0.1187 -0.0801 -0.2321
    1W        W40338  13.573  11.092   2.215 -0.0035  0.1840  0.0358
    1W        W40339  28.409   6.377   9.022  0.1737  0.1992 -0.0226
    1W        W40340  25.237   4.120   1.077 -0.0220  0.0486 -0.2696
    1W        W40341   3.236  23.021   0.948  0.1767  0.1932 -0.1117
    1W        W40342  16.829   7.742   2.433 -0.1540  0.1344  0.2831
    1W        W40343  11.937   2.645   0.536 -0.2574 -0.0787  0.2885
    1W        W40344   5.074  16.749   1.264 -0.0811 -0.0427 -0.3735
    1W        W40345  19.310  11.629   6.742 -0.1608 -0.5885 -0.1861
    1W        W40346  21.194   1.709   3.665  0.2530  0.0087  0.0735
    1W        W40347  15.423  14.711   8.084 -0.0264  0.1185  0.0249
    1W        W40348  11.482  25.153   8.140  0.0669 -0.0627 -0.1588
    1W        W40349  13.901  19.560   7.108  0.4089  0.1090  0.0661
    1W        W40350   4.600   7.731   1.773 -0.0554 -0.0491  0.2311
    1W        W40351   0.127  25.195   1.954 -0.2779  0.0525 -0.3677
    1W        W40352  26.292  23.356   2.296 -0.1151  0.0179 -0.1476
    1W        W40353   4.209   5.865   1.551 -0.1084 -0.0834  0.0624
    1W        W40354  25.726  29.021   9.195 -0.0171  0.1416 -0.1843
    1W        W40355  14.926   4.789   7.469  0.1236 -0.2441  0.1471
    1W        W40356  22.309   3.451   3.697  0.0625  0.0741  0.0115
    1W        W40357   8.069  29.047   9.279 -0.2913 -0.0800  0.0774
    1W        W40358   3.382  15.267   8.718 -0.2541  0.0284 -0.0005
    1W        W40359  20.180   9.215   7.891  0.2424  0.3184  0.0977
    1W        W40360  17.046  12.843   8.244  0.1144 -0.0305 -0.2256
    1W        W40361  23.314  17.641   7.935 -0.0703 -0.0261  0.1152
    1W        W40362  15.463  21.119   1.355  0.3112 -0.1827  0.3279
    1W        W40363   3.454  16.406   0.033 -0.2487  0.1942 -0.2088
    1W        W40364  29.685   2.696   9.419  0.0901  0.2106  0.0348
    1W        W40365   9.006   7.373   2.272 -0.1826 -0.0143 -0.1492
    1W        W40366  20.792  27.534   8.144 -0.1690 -0.4900  0.3043
    1W        W40367  19.370   2.111   7.966  0.1813  0.2637  0.0426
    1W        W40368   3.988  18.241   0.248  0.2439 -0.2120 -0.2275
    1W        W40369   8.063  10.308   8.134 -0.0404 -0.2333  0.0083
    1W        W40370   6.659  15.925   2.089 -0.2487  0.0611 -0.0212
    1W        W40371  23.507   6.406   8.525  0.2059  0.3533 -0.1660
    1W        W40372   9.853   1.226   1.664 -0.1635  0.1193  0.3691
    1W        W40373  25.200   3.034   7.346  0.1580 -0.1784 -0.0532
    1W        W40374  19.913  15.287   2.338  0.3212  0.1374  0.0128
    1W        W40375  12.859  18.265   0.745 -0.1939 -0.2496 -0.0850
    1W        W40376   5.272  20.063   8.751  0.1386 -0.0991 -0.1852
    1W        W40377   2.079  25.094   6.699 -0.3509 -0.0695 -0.1707
    1W        W40378   6.375  28.307   2.773 -0.1831 -0.0779  0.1142
    1W        W40379   3.388   0.764   1.557 -0.0725  0.3325  0.2355
    1W        W40380  13.894  13.353   7.690 -0.0181 -0.3001 -0.0508
    1W        W40381  25.788  27.148   3.234 -0.1621 -0.1446  0.1760
    1W        W40382   4.541  20.990   2.241  0.3858  0.1620 -0.0195
    1W        W40383  11.640   9.772   7.873  0.1516 -0.1841 -0.3210
    1W        W40384  13.099   7.975   8.984 -0.3210 -0.3264  0.1946
    1W        W40385   6.685   7.614   0.854  0.0159  0.2555 -0.0328
    1W        W40386   6.586   9.730   8.970  0.0780 -0.0437  0.1073
    1W        W40387  22.931  12.649   5.964  0.2446  0.0963  0.5400
    1W        W40388  19.891  23.114   1.188 -0.3675 -0.1595 -0.1128
    1W        W40389  21.395  14.031   6.899 -0.0348  0.0799 -0.1628
    1W        W40390  25.701   4.054   7.732 -0.0102 -0.1734  0.0602
    1W        W40391  17.602  14.949   1.177  0.0669 -0.3279  0.1058
    1W        W40392  10.754  24.084   2.066  0.1001  0.0175 -0.0256
    1W        W40393   9.549  25.331   9.525  0.0689 -0.0372 -0.0701
    1W        W40394   8.998  16.695   1.422 -0.0110  0.0385  0.1615
    1W        W40395  15.150   3.451   8.831  0.2507 -0.1559 -0.1627
    1W        W40396  20.700  24.799   0.775  0.0546  0.0143 -0.1075
    1W        W40397  13.732  13.539   9.235  0.2867  0.2016 -0.0182
    1W        W40398  24.927   0.122   9.437 -0.2139  0.0882 -0.3524
    1W        W40399  17.314   7.005   2.743 -0.1241  0.1959  0.0022
    1W        W40400  24.013  12.953   0.272 -0.0864 -0.0710  0.0068
    1W        W40401   6.681  29.010   6.521 -0.1963  0.1756 -0.4639
    1W        W40402  25.332  15.082   6.259 -0.3914  0.2623 -0.2806
    1W        W40403  13.769  24.419   1.529 -0.0054 -0.1406  0.1806
    1W        W40404   7.638   7.869   7.098  0.0512 -0.0610 -0.2791
    1W        W40405  20.018  21.722   0.471 -0.1721 -0.0017 -0.0324
    1W        W40406  19.656  19.037   9.424 -0.0346  0.2268 -0.2059
    1W        W40407  11.884   8.523   9.518  0.0939 -0.0143  0.0258
    1W        W40408   8.382   3.157   8.604  0.1674  0.0933 -0.1237
    1W        W40409   0.515  17.176   6.389  0.1204 -0.0616  0.0917
    1W        W40410  21.488  18.443   9.284 -0.0492  0.1318  0.0832
    1W        W40411  25.640   3.701   2.744  0.0347 -0.1113 -0.2362
    1W        W40412  20.825   1.278   2.636 -0.2735  0.0228  0.1960
    1W        W40413  28.789  14.712   8.357  0.1252 -0.2039 -0.2047
    1W        W40414  13.289  16.258   7.676  0.0943 -0.1332  0.1034
    1W        W40415   0.863   2.100   2.019  0.0981 -0.0690 -0.2416
    1W        W40416   5.948  12.232   7.028 -0.0230 -0.1758 -0.2673
    1W        W40417  26.760  10.233   6.319 -0.0105  0.0879 -0.0184
    1W        W40418  20.951   4.290   8.794 -0.0380  0.2573  0.1410
    1W        W40419  27.159  17.710   6.869 -0.0634 -0.2794  0.4503
    1W        W40420  28.592   7.557   6.341  0.1615  0.0672  0.1084
    1W        W40421  27.777  14.553   8.556  0.0686  0.0981 -0.3871
    1W        W40422  15.598  14.638   1.973 -0.1136 -0.4389 -0.2126
    1W        W40423  24.127  11.149   0.030  0.1379 -0.1199 -0.0138
    1W        W40424   4.866  23.732   0.528  0.0942 -0.0011 -0.1257
    1W        W40425  23.089   0.765   0.321  0.0271 -0.2959  0.1300
    1W        W40426  21.579  26.681   9.241 -0.1111 -0.1862 -0.1115
    1W        W40427  11.529  12.537   0.080  0.0027 -0.0063 -0.0159
    1W        W40428  26.488  17.697   7.480 -0.1756  0.2111  0.3245
    1W        W40429  23.941  16.836   7.488  0.0457 -0.0943  0.0621
    1W        W40430  21.910  20.831   9.069  0.2789  0.2096  0.1198
    1W        W40431  15.438   5.095   2.176  0.1672  0.0406  0.0492
    1W        W40432  18.448  14.389   7.379 -0.0641  0.0353  0.3191
    1W        W40433  12.113   0.048   8.407  0.1085  0.0792 -0.2711
    1W        W40434  17.141  10.574   6.727 -0.3241  0.2534  0.3768
    1W        W40435  27.139  29.674   6.536  0.0691  0.3109 -0.1033
    1W        W40436  18.192  21.367   8.598 -0.4758  0.2752  0.2353
    1W        W40437   6.698  12.168   1.695  0.0861 -0.0527  0.0330
    1W        W40438  18.821   4.518   3.160  0.0685 -0.1350  0.0488
    1W        W40439  22.392  15.453   8.967  0.3021 -0.0454  0.0934
    1W        W40440  20.609  21.570   1.112  0.0895 -0.0880 -0.0383
    1W        W40441   7.789  13.763   2.233  0.2151  0.1581 -0.0264
    1W        W40442  10.316  29.103   0.285 -0.1772  0.0491  0.0812
    1W        W40443  13.114  28.631   0.854 -0.1451  0.1026  0.1053
    1W        W40444   0.046  22.389   2.262  0.0643 -0.5025  0.1839
    1W        W40445  25.660  10.478   7.890 -0.1338  0.3175 -0.0339
    1W        W40446  17.715   3.815   0.019  0.0162 -0.1593  0.1289
    1W        W40447  20.406  22.871   2.656 -0.0157 -0.0261 -0.1550
    1W        W40448  28.278  10.238   6.966  0.3760 -0.4177 -0.1447
    1W        W40449  19.229  25.148   9.208  0.0092 -0.2728  0.0218
    1W        W40450  19.798   8.474   1.118 -0.1568 -0.2748 -0.0305
    1W        W40451  25.670  25.294   1.356 -0.2386 -0.2302 -0.0089
    1W        W40452  25.026  24.872   7.610 -0.1654 -0.0855 -0.3137
    1W        W40453   7.738  24.783   6.486  0.0871  0.2305  0.0137
    1W        W40454   5.958   2.096   3.286  0.1398  0.0157  0.4317
    1W        W40455   6.711  14.045   9.536 -0.0114 -0.0520  0.2998
    1W        W40456   4.125   5.935   6.446  0.0263 -0.0635 -0.1856
    1W        W40457   1.068  13.663   0.240  0.1052 -0.0464 -0.1832
    1W        W40458  28.510  22.293   7.438 -0.3108 -0.0293 -0.1882
    1W        W40459  16.697  11.482   1.415  0.1482  0.1945  0.0784
    1W        W40460  27.482  13.912   6.294  0.0169 -0.0807  0.1908
    1W        W40461  26.563  28.260   2.057 -0.1595  0.0421  0.0041
    1W        W40462  21.036  15.228   6.306  0.2929  0.0031  0.0034
    1W        W40463  23.160  27.582   7.260 -0.2061  0.1190 -0.1925
    1W        W40464  18.906  18.361   1.312  0.2461 -0.1933 -0.1731
    1W        W40465  14.071  20.800   1.288 -0.1218 -0.1430  0.5288
    1W        W40466  11.513   2.380   0.398  0.1005  0.5008  0.2604
    1W        W40467  18.112  22.361   6.142 -0.3370 -0.2598 -0.3653
    1W        W40468  14.558  21.110   6.884 -0.1376  0.3593 -0.2920
    1W        W40469   7.686   6.787   2.382  0.2144 -0.2754  0.0730
    1W        W40470   6.742  11.969   7.086  0.0702  0.0336  0.3365
    1W        W40471  19.861  22.549   1.149 -0.0830  0.0473 -0.1797
    1W        W40472  10.111   1.361   8.287  0.2635  0.1384  0.1942
    1W        W40473  14.015  25.653   0.911 -0.4474  0.2462 -0.2325
    1W        W40474  17.611  29.295   7.637 -0.4074  0.5159  0.2505
    1W        W40475  26.581   7.146   0.619 -0.2970 -0.0545 -0.1623
    1W        W40476   8.945  24.190   2.907 -0.0288  0.4692  0.2874
    1W        W40477  23.550   0.760   7.243  0.2693 -0.1287  0.2402
    1W        W40478   4.817   1.827   7.248  0.0992  0.1186 -0.2024
    1W        W40479  17.782  24.546   2.111 -0.1791  0.1316 -0.0817
    1W        W40480  21.623  28.151   1.170  0.0220  0.1138 -0.1497
    1W        W40481   1.581  18.179   0.637  0.3844  0.1775  0.0795
    1W        W40482  11.251   7.604   2.551  0.2295  0.1273  0.1656
    1W        W40483  22.909  28.761   1.354 -0.2839 -0.0652  0.1812
    1W        W40484  18.899   2.535   2.107 -0.1735 -0.1566 -0.0572
    1W        W40485   9.008   8.888   1.739  0.2685 -0.0827 -0.0765
    1W        W40486  22.290   1.874   2.563 -0.1052  0.0140 -0.2791
    1W        W40487   2.565  26.936   0.901  0.0062  0.0136 -0.0136
    1W        W40488  11.020   5.495   0.043  0.1109 -0.2346 -0.1172
    1W        W40489  17.158   9.039   2.688  0.1577  0.5872 -0.1131
    1W        W40490  29.120  11.657   1.335  0.1515 -0.3890  0.0633
    1W        W40491  13.343  14.036   8.174  0.0050 -0.2729 -0.1622
    1W        W40492   1.293  10.977   1.579  0.4748 -0.1040 -0.1391
    1W        W40493  17.715  24.134   1.835 -0.2100 -0.3361  0.1401
    1W        W40494   0.371   2.821   2.593  0.0554  0.3442 -0.2877
    1W        W40495  16.345  23.438   1.876  0.0714  0.0114 -0.1385
    1W        W40496  21.484  25.533   2.585  0.5612  0.0266  0.2067
    1W        W40497   1.829  22.782   2.339  0.1978 -0.1767 -0.0282
    1W        W40498   4.787  13.812   8.800 -0.1662  0.1117 -0.1262
    1W        W40499  17.084  21.823   0.382  0.0705 -0.0675  0.0394
    1W        W40500   0.946  18.698   1.798 -0.0777 -0.1615 -0.4497
    1W        W40501   6.617  10.973   7.184 -0.1678 -0.1584  0.1127
    1W        W40502  27.477  12.575   8.821  0.3006  0.2779  0.1726
    1W        W40503  10.944   4.227   9.054  0.1046  0.0103  0.1862
    1W        W40504   2.110  10.003   7.071  0.1186  0.2540  0.3198
    1W        W40505   2.600   1.099   8.647  0.3788 -0.0517 -0.1369
    1W        W40506  21.737  13.993   1.289  0.1947 -0.0717  0.2986
    1W        W40507  12.645   3.155   2.056 -0.0115 -0.0717 -0.0921
    1W        W40508   7.912   6.495   2.721  0.3657  0.0659 -0.0296
    1W        W40509  26.893  21.003   8.396 -0.0572 -0.0120  0.2538
    1W        W40510  16.675  29.025   9.047 -0.0508 -0.0439  0.0732
    1W        W40511   8.804   9.810   2.788  0.1946  0.0065 -0.0534
    1W        W40512  18.723  25.213   6.825  0.2043 -0.2111  0.2470
    1W        W40513  23.766  18.006   1.802  0.2119  0.1705  0.1535
    1W        W40514  20.517  13.315   1.009 -0.1252  0.1013  0.0013
    1W        W40515  10.061   4.576   1.564  0.0409 -0.0503  0.2695
    1W        W40516  11.203   1.494   6.976 -0.1092  0.1599 -0.2306
    1W        W40517   1.413   6.920   9.336 -0.0868 -0.0786  0.1920
    1W        W40518  16.296  28.334   8.402  0.0367 -0.2365  0.0528
    1W        W40519   2.733  29.442   1.828 -0.1605 -0.2020 -0.0505
    1W        W40520  10.420  17.613   1.845  0.3002  0.2709 -0.0191
    1W        W40521   0.060   2.163   2.515 -0.2126 -0.0327  0.0894
    1W        W40522   3.913  13.269   1.876  0.0510  0.0252  0.0925
    1W        W40523  10.409  23.700   6.520  0.0576 -0.2626  0.1678
    1W        W40524  24.349  12.194   8.391  0.0853  0.1784  0.2520
    1W        W40525   6.681   1.313   0.688  0.3226  0.5678  0.4290
    1W        W40526  12.546   0.090   2.844 -0.2515  0.1706  0.2078
    1W        W40527  19.022  21.491   7.246  0.1314  0.1260 -0.2829
    1W        W40528  20.739  22.332   7.410  0.1120 -0.0892 -0.0305
    1W        W40529  27.324  10.671   1.144 -0.2606  0.1616 -0.1699
    1W        W40530  24.260  22.875   5.822  0.0893 -0.0441 -0.0958
    1W        W40531   0.892  12.740   0.231 -0.2881 -0.1558  0.0997
    1W        W40532  18.261  25.769   2.152 -0.0314 -0.0485  0.0105
    1W        W40533   2.417  26.393   0.464 -0.2774 -0.1257  0.0095
    1W        W40534  16.081  17.352   2.145  0.2179 -0.1594 -0.1908
    1W        W40535   6.195  18.111   0.589 -0.2603  0.0263  0.2460
    1W        W40536  20.172  22.274   1.463 -0.1801 -0.0412 -0.1419
    1W        W40537   7.683  23.969   1.294  0.2564 -0.0231  0.0273
    1W        W40538  18.043   5.934   7.854  0.0992  0.0029  0.2149
    1W        W40539   3.074  25.813   1.916 -0.0783  0.3649 -0.0417
    1W        W40540  16.274   9.775   3.034 -0.2035  0.0982  0.0659
    1W        W40541  28.472   3.055   0.889 -0.1165  0.1733  0.0111
    1W        W40542   7.918  18.426   8.217 -0.0665 -0.1438 -0.1856
    1W        W40543  17.357  26.045   7.950  0.0935 -0.0330 -0.0829
    1W        W40544   3.873   1.299   0.976 -0.0689 -0.1779  0.1182
    1W        W40545   2.580   3.068   7.485 -0.0067 -0.0159  0.0616
    1W        W40546  15.394  15.703   8.709 -0.0337  0.2518 -0.0782
    1W        W40547  22.662   1.609   2.834 -0.1140  0.0152  0.0596
    1W        W40548   3.747   5.681   1.410  0.0746  0.1044  0.1116
    1W        W40549   3.909  16.501   0.551 -0.0499  0.0189  0.0782
    1W        W40550  10.400   0.164   2.993  0.2576  0.3093  0.2954
    1W        W40551  16.700  26.902   1.876 -0.1138 -0.1898  0.0380
    1W        W40552   1.869  15.480   8.023  0.4252 -0.0103  0.1265
    1W        W40553   1.262   4.168   8.485  0.1717  0.1891 -0.2395
    1W        W40554  15.321   3.720   1.766 -0.1955  0.5479  0.2593
    1W        W40555  12.722   2.399   7.789  0.0135  0.1410 -0.2018
    1W        W40556   1.423  28.429   2.977  0.3227 -0.2574  0.0592
    1W        W40557  26.669   1.678   9.087  0.3436  0.0037 -0.3338
    1W        W40558  15.774   1.834   0.653  0.0076  0.4629 -0.0063
    1W        W40559   3.443   4.057   0.562 -0.0082  0.3669 -0.1701
    1W        W40560   6.857  18.825   1.072  0.0529  0.0517 -0.2252
    1W        W40561  17.430  24.972   2.217 -0.0437  0.0161  0.2580
    1W        W40562  16.631  28.363   2.527  0.3027 -0.1675  0.0400
    1W        W40563   8.416  29.306   7.382  0.1430 -0.2014 -0.0842
    1W        W40564  27.300  11.053   7.687  0.2167 -0.0736 -0.0423
    1W        W40565  23.639   3.204   8.907 -0.1208 -0.0894 -0.2567
    1W        W40566  15.635  11.737   9.484  0.0930 -0.3582  0.1362
    1W        W40567  12.803  21.722   8.991 -0.1010 -0.0586  0.1341
    1W        W40568   4.517  28.864   9.437 -0.1656 -0.0435 -0.0580
    1W        W40569  15.787  13.181   2.078 -0.2914 -0.1007 -0.0367
    1W        W40570  17.074  18.422   6.153 -0.1275  0.0195  0.1192
    1W        W40571  23.064  21.163   0.969  0.0638  0.2073 -0.3770
    1W        W40572  26.728   6.712   7.788 -0.1300  0.0008  0.2481
    1W        W40573  16.160  18.258   1.099  0.0319 -0.1645 -0.2380
    1W        W40574   7.118  25.698   8.033  0.0944 -0.3660  0.2177
    1W        W40575  15.623  18.117   0.504  0.2604 -0.3816  0.0386
    1W        W40576  18.594  20.406   5.947 -0.1305 -0.0121  0.0893
    1W        W40577   0.330   8.564   8.564 -0.0316  0.0738  0.1626
    1W        W40578   4.841  25.820   2.929 -0.3396  0.0145 -0.0490
    1W        W40579   8.645   2.038   2.825  0.0329  0.2397 -0.0971
    1W        W40580  24.606  20.608   7.091 -0.0549 -0.1602  0.1387
    1W        W40581   0.420  16.892   6.845 -0.1418  0.0291 -0.0048
    1W        W40582  27.092   5.979   7.612  0.0670  0.3264  0.2601
    1W        W40583  16.572   0.731   8.368 -0.1875 -0.5813 -0.0716
    1W        W40584  12.937   9.565   1.396 -0.3218  0.0567  0.1079
    1W        W40585   1.076  10.239   8.699  0.1159 -0.1951 -0.0303
    1W        W40586   3.362  12.222   0.349 -0.0245 -0.3075  0.0799
    1W        W40587   7.219  22.285   0.283 -0.1101  0.1122  0.2412
    1W        W40588  21.059   7.940   7.913  0.0495 -0.0701  0.0637
    1W        W40589   5.019  21.276   1.696  0.0673 -0.2941  0.1129
    1W        W40590  19.845   7.787   8.698 -0.3214  0.0653  0.0222
    1W        W40591  20.865   8.157   2.297  0.1220 -0.2061 -0.0270
    1W        W40592  25.423  16.559   7.472  0.0016  0.2495 -0.2150
    1W        W40593  15.333   0.119   6.742 -0.3326 -0.3127  0.2621
    1W        W40594  25.687  15.398   0.287  0.0355 -0.1414  0.0220
    1W        W40595  21.314  14.823   6.194 -0.5699  0.3419 -0.3830
    1W        W40596   3.021   5.993   8.514  0.2599  0.3076 -0.2638
    1W        W40597  10.357   8.557   3.710  0.1293  0.1576  0.0579
    1W        W40598   8.626  27.682   2.288 -0.0666  0.0899 -0.0392
    1W        W40599   4.961   0.076   2.037 -0.0988 -0.0114  0.1191
    1W        W40600  20.903   0.011   1.339  0.0289  0.1600 -0.2045
    1W        W40601   3.776  22.737   1.698 -0.0826  0.3101 -0.2576
    1W        W40602  28.244  15.542   7.992  0.3136 -0.3638 -0.3150
    1W        W40603  16.517  16.165   0.441  0.1511  0.1119 -0.1113
    1W        W40604  28.627  16.631   6.564 -0.1666 -0.1443 -0.0678
    1W        W40605  12.938   1.007   9.530 -0.1476 -0.1481  0.1071
    1W        W40606  20.656  11.627   7.047 -0.2157 -0.1082 -0.1772
    1W        W40607  20.318  27.611   8.063 -0.1804  0.1937 -0.0310
    1W        W40608  15.951   3.419   9.428 -0.1614  0.0423 -0.0269
    1W        W40609   2.959   2.370   8.502  0.0504  0.1004  0.3153
    1W        W40610   1.639  10.707   7.185 -0.3233  0.0572  0.1398
    1W        W40611   6.717   0.030   7.971  0.1984  0.0204  0.3830
    1W        W40612   3.717  16.892   8.824  0.1642  0.2323  0.1608
    1W        W40613  11.564  29.746   2.603  0.0467 -0.4596 -0.3503
    1W        W40614  20.630  10.737   8.128  0.0813  0.0878  0.2329
    1W        W40615   6.765  17.310   0.934 -0.2657  0.0757  0.2186
    1W        W40616  19.605   8.603   3.031 -0.0412  0.1162 -0.0449
    1W        W40617  12.278  13.067   7.858  0.0930  0.0326  0.0303
    1W        W40618  17.992  29.486   0.836  0.0522  0.0668 -0.2429
    1W        W40619  15.453   0.951   6.865 -0.0229 -0.1560  0.3783
    1W        W40620  18.993   6.442   2.501 -0.0180  0.0542  0.0322
    1W        W40621   2.933  27.995   9.211  0.2212 -0.1412  0.1325
    1W        W40622   0.353  21.206   0.301  0.0640  0.0877  0.1576
    1W        W40623  11.489  18.004   8.611 -0.2947 -0.0067 -0.0273
    1W        W40624   3.765   6.659   1.471 -0.0388 -0.1976  0.2527
    1W        W40625  23.270  13.471   9.388 -0.1687  0.2258 -0.0967
    1W        W40626  28.982  14.942   0.747  0.1359 -0.0615 -0.0254
    1W        W40627  18.048   7.644   2.656 -0.0174  0.2054 -0.1877
    1W        W40628  25.617  20.731   8.815 -0.1170  0.0271  0.3660
    1W        W40629  10.405  26.851   1.481 -0.4645 -0.3488  0.0077
    1W        W40630  21.799   2.639   8.204 -0.2714 -0.0348 -0.0709
    1W        W40631  16.588   9.432   3.256 -0.0955 -0.2965 -0.3044
    1W        W40632   8.781   9.669   1.199 -0.0500  0.1480  0.2292
    1W        W40633   6.544   9.234   8.558 -0.2673 -0.0850 -0.2186
    1W        W40634  12.978  12.361   7.684 -0.0164 -0.0064 -0.3232
    1W        W40635  27.757  16.899   7.717  0.1160 -0.0868  0.4893
    1W        W40636   6.531  13.607   0.100  0.1663 -0.0589  0.1346
    1W        W40637  20.779  23.798   1.703 -0.2197  0.0776 -0.1930
    1W        W40638  12.086  24.881   7.142  0.0509 -0.0109 -0.1873
    1W        W40639  24.520  17.909   6.410  0.2922 -0.1929 -0.1246
    1W        W40640  15.871   7.352   7.972 -0.3754  0.0690 -0.0269
    1W        W40641  15.107  13.305   0.489 -0.0174  0.2332 -0.2135
    1W        W40642  28.537   0.619   7.917 -0.1416  0.2934 -0.1365
    1W        W40643  26.939   0.875   8.168  0.4181 -0.0911 -0.1176
    1W        W40644   8.132  18.791   0.096 -0.1259 -0.1680  0.0724
    1W        W40645  17.769   4.105   0.647  0.0191  0.0451  0.1199
    1W        W40646   4.079  10.470   1.094  0.0928  0.0690  0.0149
    1W        W40647   6.048  12.252   0.133 -0.2050 -0.0858 -0.1920
    1W        W40648  25.629   5.623   3.179  0.0519 -0.3484 -0.2399
    1W        W40649   9.269  17.487   9.538 -0.2720 -0.1271 -0.1920
    1W        W40650  13.212   6.483   1.762  0.0776 -0.0819 -0.1084
    1W        W40651  22.140  19.506   1.923 -0.1934  0.0181 -0.0643
    1W        W40652  25.041  16.126   9.135  0.0106 -0.0750  0.1409
    1W        W40653  21.849  11.775   1.376 -0.1310 -0.1410  0.0118
    1W        W40654   9.602  13.450   1.872 -0.0280  0.2187  0.1255
    1W        W40655  15.435  24.290   8.500 -0.0733  0.0866 -0.2619
    1W        W40656  16.901   0.459   0.461  0.2360 -0.1939  0.1460
    1W        W40657   4.679   6.267   1.842 -0.3556 -0.2529 -0.2917
    1W        W40658  24.006   7.723   9.305  0.2688 -0.0244  0.2282
    1W        W40659  13.609  26.057   8.453 -0.4675  0.0731 -0.1564
    1W        W40660   4.756   6.158   9.421 -0.2505  0.0181  0.2886
    1W        W40661  19.779  27.179   1.827 -0.0576  0.5758  0.2500
    1W        W40662  16.493  27.040   7.954 -0.1611 -0.1602 -0.1857
    1W        W40663  29.685  15.625   7.876  0.1189 -0.1926  0.6457
    1W        W40664   7.233  20.869   0.222 -0.1533 -0.1866  0.2317
    1W        W40665   3.975  13.044   8.865 -0.3342  0.0172  0.0680
    1W        W40666   2.579   7.194   7.849 -0.2782 -0.1036 -0.0400
    1W        W40667   8.155  17.618   1.546 -0.1263 -0.1171  0.0369
    1W        W40668   6.211  20.970   0.521 -0.0138  0.0606  0.1783
    1W        W40669  10.847  10.045   6.400  0.2989 -0.1864 -0.1430
    1W        W40670   6.927   2.486   7.489 -0.0081  0.0254 -0.0807
    1W        W40671  15.061  24.863   1.483  0.1659  0.2352 -0.0281
    1W        W40672   1.805  16.697   9.124  0.2052  0.1736  0.2070
    1W        W40673  10.856   2.324   9.424 -0.3249  0.4138 -0.0041
    1W        W40674  15.491   8.231   8.053 -0.1907 -0.3193 -0.1180
    1W        W40675  20.400  23.269   1.518  0.2133 -0.0282 -0.1370
    1W        W40676  14.890  27.269   9.522 -0.0128  0.2327  0.2356
    1W        W40677  25.757  22.887   5.826  0.0995 -0.0579 -0.1432
    1W        W40678   2.039   0.438   8.221 -0.0030  0.1255  0.0161
    1W        W40679  16.612  19.673   7.361  0.2023 -0.3588  0.1373
    1W        W40680   5.033  28.900   1.533  0.0473 -0.3359  0.1445
    1W        W40681  25.792  26.126   7.464  0.0966  0.0229  0.0347
    1W        W40682  11.202   8.009   1.751  0.2478  0.0379  0.0307
    1W        W40683   3.744   2.671   0.716  0.2214 -0.1288  0.2093
    1W        W40684  10.699   7.667   8.591 -0.2617  0.1597  0.2937
    1W        W40685  22.944  29.795   9.100 -0.0454  0.1674  0.2310
    1W        W40686  21.051   1.545   7.540  0.1601 -0.1398 -0.0567
    1W        W40687  14.473   1.185   7.639 -0.0666 -0.1759 -0.1078
    1W        W40688  25.679   2.037   9.434 -0.2499 -0.3651 -0.2245
    1W        W40689   2.411  17.225   8.425 -0.1695 -0.0310  0.5060
    1W        W40690  26.146  14.052   9.460  0.0328 -0.2758  0.1284
    1W        W40691  22.651  28.169   0.209  0.2783  0.0182 -0.2135
    1W        W40692  10.660  21.443   9.120 -0.0318  0.1446  0.1741
    1W        W40693  16.198  26.348   7.480  0.5026  0.0441 -0.1385
    1W        W40694   2.139  24.998   0.991 -0.1026  0.2865  0.3152
    1W        W40695  20.746  23.520   7.858 -0.1784 -0.0075 -0.0162
    1W        W40696  18.128  27.403   8.303 -0.2321 -0.2639 -0.2027
    1W        W40697   3.047  20.013   1.289 -0.0991  0.2350  0.0679
    1W        W40698  23.196  19.218   7.372 -0.1112  0.3983 -0.1325
    1W        W40699  15.502   8.669   2.054  0.0653 -0.2089 -0.3526
    1W        W40700  20.704  20.584   6.349 -0.2653 -0.2813 -0.1492
    1W        W40701  25.233  28.420   8.782 -0.0504 -0.1840  0.2503
    1W        W40702  21.288   7.879   1.020  0.4103  0.0949 -0.0476
    1W        W40703  15.348   6.623   1.940 -0.0830 -0.0554  0.0043
    1W        W40704   2.521  23.297   8.637 -0.2452 -0.0713  0.1082
    1W        W40705  13.883   7.256   2.402  0.0215  0.1371  0.0068
    1W        W40706   6.582  16.421   1.997  0.1905 -0.0981  0.0325
    1W        W40707  11.578  18.241   6.347  0.1951 -0.0082 -0.1344
    1W        W40708   0.905   1.798   1.568  0.0694 -0.3199  0.0933
    1W        W40709   5.121  27.255   7.552  0.3116  0.1178 -0.3188
    1W        W40710  18.407   8.956   7.205  0.2603  0.2086  0.1943
    1W        W40711  14.241   2.213   7.341  0.1206  0.3492  0.2266
    1W        W40712  26.424   0.099   1.938 -0.1528 -0.0743  0.0630
    1W        W40713  20.350   2.306   3.527  0.0903  0.1215 -0.0740
    1W        W40714   9.736   3.877   7.859  0.2583 -0.0513  0.0275
    1W        W40715  14.020  23.223   2.918 -0.2288 -0.3356 -0.1110
    1W        W40716   1.734   4.785   6.623  0.1284  0.0598  0.4874
    1W        W40717  14.655  11.397   0.196  0.0801 -0.2073  0.1660
    1W        W40718   6.662  14.864   7.674 -0.1879  0.2101 -0.2313
    1W        W40719   3.833  22.525   2.949  0.0563 -0.1981 -0.1293
    1W        W40720  22.438  14.044   8.729  0.2760 -0.1970 -0.2397
    1W        W40721   8.340  28.741   8.608  0.0102  0.0391  0.1863
    1W        W40722  19.150   3.481   8.577  0.0960  0.2317 -0.1254
    1W        W40723   7.209  18.409   1.225 -0.2040 -0.0132  0.0340
    1W        W40724  16.943   0.131   3.455 -0.2541 -0.0009 -0.3574
    1W        W40725   6.069  22.569   9.013  0.0139  0.0647  0.0474
    1W        W40726   9.040  28.722   7.755  0.0452 -0.1000  0.2353
    1W        W40727  24.199   1.009   3.320 -0.0968 -0.1332 -0.1123
    1W        W40728   1.133   1.173   9.038  0.0035 -0.1372 -0.0568
    1W        W40729  18.269  15.542   7.136  0.3737 -0.2053 -0.1111
    1W        W40730  10.849   5.590   3.830 -0.1588  0.0612 -0.1248
    1W        W40731   9.200  28.240   7.071  0.2184  0.3300 -0.1846
    1W        W40732  22.024  15.695   7.794  0.0356 -0.0388  0.0646
    1W        W40733  21.114   1.956   2.354 -0.0209 -0.2167  0.1927
    1W        W40734   7.427  12.907   2.189 -0.3340  0.0637 -0.0650
    1W        W40735  27.929  23.840   2.626 -0.0748 -0.0067 -0.1584
    1W        W40736  28.483  28.856   6.588 -0.0348  0.1611  0.0071
    1W        W40737   7.966   2.145   8.272  0.0170 -0.4311  0.2206
    1W        W40738  14.771   0.473   2.332 -0.0537 -0.0015  0.0230
    1W        W40739   5.951   7.390   2.305 -0.1640 -0.1627 -0.0298
    1W        W40740   6.133  25.357   1.635 -0.1087  0.0128 -0.0251
    1W        W40741  14.150   5.996   9.123  0.1204 -0.0272  0.0318
    1W        W40742  15.500   7.085   0.861 -0.1350  0.2215  0.1413
    1W        W40743  24.660   6.883   1.169  0.2649  0.2857  0.3329
    1W        W40744   5.784  14.072   1.468 -0.1842  0.2137  0.1841
    1W        W40745   9.638  15.851   1.042  0.2446  0.1336 -0.0367
    1W        W40746  11.691   1.264   2.117 -0.2399 -0.2067 -0.3173
    1W        W40747   8.617  23.732   1.659 -0.0563 -0.2624 -0.0356
    1W        W40748  16.996  13.475   1.282  0.2057 -0.1147  0.4109
    1W        W40749  27.724   0.172   1.347 -0.0605 -0.0386 -0.0059
    1W        W40750  25.436  10.819   5.733 -0.0025 -0.0428  0.0047
    1W        W40751  14.130   9.275   7.090 -0.1526 -0.1678 -0.1184
    1W        W40752  25.576  10.113   2.241 -0.0081 -0.2437 -0.1274
    1W        W40753  18.415  12.342   7.391  0.0443 -0.0661 -0.1866
    1W        W40754  29.648  20.658   6.373 -0.3198  0.1579 -0.1866
    1W        W40755   2.618   3.020   7.951 -0.0551  0.1030  0.0124
    1W        W40756  21.117   7.504   2.434 -0.2095 -0.1808  0.2266
    1W        W40757   0.258  11.695   0.997 -0.2234  0.1631 -0.1086
    1W        W40758  24.041  18.422   5.963 -0.1975 -0.0387  0.1402
    1W        W40759   9.460  24.145   8.428  0.0917  0.2906 -0.1239
    1W        W40760  24.090   8.674   1.997 -0.0731 -0.0627  0.1385
    1W        W40761  18.134   4.178   1.068  0.0371 -0.1460 -0.0871
    1W        W40762   3.879  29.017   0.526 -0.0436  0.1244 -0.0312
    1W        W40763  16.248  25.862   7.368  0.1092  0.2148  0.1349
    1W        W40764   1.643   8.815   7.291 -0.1320  0.1809 -0.1224
    1W        W40765   6.365   4.538   1.073  0.1609  0.1022 -0.1031
    1W        W40766   2.097   9.153   0.913  0.0316  0.1511 -0.0640
    1W        W40767  24.343   1.349   6.907 -0.1496  0.0276  0.0093
    1W        W40768  22.612   0.409   2.186  0.0929 -0.5158  0.0590
    1W        W40769  19.483  19.498   1.653 -0.2150 -0.1614 -0.0279
    1W        W40770   8.694  25.734   0.101  0.0953  0.0316  0.1527
    1W        W40771  15.872   3.772   2.937 -0.1223 -0.1088  0.2484
    1W        W40772  16.699   6.669   2.939 -0.0872 -0.0161  0.0290
    1W        W40773  20.310   1.548   0.461  0.1701  0.0871  0.1948
    1W        W40774  15.975  16.748   1.694 -0.3576 -0.3757  0.2318
    1W        W40775  12.242   8.358   7.243 -0.0805 -0.0325  0.0415
    1W        W40776  19.283  17.242   0.335 -0.2163 -0.4357 -0.0408
    1W        W40777  10.906  16.970   1.501 -0.0913 -0.0535  0.0353
    1W        W40778  22.705  19.060   7.561  0.1043  0.0915  0.1636
    1W        W40779  22.243   3.565   8.463  0.5300 -0.0258 -0.0182
    1W        W40780  26.084  17.358   8.318 -0.0335 -0.0511 -0.0236
    1W        W40781  27.964   5.051   8.801 -0.0917 -0.1391 -0.1064
    1W        W40782   8.494  27.049   3.223  0.0670  0.0210 -0.2117
    1W        W40783   0.932  10.549   0.181 -0.0833  0.3934  0.1720
    1W        W40784   8.424  12.893   8.664  0.0035 -0.2219 -0.1265
    1W        W40785  17.931  20.548   1.215  0.0837  0.1851  0.1169
    1W        W40786  24.670  25.597   1.595  0.2338  0.0616 -0.1557
    1W        W40787  22.003  26.240   8.053  0.1825  0.1100 -0.0051
    1W        W40788  18.331   6.264   8.977 -0.2604  0.1098 -0.1395
    1W        W40789  25.702  19.743   6.972  0.0745  0.3531 -0.1798
    1W        W40790   6.584  26.842   3.275 -0.0602  0.0513 -0.2054
    1W        W40791   7.787   5.495   2.048  0.0305 -0.0836  0.2527
    1W        W40792  23.937  22.006   9.479  0.0406  0.0292  0.3202
    1W        W40793  22.739   4.889   8.987 -0.0859  0.1196 -0.2073
    1W        W40794  19.996  27.181   7.151 -0.1587  0.1550  0.0946
    1W        W40795   8.935  26.680   2.123 -0.0520 -0.2137 -0.3442
    1W        W40796  15.816  27.694   9.031 -0.1608  0.1155 -0.2563
    1W        W40797   8.226  22.104   7.042  0.1432 -0.1481  0.1287
    1W        W40798  27.400   7.290   7.526  0.0430 -0.3330 -0.0785
    1W        W40799   1.436  11.341   7.614 -0.1141  0.0776 -0.0250
    1W        W40800  12.271   7.657   7.232 -0.0592 -0.0871 -0.0841
    1W        W40801  29.261   6.668   0.508 -0.1140  0.3469 -0.0110
    1W        W40802   9.535  29.009   2.755  0.1345  0.1286 -0.1889
    1W        W40803  18.969   1.385   9.099  0.0348  0.2522  0.0670
    1W        W40804  29.239   4.504   3.075 -0.1650 -0.0847 -0.2698
    1W        W40805   3.482  13.919   7.886 -0.1041 -0.0118  0.2877
    1W        W40806   0.775  10.076   6.623  0.2741  0.0565  0.2266
    1W        W40807  13.853   6.781   8.596  0.0067 -0.4260  0.2754
    1W        W40808  26.919  18.701   1.329 -0.1218  0.0148  0.4987
    1W        W40809  17.443  15.835   2.391 -0.0844  0.0998  0.3538
    1W        W40810   0.060  25.497   6.927  0.0142  0.1925 -0.2286
    1W        W40811  13.429  29.270   0.201  0.4040 -0.1780  0.2794
    1W        W40812   0.447  24.028   7.141  0.1227  0.0118  0.2175
    1W        W40813  28.496  18.915   1.159 -0.1732  0.0694  0.1245
    1W        W40814   2.975  16.299   8.372 -0.1398 -0.2117 -0.1875
    1W        W40815  17.685  24.885   3.060 -0.0894 -0.1962  0.1498
    1W        W40816   5.219  22.438   2.135 -0.1342 -0.4042 -0.0592
    1W        W40817  25.054  22.500   9.015  0.4824  0.2586 -0.1676
    1W        W40818  29.095   5.626   8.146 -0.1437  0.0522 -0.1653
    1W        W40819   8.839   0.846   7.660 -0.0404  0.3527  0.0167
    1W        W40820  14.660  29.456   1.597  0.3145  0.0321 -0.3763
    1W        W40821   1.389   7.693   8.011  0.0567  0.2821  0.2688
    1W        W40822  10.889  11.410   0.230  0.1930  0.0554 -0.2372
    1W        W40823  24.285  29.469   3.070  0.3669 -0.0072  0.0395
    1W        W40824   0.973  15.330   8.347  0.1339  0.2840 -0.3680
    1W        W40825  15.534   4.055   2.576 -0.0308 -0.2309  0.0785
    1W        W40826  18.303  21.830   7.216 -0.0444  0.1820  0.1866
    1W        W40827  22.581   2.749   8.002  0.0479  0.0269 -0.2836
    1W        W40828  29.065  29.156   8.765  0.3369 -0.3511 -0.1793
    1W        W40829   0.265   4.708   1.088  0.1566 -0.1998  0.0093
    1W        W40830   6.581  21.616   1.149 -0.2319 -0.0009 -0.0021
    1W        W40831   6.551   6.811   2.655 -0.1639 -0.0642  0.1318
    1W        W40832  28.539   0.488   9.091 -0.4461 -0.0042  0.1499
    1W        W40833   3.212   5.407   2.451  0.2247  0.2353 -0.0350
    1W        W40834  12.704  13.050   8.728  0.1366  0.1802 -0.0267
    1W        W40835   7.527   3.126   8.945  0.1750  0.0203  0.0068
    1W        W40836  25.720  18.883   9.484 -0.1007  0.1404 -0.0495
    1W        W40837   2.863  11.964   9.436 -0.2257 -0.5129  0.0740
    1W        W40838   1.796  29.621   7.795  0.1224 -0.0666  0.1968
    1W        W40839  23.052  18.934   7.943  0.0914  0.2795 -0.0582
    1W        W40840  12.189  14.812   9.171  0.1574  0.1203  0.0540
    1W        W40841   5.678  27.024   1.681 -0.0130 -0.1908  0.0897
    1W        W40842  11.481  24.505   1.482 -0.0285  0.2090  0.3053
    1W        W40843   7.656   4.074   8.814  0.0599 -0.0872  0.0076
    1W        W40844   8.553  19.535   1.887  0.0163 -0.1034  0.1480
    1W        W40845  28.558  14.481   9.029 -0.2311  0.0471  0.2509
    1W        W40846  13.316   6.616   2.388  0.3434  0.0305 -0.0987
    1W        W40847  21.979   4.791   7.386  0.1898  0.1405  0.4058
    1W        W40848  26.637  26.987   1.737 -0.3847  0.0083 -0.0972
    1W        W40849   4.671  26.435   1.431 -0.0803 -0.1472 -0.0501
    1W        W40850   5.602  18.996   1.651 -0.1970  0.2000 -0.1201
    1W        W40851  14.768  18.165   2.989  0.3160  0.0403 -0.0227
    1W        W40852  20.940  29.524   7.613  0.1534 -0.1492 -0.1626
    1W        W40853   9.188   1.342   2.105  0.3514 -0.1771  0.2457
    1W        W40854   6.874   9.075   8.140  0.0627  0.2235 -0.0899
    1W        W40855  20.008   9.284   2.023 -0.3610  0.2158 -0.2722
    1W        W40856  21.928  28.544   2.267 -0.2215  0.2964 -0.2374
    1W        W40857  19.923  14.181   0.892 -0.2889 -0.1506 -0.0464
    1W        W40858   0.484  22.128   8.894 -0.3393  0.2168 -0.5702
    1W        W40859   1.449  27.696   1.593  0.0929  0.3239  0.2597
    1W        W40860  17.657   2.451   3.786 -0.0235  0.1561  0.0890
    1W        W40861  17.376  28.372   8.870 -0.0190 -0.4931  0.2816
    1W        W40862  22.414  25.098   0.690  0.1655 -0.1105 -0.3087
    1W        W40863  28.066  13.365   0.358  0.1324  0.0711  0.1087
    1W        W40864  12.625  21.207   0.646 -0.2445  0.0220  0.3710
    1W        W40865   0.426  24.866   1.398  0.0599 -0.2167  0.1806
    1W        W40866  21.364   1.063   8.344  0.1637  0.0644 -0.1243
    1W        W40867  28.445   2.578   2.285  0.3314 -0.1618 -0.1674
    1W        W40868  24.693  22.233   7.272  0.1761  0.0654  0.0177
    1W        W40869  13.392   3.006   7.581  0.1224 -0.1698  0.0952
    1W        W40870  22.366  27.910   0.980 -0.3605 -0.1338  0.2056
    1W        W40871  27.905  15.798   8.254 -0.2292 -0.0366 -0.2674
    1W        W40872  25.992  14.571   1.272  0.2746 -0.2196 -0.1436
    1W        W40873  25.850   7.058   1.286  0.1420 -0.1809  0.0265
    1W        W40874  26.609   6.468   1.968  0.0008 -0.0941 -0.1283
    1W        W40875   0.374  26.848   8.630 -0.2113  0.1814 -0.0412
    1W        W40876   5.347  28.620   2.238  0.0737  0.1417  0.0099
    1W        W40877  28.451  29.511   1.923 -0.0736 -0.0250 -0.2177
    1W        W40878  11.287  11.087   3.463 -0.0140 -0.2542  0.0934
    1W        W40879  29.659   4.227   7.556  0.3661  0.1471  0.2874
    1W        W40880  25.354  16.529   8.503  0.0972 -0.1035  0.1929
    1W        W40881  24.919   5.180   6.570 -0.2755  0.3538 -0.1907
    1W        W40882  11.042   1.237   8.770 -0.1149 -0.3313 -0.0104
    1W        W40883   1.403   2.823   7.043  0.0545 -0.1352  0.0052
    1W        W40884   2.754  26.878   0.443  0.0897 -0.1656  0.0645
    1W        W40885  18.606  15.434   8.709 -0.1915  0.1829 -0.2151
    1W        W40886   0.558   8.429   9.406  0.0189  0.1007 -0.1897
    1W        W40887   8.109   7.619   2.582  0.0283  0.1725  0.1306
    1W        W40888  12.912  14.878   7.931 -0.2586 -0.3477 -0.1264
    1W        W40889  17.190  14.734   1.069  0.4394 -0.0354  0.0125
    1W        W40890  21.694  22.594   0.155 -0.1675  0.0873  0.0394
    1W        W40891  11.499  22.265   0.104 -0.1204  0.0166 -0.4522
    1W        W40892  17.141  19.977   6.890  0.3763 -0.2049  0.0287
    1W        W40893  20.065  16.272   2.162  0.0308 -0.0286  0.0499
    1W        W40894  11.507  11.559   2.447 -0.0082  0.2627  0.1360
    1W        W40895  25.481   1.268   1.939 -0.1112  0.1281  0.0602
    1W        W40896  17.891  29.647   8.525  0.2326  0.0112 -0.0045
    1W        W40897  19.174   7.226   2.532 -0.0321 -0.0011  0.1357
    1W        W40898   0.345   0.932   8.469  0.0741  0.1132 -0.0974
    1W        W40899  18.122  13.201   9.311  0.2450  0.0378 -0.4138
    1W        W40900  24.411  28.624   8.843 -0.0259  0.1633 -0.1726
    1W        W40901  15.274  29.275   7.852  0.0553  0.1282  0.1067
    1W        W40902  19.577  15.857   9.441  0.0706 -0.0393 -0.0771
    1W        W40903  13.900  29.537   6.787  0.0865 -0.2261 -0.2830
    1W        W40904  13.754  14.112   0.268 -0.1269  0.0526  0.0620
    1W        W40905  29.564   0.739   2.118 -0.0164  0.2918  0.2740
    1W        W40906  23.423  24.630   2.669 -0.0317  0.2212  0.0323
    1W        W40907  13.375   6.127   9.320 -0.2127 -0.0415  0.1329
    1W        W40908  20.568   8.981   8.723  0.1825  0.0300 -0.0003
    1W        W40909   7.054  19.807   0.681  0.1805  0.2171 -0.0085
    1W        W40910  22.363  12.057   8.684  0.0501 -0.0729 -0.0121
    1W        W40911  11.856  21.576   7.728  0.0243 -0.1433  0.0229
    1W        W40912  16.982  24.968   1.142 -0.1931 -0.1354 -0.1003
    1W        W40913   7.892   3.907   2.916  0.3555  0.0203  0.1042
    1W        W40914   1.487   1.990   1.671  0.0823 -0.1166  0.1066
    1W        W40915  13.898  26.067   8.013 -0.1659  0.1457 -0.1622
    1W        W40916   9.113  17.841   1.486 -0.2297  0.1062  0.2131
    1W        W40917   1.919  16.339   7.916 -0.0114 -0.3196  0.2016
    1W        W40918  15.772   9.200   3.183 -0.0849 -0.4094  0.1791
    1W        W40919   1.493   6.309   7.193  0.0319 -0.0336  0.0491
    1W        W40920  22.090   7.240   9.538  0.3162 -0.2154 -0.0320
    1W        W40921  11.955  28.301   2.758 -0.4360  0.1283  0.0495
    1W        W40922  18.634   0.310   3.111  0.0236 -0.3242  0.0583
    1W        W40923   7.786  16.718   7.757  0.3002 -0.0234 -0.1912
    1W        W40924  27.742   8.727   0.119 -0.4561 -0.0754 -0.2461
    1W        W40925  18.932  16.500   1.441  0.1457  0.2266  0.2282
    1W        W40926  22.481  26.637   2.839 -0.0070  0.3060  0.0003
    1W        W40927  23.907  20.466   5.965  0.2484  0.2194 -0.0154
    1W        W40928  11.018  10.120   3.451 -0.2032  0.1432 -0.0326
    1W        W40929   2.141   6.007   2.469  0.0601  0.0972 -0.4690
    1W        W40930  10.969   2.073   1.247 -0.2634 -0.0508 -0.1801
    1W        W40931  28.461  27.087   7.200 -0.0222 -0.2166  0.2582
    1W        W40932  14.280   4.033   0.455  0.0356 -0.5399 -0.2931
    1W        W40933   8.132   8.798   8.096 -0.1869 -0.0196 -0.1098
    1W        W40934   0.348   9.507   1.983  0.0820  0.0119  0.1886
    1W        W40935   3.894   0.444   7.544 -0.1109  0.1927  0.2226
    1W        W40936  26.582  10.667   6.367  0.2513 -0.3114 -0.0722
    1W        W40937   1.336  25.989   1.157 -0.0558 -0.0796  0.0620
    1W        W40938   7.536   0.890   2.540  0.1095  0.1110 -0.0256
    1W        W40939  17.664  18.844   2.513  0.1108 -0.0050 -0.0070
    1W        W40940  17.683   6.756   1.872  0.0383 -0.2327 -0.0421
    1W        W40941  24.130  19.886   7.189  0.1886 -0.1671  0.0442
    1W        W40942  10.341   6.596   0.761 -0.1019  0.0147  0.0300
    1W        W40943  14.355  24.803   2.249  0.1452  0.0485 -0.1492
    1W        W40944   1.018   8.786   8.200 -0.1158  0.1412  0.4457
    1W        W40945   6.436  26.054   7.427 -0.1674 -0.1186 -0.0040
    1W        W40946  23.082  23.559   1.929 -0.0211  0.1154 -0.1021
    1W        W40947  16.117  19.052   9.323  0.0721 -0.0876 -0.0633
    1W        W40948   9.486   1.283   0.305 -0.0501 -0.2203 -0.4060
    1W        W40949  26.367  28.936   6.827 -0.1357 -0.0782 -0.3530
    1W        W40950  19.042  13.825   7.512  0.0725 -0.1289 -0.0555
    1W        W40951   6.910   3.399   0.177 -0.1620 -0.4028 -0.0872
    1W        W40952  11.242   1.918   8.621  0.0820  0.1069  0.0524
    1W        W40953  22.392  28.404   0.666 -0.1632  0.2100 -0.1508
    1W        W40954   0.148   7.156   0.282 -0.1243  0.1112  0.0476
    1W        W40955  16.625  27.298   9.445  0.0648 -0.2602  0.0585
    1W        W40956  11.230  25.360   1.054  0.2640  0.0945 -0.3607
    1W        W40957  12.300  20.676   6.895 -0.1513  0.1407 -0.3441
    1W        W40958  29.185  14.647   0.226 -0.0418  0.0494 -0.0536
    1W        W40959  18.010   0.757   3.517 -0.0643 -0.2900 -0.0781
    1W        W40960  23.914   6.728   3.559 -0.0264 -0.0584  0.0130
    1W        W40961  21.137  18.269   2.303  0.0198  0.0325 -0.0621
    1W        W40962  20.986   7.026   1.357 -0.2809  0.1452 -0.0024
    1W        W40963   1.971  14.968   1.134  0.1578 -0.1849  0.0652
    1W        W40964  23.072  29.241   8.823 -0.1359 -0.0076  0.0005
    1W        W40965  26.711  17.342   1.635 -0.0357 -0.1245 -0.2359
    1W        W40966   8.082  16.491   8.519  0.0138 -0.1480  0.0866
    1W        W40967   9.245  16.789   2.056  0.4775  0.1583  0.0934
    1W        W40968  28.230  25.198   7.565  0.0145 -0.1079  0.1355
    1W        W40969  25.848   2.365   7.436 -0.1250 -0.2198 -0.0038
    1W        W40970  17.645   2.565   0.662  0.1115 -0.0646  0.0200
    1W        W40971   0.647  22.568   1.936  0.0378 -0.1516 -0.0053
    1W        W40972  28.368   5.310   8.172 -0.0303 -0.2954 -0.0547
    1W        W40973  23.915   3.730   0.761 -0.1065  0.1110 -0.0559
    1W        W40974  26.053  21.574   0.171 -0.0430 -0.0908  0.1012
    1W        W40975   5.126  12.640   9.415 -0.1334 -0.0798 -0.1457
    1W        W40976   5.898  18.034   8.719 -0.4412  0.0835  0.0452
    1W        W40977  23.486  15.478   0.407 -0.4821 -0.2057 -0.3820
    1W        W40978   8.958   6.257   0.853 -0.1325 -0.1096 -0.0541
    1W        W40979  13.202  13.023   8.443  0.1582 -0.0681  0.2567
    1W        W40980   5.048  20.482   0.684 -0.1312 -0.2419  0.3160
    1W        W40981  24.512  15.605   0.218 -0.2777  0.2289 -0.0161
    1W        W40982   1.969   0.831   7.315 -0.0272  0.1549 -0.0022
    1W        W40983  15.615  19.667   9.360  0.0121  0.1947 -0.2463
    1W        W40984  22.528  14.148   1.608  0.1214  0.0155 -0.0529
    1W        W40985  11.086   9.229   2.310 -0.0973 -0.0906  0.0125
    1W        W40986  12.391   2.117   3.864  0.3409  0.0486 -0.1144
    1W        W40987   6.718  18.859   6.865 -0.0759 -0.1895 -0.0424
    1W        W40988  21.533  17.288   5.531 -0.1568  0.0139  0.1888
    1W        W40989   5.226  23.735   0.941  0.0988 -0.0316 -0.0442
    1W        W40990   0.081   1.484   9.477  0.1456 -0.0890 -0.1979
    1W        W40991  14.885  29.596   1.149  0.0426 -0.3398  0.1004
    1W        W40992   1.238  18.519   0.497  0.0371 -0.0922 -0.0201
    1W        W40993   9.920   9.174   8.491 -0.0732 -0.0411  0.4431
    1W        W40994  26.857  26.443   0.762  0.0729  0.4165  0.1694
    1W        W40995   7.058  15.473   0.810  0.1201 -0.1127 -0.0690
    1W        W40996  25.060  16.593   0.973 -0.0411 -0.0841  0.1636
    1W        W40997  29.673   2.746   3.183  0.0328  0.1120 -0.0742
    1W        W40998  16.241  27.019   8.381 -0.2615  0.0775 -0.2710
    1W        W40999   2.299   7.009   0.489 -0.1455 -0.0233 -0.2158
    1W        W41000   6.154  23.641   2.449  0.0164 -0.0034  0.2472
    1W        W41001  22.119  22.364   5.988 -0.0605 -0.1620  0.0088
    1W        W41002  14.110   0.719   7.706 -0.0796  0.1011  0.0637
    1W        W41003  26.558  21.730   7.561  0.3439  0.2499 -0.0747
    1W        W41004  23.900   2.327   2.529  0.0722  0.1264  0.2188
    1W        W41005   7.033   5.098   3.056  0.1270 -0.0337  0.2670
    1W        W41006  14.969  12.083   1.980 -0.0594 -0.0151  0.1322
    1W        W41007  19.480  17.851   6.367  0.0731 -0.3628  0.2571
    1W        W41008   5.538   9.202   9.000 -0.0261  0.1676 -0.3713
    1W        W41009  15.370   2.937   9.448  0.0780  0.1954  0.1388
    1W        W41010  13.336  21.618   7.141 -0.1020  0.4301 -0.0910
    1W        W41011  10.299  28.073   9.141 -0.0161 -0.0244 -0.0687
    1W        W41012   8.552  27.840   7.801  0.3328 -0.3851 -0.2851
    1W        W41013  26.475   6.847   9.116  0.1624  0.1660 -0.1917
    1W        W41014  25.282   2.222   8.636 -0.0312 -0.0269 -0.2137
    1W        W41015  10.333  19.643   1.584 -0.0118  0.0345 -0.0579
    1W        W41016  25.203  27.311   7.394  0.6114 -0.1058  0.0993
    1W        W41017  21.292   8.050   2.598 -0.1685  0.0762  0.0284
    1W        W41018  13.880  11.135   8.507  0.1131  0.0125 -0.0779
    1W        W41019   9.987  10.036   9.193 -0.1699  0.1134 -0.0554
    1W        W41020   4.893  23.407   7.479  0.1078 -0.3959 -0.0317
    1W        W41021   5.654   5.177   7.709 -0.1619  0.0886  0.0948
    1W        W41022  13.209   5.705   1.429  0.1367  0.1601 -0.2439
    1W        W41023  10.883   5.808   2.176 -0.0790  0.0596  0.2665
    1W        W41024  17.389   9.388   9.371  0.1466  0.1070 -0.3036
    1W        W41025   8.183   7.939   9.341  0.1008 -0.0223 -0.1355
    1W        W41026   3.648  21.547   8.031  0.0704 -0.2191 -0.0551
    1W        W41027  28.845  17.283   1.176  0.2050 -0.3058  0.0444
    1W        W41028  29.707  24.469   2.827  0.0016 -0.2170 -0.1056
    1W        W41029  17.179   9.887   1.962  0.1814 -0.0964  0.0541
    1W        W41030   4.665  29.081   2.458 -0.2122  0.1212  0.1888
    1W        W41031  24.982  10.635   0.573 -0.0143 -0.1444 -0.3793
    1W        W41032  17.702  20.044   7.584 -0.1901  0.1341 -0.1558
    1W        W41033  19.419   9.455   7.430  0.1060 -0.3307 -0.4702
    1W        W41034  27.787   6.029   8.208  0.1527  0.2372  0.0162
    1W        W41035  25.491  14.540   0.208 -0.0328 -0.1747 -0.1920
    1W        W41036  12.150  25.827   2.611 -0.0299 -0.1394  0.1892
    1W        W41037  28.586   7.251   0.793 -0.0300 -0.0004 -0.0312
    1W        W41038  17.008   1.560   8.733 -0.2505 -0.1086 -0.0130
    1W        W41039   9.637  19.222   7.774  0.0618 -0.0633 -0.1226
    1W        W41040  12.482  11.850   2.012  0.1047  0.1790 -0.3595
    1W        W41041  23.314  15.144   0.072 -0.0629 -0.1311  0.0710
    1W        W41042  27.717  14.275   0.133  0.0356 -0.1212  0.0854
    1W        W41043  27.056  23.494   6.833 -0.0901 -0.3569  0.0766
    1W        W41044  26.277   0.790   2.190 -0.1766  0.1269  0.2295
    1W        W41045   9.076   3.516   8.108  0.0131 -0.0263  0.1438
    1W        W41046  18.350  19.315   1.921  0.2375 -0.3029  0.1688
    1W        W41047  21.149  18.866   1.337 -0.0321 -0.0307  0.0396
    1W        W41048  16.530  16.813   7.486  0.2671  0.0966  0.1841
    1W        W41049  10.252  14.139   1.098  0.1584 -0.1337  0.0501
    1W        W41050  23.118   7.402   9.331 -0.1594  0.3899 -0.1154
    1W        W41051   3.065  23.758   1.735 -0.0157 -0.0784 -0.0416
    1W        W41052  21.928  20.387   6.928 -0.2196 -0.0018 -0.2476
    1W        W41053  27.743   0.602   8.255 -0.0125 -0.0292 -0.1431
    1W        W41054   2.801   7.885   7.933 -0.0760 -0.0086  0.0917
    1W        W41055  27.255   2.319   9.455  0.0043 -0.0355  0.2344
    1W        W41056  15.089  29.476   7.407  0.3861 -0.0770  0.2025
    1W        W41057  13.371   5.970   1.891  0.0310 -0.0196 -0.3175
    1W        W41058  15.996   2.289   0.582  0.2407  0.2116  0.2489
    1W        W41059   3.252  14.004   7.458  0.1560 -0.0181  0.1313
    1W        W41060  26.401   4.592   3.456 -0.1577 -0.0895 -0.1416
    1W        W41061  27.603   1.753   2.638  0.1277 -0.3149  0.1459
    1W        W41062  23.247  24.196   0.740  0.1338  0.2736 -0.1129
    1W        W41063  15.509  18.061   2.879  0.3483 -0.2455 -0.0921
    1W        W41064  20.278  28.790   2.959  0.1894 -0.0865  0.1586
    1W        W41065  13.440  24.961   9.492 -0.0002  0.0199 -0.0594
    1W        W41066  25.071  29.361   7.701  0.1352 -0.2052 -0.0322
    1W        W41067  15.992  18.968   1.754  0.0793  0.0052 -0.1154
    1W        W41068  29.512   6.728   8.636 -0.0809 -0.0449  0.0914
    1W        W41069  11.119  17.119   7.782 -0.3026 -0.0750  0.2467
    1W        W41070  21.596  13.164   6.510 -0.0318  0.0486 -0.0127
    1W        W41071   0.930  16.053   0.569  0.0699 -0.0024  0.0594
    1W        W41072   4.890  24.464   7.352  0.0915  0.3301  0.0495
    1W        W41073  24.976   6.978   2.145  0.1022  0.1896  0.1911
    1W        W41074  10.692  22.191   1.785  0.0315 -0.2970  0.2284
    1W        W41075  26.802  28.546   1.692 -0.0645  0.3126 -0.0798
    1W        W41076  25.311   5.080   8.431  0.1795 -0.0956 -0.0305
    1W        W41077   0.378  27.416   8.421  0.1651 -0.0119 -0.1627
    1W        W41078   7.547   3.024   7.343 -0.2322 -0.2297  0.1636
    1W        W41079   0.719  11.674   0.710  0.2343  0.1548 -0.0833
    1W        W41080   9.175  14.399   8.776  0.0354 -0.3184 -0.1322
    1W        W41081  19.806   1.938   2.363 -0.0022 -0.0970  0.1299
    1W        W41082   7.273   4.562   9.084 -0.1044 -0.1054 -0.0789
    1W        W41083  11.844   6.726   8.567  0.2421  0.1683 -0.0626
    1W        W41084  11.282   6.938   0.263  0.0001  0.1055 -0.0270
    1W        W41085   3.691  17.283   0.274  0.1720  0.0214 -0.2319
    1W        W41086  20.527  22.855   8.807  0.0189  0.0763 -0.0199
    1W        W41087  14.041  18.823   8.339  0.3655  0.0077 -0.0628
    1W        W41088  15.237  15.000   2.860 -0.3152 -0.2040 -0.2331
    1W        W41089  16.584  12.485   7.513 -0.3158 -0.1218  0.1777
    1W        W41090   7.841   2.366   2.604 -0.0512 -0.0511 -0.3185
    1W        W41091   0.279  24.258   1.207 -0.0039 -0.2695 -0.1060
    1W        W41092   4.092  12.888   1.108 -0.0466 -0.1534 -0.0220
    1W        W41093   9.777   8.242   6.613  0.0673 -0.0592  0.0902
    1W        W41094  25.431   0.285   2.084 -0.0309  0.1835  0.2712
    1W        W41095  23.336  18.931   1.461  0.0686 -0.1732  0.0748
    1W        W41096  13.916   9.773   2.209  0.3054  0.1297 -0.1725
    1W        W41097   0.646   0.987   2.478 -0.1725  0.0913 -0.0629
    1W        W41098  23.350   1.699   2.262  0.3001  0.4027  0.0756
    1W        W41099  28.901  27.347   8.683 -0.0018  0.0545  0.2520
    1W        W41100  17.561   9.353   3.231  0.0149 -0.3143 -0.2089
    1W        W41101  25.113  11.768   7.480 -0.4930 -0.0168  0.1617
    1W        W41102  24.379  20.046   0.206 -0.2052 -0.2746  0.0545
    1W        W41103  13.815  13.472   2.833  0.0209 -0.3855 -0.2301
    1W        W41104  20.490   1.140   1.644 -0.4239  0.1937  0.0767
    1W        W41105   4.775  18.787   7.267  0.1426  0.2640  0.0345
    1W        W41106  16.288  22.555   6.943 -0.2101  0.2284 -0.0211
    1W        W41107  24.516  11.324   8.106  0.0190 -0.0902  0.1295
    1W        W41108  14.189   7.283   2.775 -0.2760  0.0019 -0.1596
    1W        W41109  26.743  22.518   0.128  0.1911  0.2805 -0.1490
    1W        W41110   5.397  11.116   8.816 -0.0161  0.1839 -0.0552
    1W        W41111  16.449   6.038   8.500 -0.3017  0.0082 -0.0926
    1W        W41112  21.878  21.275   6.055 -0.0172 -0.0476  0.2558
    1W        W41113  12.370  29.185   0.704 -0.3582 -0.3628  0.0483
    1W        W41114  12.025  12.214   0.105 -0.3404 -0.2844 -0.0270
    1W        W41115  13.438   8.545   8.975 -0.2549 -0.0055  0.1667
    1W        W41116   4.281  29.192   7.282  0.2321 -0.1375  0.1444
    1W        W41117   7.489  21.908   9.046 -0.2329 -0.0864 -0.0707
    1W        W41118  13.503   2.063   9.193  0.2671  0.0619 -0.1235
    1W        W41119   9.409   0.103   3.194  0.1050 -0.0283  0.1507
    1W        W41120   7.343  23.871   7.394 -0.1988  0.1428  0.0308
    1W        W41121  13.454  15.048   7.582  0.3452 -0.0522  0.0181
    1W        W41122   1.348  12.646   9.414 -0.0322  0.0472  0.0058
    1W        W41123   6.047  18.703   7.526 -0.2825 -0.1642  0.1519
    1W        W41124  19.936  23.365   1.664  0.1479 -0.0335  0.1103
    1W        W41125  23.238   9.551   9.536  0.3213 -0.1105  0.2304
    1W        W41126   7.816  15.720   7.559  0.0755  0.1099  0.1596
    1W        W41127  29.226   5.331   1.527 -0.0307 -0.2513 -0.1193
    1W        W41128  28.224  19.492   6.053  0.0138  0.0238 -0.2501
    1W        W41129  13.144   6.667   0.444 -0.1769 -0.1480 -0.2739
    1W        W41130  29.142   8.845   2.014  0.1541  0.2658  0.1463
    1W        W41131   3.697  19.557   7.909  0.2047  0.0304  0.2445
    1W        W41132  11.379   5.133   0.047 -0.3069 -0.0298 -0.2073
    1W        W41133  14.315   3.762   2.303 -0.1631 -0.2704  0.4586
    1W        W41134  19.671  18.157   0.478  0.2045 -0.2254 -0.2910
    1W        W41135   2.292  14.865   7.427 -0.0911 -0.0962 -0.0580
    1W        W41136  19.087  28.785   8.922 -0.3054 -0.2943  0.3545
    1W        W41137  13.241  13.712   1.853 -0.3222 -0.0039  0.1848
    1W        W41138  19.130  23.843   3.127  0.0145  0.3669  0.0557
    1W        W41139  16.272  14.856   8.834 -0.1577  0.1531 -0.2598
    1W        W41140  29.346  12.672   1.232 -0.3196  0.1185 -0.0660
    1W        W41141   0.595  19.918   7.006 -0.2805 -0.0011 -0.2119
    1W        W41142  28.849  19.192   7.024 -0.0029 -0.0610 -0.2186
    1W        W41143  16.660  15.464   0.398  0.3278 -0.5395  0.0831
    1W        W41144  10.100  25.274   8.344 -0.1645 -0.1154 -0.1343
    1W        W41145  15.907  10.651   3.328 -0.2665  0.0447  0.0072
    1W        W41146  17.991  25.158   2.716  0.1013  0.0316 -0.0499
    1W        W41147  15.951   3.621   0.522 -0.1320  0.0925 -0.1365
    1W        W41148   6.201   9.032   1.833 -0.2092 -0.2528  0.0587
    1W        W41149  11.054  17.153   6.790  0.1303  0.0277 -0.4721
    1W        W41150   1.420   6.424   8.461  0.1032 -0.1460  0.0037
    1W        W41151   0.678  28.899   8.447  0.2623  0.2459 -0.2920
    1W        W41152  21.579  20.420   9.148  0.0363 -0.1213 -0.0719
    1W        W41153  25.165  24.259   0.846  0.1331  0.0570 -0.1068
    1W        W41154  22.760   1.626   1.232 -0.2316  0.1162  0.3366
    1W        W41155  20.116  18.045   0.736  0.0520  0.3471 -0.3170
    1W        W41156  25.307  16.123   6.278 -0.0850  0.1047 -0.1070
    1W        W41157  26.002  29.386   7.524 -0.0011 -0.0823  0.2977
    1W        W41158   0.930  24.712   6.814 -0.2735 -0.1216  0.2402
    1W        W41159   7.390  29.055   3.525  0.0542  0.1212  0.0786
    1W        W41160  22.783   6.315   2.409  0.3462  0.0153  0.2495
    1W        W41161  12.634   9.843   2.201 -0.3449  0.1480  0.3964
    1W        W41162   9.618  18.669   6.873 -0.1085  0.2554 -0.0728
    1W        W41163  11.957   7.214   3.606  0.1124 -0.2613 -0.0789
    1W        W41164  28.366  24.818   7.267 -0.0825  0.2801 -0.3083
    1W        W41165   3.591  13.332   7.083  0.0751 -0.1036 -0.3038
    1W        W41166  25.838   7.518   2.568  0.0560  0.1879  0.1474
    1W        W41167   9.065   6.049   0.389  0.1550 -0.2211 -0.0141
    1W        W41168  19.235  22.231   2.443  0.1325  0.2366  0.2148
    1W        W41169   2.755  17.880   0.727  0.1295 -0.1829 -0.0680
    1W        W41170  13.897  27.142   7.105  0.1480 -0.1682  0.2687
    1W        W41171  28.411  12.762   8.597 -0.0873 -0.3134 -0.0406
    1W        W41172  14.483  19.709   2.765 -0.1518  0.0058  0.0214
    1W        W41173  26.722   5.489   8.297  0.3277  0.2061  0.0307
    1W        W41174  12.875  13.805   0.461 -0.0528 -0.1245 -0.3202
    1W        W41175   8.199  25.623   1.510 -0.0007  0.1805  0.0324
    1W        W41176  19.806  18.639   9.114 -0.1306 -0.0659  0.1766
    1W        W41177  12.724   9.426   7.855 -0.2916 -0.2597 -0.0368
    1W        W41178   2.567  17.795   6.817 -0.0951  0.0600  0.0917
    1W        W41179   9.782  13.851   0.228  0.1578 -0.0164 -0.1254
    1W        W41180  25.625   6.542   2.055  0.0782  0.1869 -0.2632
    1W        W41181   3.650   7.076   7.837 -0.3768 -0.0197 -0.1666
    1W        W41182  12.341   8.756   8.222  0.2185  0.0270 -0.1344
    1W        W41183  16.189  18.237   1.954  0.2154  0.2318 -0.2217
    1W        W41184  11.631   8.594   2.827  0.1280  0.2517 -0.0164
    1W        W41185  22.410  16.110   6.412 -0.0688  0.0981  0.1142
    1W        W41186   3.243  20.837   1.555 -0.0751 -0.1827 -0.2543
    1W        W41187  21.385   5.484   1.015 -0.0396  0.1965 -0.2567
    1W        W41188  12.482  12.595   8.175  0.0581  0.1029 -0.3827
    1W        W41189   1.555  14.816   1.382 -0.2021  0.3663 -0.0844
    1W        W41190  27.238  13.224   6.561  0.1573  0.0865  0.1225
    1W        W41191  28.373  29.565   9.373  0.2143 -0.2251 -0.0209
    1W        W41192   7.149   6.113   8.608 -0.1553  0.0497 -0.1310
    1W        W41193   0.599  29.514   2.727  0.1145  0.0092 -0.0067
    1W        W41194   3.314  22.756   8.151  0.2475 -0.1739  0.1387
    1W        W41195  15.096   5.933   2.542 -0.0378 -0.4826  0.0750
    1W        W41196   5.088   9.497   1.189 -0.0474  0.1053  0.1179
    1W        W41197  27.684   6.728   2.766 -0.2837  0.2434 -0.3140
    1W        W41198   8.608   0.713   0.894  0.2452  0.1025 -0.0500
    1W        W41199   0.367  19.684   0.459 -0.3849 -0.1218 -0.2137
    1W        W41200  29.069  26.943   1.985 -0.2031 -0.2338 -0.0331
    1W        W41201  18.579  13.234   1.528 -0.1217 -0.2348 -0.0354
    1W        W41202  17.215  27.488   1.069  0.3065  0.0404 -0.1293
    1W        W41203   7.718   7.938   1.724  0.0569  0.0077 -0.1035
    1W        W41204  24.956  19.225   6.491  0.1169  0.1722 -0.0513
    1W        W41205  15.854   2.899   9.336 -0.1593  0.1851 -0.2316
    1W        W41206  22.163   0.212   2.167 -0.1649  0.0464 -0.2142
    1W        W41207   0.223   8.351   2.462 -0.1866 -0.0169  0.0767
    1W        W41208  22.664  28.768   0.319  0.1104  0.2254 -0.1180
    1W        W41209  27.633   8.667   1.677  0.2040  0.3419 -0.0766
    1W        W41210  17.294  14.645   5.987 -0.0575 -0.5385  0.3125
    1W        W41211  23.995  18.142   8.485  0.4329 -0.2797 -0.0855
    1W        W41212   6.336   7.377   7.105  0.0035 -0.2842  0.0456
    1W        W41213  19.565  21.519   1.277 -0.1331  0.3248  0.1975
    1W        W41214  24.048   0.572   1.632  0.3073  0.0785  0.0264
    1W        W41215   6.183  13.209   2.519 -0.0810  0.4203 -0.0066
    1W        W41216   8.614  17.604   9.030 -0.1848 -0.0722  0.0341
    1W        W41217  17.106   9.885   8.262 -0.1519 -0.1019 -0.2773
    1W        W41218  11.476   0.709   8.310  0.0498 -0.0141 -0.0844
    1W        W41219  20.972  25.216   8.528  0.5221  0.2758  0.1580
    1W        W41220  14.294   4.766   6.582 -0.1616 -0.4315  0.2447
    1W        W41221  21.709   8.099   2.236  0.0368  0.0357 -0.1762
    1W        W41222  10.667  23.417   0.949 -0.0415 -0.0353  0.1746
    1W        W41223  15.454  27.930   7.676 -0.2069 -0.1858  0.1141
    1W        W41224   7.484  15.484   1.681 -0.0768  0.1338  0.0117
    1W        W41225   6.203  16.192   1.637  0.0252  0.1175  0.0781
    1W        W41226  18.682  15.845   2.187 -0.1138 -0.0418  0.0279
    1W        W41227  13.581  21.465   6.733 -0.0734 -0.0066 -0.3986
    1W        W41228  26.578  21.998   1.355 -0.3550 -0.0791 -0.0602
    1W        W41229   2.235  13.586   7.420 -0.1311  0.5420  0.3923
    1W        W41230  15.602  17.034   2.355  0.1152  0.1563  0.0210
    1W        W41231   8.319  16.243   1.017  0.1195 -0.0323 -0.0602
    1W        W41232  19.361  23.782   7.818 -0.2772 -0.1094 -0.0055
    1W        W41233  21.325  12.561   1.801  0.0174  0.0399  0.0517
    1W        W41234  24.507   5.936   8.276 -0.0509 -0.1243 -0.0759
    1W        W41235  13.430  27.040   2.138  0.3350  0.2721  0.2722
    1W        W41236  23.348   7.297   8.913 -0.1915 -0.0954 -0.1399
    1W        W41237   1.063   7.014   7.243 -0.0324 -0.1609 -0.2525
    1W        W41238  23.252  13.196   0.691 -0.2015 -0.1169  0.0208
    1W        W41239  14.134  26.133   8.483  0.0421 -0.2177 -0.1511
    1W        W41240  13.944   4.459   2.998 -0.0735 -0.1660  0.1985
    1W        W41241   4.413   4.678   7.345  0.0327 -0.1448 -0.2506
    1W        W41242  18.789  21.061   0.247  0.1087  0.0476  0.3387
    1W        W41243   7.652   7.519   2.306  0.4452  0.0146 -0.1803
    1W        W41244   4.313  13.028   1.570  0.1132 -0.2071 -0.4816
    1W        W41245  25.644  10.916   8.215 -0.0850  0.0161 -0.1454
    1W        W41246  25.590  25.612   2.184 -0.0561  0.1026  0.1893
    1W        W41247  24.321  27.523   7.182  0.0305 -0.3197 -0.3382
    1W        W41248  14.098   4.353   8.198  0.3364  0.1545  0.0566
    1W        W41249   8.750   4.413   2.067  0.0126 -0.0471 -0.1234
    1W        W41250  23.602  28.253   7.407 -0.1731 -0.1985  0.2008
    1W        W41251  24.680   4.546   9.461  0.4100 -0.0142  0.3478
    1W        W41252  14.125   0.109   2.829  0.0006 -0.1344 -0.1836
    1W        W41253   0.842  11.537   0.171  0.2361 -0.1124  0.1690
    1W        W41254  12.845   4.453   2.560 -0.1563 -0.1847  0.4294
    1W        W41255   0.119   7.450   0.681 -0.0036  0.0627 -0.2017
    1W        W41256  28.790   8.752   1.453 -0.1790 -0.0289 -0.1384
    1W        W41257  27.898  16.368   8.921 -0.0230  0.1528 -0.1266
    1W        W41258   2.577   5.945   9.125  0.0047  0.1658 -0.0398
    1W        W41259  17.103  26.613   8.472 -0.1394 -0.0719  0.0193
    1W        W41260  29.024   2.147   8.520  0.5874 -0.0723  0.2008
    1W        W41261   8.211  19.987   7.144  0.1030  0.0105 -0.1525
    1W        W41262  19.890   2.347   0.489  0.2890 -0.2030  0.1486
    1W        W41263   5.745  12.571   0.518 -0.0200  0.1669  0.3924
    1W        W41264   2.242  17.004   2.088  0.1114 -0.0846 -0.0745
    1W        W41265  24.820  28.141   7.595 -0.0903 -0.0704 -0.0272
    1W        W41266  21.135  29.031   1.557  0.0103  0.0022 -0.0136
    1W        W41267  24.603  13.883   5.901  0.2174 -0.1984  0.2036
    1W        W41268  29.291  28.448   2.397 -0.0123  0.2858 -0.1082
    1W        W41269  28.595   9.857   0.442 -0.2654  0.0297  0.1078
    1W        W41270  25.316  20.120   5.379  0.0570 -0.0923 -0.0869
    1W        W41271  18.999  16.505   7.130 -0.1134 -0.0485  0.0844
    1W        W41272  18.613  12.956   0.024 -0.0607 -0.2909 -0.0453
    1W        W41273   5.280  11.738   0.594  0.0023  0.1549 -0.3030
    1W        W41274  17.253  15.185   0.237  0.3557  0.0052 -0.1736
    1W        W41275  25.228   4.464   8.242  0.0169 -0.0918 -0.3858
    1W        W41276  19.944  17.493   1.200 -0.0000 -0.0110 -0.0568
    1W        W41277  27.239  16.531   6.128 -0.1754 -0.1985 -0.0244
    1W        W41278  14.414  19.775   9.033  0.1046 -0.1780 -0.0170
    1W        W41279   9.574   3.521   8.185  0.1077  0.2055  0.1587
    1W        W41280   5.814  24.313   1.777  0.1981  0.0083  0.0444
    1W        W41281   9.008  16.569   7.299  0.3455  0.1155  0.0232
    1W        W41282   7.059   8.540   1.589  0.3066 -0.1430 -0.1078
    1W        W41283  20.279  17.844   6.775  0.0539 -0.0122 -0.0568
    1W        W41284  26.141  24.120   7.182 -0.2969  0.1686 -0.2236
    1W        W41285  27.031   7.027   0.368  0.1784 -0.4467 -0.1005
    1W        W41286  26.229   5.867   9.390 -0.0905 -0.1703 -0.0357
    1W        W41287  11.829  13.271   6.481  0.1763  0.0868 -0.1408
    1W        W41288  23.689  29.128   7.121  0.0329 -0.0318  0.5177
    1W        W41289  11.472   2.501   6.548  0.1958  0.0034  0.0176
    1W        W41290  14.177  14.811   0.940 -0.0198 -0.2281  0.0914
    1W        W41291  17.430  24.486   1.618 -0.2613 -0.0073  0.1327
    1W        W41292  11.204  18.959   0.308 -0.0334 -0.1864  0.3899
    1W        W41293  13.060   7.156   7.643  0.4011  0.0019  0.0867
    1W        W41294   0.370  25.419   0.559  0.3078  0.0057  0.1948
    1W        W41295  27.934  12.015   7.001 -0.0504  0.3497  0.1547
    1W        W41296   9.704  12.366   2.626  0.0822 -0.1540 -0.0171
    1W        W41297   4.057  18.519   8.796  0.0203  0.0963  0.0635
    1W        W41298  28.883   4.724   7.284 -0.1059  0.0014  0.2045
    1W        W41299   6.058   5.488   2.378  0.4679 -0.0185 -0.1789
    1W        W41300   0.225   3.048   9.212 -0.0988 -0.1847 -0.3100
    1W        W41301   7.336  21.391   8.936 -0.0947  0.2903  0.0446
    1W        W41302   3.441  22.555   1.180  0.1549 -0.4359  0.0904
    1W        W41303  12.453  11.079   9.275  0.2273 -0.0166  0.0708
    1W        W41304   1.605  29.097   6.784 -0.0716 -0.2489  0.0094
    1W        W41305  14.754  21.842   8.305  0.0118  0.0163 -0.2919
    1W        W41306  12.194  11.160   0.926 -0.0211 -0.1182  0.4374
    1W        W41307  26.930  20.929   8.979 -0.1033 -0.1217  0.0451
    1W        W41308  18.792  24.549   8.079 -0.1179  0.0139 -0.2220
    1W        W41309  29.783  12.520   6.839 -0.1681 -0.1211  0.1910
    1W        W41310  24.870   5.288   1.651  0.0395 -0.1505  0.1776
    1W        W41311  15.060   5.443   8.050 -0.1751 -0.1072  0.0134
    1W        W41312  18.666   3.124   2.326  0.0875 -0.2597  0.0692
    1W        W41313  16.151  25.264   6.366  0.1458  0.1231  0.0840
    1W        W41314  19.590   1.118   3.787 -0.2893 -0.0139 -0.2063
    1W        W41315  13.398   5.845   0.192 -0.0966  0.1070 -0.2222
    1W        W41316  25.948   4.649   1.442  0.0393  0.0368 -0.3913
    1W        W41317  19.091  15.700   7.837  0.0596  0.2775 -0.0027
    1W        W41318  25.934   7.593   8.503  0.2036  0.0601 -0.1904
    1W        W41319   9.812  23.163   7.487 -0.0195 -0.2140 -0.1416
    1W        W41320  26.842  20.111   6.199  0.0326 -0.1538 -0.2265
    1W        W41321   6.655   0.356   2.341  0.0465 -0.0549 -0.3219
    1W        W41322  22.676  26.325   9.084  0.0865 -0.0904  0.1752
    1W        W41323  15.352   6.876   7.813 -0.0787  0.3570  0.0748
    1W        W41324  18.023  27.213   7.352  0.3437 -0.0597  0.0565
    1W        W41325   4.337  24.166   1.306 -0.1750  0.0489  0.0728
    1W        W41326   7.393   3.650   8.822  0.1813  0.0291  0.3069
    1W        W41327   5.025  27.822   6.564 -0.0546  0.0187  0.0977
    1W        W41328  14.579  13.522   8.170  0.1929  0.0767 -0.0986
    1W        W41329  15.875   9.463   7.315  0.1192 -0.0688  0.1733
    1W        W41330  27.748  24.546   7.896  0.0123 -0.3507  0.1977
    1W        W41331  13.205  19.236   7.402  0.3910  0.1127 -0.2304
    1W        W41332  24.216  19.344   7.118 -0.1707  0.3845 -0.2177
    1W        W41333   7.250   2.109   3.373  0.2176  0.2291 -0.2008
    1W        W41334  18.940   8.667   2.354  0.1447 -0.0950  0.0051
    1W        W41335  14.865  24.020   1.264 -0.1283  0.1818  0.1538
    1W        W41336  12.343  19.166   7.053  0.0484 -0.0222 -0.1784
    1W        W41337  13.822  17.872   1.673  0.1318  0.0758 -0.2162
    1W        W41338   4.697   3.762   9.373  0.3598 -0.1023 -0.2626
    1W        W41339   7.398   8.676   8.615 -0.2378  0.0431  0.0450
    1W        W41340   2.472   3.778   7.085 -0.1857 -0.0513  0.2564
    1W        W41341  22.234   5.351   7.056  0.2486  0.0685  0.1801
    1W        W41342   8.200   0.682   1.667 -0.2930  0.1225  0.0225
    1W        W41343  19.179   7.156   8.561  0.0999  0.0410  0.1480
    1W        W41344  25.815  25.471   0.930  0.0034 -0.3582 -0.2059
    1W        W41345  28.219  20.189   1.004 -0.0033 -0.3426 -0.0985
    1W        W41346  26.014  27.636   6.734  0.2026 -0.0769  0.0373
    1W        W41347  17.575  25.174   8.960 -0.1905 -0.0638  0.0899
    1W        W41348  26.585   7.080   8.106  0.2048 -0.2701  0.0965
    1W        W41349  27.047  12.745   0.090 -0.1383  0.1646  0.1582
    1W        W41350   6.556  10.110   0.734 -0.0279  0.1094  0.1190
    1W        W41351  17.627  11.907   6.906  0.1019  0.0683 -0.3900
    1W        W41352  21.097  19.496   1.736 -0.1933  0.0913 -0.4296
    1W        W41353   5.019   3.209   6.827 -0.1416  0.0642 -0.2756
    1W        W41354  20.449  22.615   9.297 -0.2102  0.0470  0.1203
    1W        W41355  15.951   4.728   2.019 -0.1489 -0.0574  0.1563
    1W        W41356  17.619  27.300   1.443  0.0137 -0.1685 -0.0060
    1W        W41357   9.186  28.687   2.735  0.1143  0.0269 -0.0044
    1W        W41358  10.917  15.395   9.435 -0.1643 -0.0039 -0.3572
    1W        W41359  18.382   1.957   7.240  0.0454 -0.1179 -0.0734
    1W        W41360  11.928  17.529   2.063  0.0711 -0.1384 -0.0426
    1W        W41361  16.101   0.663   1.872  0.2336  0.2884 -0.1130
    1W        W41362  15.268  26.657   2.120  0.1217  0.2334 -0.0766
    1W        W41363  19.579  10.366   2.862 -0.0996  0.0349 -0.0996
    1W        W41364   4.051   3.739   1.718  0.0473 -0.0693 -0.6976
    1W        W41365   3.344   3.351   1.126 -0.1655  0.0229 -0.1353
    1W        W41366  13.970  25.635   8.406  0.2273  0.1750 -0.0062
    1W        W41367   5.179  19.363   1.897  0.0850  0.0995  0.0052
    1W        W41368  23.849  29.563   1.708 -0.1017 -0.1224 -0.1056
    1W        W41369   8.346   9.924   2.883  0.0369  0.0283 -0.0646
    1W        W41370  10.314   4.284   1.278 -0.0236 -0.2446  0.0779
    1W        W41371  14.131  13.212   8.187 -0.0533 -0.1427 -0.0110
    1W        W41372  15.699  28.988   6.685 -0.0454 -0.1218  0.0644
    1W        W41373   0.484  18.178   7.883 -0.0450  0.2347 -0.1294
    1W        W41374   1.561  21.845   7.329  0.1124 -0.1048  0.0676
    1W        W41375   1.696  13.247   2.103 -0.3497  0.0493  0.0284
    1W        W41376  13.188   0.954   9.055  0.0455 -0.0150  0.0101
    1W        W41377  24.055  26.246   7.299 -0.0852  0.0154 -0.2660
    1W        W41378  25.354   2.599   7.565 -0.0084  0.2099  0.1365
    1W        W41379   2.379  17.969   2.020 -0.0095 -0.3921 -0.0751
    1W        W41380   9.774  11.890   9.108 -0.0063  0.2551 -0.0624
    1W        W41381  18.265  11.390   7.890  0.0895  0.1573 -0.3196
    1W        W41382  14.619  11.786   6.846  0.0110  0.3368  0.0163
    1W        W41383   8.945   4.649   7.799  0.1088 -0.1244  0.0014
    1W        W41384  25.954  19.720   1.007 -0.1259  0.1328  0.3910
    1W        W41385  10.408  17.225   2.246  0.1643 -0.1255  0.0993
    1W        W41386  21.119  27.865   9.083 -0.0203  0.1700  0.0373
    1W        W41387   3.014  25.868   0.593  0.0103 -0.0472 -0.0002
    1W        W41388  27.148   8.463   1.491 -0.1616  0.1585 -0.0976
    1W        W41389   0.256  27.683   2.847  0.3146  0.0415  0.0488
    1W        W41390   5.534   5.373   7.185 -0.2150 -0.0347  0.0915
    1W        W41391   4.954  21.984   9.494  0.1977  0.1571 -0.0334
    1W        W41392  22.686  11.373   6.148  0.1128  0.0357 -0.2461
    1W        W41393   3.129  27.401   7.784 -0.1778  0.0752 -0.2980
    1W        W41394   6.366   1.879   7.947  0.2662 -0.1007  0.0577
    1W        W41395   3.019  11.829   1.564 -0.1028 -0.2254 -0.0604
    1W        W41396  27.633  22.757   0.426  0.1918 -0.0048  0.3758
    1W        W41397   1.584  28.017   9.507 -0.2109  0.3250 -0.0280
    1W        W41398  16.642  19.936   3.281  0.1845 -0.0510 -0.0925
    1W        W41399  21.472   2.105   9.257 -0.3773  0.1377  0.2516
    1W        W41400  22.234   2.651   2.516  0.0021 -0.1176  0.1376
    1W        W41401   3.197  23.972   0.978  0.3310 -0.1418 -0.2564
    1W        W41402  26.390  27.531   0.934 -0.1234 -0.1071  0.2311
    1W        W41403   3.156  25.333   0.684 -0.0083 -0.0890  0.1268
    1W        W41404  13.653   8.808   2.377 -0.2320 -0.0922 -0.0492
    1W        W41405  13.531   5.735   0.707  0.2762 -0.0212 -0.0037
    1W        W41406  21.085   8.803   7.810 -0.1677 -0.1597  0.0383
    1W        W41407  22.489  15.313   6.932  0.1335  0.2318  0.3030
    1W        W41408  28.938  11.421   9.024  0.0813 -0.0836  0.2328
    1W        W41409  24.374   6.062   1.575 -0.2474  0.0953  0.0929
    1W        W41410  24.582  13.043   1.108  0.0735 -0.2058  0.0382
    1W        W41411   3.652   7.157   9.529 -0.2503  0.1922 -0.2358
    1W        W41412  25.941  25.237   2.107 -0.1032  0.2290 -0.0423
    1W        W41413  16.386   0.558   6.655 -0.0627 -0.0410  0.0348
    1W        W41414   8.047   8.256   7.407  0.2898  0.0401  0.1026
    1W        W41415   9.400  24.373   8.859 -0.2194  0.0423 -0.0179
    1W        W41416  23.747   8.333   2.051 -0.1695  0.4368 -0.1342
    1W        W41417  27.900   8.590   0.714 -0.1661 -0.2347 -0.2125
    1W        W41418   7.387  22.170   7.744 -0.3490  0.0148  0.4195
    1W        W41419  18.063  11.345   6.028 -0.0243 -0.0964 -0.3220
    1W        W41420  19.184  12.812   1.214 -0.0765  0.0082 -0.3183
    1W        W41421   9.895   5.052   1.417  0.0776 -0.1231  0.2413
    1W        W41422   8.890  29.335   0.671 -0.1550 -0.0747  0.2721
    1W        W41423  12.747  26.313   6.921  0.3326 -0.0709 -0.1982
    1W        W41424   4.200  16.271   9.247 -0.1506  0.3027  0.0967
    1W        W41425  27.958  11.223   1.496 -0.2368  0.3764 -0.3111
    1W        W41426   0.802  28.489   7.537 -0.1630 -0.1355  0.2194
    1W        W41427  20.552  26.877   1.944 -0.1355  0.2256 -0.0317
    1W        W41428   1.545   3.091   0.533  0.3390 -0.1251  0.0187
    1W        W41429   1.922   0.330   2.441  0.1555  0.1406  0.3690
    1W        W41430  25.059   0.873   1.339  0.1100 -0.3877 -0.0883
    1W        W41431  16.444  27.028   3.154 -0.2426  0.1834  0.2745
    1W        W41432  19.872  10.981   7.915 -0.1330 -0.1859 -0.1284
    1W        W41433   3.249  18.144   1.709 -0.2498 -0.0043  0.1193
    1W        W41434  21.924  17.196   7.455  0.0417 -0.1988  0.0806
    1W        W41435  19.791  16.483   1.334 -0.1845 -0.3179 -0.1708
    1W        W41436  19.387  16.172   6.438  0.2040 -0.3355  0.2382
    1W        W41437  28.517   7.655   0.474 -0.0953  0.0282  0.0595
    1W        W41438  21.652  20.803   6.751  0.0181 -0.2142 -0.0449
    1W        W41439   7.287  14.925   9.077  0.0059 -0.2424  0.2286
    1W        W41440   6.384   8.727   0.407 -0.0912  0.0170  0.0433
    1W        W41441  24.716   5.133   7.933  0.2133  0.0986  0.1189
    1W        W41442   8.111  25.471   8.909 -0.1411 -0.0655 -0.2984
    1W        W41443   9.245  19.283   0.021  0.0128 -0.2510  0.3512
    1W        W41444  12.099  26.168   8.984 -0.1721 -0.0861 -0.0193
    1W        W41445  18.219  14.779   0.662  0.0909 -0.0124 -0.0984
    1W        W41446  16.985   0.982   7.981 -0.2227 -0.0760  0.0005
    1W        W41447  24.319   1.498   3.115 -0.2166  0.1300  0.1529
    1W        W41448   2.027   8.728   1.148  0.0328 -0.1147 -0.2739
    1W        W41449   8.000  19.582   7.030  0.3428 -0.0827 -0.0321
    1W        W41450  16.164   6.204   1.237  0.2743  0.0065 -0.0317
    1W        W41451  15.257  14.578   9.134 -0.0138  0.0498 -0.0643
    1W        W41452   8.442   0.260   1.914  0.0413 -0.1094 -0.0826
    1W        W41453  27.665   3.947   1.689  0.3350  0.2701 -0.0392
    1W        W41454  21.213  19.376   1.010 -0.2703  0.1735  0.4021
    1W        W41455  24.100  28.464   3.122  0.2274  0.2957 -0.0049
    1W        W41456  14.362  10.264   0.074  0.0663 -0.1663  0.0770
    1W        W41457   7.223   8.715   9.176 -0.0733 -0.1506  0.0709
    1W        W41458  10.109  13.587   7.773  0.0546 -0.2227  0.1326
    1W        W41459  20.699  29.729   2.076  0.3127 -0.1745  0.2221
    1W        W41460  22.073  11.254   7.753  0.0088  0.1939  0.0413
    1W        W41461   1.964  19.866   9.267  0.0363  0.0892  0.1027
    1W        W41462   4.244  14.055   1.635 -0.1189  0.1877 -0.2012
    1W        W41463   9.185  27.320   8.828  0.3184 -0.0967 -0.0827
    1W        W41464  16.422   6.131   3.260  0.1908 -0.0198 -0.1252
    1W        W41465   1.094  10.769   2.255  0.2127  0.2049 -0.0508
    1W        W41466   6.500  28.074   9.074 -0.1402  0.1908 -0.0326
    1W        W41467  19.466  19.442   7.753  0.2201  0.0948 -0.0598
    1W        W41468   6.346  21.464   0.384  0.0804 -0.1380  0.0812
    1W        W41469   9.213  22.759   0.945  0.0953  0.2306 -0.0088
    1W        W41470   8.679  23.278   7.945 -0.0367 -0.1259 -0.0907
    1W        W41471  14.556   6.379   9.220 -0.1771  0.0513  0.1710
    1W        W41472  12.445  29.595   7.874  0.0554 -0.0890 -0.0857
    1W        W41473   7.126  12.137   0.975  0.0373 -0.1319  0.1229
    1W        W41474  28.321  22.702   8.621  0.0747  0.1663 -0.0078
    1W        W41475  26.574   7.824   6.117  0.0212 -0.2512 -0.1397
    1W        W41476  11.071  28.623   7.277 -0.1875 -0.5067  0.1335
    1W        W41477   6.627  13.567   1.891  0.2112 -0.1864  0.2314
    1W        W41478  28.080  28.599   0.748 -0.1329  0.1165  0.0102
    1W        W41479  28.743   4.925   6.553  0.2737 -0.3362 -0.1568
    1W        W41480  18.994  10.606   1.281 -0.0241  0.3771 -0.0012
    1W        W41481  13.533  17.034   7.509  0.0674 -0.0653 -0.0696
    1W        W41482  20.310  15.258   0.432 -0.4398 -0.1052  0.0506
    1W        W41483  20.692   2.955   4.018  0.1983 -0.1250  0.1452
    1W        W41484   5.717  23.757   3.348  0.1664  0.3842 -0.2595
    1W        W41485  17.387   5.270   0.690 -0.0377  0.1930 -0.5618
    1W        W41486  20.179   2.115   0.789  0.2017  0.1519 -0.0506
    1W        W41487   5.481  21.307   0.048 -0.0746  0.0496  0.2223
    1W        W41488  14.427   9.863   8.851 -0.1018  0.2073 -0.1585
    1W        W41489  29.176  23.347   0.475 -0.0409  0.0925 -0.1599
    1W        W41490  24.071  13.727   7.999  0.1776 -0.0081  0.0566
    1W        W41491   2.901  18.705   8.084 -0.0073 -0.1907  0.0632
    1W        W41492   1.051   0.387   0.381 -0.0187  0.1541 -0.0895
    1W        W41493  26.347  27.777   9.495  0.0078 -0.1415  0.0605
    1W        W41494  25.131  12.252   8.046  0.1212 -0.2395  0.1116
    1W        W41495  26.463  19.103   5.640 -0.0390 -0.4202 -0.0249
    1W        W41496  27.296   1.735   7.714 -0.0060 -0.0558 -0.1784
    1W        W41497   9.175  28.802   2.241  0.0592  0.0782  0.0657
    1W        W41498   8.637  21.419   2.105  0.0405 -0.2794 -0.0351
    1W        W41499   4.692  26.959   0.090 -0.1123  0.1701 -0.0007
    1W        W41500   5.664   4.208   2.110 -0.0190 -0.0322 -0.2046
    1W        W41501  29.439  23.069   8.226 -0.4224  0.1058  0.1396
    1W        W41502  11.745  28.774   2.788 -0.2018  0.1369  0.0872
    1W        W41503  20.467  26.908   7.255  0.2700 -0.3696  0.1019
    1W        W41504  14.156  22.269   6.951 -0.3177 -0.2294 -0.0517
    1W        W41505  26.846  10.731   7.475 -0.2714 -0.0067  0.3113
    1W        W41506  14.116  22.125   9.370 -0.4332 -0.1519 -0.2259
    1W        W41507   1.985  19.126   8.327  0.1272 -0.3995 -0.2087
    1W        W41508  23.082  12.946   6.323  0.2225 -0.1174  0.1619
    1W        W41509  17.153  16.062   6.750 -0.1594  0.2224 -0.0778
    1W        W41510  20.766   9.919   2.165  0.2025 -0.0365  0.1436
    1W        W41511   3.819  13.285   1.418  0.1564  0.2274 -0.1533
    1W        W41512  12.477   1.386   0.707  0.0087 -0.1334  0.2407
    1W        W41513  18.392   4.590   3.414 -0.0346  0.1686  0.2221
    1W        W41514  25.439   9.746   6.748  0.1599  0.0859 -0.0314
    1W        W41515  10.015   4.777   8.829  0.5028 -0.1152 -0.1102
    1W        W41516   5.581  14.600   0.676 -0.0920  0.3077  0.1818
    1W        W41517  19.437   8.882   0.573 -0.2086  0.0950  0.0981
    1W        W41518  11.514   4.336   2.474  0.1564 -0.0396 -0.0341
    1W        W41519   7.927   0.354   8.801  0.0581  0.0473  0.0341
    1W        W41520  20.751  29.319   1.387 -0.1070  0.2758  0.0288
    1W        W41521  12.867  24.962   7.840 -0.0729  0.2342 -0.1133
    1W        W41522  15.242  25.589   8.639 -0.2941 -0.0644  0.0157
    1W        W41523  12.703   5.622   9.117  0.1598 -0.0072 -0.0452
    1W        W41524  15.846  23.555   8.371  0.0622  0.0653  0.3945
    1W        W41525   5.844  16.324   7.683 -0.0837  0.0088  0.1072
    1W        W41526   6.071  18.061   0.065  0.1199 -0.2573 -0.1284
    1W        W41527  14.294   5.614   7.054  0.0511  0.1646  0.0904
    1W        W41528  16.564  19.880   6.876  0.0306 -0.1797 -0.0864
    1W        W41529  23.666  12.798   7.787  0.0598 -0.0563 -0.2514
    1W        W41530   7.558  24.633   8.358 -0.1909 -0.1118 -0.1042
    1W        W41531  13.821   8.497   6.341  0.1450 -0.2643  0.0984
    1W        W41532  18.582  29.307   2.593 -0.0535 -0.0092 -0.0550
    1W        W41533  19.958  21.882   1.680  0.1261  0.0504 -0.2285
    1W        W41534  22.280  21.790   1.541  0.2924 -0.1956 -0.0100
    1W        W41535  21.990   2.047   7.577  0.1554 -0.0887 -0.2395
    1W        W41536  12.602  19.798   2.321  0.4039  0.0694  0.1871
    1W        W41537   4.043   8.643   1.730 -0.2186 -0.2979 -0.0254
    1W        W41538  29.736  24.994   8.424 -0.0445 -0.0877 -0.1174
    1W        W41539   8.421  16.767   8.917 -0.0857  0.1085  0.0965
    1W        W41540  18.819  25.045   7.970  0.2362  0.2041 -0.0809
    1W        W41541  15.972  13.519   9.501 -0.1872 -0.2781 -0.1021
    1W        W41542  20.517  17.799   8.573  0.1736  0.0439  0.1400
    1W        W41543   3.328  23.328   0.173 -0.3760 -0.0430  0.2620
    1W        W41544  25.031  29.153   1.633  0.1903  0.3119  0.2168
    1W        W41545  18.047  26.463   1.411  0.0922  0.0713  0.0620
    1W        W41546   7.474  28.659   0.762  0.0987 -0.0066 -0.0967
    1W        W41547   1.635  22.083   8.941  0.1388 -0.1795 -0.1393
    1W        W41548   1.053  22.876   8.604 -0.0183 -0.1077 -0.0516
    1W        W41549   4.191  26.259   0.635 -0.1641 -0.3228 -0.1517
    1W        W41550  23.522  27.669   1.906 -0.3298 -0.1926  0.0846
    1W        W41551   0.590   1.265   7.623  0.1493 -0.0457 -0.0891
    1W        W41552  18.980  23.926   9.074  0.2819 -0.1971  0.0198
    1W        W41553  16.206  15.534   9.280  0.2295 -0.2285 -0.2462
    1W        W41554  12.922   2.713   7.509  0.1076 -0.1275  0.1980
    1W        W41555  28.836  27.483   3.434  0.2183 -0.1294  0.0390
    1W        W41556   9.774  24.692   1.029  0.1630  0.2745  0.1653
    1W        W41557   1.541  28.346   7.004 -0.2505 -0.0509 -0.2929
    1W        W41558  25.619  26.301   7.887  0.0278  0.1151 -0.0784
    1W        W41559   1.466  23.750   8.086  0.1956  0.0292  0.0166
    1W        W41560  23.812  11.989   7.536  0.5260  0.1958  0.1559
    1W        W41561  23.075  12.229   5.755 -0.1023  0.0675 -0.0679
    1W        W41562  18.058  19.634   0.799  0.1766 -0.0324 -0.1794
    1W        W41563  13.719  21.867   8.939 -0.0109 -0.1205  0.1016
    1W        W41564   3.562   5.066   0.649 -0.3532  0.0931  0.2953
    1W        W41565  25.055  25.352   7.746 -0.0640  0.0278  0.0713
    1W        W41566  17.297   5.307   2.246  0.0146  0.1713  0.1467
    1W        W41567   7.580  11.685   7.147  0.0288  0.3528 -0.1680
    1W        W41568  15.319   4.818   1.778  0.2485 -0.1744 -0.1521
    1W        W41569   0.991   6.361   8.217  0.1279 -0.1782  0.0416
    1W        W41570  18.735  13.842   9.264 -0.1272 -0.0293 -0.1217
    1W        W41571  21.363  18.069   6.109  0.0637  0.0341  0.0585
    1W        W41572  23.748  15.522   7.636  0.2265 -0.0488 -0.0457
    1W        W41573   2.023  22.592   7.487 -0.0982  0.2592  0.0626
    1W        W41574  16.299  21.968   9.388 -0.3646  0.2830  0.3023
    1W        W41575  18.092  21.260   7.617  0.0611 -0.1835 -0.2834
    1W        W41576  14.078   2.499   0.539  0.1063  0.0435  0.2652
    1W        W41577   4.818  19.636   6.390  0.0604  0.1226 -0.1531
    1W        W41578  26.773  18.271   7.575 -0.1179 -0.1330 -0.0397
    1W        W41579  23.466  21.762   0.346 -0.2659  0.1157  0.2193
    1W        W41580  28.734  18.131   8.635  0.1698  0.0017 -0.2180
    1W        W41581   6.145  14.828   7.892  0.0305  0.2817 -0.2275
    1W        W41582  25.153  10.765   9.549 -0.0522  0.1204  0.0224
    1W        W41583   2.341   4.717   1.681 -0.3487 -0.3566 -0.1314
    1W        W41584  27.398   9.572   2.025  0.0370 -0.0979 -0.2255
    1W        W41585  16.346  22.399   7.838  0.2876  0.2037  0.0309
    1W        W41586  23.853  26.244   8.572 -0.0882 -0.5106 -0.0872
    1W        W41587   3.803   3.622   1.140 -0.1131 -0.0210  0.0965
    1W        W41588  20.955  23.686   0.379 -0.0997  0.0507 -0.0974
    1W        W41589  10.768  28.554   3.120  0.1428 -0.0099  0.0785
    1W        W41590  20.159   1.434   3.325  0.0361  0.0655  0.0248
    1W        W41591  22.989   5.825   8.783 -0.1673 -0.0552  0.4259
    1W        W41592  13.938  28.946   8.218  0.1236 -0.1638  0.0367
    1W        W41593  25.448   3.863   8.665  0.0330  0.0412 -0.2241
    1W        W41594  27.446  10.805   6.086  0.1110  0.0385 -0.3679
    1W        W41595  29.178  19.878   0.310  0.1510  0.1397 -0.0632
    1W        W41596  24.479  19.403   6.499 -0.4012  0.2469 -0.0555
    1W        W41597  15.672  10.751   0.218 -0.1196 -0.0206  0.0933
    1W        W41598  24.920   9.652   7.648 -0.1219 -0.0228  0.2291
    1W        W41599  11.838  26.254   1.192 -0.0467 -0.0080 -0.0456
    1W        W41600  16.190  17.929   2.643 -0.0357 -0.0158 -0.2045
    1W        W41601   0.803   6.428   1.771  0.1176 -0.1332  0.3518
    1W        W41602  20.876   7.213   3.000  0.1089  0.1147  0.1518
    1W        W41603   7.061  17.268   2.243  0.0271 -0.0073 -0.1976
    1W        W41604  21.093   4.377   2.084 -0.2392 -0.1756  0.2078
    1W        W41605  21.000  26.909   0.178  0.2553 -0.2999 -0.1178
    1W        W41606  26.085   1.688   2.499  0.0006 -0.4033  0.0999
    1W        W41607  18.600   3.866   2.882  0.0554  0.1313  0.0657
    1W        W41608  26.433  13.120   6.003  0.0378  0.1591  0.2278
    1W        W41609  11.901  24.332   0.070 -0.2324  0.0117  0.0137
    1W        W41610  16.747  17.110   8.496 -0.2299 -0.1155 -0.0121
    1W        W41611  22.119  29.263   3.161 -0.0577 -0.2486 -0.0878
    1W        W41612  12.210   6.776   0.567  0.0356  0.0614  0.1628
    1W        W41613  23.577   9.283   6.606 -0.0473 -0.0753 -0.2582
    1W        W41614   8.866  25.910   7.955  0.1531 -0.0355  0.0053
    1W        W41615  20.645  14.156   9.202  0.2749  0.0756 -0.2768
    1W        W41616   9.291  28.482   0.556  0.0079  0.2422 -0.1023
    1W        W41617  18.062  15.117   6.920 -0.5027 -0.3107  0.0175
    1W        W41618  20.900  18.992   6.154  0.0161  0.3245 -0.3248
    1W        W41619   8.618  28.610   2.087  0.1153 -0.1860 -0.0400
    1W        W41620  25.963   8.215   9.390 -0.1216 -0.3321  0.1323
    1W        W41621  15.812  22.130   0.681  0.2132  0.0382  0.0849
    1W        W41622  12.757  12.994   8.197 -0.2726  0.1950 -0.1578
    1W        W41623  27.409  11.501   8.517 -0.1831 -0.3113 -0.0233
    1W        W41624  25.494   1.134   0.499  0.1119  0.1276 -0.2486
    1W        W41625  21.814  22.588   7.865  0.1331 -0.3472  0.1926
    1W        W41626  24.058  20.101   2.157 -0.0617 -0.2867  0.3923
    1W        W41627  16.283   5.710   7.209 -0.3340 -0.0071 -0.0309
    1W        W41628   5.867  26.223   7.742 -0.2517 -0.1388  0.0926
    1W        W41629  24.823  24.837   1.452 -0.0329  0.1051 -0.0964
    1W        W41630   0.482   3.382   0.571  0.0230  0.2450  0.0785
    1W        W41631   1.423   9.417   7.485 -0.1728  0.1306 -0.0812
    1W        W41632  27.539  22.880   6.309 -0.2395  0.1079 -0.1272
    1W        W41633  20.385   7.085   2.956 -0.2184 -0.2799  0.0063
    1W        W41634  13.680   7.909   8.288 -0.1434 -0.4097 -0.2100
    1W        W41635  22.010  23.370   6.380  0.4439  0.0091 -0.0676
    1W        W41636  23.381  13.499   6.610  0.0952 -0.1491 -0.0765
    1W        W41637  28.308   4.514   2.251  0.2097 -0.3044 -0.2117
    1W        W41638   3.803  10.486   6.782  0.1290 -0.1091  0.0872
    1W        W41639   6.103   4.884   8.513 -0.3433 -0.3599  0.0702
    1W        W41640  21.231  12.073   9.520 -0.5464  0.0617 -0.1328
    1W        W41641  12.827   5.417   1.502 -0.0205  0.1300  0.2482
    1W        W41642   0.211  11.223   1.043  0.1337  0.2543 -0.0507
    1W        W41643  28.386   2.168   9.115  0.1530  0.1479  0.1240
    1W        W41644  11.083   0.259   0.863  0.0360  0.1280 -0.1405
    1W        W41645  28.945   1.305   9.331  0.0650 -0.0964 -0.0751
    1W        W41646   2.850  26.456   0.683 -0.0559 -0.2083 -0.2260
    1W        W41647   0.804  11.931   7.068  0.0259 -0.4053 -0.1117
    1W        W41648   0.736  17.823   0.575  0.1125  0.1209  0.1209
    1W        W41649  17.007   0.094   9.022 -0.0239  0.1655  0.5554
    1W        W41650  22.283  12.175   0.076 -0.1847 -0.0069 -0.0423
    1W        W41651  10.901  16.384   7.154  0.0687 -0.0457  0.0466
    1W        W41652  12.227  16.943   7.571 -0.0936 -0.1467 -0.0708
    1W        W41653  23.492  23.563   7.233 -0.0879  0.3182 -0.0300
    1W        W41654  20.761  18.258   9.540 -0.0488 -0.0361 -0.1043
    1W        W41655  26.366   8.512   8.225 -0.0268 -0.0539 -0.0486
    1W        W41656   0.086   8.817   7.961 -0.2395 -0.4461  0.2026
    1W        W41657   1.699   4.204   8.202 -0.0822  0.1061 -0.0771
    1W        W41658  18.681  15.398   6.326 -0.0243 -0.1194  0.0681
    1W        W41659  16.490  11.842   6.883 -0.1967 -0.1225  0.0879
    1W        W41660   3.906  19.956   0.491  0.0271 -0.1863  0.1730
    1W        W41661  22.908   0.014   8.589  0.0783 -0.1444  0.0606
    1W        W41662  25.336   8.182   0.630 -0.0016 -0.3622 -0.2885
    1W        W41663  13.530   1.318   8.907 -0.1930  0.0026  0.2104
    1W        W41664  11.758  15.687   0.230  0.3580  0.1103  0.1584
    1W        W41665  18.735  25.821   8.558  0.1925 -0.0682 -0.1596
    1W        W41666  16.844  25.823   8.120 -0.0675  0.1078 -0.1148
    1W        W41667  23.196   7.011   6.991  0.1926  0.1192  0.2808
    1W        W41668   0.976   5.700   9.285  0.1398 -0.0044 -0.2049
    1W        W41669   1.577  24.004   0.521  0.0844  0.0803  0.2289
    1W        W41670  27.090  28.703   7.629 -0.1771  0.0657  0.1362
    1W        W41671  15.643  25.107   6.506 -0.0323  0.0143 -0.1850
    1W        W41672  18.628   0.906   0.299 -0.0070  0.0225  0.1647
    1W        W41673   2.080   7.881   7.324 -0.0902 -0.1088 -0.0816
    1W        W41674   6.953  28.860   0.807 -0.1165 -0.1744  0.2811
    1W        W41675  26.988   1.247   9.261 -0.0773  0.1027  0.2231
    1W        W41676   4.119  17.541   6.894 -0.4081 -0.1847  0.0350
    1W        W41677  10.566   4.752   1.765  0.2692  0.2438 -0.0378
    1W        W41678  22.893  19.666   6.911 -0.3524 -0.2048 -0.1694
    1W        W41679  20.469  10.599   0.542  0.1129  0.0927 -0.2091
    1W        W41680  11.635   0.489   7.519 -0.1776  0.1966  0.0609
    1W        W41681   1.128  10.277   2.243  0.0378  0.0882  0.2543
    1W        W41682  19.937  18.817   5.824 -0.4438 -0.2054  0.2103
    1W        W41683   7.409   8.325   1.858  0.1164 -0.3180  0.1932
    1W        W41684   2.068   4.398   8.565  0.1019  0.0244 -0.2266
    1W        W41685   5.639  14.723   7.925  0.0053  0.1769 -0.1600
    1W        W41686  23.347  15.277   0.905 -0.0804  0.2170 -0.2333
    1W        W41687   3.412   0.565   9.072 -0.3074 -0.2927  0.1245
    1W        W41688   7.667   1.102   9.373  0.4435 -0.0454  0.0460
    1W        W41689  20.252  10.086   7.105  0.2240  0.1640  0.2102
    1W        W41690  10.195  13.996   2.388 -0.0147  0.0365  0.1094
    1W        W41691  25.162  20.118   1.276 -0.5185  0.0482  0.1283
    1W        W41692  18.958  10.649   8.761  0.1113  0.4606  0.1627
    1W        W41693  25.516   9.095   0.375  0.0338 -0.0093  0.1013
    1W        W41694  12.368   8.592   6.510 -0.0769 -0.0717  0.1080
    1W        W41695   0.797   8.925   7.211  0.0958  0.4422 -0.0062
    1W        W41696  17.473  21.039   6.593 -0.0573  0.2357 -0.1956
    1W        W41697  28.082   2.744   2.559  0.0899 -0.3833  0.1771
    1W        W41698  22.261  20.255   1.591 -0.0357 -0.0815 -0.1345
    1W        W41699   0.295  13.949   9.283 -0.2057  0.0536 -0.0729
    1W        W41700   5.788   3.209   8.273 -0.1784  0.0780 -0.3558
    1W        W41701  12.435  23.285   9.388  0.1332  0.2369  0.1096
    1W        W41702  11.567  18.021   9.136 -0.0299 -0.0509  0.0824
    1W        W41703   8.947  16.752   8.976 -0.0025  0.1351  0.1462
    1W        W41704   1.837   6.577   8.734 -0.1905 -0.0883 -0.2392
    1W        W41705  12.321   7.422   7.900 -0.0616  0.1625  0.0807
    1W        W41706   3.614  28.513   7.259  0.2450  0.1716 -0.1144
    1W        W41707  16.968   0.855   2.702 -0.0868  0.2381  0.1716
    1W        W41708   8.699  21.882   1.183  0.0407  0.2392 -0.0225
    1W        W41709   2.640   2.136   8.980 -0.2847  0.0688 -0.0605
    1W        W41710   1.380  17.278   8.350  0.0393 -0.2085 -0.0880
    1W        W41711  23.940  10.783   0.913 -0.0297  0.2605 -0.0140
    1W        W41712  17.980  19.825   1.618 -0.1228  0.2762  0.2151
    1W        W41713  18.444   5.216   1.011  0.0448  0.3363  0.1535
    1W        W41714   1.295  11.800   8.518 -0.3233 -0.3960 -0.0756
    1W        W41715  20.788  17.786   8.141  0.0672 -0.2071 -0.1482
    1W        W41716  19.156   1.100   7.998 -0.0503 -0.4739  0.1218
    1W        W41717  12.015  14.082   8.413  0.1400  0.0962 -0.0340
    1W        W41718  14.449  26.135   2.063 -0.0647 -0.1589  0.0015
    1W        W41719  17.273  29.605   1.767  0.0227 -0.0928  0.1983
    1W        W41720   9.834   4.746   8.050 -0.2130 -0.0352  0.0472
    1W        W41721  24.286  10.295   9.377 -0.1671  0.2296 -0.2741
    1W        W41722   0.865  29.469   8.928 -0.3587  0.1959 -0.1059
    1W        W41723   9.213   8.484   1.664 -0.4998 -0.1882 -0.0805
    1W        W41724  28.990   8.083   1.213  0.3852 -0.2815 -0.0897
    1W        W41725  13.778  27.551   7.470  0.1586  0.2145 -0.4163
    1W        W41726  14.066  14.266   2.988 -0.2013 -0.0364 -0.2252
    1W        W41727  14.521  13.438   1.971  0.1136  0.1250  0.0084
    1W        W41728   1.743  28.813   0.446 -0.3162  0.2506 -0.3764
    1W        W41729  21.260  12.707   8.836 -0.0753 -0.0732 -0.1778
    1W        W41730  20.906  13.694   6.142  0.0037  0.2458 -0.2785
    1W        W41731  17.016   9.881   9.338 -0.0007 -0.2168 -0.1980
    1W        W41732   8.969  20.239   7.714  0.0075 -0.1744 -0.1664
    1W        W41733  22.240  15.982   6.864 -0.1670 -0.0618 -0.1561
    1W        W41734  24.564  16.149   7.778 -0.2020 -0.0145 -0.1106
    1W        W41735   3.191  15.258   1.795  0.3023  0.2375  0.0713
    1W        W41736  16.145   2.822   2.596  0.1879 -0.1064 -0.3225
    1W        W41737  11.408  21.778   8.753  0.2849 -0.0071  0.1970
    1W        W41738  24.451  10.672   2.077  0.0419 -0.4572 -0.3514
    1W        W41739  21.605  19.035   8.217  0.3586  0.0635 -0.3061
    1W        W41740  26.445  28.736   0.161  0.0157  0.0982 -0.1446
    1W        W41741   8.760  28.370   6.870  0.3168 -0.3679  0.1106
    1W        W41742  10.549  15.096   0.069 -0.2324  0.0071 -0.0674
    1W        W41743   4.896  28.919   6.742 -0.1029  0.4696 -0.2421
    1W        W41744  13.889   7.533   7.962  0.1353 -0.3362  0.2056
    1W        W41745   9.095   4.558   9.159  0.2061 -0.1543  0.0706
    1W        W41746  18.367  23.246   0.423 -0.1429  0.2688  0.1623
    1W        W41747   1.633  12.946   0.163  0.3193  0.2444  0.1488
    1W        W41748  14.733  12.925   1.789 -0.1121 -0.0221  0.2672
    1W        W41749  20.444  23.446   2.001 -0.0092  0.0606 -0.1132
    1W        W41750   0.973   5.162   7.703  0.0670 -0.1764 -0.0446
    1W        W41751  28.556  24.951   2.046 -0.0157  0.3370 -0.1292
    1W        W41752  18.296  26.949   7.999  0.0221  0.3717  0.2968
    1W        W41753  14.976  29.122   6.961  0.3132  0.1730  0.1144
    1W        W41754  19.145  27.816   1.670  0.2408  0.0374 -0.0346
    1W        W41755   5.776  26.647   7.257  0.1496 -0.2090  0.1783
    1W        W41756  12.434  15.762   6.885  0.2856  0.0307  0.0993
    1W        W41757  11.985  25.533   1.855  0.1237  0.3798  0.3128
    1W        W41758   0.561   4.014   2.432  0.0182  0.1038  0.2135
    1W        W41759  19.177  17.099   8.840  0.1177 -0.0345 -0.4524
    1W        W41760  24.579  27.930   1.700 -0.1790  0.4762 -0.3077
    1W        W41761  16.848  18.394   2.652  0.0181  0.1287 -0.1016
    1W        W41762  16.715   8.193   3.784 -0.2628 -0.0634 -0.1678
    1W        W41763   7.050   3.917   1.797  0.2832  0.1870  0.1814
    1W        W41764  17.479  17.193   9.295  0.1862  0.0909 -0.0664
    1W        W41765  16.505   3.199   2.409  0.0274  0.3517 -0.0178
    1W        W41766  11.979  14.817   1.713  0.0029  0.2229  0.1028
    1W        W41767  18.723  29.171   8.937 -0.0924 -0.0378  0.2672
    1W        W41768  10.569   4.490   4.289  0.1397 -0.0667  0.0442
    1W        W41769  27.144  20.268   1.476 -0.0734  0.2716  0.1580
    1W        W41770  17.346  21.475   1.378  0.0233  0.2267 -0.1353
    1W        W41771  28.577  11.193   7.246  0.3020 -0.0376 -0.0049
    1W        W41772  19.768  25.808   1.010 -0.3665 -0.0357  0.1136
    1W        W41773  25.454  22.761   2.400 -0.0916  0.0812  0.1263
    1W        W41774   0.444  17.371   8.276  0.0338 -0.2520 -0.0570
    1W        W41775   7.971   9.819   1.234 -0.1488  0.1158  0.1015
    1W        W41776   6.703  17.222   7.578  0.2209 -0.1260  0.1613
    1W        W41777   3.758  24.484   8.617 -0.0113  0.3627  0.1036
    1W        W41778  15.150  16.222   9.414 -0.0548 -0.0043 -0.0340
    1W        W41779   6.423  12.552   9.384 -0.1362  0.0093 -0.0412
    1W        W41780  11.269  21.500   9.176  0.1299  0.0976 -0.1286
    1W        W41781  21.064  21.873   1.237 -0.0774  0.2068 -0.3813
    1W        W41782  16.147  11.511   5.864 -0.0327  0.3580 -0.0093
    1W        W41783  29.245   5.761   2.238 -0.1416 -0.1363  0.2092
    1W        W41784  16.443  28.240   0.150  0.2840 -0.1486 -0.0442
    1W        W41785  27.498  15.938   0.243  0.1403 -0.0944 -0.0957
    1W        W41786   0.734  20.319   7.340  0.0149 -0.0666  0.0705
    1W        W41787  10.796  28.767   2.190  0.4007 -0.0707 -0.3620
    1W        W41788  13.860  22.994   1.582  0.0338  0.1678  0.0025
    1W        W41789  11.527  14.789   8.549 -0.0052 -0.1723  0.5242
    1W        W41790   4.172  26.597   3.890  0.0611 -0.1135 -0.0739
    1W        W41791   2.489  16.065   0.296 -0.1373 -0.0328 -0.0431
    1W        W41792  16.972  22.503   8.867  0.0197 -0.4192 -0.1486
    1W        W41793  23.311   8.507   0.004  0.1733 -0.3325 -0.2629
    1W        W41794  11.189  22.974   9.103 -0.2907  0.0625  0.0104
    1W        W41795  26.057   2.986   2.241 -0.1736  0.0010 -0.1366
    1W        W41796   2.275  26.153   7.824 -0.1585  0.0861  0.2739
    1W        W41797  22.174  24.188   8.855 -0.1457  0.2885 -0.2702
    1W        W41798  27.778  10.092   3.085  0.0190 -0.1267  0.1424
    1W        W41799  10.967  11.805   7.598  0.0324  0.1706  0.0957
    1W        W41800  11.351   7.107   8.440  0.0936 -0.1124 -0.2492
    1W        W41801   2.912  15.135   6.748 -0.1665 -0.0258 -0.2659
    1W        W41802  15.763  12.989   7.082 -0.1649  0.1249 -0.3550
    1W        W41803  13.631  26.215   0.540  0.2431 -0.0708  0.0468
    1W        W41804  23.381   0.665   8.641 -0.0741 -0.2030  0.2033
    1W        W41805   1.517   6.096   1.778  0.2815 -0.2978  0.1000
    1W        W41806   4.468   4.613   8.297  0.1255 -0.0477  0.2518
    1W        W41807  18.415  14.011   8.737 -0.0777  0.0436  0.2958
    1W        W41808  11.376  18.945   2.827 -0.3812  0.2060 -0.2450
    1W        W41809   6.619   6.612   3.140 -0.0578  0.0440 -0.2660
    1W        W41810   7.201   7.652   1.512 -0.1206  0.1651  0.1231
    1W        W41811  17.646   4.114   3.608 -0.0123  0.2286  0.1694
    1W        W41812  26.031   1.032   1.715  0.0516 -0.0333  0.1948
    1W        W41813   9.025   8.494   1.177  0.0787  0.1635 -0.2769
    1W        W41814   5.077   0.125   6.907 -0.0436  0.0914 -0.1568
    1W        W41815   4.601   8.235   0.657  0.2933 -0.1410 -0.0760
    1W        W41816   8.934  29.115   7.498  0.2214 -0.1749 -0.0511
    1W        W41817  17.191  23.037   2.186  0.2887  0.1412  0.0193
    1W        W41818  15.865   5.366   2.184  0.0562 -0.2092  0.2530
    1W        W41819  22.203  20.573   8.239 -0.1331 -0.1036  0.1235
    1W        W41820  24.121   3.082   1.945 -0.3244 -0.0489 -0.1969
    1W        W41821   9.958  28.381   9.303  0.2324 -0.1280 -0.4921
    1W        W41822  23.197  13.872   6.194  0.0767 -0.0455 -0.2673
    1W        W41823  16.627  23.824   2.711 -0.1965  0.0091  0.1461
    1W        W41824  11.330   6.576   1.376  0.2004  0.2655  0.3673
    1W        W41825   4.662  27.670   8.470 -0.2711 -0.2806 -0.0644
    1W        W41826  13.764  22.628   9.482 -0.2521 -0.2361  0.0385
    1W        W41827  12.574  14.350   2.770 -0.0915  0.1646 -0.1726
    1W        W41828  16.190   7.574   1.844 -0.0285  0.2094 -0.3065
    1W        W41829  28.144  29.230   0.642 -0.0427  0.2455  0.1178
    1W        W41830  29.273   6.379   0.120  0.0895 -0.2460 -0.2323
    1W        W41831  17.391  15.905   7.717  0.1153 -0.0010 -0.2761
    1W        W41832  14.282   5.811   3.001  0.1245 -0.3817  0.3226
    1W        W41833  21.183  11.815   8.777  0.1461 -0.0465  0.0727
    1W        W41834   2.102  27.492   7.641 -0.1188 -0.1794  0.0940
    1W        W41835  14.663  10.449   0.929 -0.1038 -0.0263  0.1612
    1W        W41836  10.963  11.470   9.135  0.1019  0.0015  0.3437
    1W        W41837   8.769  16.847   8.504  0.0428  0.4899  0.1327
    1W        W41838  15.702   6.267   9.123 -0.3069 -0.1403 -0.2506
    1W        W41839  12.921  23.652   1.523 -0.0749 -0.2340  0.1453
    1W        W41840  16.448   0.923   1.053  0.1184 -0.2725 -0.1402
    1W        W41841  19.469   4.882   2.152  0.4298  0.2240  0.1440
    1W        W41842  27.201  11.837   7.567 -0.3091 -0.1876 -0.0183
    1W        W41843  23.149  12.184   6.893 -0.3237 -0.4404  0.2437
    1W        W41844  20.374   9.154   0.832  0.1810 -0.2107  0.3299
    1W        W41845  10.870  18.819   2.873  0.4168 -0.3320  0.2814
    1W        W41846  24.933  24.088   7.201  0.2832 -0.0866  0.1234
    1W        W41847  12.438   2.648   3.956  0.0027  0.6045  0.0282
    1W        W41848  14.181  21.002   7.230 -0.1860 -0.0830  0.0284
    1W        W41849   6.203  10.919   0.938 -0.0606 -0.3661 -0.0640
    1W        W41850   6.232  27.893   8.484 -0.0160  0.2610  0.0964
    1W        W41851  16.682  22.246   9.250  0.1700 -0.0263  0.3649
    1W        W41852   1.729   9.148   0.571  0.0590  0.1274 -0.1335
    1W        W41853  20.485  14.495   1.534 -0.0422 -0.2941 -0.0854
    1W        W41854  15.002  10.507   7.289  0.1811  0.1582  0.1024
    1W        W41855   7.707   0.297   2.705 -0.0869  0.0655  0.1888
    1W        W41856   0.351  22.369   7.835  0.1528  0.0711 -0.0036
    1W        W41857  13.328  11.731   6.233  0.0657  0.0731 -0.2142
    1W        W41858  27.588   4.494   6.964  0.0610 -0.1433  0.0687
    1W        W41859  11.047  25.296   1.957  0.0951 -0.2563 -0.0238
    1W        W41860  21.243   4.289   9.269  0.3211  0.1802  0.4122
    1W        W41861  20.965  25.679   1.794  0.0315 -0.0225 -0.0820
    1W        W41862   3.942   5.995   8.824 -0.0873 -0.2381 -0.2304
    1W        W41863  28.383   2.545   7.351  0.3144  0.2047  0.2653
    1W        W41864   8.867  10.785   1.173  0.0815 -0.2725  0.0271
    1W        W41865  12.831  11.747   7.641 -0.1744 -0.0903 -0.2526
    1W        W41866   6.200  23.647   9.428 -0.1193 -0.3498  0.0583
    1W        W41867   0.305  17.735   0.352  0.1839  0.1935 -0.0602
    1W        W41868   4.146   8.225   3.106  0.0389 -0.0685 -0.3435
    1W        W41869   0.178   9.021   9.522 -0.0723 -0.0840 -0.0994
    1W        W41870  24.554   6.209   7.363  0.2733  0.0895 -0.1469
    1W        W41871  12.516  22.046   2.436 -0.1009  0.1207 -0.2398
    1W        W41872  13.401  23.712   1.438 -0.0711 -0.0286 -0.1767
    1W        W41873   7.704  15.402   7.932  0.1060 -0.4621  0.0170
    1W        W41874   0.913   7.582   0.810 -0.2199  0.3015  0.0232
    1W        W41875  14.596  20.604   1.229  0.0658 -0.0043  0.0501
    1W        W41876  22.129  22.238   7.076  0.1072  0.2101 -0.2747
    1W        W41877  25.781   5.182   0.822 -0.1453  0.1055 -0.0033
    1W        W41878   9.711  19.060   9.348  0.3753  0.0815 -0.1218
    1W        W41879   1.633  24.352   7.205 -0.1009 -0.1380 -0.1022
    1W        W41880  17.419  21.095   1.733 -0.1222 -0.1508  0.2436
    1W        W41881  21.817  23.973   2.529  0.0332  0.2568 -0.0662
    1W        W41882   8.726  11.978   1.190  0.1748 -0.1083  0.4529
    1W        W41883   1.112  19.953   0.301  0.4373  0.1116  0.0400
    1W        W41884  15.030  16.068   8.001  0.2808  0.0256  0.2625
    1W        W41885   4.095   0.222   6.219  0.1722 -0.3137 -0.0347
    1W        W41886   3.064   2.091   6.877 -0.1975  0.1219  0.0032
    1W        W41887   9.057   4.822   2.819 -0.2199  0.0738 -0.0219
    1W        W41888   0.760  29.357   7.459  0.3755  0.1762 -0.2204
    1W        W41889  28.875   8.487   9.143 -0.1043  0.0853  0.0080
    1W        W41890  10.417  11.221   2.836  0.2210  0.0072  0.2349
    1W        W41891  23.134   8.167   3.060 -0.2857 -0.0017 -0.2694
    1W        W41892  20.956  26.880   1.453  0.4619 -0.2152 -0.1125
    1W        W41893   3.315   4.221   0.083  0.0156  0.2799 -0.1134
    1W        W41894   5.596  10.536   9.031  0.4045 -0.1126 -0.1504
    1W        W41895  28.832  28.772   8.970 -0.5340 -0.0044  0.1065
    1W        W41896  12.123  19.216   1.732  0.4220 -0.0866  0.5056
    1W        W41897  15.350   1.635   0.884 -0.0597  0.0814 -0.0551
    1W        W41898  20.517  15.001   8.751  0.1495 -0.1299 -0.3878
    1W        W41899  19.659  26.196   2.011  0.2582 -0.0524 -0.1849
    1W        W41900  29.115  24.414   0.085  0.1299  0.0964 -0.1769
    1W        W41901   5.392  14.845   2.312 -0.1247  0.2720 -0.0195
    1W        W41902  21.056   9.870   7.704 -0.0611 -0.5006  0.0528
    1W        W41903  11.778  24.214   6.566 -0.1451 -0.1217 -0.3121
    1W        W41904   3.495  28.316   2.162  0.2002  0.0421  0.2732
    1W        W41905  28.409  27.570   9.546  0.3266 -0.2620  0.1716
    1W        W41906  12.406  24.402   1.744  0.1924  0.1651 -0.0691
    1W        W41907  24.100  14.818   9.370  0.2954  0.2375  0.0589
    1W        W41908   1.823  22.125   7.703  0.1057  0.1048  0.1580
    1W        W41909  11.840  20.817   0.858 -0.2596 -0.0385 -0.0087
    1W        W41910  23.059  17.403   9.346  0.0271 -0.0925 -0.0284
    1W        W41911   3.464  24.259   9.526  0.0551  0.3378  0.1171
    1W        W41912  24.476   5.998   2.227  0.3524  0.1474 -0.0683
    1W        W41913   1.781  29.081   1.850 -0.2262 -0.2103  0.0390
    1W        W41914  28.376  22.887   6.212  0.1126  0.0017  0.1557
    1W        W41915   1.160  27.869   0.200  0.2476  0.2160 -0.3081
    1W        W41916  24.191   7.365   0.589  0.2788  0.0482  0.0844
    1W        W41917  13.263  23.358   6.968  0.2434  0.0730  0.2288
    1W        W41918   1.893  20.313   7.569 -0.0632 -0.3908  0.0240
    1W        W41919  26.580   4.955   0.885  0.2962 -0.1342 -0.2373
    1W        W41920  17.692   0.176   0.732 -0.1614  0.0009  0.1864
    1W        W41921  26.320   0.624   7.298  0.2450 -0.2652  0.2077
    1W        W41922  10.265  28.116   1.395  0.0872  0.1861  0.0943
    1W        W41923   0.347  27.698   9.299  0.2707 -0.0609  0.0972
    1W        W41924  23.539   8.070   9.319  0.0914  0.2126  0.1290
    1W        W41925   2.572  10.730   1.200  0.1174 -0.1444  0.0135
    1W        W41926  25.978   0.802   7.703  0.0993 -0.1569 -0.0802
    1W        W41927  10.819  10.706   8.302 -0.0033 -0.5223  0.0072
    1W        W41928  24.033  21.173   7.005 -0.2321 -0.1051  0.2098
    1W        W41929  24.540  11.772   5.066  0.1936  0.0152  0.0063
    1W        W41930  19.250  18.003   2.332  0.1682  0.1803 -0.1892
    1W        W41931   4.393  23.523   9.339  0.2449 -0.3025 -0.0792
    1W        W41932  14.273  12.097   8.624 -0.3276  0.0217  0.2795
    1W        W41933  21.309  28.024   2.728  0.3309  0.1211  0.3157
    1W        W41934   6.844  25.469   8.439 -0.0240  0.2131 -0.2226
    1W        W41935  11.532   4.553   1.859  0.1232  0.0816  0.4125
    1W        W41936  18.192  19.799   7.975  0.3026 -0.1436 -0.0174
    1W        W41937   4.494   5.486   1.318 -0.0959 -0.2146  0.1895
    1W        W41938  14.013  24.559   3.306 -0.3691  0.1407 -0.0325
    1W        W41939  26.022  14.038   0.783  0.1669 -0.0383  0.2494
    1W        W41940  21.499  11.539   1.599  0.1808 -0.2346 -0.1225
    1W        W41941  22.675   6.645   9.542  0.0914  0.0522 -0.0206
    1W        W41942  18.473  26.287   8.715 -0.0215 -0.0888 -0.1138
    1W        W41943  19.927  27.806   8.833  0.1059  0.3248 -0.3221
    1W        W41944   9.897  26.824   7.305 -0.1803 -0.0944 -0.3282
    1W        W41945   5.167  10.978   7.120  0.0635  0.1333  0.0412
    1W        W41946   1.460  16.182   7.448 -0.1372  0.0619  0.0887
    1W        W41947   2.751  20.383   7.243  0.1436  0.0344 -0.0255
    1W        W41948   7.365   2.003   0.828  0.1794 -0.0929 -0.1408
    1W        W41949   3.653  14.237   7.448  0.1880  0.0789  0.2456
    1W        W41950  10.715  11.325   7.496 -0.2391 -0.0515 -0.3318
    1W        W41951  10.938  29.304   1.419 -0.2380  0.0499  0.2146
    1W        W41952   1.254  27.812   3.126 -0.0202  0.1259  0.1739
    1W        W41953   2.251   6.411   7.315  0.2140  0.2444 -0.1328
    1W        W41954  18.488  28.307   3.687 -0.2201  0.2668 -0.0544
    1W        W41955  14.873  22.951   7.637 -0.1231 -0.0803  0.1374
    1W        W41956  15.053  15.642   7.774 -0.0035  0.3664  0.3242
    1W        W41957   9.388  13.042   7.419 -0.0852  0.1211  0.1551
    1W        W41958  20.620  24.327   0.734 -0.1448 -0.1268 -0.0529
    1W        W41959  24.288  25.476   0.353  0.1411  0.0184  0.0385
    1W        W41960   6.689  18.809   8.688  0.0548  0.3061 -0.0582
    1W        W41961  26.541  28.507   8.848 -0.0423 -0.1368 -0.1715
    1W        W41962  18.392  28.472   0.704 -0.0293  0.2546  0.0394
    1W        W41963   2.234   0.930   8.249 -0.1536 -0.0457 -0.1181
    1W        W41964   0.710  21.834   2.510 -0.0576  0.0298 -0.1085
    1W        W41965   9.829   4.913   4.128  0.0501  0.1871 -0.0309
    1W        W41966  29.333  10.014   1.862 -0.0294 -0.2480 -0.1107
    1W        W41967   3.239   2.571   9.385  0.0813  0.0159  0.2120
    1W        W41968  11.568   5.474   3.120 -0.1919  0.0915  0.1650
    1W        W41969  21.235  24.262   7.003  0.0845 -0.0334 -0.3527
    1W        W41970   4.801  17.956   8.853 -0.0818 -0.1515  0.1596
    1W        W41971  28.520  11.503   9.372  0.1540 -0.0776 -0.2760
    1W        W41972  12.484   0.022   7.436  0.3072  0.1645  0.2928
    1W        W41973   8.596   8.544   1.668 -0.2026 -0.0354  0.1458
    1W        W41974   7.686   5.685   0.960 -0.3418 -0.0906  0.1366
    1W        W41975   4.718   7.346   7.830  0.0974 -0.3424 -0.1544
    1W        W41976   8.587   3.595   2.680  0.1804  0.2863 -0.0748
    1W        W41977  20.941  19.092   9.219 -0.1904  0.0781 -0.4028
    1W        W41978  28.593  25.898   0.209  0.4238 -0.1362  0.1028
    1W        W41979  21.518   4.826   2.913 -0.1298 -0.0775 -0.2168
    1W        W41980  24.962   5.686   3.610  0.0533  0.0003  0.0156
    1W        W41981  17.634   4.935   2.401 -0.0058  0.0560  0.2151
    1W        W41982  12.206   9.568   8.073  0.0203 -0.0470 -0.1006
    1W        W41983  14.992  17.368   3.036  0.2542  0.2824 -0.1042
    1W        W41984   0.474   2.481   6.891  0.1474 -0.0750 -0.3932
    1W        W41985   6.029   5.366   9.442  0.1644 -0.1658  0.1235
    1W        W41986  20.653  11.251   6.674 -0.2762  0.2935  0.1756
    1W        W41987  15.194  28.033   0.267  0.0900 -0.2026  0.0720
    1W        W41988  27.003   2.040   1.738  0.2375  0.2246  0.2844
    1W        W41989  22.398  17.179   0.956 -0.0420  0.3825  0.1027
    1W        W41990  10.253   2.616   0.289  0.1095  0.0605  0.0764
    1W        W41991  23.194  13.411   6.006  0.0824  0.0565  0.0819
    1W        W41992  29.777   7.628   0.227  0.0536 -0.1824  0.1290
    1W        W41993  22.784   7.193   3.028 -0.1752  0.0579  0.1504
    1W        W41994   5.803  27.755   2.217 -0.2142  0.1614 -0.0072
    1W        W41995  27.787   7.917   9.365  0.0003 -0.1473  0.0033
    1W        W41996  27.381  15.803   8.142  0.2502  0.1424  0.0323
    1W        W41997  21.458   4.043   8.057  0.3347  0.0133 -0.2156
    1W        W41998  20.854  11.824   6.527  0.0414  0.0985  0.1081
    1W        W41999  14.937  16.642   6.259  0.0144  0.2385  0.0512
    1W        W42000  22.627  20.431   1.939  0.0299 -0.0088 -0.3204
    1W        W42001  17.972  17.555   0.844  0.3954  0.2579 -0.1627
    1W        W42002  22.331  25.685   2.496 -0.0423  0.0488  0.2433
    1W        W42003  26.843  26.727   1.231 -0.2649  0.0193 -0.0850
    1W        W42004   4.751  10.097   8.942 -0.3152  0.2265  0.0325
    1W        W42005  27.415   9.583   7.772  0.0631 -0.2310  0.0638
    1W        W42006  10.347  18.853   0.345 -0.0712  0.0382  0.1542
    1W        W42007  18.480  21.852   1.596 -0.2852  0.0542  0.2295
    1W        W42008  17.346   0.333   8.645  0.0297 -0.2293  0.0898
    1W        W42009  18.766   6.405   2.944  0.3599 -0.0671  0.0577
    1W        W42010  15.955  18.910   2.835 -0.1805 -0.0466 -0.0194
    1W        W42011   3.626  25.241   7.441  0.0796 -0.1018  0.0372
    1W        W42012  17.858  28.819   6.348 -0.2496 -0.1986 -0.3985
    1W        W42013   5.987  21.280   1.858 -0.2555  0.0576  0.3559
    1W        W42014  27.545   7.214   6.192  0.1830 -0.3872  0.1449
    1W        W42015  17.145  27.777   8.116 -0.0253  0.2947 -0.1154
    1W        W42016  17.530   1.927   7.544 -0.3604  0.2461 -0.3385
    1W        W42017  25.276  22.910   6.314  0.1463 -0.0927 -0.0644
    1W        W42018  28.613  20.838   6.866 -0.2241  0.0265 -0.2363
    1W        W42019   7.400  29.539   8.524 -0.0037  0.1807 -0.2141
    1W        W42020  10.695   5.754   1.707  0.0070  0.1074  0.1957
    1W        W42021  23.472  18.948   8.165 -0.2803  0.2766 -0.1491
    1W        W42022  12.223   4.479   0.093  0.1850 -0.1814 -0.1232
    1W        W42023   0.344  23.444   8.581  0.1022  0.2971  0.1177
    1W        W42024   1.534  27.060   0.368 -0.1499 -0.1813 -0.1531
    1W        W42025   5.541  13.331   8.651 -0.2159  0.1883  0.1635
    1W        W42026   7.013  13.237   1.938  0.1335  0.2093  0.1574
    1W        W42027  10.939   6.620   1.064 -0.2078  0.1930 -0.1275
    1W        W42028  24.095  12.470   8.776  0.1854 -0.1901  0.0476
    1W        W42029  16.180  26.297   8.737  0.1718  0.0590 -0.1307
    1W        W42030   4.756  17.027   0.763 -0.0335  0.1799  0.1312
    1W        W42031  29.328  28.194   1.856 -0.0547 -0.1605 -0.0218
    1W        W42032  10.402   5.501   2.134 -0.0249  0.0730  0.1518
    1W        W42033  24.113  15.621   4.687 -0.0361 -0.1474  0.1018
    1W        W42034   4.276  20.590   2.049 -0.0205 -0.1300 -0.1536
    1W        W42035   5.653  28.566   6.286  0.0058 -0.0752 -0.1594
    1W        W42036   0.841  22.072   9.346 -0.2099 -0.0241 -0.0672
    1W        W42037  20.258   6.099   8.451  0.2102 -0.1214  0.0432
    1W        W42038  18.639  23.754   9.353  0.1391  0.2650  0.2876
    1W        W42039  29.042   0.382   9.066 -0.2959 -0.0857 -0.0681
    1W        W42040   1.797  27.527   9.378  0.1783 -0.1003 -0.1045
    1W        W42041  24.752   8.111   7.522  0.0506  0.1544  0.1479
    1W        W42042  16.554   4.340   0.390 -0.0743 -0.0841  0.0050
    1W        W42043   2.613   8.287   6.098  0.1752  0.1041  0.2138
    1W        W42044  28.441   6.880   1.519  0.0840  0.0624 -0.0957
    1W        W42045  17.090   5.503   1.059  0.1067 -0.1148 -0.0529
    1W        W42046  22.797  13.250   9.284 -0.0821  0.0112  0.1467
    1W        W42047   2.119  29.427   6.573  0.1430 -0.1235 -0.0017
    1W        W42048   6.964  18.549   8.364  0.3914  0.4422  0.0625
    1W        W42049  21.425  23.690   2.659 -0.1245 -0.0766  0.0592
    1W        W42050  13.576  28.889   7.298  0.3300 -0.1676 -0.0968
    1W        W42051  15.616   5.342   0.794 -0.2608  0.5580  0.2478
    1W        W42052  13.748  29.752   0.579  0.1318 -0.0215 -0.1094
    1W        W42053  19.062   5.214   0.246 -0.1844  0.0894 -0.2579
    1W        W42054  19.682   9.193   7.784  0.2325 -0.1184 -0.1663
    1W        W42055  21.311  12.307   0.434  0.0254  0.0408  0.0495
    1W        W42056  27.218   7.885   2.382  0.2526  0.1831 -0.3777
    1W        W42057  23.551   4.645   8.199 -0.0673  0.2970 -0.0198
    1W        W42058  27.550   8.817   6.060  0.1452  0.1632  0.1595
    1W        W42059  19.850  21.928   6.815  0.0228 -0.2070  0.2699
    1W        W42060  17.465   1.403   2.084 -0.1026  0.1218 -0.0803
    1W        W42061   7.238  18.220   8.135  0.0974 -0.2605  0.0104
    1W        W42062  20.195  14.272   0.041 -0.0565  0.0029  0.2326
    1W        W42063  14.317  27.308   8.284 -0.0246  0.0604  0.2041
    1W        W42064  24.444  20.796   7.551  0.1251 -0.0383 -0.0819
    1W        W42065  14.514  28.600   6.610 -0.1163  0.3009  0.0328
    1W        W42066  28.843  12.408   7.914  0.0914 -0.0354  0.0259
    1W        W42067  21.727  28.591   0.137 -0.3146 -0.1263 -0.2161
    1W        W42068  21.321   2.632   8.044  0.3976 -0.4226  0.2519
    1W        W42069  16.355  17.338   0.667  0.1388  0.0738  0.2162
    1W        W42070   0.474   0.277   7.810 -0.0539 -0.0358  0.0993
    1W        W42071  29.421   1.396   9.425 -0.1480 -0.0642 -0.0459
    1W        W42072  14.830   9.558   6.299 -0.0963  0.1810 -0.1872
    1W        W42073  17.305   8.231   8.555  0.5347  0.1639 -0.2050
    1W        W42074  25.545  15.298   1.427  0.1854 -0.3212 -0.0181
    1W        W42075  11.925  26.470   3.067 -0.0708 -0.0032  0.0846
    1W        W42076  14.773  23.229   8.054  0.0606  0.0722 -0.0493
    1W        W42077   7.938  27.342   2.056  0.2189 -0.1725  0.0114
    1W        W42078  22.660  14.406   6.612  0.0808  0.5098 -0.0917
    1W        W42079  12.671   6.666   3.377  0.1533 -0.0373 -0.0477
    1W        W42080  17.255  12.261   6.759 -0.2551 -0.1199  0.0565
    1W        W42081   9.618   7.029   9.257  0.1577  0.0324  0.2419
    1W        W42082  18.606   9.999   6.194 -0.0411 -0.1737  0.1414
    1W        W42083   0.649   1.023   0.936 -0.1422  0.3357 -0.1051
    1W        W42084  18.323  10.777   0.552 -0.0408 -0.1603 -0.2376
    1W        W42085  22.111   0.851   2.277 -0.1107  0.2101 -0.2688
    1W        W42086  14.387  18.708   7.889 -0.2325  0.0820  0.1687
    1W        W42087   4.373   3.775   1.298  0.0753  0.0861 -0.1758
    1W        W42088  25.562  19.207   6.985  0.0699 -0.3772  0.2162
    1W        W42089  12.553  10.457   1.353 -0.1579  0.0881  0.1449
    1W        W42090  17.932  19.551   7.511 -0.1307  0.1118 -0.4518
    1W        W42091   7.996   7.056   1.568  0.0259  0.0579  0.0095
    1W        W42092   4.579  19.584   9.521  0.1103 -0.0884 -0.0729
    1W        W42093  18.171  18.542   0.099 -0.0924 -0.0530 -0.2547
    1W        W42094  27.592  12.698   1.278  0.0402  0.0184 -0.2436
    1W        W42095  14.210  26.250   7.181 -0.0918  0.4485 -0.0649
    1W        W42096   9.449  12.503   3.038  0.0266  0.3421  0.0351
    1W        W42097  12.453   8.640   7.585 -0.0051 -0.0902 -0.3930
    1W        W42098  17.233   2.238   7.839  0.1607 -0.0259 -0.0191
    1W        W42099  11.895  17.211   1.499  0.0198 -0.0787 -0.1041
    1W        W42100  11.730  28.126   7.233 -0.0622  0.0184 -0.1231
    1W        W42101  27.340  14.231   9.075  0.0551  0.5192  0.0336
    1W        W42102  14.143  14.440   8.886  0.3742 -0.1011 -0.2607
    1W        W42103  19.640   3.290   7.828 -0.0750 -0.0741 -0.3055
    1W        W42104   9.602  11.207   2.266  0.0400 -0.0706 -0.0822
    1W        W42105   6.173  11.859   1.204  0.1908  0.0097  0.2509
    1W        W42106  22.830   5.343   1.607  0.0345  0.1063 -0.1902
    1W        W42107  13.441  27.623   0.623 -0.3556 -0.0389 -0.3053
    1W        W42108  17.528  17.947   9.478  0.0163  0.0599 -0.0082
    1W        W42109  21.363   6.197   0.560  0.1517 -0.0095 -0.0864
    1W        W42110  28.330   4.226   0.309 -0.2312 -0.5322 -0.6127
    1W        W42111  14.953  20.238   0.054 -0.0551  0.0343  0.0896
    1W        W42112  25.180  15.202   8.886 -0.2387  0.0029  0.0777
    1W        W42113   1.486  20.544   0.829 -0.0897  0.1202 -0.1060
    1W        W42114  24.666  17.589   0.124  0.2557 -0.2154  0.2612
    1W        W42115  28.690   8.520   0.978  0.0754  0.1906  0.3282
    1W        W42116  10.318  22.529   8.022  0.1514 -0.0213  0.0223
    1W        W42117  19.953   5.865   2.337 -0.3391 -0.2560  0.1407
    1W        W42118  20.983   0.853   0.870  0.0019 -0.1335 -0.0618
    1W        W42119  26.906  14.105   0.859 -0.3476  0.0818 -0.0363
    1W        W42120  28.096   6.136   0.386  0.0209  0.0560 -0.0612
    1W        W42121  11.731  17.987   7.066  0.0988 -0.0986  0.2102
    1W        W42122  23.088  27.139   6.994 -0.0512 -0.1148 -0.3299
    1W        W42123   5.412  17.549   8.001 -0.0961  0.0842 -0.1258
    1W        W42124   1.567  14.628   1.857  0.0385 -0.0001 -0.0979
    1W        W42125   7.579   9.272   1.855 -0.0545 -0.1415 -0.3389
    1W        W42126   5.996   9.290   6.646 -0.1269  0.1953 -0.4453
    1W        W42127  22.559   7.177   9.401 -0.1793  0.0034  0.0571
    1W        W42128  22.065   5.963   1.994  0.1117  0.0778 -0.2933
    1W        W42129  15.795  13.652   6.033  0.1076  0.1049 -0.2092
    1W        W42130  26.945  17.915   7.280 -0.0343 -0.1748 -0.2911
    1W        W42131  12.369  24.311   1.290 -0.2713 -0.1269  0.2809
    1W        W42132   2.282  24.405   2.692  0.1891  0.1677  0.0179
    1W        W42133  23.186   6.145   2.134  0.0198 -0.0398 -0.2070
    1W        W42134  15.441   4.202   1.765 -0.0477 -0.0295  0.1811
    1W        W42135  29.782  16.701   9.333  0.0079 -0.1672 -0.0554
    1W        W42136  16.641   8.213   8.571  0.2159 -0.0781  0.3242
    1W        W42137  26.640   4.888   9.159  0.2151 -0.1741  0.0616
    1W        W42138   8.612   7.704   0.841  0.0619 -0.0161  0.0657
    1W        W42139   1.512  25.089   9.241  0.0955  0.1704  0.2492
    1W        W42140   8.719  23.814   9.501  0.3300 -0.2716  0.1698
    1W        W42141  16.988  26.876   0.300 -0.3244  0.0070  0.0243
    1W        W42142  26.437   2.031   7.489  0.1577 -0.3400 -0.0586
    1W        W42143  16.018  10.630   7.525  0.0424 -0.0388  0.3083
    1W        W42144   1.782   7.177   0.067  0.0651 -0.1256  0.0392
    1W        W42145   3.159  28.013   0.584  0.0189  0.0765 -0.0669
    1W        W42146  19.744   1.996   8.894 -0.1037  0.1020  0.2607
    1W        W42147  22.681   7.590   9.089 -0.1908  0.3451 -0.0253
    1W        W42148  26.101   9.321   8.787 -0.0578 -0.2911 -0.2317
    1W        W42149  20.469  12.161   7.867  0.2182  0.2442 -0.0085
    1W        W42150  12.973   3.433   0.258 -0.0699  0.2187 -0.0340
    1W        W42151  10.012   3.316   3.955 -0.0518  0.0625  0.0282
    1W        W42152   5.213   2.673   0.839 -0.4297  0.0348 -0.0097
    1W        W42153  10.735  23.539   8.813  0.1075 -0.0304  0.2335
    1W        W42154  22.446   9.519   8.515  0.4518  0.1934  0.1297
    1W        W42155  15.766   5.777   1.839  0.1774  0.0634 -0.1529
    1W        W42156  18.645  15.037   0.567  0.0882  0.4353  0.0226
    1W        W42157  29.391   0.267   8.632  0.0575  0.0768  0.2370
    1W        W42158  15.432  27.150   3.523  0.2338  0.2111  0.1254
    1W        W42159  16.149  15.141   8.378  0.3068  0.2818  0.0634
    1W        W42160  26.379  23.796   0.422 -0.1493  0.1811  0.1781
    1W        W42161  10.419   9.012   6.694  0.0820 -0.0321 -0.0441
    1W        W42162  19.499  24.491   2.137 -0.0869 -0.1927 -0.0438
    1W        W42163  16.283  14.192   0.181  0.2800 -0.0318  0.0512
    1W        W42164  24.131  27.718   8.102 -0.0299  0.0199 -0.1058
    1W        W42165  19.424  29.312   3.265 -0.0321  0.0652 -0.1782
    1W        W42166  28.986   3.949   7.054 -0.1227  0.0821  0.3095
    1W        W42167  25.902  14.511   9.458 -0.1586 -0.0113  0.0555
    1W        W42168   1.605  11.205   0.258 -0.0189 -0.1918 -0.1458
    1W        W42169  16.279  20.394   2.422  0.0432 -0.1794  0.1559
    1W        W42170  17.891   8.953   8.157  0.2199  0.0413  0.2496
    1W        W42171   6.438  10.153   8.744 -0.1700 -0.2510 -0.3011
    1W        W42172  13.364   5.028   7.870  0.3858  0.1972 -0.0078
    1W        W42173  27.255  11.716   6.476 -0.2054 -0.3317 -0.2499
    1W        W42174  22.796  11.218   9.159  0.1263  0.2614 -0.2235
    1W        W42175   7.470   3.976   3.448 -0.3010  0.3071  0.0706
    1W        W42176  26.022  24.338   0.809  0.6245  0.1645  0.1143
    1W        W42177  25.141  29.306   2.084  0.0662  0.0703 -0.2543
    1W        W42178  12.680  10.988   1.083 -0.0065  0.0570 -0.1758
    1W        W42179   3.514  18.558   8.896  0.0704 -0.1771 -0.0830
    1W        W42180   6.783  22.591   3.362 -0.0286 -0.0480 -0.4291
    1W        W42181   5.421  24.220   7.376 -0.1059 -0.1794  0.1775
    1W        W42182  27.814  19.221   0.936 -0.0756  0.1000  0.2434
    1W        W42183  27.250  20.992   0.124  0.1791  0.0518  0.1807
    1W        W42184  23.993  21.736   7.034 -0.0384  0.0667 -0.1596
    1W        W42185   7.423  15.558   9.198 -0.0220  0.1256 -0.1461
    1W        W42186  24.980   0.827   9.217 -0.5064  0.1705 -0.1408
    1W        W42187   0.639  20.360   8.735 -0.1339  0.1312  0.0783
    1W        W42188  26.922   2.026   2.200 -0.2117 -0.2080 -0.0824
    1W        W42189   7.658   9.108   7.337  0.0441 -0.1053 -0.0558
    1W        W42190  21.197  20.247   8.384  0.0142  0.1848 -0.0884
    1W        W42191  28.170   6.137   9.388 -0.1508  0.0372 -0.4016
    1W        W42192  15.622   9.270   1.424  0.1648 -0.1206 -0.0596
    1W        W42193   7.608  19.759   7.808  0.3302  0.0075 -0.0129
    1W        W42194  21.828  10.445   0.486  0.1074  0.0641  0.2201
    1W        W42195  24.384  12.730   6.715 -0.0660  0.1561  0.2017
    1W        W42196  16.797  14.628   9.217 -0.2480 -0.1268  0.0607
    1W        W42197   1.627  20.307   6.449  0.2214  0.1213 -0.2322
    1W        W42198  19.014  13.631   6.259 -0.2425 -0.0611 -0.0257
    1W        W42199   6.651   4.913   9.111 -0.1201 -0.1390  0.0790
    1W        W42200  24.592   9.843   7.365  0.0110 -0.2287 -0.1377
    1W        W42201  28.107  19.462   7.425  0.0774  0.2790  0.0315
    1W        W42202   9.023   1.391   1.013  0.0199  0.0172 -0.1313
    1W        W42203  18.877  11.425   0.959 -0.2773  0.1907  0.0537
    1W        W42204   9.348  13.489   1.069  0.0335  0.2953 -0.1700
    1W        W42205   2.791  26.476   0.124 -0.2230  0.0970  0.1797
    1W        W42206  29.422   5.989   8.117 -0.2579 -0.2162  0.1950
    1W        W42207  19.455  11.536   9.304  0.0229 -0.1273  0.2965
    1W        W42208   9.840  25.417   1.979  0.2374 -0.0788 -0.1246
    1W        W42209  21.467  18.547   5.236  0.0220 -0.1658 -0.0419
    1W        W42210   9.181  20.257   6.363 -0.0458 -0.1071 -0.5684
    1W        W42211  16.713  21.654   2.063 -0.0012 -0.1763  0.0959
    1W        W42212   6.857   1.532   2.883 -0.2924  0.2787  0.1584
    1W        W42213  12.156  11.360   7.189  0.0509  0.0300 -0.3048
    1W        W42214   6.351  27.182   0.248 -0.1336 -0.0639 -0.2171
    1W        W42215  29.490  14.790   9.385  0.1749 -0.2446 -0.0636
    1W        W42216   2.063   7.374   7.067  0.0661  0.2036  0.1997
    1W        W42217   7.925   9.501   2.259 -0.0774  0.4439  0.2639
    1W        W42218  27.725  27.276   0.680  0.3240 -0.1332  0.1208
    1W        W42219  20.909  27.980   0.003  0.3196 -0.0121 -0.0299
    1W        W42220   8.961  16.331   6.877 -0.3339  0.1092 -0.2606
    1W        W42221  24.608  19.548   7.329 -0.0429 -0.1716  0.1163
    1W        W42222  11.159  13.047   0.075  0.2103 -0.1915 -0.1830
    1W        W42223  24.222   8.322   2.330 -0.0969 -0.2490 -0.3010
    1W        W42224  29.372  24.852   1.953  0.0837  0.0492  0.0067
    1W        W42225   8.165  24.588   9.016 -0.2939 -0.3847  0.0554
    1W        W42226   8.458  25.578   7.486  0.3323 -0.4615 -0.4616
    1W        W42227  15.319   4.442   1.288  0.0451 -0.0612  0.1183
    1W        W42228  11.383  17.574   2.171 -0.0910  0.0220  0.2715
    1W        W42229  21.900   9.089   0.170 -0.0022  0.5077 -0.3819
    1W        W42230  23.126  10.406   0.629 -0.2405  0.0130  0.2523
    1W        W42231  17.467  27.561   2.150  0.0242 -0.0359 -0.2185
    1W        W42232   3.468  19.328   7.495 -0.1071 -0.2090  0.0156
    1W        W42233  18.432   5.821   0.246  0.2869  0.0838  0.1603
    1W        W42234   2.512   7.120   0.907 -0.0895  0.0197 -0.1166
    1W        W42235  14.140   9.827   8.182  0.0059  0.0688 -0.2618
    1W        W42236  28.567  15.507   1.566 -0.0649  0.0623  0.3001
    1W        W42237  21.430   7.685   6.655 -0.1144  0.1051 -0.1709
    1W        W42238   0.649  26.105   6.848 -0.1490 -0.4519 -0.2095
    1W        W42239   1.363   7.801   8.872  0.0702 -0.1842  0.2649
    1W        W42240  21.119  24.482   7.994 -0.3729  0.0759 -0.1189
    1W        W42241  28.079  11.423   1.065  0.1059 -0.2244 -0.1181
    1W        W42242  22.022   5.479   0.990  0.0130  0.0500  0.0240
    1W        W42243  23.510  14.697   8.987  0.0392 -0.1240 -0.6333
    1W        W42244  23.737  27.323   1.094  0.0416 -0.2927  0.2490
    1W        W42245   1.280  13.046   7.218  0.2307 -0.0395  0.0028
    1W        W42246   5.755  21.596   2.292 -0.1105 -0.2192 -0.0724
    1W        W42247  17.472   1.067   7.634 -0.3874  0.1704  0.0513
    1W        W42248  28.455  21.693   0.716 -0.1597 -0.0844  0.2235
    1W        W42249  27.758  18.998   7.817 -0.1335  0.0357 -0.0939
    1W        W42250  11.688  27.810   8.206 -0.1758  0.0214  0.0568
    1W        W42251  24.998  18.097   6.522  0.4018  0.0959  0.0567
    1W        W42252  13.472  18.222   2.520 -0.0075  0.1317 -0.1969
    1W        W42253   3.545  24.991   0.850  0.2583  0.1142 -0.5184
    1W        W42254  24.353   7.651   6.901 -0.0255  0.0018 -0.0017
    1W        W42255  19.410  24.866   8.845 -0.2049 -0.3238  0.0755
    1W        W42256  14.171  17.668   8.923 -0.1694  0.0218 -0.0521
    1W        W42257   7.162  22.102   9.335 -0.0735  0.2118 -0.4237
    1W        W42258  24.493  15.177   5.638  0.1464 -0.3172  0.0881
    1W        W42259   2.349  13.492   0.773 -0.3017 -0.3755 -0.3431
    1W        W42260   3.900  24.615   0.093 -0.3710 -0.0478  0.1507
    1W        W42261  21.424  25.518   6.447  0.0584 -0.0690  0.0792
    1W        W42262  18.226  25.176   8.116 -0.0262  0.2907  0.1311
    1W        W42263  10.502   3.145   4.062 -0.1894 -0.1366 -0.1421
    1W        W42264   5.749   1.153   8.846  0.1117 -0.3269 -0.0379
    1W        W42265  27.710   8.015   6.110 -0.1675  0.0540 -0.1753
    1W        W42266  12.359  23.419   2.260  0.1578  0.0865  0.0738
    1W        W42267  12.546  28.267   0.865 -0.1074 -0.0962  0.0759
    1W        W42268   4.066  20.511   1.183 -0.2239 -0.0149 -0.0173
    1W        W42269  17.869  14.278   1.811  0.1959  0.1568  0.1392
    1W        W42270   3.723  27.577   2.723  0.2515  0.2333  0.2350
    1W        W42271  24.420  17.611   0.743 -0.3151 -0.1128  0.1256
    1W        W42272  17.854  26.942   1.140  0.2192  0.4757  0.0829
    1W        W42273  21.787  19.623   2.376 -0.0805  0.0704  0.1204
    1W        W42274  19.945  17.504   6.603 -0.2036 -0.2544  0.0766
    1W        W42275   0.818  19.633   0.720 -0.0056  0.0343  0.2382
    1W        W42276   7.901   2.359   8.894 -0.2998  0.2605 -0.2471
    1W        W42277   8.081   4.273   1.413 -0.2299 -0.2119  0.2743
    1W        W42278  17.215   7.498   1.983 -0.0606 -0.0248 -0.1036
    1W        W42279   7.560  27.729   1.979 -0.1236  0.1727 -0.1716
    1W        W42280  24.657  19.469   7.880 -0.0458 -0.0492  0.2717
    1W        W42281  10.367   7.385   8.844  0.1319 -0.0060 -0.2379
    1W        W42282   8.577   0.740   8.527  0.1260 -0.0322 -0.1407
    1W        W42283  24.691  18.946   5.637  0.1692  0.1156 -0.0799
    1W        W42284  27.779  17.380   9.304 -0.0262  0.0837  0.1272
    1W        W42285  13.494   8.083   7.735  0.4704 -0.0735 -0.0980
    1W        W42286  12.759  14.317   7.882  0.0595  0.1340  0.1970
    1W        W42287  15.753  10.038   7.372 -0.0526  0.2097 -0.2358
    1W        W42288  28.578  13.615   7.737 -0.2148 -0.2559 -0.2733
    1W        W42289  23.153   6.659   9.324 -0.0322  0.1250 -0.0029
    1W        W42290  28.494  26.626   8.856 -0.1172  0.3135  0.0165
    1W        W42291   8.704  13.304   8.570  0.2829  0.0814  0.1183
    1W        W42292   5.538   4.323   3.045  0.4492 -0.0330  0.0018
    1W        W42293  10.039  16.280   2.090  0.0645  0.2176  0.0338
    1W        W42294  18.483  13.682   6.890  0.4333  0.2284  0.4378
    1W        W42295   7.777  29.446   3.470  0.1863  0.0239  0.1239
    1W        W42296   9.801  15.294   1.165  0.0370 -0.1560 -0.2064
    1W        W42297   6.681  10.161   9.202 -0.2403  0.0446 -0.1193
    1W        W42298  11.214  18.983   1.995 -0.0650  0.0964  0.3176
    1W        W42299  10.874  25.753   7.254  0.2780 -0.1085 -0.0677
    1W        W42300   4.155   3.297   0.086  0.0654  0.0864 -0.0618
    1W        W42301  24.380  14.883   6.094  0.0574  0.0612 -0.3316
    1W        W42302  25.853  22.990   7.490  0.0650  0.0461 -0.2442
    1W        W42303  12.891   6.366   1.328  0.1167  0.2820 -0.0362
    1W        W42304  27.272   3.690   7.418  0.1347  0.0290 -0.0173
    1W        W42305   4.290   4.693   2.715  0.0284  0.0897 -0.1566
    1W        W42306  10.150  29.801   7.662  0.0225 -0.0389 -0.1710
    1W        W42307  20.555   7.007   7.311 -0.0987  0.0067  0.0396
    1W        W42308  20.062  21.627   2.184 -0.1801 -0.3032 -0.0122
    1W        W42309  16.446  14.949   7.289 -0.0953  0.1289 -0.1976
    1W        W42310  26.179   6.723   2.427  0.0234  0.1670 -0.1290
    1W        W42311   1.178  15.436   9.041  0.1560  0.0576 -0.1510
    1W        W42312  14.763  15.861   2.428 -0.0610 -0.0132  0.0957
    1W        W42313  12.388  16.885   0.742 -0.0925  0.0874 -0.2488
    1W        W42314   5.443  16.739   9.257 -0.3198 -0.0129 -0.1097
    1W        W42315   9.108   1.987   7.766  0.0503 -0.2870 -0.1836
    1W        W42316   1.069  18.983   0.586  0.2216  0.1301 -0.0368
    1W        W42317   5.524  25.682   8.347 -0.0139  0.0407  0.0192
    1W        W42318  14.692  24.953   1.881  0.1752 -0.2952 -0.1481
    1W        W42319  13.327  27.429   0.164  0.0142  0.2255 -0.0200
    1W        W42320  22.200  13.281   7.670 -0.2010  0.0845  0.0289
    1W        W42321  10.956  25.395   1.487  0.2588 -0.2985 -0.0032
    1W        W42322  14.440  13.561   7.580  0.1657 -0.1870 -0.1576
    1W        W42323  12.202  13.266   8.875  0.0974 -0.1216  0.0807
    1W        W42324   3.585  11.247   2.033 -0.0586 -0.0449  0.1259
    1W        W42325   0.322   5.089   1.443  0.2832  0.0125 -0.0332
    1W        W42326  25.313  27.884   8.731 -0.0158 -0.0487  0.0141
    1W        W42327   4.837  10.546   7.356  0.1422 -0.0052  0.0346
    1W        W42328  16.447   2.309   6.853  0.1095  0.7746  0.2866
    1W        W42329  23.863  25.364   7.372 -0.1689 -0.3479  0.1123
    1W        W42330  21.045   3.223   0.797  0.0691  0.0283  0.0221
    1W        W42331  29.455  28.685   1.869 -0.1942 -0.0197 -0.3152
    1W        W42332  17.455  14.542   7.921 -0.3482  0.2325 -0.0302
    1W        W42333  26.950   0.609   2.295 -0.2053  0.1471 -0.0478
    1W        W42334   7.049  28.532   0.352  0.1597 -0.2588  0.0385
    1W        W42335  10.709   8.059   0.460 -0.0887 -0.3086 -0.1811
    1W        W42336  19.139  23.202   6.154  0.1206 -0.1765 -0.1291
    1W        W42337   9.792  15.058   8.094  0.2040 -0.1648  0.2653
    1W        W42338  29.476  25.024   0.970 -0.1531 -0.0956 -0.0093
    1W        W42339   0.558  21.188   9.261  0.2154  0.2095 -0.3183
    1W        W42340  22.639  19.144   9.080 -0.0516 -0.1577  0.2620
    1W        W42341  15.985   9.804   7.721  0.0704 -0.0767  0.0021
    1W        W42342  15.149  16.797   8.407  0.1280 -0.2130 -0.0360
    1W        W42343  12.850   5.206   8.482 -0.3576 -0.0968  0.1664
    1W        W42344  13.637  15.706   0.528 -0.0107 -0.0648  0.0793
    1W        W42345  24.162   3.333   1.013 -0.2646  0.1754 -0.0886
    1W        W42346  29.589  22.433   1.787  0.2509 -0.1538  0.2603
    1W        W42347  28.567  12.229   1.945  0.1818  0.3341 -0.3120
    1W        W42348  15.009   1.361   1.659 -0.2796 -0.2086  0.5369
    1W        W42349   5.458  27.559   7.315 -0.2722  0.0168  0.0386
    1W        W42350   7.670   1.267   7.359 -0.3018  0.3826 -0.2543
    1W        W42351  28.152   0.854   2.615  0.0221  0.1953  0.0664
    1W        W42352   6.603  23.522   9.244  0.0275 -0.2345 -0.2082
    1W        W42353  19.396  13.142   1.549 -0.0009  0.1564  0.0733
    1W        W42354   4.543  24.654   1.266 -0.3257  0.0446 -0.3073
    1W        W42355  25.474  26.009   6.906 -0.0823 -0.2716 -0.0973
    1W        W42356   9.816  10.739   7.341 -0.2573  0.0397  0.0720
    1W        W42357   6.783  25.916   9.203  0.0264 -0.0066 -0.1164
    1W        W42358   9.967  29.421   7.391 -0.1723  0.0602 -0.2145
    1W        W42359   4.393  22.633   0.323 -0.0416  0.0841  0.0096
    1W        W42360  12.350  10.825   0.559 -0.1356  0.1343 -0.1619
    1W        W42361  11.862  20.401   8.042 -0.1954  0.2182  0.1146
    1W        W42362   1.141  27.689   7.594 -0.1610  0.1215  0.2172
    1W        W42363  27.392   8.032   6.903 -0.1289  0.2578  0.1423
    1W        W42364   0.024   6.257   2.553 -0.0865 -0.4721 -0.0352
    1W        W42365  16.186  29.158   7.473  0.1317 -0.4479 -0.3506
    1W        W42366  22.524   2.460   3.032  0.2348 -0.2270 -0.0689
    1W        W42367  15.869   1.584   0.239  0.1162 -0.1420  0.0396
    1W        W42368  27.321  22.356   8.975  0.0293  0.3137 -0.1719
    1W        W42369   9.705  27.983   9.292  0.1084 -0.1486 -0.1237
    1W        W42370   5.847   0.231   7.632  0.1477 -0.1968 -0.1967
    1W        W42371  24.109   1.679   6.625 -0.1995  0.0506 -0.0831
    1W        W42372  19.056  11.250   0.047  0.0316  0.0093  0.3127
    1W        W42373   9.883  23.569   9.245  0.1213 -0.1539  0.1216
    1W        W42374   8.940   3.980   2.704  0.0184  0.1169 -0.0795
    1W        W42375   2.076  12.171   1.734  0.0293 -0.2294 -0.1136
    1W        W42376  23.532  25.362   2.178  0.1010  0.1914 -0.1163
    1W        W42377  10.790  11.284   8.384  0.0563 -0.0663 -0.3596
    1W        W42378  10.764  24.961   0.120  0.4964 -0.2290 -0.3874
    1W        W42379   5.692  23.877   7.594  0.2470 -0.0255  0.3598
    1W        W42380   5.280   0.399   8.363  0.2274  0.0620 -0.3499
    1W        W42381  24.439  28.971   3.217  0.1102 -0.1547  0.1008
    1W        W42382  15.966  22.701   0.701  0.0127  0.2434 -0.2304
    1W        W42383   0.941   4.133   3.098 -0.2546 -0.1028  0.0321
    1W        W42384  12.479   8.385   9.546 -0.1594  0.2298 -0.1090
    1W        W42385  10.309  21.514   8.385  0.1485  0.1628  0.0689
    1W        W42386  24.370  24.841   2.477  0.0148 -0.0019 -0.0860
    1W        W42387  26.647  15.193   6.136  0.0292  0.1837 -0.1281
    1W        W42388  27.468  10.311   1.535 -0.0516  0.0950  0.1199
    1W        W42389   6.825   0.904   0.960  0.0325 -0.1702  0.0445
    1W        W42390  20.574  27.035   3.532 -0.1910 -0.0520  0.4773
    1W        W42391  25.208  11.756   0.171 -0.0731 -0.1741 -0.1102
    1W        W42392   6.624  10.164   7.730  0.0208 -0.3555 -0.1374
    1W        W42393   7.233   7.625   7.175 -0.0968  0.0770 -0.0017
    1W        W42394  12.103  21.033   7.202  0.2319 -0.0692  0.0654
    1W        W42395   0.733   9.180   6.785 -0.1072 -0.2141  0.0024
    1W        W42396  24.172  20.615   0.302  0.0789 -0.1691  0.0108
    1W        W42397   7.408   5.228   2.698 -0.2931 -0.2127  0.2783
    1W        W42398   6.166  17.315   2.029 -0.0025  0.0887  0.0668
    1W        W42399  13.848   0.157   8.131  0.0269 -0.0108  0.1482
    1W        W42400  28.880   2.695   7.757  0.2752  0.4112  0.0793
    1W        W42401  24.646   3.628   8.073 -0.3115  0.2883 -0.1880
    1W        W42402  10.192  17.575   8.100  0.0537 -0.0046  0.1493
    1W        W42403  25.493  28.959   8.669 -0.0582  0.0967  0.1873
    1W        W42404  11.318   5.214   0.846 -0.1101 -0.0583  0.0486
    1W        W42405   5.796  12.250   8.404 -0.2813  0.0025 -0.0990
    1W        W42406  17.370  18.994   7.601  0.1911  0.2461  0.2053
    1W        W42407  18.033   2.651   7.518  0.0055 -0.0107 -0.2944
    1W        W42408  10.650   1.755   7.749  0.1871 -0.0148 -0.0047
    1W        W42409  23.475  23.858   1.647 -0.0535  0.1137 -0.1666
    1W        W42410  27.761  15.425   7.197  0.3172 -0.1246 -0.0549
    1W        W42411  24.153  20.624   2.514  0.1159 -0.0162 -0.1161
    1W        W42412  15.393  15.993   0.365  0.0979  0.0885 -0.2791
    1W        W42413  24.489  12.629   9.105 -0.1647 -0.1503  0.2955
    1W        W42414  13.796  20.819   9.485  0.1513 -0.0824  0.0843
    1W        W42415  19.058  27.797   8.005 -0.2285  0.0177 -0.1540
    1W        W42416   3.007  11.096   9.476  0.0454 -0.2480 -0.1017
    1W        W42417  13.436   6.266   0.477 -0.1180  0.1315 -0.1565
    1W        W42418  12.883   2.071   1.000  0.1282 -0.2128  0.2929
    1W        W42419  16.691  22.043   7.722 -0.0996 -0.1566 -0.2317
    1W        W42420  27.466  13.634   6.704  0.1459  0.1426 -0.1146
    1W        W42421  10.682  16.436   2.281  0.3180  0.0788 -0.2650
    1W        W42422  24.751  20.536   0.881  0.2815 -0.2541  0.0321
    1W        W42423   9.297  17.546   1.075  0.0209  0.2040 -0.1311
    1W        W42424  18.542  25.477   0.484 -0.2113 -0.1794  0.1456
    1W        W42425  20.491  15.292   2.105 -0.2069  0.0201  0.0291
    1W        W42426   1.955  14.122   7.268  0.0770  0.2132 -0.0913
    1W        W42427   9.674  19.561   0.058 -0.1008  0.1677  0.3676
    1W        W42428  16.645  12.977   7.476 -0.0729 -0.1442  0.0584
    1W        W42429   1.161   6.308   6.783 -0.3498 -0.0929  0.0950
    1W        W42430   0.659  14.595   0.881 -0.0594 -0.1273  0.0065
    1W        W42431  14.355  11.067   7.733 -0.4022  0.1789 -0.2036
    1W        W42432  14.016  20.082   9.177 -0.0005 -0.0641  0.1945
    1W        W42433   4.371  10.901   7.943  0.0673  0.0627 -0.0548
    1W        W42434  27.315   0.543   1.180 -0.0611 -0.2070 -0.2797
    1W        W42435   1.288  29.397   7.071  0.1701 -0.0960  0.0668
    1W        W42436  19.620   0.492   1.444 -0.2991  0.0435 -0.1802
    1W        W42437   4.629   3.447   2.396  0.0844 -0.0904  0.0635
    1W        W42438  22.325  26.327   1.403 -0.1658 -0.0868  0.1029
    1W        W42439   7.548   2.666   2.227 -0.0798 -0.0305 -0.0288
    1W        W42440   4.848  26.674   8.730 -0.0230 -0.1916  0.1664
    1W        W42441   5.662  23.674   0.762 -0.1246 -0.1785 -0.4522
    1W        W42442   1.987  15.709   1.847  0.0759 -0.3149 -0.1206
    1W        W42443  15.113  20.042   8.051  0.0707  0.0957  0.1278
    1W        W42444  16.851   1.585   1.960  0.1445  0.2858 -0.1437
    1W        W42445   9.624   5.270   1.785 -0.0138 -0.0869 -0.2407
    1W        W42446  12.366   7.979   6.883 -0.1386  0.1667  0.0520
    1W        W42447  14.587  29.524   8.647  0.2565 -0.1056  0.1465
    1W        W42448  25.629  13.788   7.371 -0.3576 -0.0979 -0.3421
    1W        W42449  21.128   1.756   1.097  0.0785 -0.1061  0.4601
    1W        W42450   9.432  12.971   1.831  0.0538 -0.1726  0.0502
    1W        W42451  14.772  12.457   0.412 -0.2769 -0.0871 -0.1890
    1W        W42452   6.459  16.908   0.775  0.1090 -0.0120  0.4392
    1W        W42453   3.813  19.965   2.456  0.2814 -0.1933  0.0498
    1W        W42454  15.807  11.391   7.153 -0.0322  0.0869  0.2443
    1W        W42455  24.417   1.532   7.419 -0.2383  0.0749  0.1281
    1W        W42456  21.344  15.064   7.200  0.1057  0.1187  0.3707
    1W        W42457  10.424  11.653   1.751 -0.0649  0.3840  0.1195
    1W        W42458  23.781   1.478   8.558  0.3660 -0.0628 -0.0467
    1W        W42459   0.589  15.769   0.310  0.1339 -0.1800 -0.0450
    1W        W42460  26.284   2.326   6.994 -0.3341  0.0355  0.0142
    1W        W42461  24.018   2.841   2.529 -0.2482  0.1014 -0.0482
    1W        W42462  26.837  24.077   7.998 -0.1747 -0.0729  0.0036
    1W        W42463   5.629  26.278   6.710 -0.0396  0.0594  0.0092
    1W        W42464  22.649  26.865   0.737  0.1626 -0.0574 -0.0687
    1W        W42465  29.769  18.282   1.001 -0.0609  0.3167 -0.1473
    1W        W42466   7.640  22.489   0.445 -0.2084 -0.2525 -0.1321
    1W        W42467   8.992   1.902   2.362  0.1333  0.1234 -0.0685
    1W        W42468   5.560   3.619   0.281 -0.0161  0.2139 -0.0941
    1W        W42469  16.541  22.541   3.317 -0.1230 -0.3416  0.0571
    1W        W42470  25.459  10.643   0.373  0.0839 -0.1631 -0.1859
    1W        W42471  13.650   4.340   2.133  0.2235 -0.0107 -0.3577
    1W        W42472   0.538   0.012   9.481  0.0175 -0.1155  0.2202
    1W        W42473   7.309   0.269   8.569  0.0646  0.1334 -0.0310
    1W        W42474  25.147   1.639   2.696 -0.1274  0.2858 -0.2079
    1W        W42475  13.337  20.468   1.589  0.2816 -0.1305 -0.0606
    1W        W42476   8.908  28.280   7.972  0.1578  0.0416  0.2644
    1W        W42477  18.330  13.925   8.020 -0.3049  0.1171 -0.1298
    1W        W42478  20.082  21.257   2.660 -0.0249 -0.2755  0.3874
    1W        W42479   5.758  25.837   0.205 -0.0610 -0.1958 -0.1825
    1W        W42480   5.505  26.222   7.347  0.0030  0.0956 -0.1597
    1W        W42481   7.812  28.271   0.607  0.0376 -0.4325 -0.1920
    1W        W42482   2.000  18.695   7.101 -0.3791 -0.0123 -0.0195
    1W        W42483  12.475   6.608   2.901 -0.2733 -0.4255 -0.0745
    1W        W42484   4.569  14.153   0.354  0.0032 -0.1854 -0.0776
    1W        W42485  27.083  16.102   0.481 -0.0737 -0.1067  0.2787
    1W        W42486   7.937   2.213   9.429  0.1244  0.1160  0.3404
    1W        W42487  12.491   3.735   8.117  0.1401  0.1838 -0.0799
    1W        W42488  11.259   3.609   1.974  0.1587 -0.3830  0.1013
    1W        W42489  17.751   5.050   0.431  0.0152 -0.0575  0.0314
    1W        W42490  11.026   7.104   7.769  0.2493 -0.2046  0.3136
    1W        W42491  18.746   4.052   8.937 -0.2096 -0.1383 -0.2571
    1W        W42492  15.156  19.317   2.419 -0.1726 -0.1266 -0.1452
    1W        W42493  14.891   2.836   8.658  0.0737  0.1422 -0.1743
    1W        W42494   4.130  23.899   7.758 -0.0547 -0.0730 -0.1546
    1W        W42495  13.062   3.366   2.559  0.0975 -0.1282  0.1159
    1W        W42496   2.886   9.437   1.239 -0.0652 -0.3095  0.3383
    1W        W42497  18.243   0.500   7.681  0.1800  0.2152  0.3355
    1W        W42498  14.510  17.328   1.230 -0.0519 -0.1735 -0.2088
    1W        W42499  13.954  10.596   7.004  0.0491  0.1665  0.0526
    1W        W42500   9.307  28.703   9.465 -0.4812  0.0784 -0.2138
    1W        W42501  14.260  15.794   2.343 -0.0018  0.0563  0.4298
    1W        W42502  21.414   9.232   1.339 -0.0983 -0.2213 -0.2566
    1W        W42503  23.067  29.430   2.423  0.0400  0.0949 -0.2154
    1W        W42504  12.970   4.735   8.594 -0.1058 -0.0504  0.1174
    1W        W42505   0.868  12.813   8.371  0.0373 -0.1280  0.3911
    1W        W42506  23.936   1.823   8.975 -0.2193 -0.1215 -0.0613
    1W        W42507  25.671  19.965   0.545  0.0279 -0.1980  0.0380
    1W        W42508   2.238  17.542   9.527 -0.2270 -0.0211 -0.1176
    1W        W42509  23.939  21.864   7.566 -0.1170 -0.1459  0.0559
    1W        W42510  23.955  27.627   9.216 -0.1622  0.1608  0.1076
    1W        W42511  25.396   0.333   9.251 -0.0188 -0.0114 -0.2281
    1W        W42512  13.468   6.765   8.239  0.0209  0.1584 -0.1089
    1W        W42513  12.264  28.129   6.882 -0.2549  0.0732  0.2487
    1W        W42514  28.255  23.410   1.309 -0.3044 -0.1303 -0.1317
    1W        W42515   8.274   4.403   0.968  0.0400 -0.0360 -0.0281
    1W        W42516  27.236  26.321   6.288  0.2067  0.0264  0.6411
    1W        W42517  10.838   6.306   1.927 -0.3452  0.1332 -0.2020
    1W        W42518   1.806   5.576   0.424 -0.2253  0.0735  0.1560
    1W        W42519  23.886  11.738   6.715 -0.2228 -0.0285 -0.1844
    1W        W42520   1.000  23.646   7.522  0.2019 -0.2209 -0.0012
    1W        W42521  21.037  22.377   6.969 -0.0278 -0.2091  0.0069
    1W        W42522   2.712   7.910   8.485  0.2562 -0.0915 -0.0405
    1W        W42523   9.572   4.861   8.520  0.1000  0.2024  0.3607
    1W        W42524  22.990  27.665   0.541  0.2736 -0.0827 -0.2114
    1W        W42525  14.983  22.769   0.524 -0.0437  0.0810  0.3179
    1W        W42526  18.253  22.888   6.474  0.3068  0.0887  0.1814
    1W        W42527   3.998  13.996   7.714  0.1798  0.2025 -0.3948
    1W        W42528  12.498   1.065   1.669  0.2005  0.3071 -0.1217
    1W        W42529  26.874  23.894   0.242  0.2064 -0.0320 -0.1950
    1W        W42530  20.931   6.611   7.463  0.0091  0.0722  0.0742
    1W        W42531  22.967   3.425   0.879  0.3115  0.0438 -0.0805
    1W        W42532  21.655   5.408   0.618  0.0334  0.1673 -0.0557
    1W        W42533  24.345  28.942   7.657 -0.1190 -0.0170 -0.2597
    1W        W42534  28.242  11.631   6.829  0.4033 -0.1840  0.0105
    1W        W42535   3.476  14.747   1.873  0.1402  0.3586 -0.1955
    1W        W42536  10.890  25.128   0.643 -0.1309 -0.1575 -0.1880
    1W        W42537  23.563  25.761   8.582 -0.5059 -0.2670 -0.4751
    1W        W42538  27.414   0.004   1.007 -0.2117  0.1893 -0.0037
    1W        W42539   3.950  11.658   0.380 -0.0044  0.1240  0.0325
    1W        W42540   7.233   2.071   2.863 -0.0001 -0.2260 -0.0432
    1W        W42541  20.291  17.826   8.096  0.0782  0.0129  0.0600
    1W        W42542  26.181  26.376   2.591 -0.2945 -0.4211  0.1211
    1W        W42543  11.466  27.506   2.209 -0.2706  0.1426 -0.0224
    1W        W42544  12.097  28.087   8.180 -0.0167  0.2692 -0.1553
    1W        W42545  20.383   6.986   0.157  0.0597 -0.1155 -0.2390
    1W        W42546  25.008   2.534   1.667  0.1945 -0.5537  0.0661
    1W        W42547  16.792  23.243   1.834  0.3293 -0.2840  0.1932
    1W        W42548  14.820  11.528   8.144  0.0812  0.0645  0.0506
    1W        W42549  21.121  12.468   9.286  0.4120  0.0233  0.0936
    1W        W42550  17.202  10.614   9.408 -0.2454  0.2889  0.0140
    1W        W42551  12.970  13.023   6.771  0.0770  0.0015 -0.1887
    1W        W42552  22.556   3.013   0.352 -0.0378  0.1652 -0.0870
    1W        W42553  28.472  28.066   1.420 -0.2162 -0.0121 -0.3049
    1W        W42554   0.692  28.887   7.280  0.1218  0.0191  0.1509
    1W        W42555   2.920   2.651   7.970  0.0659  0.3219  0.0744
    1W        W42556  14.792   2.611   2.320  0.0008 -0.1729 -0.0016
    1W        W42557  26.244  18.644   7.317 -0.1330  0.0628  0.0985
    1W        W42558   8.454  11.921   2.054  0.0980 -0.2259 -0.1677
    1W        W42559  26.812  19.035   8.079 -0.0227  0.1994  0.0441
    1W        W42560  28.195  16.247   1.171 -0.2623 -0.2639 -0.0623
    1W        W42561   8.163  27.292   1.567  0.0786 -0.0421 -0.2132
    1W        W42562  11.542  13.277   0.450  0.1679  0.0350 -0.1297
    1W        W42563  20.922   9.465   2.279  0.1568 -0.1091 -0.0409
    1W        W42564  23.687  11.044   7.804  0.0786 -0.0172  0.0150
    1W        W42565  11.756  23.453   7.785  0.2810 -0.1385 -0.1514
    1W        W42566   4.128  28.128   1.151 -0.0089  0.1093  0.2150
    1W        W42567  25.973  28.353   1.178 -0.0929  0.0307 -0.0381
    1W        W42568   8.020  11.833   6.906  0.1898 -0.0180  0.0763
    1W        W42569  29.133   7.243   7.643  0.1684 -0.2621 -0.0938
    1W        W42570  24.929   3.300   7.737 -0.1905 -0.0897  0.0344
    1W        W42571   9.486  20.457   7.914  0.0928 -0.2035  0.4543
    1W        W42572  10.034   4.077   0.915 -0.1710  0.1199 -0.2233
    1W        W42573  13.588  10.424   0.688  0.1448 -0.0953  0.1699
    1W        W42574  24.993  25.168   1.866  0.0039  0.1334 -0.1523
    1W        W42575  24.751  22.289   0.894  0.3238  0.0179  0.2348
    1W        W42576   8.427   2.591   8.890 -0.0791  0.0184  0.2107
    1W        W42577  10.021  25.624   7.557  0.2316 -0.0667  0.0434
    1W        W42578   9.600  17.715   8.781  0.0312 -0.0471 -0.0735
    1W        W42579  20.868  18.432   6.482  0.2230  0.1391 -0.0817
    1W        W42580  15.110  27.593   8.510  0.1451  0.0047 -0.3647
    1W        W42581  19.792  19.212   6.118  0.0220 -0.0681 -0.1126
    1W        W42582   6.499  29.793   2.645 -0.1151 -0.0190 -0.0280
    1W        W42583  27.743  17.777   6.310 -0.0240 -0.1108 -0.0072
    1W        W42584  16.902  17.411   0.783  0.1587 -0.1955 -0.0313
    1W        W42585   4.981  27.239   8.126 -0.0115  0.1824  0.0690
    1W        W42586  15.652   4.534   2.646  0.0758  0.2869  0.0240
    1W        W42587  18.730  20.196   0.530 -0.1639  0.0987 -0.1497
    1W        W42588  21.666  27.798   2.156 -0.0590 -0.1475 -0.1431
    1W        W42589  20.227  12.966   6.124  0.3178 -0.0746 -0.5139
    1W        W42590  11.454   6.797   0.762  0.0883 -0.3081  0.0613
    1W        W42591   2.507  17.821   1.555  0.1876  0.2320 -0.0110
    1W        W42592   5.890   2.318   7.597  0.1573 -0.1713  0.1247
    1W        W42593   7.448  19.309   8.387  0.0617  0.2115  0.0959
    1W        W42594  26.342  15.608   8.112  0.1824  0.5816  0.2389
    1W        W42595   5.237  15.608   7.700  0.1416  0.2330 -0.4875
    1W        W42596  15.471  21.386   8.803 -0.0648 -0.0567  0.0886
    1W        W42597  26.275   5.557   8.035  0.0910  0.0338  0.1648
    1W        W42598  19.109  15.121   0.883  0.0583 -0.1020  0.1473
    1W        W42599   0.166  18.664   0.420  0.1567 -0.0662 -0.1410
    1W        W42600  29.495  10.543   7.322 -0.1107 -0.2219  0.0151
    1W        W42601   8.493  24.242   8.784  0.1768  0.0659 -0.0132
    1W        W42602  13.620  19.372   8.864 -0.2292  0.1639 -0.0236
    1W        W42603  14.405  24.477   3.016  0.0665  0.4537  0.1021
    1W        W42604  24.250  14.381   8.608 -0.0641  0.1150 -0.1330
    1W        W42605  23.331  13.680   8.864  0.0050 -0.1561  0.2315
    1W        W42606  22.199  11.330   9.084  0.0245 -0.1474 -0.0070
    1W        W42607  23.139  26.954   1.134  0.0028 -0.1254  0.0146
    1W        W42608   5.097  12.172   0.629 -0.0961  0.2252 -0.0370
    1W        W42609   9.832  29.336   0.211  0.1695  0.3176 -0.1186
    1W        W42610   3.418  22.292   7.353  0.1818  0.1922  0.2567
    1W        W42611   7.728  20.652   1.113 -0.3319  0.2254 -0.1162
    1W        W42612   6.216  15.657   0.416  0.3033  0.3332  0.1272
    1W        W42613   0.378  15.480   7.714 -0.1566  0.1530 -0.2676
    1W        W42614  12.636   0.124   1.820 -0.0630 -0.2668  0.0281
    1W        W42615  20.613   9.851   0.311 -0.0223 -0.1539  0.2513
    1W        W42616   4.373   0.825   8.079 -0.0760 -0.2515 -0.0775
    1W        W42617   7.272  27.964   8.082 -0.0436  0.1899  0.5592
    1W        W42618   8.267  10.341   2.079 -0.2858 -0.0890 -0.1540
    1W        W42619  21.566  19.932   7.937 -0.0638 -0.2946 -0.0470
    1W        W42620  23.917  14.131   7.770  0.2273 -0.1491  0.0774
    1W        W42621   9.960  14.019   0.660 -0.0988  0.0883 -0.0623
    1W        W42622  29.756   2.612   7.214  0.1438  0.0408  0.1278
    1W        W42623   7.583  20.188   1.288  0.0912 -0.2936  0.0902
    1W        W42624   7.054  16.402   1.865 -0.4446  0.1060 -0.3746
    1W        W42625  23.834  18.468   7.005 -0.1649 -0.2212 -0.2131
    1W        W42626  25.480   4.900   7.040 -0.1393 -0.2162 -0.0406
    1W        W42627  18.177   3.015   8.842  0.1903 -0.1841 -0.2015
    1W        W42628   3.390  12.393   8.045  0.0838 -0.1738  0.4496
    1W        W42629  17.714  13.972   0.327 -0.0159 -0.1084 -0.0366
    1W        W42630   7.928  20.148   8.040 -0.0911 -0.2345 -0.1688
    1W        W42631  11.049  12.640   0.387 -0.0720  0.3796 -0.1465
    1W        W42632   8.673   2.679   8.329  0.0100  0.1006  0.3458
    1W        W42633   9.089   8.219   2.644  0.0392  0.0444  0.2143
    1W        W42634   3.541  19.960   7.051 -0.0736 -0.2234  0.0304
    1W        W42635  25.061  16.011   5.811 -0.1483  0.2142  0.1513
    1W        W42636   8.326   6.749   0.256 -0.1594 -0.2453  0.1343
    1W        W42637  24.190  27.483   2.963 -0.1214  0.1756 -0.1115
    1W        W42638  16.219  22.877   1.138 -0.0154  0.1026  0.0275
    1W        W42639   3.076   3.165   7.751 -0.0659  0.0744 -0.0439
    1W        W42640   8.253  17.082   8.422 -0.2758  0.2310 -0.2277
    1W        W42641  10.247  10.048   6.205  0.2089  0.0718  0.3078
    1W        W42642   3.184  26.344   9.309  0.1263 -0.1056 -0.0830
    1W        W42643  29.127  22.630   1.646 -0.2708  0.0658  0.0745
    1W        W42644  29.404  24.994   1.481 -0.2267 -0.1072 -0.3193
    1W        W42645   0.909  10.934   9.249  0.0249 -0.1756 -0.1125
    1W        W42646  21.734   3.606   7.315 -0.1935  0.1599 -0.0246
    1W        W42647  10.142   0.065   8.469 -0.1017  0.0463  0.2109
    1W        W42648  27.654  29.364   8.047  0.3311  0.1327 -0.3691
    1W        W42649  22.365  11.202   0.670  0.0972  0.2724 -0.1359
    1W        W42650   2.077   8.798   7.033 -0.1074  0.1666  0.1338
    1W        W42651  27.487  23.877   9.230 -0.0732  0.0188  0.1242
    1W        W42652  23.863   4.469   2.413 -0.2982 -0.0548  0.0403
    1W        W42653   9.402   5.583   2.756  0.0637 -0.0580  0.0322
    1W        W42654  26.154   8.464   7.725 -0.2071 -0.4229  0.1224
    1W        W42655  10.637  19.017   7.375 -0.0976 -0.0749  0.2939
    1W        W42656  16.232  11.914   9.064  0.0530  0.3199 -0.2800
    1W        W42657   8.985   2.081   3.619 -0.1713  0.1019  0.0831
    1W        W42658  28.042  12.220   0.642  0.1453  0.0918  0.1084
    1W        W42659  28.299  11.843   7.335  0.1917  0.3382  0.1741
    1W        W42660  10.590   2.739   2.317 -0.0983 -0.1591 -0.1201
    1W        W42661  28.696  14.857   6.617 -0.0030  0.0080 -0.2878
    1W        W42662  10.392  24.080   0.167 -0.2786  0.0012  0.1974
    1W        W42663   8.902  25.745   8.443  0.2082 -0.1220 -0.0969
    1W        W42664  27.883  23.759   1.239  0.0555 -0.1123  0.2041
    1W        W42665  22.158   1.599   8.198 -0.5909  0.0933 -0.1074
    1W        W42666  10.658  29.095   8.088  0.0852 -0.0102  0.1486
    1W        W42667   3.803   4.339   0.324  0.3097  0.1066 -0.2005
    1W        W42668  15.674  22.977   2.551  0.3029  0.0670  0.2923
    1W        W42669  24.263  14.896   7.873  0.0618  0.0134 -0.2951
    1W        W42670  26.225  18.762   9.398 -0.4137 -0.2626 -0.2615
    1W        W42671   6.296  29.713   7.590 -0.1100  0.0435 -0.2860
    1W        W42672   2.241   1.038   1.645 -0.0380 -0.4393 -0.0838
    1W        W42673  12.492   0.010   2.358 -0.0395 -0.1201  0.1790
    1W        W42674   7.366   3.179   2.459 -0.1624 -0.3335 -0.0029
    1W        W42675  29.283   1.873   8.080 -0.1840 -0.1352 -0.0853
    1W        W42676   3.367   6.435   1.132 -0.1820 -0.0975 -0.0737
    1W        W42677  21.732  19.520   8.327  0.3773  0.1907 -0.2835
    1W        W42678  20.814   3.861   2.720  0.0191  0.0380 -0.0720
    1W        W42679  14.272  13.696   2.889  0.1551 -0.0512 -0.0899
    1W        W42680  24.524  21.157   7.106 -0.1487 -0.0437  0.1832
    1W        W42681  17.807  17.898   7.401  0.3661  0.0538 -0.1135
    1W        W42682   4.176  25.709   1.128 -0.0145  0.0862 -0.1331
    1W        W42683  20.653  26.763   2.719  0.0604 -0.1878 -0.0567
    1W        W42684   4.361  11.451   9.041 -0.2294  0.1284 -0.2923
    1W        W42685  22.562  18.216   0.858 -0.0207  0.2528  0.0007
    1W        W42686  16.012   7.721   9.012 -0.0116 -0.2180  0.2098
    1W        W42687  17.084  16.651   7.261 -0.3214  0.2198  0.3298
    1W        W42688  20.964  27.672   0.928 -0.0756  0.1207  0.0085
    1W        W42689  10.595  13.096   9.393 -0.3704 -0.2855  0.1263
    1W        W42690   3.178  29.400   0.261  0.0585 -0.0717 -0.1601
    1W        W42691   6.358  23.255   7.781 -0.0511  0.1015 -0.2813
    1W        W42692   8.606  20.943   8.853  0.3465 -0.0316 -0.0166
    1W        W42693  21.013  21.303   7.810  0.1770 -0.0514 -0.0073
    1W        W42694   8.613   4.849   9.448 -0.1995  0.0395  0.1711
    1W        W42695  14.930  24.696   7.730  0.0029  0.1023  0.0739
    1W        W42696  15.266   0.735   2.250  0.3870 -0.0801 -0.1415
    1W        W42697  27.032   2.153   7.544 -0.2170 -0.2211 -0.0041
    1W        W42698  24.856   0.543   7.246  0.0252 -0.0087  0.1235
    1W        W42699  15.986  26.559   6.629 -0.3907  0.0187 -0.0022
    1W        W42700  26.315   0.768   3.332 -0.1382 -0.0778 -0.0080
    1W        W42701   0.441  14.244   1.867  0.0066 -0.2093  0.2137
    1W        W42702  24.548  29.031   9.231 -0.2498 -0.0798 -0.1299
    1W        W42703  25.886  10.355   6.126 -0.0085 -0.1099 -0.1265
    1W        W42704  10.159  23.618   7.831 -0.2042  0.2455 -0.0202
    1W        W42705  17.794  17.152   0.559  0.0100 -0.0179  0.2331
    1W        W42706  17.581  22.675   0.327 -0.2220  0.4488  0.3713
    1W        W42707  19.534   3.177   2.715 -0.0101 -0.1103 -0.0120
    1W        W42708  21.303  19.517   7.820 -0.0377 -0.0541  0.2942
    1W        W42709  13.161  25.567   1.702 -0.2452  0.2302 -0.1231
    1W        W42710  11.015   8.176   9.262 -0.1748  0.2504 -0.2557
    1W        W42711   9.401  15.546   1.879  0.2470 -0.1453  0.4010
    1W        W42712  25.689   0.737   2.000 -0.1999 -0.1524 -0.0164
    1W        W42713  21.253  23.836   8.485 -0.1606  0.2291 -0.0996
    1W        W42714  16.367  28.723   0.668  0.0110  0.0073 -0.0090
    1W        W42715   8.136   7.778   6.938 -0.2073  0.4756 -0.1080
    1W        W42716  19.359  27.940   3.418  0.1450  0.0537  0.1054
    1W        W42717  26.351   4.305   1.654 -0.2462 -0.0823  0.1221
    1W        W42718  28.689  16.483   6.988  0.2228  0.1278  0.1190
    1W        W42719  20.877   2.062   3.552 -0.0014  0.0459  0.2750
    1W        W42720   9.459   7.883   8.541  0.3065  0.1230  0.4289
    1W        W42721  20.633  25.156   6.561  0.3287 -0.0037 -0.2919
    1W        W42722  10.780  16.722   1.925  0.2461 -0.0144  0.2020
    1W        W42723  11.838  20.342   1.756 -0.0924  0.2559 -0.0085
    1W        W42724   4.660  13.055   1.214 -0.1760 -0.1485  0.0462
    1W        W42725   0.315  10.387   6.598  0.0684 -0.1199  0.0072
    1W        W42726  26.818  16.904   7.425  0.0949  0.2287  0.0544
    1W        W42727  11.265   4.154   2.070  0.1187 -0.0010  0.1389
    1W        W42728  28.417  10.394   0.382  0.0721  0.0117  0.0433
    1W        W42729  17.961   2.872   1.903 -0.0059  0.1593  0.0305
    1W        W42730  22.873  25.756   2.757  0.1335  0.2252 -0.0115
    1W        W42731  24.020  12.879   6.069 -0.2340 -0.0789 -0.1392
    1W        W42732  26.607  22.087   6.167 -0.0890 -0.0831  0.0836
    1W        W42733  26.996   1.414   8.650  0.2461  0.0495 -0.2134
    1W        W42734  11.766  25.655   2.392 -0.0355 -0.1229 -0.0732
    1W        W42735  22.738  21.723   6.509  0.0962 -0.0148 -0.0346
    1W        W42736  18.916   1.834   1.296 -0.1105  0.1218 -0.0991
    1W        W42737  17.441  15.263   8.916 -0.1581 -0.0414 -0.0617
    1W        W42738  22.132  10.045   2.091  0.0362  0.0730 -0.2210
    1W        W42739  12.085   9.042   9.105  0.0424  0.0094 -0.1860
    1W        W42740  12.693  22.846   9.140 -0.0623  0.0719 -0.0581
    1W        W42741  10.063  21.473   2.648 -0.1510 -0.1283  0.4714
    1W        W42742  23.618  22.431   8.630  0.0482 -0.0555 -0.1494
    1W        W42743  26.165  11.418   7.193  0.0357  0.1224  0.1971
    1W        W42744  13.954  16.818   7.768  0.0464  0.0741 -0.2480
    1W        W42745   7.730  26.910   2.787 -0.3443 -0.0738 -0.4743
    1W        W42746  18.196   3.612   1.340 -0.3172  0.0891  0.2894
    1W        W42747  12.612  28.561   6.799  0.0994 -0.1590 -0.0185
    1W        W42748   1.762  21.145   7.981  0.0619 -0.0859 -0.0603
    1W        W42749  29.280  26.057   2.381 -0.0760 -0.3520 -0.0285
    1W        W42750  18.974  14.334   6.653  0.3003 -0.1282 -0.0660
    1W        W42751  10.675  17.667   9.029 -0.0756  0.4114 -0.1414
    1W        W42752  18.285   0.316   1.606  0.0060 -0.0426 -0.0505
    1W        W42753  28.834   1.504   6.923 -0.1409 -0.1410 -0.4411
    1W        W42754   6.365   2.414   1.468 -0.1220  0.2922 -0.0910
    1W        W42755   4.032  24.600   8.107 -0.3690 -0.2402 -0.1630
    1W        W42756  27.469   8.334   0.984 -0.1311  0.3076 -0.3101
    1W        W42757   0.616  14.122   2.338  0.0542 -0.0604  0.0129
    1W        W42758  18.519  26.198   1.588  0.0946  0.1574 -0.0038
    1W        W42759  17.245   8.099   1.283  0.3467  0.3210  0.0891
    1W        W42760   1.631   3.311   7.987  0.0515 -0.4550  0.0603
    1W        W42761   8.502  16.532   2.461  0.0822  0.3265 -0.1657
    1W        W42762   4.572  29.314   8.769  0.3200 -0.2134  0.2779
    1W        W42763  14.025   6.397   8.798 -0.1901  0.2493 -0.5326
    1W        W42764   4.373  28.007   8.823 -0.0199 -0.1369 -0.1839
    1W        W42765   0.721  24.986   8.893 -0.1970 -0.1112 -0.0632
    1W        W42766  25.922   6.010   6.566  0.2001  0.0433  0.0931
    1W        W42767  10.022  13.036   2.242 -0.1662  0.0772  0.0765
    1W        W42768  25.777   8.136   7.732 -0.0712  0.0623  0.0965
    1W        W42769   6.756   7.510   7.508 -0.3798  0.0361  0.0510
    1W        W42770   7.414  19.359   1.592  0.0802  0.4184  0.0563
    1W        W42771  12.251   9.425   8.682  0.2286 -0.1811 -0.1568
    1W        W42772  12.213   5.233   0.743 -0.1740 -0.3075 -0.1914
    1W        W42773  12.145  16.108   2.093 -0.0491 -0.0150 -0.3347
    1W        W42774  11.999  13.969   0.064 -0.0423  0.5097 -0.0088
    1W        W42775   8.901  15.266   0.173 -0.1436 -0.1017 -0.1011
    1W        W42776  13.561   2.364   0.447  0.0910  0.1806  0.1386
    1W        W42777   6.805  29.277   1.921 -0.0116  0.1164 -0.1885
    1W        W42778  15.706  11.098   7.646  0.0027  0.1966  0.1602
    1W        W42779  10.754   8.167   8.436 -0.1692  0.0936  0.0570
    1W        W42780  11.860   2.381   3.149  0.1054 -0.1436  0.0032
    1W        W42781   6.360  19.823   0.125  0.2494 -0.2063 -0.0736
    1W        W42782   8.773   4.441   2.582 -0.2332 -0.1581 -0.3352
    1W        W42783  28.957   8.363   6.552 -0.0434 -0.1822  0.5264
    1W        W42784  20.143  16.563   0.897  0.0396  0.0291  0.2111
    1W        W42785  10.537  17.629   8.493  0.0194  0.1594  0.1128
    1W        W42786  29.799  16.524   8.592  0.1098  0.0492 -0.2041
    1W        W42787  14.111  26.751   2.641  0.1025 -0.0102  0.0788
    1W        W42788   9.251  25.206   0.410  0.2426 -0.1399  0.1469
    1W        W42789  26.095   3.133   6.642  0.1612 -0.1026  0.3398
    1W        W42790  13.674  16.166   8.731 -0.1661  0.0932  0.0131
    1W        W42791   7.932  22.454   7.249  0.1504  0.3891  0.1393
    1W        W42792  24.709  16.212   6.764  0.0527 -0.0895  0.2132
    1W        W42793  29.605  26.652   9.483  0.2868 -0.0789 -0.0385
    1W        W42794   3.270   2.719   7.519 -0.0409 -0.5613  0.0335
    1W        W42795  16.945  21.727   2.973  0.3875  0.3586  0.0079
    1W        W42796  13.108   9.890   8.817 -0.4129 -0.1239  0.0715
    1W        W42797  18.267   1.034   0.868  0.0590 -0.1120  0.2420
    1W        W42798  26.174  10.450   0.741 -0.2637  0.2407 -0.3469
    1W        W42799  12.681   1.799   3.614  0.2306  0.3983 -0.0523
    1W        W42800  21.498  14.379   7.865 -0.0621 -0.0321  0.0861
    1W        W42801   4.990   1.638   3.238 -0.0815  0.2882  0.0025
    1W        W42802  13.292  11.580   1.061 -0.3484 -0.2782 -0.1422
    1W        W42803  22.134  25.060   3.333  0.3294 -0.0734 -0.1903
    1W        W42804  16.308   0.346   7.521 -0.0592  0.1779 -0.2751
    1W        W42805  25.357  28.663   1.377  0.3241 -0.0733  0.2949
    1W        W42806  12.814   5.209   9.370  0.0565 -0.1822  0.4015
    1W        W42807  22.081  28.369   1.036 -0.2792  0.1322 -0.3083
    1W        W42808  10.894  10.719   1.188 -0.0049  0.1908 -0.0531
    1W        W42809   7.171  17.203   7.345  0.2177  0.0624 -0.1071
    1W        W42810   3.955  14.599   7.145  0.0321 -0.0936  0.1501
    1W        W42811   3.762  20.412   7.120 -0.0456 -0.1273 -0.3523
    1W        W42812   1.012  10.007   9.470 -0.0941  0.2873  0.0961
    1W        W42813  20.071  14.970   1.917 -0.0024 -0.0921 -0.2776
    1W        W42814  28.191   6.742   0.429 -0.0381  0.0878 -0.0025
    1W        W42815   0.153   5.263   7.711  0.0989  0.1773  0.2277
    1W        W42816  25.509   6.205   1.226 -0.1343  0.1468  0.2630
    1W        W42817   6.636   5.427   8.926 -0.0584  0.0324 -0.3009
    1W        W42818   6.549  16.998   8.473  0.1304 -0.5431 -0.0802
    1W        W42819  11.816  26.208   2.683 -0.3703 -0.2170 -0.1032
    1W        W42820   7.129  14.123   1.146  0.0052 -0.1675 -0.1079
    1W        W42821  13.902  19.443   0.662  0.0364 -0.2247 -0.3519
    1W        W42822  23.669  23.533   0.286 -0.1998  0.3357 -0.0722
    1W        W42823  27.989  18.465   7.667 -0.0670  0.2384 -0.0920
    1W        W42824  21.821  23.324   5.881  0.1303 -0.1811 -0.1756
    1W        W42825  10.560  16.563   1.434  0.1569  0.1413 -0.2371
    1W        W42826  12.300  29.341   8.399  0.0575  0.1413  0.1467
    1W        W42827  11.328   1.311   1.691  0.1727  0.4977  0.1559
    1W        W42828  22.542  24.893   9.099 -0.1619 -0.2116 -0.2819
    1W        W42829  16.108   0.786   7.746 -0.2226  0.3205  0.0146
    1W        W42830   3.139  26.147   7.744  0.3156 -0.0224 -0.2307
    1W        W42831  17.506   4.543   0.761 -0.0342 -0.2446  0.1274
    1W        W42832   9.184  26.094   3.042  0.0593  0.2628 -0.1218
    1W        W42833   2.814  27.409   2.674  0.4577 -0.0799 -0.0384
    1W        W42834  26.529  23.720   9.489 -0.0869  0.2069  0.2547
    1W        W42835   7.163  23.830   8.881 -0.0053 -0.1328 -0.2921
    1W        W42836  23.052   1.276   2.494 -0.2347  0.0066 -0.1858
    1W        W42837  27.218  19.696   6.391 -0.3835  0.0622 -0.0246
    1W        W42838   6.541   4.116   0.144 -0.0527  0.0214 -0.2313
    1W        W42839   2.454  18.255   8.048 -0.4239  0.1131 -0.1545
    1W        W42840   8.596   2.015   3.332 -0.2416 -0.1272 -0.2122
    1W        W42841   2.306  10.621   0.104  0.2124  0.0545  0.2656
    1W        W42842  27.956  22.376   1.760 -0.0471 -0.0312  0.2215
    1W        W42843  24.334   9.924   2.497 -0.0064 -0.0213 -0.1475
    1W        W42844   3.573   1.889   7.918 -0.2263  0.3849  0.2412
    1W        W42845  10.769  10.510   0.418 -0.0392 -0.0558  0.0168
    1W        W42846   5.917   5.447   2.895 -0.2632 -0.2427 -0.1494
    1W        W42847  19.693  15.760   2.124  0.0787  0.0346  0.1181
    1W        W42848  18.681   3.176   6.740  0.3251 -0.3379 -0.0324
    1W        W42849  17.572  15.829   1.483 -0.1583 -0.1715 -0.2296
    1W        W42850   1.958   6.565   2.450 -0.0291 -0.1551 -0.0348
    1W        W42851   1.756  17.466   8.728  0.2622 -0.2552 -0.1277
    1W        W42852  15.949   7.738   2.491  0.1011 -0.4514 -0.0019
    1W        W42853  22.853  19.595   7.461 -0.1500 -0.0783  0.0366
    1W        W42854  15.187  14.925   0.349 -0.1172 -0.1267  0.2127
    1W        W42855  26.352   7.690   1.520  0.0744 -0.2640 -0.0748
    1W        W42856  20.507   7.875   1.399 -0.2251  0.0899 -0.0894
    1W        W42857   4.435  23.735   7.392 -0.4586  0.0401 -0.2414
    1W        W42858  23.547  21.514   8.703  0.1997  0.2816  0.1309
    1W        W42859  15.817  21.558   9.464  0.1953 -0.0276 -0.2528
    1W        W42860  27.587  29.276   1.806 -0.0110  0.0058  0.0563
    1W        W42861  14.112  17.972   6.561  0.0649 -0.1481  0.1226
    1W        W42862   5.664   5.165   2.116  0.4173  0.0009 -0.0896
    1W        W42863   5.364   9.175   1.696  0.1780  0.1524  0.2175
    1W        W42864   0.284   7.151   7.857  0.0554  0.0584 -0.0552
    1W        W42865  17.010  28.471   8.503  0.2807 -0.0121  0.2127
    1W        W42866  28.087  20.704   6.677 -0.1777 -0.0746 -0.2611
    1W        W42867  16.593  18.515   1.854  0.2774 -0.0747  0.2729
    1W        W42868  16.197  27.400   0.112 -0.2367 -0.0467  0.1225
    1W        W42869   4.970  13.233   8.780 -0.0227  0.0959 -0.1893
    1W        W42870   8.967  10.665   7.736  0.2369 -0.3909 -0.4179
    1W        W42871  25.969  16.489   1.235  0.0698 -0.1591  0.1427
    1W        W42872   0.568  16.174   0.981 -0.0246 -0.2166 -0.2331
    1W        W42873   5.148   1.215   8.255 -0.0837 -0.0929 -0.0636
    1W        W42874  28.679   5.622   7.794  0.1245  0.0193 -0.1389
    1W        W42875   2.831  21.917   9.319 -0.1061  0.2619  0.3749
    1W        W42876   1.062   5.937   2.862  0.3781 -0.0385 -0.1485
    1W        W42877  23.165  16.517   7.855  0.0793  0.0854 -0.1938
    1W        W42878  14.145   9.721   0.765 -0.2672 -0.2603 -0.0755
    1W        W42879   1.318  23.046   8.128  0.1298 -0.0627 -0.2182
    1W        W42880  14.419  17.249   9.419  0.3011  0.0312  0.3629
    1W        W42881  19.864  16.743   8.785  0.1987  0.0032 -0.4938
    1W        W42882   0.388  25.766   8.746 -0.0799  0.4466 -0.0625
    1W        W42883  12.768  22.066   8.020 -0.2766 -0.2497  0.0516
    1W        W42884   0.974   1.271   2.247  0.2765 -0.1706 -0.1085
    1W        W42885   9.161  25.075   7.312  0.0384  0.0887 -0.2086
    1W        W42886   9.077   2.245   3.189 -0.0680 -0.1477  0.2681
    1W        W42887   6.858   8.470   7.300  0.0838 -0.1261 -0.0762
    1W        W42888  18.766  29.444   4.296  0.0615 -0.2668  0.0407
    1W        W42889   7.221  10.436   2.795  0.0057  0.0863 -0.2836
    1W        W42890  22.291  21.700   6.695  0.1309 -0.1603  0.3851
    1W        W42891  11.009   0.583   2.861  0.3181 -0.1271  0.0807
    1W        W42892  24.640  11.321   1.233  0.1180  0.3151  0.0283
    1W        W42893  21.634  17.373   1.304 -0.0473  0.0555 -0.1779
    1W        W42894  29.403   2.796   1.753 -0.1145 -0.1486 -0.0694
    1W        W42895   3.913   1.680   7.528 -0.1029 -0.1710 -0.0137
    1W        W42896  13.796   6.017   2.287 -0.0004  0.0990 -0.2483
    1W        W42897   3.859   9.824   9.144  0.2765 -0.3048  0.3297
    1W        W42898   7.551   8.415   9.018 -0.2238  0.0692  0.0625
    1W        W42899   1.922  26.959   9.389 -0.0668  0.1953 -0.1465
    1W        W42900  11.215  18.770   1.518 -0.3357  0.1629  0.2714
    1W        W42901  18.939  27.719   3.084  0.1409  0.1316 -0.2970
    1W        W42902  27.691  13.676   7.172 -0.1127 -0.0309 -0.2444
    1W        W42903  17.014   5.905   6.739 -0.1466 -0.0152 -0.1750
    1W        W42904  18.813  27.994   0.670  0.2779 -0.2537 -0.0980
    1W        W42905  11.595   7.164   2.711 -0.0015 -0.0530 -0.4010
    1W        W42906  16.889   8.969   8.220 -0.0570  0.1503 -0.0893
    1W        W42907  24.291  22.475   2.665 -0.1478 -0.1426 -0.1724
    1W        W42908  26.067  22.855   6.548  0.0439 -0.0360 -0.0701
    1W        W42909  10.822  22.570   7.877  0.0206 -0.0859  0.0272
    1W        W42910   5.003   6.129   8.177  0.3781  0.0426  0.1789
    1W        W42911  29.432  24.966   6.962 -0.3970  0.1153  0.1265
    1W        W42912  16.103   0.251   2.899 -0.3523 -0.1388  0.0433
    1W        W42913   1.760  21.725   6.899 -0.3099  0.0048  0.0189
    1W        W42914  16.792  27.654   0.794 -0.1711 -0.0772  0.0544
    1W        W42915  28.773  27.254   1.719 -0.1765  0.1133  0.3029
    1W        W42916  20.155   1.593   0.976 -0.0780 -0.1458  0.0935
    1W        W42917   8.241  13.000   6.918  0.0530  0.3108 -0.3422
    1W        W42918   4.943   1.815   4.952 -0.3403  0.0833  0.2032
    1W        W42919  24.153  10.681   1.647  0.2256 -0.2659  0.3733
    1W        W42920   2.792   3.860   6.688  0.2155 -0.1850 -0.0534
    1W        W42921  10.036  22.837   1.571  0.0171 -0.0700  0.3208
    1W        W42922  23.107   3.902   7.637  0.0459  0.1676 -0.1285
    1W        W42923  11.028  20.266   1.937 -0.1602 -0.2467  0.0379
    1W        W42924  19.735  26.383   6.611 -0.1679  0.2626 -0.3453
    1W        W42925   4.216  17.908   0.544  0.0530 -0.0879  0.1421
    1W        W42926  28.554   5.670   1.179 -0.0400  0.1471  0.0171
    1W        W42927  16.240  28.973   9.278 -0.0354 -0.1199 -0.0279
    1W        W42928  23.513  25.511   0.877 -0.3387 -0.5132 -0.4570
    1W        W42929  17.376  26.286   0.235  0.2252  0.1624  0.0274
    1W        W42930  16.553   4.280   2.678  0.0940  0.0146  0.1187
    1W        W42931  22.832   6.718   8.402  0.3057 -0.1004 -0.1877
    1W        W42932  14.645  14.226   8.467  0.1576  0.0362  0.0274
    1W        W42933  10.959   7.581   1.691 -0.1257  0.1271 -0.3958
    1W        W42934   3.984   1.473   8.713  0.1700 -0.2024 -0.1012
    1W        W42935   7.728  19.310   8.878  0.1224 -0.0731 -0.0986
    1W        W42936  20.848  29.172   8.949 -0.1487  0.2470  0.0706
    1W        W42937  25.519  23.392   9.235 -0.1363 -0.1337 -0.0068
    1W        W42938  21.302  10.267   7.988 -0.2680  0.0661 -0.2139
    1W        W42939   0.499  18.591   6.171 -0.0628 -0.0403  0.0274
    1W        W42940  28.988  16.275   6.686 -0.1074  0.3226  0.1408
    1W        W42941  25.736   1.356   8.867 -0.0859 -0.1476  0.0950
    1W        W42942  16.697  10.343   9.432 -0.0534  0.0803 -0.2388
    1W        W42943  20.243   6.415   1.396  0.1638 -0.1516  0.3718
    1W        W42944  29.233  22.916   1.266  0.0493 -0.1518 -0.1889
    1W        W42945  13.341  17.669   1.716  0.0599 -0.0044  0.2795
    1W        W42946  18.952  16.942   7.279  0.0648 -0.1434  0.0774
    1W        W42947  16.550  21.151   9.097 -0.2516 -0.0395 -0.0786
    1W        W42948   3.027  12.965   8.598 -0.0597 -0.0768 -0.3126
    1W        W42949  10.739  20.507   7.959 -0.3110 -0.1168  0.0496
    1W        W42950  14.214  20.384   8.296 -0.1565 -0.2189  0.0371
    1W        W42951   6.031  22.907   8.037 -0.1999  0.2321  0.0067
    1W        W42952   1.533   8.953   2.031 -0.1854 -0.0386 -0.1529
    1W        W42953  23.560  26.890   1.371  0.3718  0.1182 -0.1262
    1W        W42954  17.844  28.174   8.191  0.0369 -0.1314 -0.0041
    1W        W42955   5.389  29.638   2.038 -0.1757  0.0511 -0.0921
    1W        W42956  11.337  27.838   3.127 -0.2088  0.1631  0.0841
    1W        W42957  10.088   8.306   9.025 -0.2001 -0.2066  0.0490
    1W        W42958  28.680  11.478   1.119 -0.0264 -0.2401  0.0405
    1W        W42959  25.520  26.743   3.167 -0.1282  0.0479  0.0357
    1W        W42960  11.680   8.905   0.336  0.0041 -0.0455  0.1427
    1W        W42961   1.818  26.496   7.238  0.1558 -0.0291 -0.0173
    1W        W42962  18.595   5.045   2.031  0.3641  0.1684  0.2639
    1W        W42963  26.529  22.192   1.853  0.2995  0.1705 -0.2383
    1W        W42964  24.675  16.617   6.453 -0.1161  0.2832  0.1521
    1W        W42965  26.303   4.429   6.670 -0.3198  0.1998 -0.0493
    1W        W42966   9.838   6.155   9.456  0.0961 -0.1038  0.1206
    1W        W42967   1.590  16.978   8.684 -0.0340  0.2754 -0.0387
    1W        W42968  14.995  10.126   0.712 -0.2704  0.2272 -0.2189
    1W        W42969  23.236   5.669   9.224 -0.0181  0.0684  0.0281
    1W        W42970  19.740  26.031   8.551  0.0029  0.0795  0.3140
    1W        W42971  25.011   5.833   2.281  0.0452  0.1138  0.1156
    1W        W42972  15.769  12.019   7.425 -0.1202  0.0455  0.1616
    1W        W42973   3.674   5.803   1.913  0.1058 -0.3653 -0.1477
    1W        W42974   0.140   0.697   1.759  0.0355 -0.0759  0.4044
    1W        W42975  19.347  25.262   0.157 -0.1344  0.1260  0.1093
    1W        W42976   3.580  27.792   2.268 -0.3790 -0.1954  0.1818
    1W        W42977   6.098  12.246   0.773  0.5021 -0.2964  0.2553
    1W        W42978  23.634   4.333   1.588 -0.2491 -0.1043  0.1991
    1W        W42979   3.539  13.162   0.182 -0.1377 -0.2227 -0.1262
    1W        W42980   5.889   4.671   1.155  0.0378 -0.0723 -0.1861
    1W        W42981  28.771  29.395   8.273 -0.0120  0.1291  0.1978
    1W        W42982  27.385   2.740   7.028 -0.0731 -0.0597 -0.2656
    1W        W42983  18.637   6.662   9.027 -0.0153  0.3960  0.0416
    1W        W42984  20.575   9.899   6.091 -0.0464  0.1251  0.5476
    1W        W42985  26.369  11.016   9.105 -0.5449  0.1667 -0.0795
    1W        W42986  18.756  26.795   9.490  0.0137  0.2241  0.1563
    1W        W42987   6.239  15.782   1.253 -0.2232  0.1097  0.3958
    1W        W42988   2.790  10.521   8.190  0.1570 -0.0709 -0.1171
    1W        W42989   7.222  26.799   9.535  0.2449  0.0544  0.0923
    1W        W42990  24.889  12.862   6.266  0.0677 -0.1485 -0.2500
    1W        W42991  14.938  29.160   2.539 -0.0572  0.1181 -0.2798
    1W        W42992  27.350  29.501   7.647  0.5423 -0.1866  0.3352
    1W        W42993  18.079  28.737   1.628  0.1122 -0.3904 -0.0107
    1W        W42994   8.095  22.277   1.674  0.0008  0.0279 -0.1245
    1W        W42995   7.740  24.921   1.182  0.2438 -0.3695  0.0830
    1W        W42996  18.005  13.487   0.721  0.0512 -0.1061  0.1417
    1W        W42997  11.265  22.855   6.909 -0.2171 -0.1561  0.2926
    1W        W42998  11.659   7.639   2.853 -0.0263  0.3109  0.3670
    1W        W42999  10.089  10.331   0.784  0.1832 -0.1739 -0.1654
    1W        W43000  24.118  25.317   2.526 -0.0543  0.0322 -0.1260
    1W        W43001   6.798  16.553   0.896 -0.0655  0.4530  0.0499
    1W        W43002  11.801   2.530   2.651 -0.1569 -0.1527  0.0337
    1W        W43003  14.653  28.841   1.832  0.1038  0.5160 -0.2608
    1W        W43004  22.347   8.582   7.008  0.4642  0.1829 -0.2834
    1W        W43005   6.780  26.489   0.670  0.0835  0.3793  0.2212
    1W        W43006   9.564  18.463   7.608 -0.0310 -0.1494  0.1109
    1W        W43007   1.840  18.938   1.986  0.1384 -0.0516 -0.1384
    1W        W43008  10.822   8.318   6.962  0.0518  0.4674  0.1449
    1W        W43009   8.112  16.315   2.208 -0.2510  0.3148 -0.2258
    1W        W43010  19.314  28.987   1.310  0.1777  0.2825  0.1154
    1W        W43011  13.943  20.583   9.089  0.0306  0.2161  0.1163
    1W        W43012  16.171  10.751   1.882  0.0105  0.1824  0.4803
    1W        W43013   6.604  14.170   1.897 -0.0002 -0.1161 -0.1404
    1W        W43014   8.904  11.932   0.178  0.2651 -0.1990 -0.0006
    1W        W43015  25.029  21.117   7.109 -0.3759  0.0349 -0.2717
    1W        W43016   8.608   5.858   0.617  0.0818  0.0416 -0.1423
    1W        W43017  18.100   8.356   2.835 -0.0411  0.3974 -0.3443
    1W        W43018  18.938   9.233   7.481  0.2381 -0.0895 -0.0184
    1W        W43019  19.862  22.594   8.885  0.0456 -0.0785  0.0459
    1W        W43020  11.820   7.939   1.868  0.0564 -0.0379  0.1121
    1W        W43021  12.154   8.645   0.451 -0.1968 -0.2717 -0.0990
    1W        W43022   6.319  15.681   1.787  0.0685  0.1830 -0.0290
    1W        W43023  12.427  26.101   9.363 -0.0406 -0.0745 -0.0464
    1W        W43024   2.718   2.507   2.774 -0.3249  0.0621  0.0620
    1W        W43025  23.685   9.462   1.259 -0.0741  0.0421  0.0650
    1W        W43026   8.489  28.555   0.377  0.2487  0.1958 -0.2578
    1W        W43027   2.854   1.280   2.372  0.0029 -0.3118 -0.0699
    1W        W43028   1.552  10.006   2.117  0.1621  0.3106  0.1342
    1W        W43029  13.409  24.929   0.818  0.3686  0.0822  0.0665
    1W        W43030  27.797  17.622   8.150  0.3311 -0.0483  0.4231
    1W        W43031  22.556   9.829   2.341  0.4821  0.1783  0.0043
    1W        W43032   6.207   4.880   3.640 -0.1903  0.0990 -0.1148
    1W        W43033  23.926  24.738   0.451  0.2165  0.0344 -0.1193
    1W        W43034  25.920  16.921   7.422 -0.0509  0.1975 -0.2214
    1W        W43035   0.755   2.675   1.677 -0.0012 -0.3216  0.0246
    1W        W43036  18.937   1.276   0.170 -0.2310 -0.1552 -0.1319
    1W        W43037   3.892   4.041   0.832  0.2548 -0.0436 -0.0315
    1W        W43038  12.452  12.673   1.893 -0.1573  0.2909  0.1165
    1W        W43039  23.717  19.515   6.203 -0.0574 -0.2234 -0.2796
    1W        W43040   2.230  18.093   6.424  0.0623 -0.2297  0.0902
    1W        W43041  22.154  22.208   8.709 -0.1735  0.0349 -0.2486
    1W        W43042   0.113  20.250   6.562 -0.3066  0.1391  0.0984
    1W        W43043  23.145  23.398   7.642 -0.0614  0.4533  0.1827
    1W        W43044  20.120  24.781   1.847  0.1237 -0.0578 -0.1301
    1W        W43045  18.711  18.254   5.815 -0.0336 -0.2377  0.0621
    1W        W43046  16.836  14.169   9.030 -0.2837 -0.1979 -0.0931
    1W        W43047  10.022  19.507   6.936  0.0944  0.3089 -0.1402
    1W        W43048  16.835   3.923   2.452 -0.0911  0.0927  0.2379
    1W        W43049   0.575   9.048   1.854 -0.0810  0.2362  0.2013
    1W        W43050  18.760  16.127   1.782  0.2654  0.1122 -0.0525
    1W        W43051   0.288  13.328   7.084  0.0558  0.0884 -0.0783
    1W        W43052  27.416  27.434   1.049 -0.0887 -0.1400 -0.3046
    1W        W43053  11.411   9.910   8.334 -0.1718  0.0928 -0.2769
    1W        W43054  17.154   2.183   9.232  0.0263 -0.1573 -0.1885
    1W        W43055  20.586  14.378   7.364  0.1812 -0.1305 -0.1579
    1W        W43056  21.497  11.452   9.077  0.0340 -0.3767 -0.1858
    1W        W43057   6.002  16.735   0.420  0.1515 -0.0833  0.1441
    1W        W43058   8.194   2.708   9.335 -0.1888  0.1195  0.0384
    1W        W43059   5.594   1.325   0.896  0.0857 -0.0857  0.1538
    1W        W43060   1.907  29.281   0.336 -0.0008 -0.2257  0.0323
    1W        W43061  21.910   7.647   1.989 -0.0262 -0.4852  0.1426
    1W        W43062   6.910  25.563   2.005  0.1416  0.2731 -0.0193
    1W        W43063  22.475  18.868   0.034 -0.1140  0.0190 -0.0336
    1W        W43064  26.381  27.841   8.398  0.5163  0.0979  0.0332
    1W        W43065   2.424  15.046   0.737 -0.0025  0.3174  0.1953
    1W        W43066  11.336   2.828   2.698 -0.1298  0.0710  0.2290
    1W        W43067  10.041   2.089   1.059  0.1802  0.0344  0.2258
    1W        W43068   7.651  24.919   1.680  0.4519 -0.1969 -0.1152
    1W        W43069  25.120   2.206   7.387 -0.2053 -0.4358  0.0351
    1W        W43070   6.349  16.337   7.674  0.2338 -0.0031 -0.1046
    1W        W43071  24.365  18.900   6.543 -0.1067  0.0639 -0.1181
    1W        W43072  12.944  15.470   1.853 -0.0161 -0.1446  0.2151
    1W        W43073  11.169  26.919   9.486  0.0238 -0.0219 -0.1512
    1W        W43074  28.831   3.573   1.539 -0.0087  0.0219  0.2999
    1W        W43075   8.664  27.140   7.173  0.2663 -0.1085 -0.0644
    1W        W43076   9.416  24.695   2.232 -0.0112  0.1060 -0.1278
    1W        W43077   8.574  29.677   0.546 -0.1612 -0.3161 -0.0549
    1W        W43078   0.382   9.701   2.494  0.1453  0.0249  0.1801
    1W        W43079  25.784   4.343   7.377 -0.3281  0.1868  0.2046
    1W        W43080   8.039   4.939   0.418 -0.1103  0.0042 -0.1891
    1W        W43081   9.524   9.232   1.804  0.0362  0.3248 -0.2153
    1W        W43082  10.737  18.907   1.322 -0.1375 -0.3119  0.1447
    1W        W43083  14.413  26.719   6.536  0.0254  0.1222  0.2714
    1W        W43084   9.112  19.112   2.692  0.2512 -0.2131  0.0069
    1W        W43085  17.144  14.736   5.430  0.0223  0.0147 -0.2607
    1W        W43086  25.394   7.233   2.327 -0.0127  0.0107  0.1719
    1W        W43087   8.732  25.109   0.284 -0.2121  0.2627  0.1933
    1W        W43088   4.149  11.450   0.828  0.1606 -0.1585 -0.2472
    1W        W43089   7.665  22.235   1.433 -0.1333  0.0391  0.1922
    1W        W43090  15.584  15.035   0.636 -0.0123 -0.1120 -0.0630
    1W        W43091   8.573  24.324   8.278  0.0118 -0.0187  0.0990
    1W        W43092  12.247  27.466   0.270 -0.1693 -0.2869 -0.0742
    1W        W43093   8.756  27.161   0.823 -0.0088  0.0931 -0.3333
    1W        W43094   5.042  21.235   7.470  0.0681 -0.0653 -0.2630
    1W        W43095   5.090  15.119   9.328 -0.3456  0.1116 -0.0408
    1W        W43096  23.636   4.922   2.625 -0.1204 -0.0808  0.0798
    1W        W43097  22.915   6.190   9.297 -0.2622 -0.2585  0.2387
    1W        W43098  12.483  17.408   7.711  0.1810 -0.0198 -0.0193
    1W        W43099  26.378  12.006   7.610  0.1330  0.0350  0.0898
    1W        W43100   5.071  27.293   0.274 -0.0363 -0.1833 -0.1710
    1W        W43101  13.486   4.271   0.873 -0.1866  0.1860 -0.1476
    1W        W43102  10.160   7.188   1.768 -0.0971 -0.3954 -0.0966
    1W        W43103  10.978  21.182   1.349 -0.0146 -0.2186  0.1489
    1W        W43104  20.399   0.277   2.123 -0.2152  0.0839  0.0811
    1W        W43105  27.337  19.095   7.516 -0.0534  0.3759  0.1814
    1W        W43106   2.715   4.885   7.149  0.0856 -0.1439  0.1019
    1W        W43107   3.922   8.627   6.308 -0.1034  0.0957  0.1531
    1W        W43108  24.188   0.064   1.610 -0.0810 -0.1475  0.1649
    1W        W43109  21.258  17.503   0.969 -0.0728 -0.0446  0.1608
    1W        W43110  24.993  22.956   2.188  0.0377  0.1501  0.1534
    1W        W43111  16.372   3.643   0.249 -0.0329  0.1348 -0.0038
    1W        W43112  27.118  17.446   9.186  0.1109 -0.0915  0.0838
    1W        W43113  11.483  11.496   8.966 -0.1030  0.0801  0.2293
    1W        W43114   9.729  14.809   2.275  0.0703 -0.0537  0.2207
    1W        W43115   1.731  15.232   1.656  0.1417  0.3318  0.4956
    1W        W43116  21.903   5.737   8.526  0.2040  0.2710 -0.0401
    1W        W43117  15.693   8.188   2.270  0.2917  0.1352  0.1396
    1W        W43118   6.850   4.583   2.320 -0.1563  0.2097 -0.1774
    1W        W43119  22.203   7.729   7.690 -0.0377 -0.1036  0.1198
    1W        W43120   9.168   6.764   7.955  0.2846  0.0767 -0.2850
    1W        W43121  27.203  14.825   6.184 -0.2482  0.1534  0.3677
    1W        W43122  16.672   3.935   0.677  0.0353  0.1097 -0.0172
    1W        W43123  22.002  11.267   1.555 -0.2003  0.1235 -0.2432
    1W        W43124  18.836  11.142   6.851 -0.1261 -0.1923  0.1111
    1W        W43125  17.877  19.010   0.095  0.1971  0.1468 -0.0239
    1W        W43126  15.900  19.312   8.416  0.4189 -0.0427 -0.0836
    1W        W43127  26.025   7.908   7.368  0.0209 -0.2224 -0.2452
    1W        W43128   6.500   8.276   1.001 -0.0918 -0.1983 -0.0751
    1W        W43129  14.741  29.301   7.776  0.0266 -0.1539  0.1761
    1W        W43130   6.223  10.758   8.733 -0.0868 -0.0445  0.1867
    1W        W43131  23.670   3.159   7.661  0.3219 -0.4067 -0.1167
    1W        W43132  10.045   7.041   7.711 -0.1355  0.1173 -0.0248
    1W        W43133  22.926  26.279   2.867 -0.2825  0.0888  0.1104
    1W        W43134  19.157  28.740   8.177  0.1482  0.1552  0.0011
    1W        W43135  28.474   5.693   2.912 -0.2849 -0.1368 -0.1137
    1W        W43136  14.778   9.210   7.198 -0.2458 -0.0996 -0.2579
    1W        W43137  25.603  16.971   7.933 -0.1825  0.1343  0.2297
    1W        W43138  18.892  23.541   1.865 -0.0790 -0.2394  0.1005
    1W        W43139   0.485  28.261   8.676 -0.0575  0.0248  0.0083
    1W        W43140  10.453  11.743   7.439 -0.1835  0.2148  0.0969
    1W        W43141  26.776  12.997   9.333 -0.1510 -0.1382 -0.2222
    1W        W43142  17.212  12.859   0.929 -0.0176 -0.1484 -0.0145
    1W        W43143   2.295  16.623   9.244  0.3402 -0.1291  0.0897
    1W        W43144  11.458   1.517   7.677 -0.1317  0.1543  0.1268
    1W        W43145  21.808   2.637   8.730 -0.1608 -0.0364  0.3464
    1W        W43146  22.907  11.060   1.302  0.1369 -0.1222  0.4279
    1W        W43147  27.129   9.628   7.369  0.0421  0.0252 -0.0793
    1W        W43148  22.054   5.974   3.055 -0.1516  0.0760  0.0979
    1W        W43149   6.422   4.077   0.659 -0.1362 -0.2180  0.1583
    1W        W43150  18.361  28.659   3.354  0.0844 -0.2067  0.1513
    1W        W43151  28.687  11.956   8.104 -0.1908 -0.2059 -0.1450
    1W        W43152  17.846  26.099   1.089 -0.2245  0.0632  0.0465
    1W        W43153  15.433  27.737   1.493  0.2423 -0.0172 -0.1604
    1W        W43154  16.621   1.204   2.494  0.1900  0.0003 -0.4772
    1W        W43155  15.998  25.201   0.772 -0.1258 -0.0338  0.0308
    1W        W43156   9.711  20.697   0.554  0.0219  0.0870 -0.1699
    1W        W43157  28.846   9.071   7.526  0.0370 -0.0430 -0.1561
    1W        W43158  13.811   5.612   6.876 -0.3530 -0.1931  0.0552
    1W        W43159  24.397  17.167   5.493 -0.1946  0.0902  0.5111
    1W        W43160  23.218  21.993   0.754 -0.3025  0.2296 -0.0498
    1W        W43161  23.144  17.912   7.453 -0.1762  0.0886  0.1504
    1W        W43162  15.817  15.444   7.874 -0.2070 -0.0522 -0.1459
    1W        W43163  25.681  12.659   6.597  0.0987 -0.2009  0.2233
    1W        W43164  23.520  23.592   6.754  0.0333 -0.0507 -0.0704
    1W        W43165   6.684  14.123   6.956  0.0315 -0.1185  0.2862
    1W        W43166  16.560  19.896   9.023  0.1529 -0.0910 -0.0646
    1W        W43167   7.134   1.691   2.508  0.0214  0.1922  0.0563
    1W        W43168  11.584  20.336   0.859  0.0033 -0.3349  0.0397
    1W        W43169  23.644   8.923   8.874 -0.0373  0.3675 -0.2094
    1W        W43170  24.951   4.294   8.646  0.0964  0.0670  0.1863
    1W        W43171  28.831   4.499   0.217 -0.1611 -0.1714  0.1634
    1W        W43172  10.092   4.165   8.800  0.0221  0.1531  0.0476
    1W        W43173   5.548  14.639   8.463  0.1108  0.1034  0.4160
    1W        W43174  22.975  15.310   5.911 -0.0465  0.0228  0.0974
    1W        W43175  13.286  24.598   0.510  0.1555  0.3659  0.0162
    1W        W43176   6.193  26.394   0.894 -0.1676  0.1524  0.0390
    1W        W43177  23.976  15.057   1.485 -0.3055 -0.1250  0.3283
    1W        W43178   0.653   4.296   8.084 -0.0528  0.4652  0.0161
    1W        W43179  13.567   2.824   8.707 -0.1203 -0.1568  0.0716
    1W        W43180  26.346  24.928   8.921 -0.1178  0.0078 -0.0485
    1W        W43181  26.253   6.378   8.170 -0.1978 -0.2894  0.0652
    1W        W43182  23.753   6.974   8.824 -0.0560 -0.1527 -0.4788
    1W        W43183   2.966  20.970   7.953  0.0177  0.2243  0.1155
    1W        W43184   0.609  27.334   0.658  0.1220 -0.1010 -0.1418
    1W        W43185  26.878  17.417   8.078 -0.0724  0.1435 -0.2472
    1W        W43186  23.242   6.350   7.131 -0.0394  0.0518 -0.1854
    1W        W43187  24.695  27.761   3.331  0.0188 -0.0988  0.0703
    1W        W43188  11.139  16.844   7.178  0.0918 -0.2225  0.0879
    1W        W43189  26.732   0.735   0.211 -0.1342 -0.0428  0.2303
    1W        W43190  20.856   8.474   7.461 -0.0347 -0.4788  0.0454
    1W        W43191  27.485  11.598   0.927 -0.1743  0.0434 -0.0493
    1W        W43192  18.694  18.165   1.762  0.4307  0.4157 -0.0112
    1W        W43193  24.496  29.425   6.960 -0.0860 -0.1101 -0.1414
    1W        W43194  14.707   7.703   2.044  0.1873  0.1449 -0.1194
    1W        W43195  23.546  15.621   9.346 -0.0546  0.1214  0.0328
    1W        W43196   3.334   6.048   0.524  0.0098  0.0676  0.0964
    1W        W43197  27.663  14.086   1.464 -0.0473 -0.1449 -0.1074
    1W        W43198  28.015  19.207   6.879 -0.0929 -0.0290 -0.0929
    1W        W43199   3.702  15.210   1.257 -0.2297 -0.0200  0.3283
    1W        W43200  22.557   2.236   0.486 -0.3193  0.1903 -0.1003
    1W        W43201   5.694  10.764   1.695 -0.1904 -0.0363  0.2378
    1W        W43202  12.703   1.342   0.286 -0.0737  0.0697  0.0449
    1W        W43203  16.171  11.841   0.009 -0.0186 -0.1779  0.0350
    1W        W43204   4.843  18.402   1.888  0.2522 -0.2612 -0.0066
    1W        W43205  16.048  21.999   7.966 -0.0987 -0.2039 -0.0872
    1W        W43206  14.626   8.071   6.482  0.1431  0.1013 -0.1932
    1W        W43207   5.755   3.698   9.319 -0.1471  0.1057 -0.0965
    1W        W43208  16.072  10.426   0.476 -0.2387  0.1726 -0.0172
    1W        W43209   9.905  28.177   7.790  0.1437  0.2145 -0.1072
    1W        W43210  11.439  10.768   7.735  0.0376  0.2707  0.0120
    1W        W43211   1.347  21.342   7.792  0.2308 -0.3312  0.2023
    1W        W43212   5.006   0.717   8.892  0.0082 -0.1018 -0.1756
    1W        W43213  27.298  18.541   6.580 -0.0526 -0.2245 -0.0609
    1W        W43214   8.292   9.870   2.051  0.0413 -0.2419 -0.0731
    1W        W43215   9.958  28.641   0.499 -0.1467 -0.2607  0.0896
    1W        W43216  19.662  25.821   3.738 -0.1915 -0.0266  0.1822
    1W        W43217  28.672   7.487   3.297  0.3517 -0.0281 -0.0244
    1W        W43218  28.821  17.885   0.793  0.0682  0.1905  0.0771
    1W        W43219   0.391  10.775   9.241  0.3090  0.1505  0.1083
    1W        W43220  10.175  18.424   2.402  0.2401  0.3234  0.0378
    1W        W43221  13.680   3.737   6.320  0.1609  0.0484 -0.2292
    1W        W43222   2.553  18.686   7.264 -0.0105  0.2266  0.0604
    1W        W43223  22.750   7.921   1.637  0.1881  0.1477  0.0133
    1W        W43224  21.133  18.078   9.207  0.0541 -0.2232  0.0300
    1W        W43225   4.929  28.302   2.108 -0.2113  0.2136  0.0278
    1W        W43226   9.601  10.694   0.798 -0.0373 -0.2447 -0.0884
    1W        W43227  13.300  21.152   7.385  0.2926  0.1230  0.0456
    1W        W43228  25.576  24.327   8.826  0.2872  0.0926  0.1839
    1W        W43229  16.627  16.255   2.451 -0.2892 -0.1648 -0.0392
    1W        W43230   1.613  15.037   2.125 -0.0879 -0.1308 -0.1408
    1W        W43231   8.082  27.603   7.481  0.2438 -0.1613 -0.0159
    1W        W43232   0.419  27.070   1.052  0.0044 -0.1595 -0.2922
    1W        W43233   2.592  25.954   0.254  0.1444 -0.3212  0.0630
    1W        W43234   0.195   2.185   7.168  0.0785  0.1736  0.0621
    1W        W43235  26.664  21.291   6.802 -0.0535 -0.1137  0.0045
    1W        W43236  17.186  12.303   0.792  0.0150 -0.1520 -0.0981
    1W        W43237  24.873  26.864   1.177  0.1120  0.1788 -0.0815
    1W        W43238   6.697   9.181   1.534 -0.1448  0.2136 -0.2287
    1W        W43239  13.204  20.778   1.987 -0.0228 -0.0084 -0.3391
    1W        W43240  23.130  28.061   8.592  0.1463  0.0355 -0.0969
    1W        W43241  26.565   4.117   7.744  0.2476 -0.1894  0.0816
    1W        W43242   4.071  16.780   1.260 -0.4017 -0.0030  0.2188
    1W        W43243   2.991   5.543   1.108  0.2888 -0.0880  0.0762
    1W        W43244   2.844  20.216   0.356  0.0515  0.1923 -0.0278
    1W        W43245  20.060   5.641   1.881 -0.2281  0.0897 -0.0330
    1W        W43246   8.848   3.570   2.204  0.0881  0.0156 -0.1648
    1W        W43247   7.821   5.903   7.003  0.1025 -0.1234 -0.2164
    1W        W43248  14.748  14.068   2.110  0.1045 -0.3091  0.2152
    1W        W43249   4.994  18.450   8.920  0.0424 -0.0836 -0.1855
    1W        W43250  27.948  13.510   7.664 -0.1905  0.4027 -0.1354
    1W        W43251   7.293  10.343   1.876  0.1843  0.0394  0.2826
    1W        W43252  13.719   9.893   0.607 -0.1266 -0.0461  0.0465
    1W        W43253   1.711   1.903   1.180 -0.1795  0.1518 -0.0049
    1W        W43254  19.792  17.100   6.849  0.2982  0.1143  0.0655
    1W        W43255  16.425  24.646   1.750  0.1995 -0.0346  0.0840
    1W        W43256  21.717  14.340   0.051 -0.1891  0.1696  0.2423
    1W        W43257  22.471  25.401   8.094  0.1741 -0.1953 -0.0848
    1W        W43258   8.736  28.502   2.602 -0.0872 -0.2730  0.0229
    1W        W43259   4.694  29.727   9.000  0.2969  0.2000 -0.0477
    1W        W43260  20.255   4.926   7.121 -0.3717 -0.0207 -0.0855
    1W        W43261  11.360   5.019   8.786  0.1371 -0.1328 -0.2226
    1W        W43262  15.984  25.286   6.833 -0.1877 -0.3456  0.1638
    1W        W43263  28.057   7.610   8.171  0.1063  0.0290 -0.4079
    1W        W43264   4.167  22.643   0.786 -0.0125 -0.1766 -0.0451
    1W        W43265  25.920  27.013   8.428 -0.0783 -0.2575  0.1398
    1W        W43266   2.169  21.048   8.267  0.0399 -0.0896  0.0660
    1W        W43267  25.112   0.566   3.311  0.4794  0.1453 -0.3930
    1W        W43268  22.651  20.351   8.525  0.1943 -0.0809 -0.1272
    1W        W43269  27.882   5.561   0.966  0.3414  0.3145 -0.1707
    1W        W43270   5.557  17.928   7.413 -0.1466  0.2259 -0.2879
    1W        W43271   3.198   7.493   1.618  0.4166  0.2372 -0.3501
    1W        W43272  10.686  15.317   1.507 -0.0831  0.0459  0.1066
    1W        W43273   8.157  24.633   8.240 -0.0891 -0.1809 -0.0656
    1W        W43274  14.681   2.271   0.711  0.1673 -0.2588 -0.0651
    1W        W43275  16.420  18.081   1.565 -0.2961 -0.2119  0.2673
    1W        W43276   3.012   8.989   1.087  0.1202 -0.2098  0.1802
    1W        W43277   5.821   1.481   9.198 -0.0209  0.1660 -0.1398
    1W        W43278  18.269   0.089   8.625 -0.1599 -0.0328  0.1923
    1W        W43279  27.634  17.157   0.896  0.4121  0.1354 -0.0019
    1W        W43280   1.229  23.477   8.389  0.0492 -0.2974 -0.1199
    1W        W43281  12.177   9.269   0.386  0.0892  0.1862  0.0923
    1W        W43282  22.261  27.133   1.660  0.3065 -0.1217 -0.3331
    1W        W43283   0.779   0.826   8.746  0.2386  0.1750  0.0485
    1W        W43284   3.703   1.897   2.823  0.0851 -0.0092  0.0798
    1W        W43285   3.280  15.074   8.172  0.1160 -0.1899 -0.0233
    1W        W43286  20.380  11.070   0.383  0.0773 -0.3540 -0.0059
    1W        W43287   3.744   6.475   8.762 -0.0499  0.0689  0.2446
    1W        W43288  22.436  25.419   6.931 -0.1628  0.1645  0.0190
    1W        W43289  23.549   4.762   1.340 -0.0922  0.1000  0.2057
    1W        W43290  25.657  14.955   1.089 -0.0514 -0.3012  0.0695
    1W        W43291  19.547  17.396   8.709  0.0179 -0.3591 -0.0760
    1W        W43292  12.934  10.080   6.330 -0.0317 -0.0756 -0.2885
    1W        W43293  15.550  27.217   0.493 -0.3247  0.3748 -0.2063
    1W        W43294  22.815  14.116   2.023 -0.0363 -0.0600  0.1133
    1W        W43295  19.678  21.325   8.592  0.0216  0.3899  0.3623
    1W        W43296   5.057  10.437   8.610  0.0978 -0.0895 -0.0418
    1W        W43297   7.405   5.256   7.449  0.2137  0.1182 -0.3865
    1W        W43298  19.258   3.408   3.179  0.1075 -0.1198 -0.2579
    1W        W43299   7.946  19.169   7.309  0.1260 -0.1382 -0.1794
    1W        W43300   1.089  19.083   8.986  0.0185  0.2085  0.0989
    1W        W43301   4.766  25.267   2.654  0.2173  0.2371 -0.0061
    1W        W43302  22.815  23.215   0.695 -0.1869  0.2362 -0.3087
    1W        W43303  26.228  22.877   2.458 -0.1469 -0.3491  0.1561
    1W        W43304  15.874  20.714   0.140  0.3416  0.1003  0.2767
    1W        W43305  16.525   3.121   1.509  0.1005  0.0521  0.3547
    1W        W43306  21.472  11.529   5.981  0.0356 -0.2222 -0.1589
    1W        W43307   3.657   0.943   9.372  0.2162  0.0824  0.2064
    1W        W43308  11.323   6.705   6.877 -0.2854  0.1963  0.2418
    1W        W43309  18.571  16.918   3.011  0.0618 -0.0056 -0.0273
    1W        W43310  11.469  25.642   8.098 -0.1807  0.1096  0.1059
    1W        W43311  29.625  18.312   6.796  0.1709 -0.2143 -0.0741
    1W        W43312   4.578  27.994   1.010  0.1646  0.0707 -0.1824
    1W        W43313  26.535  18.943   7.600  0.2740  0.0462 -0.1377
    1W        W43314  23.164   1.679   2.770 -0.0330  0.1967 -0.2929
    1W        W43315  15.326  23.894   1.208  0.2237 -0.4193 -0.0815
    1W        W43316   1.850  24.325   1.864 -0.4213  0.2475 -0.0801
    1W        W43317  27.398   7.118   0.894  0.0426  0.0150  0.0166
    1W        W43318  19.733   4.606   0.109 -0.1051  0.1542 -0.3142
    1W        W43319  24.324  23.943   2.800  0.2211 -0.2800 -0.2204
    1W        W43320  25.287  13.741   0.034  0.2068 -0.1263 -0.3148
    1W        W43321  11.233  11.160   2.700  0.0301  0.1006 -0.0334
    1W        W43322   9.003  23.459   8.890 -0.0851 -0.1487  0.0731
    1W        W43323  17.847   2.742   8.494  0.0051  0.1787  0.0579
    1W        W43324   8.205  28.833   8.141 -0.2016 -0.2444  0.1385
    1W        W43325  16.551  15.432   7.157  0.1236 -0.1249 -0.4423
    1W        W43326   0.402   6.137   7.933 -0.1375  0.4916 -0.1880
    1W        W43327  11.714  14.298   1.148  0.1855  0.1268 -0.1222
    1W        W43328  13.485   4.334   3.084 -0.2527 -0.1245 -0.0526
    1W        W43329  12.729   1.644   8.969  0.1439 -0.0116  0.1478
    1W        W43330  12.004   2.014   9.545  0.1338  0.3166  0.0085
    1W        W43331  25.228  23.823   1.077 -0.0719  0.1060  0.0843
    1W        W43332   3.169  11.328   7.642  0.0752  0.0365 -0.2169
    1W        W43333  20.059  17.701   1.630  0.0786 -0.0837 -0.3183
    1W        W43334   6.453  28.291   7.171 -0.0172 -0.1049  0.2335
    1W        W43335  14.296  16.339   2.316  0.1356 -0.1074  0.0836
    1W        W43336   3.776  15.095   0.750  0.0993  0.1351 -0.1563
    1W        W43337  24.621  16.457   9.155  0.0527  0.1607 -0.2615
    1W        W43338   5.860  15.528   2.168 -0.1565  0.2453 -0.1554
    1W        W43339  21.257  20.759   9.284  0.0080 -0.0063 -0.3525
    1W        W43340   9.005   6.968   2.976 -0.1950 -0.1629 -0.0047
    1W        W43341  25.674  26.240   8.733  0.1747  0.3147 -0.1708
    1W        W43342  15.071   9.376   0.405  0.1086  0.2695 -0.2647
    1W        W43343  27.399   8.893   9.254  0.1598 -0.4347  0.2979
    1W        W43344  17.553  19.621   0.765 -0.1485  0.0708 -0.0029
    1W        W43345  14.192  17.295   1.778 -0.0779  0.1385 -0.1620
    1W        W43346  26.307   8.735   2.164  0.2278 -0.1019 -0.0953
    1W        W43347   2.727  13.415   7.611  0.0832 -0.1049 -0.2438
    1W        W43348   4.224  14.084   0.736  0.1935  0.0217  0.1032
    1W        W43349  13.550  13.165   7.954 -0.0160 -0.1087 -0.2744
    1W        W43350  23.748  26.978   0.335  0.3502  0.1117  0.1669
    1W        W43351  16.570  23.133   0.447 -0.2862 -0.0110  0.2383
    1W        W43352  23.987  14.720   8.285  0.1589 -0.2727  0.2018
    1W        W43353  27.848   6.857   9.157 -0.0046 -0.0932 -0.0190
    1W        W43354   6.357  20.131   0.519  0.0957 -0.1681  0.0431
    1W        W43355   8.249  29.509   0.956 -0.0162 -0.0514  0.0682
    1W        W43356   4.818   3.406   3.365  0.2468  0.2145 -0.1967
    1W        W43357  15.910  12.418   1.965  0.2772 -0.0302  0.1911
    1W        W43358  13.595  17.159   8.068 -0.0001 -0.3366 -0.0632
    1W        W43359  24.979   1.715   9.161 -0.3977 -0.0210 -0.0460
    1W        W43360  23.648  18.713   7.612 -0.1103 -0.1036 -0.1039
    1W        W43361  19.674  20.914   1.943  0.1676  0.2732  0.1217
    1W        W43362  15.246   5.242   7.517  0.1773  0.2030  0.0278
    1W        W43363  13.615  15.715   2.380  0.1032  0.0552 -0.0388
    1W        W43364  14.386   0.238   8.638 -0.3487 -0.1878 -0.0736
    1W        W43365  25.352  27.678   2.265  0.2562 -0.0783 -0.0602
    1W        W43366  16.326  11.642   0.453  0.1917 -0.2091  0.1147
    1W        W43367  11.217  23.485   8.897 -0.0914 -0.2340 -0.4634
    1W        W43368   0.255  20.637   1.988  0.3094  0.1926 -0.0131
    1W        W43369   5.473  16.664   1.620  0.0705  0.1391  0.2480
    1W        W43370   0.987   0.634   2.322 -0.1782  0.0140  0.0783
    1W        W43371   2.985  23.444   8.502 -0.1398  0.2154 -0.0427
    1W        W43372  10.916   0.795   8.920 -0.2537 -0.0099  0.1336
    1W        W43373  13.240  18.039   0.956  0.2284 -0.1201  0.2725
    1W        W43374   6.478  13.152   8.767  0.0073 -0.2401 -0.2877
    1W        W43375   7.187  23.928   6.850  0.0009 -0.0001 -0.0365
    1W        W43376  11.393  28.477   7.682 -0.1925  0.2271  0.1258
    1W        W43377  28.106  21.794   8.304  0.2359  0.1875  0.1068
    1W        W43378   7.939  18.644   0.869  0.0516 -0.3027  0.2991
    1W        W43379  24.819   1.299   2.212  0.2127 -0.1374  0.4188
    1W        W43380   4.190   8.806   1.254  0.2020  0.0672 -0.0937
    1W        W43381  16.777   3.347   0.002  0.4269  0.0701 -0.1753
    1W        W43382   2.767  24.595   8.812 -0.0318  0.0308 -0.3296
    1W        W43383  16.185   5.735   1.435  0.0848 -0.3077 -0.0333
    1W        W43384  13.412  10.814   8.657 -0.0732 -0.0187 -0.0356
    1W        W43385   1.389   2.370   0.051 -0.1905  0.1274  0.1803
    1W        W43386  14.630  14.975   0.215  0.0336  0.0451  0.1333
    1W        W43387  20.408   7.615   0.997  0.1090  0.1198  0.0447
    1W        W43388  27.866   1.332   0.790 -0.0645 -0.2345 -0.1824
    1W        W43389  28.574  21.971   9.427  0.0715  0.0657 -0.2430
    1W        W43390   8.564   2.322   0.607 -0.2540 -0.4694 -0.0465
    1W        W43391   6.939   1.809   0.028  0.0460  0.1137 -0.1244
    1W        W43392  15.358  11.137   7.130  0.0872  0.1331 -0.1158
    1W        W43393   6.334   1.966   8.484 -0.3130 -0.0986  0.0177
    1W        W43394   2.318   0.058   7.948 -0.0955  0.0880 -0.3920
    1W        W43395  25.629   6.830   7.596  0.2772 -0.3026  0.2255
    1W        W43396  17.459  22.432   2.826  0.2212  0.3234 -0.0403
    1W        W43397  10.502  21.198   2.006 -0.0806  0.0456  0.1194
    1W        W43398  14.667   7.592   6.947 -0.0634  0.0060  0.2914
    1W        W43399  13.561  28.691   2.766 -0.0580  0.1578 -0.0988
    1W        W43400  21.401   3.901   7.591  0.2447 -0.4518  0.1251
    1W        W43401   6.818   8.623   2.598  0.4790 -0.3004  0.1697
    1W        W43402  29.148  15.098   0.001  0.3759 -0.1424 -0.1630
    1W        W43403  23.714  20.399   2.321 -0.0540 -0.1650 -0.0716
    1W        W43404   9.184  19.764   0.112  0.0754  0.2653 -0.1019
    1W        W43405  11.331  18.141   1.529 -0.2197  0.4727 -0.1538
    1W        W43406   0.106  16.665   7.123 -0.2049  0.0036 -0.3728
    1W        W43407  21.016  16.984   1.919 -0.1640  0.0199 -0.0902
    1W        W43408   5.341   4.487   3.777  0.0668 -0.0743 -0.0059
    1W        W43409  14.484  22.306   8.416  0.3245  0.4540 -0.2239
    1W        W43410   5.676  15.836   0.529  0.1925  0.2778  0.1987
    1W        W43411  22.171  18.674   8.340 -0.0356  0.3761 -0.1163
    1W        W43412   2.414  15.980   1.606  0.0095 -0.1512  0.0823
    1W        W43413   4.374  14.540   6.897 -0.2684 -0.0715 -0.0247
    1W        W43414   7.232  25.294   7.488  0.0027 -0.0434  0.0878
    1W        W43415  10.452  16.875   7.992  0.1767 -0.0931  0.2362
    1W        W43416  13.385   1.020   8.030 -0.0762  0.2543 -0.1874
    1W        W43417   6.407   1.907   1.381  0.0136  0.0711 -0.0142
    1W        W43418  11.419  12.008   7.733  0.0184 -0.2321 -0.0681
    1W        W43419   2.992  26.697   1.090  0.0705 -0.0648 -0.1179
    1W        W43420  12.239   7.444   8.444 -0.1652 -0.2644 -0.3164
    1W        W43421  10.387  22.541   1.680 -0.0272  0.1624 -0.1115
    1W        W43422   8.200  10.607   1.709 -0.1632 -0.0219  0.1135
    1W        W43423   2.590   4.494   7.514 -0.0208 -0.0360 -0.3313
    1W        W43424  15.608  16.826   8.047 -0.0805 -0.0354  0.1613
    1W        W43425   3.384  28.280   9.136 -0.3102 -0.0449 -0.0280
    1W        W43426   1.563   9.681   7.092  0.2519 -0.0171  0.0192
    1W        W43427  13.542   2.440   6.833  0.0511  0.1525 -0.1759
    1W        W43428  13.091  28.850   8.236  0.0500  0.1397  0.4286
    1W        W43429  25.985  23.985   8.875 -0.0918  0.2252 -0.0799
    1W        W43430  11.074   4.828   1.036  0.1871 -0.0395  0.6251
    1W        W43431  13.525  12.406   7.872 -0.2464 -0.1337  0.0990
    1W        W43432   5.598  25.181   6.575  0.3061 -0.1405 -0.2030
    1W        W43433  15.456  26.044   8.829  0.1020  0.3593  0.0100
    1W        W43434   5.701  19.221   0.654 -0.1116  0.0503 -0.1882
    1W        W43435   3.261  26.996   0.513 -0.2811  0.0657 -0.0320
    1W        W43436  18.175   7.700   8.394 -0.0943  0.1733 -0.0412
    1W        W43437  26.190   7.393   0.419 -0.4079 -0.0394 -0.0258
    1W        W43438   8.775  23.539   0.705  0.0564 -0.3243 -0.0567
    1W        W43439  16.859   0.005   2.568  0.0483 -0.0491  0.1389
    1W        W43440  11.104  24.606   0.352  0.2131 -0.0557 -0.2770
    1W        W43441  12.236  21.795   1.333 -0.3020  0.0581 -0.0858
    1W        W43442  19.826   4.411   1.483  0.4060 -0.0265  0.0391
    1W        W43443  25.753   0.331   8.422  0.1732 -0.2338  0.2241
    1W        W43444  21.482  15.363   1.499 -0.1541  0.2167  0.2892
    1W        W43445  12.947  28.134   7.487  0.0075 -0.0902  0.1679
    1W        W43446  21.591   6.602   2.751  0.1493  0.0477  0.0969
    1W        W43447  26.507  14.758   8.385 -0.1177 -0.1476 -0.1557
    1W        W43448  14.645  24.762   0.191 -0.2558  0.2198 -0.3666
    1W        W43449  28.083  22.968   2.535 -0.0493 -0.0101  0.2684
    1W        W43450  18.147  20.235   0.106 -0.3570  0.2980 -0.1305
    1W        W43451  19.852  21.565   0.891  0.3066 -0.0383 -0.1492
    1W        W43452   3.948  21.154   6.833  0.1352  0.0036 -0.1289
    1W        W43453  10.425  24.562   7.057 -0.0357 -0.2132  0.3367
    1W        W43454  14.311   7.842   7.318 -0.0148 -0.2976 -0.2829
    1W        W43455  29.336  12.516   0.248 -0.1892  0.0970  0.2842
    1W        W43456   7.318  19.401   0.764  0.2038 -0.0045  0.0372
    1W        W43457  24.661  13.055   8.668 -0.3389 -0.3710 -0.0042
    1W        W43458   9.896  28.538   1.474  0.0285 -0.0351 -0.2274
    1W        W43459  23.203  28.036   2.066 -0.3826 -0.4072  0.1706
    1W        W43460  23.843  13.916   8.819  0.0067 -0.0887 -0.3659
    1W        W43461   0.808  17.035   8.319  0.1950 -0.1338 -0.0790
    1W        W43462  21.265  12.661   8.224  0.0488  0.0062  0.0899
    1W        W43463   4.428  12.339   2.323  0.1142  0.0030  0.2813
    1W        W43464   3.847   4.420   2.203 -0.0627 -0.0499  0.0716
    1W        W43465   9.412   4.257   0.909  0.1177 -0.2439 -0.1325
    1W        W43466  13.987   2.920   0.841 -0.2271  0.1518 -0.1710
    1W        W43467   9.872  18.842   7.973  0.4213 -0.0268  0.0948
    1W        W43468   6.028   8.586   7.855  0.2753 -0.1088  0.0342
    1W        W43469  19.283  19.954   9.131 -0.0682 -0.1515 -0.1422
    1W        W43470  24.584   5.429   0.043 -0.1964  0.0788 -0.0337
    1W        W43471  27.724  22.406   1.322 -0.1346 -0.2102 -0.3738
    1W        W43472  18.232  18.429   6.560 -0.1637 -0.1063  0.0511
    1W        W43473   7.014  15.808   9.311  0.0136 -0.1694  0.2490
    1W        W43474  29.386   9.818   1.046  0.1947  0.1379 -0.3569
    1W        W43475   8.864   7.662   7.237  0.0369  0.2658  0.1054
    1W        W43476  16.468   0.437   0.056  0.0338  0.0741  0.0291
    1W        W43477  26.317  16.796   5.855  0.1773 -0.0373  0.1611
    1W        W43478   7.506  25.630   7.009 -0.3692 -0.0587  0.0558
    1W        W43479  23.908  16.263   6.036 -0.1514  0.1955 -0.0761
    1W        W43480  16.835  26.925   9.179  0.0284  0.0576 -0.1569
    1W        W43481  19.238   3.452   2.331 -0.0568  0.0608  0.1912
    1W        W43482  20.213  19.861   0.085 -0.1313 -0.1606  0.3985
    1W        W43483  28.577  24.415   8.918  0.1546  0.2255  0.2452
    1W        W43484  19.858  20.710   9.115 -0.0000  0.3237 -0.4326
    1W        W43485  11.438  15.379   0.649 -0.4153  0.2318 -0.0292
    1W        W43486  17.427  25.336   7.980  0.2035  0.1304  0.0718
    1W        W43487  18.671  20.208   9.553  0.1040 -0.2863 -0.2236
    1W        W43488   9.375  29.427   0.646  0.0914 -0.1937 -0.0691
    1W        W43489  25.886  15.092   8.094  0.0118  0.3074 -0.2495
    1W        W43490   5.825   2.036   1.106  0.1209  0.1939  0.0605
    1W        W43491  20.375   7.333   7.996 -0.0090  0.1175 -0.2401
    1W        W43492   0.339  12.984   9.060 -0.1736  0.3231  0.1996
    1W        W43493  19.227   4.512   7.918  0.1074  0.0872  0.0368
    1W        W43494  21.335   8.767   8.254  0.0493 -0.1161  0.0235
    1W        W43495  19.229  26.306   8.401 -0.0334  0.0660  0.1120
    1W        W43496  23.499   8.216   8.287  0.0880 -0.0844  0.0927
    1W        W43497   4.061  18.462   0.888 -0.2233 -0.2192  0.1621
    1W        W43498  12.107  15.406   8.267  0.1636 -0.0137 -0.0264
    1W        W43499  26.394  20.573   7.001 -0.1570 -0.1437 -0.0274
    1W        W43500   1.960  27.862   1.592  0.1633 -0.1332 -0.0139
    1W        W43501  12.052  29.196   2.849  0.0651 -0.0533  0.0550
    1W        W43502  18.153  12.454   0.791  0.0092 -0.2932  0.0070
    1W        W43503  23.963  18.945   6.895 -0.0585 -0.0524  0.0521
    1W        W43504   8.172  17.021   7.796 -0.0726  0.0126  0.4074
    1W        W43505   4.471  25.175   1.435 -0.0938  0.0555  0.3179
    1W        W43506  15.831  14.596   8.893 -0.0281 -0.1940  0.1277
    1W        W43507   4.923  25.866   0.161  0.3181 -0.0600 -0.1157
    1W        W43508  11.315   2.340   2.590  0.2646 -0.3100  0.2234
    1W        W43509   5.218   7.639   0.007  0.1280  0.1442  0.2670
    1W        W43510  21.220  19.075   0.066  0.0393 -0.1489 -0.4063
    1W        W43511   7.342  24.427   9.552  0.0073 -0.0623 -0.0429
    1W        W43512  17.757  17.554   9.157 -0.0769  0.1206 -0.0156
    1W        W43513   5.193   7.019   2.787  0.2050  0.2208  0.1041
    1W        W43514  12.966   7.986   7.700  0.1143  0.1562  0.2427
    1W        W43515   3.994  22.633   9.046 -0.2615  0.2071 -0.1558
    1W        W43516  19.104  27.126   0.412  0.0285  0.2152  0.1033
    1W        W43517  23.484  24.795   2.156 -0.0248 -0.2484 -0.1139
    1W        W43518  13.362   0.154   7.524 -0.0291  0.0567  0.0352
    1W        W43519   2.058   5.056   1.974  0.0426 -0.0560  0.2341
    1W        W43520   9.614  14.439   1.832 -0.3416 -0.0016 -0.0755
    1W        W43521   3.539   8.971   9.288  0.0153 -0.0540 -0.0040
    1W        W43522  29.236   4.308   7.324 -0.0347 -0.0538 -0.0874
    1W        W43523   5.203   6.359   1.926  0.0481  0.5832 -0.0122
    1W        W43524   0.790  13.189   8.814  0.1909 -0.0355 -0.1621
    1W        W43525   5.123  29.415   0.162 -0.3663 -0.0475 -0.1160
    1W        W43526   2.317   1.444   2.523  0.0305 -0.1307  0.0969
    1W        W43527  25.290  22.880   8.773  0.2050  0.1840 -0.1638
    1W        W43528   3.977   5.615   2.890  0.3862 -0.0206 -0.1577
    1W        W43529  11.878   6.908   2.461 -0.3289  0.3611 -0.3880
    1W        W43530   2.393   7.844   6.929 -0.1202 -0.0869  0.0301
    1W        W43531  17.737   0.528   7.368 -0.2186 -0.0963 -0.1245
    1W        W43532  11.425   4.147   8.522 -0.1466 -0.2198  0.1729
    1W        W43533  14.362  10.278   8.597 -0.0362 -0.1282 -0.0412
    1W        W43534  10.972   7.744   0.071  0.0963 -0.3445 -0.2351
    1W        W43535  22.112  18.550   9.355  0.1287  0.0082 -0.0870
    1W        W43536   9.624  12.571   2.143  0.1277  0.2106 -0.0857
    1W        W43537  22.538  11.172   7.987  0.0117 -0.1208  0.1219
    1W        W43538   9.460   1.779   2.364 -0.0042  0.1781  0.0576
    1W        W43539  10.207  15.245   1.573 -0.0477  0.2576  0.2606
    1W        W43540  25.530   1.745   7.678 -0.1483  0.0597 -0.2720
    1W        W43541  25.038  15.292   5.753  0.2851 -0.3702  0.1366
    1W        W43542  12.575   4.105   2.826 -0.0890 -0.0377  0.0657
    1W        W43543   5.613  21.875   0.934 -0.4981  0.0949  0.0867
    1W        W43544  27.998  23.848   7.467  0.0731 -0.0478 -0.1299
    1W        W43545  20.753   7.545   7.581  0.1724  0.2829  0.5443
    1W        W43546  15.487  22.001   1.035  0.0520  0.0908 -0.1556
    1W        W43547  18.775  21.537   9.120 -0.1775 -0.0098 -0.0485
    1W        W43548   7.850  17.815   1.947  0.1038  0.2709 -0.2674
    1W        W43549   1.987  10.459   1.153 -0.0024  0.2476  0.0447
    1W        W43550  14.901  19.109   9.395  0.1210 -0.2814 -0.0012
    1W        W43551   6.870  25.521   2.861  0.0213  0.2103 -0.0416
    1W        W43552  27.787  23.101   0.059 -0.2703 -0.0129 -0.1335
    1W        W43553  27.405  29.508   2.232  0.0082  0.1005 -0.0285
    1W        W43554  17.046   6.601   2.631  0.2891 -0.1346 -0.0731
    1W        W43555   3.740  18.871   7.180 -0.0265  0.2086 -0.0943
    1W        W43556  16.389  22.208   3.661 -0.1000 -0.2312 -0.1393
    1W        W43557  18.119  11.814   6.219 -0.0937  0.1040  0.0343
    1W        W43558   8.828   5.552   8.155  0.3942  0.0813  0.1483
    1W        W43559   2.388  21.180   9.432  0.1675  0.2020 -0.0607
    1W        W43560   7.537  28.242   1.633  0.0522 -0.3722  0.0815
    1W        W43561   9.393   3.679   2.577 -0.1077  0.0259  0.0827
    1W        W43562   1.778   3.321   2.438 -0.1316 -0.0252  0.1034
    1W        W43563  18.019  16.437   7.475 -0.2077 -0.2497 -0.2109
    1W        W43564   3.533   5.442   9.060  0.3288 -0.1164 -0.1171
    1W        W43565  19.252  14.289   1.458  0.1621  0.1154 -0.1195
    1W        W43566  20.970  27.424   9.222  0.3835 -0.2288  0.0088
    1W        W43567  14.231  18.282   2.078  0.0100 -0.0895 -0.2108
    1W        W43568  23.165  10.809   0.365  0.1347  0.0557  0.3419
    1W        W43569  25.676  12.068   8.762  0.3643 -0.1230  0.1289
    1W        W43570  18.608  25.270   2.156  0.0861 -0.0956 -0.1663
    1W        W43571  11.163  13.224   2.056  0.2585 -0.0327  0.0079
    1W        W43572  13.022  15.926   1.997  0.0652 -0.3936  0.4045
    1W        W43573   0.319   7.459   2.902  0.0336 -0.0899 -0.0379
    1W        W43574  12.152  21.225   0.784 -0.1169 -0.0331 -0.2944
    1W        W43575  13.305   8.383   0.278  0.1198  0.0986 -0.0139
    1W        W43576  15.043  14.076   8.765 -0.2363  0.0254  0.1173
    1W        W43577  20.715   2.724   3.558 -0.0941 -0.0532 -0.1909
    1W        W43578  18.709  21.570   0.407 -0.2110 -0.4475  0.0670
    1W        W43579  18.842   4.937   7.244  0.1745 -0.0529  0.0099
    1W        W43580   7.943  18.305   8.736 -0.1316  0.0004 -0.1284
    1W        W43581  27.824   5.526   7.494  0.1290 -0.0233 -0.3277
    1W        W43582  19.635   6.922   8.242  0.0062 -0.3380 -0.0388
    1W        W43583   2.699   1.051   7.934 -0.0470  0.2060 -0.2175
    1W        W43584  22.231   0.453   7.098  0.2179 -0.0980 -0.1093
    1W        W43585  24.559  14.808   0.598  0.3259 -0.0246 -0.2072
    1W        W43586  11.604  26.528   2.312 -0.0673  0.0399 -0.0127
    1W        W43587  26.265  24.373   2.138  0.2752 -0.3252  0.0898
    1W        W43588  29.187  25.178   2.771  0.0465 -0.0404 -0.3009
    1W        W43589  17.070  17.002   8.910 -0.1238 -0.0739 -0.4400
    1W        W43590  21.350   1.944   8.802 -0.0845  0.1448 -0.0034
    1W        W43591  26.369  13.970   0.422  0.2559  0.1111  0.0296
    1W        W43592  15.551  26.822   0.199  0.2114 -0.1024  0.0126
    1W        W43593  14.033   8.736   1.995  0.0704 -0.0489 -0.3430
    1W        W43594  19.376  24.279   8.094 -0.0971  0.0969  0.2734
    1W        W43595  15.537  19.329   7.641  0.1023 -0.5000 -0.0866
    1W        W43596   2.018  11.954   7.703 -0.1925  0.1083  0.0987
    1W        W43597  15.478  28.472   7.239  0.0424  0.1834  0.1414
    1W        W43598   9.184  15.925   3.044  0.1626 -0.0784  0.0758
    1W        W43599   3.659  21.263   0.191 -0.1111  0.1058  0.2366
    1W        W43600  15.679   0.337   0.680  0.0416 -0.1535 -0.2009
    1W        W43601  16.988  28.839   8.100 -0.0834 -0.2211  0.0846
    1W        W43602  22.172  15.579   7.122  0.4033  0.0101 -0.1674
    1W        W43603  26.064   2.742   2.939 -0.1225 -0.0104 -0.0135
    1W        W43604  26.032  28.975   8.718  0.4146 -0.0032 -0.2832
    1W        W43605  22.383  11.888   1.024  0.1179  0.2679 -0.1180
    1W        W43606  12.425   2.803   6.673 -0.0259  0.0043  0.1429
    1W        W43607   9.063   0.052   8.972  0.0820 -0.0548 -0.2661
    1W        W43608   2.720   6.062   1.160  0.3470  0.1554  0.2729
    1W        W43609  10.181  27.010   0.436  0.0342  0.0656  0.1265
    1W        W43610  12.665   1.581   1.096  0.2602 -0.0370  0.1923
    1W        W43611  24.690  17.124   9.359  0.0119  0.0580 -0.1098
    1W        W43612  10.763  10.506   2.189 -0.1069  0.1765  0.0897
    1W        W43613  25.065  11.800   6.805  0.1491  0.1694 -0.1628
    1W        W43614  24.429  21.894   9.451  0.0632  0.2077 -0.0637
    1W        W43615   6.948  19.435   0.414  0.4290  0.2961 -0.2181
    1W        W43616  14.000  19.679   8.778 -0.0428 -0.1639 -0.1063
    1W        W43617  22.481   6.197   8.694 -0.4714  0.1056  0.0681
    1W        W43618   8.478  25.304   8.636 -0.0346  0.0893 -0.1275
    1W        W43619  29.299  27.830   0.187  0.0420  0.0402 -0.0490
    1W        W43620   7.976  21.197   8.385  0.2005 -0.0483 -0.3574
    1W        W43621  15.348  10.916   1.813  0.1988 -0.1228 -0.1914
    1W        W43622  17.625  12.127   8.909 -0.2218  0.2975 -0.1086
    1W        W43623  14.942  17.137   8.083 -0.0077 -0.0828  0.2316
    1W        W43624  16.035  23.821   6.254  0.3788  0.2092  0.1956
    1W        W43625  16.946  15.898   7.451  0.3171  0.2173  0.3381
    1W        W43626  29.035  24.669   7.119  0.0661 -0.0095 -0.1517
    1W        W43627  15.662  29.525   6.623  0.0777 -0.2920 -0.1678
    1W        W43628  26.458  17.680   6.192 -0.0084 -0.0865  0.0221
    1W        W43629  24.783  29.491   3.900 -0.0382  0.1607  0.3754
    1W        W43630  16.069  22.437   9.401  0.0033  0.0301  0.2503
    1W        W43631   8.687  12.234   0.482 -0.1129 -0.1623  0.2497
    1W        W43632   9.900   0.726   9.273  0.2354 -0.0108 -0.1249
    1W        W43633  11.483  28.392   1.135  0.1938  0.1603 -0.0788
    1W        W43634   1.413   5.932   8.457 -0.1642 -0.2234  0.0854
    1W        W43635   8.182   6.186   2.468  0.1484 -0.0255 -0.0582
    1W        W43636  21.647   0.994   9.230 -0.1818  0.2350  0.0834
    1W        W43637  12.442  14.312   9.506  0.1267  0.1824 -0.1483
    1W        W43638  10.864   5.743   8.850 -0.1111  0.1290 -0.0565
    1W        W43639  20.884  26.778   3.157  0.0408  0.1573  0.1320
    1W        W43640   9.218  23.334   2.322  0.0165  0.1579 -0.0461
    1W        W43641  24.673   7.979   6.649 -0.2867  0.0946 -0.1028
    1W        W43642  11.496   3.316   1.636  0.2290 -0.1174  0.1989
    1W        W43643   7.916  16.035   8.546  0.0375 -0.1755 -0.1814
    1W        W43644  10.182   3.668   2.560  0.2503 -0.2446  0.1564
    1W        W43645  25.436  17.544   9.258  0.0411 -0.0585 -0.2091
    1W        W43646  14.402  19.656   7.508 -0.0889  0.0078 -0.0202
    1W        W43647  13.142   6.013   8.345 -0.1195  0.0190 -0.2475
    1W        W43648  15.536   7.063   2.787 -0.1304 -0.2119 -0.0099
    1W        W43649  18.228   9.906   7.137 -0.1484  0.1524  0.1526
    1W        W43650  19.561  18.701   0.206 -0.0674 -0.0101  0.1635
    1W        W43651  26.655   8.308   6.396  0.0197 -0.1299  0.2027
    1W        W43652   4.597  25.048   7.668  0.0390 -0.1284  0.2732
    1W        W43653  24.628  19.696   0.522 -0.1653  0.2615  0.2274
    1W        W43654  10.060  18.708   1.922  0.0149 -0.1307  0.3277
    1W        W43655  28.453   3.476   0.053  0.0097  0.2404  0.3082
    1W        W43656  23.595  18.295   6.493 -0.0575  0.1659  0.1025
    1W        W43657  20.887  24.097   1.327  0.1376  0.2307  0.0073
    1W        W43658  11.523  24.417   8.546  0.0538  0.1328 -0.1649
    1W        W43659  20.590  11.481   8.050 -0.1488 -0.3742 -0.0848
    1W        W43660  15.646  21.386   7.167  0.3669  0.2326 -0.1762
    1W        W43661  27.889  18.604   8.557 -0.0990 -0.0691  0.1158
    1W        W43662  29.395  10.408   0.091  0.0565  0.0660 -0.0044
    1W        W43663   0.240   5.659   1.420  0.0574 -0.0032  0.1615
    1W        W43664  11.254  24.769   2.199 -0.1129 -0.2043  0.0157
    1W        W43665  19.569  12.154   8.207  0.0865 -0.2416 -0.3380
    1W        W43666   0.503   3.151   1.630  0.0372 -0.0744 -0.0006
    1W        W43667  20.060  28.779   9.267 -0.2647  0.1667 -0.0459
    1W        W43668   0.108  14.085   1.531  0.1609 -0.1196 -0.3167
    1W        W43669  22.739   7.200   7.607 -0.3471 -0.0409  0.1610
    1W        W43670   2.819  15.283   2.164 -0.0849  0.2328  0.1756
    1W        W43671  13.636   0.557   7.793  0.1230  0.1517  0.0710
    1W        W43672  25.222   4.950   1.297  0.2077 -0.3519  0.1002
    1W        W43673  23.054  28.404   1.693 -0.0385  0.2672 -0.1746
    1W        W43674  22.676  23.933   7.570  0.1464  0.0671  0.0424
    1W        W43675  12.758  29.701   1.360 -0.0061 -0.1014 -0.2363
    1W        W43676   8.049  12.774   7.625 -0.1448  0.1226  0.2910
    1W        W43677   0.148  19.233   1.105 -0.0799 -0.1400  0.0771
    1W        W43678   7.426  26.688   2.474  0.0019  0.1519  0.0131
    1W        W43679  18.430  26.898   8.516 -0.3296  0.0528 -0.1318
    1W        W43680  12.377   4.213   1.206 -0.0233  0.1071 -0.1360
    1W        W43681  21.658  18.594   8.482  0.2762 -0.1519 -0.0126
    1W        W43682   9.048  29.800   0.907 -0.1772  0.0391  0.2383
    1W        W43683  18.492  21.339   9.527 -0.0055  0.4673  0.3365
    1W        W43684  15.883  10.699   8.002 -0.1574 -0.0377 -0.2535
    1W        W43685  14.980   1.133   2.100 -0.1313  0.1072  0.2510
    1W        W43686  17.793   7.313   8.451 -0.1354 -0.1466 -0.0634
    1W        W43687  25.225  29.679   9.048  0.2775  0.1719 -0.0459
    1W        W43688   6.422   2.211   3.232 -0.2474  0.1904  0.2942
    1W        W43689  15.282  25.618   3.036  0.2804 -0.0947  0.0937
    1W        W43690  11.850  18.407   2.298  0.0968 -0.3845  0.1349
    1W        W43691   8.129  14.900   0.571 -0.0385 -0.2660  0.0413
    1W        W43692  21.438  11.766   0.583  0.0422  0.0965 -0.0129
    1W        W43693  26.447   6.243   0.160 -0.0918  0.2352  0.2347
    1W        W43694   3.160   9.415   7.384 -0.0123 -0.0488 -0.0367
    1W        W43695  29.701  11.430   0.090 -0.3873  0.1170  0.2115
    1W        W43696  20.339  11.677   5.848  0.2397  0.4207  0.0168
    1W        W43697   7.748  15.573   8.821 -0.0755  0.0662 -0.2584
    1W        W43698   5.168  28.110   6.908  0.0472  0.0414  0.1857
    1W        W43699  21.957   0.650   7.662  0.1718  0.5208  0.1152
    1W        W43700   3.607  21.169   1.688  0.1464 -0.0045 -0.1026
    1W        W43701  23.030  16.444   7.143  0.1448  0.0353 -0.1590
    1W        W43702   3.432   4.344   2.545  0.1351 -0.3600  0.1442
    1W        W43703  12.277   9.115   1.663  0.2456 -0.3717 -0.2887
    1W        W43704  16.708   6.227   0.341  0.0033  0.0635 -0.0750
    1W        W43705  13.947   9.659   7.376 -0.0191 -0.1430  0.2492
    1W        W43706  16.371  14.221   6.778 -0.0365  0.3921  0.0969
    1W        W43707   2.548  24.018   0.309  0.0618 -0.1231  0.1446
    1W        W43708  14.295   4.109   8.589  0.1409 -0.0636  0.0372
    1W        W43709  26.287   8.374   2.811  0.1779 -0.0513  0.2011
    1W        W43710  21.307   0.408   2.079 -0.1016  0.0737 -0.0722
    1W        W43711  25.232  14.195   9.442 -0.0739 -0.1640 -0.1068
    1W        W43712   9.925  18.157   7.538 -0.3577 -0.1999 -0.2207
    1W        W43713  10.885  13.072   0.558 -0.5144 -0.1613  0.0493
    1W        W43714  29.490  16.340   6.677  0.0166  0.2621 -0.5768
    1W        W43715  10.952  24.436   0.881  0.0426 -0.0603  0.0306
    1W        W43716   9.814  19.208   0.892 -0.0748 -0.0547 -0.1233
    1W        W43717   7.082   0.262   7.120  0.1810 -0.2346 -0.0655
    1W        W43718  10.885  28.333   7.680 -0.0097 -0.5517  0.4850
    1W        W43719   7.302  15.595   7.691 -0.1418 -0.1116 -0.1355
    1W        W43720  29.637  10.402   7.884  0.0431 -0.0943 -0.2912
    1W        W43721   1.221   3.089   0.919  0.2536 -0.0183  0.1039
    1W        W43722  21.242  27.324   8.320 -0.2260  0.3359  0.1704
    1W        W43723   9.925  18.673   0.139 -0.0310 -0.2520 -0.2437
    1W        W43724  14.714   6.702   1.665 -0.0300 -0.3982  0.1486
    1W        W43725   3.566   9.141   7.074 -0.2490  0.0197 -0.3081
    1W        W43726  15.211   9.379   8.935  0.0282  0.2317 -0.1069
    1W        W43727  18.649  28.711   0.251 -0.0117  0.2425 -0.0176
    1W        W43728   5.404   5.017   0.135 -0.2046  0.1412  0.0223
    1W        W43729   3.265  25.345   1.739  0.2315 -0.0313 -0.0936
    1W        W43730  28.754  25.304   0.341 -0.0268 -0.2809 -0.0957
    1W        W43731  10.498   5.182   7.508  0.0596 -0.1557 -0.1216
    1W        W43732  12.149   2.340   1.545 -0.1320 -0.0239  0.2842
    1W        W43733  24.610  12.975   1.603  0.1001 -0.3586 -0.0930
    1W        W43734  19.130   3.062   0.338 -0.1047  0.1601 -0.1248
    1W        W43735  18.991   9.678   0.991  0.2306 -0.1323  0.1810
    1W        W43736  12.739  12.643   0.862  0.1404  0.3043 -0.0940
    1W        W43737  16.750  12.868   0.110 -0.1646 -0.1924 -0.0376
    1W        W43738  28.516  12.919   1.152  0.0772  0.0635  0.1087
    1W        W43739   2.760  25.428   0.353 -0.2574 -0.0728  0.0276
    1W        W43740  29.084  28.869   2.251 -0.0044  0.0245 -0.0743
    1W        W43741  24.548   1.410   3.561  0.4025 -0.0312 -0.0722
    1W        W43742   8.714   2.211   1.869  0.0166 -0.2231  0.0210
    1W        W43743  27.697   2.530   7.925  0.0579 -0.0302  0.0595
    1W        W43744  12.271  10.089   6.538  0.2085  0.1756  0.2420
    1W        W43745  22.114  16.055   0.523  0.0074 -0.0083 -0.1283
    1W        W43746   9.179   6.411   7.595 -0.0435  0.2971  0.0764
    1W        W43747  29.005  28.112   1.454  0.1389  0.1724  0.2125
    1W        W43748  12.911   8.046   2.991  0.2387 -0.0975  0.2545
    1W        W43749   7.419  14.742   8.332 -0.2167 -0.0084  0.3304
    1W        W43750  16.299   0.282   2.191 -0.2276 -0.0026 -0.2001
    1W        W43751  21.765  18.557   8.004  0.1085 -0.3498 -0.3982
    1W        W43752   1.157   7.598   1.264  0.0865  0.0588  0.0479
    1W        W43753   7.036  13.863   1.949  0.0425  0.3073  0.0383
    1W        W43754  13.306   3.760   2.216  0.1770  0.1339 -0.2741
    1W        W43755  18.769  25.315   9.314  0.2249 -0.1049  0.3132
    1W        W43756   4.884   4.648   6.646 -0.2486 -0.1161 -0.0378
    1W        W43757  13.836  11.414   7.997  0.1693  0.3523  0.1684
    1W        W43758  18.443   1.459   0.267  0.4111  0.0893  0.2456
    1W        W43759  11.214  14.212   1.060 -0.1187  0.0224 -0.1586
    1W        W43760  15.463   1.501   8.327 -0.1941 -0.0190 -0.2427
    1W        W43761  29.430  15.509   8.635 -0.0910  0.0389  0.0538
    1W        W43762   9.911   2.957   0.472 -0.1481  0.0153 -0.0958
    1W        W43763   0.309   8.036   0.104 -0.0466 -0.1001 -0.2120
    1W        W43764  25.840   3.348   0.946 -0.1060  0.0634 -0.2263
    1W        W43765  21.838  10.851   2.004  0.0466  0.3308  0.0382
    1W        W43766   8.349  17.825   1.978 -0.1009  0.2724 -0.0084
    1W        W43767  10.758  29.103   9.307 -0.0004  0.1218 -0.1486
    1W        W43768  11.415  28.611   9.437  0.1218  0.0709 -0.2712
    1W        W43769   3.677  24.703   7.304  0.1133  0.1292  0.1607
    1W        W43770   5.930  24.057   9.265 -0.1829 -0.0195  0.1206
    1W        W43771  11.522  14.809   0.398 -0.1439  0.2911  0.0227
    1W        W43772   3.552  12.367   1.693  0.1169  0.1018 -0.1774
    1W        W43773   9.642   6.552   8.601 -0.2821  0.2888 -0.2309
    1W        W43774   4.930  28.349   0.809 -0.1266  0.3021  0.0528
    1W        W43775  12.571  26.902   8.666  0.2739  0.0481 -0.2655
    1W        W43776  22.907   7.763   0.048  0.3049 -0.5757 -0.2211
    1W        W43777   0.702  21.998   0.280  0.0632  0.3975  0.2943
    1W        W43778  18.393   2.866   6.252  0.1148 -0.0740  0.2120
    1W        W43779   0.847  25.245   0.597 -0.2905 -0.1634  0.0421
    1W        W43780  14.880  27.501   9.101 -0.0699  0.0748 -0.1353
    1W        W43781   0.546  11.142   8.927 -0.0626 -0.2469  0.1047
    1W        W43782  10.811  29.276   7.522 -0.0143 -0.0517 -0.1402
    1W        W43783  28.935  13.844   1.342  0.2215 -0.0524  0.3348
    1W        W43784  18.120   8.046   0.405  0.0673  0.0656  0.2954
    1W        W43785  19.103  16.763   8.026  0.0668 -0.0075  0.1406
    1W        W43786  12.615  15.424   8.178  0.0046  0.0176  0.3103
    1W        W43787   5.387   3.633   6.981 -0.1234  0.0687 -0.1491
    1W        W43788  19.984  28.172   7.234 -0.0041  0.0719 -0.0353
    1W        W43789   2.465  22.074   1.375 -0.1335  0.0878  0.3960
    1W        W43790   4.929  28.104   2.595 -0.0584  0.3171  0.0536
    1W        W43791   8.504  26.488   7.918  0.2272 -0.1293  0.3052
    1W        W43792   9.643   2.912   2.333  0.1093  0.1550 -0.0877
    1W        W43793  17.880  11.178   1.107 -0.1128  0.2524  0.2220
    1W        W43794  15.822   2.416   2.935  0.0398  0.1553 -0.2276
    1W        W43795  11.405  17.382   7.023  0.1301  0.0925 -0.1356
    1W        W43796  17.400   5.812   1.934 -0.1340  0.1009 -0.1068
    1W        W43797   9.865   3.416   1.394  0.2981 -0.0205  0.0249
    1W        W43798  28.547   1.676   2.587  0.2643 -0.3337 -0.0464
    1W        W43799   1.805  17.387   6.763  0.0960  0.1468 -0.0632
    1W        W43800  13.815  20.641   1.841  0.2653 -0.0371  0.0006
    1W        W43801   9.688  11.719   8.363  0.1122  0.2838  0.3879
    1W        W43802  27.703  23.701   8.788  0.0247 -0.1136  0.0163
    1W        W43803  17.014   0.813   9.136 -0.2328  0.1235 -0.1139
    1W        W43804   0.311  21.701   0.299 -0.0831 -0.2227  0.0246
    1W        W43805  27.340   2.493   7.486  0.0674  0.1661 -0.3314
    1W        W43806  27.995  29.584   1.046 -0.1297  0.0416 -0.4005
    1W        W43807  16.480  19.843   9.486  0.1392 -0.0305  0.2164
    1W        W43808   3.389  21.899   7.684  0.0819  0.2861  0.0327
    1W        W43809   9.268  20.008   7.268 -0.1468  0.3211  0.1174
    1W        W43810  10.564  22.449   0.312 -0.0355  0.0506  0.1696
    1W        W43811  10.208  11.922   9.393 -0.0545 -0.0853  0.3240
    1W        W43812  17.593  23.607   8.796 -0.2495 -0.0952  0.2993
    1W        W43813  16.231   8.862   2.240  0.0747 -0.1230 -0.0990
    1W        W43814   6.125   1.575   1.157  0.2579 -0.0775 -0.0136
    1W        W43815  18.041  14.350   0.417  0.1670  0.0669 -0.1584
    1W        W43816  17.601  29.709   7.203  0.2176 -0.0652  0.0280
    1W        W43817   8.855  21.629   8.801 -0.2179  0.0827 -0.1365
    1W        W43818  11.582  15.727   1.369  0.0461 -0.0601 -0.2544
    1W        W43819  26.350  11.132   1.113  0.2036  0.0577  0.0936
    1W        W43820  26.321  25.088   7.386  0.3448  0.1539  0.0725
    1W        W43821  13.520  18.799   6.703  0.1078  0.2074 -0.1741
    1W        W43822   2.235   2.632   8.078  0.1307 -0.1923  0.4895
    1W        W43823  10.233  15.461   2.277 -0.0869  0.0347  0.0474
    1W        W43824  19.308  26.811   8.331  0.2355 -0.2669 -0.0047
    1W        W43825  22.690   1.326   0.797 -0.0859 -0.2438 -0.1051
    1W        W43826  23.219  22.580   8.926  0.2599 -0.1634 -0.0470
    1W        W43827   6.059  17.631   9.251  0.0530 -0.0417  0.2758
    1W        W43828   9.038  27.573   2.608 -0.2136  0.0196 -0.0336
    1W        W43829  22.232  17.533   7.085 -0.0893 -0.2025  0.2458
    1W        W43830   4.613  13.579   7.084  0.2178  0.2823 -0.1484
    1W        W43831  26.813  10.110   6.845 -0.1532  0.2561  0.3125
    1W        W43832  22.742   2.600   0.106 -0.2083 -0.2456 -0.3570
    1W        W43833  16.653  15.951   5.993  0.0686 -0.0840  0.1631
    1W        W43834  13.953  25.374   2.278  0.0174 -0.0585  0.2362
    1W        W43835  18.842  17.462   1.227 -0.1414 -0.0935  0.1520
    1W        W43836  15.917  13.845   6.616 -0.0500  0.2412  0.0019
    1W        W43837  24.687  20.319   9.423 -0.2086 -0.0236 -0.2158
    1W        W43838  19.472  21.175   8.082  0.1170 -0.0475  0.1364
    1W        W43839  16.344  17.676   9.199 -0.0692 -0.0181 -0.2807
    1W        W43840  18.235  19.796   9.434  0.0682 -0.0933  0.2779
    1W        W43841   4.506  15.887   0.389 -0.1350 -0.4462 -0.2413
    1W        W43842   3.665  25.401   1.140 -0.3005 -0.0868  0.3177
    1W        W43843  14.513  10.138   8.111 -0.0726  0.1169  0.1508
    1W        W43844   1.981  18.935   0.370  0.1439  0.3930 -0.1603
    1W        W43845   8.460   8.941   0.481 -0.1137 -0.2789 -0.0541
    1W        W43846  16.295  24.555   7.454  0.1778 -0.1558 -0.3798
    1W        W43847  26.894   5.817   1.430 -0.0341  0.0406 -0.0990
    1W        W43848  23.512  11.614   1.383 -0.3887  0.1243 -0.1676
    1W        W43849   8.267  22.671   8.377 -0.0661  0.0306 -0.2253
    1W        W43850   9.798   1.597   0.621 -0.3261  0.0575 -0.2409
    1W        W43851   7.855  13.691   8.092 -0.0163 -0.1368  0.2363
    1W        W43852  23.028  14.230   1.490  0.2897  0.0016  0.0732
    1W        W43853   2.239  21.395   7.975  0.3114 -0.0567 -0.0106
    1W        W43854  16.937  28.758   2.270  0.0539  0.0742  0.0349
    1W        W43855   9.882  18.261   1.552  0.0553  0.2751  0.1986
    1W        W43856   2.688  23.223   1.333  0.4281  0.1630  0.2668
    1W        W43857   1.184   0.532   7.293 -0.0599 -0.2027 -0.0519
    1W        W43858   8.627  22.275   0.280 -0.0492  0.1188  0.0415
    1W        W43859  16.563  19.994   2.405 -0.1033 -0.0540  0.2624
    1W        W43860  11.993   8.575   1.843 -0.0657 -0.0424  0.1042
    1W        W43861  11.158  20.270   1.108 -0.1592 -0.0010  0.0725
    1W        W43862  17.904  13.436   6.375  0.0516 -0.2106 -0.0111
    1W        W43863   8.884  27.051   2.619  0.0348 -0.2227  0.0115
    1W        W43864   1.150   4.332   8.036 -0.1489  0.3419  0.1135
    1W        W43865  12.960  25.126   1.516  0.0860  0.1611 -0.2268
    1W        W43866   7.912  14.110   1.379  0.5726  0.1122 -0.0547
    1W        W43867  21.727  14.856   7.989  0.4430  0.0470  0.0587
    1W        W43868  23.461  11.229   9.070 -0.2459  0.3013  0.0654
    1W        W43869   7.657  28.897   7.909  0.1208  0.3290 -0.0137
    1W        W43870  23.698  20.086   5.566 -0.2686  0.0718 -0.0460
    1W        W43871  23.352  23.793   8.451  0.2175 -0.2490  0.0240
    1W        W43872  16.847   4.829   8.341  0.0381 -0.2174 -0.0639
    1W        W43873  12.972   3.502   1.915  0.0627  0.0289 -0.1374
    1W        W43874  29.185  26.563   7.016 -0.2340  0.1432 -0.2671
    1W        W43875  14.226  25.350   9.016  0.1158 -0.0753 -0.1016
    1W        W43876   4.226  25.996   2.616  0.0361  0.3718 -0.4316
    1W        W43877   9.870   5.333   3.839 -0.0800 -0.0377  0.2606
    1W        W43878  13.809  22.387   9.014  0.1371  0.1101  0.0390
    1W        W43879  25.755  15.961   1.054 -0.3130  0.1150 -0.3280
    1W        W43880   2.958   5.591   6.732  0.3256  0.1400 -0.3461
    1W        W43881  12.517  17.089   9.296 -0.0324  0.1217 -0.0131
    1W        W43882  23.515  23.978   0.357 -0.1098  0.3371 -0.1449
    1W        W43883  16.433   9.718   7.926  0.0638  0.3263 -0.1858
    1W        W43884  16.511   0.566   7.125 -0.0116 -0.1214  0.1946
    1W        W43885   3.219  28.079   1.342 -0.2692 -0.1958  0.0940
    1W        W43886  24.933  21.201   1.770 -0.1301 -0.0614  0.1092
    1W        W43887  21.950  19.475   1.464 -0.0145  0.2802  0.1558
    1W        W43888   0.577   7.887   6.519  0.2634 -0.0408 -0.0704
    1W        W43889   4.729  13.321   1.734  0.0032 -0.0232 -0.2337
    1W        W43890  10.253  21.214   0.259 -0.0351  0.1088  0.1789
    1W        W43891  29.638  24.537   8.177  0.0030  0.4940 -0.0068
    1W        W43892  14.239  27.350   0.708  0.2226 -0.1260  0.0713
    1W        W43893  19.079  28.161   8.896  0.1302  0.2007  0.2753
    1W        W43894  27.837   0.311   1.862 -0.1691 -0.2446  0.0795
    1W        W43895   2.256   2.068   2.488 -0.2812  0.0442  0.2325
    1W        W43896   0.981   2.207   7.578 -0.1766 -0.1378  0.3372
    1W        W43897   7.103  21.234   7.744  0.0419  0.1829  0.0713
    1W        W43898   0.828  26.629   6.648  0.0607 -0.1403  0.0953
    1W        W43899   3.803  14.189   9.481  0.4647 -0.1311 -0.0934
    1W        W43900  23.250  18.169   5.441 -0.3597 -0.3898 -0.3343
    1W        W43901   3.085  28.482   7.092  0.2140 -0.0823  0.0170
    1W        W43902   8.120   6.182   8.567 -0.1069  0.1602  0.1770
    1W        W43903  23.619  11.641   0.714  0.1209  0.0620  0.0408
    1W        W43904  11.521  10.281   9.393  0.0304 -0.0785 -0.1225
    1W        W43905  13.325   7.699   8.639 -0.1835 -0.2547 -0.0817
    1W        W43906  20.544   4.002   8.017  0.0228  0.0683  0.2844
    1W        W43907  28.378   3.793   2.084 -0.1922 -0.1533 -0.1222
    1W        W43908  28.428  17.579   8.929 -0.0534  0.0951 -0.1521
    1W        W43909  11.506  11.593   1.543  0.0641 -0.1678  0.3154
    1W        W43910  21.880  29.792   8.988  0.0574 -0.3170  0.2038
    1W        W43911  22.774  27.096   8.493  0.0133  0.0098 -0.0499
    1W        W43912   9.565  17.154   7.871  0.2991  0.0198  0.0768
    1W        W43913  21.095  25.404   2.222 -0.0046  0.0422 -0.1553
    1W        W43914   2.823   9.890   1.475  0.0355  0.0325  0.3053
    1W        W43915  25.850   9.881   7.055  0.2680 -0.0059  0.1109
    1W        W43916  26.390  15.529   0.918  0.1557 -0.3096  0.1336
    1W        W43917  24.691  23.721   8.685  0.2239  0.1544  0.0470
    1W        W43918  11.281  17.113   2.472 -0.2411 -0.2329  0.1257
    1W        W43919  11.831   9.289   7.668 -0.1646  0.0558  0.0200
    1W        W43920  17.322  27.230   2.507 -0.1466 -0.1847 -0.0331
    1W        W43921  12.703  10.342   2.258  0.1197  0.0080  0.1784
    1W        W43922  11.947  29.076   1.541  0.1360 -0.1566 -0.3434
    1W        W43923  27.458  20.809   7.285 -0.0415 -0.0773  0.0023
    1W        W43924  17.315   3.300   9.324 -0.2481 -0.1658  0.2016
    1W        W43925  27.269   5.050   2.892 -0.1256 -0.0964  0.2134
    1W        W43926   6.155  11.303   7.333 -0.0735  0.0671  0.0886
    1W        W43927   6.418   5.405   7.046 -0.2274  0.0090  0.3269
    1W        W43928  13.488  11.003   8.177 -0.1192  0.1643  0.3096
    1W        W43929   4.600  24.618   7.985 -0.0926 -0.1281  0.1230
    1W        W43930  14.536  15.365   6.769  0.1146  0.0231  0.0469
    1W        W43931  15.449  17.412   7.870  0.3383  0.1567  0.0908
    1W        W43932  26.584  16.074   8.291 -0.0282 -0.0471 -0.1938
    1W        W43933  28.637  17.890   1.833  0.0010 -0.1449 -0.2165
    1W        W43934  15.418   4.933   1.209 -0.2333 -0.2150 -0.1012
    1W        W43935   6.723  29.723   9.390  0.3124  0.2190  0.1658
    1W        W43936   7.804  27.927   1.278 -0.2450  0.2649 -0.1735
    1W        W43937  23.103   7.455   7.256  0.0901 -0.3186 -0.0404
    1W        W43938  12.190  29.741   8.968 -0.3903  0.0828  0.0722
    1W        W43939  16.829  19.492   3.074 -0.0193  0.0823 -0.1460
    1W        W43940  16.484  21.184   7.321  0.0768  0.1315 -0.0137
    1W        W43941  19.109   3.357   1.223  0.0255  0.4083 -0.2428
    1W        W43942   1.108   3.213   2.229  0.2008 -0.2229  0.1110
    1W        W43943  23.801   1.000   8.576 -0.1796 -0.2571 -0.5129
    1W        W43944   2.440   0.614   8.738 -0.0707  0.0820  0.1160
    1W        W43945  16.963  24.063   8.592  0.3098 -0.0286 -0.1436
    1W        W43946  26.961   0.403   2.817  0.3580  0.0496  0.0426
    1W        W43947  17.855  15.693   6.465 -0.1167 -0.0053  0.1454
    1W        W43948  19.898  19.453   9.512  0.0511  0.5148 -0.1477
    1W        W43949   4.997  18.231   1.377  0.0742  0.2578 -0.1283
    1W        W43950  29.551  18.963   0.507 -0.1580  0.1137  0.0964
    1W        W43951  20.301   0.538   7.688  0.1499 -0.1307 -0.0022
    1W        W43952  20.792  23.071   8.413 -0.1122  0.1776  0.1800
    1W        W43953   4.828   9.869   7.747 -0.2555 -0.4977 -0.1516
    1W        W43954  17.318   5.568   3.279 -0.1818 -0.0679  0.1375
    1W        W43955   8.050   9.921   7.485  0.0970  0.1016 -0.0839
    1W        W43956   1.772   1.241   7.563  0.1157 -0.5650 -0.0220
    1W        W43957   6.117   4.007   7.600 -0.0335  0.0040 -0.1808
    1W        W43958  20.642   1.810   0.916 -0.1084 -0.1189 -0.1513
    1W        W43959   8.311  23.918   8.384 -0.1554 -0.2777 -0.0190
    1W        W43960  25.841  11.029   7.775 -0.0426 -0.2479 -0.0935
    1W        W43961  11.261   2.236   2.069  0.0495 -0.1191  0.2061
    1W        W43962  25.177  28.365   0.981 -0.0527  0.1550 -0.0531
    1W        W43963   3.426  20.561   8.191  0.1203  0.3842  0.0113
    1W        W43964   3.634  10.723   2.001 -0.1779  0.1667 -0.1977
    1W        W43965  10.455  19.918   8.627 -0.0666 -0.1820  0.1553
    1W        W43966  22.871  17.800   0.037  0.2119 -0.1187 -0.1961
    1W        W43967   6.890  19.986   0.248  0.0481  0.0626 -0.1773
    1W        W43968  27.224  23.326   7.770 -0.0512 -0.2057 -0.0399
    1W        W43969  24.328  10.292   7.371  0.0973 -0.0634 -0.0542
    1W        W43970  13.711  11.863   0.176 -0.2210  0.1598 -0.1765
    1W        W43971  27.545  21.960   9.330  0.1058 -0.2220 -0.0894
    1W        W43972  20.096  13.758   7.630  0.0574  0.0819 -0.2445
    1W        W43973  22.848   7.043   8.886 -0.0245  0.1352  0.2796
    1W        W43974   3.881  22.980   8.757  0.1784  0.1874  0.1203
    1W        W43975  22.794   5.217   2.228 -0.1530 -0.0802 -0.4058
    1W        W43976  11.390  17.833   3.159  0.0463  0.0971  0.0383
    1W        W43977  24.958  15.018   1.629  0.0795  0.1215  0.2582
    1W        W43978   2.236  24.199   0.697 -0.0049  0.2716 -0.2185
    1W        W43979   6.146   2.195   3.703 -0.2113  0.0336 -0.0295
    1W        W43980   1.549   0.989   7.165  0.0462 -0.1003  0.2205
    1W        W43981  19.611  28.582   2.272  0.0530 -0.0865  0.0143
    1W        W43982   2.467  11.584   0.475  0.0839 -0.0149  0.1974
    1W        W43983  15.151   1.613   9.111 -0.0152  0.0430 -0.1729
    1W        W43984  14.104   1.749   9.520 -0.1128  0.2922  0.1984
    1W        W43985  27.103  16.119   9.531 -0.1674  0.0346 -0.0477
    1W        W43986   5.637  22.714   7.277 -0.3851 -0.1060 -0.0800
    1W        W43987   5.061   1.806   1.434 -0.0162  0.1518  0.2841
    1W        W43988  15.513   4.602   0.829  0.0566  0.2510 -0.1668
    1W        W43989  16.495  22.520   6.454 -0.1506  0.2917 -0.0396
    1W        W43990   4.480  12.810   7.399 -0.1451 -0.1937 -0.0463
    1W        W43991  21.213  14.621   8.225  0.1136 -0.1616 -0.0809
    1W        W43992  20.148   8.319   1.471  0.1495  0.4193  0.0773
    1W        W43993   5.148  24.894   9.496  0.2393 -0.0985 -0.2071
    1W        W43994   0.610   5.146   8.036 -0.2065 -0.0212  0.0687
    1W        W43995  19.794  29.659   3.079 -0.0118  0.1215 -0.1009
    1W        W43996  25.281   9.886   7.374  0.2658 -0.0452  0.0671
    1W        W43997  14.477   1.964   7.769  0.1487  0.0477  0.3512
    1W        W43998  29.438  15.892   0.964 -0.1557 -0.1181  0.4293
    1W        W43999  15.309  22.583   8.241 -0.0216 -0.2903  0.2682
    1W        W44000   6.756  26.427   7.305 -0.0166 -0.0417  0.1498
    1W        W44001   8.001  17.819   1.103  0.1125  0.3711  0.0232
    1W        W44002   2.596   1.533   7.848 -0.1747  0.0135  0.0170
    1W        W44003   8.953  22.702   7.016 -0.1256  0.0831  0.2834
    1W        W44004  26.452   9.194   6.542  0.0498 -0.0303 -0.2893
    1W        W44005  23.303   5.864   7.300 -0.2830 -0.1211  0.2120
    1W        W44006  10.101  28.602   7.586 -0.1174  0.0275 -0.2224
    1W        W44007  15.713  21.019   7.956 -0.3497  0.3281 -0.2464
    1W        W44008   1.766  10.733   8.346  0.2432  0.0992 -0.1262
    1W        W44009  29.225   4.892   1.803  0.0047 -0.0052 -0.1292
    1W        W44010   5.195  26.826   9.547  0.1700 -0.0104  0.2342
    1W        W44011   8.535  13.150   8.094 -0.1881  0.1250 -0.0793
    1W        W44012   0.365  12.740   7.655  0.1804 -0.4032  0.0134
    1W        W44013   0.218   9.358   8.312 -0.1905 -0.4664  0.0647
    1W        W44014  28.628  15.863   8.086  0.1818  0.0242 -0.1276
    1W        W44015   6.700   3.244   0.678 -0.2042  0.2284  0.2595
    1W        W44016   6.714  26.871   9.373  0.3249  0.3936 -0.0741
    1W        W44017  26.229   6.740   0.874 -0.0144 -0.1772 -0.0319
    1W        W44018   5.575  14.861   9.058 -0.0931 -0.0608  0.0240
    1W        W44019  11.721  28.702   3.259  0.0202 -0.4403 -0.2079
    1W        W44020  11.864   6.694   7.070  0.0378 -0.1899  0.1767
    1W        W44021   4.627   8.681   9.053  0.2977 -0.4257 -0.1806
    1W        W44022  18.800  22.990   0.282 -0.3632 -0.0675  0.3936
    1W        W44023  23.608  29.716   6.596 -0.2170 -0.0777 -0.0083
    1W        W44024  20.917  28.534   1.402 -0.0454  0.1747  0.0885
    1W        W44025  15.011   1.294   0.712 -0.0224 -0.1745 -0.0992
    1W        W44026   2.564   5.306   6.930 -0.1314 -0.1463 -0.1592
    1W        W44027   0.670   2.926   0.836 -0.3453 -0.2202  0.0252
    1W        W44028  15.133   9.642   8.459 -0.1063 -0.0785 -0.3200
    1W        W44029  14.709  25.789   2.893  0.1646 -0.2396  0.1710
    1W        W44030  11.237  24.842   6.834 -0.0601  0.0845 -0.0609
    1W        W44031  19.710  23.613   7.541 -0.2807 -0.0455 -0.0145
    1W        W44032   6.955   7.444   8.044  0.2238 -0.1739  0.2120
    1W        W44033  18.334  11.347   0.792 -0.1771 -0.2967 -0.1210
    1W        W44034   2.750   6.740   0.600  0.1151  0.2224 -0.1813
    1W        W44035  24.490  10.579   7.735  0.0152  0.0932  0.0348
    1W        W44036   2.409   8.802   0.128 -0.2550  0.4276  0.0334
    1W        W44037   4.943  23.530   1.660  0.0878 -0.0244  0.0076
    1W        W44038   7.805   3.697   0.672 -0.1853  0.1356 -0.0745
    1W        W44039  17.202   5.643   7.156  0.0978 -0.0160 -0.0979
    1W        W44040   8.983  24.011   8.461 -0.1074 -0.2458  0.0741
    1W        W44041   3.259   3.481   8.751  0.1290  0.0337  0.0482
    1W        W44042  11.021  24.286   8.379  0.1037  0.2414 -0.0264
    1W        W44043  22.310  12.966   6.889 -0.1771 -0.2439  0.3694
    1W        W44044  15.604   1.405   3.028  0.1299  0.1477  0.0369
    1W        W44045   5.366  27.495   2.376  0.2833 -0.0382 -0.0993
    1W        W44046  16.941  16.908   6.533 -0.1482 -0.2151  0.1971
    1W        W44047  29.681  22.568   8.334 -0.1298 -0.1640 -0.0220
    1W        W44048   0.596   7.051   7.042  0.2276  0.1556 -0.1343
    1W        W44049  14.507   8.721   0.746  0.1494 -0.0364 -0.0021
    1W        W44050   1.181  16.724   8.487 -0.2282 -0.1888 -0.0224
    1W        W44051   4.046  15.957   7.208 -0.0712  0.2539  0.2012
    1W        W44052  28.746  10.281   7.874 -0.0477  0.0752 -0.0499
    1W        W44053  25.565  10.928   6.655  0.1645  0.1405  0.0883
    1W        W44054  29.336  26.976   9.163  0.0927  0.2303 -0.1642
    1W        W44055  27.601  17.162   6.306 -0.0445  0.1713  0.1867
    1W        W44056  24.696  26.935   0.703 -0.0787 -0.2296 -0.1138
    1W        W44057  16.948  23.785   8.150  0.0385 -0.0226  0.0793
    1W        W44058  27.411  13.752   7.590 -0.2681  0.1865 -0.1550
    1W        W44059  14.827  25.836   8.924 -0.2892  0.2464 -0.2852
    1W        W44060  29.496  18.174   9.098  0.0843  0.0595 -0.1879
    1W        W44061   5.783  19.610   7.507  0.3124  0.2237  0.0685
    1W        W44062  24.198  13.226   6.816  0.0082 -0.4069 -0.2178
    1W        W44063   9.903  23.119   9.474  0.4512  0.0630  0.1134
    1W        W44064  11.169  21.161   6.861 -0.0793  0.0683 -0.0504
    1W        W44065  21.850  25.591   7.047  0.0467  0.0206 -0.0904
    1W        W44066  26.607   6.057   8.003  0.2363 -0.3775  0.1480
    1W        W44067   0.041  10.098   1.822  0.0831 -0.1009  0.0844
    1W        W44068  11.704  15.968   9.386 -0.2756  0.2291 -0.2028
    1W        W44069  17.193  22.537   2.356  0.0052 -0.2058  0.0241
    1W        W44070  16.121  20.981   9.389 -0.1459 -0.3297  0.1241
    1W        W44071   8.631  10.426   6.813 -0.2430  0.0985  0.0365
    1W        W44072  21.353  13.502   1.364 -0.0283  0.0671  0.0249
    1W        W44073  20.576  24.924   1.617 -0.1595  0.2943  0.0863
    1W        W44074  19.497  20.977   6.377 -0.0856 -0.1487 -0.0226
    1W        W44075  24.481  12.923   5.891  0.1497  0.0871  0.3376
    1W        W44076   1.369  10.366   7.447 -0.2140  0.2367 -0.1137
    1W        W44077   2.129  27.454   5.857  0.1053  0.2605  0.0229
    1W        W44078  16.620   0.988   8.769 -0.5469  0.3834  0.1016
    1W        W44079  11.853  17.869   6.544 -0.0574  0.2274  0.0613
    1W        W44080   4.096   6.924   6.832  0.1352 -0.0225  0.4658
    1W        W44081  19.357  17.573   3.052 -0.1936 -0.0005  0.0837
    1W        W44082  26.845  28.252   0.835 -0.1900 -0.0188 -0.1235
    1W        W44083  29.021  23.008   6.930 -0.1728  0.0813  0.0833
    1W        W44084  25.951  12.046   2.000 -0.0384 -0.2464  0.0047
    1W        W44085  25.070  13.832   6.275 -0.1243 -0.2361 -0.2202
    1W        W44086  21.048   1.845   7.183 -0.1495  0.1860 -0.0296
    1W        W44087   6.211  25.721   7.741  0.3833 -0.0811 -0.0055
    1W        W44088  14.943  21.375   1.782  0.3447 -0.1434 -0.2837
    1W        W44089  16.389  14.629   8.365 -0.3328  0.0877 -0.1638
    1W        W44090  19.722   2.618   0.942 -0.0169  0.1173 -0.1199
    1W        W44091  10.685   7.869   6.743 -0.2451 -0.1234 -0.1386
    1W        W44092  24.190  14.290   7.397  0.1485 -0.4951  0.1252
    1W        W44093  17.700   2.391   3.176 -0.1827  0.3170  0.0411
    1W        W44094  12.298  12.802   1.148 -0.1169  0.2081  0.0027
    1W        W44095   0.886  11.067   8.413 -0.1179 -0.0592 -0.2610
    1W        W44096   5.889  22.236   7.643  0.1386 -0.2494  0.1265
    1W        W44097  22.589  23.972   1.365  0.0117 -0.3800  0.3538
    1W        W44098  17.340   6.441   9.384 -0.1850  0.1924 -0.0190
    1W        W44099  11.472  21.105   3.019  0.1821 -0.1106 -0.0840
    1W        W44100  12.315  26.621   0.874  0.1011  0.2183  0.1211
    1W        W44101   7.985  25.089   0.587  0.0098  0.1082  0.1002
    1W        W44102  17.221  24.534   8.683 -0.1544 -0.1088 -0.1882
    1W        W44103  24.689  21.582   2.033  0.0474 -0.1481  0.0553
    1W        W44104  15.358  24.961   6.937 -0.1584  0.1740 -0.2788
    1W        W44105   5.191  29.514   0.664 -0.0980 -0.1049 -0.1593
    1W        W44106   4.419  11.426   0.401  0.0482  0.0258  0.2870
    1W        W44107   4.297   0.139   0.382 -0.2275  0.2266  0.0408
    1W        W44108  20.698  10.867   8.629  0.4634  0.3698 -0.0860
    1W        W44109  10.103  21.615   7.639 -0.2976  0.3579  0.2113
    1W        W44110   4.317  14.111   8.542  0.1314 -0.2483 -0.0263
    1W        W44111  20.522   5.980   1.259 -0.0778  0.0264  0.1214
    1W        W44112  28.970   3.311   2.772 -0.0658 -0.1586 -0.3593
    1W        W44113  18.046  26.306   8.943  0.5159  0.0185 -0.1212
    1W        W44114  27.671  26.277   0.258 -0.0188  0.3583  0.1520
    1W        W44115  22.768   4.892   3.325  0.0651  0.0125  0.1967
    1W        W44116  15.077  19.069   7.549 -0.0389 -0.0569  0.0932
    1W        W44117  17.127  28.737   7.201  0.3431  0.3890 -0.2430
    1W        W44118   8.006  12.304   7.681  0.3930  0.1658 -0.0458
    1W        W44119  24.317   9.420   9.088 -0.2746  0.2079  0.1829
    1W        W44120  12.316  28.949   6.533 -0.1481  0.0165  0.0250
    1W        W44121  24.305  10.952   0.473 -0.0161  0.1478 -0.1593
    1W        W44122  13.136   4.918   6.887  0.0336 -0.0639 -0.2198
    1W        W44123  26.382   2.634   2.482  0.3162  0.3231 -0.1953
    1W        W44124   4.427  26.459   8.910  0.1047 -0.1655 -0.4334
    1W        W44125   3.900  16.966   1.693 -0.2826 -0.3371  0.1632
    1W        W44126  13.049  13.959   9.522  0.0093  0.1667  0.1878
    1W        W44127  18.100   0.124   8.010  0.3064 -0.1548 -0.1238
    1W        W44128  12.246  11.383   7.867  0.3527  0.0404  0.0587
    1W        W44129  11.433  21.853   0.459 -0.0804 -0.1975 -0.0900
    1W        W44130  19.295  21.027   0.422 -0.0780  0.0679 -0.2246
    1W        W44131  16.538  22.347   7.339 -0.1230 -0.1449 -0.1738
    1W        W44132   9.365  12.473   0.121 -0.1146  0.4300 -0.2862
    1W        W44133  25.332  24.811   9.020  0.1658  0.4935 -0.3896
    1W        W44134  24.101  25.531   6.279  0.0025  0.0576  0.0557
    1W        W44135   3.602   4.549   8.054  0.0478  0.0553  0.1565
    1W        W44136  17.035  26.033   7.472 -0.3408  0.0895  0.2565
    1W        W44137  28.149  18.322   8.899  0.4217 -0.0677 -0.1067
    1W        W44138  27.282  28.729   9.308 -0.0302  0.1330 -0.1622
    1W        W44139  22.230  16.138   0.010  0.1532  0.2130 -0.0291
    1W        W44140  13.723  21.822   6.373  0.2464 -0.0292  0.1448
    1W        W44141   6.485  20.884   9.022 -0.3156  0.0894  0.0826
    1W        W44142  28.744   1.819   9.216 -0.0129  0.1705  0.0725
    1W        W44143   6.313   1.883   0.796 -0.0104 -0.1258 -0.1308
    1W        W44144   5.275   3.700   2.052 -0.1214 -0.3717  0.0016
    1W        W44145  25.914  26.939   1.765 -0.3423 -0.0780 -0.2301
    1W        W44146  21.293   8.355   2.223 -0.0237 -0.2549 -0.0094
    1W        W44147   9.129  26.860   7.978  0.1423  0.0585  0.0352
    1W        W44148   2.233   4.496   0.204 -0.2486  0.2765  0.3064
    1W        W44149   7.869   2.535   3.048 -0.1716 -0.2736 -0.0435
    1W        W44150  10.293  19.723   8.162  0.0648  0.1155 -0.1924
    1W        W44151   6.226  20.306   9.077  0.0288 -0.1608 -0.0741
    1W        W44152  17.360  14.694   8.397 -0.0402 -0.0099  0.1094
    1W        W44153  19.443  24.724   9.550 -0.4281  0.0603 -0.3196
    1W        W44154   8.386  21.775   0.356 -0.0788  0.2409 -0.0809
    1W        W44155   1.462   0.559   0.110 -0.0890 -0.0738 -0.0057
    1W        W44156  18.435   0.618   3.790 -0.2263 -0.0592  0.2222
    1W        W44157   2.707   2.396   1.365 -0.0054  0.2881 -0.0612
    1W        W44158  21.619  27.777   8.895 -0.1885 -0.0253  0.0425
    1W        W44159   7.760  11.171   2.137 -0.0496 -0.0274 -0.0104
    1W        W44160  19.195  26.263   0.292  0.0066 -0.3779  0.1153
    1W        W44161  11.798   9.587   8.465  0.3001 -0.1535  0.0124
    1W        W44162  17.500   0.546   3.381  0.1845 -0.0547 -0.0173
    1W        W44163  27.409  22.400   1.822 -0.2753  0.1432  0.1423
    1W        W44164  17.833  16.862   9.514 -0.1293  0.1652 -0.0542
    1W        W44165  15.908  26.580   8.294  0.1376 -0.3016  0.1675
    1W        W44166  12.809  26.127   7.716  0.2591  0.0886  0.2080
    1W        W44167  13.408  20.454   0.672  0.4609  0.1993 -0.2240
    1W        W44168  15.795   2.665   8.821 -0.2520 -0.1577  0.1971
    1W        W44169  13.873  22.677   2.337  0.1414 -0.1159  0.1987
    1W        W44170  13.005  24.144   7.547  0.3536  0.1339  0.2268
    1W        W44171  18.130   5.117   2.249 -0.2575 -0.3517 -0.2767
    1W        W44172  21.227  12.943   0.523  0.1131 -0.1476  0.1259
    1W        W44173  12.234   8.570   1.348  0.1011  0.0126 -0.0545
    1W        W44174   3.959   8.978   0.029 -0.3789  0.3731 -0.0952
    1W        W44175  14.785   7.164   1.416 -0.2102  0.1605 -0.1887
    1W        W44176  24.300  20.334   7.424  0.0616 -0.4684 -0.1321
    1W        W44177  22.973  11.246   6.685 -0.0993  0.0345  0.0163
    1W        W44178  27.301   7.489   6.923 -0.1437 -0.0981 -0.1270
    1W        W44179  16.952  16.622   2.267 -0.1791  0.0737 -0.0328
    1W        W44180   8.380  14.386   7.443 -0.1785 -0.0677  0.1624
    1W        W44181  27.101   0.146   7.658  0.0550 -0.2211  0.0243
    1W        W44182  21.152   0.632   4.085 -0.3462  0.2772  0.0951
    1W        W44183   3.901   3.032   1.891 -0.1038  0.1127  0.1921
    1W        W44184  11.444  10.312   7.915  0.1025 -0.1983  0.0005
    1W        W44185   4.225  25.514   7.655  0.1381  0.0047 -0.2410
    1W        W44186  13.822   4.379   0.446 -0.3825  0.1601  0.1183
    1W        W44187   5.607  17.827   0.750  0.2128  0.0894  0.0970
    1W        W44188   8.200  26.346   8.536  0.2675 -0.3516  0.1455
    1W        W44189   8.090  22.640   6.323  0.1063 -0.0387  0.0107
    1W        W44190  25.661  15.276   5.963 -0.2389  0.2340  0.1879
    1W        W44191  22.040  21.021   8.065 -0.1511 -0.4487  0.1984
    1W        W44192  19.846   7.597   0.899 -0.3374  0.2319  0.2307
    1W        W44193   0.780   8.215   1.948  0.0905  0.0216  0.4098
    1W        W44194   3.208  18.540   8.500  0.1536 -0.0744 -0.1662
    1W        W44195  13.559  27.574   1.285  0.1820  0.4159  0.0249
    1W        W44196  18.268  25.835   8.831 -0.0573  0.1412 -0.0134
    1W        W44197   5.568  23.751   8.062 -0.1239  0.2380  0.3653
    1W        W44198   0.715  13.650   7.066  0.1634 -0.0238  0.2498
    1W        W44199  15.283  11.433   0.174 -0.1226  0.2561  0.3879
    1W        W44200   2.381  23.829   9.385  0.3520  0.0794 -0.1887
    1W        W44201  12.309   4.700   0.836 -0.1944 -0.2620 -0.1517
    1W        W44202  22.826   9.426   0.398 -0.1188  0.1469 -0.0298
    1W        W44203   7.657   0.088   0.216  0.1481 -0.0100 -0.1860
    1W        W44204  27.159  11.498   7.991 -0.3529 -0.1801  0.2314
    1W        W44205  15.152   2.116   2.410 -0.1717 -0.2098  0.2056
    1W        W44206  14.925   6.658   0.086 -0.0510  0.0380 -0.0613
    1W        W44207   7.685  19.767   0.925 -0.1080 -0.1458 -0.0248
    1W        W44208   9.478   1.659   1.053  0.0994 -0.0052  0.1143
    1W        W44209  17.929  26.593   0.146 -0.2508  0.1714  0.1460
    1W        W44210  12.001  24.554   8.689  0.1739  0.1877 -0.1959
    1W        W44211   8.476  11.873   8.331  0.0139  0.1543 -0.0441
    1W        W44212  16.204  10.483   1.365 -0.3110 -0.0345 -0.2232
    1W        W44213   3.060   7.733   0.438 -0.0308 -0.3726 -0.2693
    1W        W44214  21.634  11.777   6.746 -0.1962 -0.0242  0.0655
    1W        W44215  19.863   3.616   2.580 -0.0333  0.1317 -0.2514
    1W        W44216  24.706   2.934   1.924 -0.0197 -0.1259 -0.4689
    1W        W44217  27.526   4.159   7.338 -0.0403  0.0166  0.1201
    1W        W44218  16.987   8.141   8.177  0.2703 -0.0940 -0.1139
    1W        W44219  18.332   3.550   0.087 -0.2525 -0.2032  0.1599
    1W        W44220   4.702  19.872   7.236  0.1003 -0.2248  0.2450
    1W        W44221  10.461  15.583   9.460 -0.0504  0.0448  0.0562
    1W        W44222   4.817   4.396   2.606 -0.1509 -0.0884  0.3319
    1W        W44223  10.666   1.873   0.133  0.2339  0.3394 -0.4707
    1W        W44224   3.606  26.338   9.063 -0.1150 -0.0770  0.0338
    1W        W44225   7.928  22.644   6.796  0.3068 -0.0303 -0.3529
    1W        W44226   6.378  12.315   3.049  0.0476 -0.0026  0.1130
    1W        W44227  20.379  12.723   6.565  0.3227  0.0262  0.0231
    1W        W44228   1.498   1.325   8.703  0.2522  0.0959 -0.0176
    1W        W44229  29.021   9.910   8.657  0.0806 -0.0233  0.0192
    1W        W44230  16.473  12.069   8.527 -0.1026 -0.2713  0.1864
    1W        W44231  23.252   5.395   1.919  0.1003 -0.1408  0.0805
    1W        W44232  26.161  23.895   1.103  0.0482 -0.1166  0.0635
    1W        W44233  22.127  18.082   7.223 -0.1172  0.0924 -0.1507
    1W        W44234  29.387   7.440   2.143 -0.5216 -0.0375  0.2135
    1W        W44235  20.257   9.127   7.230 -0.3222  0.1519  0.2648
    1W        W44236  26.704  27.855   2.354  0.0459 -0.0965 -0.1552
    1W        W44237  18.986  27.840   8.502 -0.1116  0.3790  0.3928
    1W        W44238  16.108   8.987   2.708 -0.1783 -0.0359  0.0305
    1W        W44239  22.799   1.452   9.503  0.3680  0.0450  0.3490
    1W        W44240   2.477  29.011   0.002  0.1285  0.0211  0.1589
    1W        W44241  14.185  27.951   9.497 -0.2341  0.1336 -0.1359
    1W        W44242  17.174  25.421   2.148  0.0199 -0.1276  0.1602
    1W        W44243  27.226  29.362   0.889  0.0513  0.1693  0.0332
    1W        W44244  18.115  27.545   2.742 -0.3296 -0.3958 -0.1039
    1W        W44245  16.583  15.764   8.527  0.1079  0.1917  0.0528
    1W        W44246  20.724  28.155   2.463 -0.1316 -0.0775  0.0582
    1W        W44247   7.751   9.114   7.967 -0.1255  0.1828  0.1548
    1W        W44248  14.361  14.979   2.319 -0.0237  0.1414 -0.4535
    1W        W44249  26.024  18.796   0.965 -0.1373 -0.2259  0.0739
    1W        W44250   4.955  24.931   7.987  0.2150  0.0876 -0.2168
    1W        W44251   4.230  16.817   0.736 -0.0194 -0.0846  0.0294
    1W        W44252   8.289  28.620   2.915 -0.1296 -0.0959 -0.0888
    1W        W44253   3.029   4.524   7.232  0.2503 -0.1402 -0.2661
    1W        W44254  10.470  20.090   9.523 -0.0681  0.1375  0.1718
    1W        W44255  19.456  21.614   9.401  0.1631 -0.2467 -0.3119
    1W        W44256   9.319   7.449   0.435  0.1469  0.2745  0.0021
    1W        W44257  10.199  26.559   0.678  0.0412  0.1286 -0.3131
    1W        W44258  19.771  21.624   8.991  0.0914 -0.0382 -0.1341
    1W        W44259   3.909   6.457   9.358 -0.1567  0.0210 -0.1391
    1W        W44260   5.639  20.195   8.251 -0.1150  0.0968 -0.1379
    1W        W44261   4.732  11.707   9.349 -0.0563  0.1130  0.0026
    1W        W44262  18.414   6.120   0.680 -0.0116 -0.0991 -0.1807
    1W        W44263   8.639   4.918   8.906 -0.3910 -0.1117  0.2633
    1W        W44264  23.412  25.272   9.448 -0.2815 -0.1113 -0.0314
    1W        W44265  20.954  17.685   0.091  0.0241 -0.1977 -0.1496
    1W        W44266  28.134  15.802   7.363  0.1431 -0.2128  0.0793
    1W        W44267  25.225  11.507   8.905  0.2783  0.0691  0.1574
    1W        W44268  28.922  15.768   0.454  0.0448 -0.1750  0.2907
    1W        W44269   8.984  13.016   7.833 -0.1163 -0.0558 -0.0005
    1W        W44270  15.979  27.483   0.604 -0.0653  0.2811  0.1600
    1W        W44271  20.208  15.872   6.921  0.2028 -0.3007 -0.0638
    1W        W44272  26.170  22.863   6.066 -0.2527 -0.1363  0.2864
    1W        W44273  13.031  22.233   2.959 -0.3061 -0.2130 -0.0928
    1W        W44274  25.366   3.760   0.695  0.0340 -0.0829 -0.0899
    1W        W44275   8.241  25.676   7.065  0.2455  0.2129  0.2923
    1W        W44276  11.375   4.270   7.943 -0.1005  0.3284  0.2270
    1W        W44277  19.948   5.689   3.044 -0.1135  0.1517 -0.0930
    1W        W44278  28.629  11.572   7.572 -0.0601 -0.0400  0.1119
    1W        W44279   6.136  23.408   0.283 -0.0032  0.0624 -0.0207
    1W        W44280  17.293  17.145   7.212 -0.1032 -0.4713  0.1817
    1W        W44281   6.821   6.098   3.421  0.0304  0.0498 -0.3088
    1W        W44282  12.381   5.566   0.004 -0.1087  0.4326  0.2596
    1W        W44283   8.117   3.373   3.036  0.0559 -0.2270 -0.0537
    1W        W44284  13.022  26.809   1.335 -0.0906  0.2094 -0.0849
    1W        W44285  28.579  13.270   8.578  0.0602 -0.1832  0.0275
    1W        W44286   6.686  26.349   1.782 -0.1840 -0.2212  0.1932
    1W        W44287   2.316   8.212   1.334 -0.2535 -0.1617 -0.3077
    1W        W44288   0.154  29.062   0.605 -0.1429  0.3215 -0.1229
    1W        W44289  12.739  26.429   0.540  0.1476 -0.1557  0.0058
    1W        W44290  19.654  25.539   8.330  0.0734  0.2727 -0.1912
    1W        W44291   6.208  29.180   0.968 -0.3645 -0.3393  0.2646
    1W        W44292   6.450  20.562   0.305  0.1061  0.1643  0.0952
    1W        W44293   0.339  26.420   1.359 -0.1599  0.1873  0.3257
    1W        W44294  10.950  18.546   8.645 -0.1166 -0.0506  0.1456
    1W        W44295  27.570   8.287   2.347 -0.1556 -0.1226 -0.1057
    1W        W44296   7.804  28.693   2.677  0.1466  0.2737 -0.0536
    1W        W44297   7.580  23.040   0.989 -0.0774  0.2949  0.4055
    1W        W44298   3.597  12.923   8.015 -0.1230  0.1218 -0.1340
    1W        W44299  21.464  22.891   7.612  0.1438 -0.2263 -0.0875
    1W        W44300  18.267   5.160   3.051 -0.2395 -0.0203  0.0028
    1W        W44301  13.058   6.208   2.258 -0.0589 -0.0413 -0.0325
    1W        W44302  22.646  18.595   6.517  0.0658 -0.0428 -0.0587
    1W        W44303  14.021  18.102   7.128 -0.1040  0.2424  0.2181
    1W        W44304   6.179   0.896   1.614  0.3119 -0.1014  0.1213
    1W        W44305  16.645  23.901   0.133 -0.0191  0.3648 -0.0659
    1W        W44306  29.334   7.704   9.509 -0.1858  0.0765 -0.2023
    1W        W44307  18.365  20.416   7.082 -0.0022  0.3022 -0.0381
    1W        W44308  21.708   8.881   9.223  0.1199  0.2348  0.0310
    1W        W44309   2.651  20.116   1.592  0.1744 -0.2550  0.0328
    1W        W44310  18.628  15.087   6.751 -0.1806 -0.0369  0.1181
    1W        W44311  28.465  18.508   7.484  0.2015  0.1806 -0.3236
    1W        W44312  18.265   2.247   2.869 -0.0743  0.0031 -0.1178
    1W        W44313   0.903  22.744   9.490 -0.1537  0.0498 -0.1431
    1W        W44314  25.745  26.651   7.563 -0.2883  0.1549  0.0943
    1W        W44315   2.549  16.287   8.854 -0.1731  0.1452 -0.0393
    1W        W44316  17.452   4.626   2.732 -0.1547  0.0610 -0.0649
    1W        W44317  19.066   6.692   8.474 -0.1447 -0.0236 -0.1073
    1W        W44318  10.626   7.135   1.717 -0.2610 -0.0391  0.0651
    1W        W44319   9.800   0.290   7.498 -0.2747 -0.0355  0.2589
    1W        W44320  21.832  20.948   7.247  0.0587 -0.0435  0.0840
    1W        W44321  19.674  26.504   9.160  0.0263 -0.0683  0.1889
    1W        W44322   0.112  17.805   7.805  0.1488 -0.4951  0.0640
    1W        W44323  10.588  21.705   7.503 -0.2767  0.3541 -0.0719
    1W        W44324  13.852   2.145   2.386 -0.0823 -0.0334  0.0889
    1W        W44325  28.409  18.852   8.877 -0.0988  0.0316  0.0077
    1W        W44326   0.965  17.716   7.226  0.1629  0.1421 -0.0511
    1W        W44327  14.176  15.730   0.428 -0.0383  0.1551 -0.3486
    1W        W44328  25.096   1.234   0.793  0.0683  0.2169  0.0858
    1W        W44329  29.678   4.404   1.009 -0.3169 -0.0457  0.1558
    1W        W44330  18.326  14.190   9.500  0.1643 -0.2384 -0.2929
    1W        W44331  28.035  29.587   1.562 -0.0552  0.1025 -0.1562
    1W        W44332   8.858  25.526   1.376  0.2430  0.0167  0.0843
    1W        W44333  23.548  26.537   9.531 -0.1396 -0.3508 -0.2278
    1W        W44334  13.108   4.621   0.034 -0.1792 -0.3176 -0.0863
    1W        W44335   7.086  20.384   9.398 -0.1592  0.0691  0.2447
    1W        W44336  10.099   2.707   2.361 -0.0186  0.0771 -0.2843
    1W        W44337   5.489  20.794   0.549 -0.2196 -0.0736  0.1822
    1W        W44338  27.844  12.217   1.220 -0.1259 -0.2098  0.0808
    1W        W44339  10.470   0.097   9.116  0.1770  0.2004  0.0422
    1W        W44340  12.700  22.998   0.795  0.0381  0.2860  0.1281
    1W        W44341  16.343   7.112   1.854 -0.1131  0.0837 -0.0180
    1W        W44342   1.776   0.424   7.072  0.2383 -0.2498 -0.0394
    1W        W44343  14.169   3.495   3.030  0.2479 -0.1902 -0.1113
    1W        W44344  13.145  14.215   9.048  0.1405  0.0755 -0.3868
    1W        W44345  16.367  25.573   1.644 -0.1906  0.2195  0.2107
    1W        W44346  23.460  29.680   3.209  0.2353  0.1677 -0.1548
    1W        W44347   3.206  11.911   0.764 -0.0497  0.0499  0.0921
    1W        W44348  13.220   3.043   0.155 -0.0378  0.1664 -0.1718
    1W        W44349  21.344   3.148   1.231  0.2389  0.2818  0.1199
    1W        W44350  28.482   9.361   7.328 -0.1173 -0.2073 -0.3315
    1W        W44351  26.781  13.694   0.652  0.1556 -0.0417  0.0883
    1W        W44352  29.196   9.992   7.648 -0.0133 -0.1654  0.1884
    1W        W44353  26.848  27.818   0.074 -0.1638  0.2675 -0.2347
    1W        W44354  18.859  23.760   7.754  0.0669  0.3463 -0.1968
    1W        W44355   2.067  19.681   0.761 -0.3547  0.0152  0.1005
    1W        W44356   4.643  13.827   8.210  0.2245 -0.1710 -0.1214
    1W        W44357  15.943  25.780   0.861  0.2292 -0.1089  0.1108
    1W        W44358   2.034   4.573   9.155 -0.1268  0.1334  0.0327
    1W        W44359  17.101  12.500   7.427  0.0414 -0.1294  0.0741
    1W        W44360  25.860  19.332   9.356 -0.0911 -0.0375  0.0486
    1W        W44361  24.355   0.458   7.266 -0.2321  0.1002 -0.3354
    1W        W44362  13.618  23.002   1.101 -0.5311 -0.1798 -0.0360
    1W        W44363  13.395  27.392   7.849  0.0522 -0.0395 -0.2556
    1W        W44364  29.529  13.736   8.164  0.1518  0.3885  0.1672
    1W        W44365  15.486  11.511   3.438  0.1885 -0.1900  0.2482
    1W        W44366   2.916  27.090   7.364 -0.0949  0.2241  0.0066
    1W        W44367  14.538  29.566   0.504 -0.0799 -0.2582  0.2170
    1W        W44368  22.245  29.301   0.858  0.2492 -0.1201 -0.0964
    1W        W44369   6.430  17.993   7.921 -0.1198 -0.6508  0.4463
    1W        W44370  13.867   5.714   2.728  0.3865 -0.0373 -0.1678
    1W        W44371  20.650  14.857   1.135  0.0748  0.0680  0.3176
    1W        W44372  28.924  27.441   7.596 -0.0448  0.0717  0.1610
    1W        W44373   2.081  11.876   0.310  0.2490 -0.0155  0.1709
    1W        W44374  28.894  20.971   7.393 -0.2319 -0.0775  0.1313
    1W        W44375   1.481   7.779   2.500 -0.1403 -0.1192 -0.2395
    1W        W44376  12.063  18.062   2.788 -0.0179  0.2608  0.0248
    1W        W44377  27.283   4.743   8.385  0.1339 -0.2376 -0.1800
    1W        W44378  19.262  11.179   7.350  0.3004 -0.1505  0.1015
    1W        W44379  28.648  15.988   1.311  0.1887 -0.2311 -0.4759
    1W        W44380   8.170   2.797   1.216  0.2331  0.1169  0.0133
    1W        W44381  10.383  22.756   7.586  0.0401  0.1187 -0.2597
    1W        W44382  16.089  25.533   2.666 -0.3774  0.0464 -0.0842
    1W        W44383  26.967   0.232   1.337  0.1144  0.3449 -0.0413
    1W        W44384   4.589   8.500   1.218 -0.0203  0.0674 -0.0616
    1W        W44385   1.341   1.511   9.302  0.2187 -0.1570  0.1730
    1W        W44386  10.142  12.290   9.098  0.1044 -0.1254 -0.2337
    1W        W44387  11.063  10.897   0.207 -0.3054  0.2480 -0.0687
    1W        W44388   5.207   4.709   8.550  0.1677 -0.2906  0.1367
    1W        W44389   6.895   6.771   1.815  0.1359  0.0371  0.1827
    1W        W44390   8.324  17.488   8.203  0.1149  0.1509 -0.0803
    1W        W44391  19.525  20.013   1.778  0.2196  0.1171 -0.0741
    1W        W44392  12.721  10.127   8.593  0.1353  0.0040  0.1358
    1W        W44393   2.208  18.615   1.167  0.0011  0.1022 -0.1650
    1W        W44394  15.750  14.782   6.211 -0.0310 -0.2905 -0.2149
    1W        W44395  26.634   4.333   0.220 -0.0994  0.0587 -0.0563
    1W        W44396  23.790   0.698   8.047 -0.1538  0.1518 -0.4564
    1W        W44397  26.472  14.989   7.042  0.1263 -0.0285  0.1715
    1W        W44398  18.517  23.291   6.550 -0.1272  0.2046 -0.1690
    1W        W44399   9.838   3.484   0.307  0.1999  0.0264  0.0345
    1W        W44400   6.004   3.231   0.341  0.0589  0.3416  0.0051
    1W        W44401  26.367   7.951   3.089  0.1001 -0.2618  0.1404
    1W        W44402  13.154  15.620   6.318 -0.4813  0.2368 -0.1243
    1W        W44403  26.301   9.201   0.179  0.2323 -0.0367  0.0226
    1W        W44404   1.724   7.348   8.804 -0.1679 -0.0586  0.1733
    1W        W44405  22.476   6.950   8.063  0.1120 -0.1187  0.0924
    1W        W44406  14.050  21.425   0.751 -0.1113 -0.0825 -0.1920
    1W        W44407  19.422   5.391   1.072 -0.0220  0.0616 -0.2047
    1W        W44408   0.535  11.045   6.903 -0.1545  0.0651  0.1798
    1W        W44409  16.528  19.891   7.972 -0.1163  0.2009  0.1211
    1W        W44410   2.468   4.818   8.893  0.1687 -0.0554 -0.1313
    1W        W44411  19.697   3.105   3.250 -0.2402 -0.0400  0.0414
    1W        W44412   5.459  25.254   1.531  0.0275 -0.3141  0.3234
    1W        W44413  23.702  14.422   8.590  0.3276  0.3168  0.2931
    1W        W44414  24.584  16.675   4.820 -0.1765 -0.3186  0.0364
    1W        W44415  25.210   0.525   1.683 -0.3049  0.1057  0.3233
    1W        W44416  10.591   0.740   7.210 -0.1370 -0.1796 -0.2650
    1W        W44417  21.383  26.979   7.359  0.2561 -0.0641 -0.1230
    1W        W44418   2.458  29.015   6.229 -0.1327 -0.1540 -0.0920
    1W        W44419  27.304  20.778   6.453  0.0351  0.0820  0.0515
    1W        W44420  18.845  16.528   7.662  0.1735 -0.0205  0.1418
    1W        W44421  22.716  20.534   1.446 -0.2266  0.2812 -0.0897
    1W        W44422  16.350   7.022   0.493  0.3238  0.2485 -0.0366
    1W        W44423  25.025  22.676   9.535 -0.0839  0.1423  0.1527
    1W        W44424  14.656  22.251   2.059  0.1772  0.0214  0.1735
    1W        W44425  18.009  13.714   6.785  0.0613 -0.3557 -0.1083
    1W        W44426  26.391  23.689   8.482  0.1948  0.0853 -0.2410
    1W        W44427  10.820   5.772   8.328  0.0116 -0.2225 -0.0307
    1W        W44428  20.078   0.510   7.280  0.1308 -0.0926  0.2462
    1W        W44429  28.736  19.221   6.093 -0.0349 -0.1470  0.2164
    1W        W44430  14.281  22.514   9.145  0.1473  0.0486  0.3343
    1W        W44431  16.060  15.690   1.298 -0.2062 -0.3353  0.2452
    1W        W44432  10.990   8.594   7.497  0.4735 -0.0715  0.0421
    1W        W44433  22.785  27.214   7.448  0.0360 -0.0401 -0.0445
    1W        W44434  25.410   0.655   8.200  0.0279 -0.1647 -0.0972
    1W        W44435  12.789  11.979   2.365 -0.1726  0.0140 -0.2463
    1W        W44436  10.036   1.198   8.961 -0.0167 -0.5074 -0.0572
    1W        W44437  26.535  23.629   6.831 -0.0496 -0.0720  0.0356
    1W        W44438  19.271  24.894   0.483 -0.4625  0.0435 -0.0242
    1W        W44439   0.033  23.966   2.614 -0.1233  0.0428  0.2415
    1W        W44440   1.371   9.575   1.828  0.3161  0.0856  0.1220
    1W        W44441   8.982   7.275   0.865 -0.1485  0.2469 -0.2643
    1W        W44442  22.617  29.414   9.076 -0.0834  0.3341 -0.0880
    1W        W44443  23.905  14.219   6.795  0.0340  0.0396 -0.1293
    1W        W44444  15.100   3.801   2.663  0.1532  0.1994  0.1103
    1W        W44445   9.186  14.154   9.226 -0.1448 -0.2023  0.0309
    1W        W44446  21.226   3.572   7.254  0.3089 -0.1267  0.2753
    1W        W44447  23.797  17.649   9.308  0.1307  0.0776  0.2564
    1W        W44448  26.853  18.178   0.589  0.3604  0.1739 -0.1621
    1W        W44449  21.856   6.302   0.542  0.2747  0.0718 -0.0181
    1W        W44450   1.113   7.023   2.073  0.0563 -0.2002  0.0079
    1W        W44451  22.702  22.042   8.732 -0.0305  0.1583 -0.1404
    1W        W44452   1.488   1.265   0.502 -0.1396  0.1701  0.0244
    1W        W44453   5.730  29.536   0.818 -0.0326  0.0396  0.2192
    1W        W44454  13.461   0.405   8.335 -0.1740 -0.1662  0.0426
    1W        W44455  12.612  22.398   2.745  0.0347  0.0832 -0.1848
    1W        W44456   3.581   7.734   0.931 -0.3228 -0.4435  0.0582
    1W        W44457  13.891  17.100   0.067  0.1393  0.0887  0.0247
    1W        W44458   5.098  23.578   8.174 -0.0683  0.0131 -0.0777
    1W        W44459  23.679  14.989   1.093 -0.2683 -0.0464 -0.0163
    1W        W44460  22.310   8.197   1.366  0.2201 -0.0163 -0.2780
    1W        W44461  19.895   0.273   9.053  0.0178  0.1003  0.2885
    1W        W44462  13.853  29.151   7.620  0.2677  0.0675  0.1015
    1W        W44463  28.795  11.301   1.581  0.2535  0.0110 -0.1600
    1W        W44464   8.694   6.489   3.740  0.1139  0.2012  0.0757
    1W        W44465   4.238  26.199   1.114  0.0286  0.0606  0.1279
    1W        W44466  16.451   1.173   8.059  0.0808 -0.1140  0.1901
    1W        W44467  11.148   5.098   3.051 -0.1313  0.3108  0.0049
    1W        W44468  14.918   7.079   3.589 -0.2575 -0.0623  0.0346
    1W        W44469  12.660  17.074   1.914 -0.3325 -0.0199  0.0730
    1W        W44470  29.747  29.226   3.300  0.0260  0.1348  0.1870
    1W        W44471  24.107  13.200   9.304  0.0274 -0.1204  0.1636
    1W        W44472  10.534  12.796   1.582  0.2430  0.1053  0.0160
    1W        W44473  20.825  24.754   7.639  0.3027 -0.0763 -0.1037
    1W        W44474   0.777  26.219   1.481  0.2548 -0.2292 -0.3479
    1W        W44475  19.730  18.837   6.496 -0.5033  0.1240  0.0678
    1W        W44476  24.364  11.062   6.470 -0.2174 -0.2151  0.0288
    1W        W44477   2.687  15.042   1.133 -0.0351 -0.0199 -0.0585
    1W        W44478  14.963  13.499   7.360  0.0959 -0.1269  0.0471
    1W        W44479  28.419  21.462   2.026  0.1663 -0.0788  0.3410
    1W        W44480  25.886  27.417   1.953  0.2919  0.1357 -0.0260
    1W        W44481  19.935   8.939   2.502 -0.0831 -0.0199  0.1136
    1W        W44482  12.442  19.634   8.179 -0.3745 -0.0388  0.0251
    1W        W44483   4.899   7.574   6.573  0.0767 -0.0690  0.0707
    1W        W44484  25.727  29.666   3.204 -0.1772  0.2182  0.0016
    1W        W44485   3.472  24.084   8.512  0.0770  0.4083 -0.1193
    1W        W44486  27.767  15.402   9.048 -0.2909  0.0497  0.0305
    1W        W44487  11.052  21.999   1.468 -0.2496  0.0665  0.1990
    1W        W44488  29.394  27.793   1.524  0.0735  0.1396 -0.0395
    1W        W44489   7.656   7.862   1.185 -0.1282  0.1664  0.2705
    1W        W44490   0.639  14.704   9.271  0.2701  0.0509  0.1328
    1W        W44491   9.219  28.045   0.912 -0.0155  0.0417  0.0692
    1W        W44492   9.694  19.776   8.271  0.0084  0.2353  0.1969
    1W        W44493  15.686   8.626   0.306 -0.0989  0.1437  0.0681
    1W        W44494   7.950  17.328   2.018  0.0689  0.0464  0.2209
    1W        W44495   4.267   2.316   0.221 -0.0293  0.2355  0.0126
    1W        W44496  12.314  29.539   3.101 -0.2908  0.1435 -0.3132
    1W        W44497  20.774  21.353   0.604  0.1605  0.1849  0.1925
    1W        W44498  14.352   3.922   7.658 -0.3069  0.0112  0.1536
    1W        W44499  23.532   2.177   8.088 -0.1568 -0.0085 -0.1856
    1W        W44500  14.950  13.947   8.172 -0.1367  0.1370 -0.3316
    1W        W44501  22.337  28.587   7.443 -0.0723 -0.0821 -0.0180
    1W        W44502  12.066   3.988   8.932  0.1359  0.0233  0.0480
    1W        W44503   5.995  10.329   8.617 -0.1683 -0.0194  0.1710
    1W        W44504  28.700  18.757   9.397  0.1265  0.0531 -0.0370
    1W        W44505   1.207  19.952   8.439 -0.1814  0.0050 -0.0660
    1W        W44506   0.364   7.379   1.671 -0.1459  0.0445 -0.1518
    1W        W44507  20.153  11.002   3.028 -0.0383 -0.2598 -0.0439
    1W        W44508  21.472  22.854   0.555 -0.1295  0.1416 -0.0416
    1W        W44509  12.513  22.092   1.907  0.5545  0.0170  0.0116
    1W        W44510   0.905  28.409   8.355  0.0339  0.1602  0.1158
    1W        W44511   6.912  19.277   1.032 -0.0974  0.0467  0.3768
    1W        W44512   2.682  15.658   2.424  0.0142 -0.3008  0.0928
    1W        W44513  22.461   6.677   1.609  0.1931 -0.1655  0.4123
    1W        W44514   8.510  17.497   9.547 -0.2249  0.1144 -0.2820
    1W        W44515  21.298  28.183   1.577 -0.0766 -0.1174  0.3532
    1W        W44516   0.443   2.009   6.732  0.3974  0.0871 -0.2017
    1W        W44517   3.816   0.916   7.389 -0.2280  0.0638 -0.0406
    1W        W44518  26.364  25.872   1.640 -0.0914 -0.0044 -0.1695
    1W        W44519  11.054  14.125   2.020 -0.2174  0.0355 -0.0232
    1W        W44520  12.543  17.048   6.959 -0.2037 -0.1381  0.1864
    1W        W44521  25.318  11.966   5.671  0.1166 -0.0173  0.3004
    1W        W44522  13.040   8.534   0.947 -0.0434  0.0608  0.0924
    1W        W44523  22.005  28.812   0.855  0.1069  0.2313 -0.0057
    1W        W44524   3.825  10.363   2.527  0.0723  0.0001 -0.2321
    1W        W44525   0.564   3.643   1.386  0.0002  0.5247 -0.0120
    1W        W44526  24.900  29.084   0.526 -0.0621 -0.1619  0.0612
    1W        W44527  20.441   0.704   8.170  0.0835 -0.3267 -0.1003
    1W        W44528  24.865  23.962   2.442  0.0021 -0.1036 -0.2442
    1W        W44529  25.840  24.758   1.993 -0.2285  0.0757 -0.0024
    1W        W44530   0.134   7.532   8.240 -0.2103 -0.0345  0.1875
    1W        W44531  10.780  10.089   9.183 -0.0174 -0.3800  0.0848
    1W        W44532   0.625  12.385   7.393 -0.1600  0.4650  0.1316
    1W        W44533  19.410   5.452   0.530 -0.0849  0.3755 -0.1570
    1W        W44534   2.223   8.155   9.362  0.0344 -0.0507 -0.2259
    1W        W44535  13.341   2.221   8.716 -0.0341  0.0381  0.0474
    1W        W44536   0.688  25.765   0.375  0.2110 -0.2327  0.0785
    1W        W44537   2.959   4.937   7.557 -0.1053  0.4262  0.3925
    1W        W44538   1.030   4.384   7.281  0.1124 -0.0885 -0.0394
    1W        W44539   3.997  12.280   2.077  0.0137  0.0912 -0.0522
    1W        W44540  21.502  19.920   0.006  0.0556 -0.1768  0.1192
    1W        W44541  22.875  27.111   0.019  0.0297  0.1884 -0.0834
    1W        W44542   5.908   1.017   9.339 -0.0899  0.1495 -0.1669
    1W        W44543   9.068  20.630   2.963 -0.0450 -0.0099  0.0198
    1W        W44544  22.575  13.778   7.776  0.0207 -0.0184  0.0216
    1W        W44545  25.906   1.253   1.280 -0.1413 -0.0593 -0.1258
    1W        W44546   7.946   3.701   1.282  0.0228  0.0575  0.0967
    1W        W44547   2.345  28.855   1.539  0.0679  0.2517  0.1934
    1W        W44548  28.304  14.782   6.987  0.0538  0.0127 -0.3744
    1W        W44549   6.149  11.717   0.204  0.0064 -0.0545  0.3991
    1W        W44550  14.589   1.948   1.675 -0.2870  0.0739  0.1344
    1W        W44551  13.029  27.603   1.228  0.1985  0.1496  0.1653
    1W        W44552   5.425  11.084   2.598  0.1399  0.4262  0.3957
    1W        W44553  12.560  20.351   9.332 -0.1151 -0.1534 -0.0305
    1W        W44554   5.641  29.288   2.630  0.0210 -0.2209  0.0261
    1W        W44555   7.236  15.845   2.053 -0.2459 -0.0129  0.0188
    1W        W44556   7.222   8.783   7.422  0.0610  0.0511  0.1145
    1W        W44557  18.074   8.117   2.379 -0.0201  0.0376 -0.0811
    1W        W44558  23.747  19.721   7.655 -0.4438  0.0823  0.0665
    1W        W44559  24.733  16.782   5.328 -0.4010  0.1073 -0.0858
    1W        W44560   3.046  12.535   6.993  0.0798 -0.2506  0.2687
    1W        W44561  18.315   9.479   1.294  0.2597 -0.1467 -0.0191
    1W        W44562  25.656   9.847   8.337  0.1563 -0.3424  0.1121
    1W        W44563  10.668  28.859   2.733 -0.2914  0.0429 -0.0054
    1W        W44564  25.477  17.961   8.350 -0.2736 -0.1103  0.2513
    1W        W44565   7.942  29.577   7.791 -0.0973 -0.2254 -0.2151
    1W        W44566  28.545  20.213   2.185 -0.0363 -0.2929  0.3223
    1W        W44567   0.827   5.020   1.383  0.1051 -0.2646 -0.1451
    1W        W44568   4.035   5.470   1.840  0.1744  0.2601 -0.1911
    1W        W44569  17.145  23.994   0.022  0.0533 -0.2593  0.2249
    1W        W44570   2.320  12.176   1.284 -0.0571  0.0903  0.0987
    1W        W44571   3.960  19.571   8.410  0.0156 -0.2631  0.0763
    1W        W44572  11.396   5.993   3.288 -0.3620 -0.0503  0.0657
    1W        W44573  11.980  16.573   2.041  0.2396 -0.1705 -0.5873
    1W        W44574  24.056  29.341   0.633  0.1805  0.0916  0.0431
    1W        W44575  19.129   6.007   2.841  0.0878  0.0635  0.0767
    1W        W44576   1.204  23.686   1.437 -0.1400  0.0726  0.1065
    1W        W44577   6.717  20.421   9.018 -0.2064 -0.3111  0.4873
    1W        W44578  12.506  23.913   2.893 -0.3053 -0.0224 -0.1156
    1W        W44579  16.538  22.021   1.265 -0.0071  0.2230  0.1503
    1W        W44580  12.937   1.369   1.491  0.0408 -0.0922 -0.1210
    1W        W44581  29.377   6.049   1.781 -0.0456 -0.3852  0.1742
    1W        W44582  26.863   1.243   2.664  0.2663  0.2589 -0.1482
    1W        W44583   7.257  24.808   7.769  0.1900  0.1194 -0.0602
    1W        W44584  19.998  27.086   1.230  0.2402 -0.1136 -0.0761
    1W        W44585  22.342  22.000   6.326  0.0650 -0.0230 -0.2208
    1W        W44586  26.052  10.130   9.536 -0.0024  0.0231  0.1354
    1W        W44587   7.949   6.421   1.663 -0.0907  0.3650  0.2659
    1W        W44588   0.865   8.536   7.756 -0.3794  0.2444 -0.0971
    1W        W44589  16.914  13.905   1.044  0.1247  0.0256 -0.2048
    1W        W44590  29.628  16.994   7.478 -0.0066 -0.1765 -0.1640
    1W        W44591  14.443  12.533   1.796 -0.1202 -0.0459  0.1396
    1W        W44592  24.895   7.617   0.020  0.0364  0.0226 -0.2526
    1W        W44593   1.377  15.875   0.743  0.1121 -0.0141 -0.0741
    1W        W44594  22.945   0.842   1.451 -0.0027  0.1319  0.0420
    1W        W44595   4.455  24.347   2.614  0.1727  0.0165 -0.3213
    1W        W44596   7.517  12.218   1.320 -0.0748 -0.0987  0.0135
    1W        W44597  18.911  14.166   8.876 -0.2249 -0.1379 -0.0494
    1W        W44598  13.913  10.281   8.261  0.1143 -0.1484  0.1960
    1W        W44599  12.597  28.673   3.342  0.2041 -0.1752 -0.1259
    1W        W44600   1.342  26.507   0.418  0.0729 -0.4203  0.0316
    1W        W44601  12.754   4.316   0.281  0.0886 -0.2026 -0.1313
    1W        W44602   1.917  24.449   0.955 -0.1194 -0.2078  0.0244
    1W        W44603  27.323  17.718   7.913  0.1538  0.0648 -0.2621
    1W        W44604  23.711   0.052   0.726 -0.0299 -0.3688 -0.1410
    1W        W44605  18.792  18.242   7.151 -0.2257 -0.0255  0.1924
    1W        W44606  17.636   3.692   3.331 -0.2433 -0.1996 -0.0027
    1W        W44607   9.448  10.596   8.967  0.0252  0.0425  0.0669
    1W        W44608  29.746   0.789   3.386 -0.0208 -0.1276  0.3206
    1W        W44609   8.772  20.998   6.318  0.1173  0.2174  0.3075
    1W        W44610   0.970  16.803   9.548  0.0171 -0.1678  0.1183
    1W        W44611  19.213  24.876   1.621 -0.0585 -0.0157  0.0947
    1W        W44612   0.657   6.346   0.864 -0.0333 -0.0341 -0.0257
    1W        W44613  13.505  20.739   8.458 -0.0814 -0.1210 -0.3340
    1W        W44614  11.703  16.609   0.784  0.1118  0.3048  0.1467
    1W        W44615   0.832  22.177   8.122  0.4608 -0.1352 -0.2311
    1W        W44616   5.383  28.276   0.298  0.0427  0.1167  0.0752
    1W        W44617  24.700  24.718   2.002  0.2165 -0.3494  0.0638
    1W        W44618  27.851  22.253   0.167 -0.1327 -0.0576  0.0157
    1W        W44619  25.654  26.675   0.465 -0.1611 -0.0308 -0.5543
    1W        W44620  27.871  19.079   8.828 -0.0996  0.0916 -0.0580
    1W        W44621   3.239   5.899   3.205 -0.1789  0.0341 -0.0031
    1W        W44622  26.788  15.253   0.391 -0.2131  0.1545 -0.0818
    1W        W44623  25.492  20.641   6.365  0.0339  0.0748 -0.0004
    1W        W44624  29.396  12.177   2.001  0.4994 -0.1446 -0.0103
    1W        W44625   7.684   0.001   3.111  0.1449  0.0302  0.0561
    1W        W44626  13.392  27.233   7.376  0.2932 -0.1336 -0.0119
    1W        W44627   5.328   2.276   2.220 -0.0962  0.0549  0.2822
    1W        W44628  10.476  14.615   0.029  0.2054 -0.0412 -0.3509
    1W        W44629  11.051   9.375   1.462  0.3537 -0.3638 -0.2018
    1W        W44630  23.651  18.307   0.287 -0.0216 -0.0852  0.0339
    1W        W44631  25.662   3.084   1.352  0.0912  0.0596  0.1627
    1W        W44632  18.907  16.726   8.576 -0.2141 -0.4232 -0.1310
    1W        W44633  19.237   3.159   8.184 -0.2327 -0.4079 -0.0208
    1W        W44634  22.967  17.806   0.844 -0.0877 -0.0092 -0.0315
    1W        W44635   4.577  23.934   8.498  0.1366  0.1016 -0.0621
    1W        W44636   8.810   8.772   8.721 -0.2096  0.1648  0.2420
    1W        W44637  22.351   7.694   8.622 -0.0987  0.1442 -0.2943
    1W        W44638  28.522  19.712   1.978  0.0950  0.3313  0.1759
    1W        W44639  16.113  20.201   1.314  0.3396 -0.0953 -0.1543
    1W        W44640   3.728   1.485   9.331 -0.2537  0.1316 -0.2333
    1W        W44641  22.007  12.927   8.851  0.0155  0.2503 -0.3069
    1W        W44642  15.533   9.520   0.471  0.0649  0.3065  0.1733
    1W        W44643  14.303  22.790   1.576  0.0792 -0.1547 -0.1634
    1W        W44644  21.285  11.422   5.513 -0.2082  0.1589  0.1069
    1W        W44645  26.022  27.528   0.482 -0.1848  0.1334 -0.2207
    1W        W44646  15.360  18.899   1.726 -0.0456  0.1127  0.3424
    1W        W44647  25.174  18.788   1.029  0.3653 -0.1287  0.2234
    1W        W44648  15.745  11.181   2.560 -0.2419  0.0362  0.1689
    1W        W44649  21.188  25.059   6.539 -0.0804 -0.0844 -0.1344
    1W        W44650  15.704  22.581   2.884 -0.0284 -0.2036 -0.1677
    1W        W44651  12.710  15.721   0.146  0.0543  0.0059  0.2188
    1W        W44652   6.413   9.066   0.052 -0.1941 -0.1876  0.0030
    1W        W44653   3.004  17.452   8.237  0.2104  0.2711 -0.0123
    1W        W44654   6.678   6.978   9.483 -0.1371 -0.2137 -0.3770
    1W        W44655  15.717  29.510   7.980  0.0386  0.1131 -0.1123
    1W        W44656  29.076  10.218   0.973 -0.2489  0.0143  0.0351
    1W        W44657   2.547  24.623   0.921 -0.2486  0.0492  0.0094
    1W        W44658   4.065  16.045   0.737 -0.3979  0.0946  0.0574
    1W        W44659   1.106  16.343   0.973  0.1616  0.2804  0.3305
    1W        W44660   6.564  21.170   2.096 -0.0675 -0.1108  0.0069
    1W        W44661  14.128  24.682   7.292 -0.0966 -0.0948 -0.2124
    1W        W44662   3.846  19.770   7.375 -0.0872 -0.1132 -0.0040
    1W        W44663  10.164  19.268   8.057  0.0050 -0.1039 -0.3211
    1W        W44664   3.203  28.566   1.055 -0.0368 -0.1797 -0.1207
    1W        W44665  24.824  20.154   0.413  0.1759  0.1323  0.0340
    1W        W44666  29.201   9.544   2.037 -0.2975  0.2373  0.2065
    1W        W44667   8.648  25.890   1.782  0.0696 -0.0981 -0.1281
    1W        W44668  26.701  28.081   8.703  0.3243 -0.2335  0.1782
    1W        W44669   6.296   4.620   7.273  0.0648 -0.0817 -0.2029
    1W        W44670  17.214   5.514   0.169  0.0269 -0.0832 -0.1629
    1W        W44671   4.569  20.334   1.740 -0.1884  0.2162  0.0913
    1W        W44672  16.784   9.446   8.277 -0.1401  0.1602 -0.4854
    1W        W44673  18.073  12.827   6.696  0.0488 -0.0476 -0.0666
    1W        W44674   0.272  28.652   0.045  0.0840 -0.0526 -0.2261
    1W        W44675  21.182  13.227   2.605  0.1252 -0.2351  0.2843
    1W        W44676   5.437  25.087   8.667 -0.0359  0.2351  0.1446
    1W        W44677  25.752   2.821   0.820 -0.2135  0.3673 -0.1933
    1W        W44678  15.872  11.593   7.767 -0.1573  0.1380 -0.0578
    1W        W44679  13.563  28.745   8.513 -0.0590 -0.3406 -0.0359
    1W        W44680  12.556   2.760   7.178  0.0670  0.0038 -0.1320
    1W        W44681  20.671  25.046   3.001  0.0732 -0.2672  0.1187
    1W        W44682   9.833  29.596   0.756  0.0743 -0.1403 -0.0036
    1W        W44683   1.397  10.083   1.598  0.2438  0.2913  0.0603
    1W        W44684  18.267  25.914   6.925 -0.1896 -0.2752  0.0498
    1W        W44685  12.148  22.398   8.633 -0.4701  0.0230  0.0279
    1W        W44686  22.123  14.975   8.783 -0.0931  0.1288  0.1601
    1W        W44687   6.005  13.429   7.710 -0.0306  0.0852  0.1427
    1W        W44688   4.216   1.966   8.495 -0.2554  0.1859  0.0276
    1W        W44689  11.378  24.998   0.689 -0.1207 -0.3650 -0.0053
    1W        W44690  21.885  20.021   0.438  0.2699 -0.0584 -0.1600
    1W        W44691   3.190  19.233   7.938 -0.0907 -0.1213 -0.1562
    1W        W44692   0.961   8.740   1.887 -0.3548  0.1728 -0.1327
    1W        W44693  14.781  13.324   1.413 -0.1426  0.1697  0.0797
    1W        W44694  18.482   9.930   9.135 -0.0966 -0.4285  0.1429
    1W        W44695  20.585  14.897   6.217  0.0743 -0.0553 -0.1514
    1W        W44696   7.122   7.727   2.983  0.2407  0.0753 -0.0819
    1W        W44697  14.847   7.316   2.321 -0.1156  0.2531 -0.0581
    1W        W44698  10.470  10.161   1.101 -0.0056  0.1055  0.0733
    1W        W44699  26.825  16.590   6.412  0.1511 -0.1951 -0.2830
    1W        W44700  22.646  11.422   7.464  0.1993  0.1581  0.1228
    1W        W44701   2.107   1.853   8.744  0.1123  0.2015  0.0613
    1W        W44702   5.262  26.398   0.742 -0.0991  0.1254  0.0663
    1W        W44703  16.232   4.674   1.330  0.2727 -0.1414 -0.1597
    1W        W44704  16.410   1.653   8.875 -0.3122 -0.2008 -0.0324
    1W        W44705  15.167  18.194   8.062  0.0319 -0.1849  0.2275
    1W        W44706  22.541   5.338   0.203 -0.1229  0.0681  0.2036
    1W        W44707   3.744   6.666   7.045 -0.1219 -0.2104 -0.4551
    1W        W44708  24.876   3.218   2.265 -0.0888  0.1153  0.2319
    1W        W44709  22.509  17.836   8.703 -0.1380 -0.2764 -0.0138
    1W        W44710  20.089  17.430   5.769 -0.2590  0.0387 -0.1551
    1W        W44711  25.664  18.394   6.461  0.1395  0.1355 -0.0131
    1W        W44712  17.449  20.406   6.955 -0.0691 -0.1738  0.2515
    1W        W44713   3.344  19.643   8.273  0.0552  0.1910 -0.0396
    1W        W44714  16.374  25.641   8.257 -0.0032  0.1208  0.2319
    1W        W44715  26.581   6.390   2.498 -0.0998 -0.1645  0.4145
    1W        W44716  20.672  15.930   1.395 -0.0408  0.1988  0.1718
    1W        W44717   6.585  19.946   9.018 -0.0922  0.0794 -0.1306
    1W        W44718   2.019  22.827   1.807 -0.1245  0.3129  0.1063
    1W        W44719  29.122  19.886   6.321 -0.0729  0.1048 -0.1079
    1W        W44720  10.679  12.990   2.179 -0.0112 -0.1582  0.2418
    1W        W44721  22.220   1.586   7.703 -0.1565  0.0807 -0.3861
    1W        W44722  12.770  17.280   1.043  0.5028 -0.0243 -0.2018
    1W        W44723   2.418  12.080   0.059  0.1689  0.0334 -0.1239
    1W        W44724  18.724  27.220   0.839 -0.0351  0.1098 -0.0984
    1W        W44725   4.009  12.609   1.623  0.2572  0.0925 -0.0047
    1W        W44726  12.853  13.078   7.382  0.0772  0.2611  0.0029
    1W        W44727  24.808  26.710   7.346 -0.0477 -0.0268 -0.4031
    1W        W44728   4.742   9.009   7.518  0.0815 -0.0742  0.0700
    1W        W44729  14.611  10.431   1.442  0.0291  0.0670  0.0734
    1W        W44730   8.973  29.216   1.589  0.2491 -0.3467 -0.1364
    1W        W44731  24.036  26.814   1.418 -0.0107 -0.3906 -0.1307
    1W        W44732  16.803   5.404   7.895  0.1132 -0.0946 -0.1610
    1W        W44733   5.014  26.007   7.423  0.2668 -0.0731  0.3182
    1W        W44734   0.862  26.490   9.496  0.2782 -0.0733 -0.0660
    1W        W44735  25.661  22.044   8.555  0.1246 -0.1022 -0.2475
    1W        W44736  11.958  25.499   2.935 -0.1450 -0.0354  0.3306
    1W        W44737  13.942  11.911   9.206  0.2807  0.0486 -0.0010
    1W        W44738   0.242  22.554   8.898 -0.0611  0.1778 -0.0769
    1W        W44739  15.862   4.213   2.195  0.1191 -0.0268 -0.0724
    1W        W44740  15.829   4.986   2.540 -0.3818 -0.2117 -0.1134
    1W        W44741  28.895  16.740   7.695  0.2639  0.1678 -0.0642
    1W        W44742   9.762  21.208   9.024 -0.4711  0.2288 -0.2549
    1W        W44743  19.823  12.611   8.306  0.2306  0.3444 -0.0669
    1W        W44744   0.662   4.555   3.122  0.0758  0.0560  0.1844
    1W        W44745  14.561  19.361   0.094  0.1578  0.1630  0.0489
    1W        W44746  18.183  23.544   0.005  0.2985 -0.1547 -0.2688
    1W        W44747  15.493  14.849   7.303  0.1483  0.3147 -0.2459
    1W        W44748   9.522  25.401   8.505 -0.0865 -0.4524 -0.1307
    1W        W44749  13.613  19.013   7.940 -0.0955  0.0998  0.1155
    1W        W44750  28.903  27.468   0.281 -0.0961 -0.2401 -0.2698
    1W        W44751   5.484   8.966   2.950 -0.1909 -0.3155  0.1002
    1W        W44752  11.518  18.521   1.187  0.0410 -0.1941  0.0233
    1W        W44753  22.317  16.271   1.252 -0.0887  0.0098  0.1128
    1W        W44754   7.422   9.765   7.300  0.0673  0.0399 -0.0117
    1W        W44755   1.889  10.951   1.199 -0.0565 -0.1590  0.0110
    1W        W44756  15.019  25.853   9.536  0.0132 -0.2306 -0.0393
    1W        W44757  25.776  18.629   9.068  0.1616 -0.1637  0.2902
    1W        W44758  11.558  16.069   6.733  0.0738 -0.0789 -0.1122
    1W        W44759  27.171  10.936   7.072 -0.3543  0.1049 -0.0286
    1W        W44760  19.005   9.022   1.942 -0.1175  0.2794  0.2381
    1W        W44761  23.735   2.657   8.140  0.1082 -0.1695  0.3517
    1W        W44762   9.328  12.433   8.795  0.0384 -0.3523 -0.0689
    1W        W44763  24.427   8.740   6.066  0.0539 -0.2049 -0.1301
    1W        W44764   8.836  22.990   2.384  0.0457 -0.0007  0.0098
    1W        W44765  27.680  26.472   7.147 -0.1905 -0.2361  0.0883
    1W        W44766  26.449  11.474   9.408  0.2646  0.0664 -0.1695
    1W        W44767  19.964  12.273   1.601  0.3127 -0.0414  0.1017
    1W        W44768   5.574  18.252   8.228  0.0747 -0.1989 -0.3038
    1W        W44769  24.035   6.613   1.183 -0.1817 -0.0232 -0.0235
    1W        W44770  14.386  18.482   0.466 -0.1250  0.0300 -0.2382
    1W        W44771  14.371  28.586   9.541 -0.0867 -0.3939 -0.1983
    1W        W44772   6.219   2.370   7.219 -0.2244  0.4002 -0.1542
    1W        W44773  28.940  25.356   0.991  0.2606 -0.0404 -0.0237
    1W        W44774  19.276  13.931   1.766  0.0330 -0.0666 -0.2428
    1W        W44775  28.721   6.255   6.867  0.1189  0.0911 -0.0017
    1W        W44776  16.122  26.110   8.313 -0.1804  0.1135 -0.0485
    1W        W44777  17.580  12.488   1.724 -0.0253  0.2729  0.0860
    1W        W44778  25.874  21.026   7.443  0.0314  0.0326 -0.4170
    1W        W44779  26.463   8.282   2.323  0.0291  0.1651  0.2174
    1W        W44780  28.188   0.509   1.481  0.0303  0.0321 -0.0250
    1W        W44781   1.026  21.606   1.556  0.0896  0.2288  0.0600
    1W        W44782   4.691   0.367   6.996 -0.0403  0.1572 -0.0766
    1W        W44783  12.378  21.975   6.729  0.1740 -0.2012 -0.1847
    1W        W44784  16.853  11.945   2.782 -0.3627  0.1294  0.3455
    1W        W44785  25.107  15.785   9.508  0.1510 -0.2104  0.0533
    1W        W44786   8.445   4.148   7.550  0.3404  0.1161 -0.0273
    1W        W44787  21.625   2.955   9.315 -0.2258  0.1635 -0.2009
    1W        W44788   7.705   2.564   8.167  0.0156  0.0377 -0.2927
    1W        W44789  20.415  11.342   8.612  0.2936  0.1146  0.0893
    1W        W44790   9.639   6.520   8.104  0.4053 -0.0825  0.2342
    1W        W44791   3.570  27.615   7.027 -0.1315  0.2927 -0.1329
    1W        W44792  10.015  14.535   1.499  0.2750 -0.2412  0.1615
    1W        W44793   7.484  26.561   3.079  0.1807  0.2531 -0.1121
    1W        W44794  19.997   6.537   8.497  0.2558 -0.0020  0.1510
    1W        W44795  25.207   1.971   0.019 -0.1158 -0.1298  0.1844
    1W        W44796  12.186  28.724   3.014  0.2089 -0.1236  0.1263
    1W        W44797   5.531  17.942   0.229  0.1740  0.2157 -0.0318
    1W        W44798  26.266  26.341   7.673 -0.0675 -0.0240 -0.1633
    1W        W44799  24.624  18.576   5.257 -0.1765 -0.0795  0.1729
    1W        W44800  18.034  13.823   2.075  0.0280 -0.0433  0.4351
    1W        W44801   8.569   3.333   7.286  0.1564 -0.0801 -0.1294
    1W        W44802  13.883  28.325   1.836 -0.0416 -0.0716  0.4728
    1W        W44803  27.715  27.435   8.254 -0.2853  0.1417 -0.3644
    1W        W44804  28.609  28.305   0.280 -0.0712  0.3792  0.2952
    1W        W44805   2.660  23.947   8.033 -0.2666  0.0636  0.0078
    1W        W44806   6.591  10.598   7.448  0.0173  0.0620 -0.1726
    1W        W44807   6.751   9.533   6.996 -0.4186 -0.1767  0.0930
    1W        W44808   7.716  20.790   7.015  0.0330  0.6119  0.2533
    1W        W44809  13.324   1.686   2.914  0.1738 -0.1240 -0.2031
    1W        W44810  11.520   4.361   9.345  0.1085 -0.1114  0.2400
    1W        W44811  26.505   9.552   8.589  0.0555 -0.1392  0.4214
    1W        W44812  12.667   5.495   7.995 -0.0447 -0.0364  0.1280
    1W        W44813   8.681  20.744   7.232  0.2576  0.1243  0.0215
    1W        W44814  19.590  26.727   2.114 -0.1309 -0.3137 -0.1762
    1W        W44815  23.653  18.657   6.067 -0.0368 -0.3372 -0.1096
    1W        W44816  14.162  12.896   7.789 -0.1304  0.2669 -0.3086
    1W        W44817   3.955   8.064   1.694 -0.0270  0.6613 -0.0683
    1W        W44818   6.107   2.882   1.880  0.1197  0.0170  0.0678
    1W        W44819  10.087  20.773   6.728  0.1830 -0.0358 -0.2975
    1W        W44820  14.804   0.732   8.912  0.1517  0.0466  0.1745
    1W        W44821  12.525  22.121   0.502 -0.1564 -0.2615 -0.3591
    1W        W44822  26.849  26.201   6.722 -0.1296  0.2403 -0.2702
    1W        W44823   0.014  18.808   8.553  0.1380  0.1464 -0.0889
    1W        W44824  23.269   4.812   0.949  0.2281 -0.0068 -0.2838
    1W        W44825  23.799  14.624   7.763  0.0734 -0.1621  0.2041
    1W        W44826  29.393  28.381   1.137  0.0746  0.1791  0.0728
    1W        W44827  28.394  19.049   7.242  0.1828  0.3767 -0.0192
    1W        W44828  13.346   1.093   6.902 -0.3881 -0.0197 -0.2865
    1W        W44829  25.341  27.755   9.223  0.2016  0.2831  0.0213
    1W        W44830  20.837   7.166   9.497 -0.3108  0.0023  0.1359
    1W        W44831  24.686  15.940   8.721 -0.0295 -0.2335 -0.4755
    1W        W44832  19.759  24.057   8.421  0.1601  0.0091  0.0445
    1W        W44833  12.002   1.745   2.327 -0.2904  0.4876  0.1117
    1W        W44834  26.604  17.467   0.650  0.1075  0.0864 -0.0754
    1W        W44835   9.815  24.050   8.808  0.0698 -0.1935 -0.2640
    1W        W44836   9.769  19.848   2.065  0.0553  0.2467 -0.0329
    1W        W44837  15.987  27.715   2.247 -0.0877 -0.0892  0.2132
    1W        W44838  25.176  20.539   7.308  0.0808  0.1814 -0.2114
    1W        W44839  13.918  21.198   0.373  0.0873  0.3771  0.2248
    1W        W44840  19.872  12.638   7.217 -0.3145  0.1367  0.1346
    1W        W44841  26.399  19.071   7.114 -0.0438  0.1073  0.1780
    1W        W44842  14.906  29.195   0.637  0.0042  0.0710 -0.2447
    1W        W44843  22.655  14.551   1.347 -0.0329  0.1075 -0.2206
    1W        W44844  10.945  21.689   0.524 -0.0807  0.1339 -0.3108
    1W        W44845  13.502  25.681   7.337  0.2273  0.0031 -0.1598
    1W        W44846  20.163   0.587   1.041  0.1447 -0.3972 -0.0693
    1W        W44847   0.652  27.847   0.493  0.0473 -0.0211 -0.0051
    1W        W44848   9.931   4.424   9.215  0.2638 -0.3569 -0.2213
    1W        W44849   5.400  27.817   1.538 -0.0930 -0.1499 -0.0051
    1W        W44850   4.146  27.611   1.305 -0.2391 -0.2269 -0.1013
    1W        W44851   4.506  20.619   0.427 -0.0808 -0.3218  0.1607
    1W        W44852  24.906  10.397   1.989  0.2798 -0.5693  0.1694
    1W        W44853   1.546  15.888   1.699 -0.1614  0.1022 -0.0132
    1W        W44854   1.038   9.716   2.158  0.1015 -0.3537  0.2040
    1W        W44855  27.291  13.388   7.126 -0.0116 -0.0490  0.0871
    1W        W44856  20.136   2.858   0.459  0.2850  0.0820 -0.0187
    1W        W44857  23.883  19.183   0.161  0.1436 -0.0304 -0.1098
    1W        W44858  22.381  19.520   6.768  0.1280  0.1598  0.0410
    1W        W44859  15.713  21.518   6.363 -0.5308 -0.1054 -0.1061
    1W        W44860   7.424   2.551   7.308  0.2954  0.2122 -0.3214
    1W        W44861  26.473   7.107   7.310  0.0255  0.1075 -0.1310
    1W        W44862   1.462  22.896   1.774 -0.0084 -0.1034 -0.2686
    1W        W44863  12.091   3.807   3.438 -0.0035 -0.0804 -0.4372
    1W        W44864  13.655  25.405   1.779 -0.2857  0.1710  0.1778
    1W        W44865  22.976  16.834   8.563 -0.0710  0.1957 -0.3624
    1W        W44866  13.580  22.563   6.875  0.1147 -0.3240  0.1645
    1W        W44867  23.592  20.665   1.689  0.2139 -0.2237 -0.0227
    1W        W44868  10.991   9.498   2.721  0.2206 -0.0142  0.1729
    1W        W44869  28.872   3.801   6.448  0.1545  0.0898  0.0690
    1W        W44870   2.147   1.444   1.189 -0.2785 -0.1136 -0.0555
    1W        W44871   9.123   5.075   0.264  0.2213 -0.1413  0.0030
    1W        W44872   0.383   5.213   2.653 -0.1813  0.2186  0.1332
    1W        W44873   8.883   2.669   1.798 -0.1511  0.1748  0.2407
    1W        W44874  28.753   6.850   8.913 -0.3480  0.0557  0.0534
    1W        W44875   5.784   6.356   2.618  0.3043  0.0694  0.1339
    1W        W44876   7.487  21.317   0.008 -0.1166  0.0186 -0.0011
    1W        W44877  23.663  29.463   8.147  0.2287 -0.3620  0.0038
    1W        W44878  14.159   9.814   9.267  0.4166  0.1559 -0.0246
    1W        W44879  10.273   7.394   2.825  0.0134 -0.0515  0.2639
    1W        W44880   0.709   1.308   8.915 -0.1187 -0.0058  0.0939
    1W        W44881  21.093  15.545   7.281  0.0490  0.1527 -0.0688
    1W        W44882  28.950  16.397   1.021 -0.0359  0.1921  0.2720
    1W        W44883   3.111  20.133   8.083  0.2738 -0.1421  0.4263
    1W        W44884  18.949  21.332   8.109  0.1990 -0.1799 -0.1375
    1W        W44885  23.851  10.319   0.696 -0.1136  0.1050 -0.5310
    1W        W44886  25.876  23.670   7.253 -0.1497  0.1061 -0.3325
    1W        W44887  11.410   0.140   3.019 -0.0569  0.0908  0.0730
    1W        W44888   9.319   7.917   7.369 -0.1858  0.1640  0.1537
    1W        W44889  21.809  13.552   7.393  0.0738 -0.1145  0.1775
    1W        W44890  15.425  11.348   2.918 -0.2312 -0.0107  0.0673
    1W        W44891  29.206  23.425   2.007 -0.0385  0.3062 -0.0586
    1W        W44892   0.378   8.421   7.865  0.1164  0.1101 -0.0831
    1W        W44893  27.802  11.345   0.685 -0.1212  0.1975  0.0536
    1W        W44894  19.612  22.041   9.246 -0.1027  0.0659  0.0477
    1W        W44895   2.156   4.754   2.904 -0.0373  0.3045  0.1097
    1W        W44896  20.753   2.521   8.127  0.2893 -0.3537 -0.1802
    1W        W44897  22.367  11.458   5.704  0.0075  0.1565  0.0179
    1W        W44898  22.993   2.311   7.940  0.1179 -0.0656  0.0333
    1W        W44899  23.484   4.499   9.259 -0.2612  0.1409  0.2384
    1W        W44900  19.412  21.221   6.968 -0.1766 -0.4891 -0.0042
    1W        W44901  22.843  13.737   9.047  0.2519 -0.0320 -0.0488
    1W        W44902  26.051  11.406   9.032  0.1435 -0.3070  0.1519
    1W        W44903  19.305  25.178   1.184  0.2589  0.2881 -0.1639
    1W        W44904  29.352  18.304   7.294  0.0981  0.0326 -0.0090
    1W        W44905  15.280  22.468   0.854 -0.0114  0.1378 -0.2281
    1W        W44906  21.927   1.760   0.716 -0.2666  0.2042 -0.3671
    1W        W44907  20.386   9.971   7.941  0.1425 -0.2475  0.1774
    1W        W44908   6.713   2.712   7.876  0.2536 -0.1247 -0.2189
    1W        W44909  18.006  21.199   7.093  0.1201 -0.3227  0.2060
    1W        W44910  12.390  11.806   8.165  0.0665  0.1927  0.0833
    1W        W44911  13.300  19.751   0.613 -0.0549 -0.1987 -0.3679
    1W        W44912   9.506   6.921   7.069 -0.4856  0.2513  0.0016
    1W        W44913   3.869   0.932   1.463  0.0163 -0.1966 -0.0635
    1W        W44914   3.907  16.977   7.498  0.1903 -0.3408 -0.0703
    1W        W44915  10.715   2.403   0.314 -0.2087 -0.4519  0.0448
    1W        W44916  18.567   6.862   1.341 -0.0021 -0.3097  0.0844
    1W        W44917  21.614  16.553   6.355  0.2095  0.0794 -0.1659
    1W        W44918  11.015  14.946   0.111  0.1261  0.1545  0.2008
    1W        W44919   4.065   5.630   0.916  0.0295  0.1840  0.1031
    1W        W44920  26.792   4.572   1.660  0.0942  0.3682 -0.0781
    1W        W44921   7.040  22.134   2.403 -0.0108 -0.2402  0.0253
    1W        W44922  24.300  17.716   8.584  0.2199  0.1217 -0.4621
    1W        W44923  19.309  25.163   8.333 -0.1174 -0.0537  0.0400
    1W        W44924   4.573  11.160   0.917  0.1924 -0.0897 -0.1608
    1W        W44925   8.416   5.682   0.166 -0.0148 -0.2393 -0.2465
    1W        W44926   6.515  22.576   8.736  0.0388  0.1039 -0.0848
    1W        W44927  17.560  16.118   1.067 -0.0007  0.4209 -0.2203
    1W        W44928  18.491   5.238   7.331 -0.1114  0.0219 -0.2506
    1W        W44929   9.205  19.942   8.370 -0.1584 -0.2560  0.2211
    1W        W44930   7.003   1.972   8.420 -0.0858 -0.1640  0.2927
    1W        W44931  21.101  23.259   9.274 -0.2724 -0.1751 -0.1720
    1W        W44932  18.920  24.713   7.570 -0.0305 -0.2069 -0.1665
    1W        W44933  17.052  13.710   6.243  0.0463  0.4063  0.0804
    1W        W44934   8.451   3.711   3.190  0.1342  0.0017 -0.0035
    1W        W44935  17.126  12.322   8.066  0.2345  0.0496  0.0687
    1W        W44936   5.197   0.675   7.060 -0.3166 -0.4901  0.1419
    1W        W44937  15.087  15.191   7.338 -0.0857  0.0030  0.3678
    1W        W44938  11.580   9.323   7.188 -0.0780  0.2251 -0.0781
    1W        W44939  10.455   4.350   9.148  0.1446 -0.1520  0.3765
    1W        W44940   5.416  28.917   2.972  0.3693  0.2004  0.1120
    1W        W44941   1.911  26.438   8.318  0.0693 -0.1893  0.2358
    1W        W44942   0.888  23.364   1.821 -0.1327 -0.0487 -0.1118
    1W        W44943  18.716  17.474   2.255  0.1697  0.0697  0.1867
    1W        W44944  26.431  21.514   1.184  0.0527 -0.1051 -0.3112
    1W        W44945   3.409  26.937   2.169  0.2237  0.3172  0.0672
    1W        W44946  19.073  19.144   8.022  0.0106  0.4410  0.2647
    1W        W44947  24.847   4.943   8.388  0.0466  0.0110 -0.1600
    1W        W44948  11.581  18.924   2.327  0.1535 -0.0910  0.3375
    1W        W44949  25.074  14.448   0.770  0.4433 -0.1577 -0.0545
    1W        W44950   6.779   5.901   8.923 -0.1844  0.1764  0.0933
    1W        W44951   7.279  25.746   9.364 -0.3310  0.0133  0.0841
    1W        W44952   7.518  22.879   7.098  0.1817 -0.1834  0.1913
    1W        W44953   2.910   4.034   7.376  0.2773 -0.2949 -0.3535
    1W        W44954  10.612  12.051   2.420  0.2130  0.0755 -0.5505
    1W        W44955  10.414  23.228   9.357  0.2973 -0.2400  0.2024
    1W        W44956  26.666   7.979   7.589 -0.2379 -0.2029  0.0232
    1W        W44957  28.870   2.937   1.619  0.0104 -0.0628 -0.0415
    1W        W44958  18.878  25.649   0.122  0.0727 -0.0075  0.3515
    1W        W44959  11.363  17.099   8.746  0.1753 -0.0942  0.1474
    1W        W44960   1.781  10.929   1.704  0.2128  0.3636  0.0008
    1W        W44961  15.596   9.749   6.937 -0.1462  0.3498 -0.2625
    1W        W44962  10.620   3.846   1.354  0.0814 -0.0382 -0.0831
    1W        W44963   3.462  18.139   0.143 -0.2241 -0.0375  0.1400
    1W        W44964   2.318   6.442   8.922 -0.2374  0.2115  0.0597
    1W        W44965  16.825   3.383   7.291 -0.0679 -0.0050  0.0019
    1W        W44966  10.426   8.709   2.308  0.0563 -0.0157  0.1743
    1W        W44967  17.508  19.687   7.262 -0.1528 -0.0551 -0.0346
    1W        W44968  14.235  10.332   1.869 -0.1271  0.2010 -0.0129
    1W        W44969   8.369  12.785   1.027  0.1666 -0.0944 -0.3304
    1W        W44970  23.908  20.988   7.561 -0.1312 -0.1682  0.0252
    1W        W44971  16.445  27.936   2.836  0.0574 -0.0294  0.2070
    1W        W44972  26.101  21.760   8.376 -0.1405  0.0496 -0.1457
    1W        W44973  25.668   2.925   3.311  0.1244  0.1541 -0.0666
    1W        W44974   0.613  26.362   8.559  0.2942 -0.2246  0.1224
    1W        W44975   9.343  26.453   2.103 -0.0279  0.0237 -0.0611
    1W        W44976   0.188   8.269   8.978 -0.2577  0.0905  0.2103
    1W        W44977  13.751   1.398   1.894  0.0213  0.0926  0.4714
    1W        W44978  18.280  16.795   0.185  0.2295 -0.1187  0.0615
    1W        W44979  22.815  12.831   9.042 -0.0182  0.1233 -0.0109
    1W        W44980  29.669   6.265   8.754  0.0885  0.1133  0.1931
    1W        W44981  21.223  15.677   6.496  0.0022  0.0736 -0.2270
    1W        W44982  18.349  11.198   0.198  0.1806  0.2382 -0.0173
    1W        W44983  19.561  19.998   6.740 -0.1170 -0.2462  0.0761
    1W        W44984  27.260  20.001   9.400  0.1003 -0.3052 -0.2344
    1W        W44985   4.329   9.597   3.095 -0.0365  0.0505  0.2417
    1W        W44986   2.650   9.724   7.389  0.2979 -0.0101 -0.0562
    1W        W44987  15.989  29.708   2.137  0.0254  0.1815  0.1726
    1W        W44988  26.933  29.034   8.341  0.3422 -0.2600 -0.1488
    1W        W44989   7.396  28.433   6.841 -0.0699  0.1133 -0.1198
    1W        W44990  27.984  25.458   8.158 -0.0498 -0.2610  0.1093
    1W        W44991  24.901  21.525   6.683 -0.3464  0.2742 -0.2392
    1W        W44992  10.758   9.623   9.431 -0.0587 -0.2258  0.1634
    1W        W44993  16.054  18.654   6.411 -0.3468 -0.0966 -0.5951
    1W        W44994  29.475   4.284   9.203  0.1237  0.0010 -0.2651
    1W        W44995  20.271  23.455   1.112  0.2132 -0.2268 -0.1562
    1W        W44996  15.767   1.531   2.557  0.1968  0.0028 -0.3490
    1W        W44997   2.541   8.303   1.759  0.0543  0.3009 -0.0016
    1W        W44998   2.090  24.559   8.287  0.2652 -0.3014 -0.0743
    1W        W44999   7.005  20.841   8.045 -0.1583 -0.1328 -0.2191
    1W        W45000  14.848   0.820   8.103  0.1348  0.3188  0.0618
    1W        W45001  13.703  19.336   7.550  0.3365 -0.0986 -0.0164
    1W        W45002  13.806  26.485   9.286 -0.1540  0.3791 -0.1924
    1W        W45003   2.506  28.823   8.556  0.0560 -0.0256  0.3089
    1W        W45004   3.939  27.225   6.986  0.1530 -0.3226  0.4594
    1W        W45005  11.533   9.176   1.279 -0.0835 -0.3967  0.3197
    1W        W45006   3.520  26.194   7.414 -0.1468  0.2474  0.3027
    1W        W45007  20.747  19.190   7.064  0.1797 -0.0903  0.3013
    1W        W45008  17.214  25.260   0.229  0.0830 -0.1231  0.1766
    1W        W45009  27.611  27.880   7.396 -0.0216  0.0199 -0.4936
    1W        W45010   8.663   2.904   3.496  0.1074  0.1578  0.1042
    1W        W45011  20.817   9.929   7.041 -0.0500  0.4727  0.2197
    1W        W45012  12.266   8.662   2.623  0.0706  0.0537  0.3761
    1W        W45013   6.345  26.704   0.098 -0.0479 -0.0207 -0.3428
    1W        W45014  19.060  19.737   7.381  0.1652  0.0696  0.2616
    1W        W45015   8.911   7.764   2.723  0.2725 -0.1559  0.1444
    1W        W45016   7.110  10.339   9.394 -0.0085 -0.0444  0.0435
    1W        W45017   7.173  19.608   7.566  0.0037  0.1123  0.0882
    1W        W45018  17.684  17.271   7.508 -0.0029 -0.0839 -0.3950
    1W        W45019  10.470   7.014   7.427  0.3302 -0.2535 -0.0498
    1W        W45020  11.141   9.669   6.516  0.2076  0.2615 -0.0023
    1W        W45021  16.801  10.329   0.414 -0.0372 -0.2771  0.1756
    1W        W45022  15.465   1.325   9.348  0.0856 -0.0715 -0.1453
    1W        W45023  10.930  26.528   0.162 -0.0449 -0.0383  0.0407
    1W        W45024   1.184  23.119   1.435  0.2974  0.3562 -0.0589
    1W        W45025  23.615   0.444   6.679  0.1486  0.2079 -0.2568
    1W        W45026  16.397   8.510   7.127 -0.0908  0.2746  0.1326
    1W        W45027   8.871  17.090   1.136 -0.0900 -0.0047 -0.0253
    1W        W45028   5.537  15.131   9.506  0.0758  0.0266  0.2605
    1W        W45029   6.098  14.485   1.616  0.1177 -0.0085  0.1861
    1W        W45030  20.869  16.409   8.102 -0.0519  0.0089  0.1677
    1W        W45031   4.535  25.183   6.310  0.1939  0.2010 -0.0565
    1W        W45032  22.065  21.379   7.059 -0.2121 -0.3238  0.1461
    1W        W45033  16.123   5.821   2.324  0.1831  0.0042  0.1051
    1W        W45034  13.543  11.072   7.628  0.0721 -0.1371  0.0459
    1W        W45035   6.464   8.716   2.239 -0.1709 -0.1408  0.0035
    1W        W45036  18.321  17.218   0.405 -0.2372  0.2171 -0.1203
    1W        W45037  27.646   7.834   1.997  0.2318  0.0666  0.0236
    1W        W45038  29.076  27.003   7.819  0.1064  0.3586 -0.0664
    1W        W45039  29.139  18.765   0.672  0.1052  0.3264  0.0198
    1W        W45040   7.241  23.936   0.611 -0.0103  0.2648 -0.0391
    1W        W45041  13.838  13.114   1.815 -0.0651 -0.0681  0.0125
    1W        W45042   7.447   7.302   0.415 -0.1702  0.1942 -0.0634
    1W        W45043   0.306   1.180   7.233 -0.0683 -0.0413 -0.0980
    1W        W45044   7.696  28.027   7.754 -0.2650  0.2665  0.2235
    1W        W45045  20.037  12.804   0.014 -0.1695  0.0502 -0.2984
    1W        W45046  26.558   4.501   2.116 -0.3880  0.0714 -0.1173
    1W        W45047   4.255  20.368   7.977  0.1001 -0.1045  0.1451
    1W        W45048  13.846  15.706   0.045 -0.0189 -0.1293 -0.1749
    1W        W45049  29.067  23.334   2.464  0.2773  0.1834 -0.0764
    1W        W45050   7.535   9.525   8.145 -0.0709  0.0850 -0.1090
    1W        W45051  21.284   3.986   0.174 -0.0831  0.0984 -0.3017
    1W        W45052  19.636  25.912   6.857  0.3799 -0.1549  0.0831
    1W        W45053  20.090  17.778   2.364  0.1094 -0.0495 -0.2165
    1W        W45054  24.132  29.350   9.448 -0.3430 -0.0452  0.2423
    1W        W45055   1.901  10.334   7.372 -0.1070  0.1185  0.0167
    1W        W45056  28.164   4.673   0.969 -0.0761  0.0921 -0.0876
    1W        W45057   3.735   3.804   6.992 -0.3157 -0.0921  0.1343
    1W        W45058  11.669   8.863   6.974  0.2212  0.2283  0.3164
    1W        W45059   0.721  15.600   8.661  0.1712  0.1521  0.0327
    1W        W45060   7.246  15.051   2.272  0.0373  0.2226  0.0163
    1W        W45061  27.406   1.169   0.552 -0.0710  0.3772  0.2672
    1W        W45062  13.032  10.202   1.306 -0.1502 -0.0336  0.0554
    1W        W45063  15.096  20.382   6.621 -0.1290  0.0531 -0.1560
    1W        W45064  23.190  11.257   2.361 -0.1722 -0.0875 -0.0099
    1W        W45065   5.058  24.202   8.714 -0.3680  0.0337  0.0827
    1W        W45066  11.374  11.489   3.019 -0.0726  0.0834  0.1592
    1W        W45067  19.764  11.573   7.053 -0.2233 -0.3383 -0.0146
    1W        W45068   3.036  15.594   8.933 -0.1804 -0.1538  0.1492
    1W        W45069  24.876  27.728   2.545  0.2343  0.2458 -0.4084
    1W        W45070   5.992  21.315   6.512  0.0649  0.2269 -0.0173
    1W        W45071  14.544   2.457   0.234  0.0757 -0.2217 -0.0993
    1W        W45072   0.931  22.963   2.122 -0.2618  0.2499 -0.0146
    1W        W45073  22.923   7.153   0.200 -0.1163 -0.0770  0.1021
    1W        W45074   4.401  10.201   8.609  0.1722  0.2364 -0.0337
    1W        W45075  24.477  13.121   0.079  0.1883 -0.1377  0.0218
    1W        W45076  16.748  17.824   8.275 -0.1392  0.0437 -0.1065
    1W        W45077  13.856  23.481   8.480  0.0959 -0.1004  0.2053
    1W        W45078   8.252   9.200   7.861 -0.0130 -0.3004 -0.1170
    1W        W45079  25.989  28.928   0.083 -0.0988  0.2915 -0.0139
    1W        W45080  15.931  23.262   6.064 -0.0832  0.0608 -0.0055
    1W        W45081  23.035  22.026   1.342 -0.2715 -0.2182  0.1550
    1W        W45082  17.634  18.184   8.196  0.0526 -0.4581 -0.1911
    1W        W45083  21.577  15.444   9.412 -0.2209  0.2538  0.4609
    1W        W45084  15.541   9.116   2.738  0.0101 -0.2459  0.1994
    1W        W45085   5.974  27.020   0.522  0.1657 -0.3350  0.0973
    1W        W45086  27.939   1.352   2.617  0.0186  0.1749  0.1532
    1W        W45087  11.927  26.512   7.621 -0.0025 -0.0433  0.1532
    1W        W45088  28.941  27.346   9.328 -0.0816 -0.2336  0.4207
    1W        W45089   3.669  26.575   9.531  0.0586  0.6049  0.3932
    1W        W45090   6.630  24.311   8.510 -0.0479  0.1401 -0.1378
    1W        W45091  19.601   6.024   7.870  0.4872 -0.0448 -0.1151
    1W        W45092  22.018   0.384   8.673  0.0680  0.1362 -0.1157
    1W        W45093  19.294  25.720   1.050  0.1573 -0.0025 -0.1310
    1W        W45094  29.209   2.572   7.285  0.0916 -0.0999  0.0999
    1W        W45095  26.822  28.963   2.327  0.3990 -0.2155  0.0716
    1W        W45096  12.408  13.692   0.341 -0.0215 -0.0060 -0.2278
    1W        W45097  27.463  24.425   7.352  0.2843  0.0690 -0.2802
    1W        W45098  18.035   1.851   7.860 -0.1137 -0.0242  0.0961
    1W        W45099   9.405  12.396   1.187 -0.3253 -0.1630 -0.0576
    1W        W45100  10.987  29.727   0.503 -0.0006 -0.1004 -0.0023
    1W        W45101   4.490  18.661   1.072  0.2283  0.0786  0.0335
    1W        W45102  12.843   9.881   0.943 -0.6362  0.1093 -0.3091
    1W        W45103  14.888  17.322   0.805 -0.4454  0.3754  0.2545
    1W        W45104  21.664  15.941   0.735 -0.0403  0.1265 -0.0615
    1W        W45105   1.214  25.579   7.211 -0.1084  0.3429 -0.3859
    1W        W45106   0.480  29.567   1.243  0.0036 -0.0810  0.0418
    1W        W45107   5.003  25.831   2.161 -0.1904 -0.0181 -0.2615
    1W        W45108  23.381  24.509   0.411  0.0375 -0.0174  0.1554
    1W        W45109  28.272  19.889   7.267 -0.2511 -0.0995 -0.1097
    1W        W45110  25.015  28.733   0.094 -0.1837  0.1679 -0.2337
    1W        W45111   8.495  19.079   1.423  0.0602 -0.0698  0.1061
    1W        W45112  16.266   3.792   8.351  0.1229  0.3873 -0.1545
    1W        W45113  19.441   9.851   0.781 -0.1631 -0.3453 -0.1591
    1W        W45114  10.825   4.981   3.406  0.0236 -0.1013  0.1323
    1W        W45115  26.337  28.382   1.590 -0.3644 -0.1049  0.0251
    1W        W45116  28.187   0.632   8.781 -0.0479 -0.0014 -0.2307
    1W        W45117   2.770  20.909   1.646  0.2475  0.1268  0.1008
    1W        W45118   4.507  26.652   0.494  0.1755  0.1650 -0.3026
    1W        W45119  16.849  20.012   1.233 -0.0371  0.2007  0.0514
    1W        W45120  15.428  20.163   3.012  0.2676  0.3628 -0.1932
    1W        W45121  16.614   1.697   2.966  0.3776 -0.2901 -0.3250
    1W        W45122  19.224  11.960   0.071 -0.1003  0.1111  0.0666
    1W        W45123  14.837  28.419   2.612  0.0161  0.2597 -0.0442
    1W        W45124  17.636   0.942   9.265 -0.0503 -0.0770  0.1870
    1W        W45125   8.519  28.465   1.596 -0.0045  0.1834 -0.2520
    1W        W45126   9.209  27.214   0.241 -0.3188 -0.3210  0.1705
    1W        W45127   1.634   9.384   8.275  0.0444 -0.2368 -0.1057
    1W        W45128  21.267   7.166   0.881 -0.0009 -0.0364 -0.0285
    1W        W45129  20.942   5.202   0.947  0.3241 -0.2132  0.0127
    1W        W45130  25.420  17.058   6.365 -0.1693  0.0640 -0.0093
    1W        W45131  19.056  23.006   0.788  0.0701  0.0815  0.1754
    1W        W45132   2.537  29.124   1.006  0.3311 -0.1582  0.1623
    1W        W45133  25.342  26.373   2.381 -0.3058 -0.1628  0.0576
    1W        W45134  24.557   5.570   9.064 -0.2751 -0.0849 -0.0643
    1W        W45135   2.358   0.497   2.391  0.0178 -0.0527 -0.1964
    1W        W45136  26.498   1.830   0.423  0.1567  0.1992 -0.1677
    1W        W45137  23.345   5.504   1.318  0.2026  0.0266  0.0558
    1W        W45138  13.539  16.006   1.949 -0.0544  0.1142 -0.0939
    1W        W45139  20.132   2.829   3.400  0.1102 -0.2423  0.0542
    1W        W45140  12.914  19.910   8.031  0.2601  0.0020  0.0032
    1W        W45141   6.096   9.947   3.062 -0.0648 -0.2634  0.1562
    1W        W45142  21.458  28.218   0.669  0.0195 -0.1959 -0.2162
    1W        W45143  24.046  12.354   0.171  0.2488 -0.2209 -0.1245
    1W        W45144  15.877  21.120   1.671 -0.1448  0.3550 -0.1267
    1W        W45145  27.373   3.864   7.949  0.0397  0.2440  0.3668
    1W        W45146  10.158   0.225   7.106 -0.1718 -0.3225  0.0132
    1W        W45147  18.023   1.567   8.347  0.0223  0.2318 -0.0832
    1W        W45148  21.904   7.364   1.471 -0.0633 -0.3939 -0.5433
    1W        W45149  16.507  23.827   6.386  0.1737 -0.1022 -0.1041
    1W        W45150   9.757  10.871   9.312 -0.1713  0.1338  0.0888
    1W        W45151  10.061  22.265   9.064 -0.0328 -0.0120 -0.1752
    1W        W45152   2.940   5.134   2.947 -0.2088 -0.0696  0.1592
    1W        W45153   2.179  15.359   7.659 -0.3126 -0.0425  0.0384
    1W        W45154   1.043   1.048   7.636 -0.0386 -0.2720 -0.3382
    1W        W45155  26.324   2.658   0.784  0.1323 -0.1081  0.0057
    1W        W45156  19.749   4.073   0.247 -0.1488  0.2094  0.2608
    1W        W45157   4.297  22.348   1.185 -0.1202  0.1129 -0.3452
    1W        W45158   3.384  26.259   1.515 -0.1491 -0.0510 -0.0009
    1W        W45159  23.686   9.647   0.241 -0.1595  0.0364 -0.1150
    1W        W45160  25.716  21.428   1.674 -0.3648  0.3655 -0.2243
    1W        W45161  10.016  18.752   0.729  0.0050 -0.4013  0.0212
    1W        W45162   7.122  13.508   1.545 -0.1399  0.0218  0.1234
    1W        W45163  22.855   6.498   8.869  0.3319  0.1166  0.1603
    1W        W45164  18.434  27.980   7.879 -0.0599 -0.0092  0.1831
    1W        W45165  24.498   9.878   8.399  0.0889  0.1673 -0.1645
    1W        W45166  15.492   2.217   0.468  0.2928 -0.1500 -0.1561
    1W        W45167   1.163  25.123   0.149 -0.1272  0.2292 -0.0978
    1W        W45168  24.284  21.518   7.374 -0.4059 -0.0111  0.1120
    1W        W45169  23.772  16.640   6.380  0.1939 -0.0134  0.1306
    1W        W45170   9.270   6.425   3.217 -0.0690 -0.1496 -0.0733
    1W        W45171  11.448  11.073   6.701  0.0232  0.4508 -0.2260
    1W        W45172  13.713  22.089   7.104  0.0988 -0.3573  0.0538
    1W        W45173  14.968  23.505   7.720  0.0777 -0.1792 -0.1792
    1W        W45174  23.527  14.187   1.615 -0.3292 -0.0495  0.0157
    1W        W45175   1.587   5.188   2.032 -0.1932  0.1751  0.1324
    1W        W45176   3.614   1.118   1.872 -0.1740  0.0041 -0.3933
    1W        W45177  22.492  28.636   3.612 -0.1146 -0.2405  0.1947
    1W        W45178  23.770  20.003   9.491 -0.0401 -0.1451 -0.0285
    1W        W45179  24.920  20.645   9.124 -0.0421  0.1223 -0.3388
    1W        W45180  24.649  23.945   6.831 -0.1211  0.3847 -0.1632
    1W        W45181  15.800  25.215   3.164  0.2220  0.1335 -0.0095
    1W        W45182   7.607   1.587   0.052  0.2412  0.3028  0.0018
    1W        W45183   6.177   8.464   0.077 -0.0762 -0.3590 -0.0046
    1W        W45184  27.789  26.866   6.815 -0.2034 -0.0751 -0.1602
    1W        W45185  13.844  24.823   2.017 -0.0271  0.0196 -0.2652
    1W        W45186  10.504   1.186   8.652  0.0744  0.3108  0.0362
    1W        W45187  14.225  25.730   2.628 -0.1215  0.2670  0.0079
    1W        W45188  13.577  26.813   7.144 -0.0984  0.4364  0.1952
    1W        W45189  11.826   5.746   9.073  0.2767 -0.3939 -0.1080
    1W        W45190   9.553  24.384   6.783 -0.4552 -0.0523  0.0539
    1W        W45191  17.548  24.148   8.846 -0.1795 -0.1286 -0.0776
    1W        W45192  11.274   4.210   1.609 -0.0400 -0.2811  0.3180
    1W        W45193  11.685  23.870   0.217 -0.0508 -0.1134  0.2316
    1W        W45194  10.404   4.594   2.577 -0.0787  0.1571  0.0013
    1W        W45195  28.843  26.780   2.443 -0.0060 -0.3333  0.0327
    1W        W45196   9.792  26.774   0.780 -0.1061  0.0162 -0.1466
    1W        W45197   9.535  27.814   8.716 -0.0889  0.0526  0.0548
    1W        W45198  29.696  14.392   0.095 -0.2491 -0.1566 -0.0938
    1W        W45199   7.337  23.568   2.021  0.4734  0.2925  0.0102
    1W        W45200   2.356  20.188   9.324  0.2455  0.1488  0.1597
    1W        W45201   5.011  10.419   9.237 -0.0980 -0.0009  0.0770
    1W        W45202  22.996  19.513   6.391  0.0372  0.1279 -0.1916
    1W        W45203   4.820  19.707   2.018 -0.0928  0.1685  0.0153
    1W        W45204  16.599   9.872   8.431 -0.0100 -0.0176 -0.2221
    1W        W45205  10.854   0.706   0.715 -0.2920 -0.1647  0.0672
    1W        W45206  17.684   8.334   8.837 -0.5396 -0.3170 -0.0846
    1W        W45207  13.986  21.052   8.956  0.1727  0.1216  0.1097
    1W        W45208  17.012  23.532   1.450  0.2543  0.2849  0.0018
    1W        W45209  22.040   5.167   3.705 -0.2396  0.0945  0.1444
    1W        W45210  15.276  18.091   8.534  0.0381  0.1950  0.0189
    1W        W45211  26.938  19.174   7.166 -0.0261 -0.2329  0.0624
    1W        W45212  24.433  10.625   6.120 -0.0328 -0.2310 -0.2251
    1W        W45213  11.560  17.488   8.390  0.2369  0.3177 -0.2401
    1W        W45214  26.620   9.675   1.960 -0.2019  0.0617 -0.2446
    1W        W45215   5.973  15.442   0.826  0.1514  0.1426 -0.2045
    1W        W45216   0.558  26.063   2.159  0.0012  0.2468 -0.0399
    1W        W45217   6.477  24.244   1.745 -0.2055 -0.2014  0.0216
    1W        W45218  27.978   9.204   8.606 -0.2055 -0.0130  0.0224
    1W        W45219  19.164   8.662   6.752  0.0673  0.3384  0.1504
    1W        W45220  13.698  16.366   6.964 -0.1232  0.2376  0.2787
    1W        W45221   2.874  21.508   0.660 -0.2272  0.2831 -0.1356
    1W        W45222   0.425   0.322   1.233  0.0799  0.0132 -0.2704
    1W        W45223  22.466  28.826   0.863  0.1915 -0.3982  0.3103
    1W        W45224  25.020  19.965   7.418  0.1084  0.2981 -0.0918
    1W        W45225   2.499  18.076   8.864  0.1477  0.5821 -0.0687
    1W        W45226   7.914  17.400   9.315  0.1011  0.2627 -0.0885
    1W        W45227  21.726  17.689   8.037 -0.0872  0.3187 -0.0723
    1W        W45228  23.941  20.302   1.612  0.2220  0.1501  0.0751
    1W        W45229   4.878  17.048   1.614 -0.2113 -0.1689  0.0760
    1W        W45230   1.358  16.461   9.317 -0.1922  0.1453  0.1164
    1W        W45231  26.950  23.433   0.063 -0.2040  0.0500 -0.5075
    1W        W45232  29.516  24.065   7.918 -0.1274 -0.3403 -0.0018
    1W        W45233  23.648  10.492   6.531  0.0998  0.0560 -0.0089
    1W        W45234  18.896  24.881   0.880 -0.3541 -0.1971  0.0243
    1W        W45235  28.865  25.199   6.810 -0.0720 -0.1314 -0.4213
    1W        W45236  15.767  20.207   6.093  0.0657 -0.0868  0.2045
    1W        W45237   4.160   9.172   7.744 -0.2151 -0.1141  0.1487
    1W        W45238  16.388   1.440   2.170  0.2435 -0.1479  0.3248
    1W        W45239  10.567  21.937   7.092  0.2666 -0.2587 -0.0903
    1W        W45240  16.930  12.755   6.977 -0.0159  0.1767 -0.0869
    1W        W45241  24.526   4.867   1.606  0.2985 -0.1790  0.1096
    1W        W45242  23.217  29.769   7.901  0.3030 -0.1189 -0.3020
    1W        W45243   8.658   6.867   8.065 -0.2201  0.1511  0.0122
    1W        W45244  14.513  23.576   3.423 -0.0548  0.0254  0.3507
    1W        W45245  10.683  10.345   7.745  0.1517  0.0091 -0.1936
    1W        W45246  22.227  14.170   0.046 -0.2751  0.1464  0.1380
    1W        W45247   2.792  14.809   8.594 -0.3202 -0.1915 -0.0347
    1W        W45248  10.390  17.067   7.476  0.1967 -0.3742  0.2376
    1W        W45249  22.138   4.849   1.516 -0.2510 -0.0986  0.1629
    1W        W45250  28.550  18.017   9.121  0.1984 -0.2293  0.0328
    1W        W45251  11.910  27.179   8.210 -0.2762 -0.1291  0.1423
    1W        W45252  19.747  19.825   9.083  0.1005 -0.2137  0.2728
    1W        W45253   4.975  10.433   0.663 -0.1647 -0.1159  0.0551
    1W        W45254  28.459   0.651   7.311  0.0721  0.3803  0.1507
    1W        W45255   3.523  13.729   1.097 -0.1935  0.2633 -0.0623
    1W        W45256  10.672   7.395   2.497  0.1034 -0.1232 -0.1432
    1W        W45257  22.594   8.940   1.287  0.1015 -0.1728  0.1243
    1W        W45258  18.550  29.348   7.777 -0.1152  0.1421 -0.0255
    1W        W45259   6.987  22.589   2.796 -0.1972  0.2244 -0.0274
    1W        W45260  26.627   2.600   8.664 -0.0168 -0.0523 -0.3310
    1W        W45261  18.611  19.170   8.758 -0.1639  0.1042 -0.0732
    1W        W45262  21.551   2.706   3.493  0.0876  0.1838 -0.0952
    1W        W45263   3.942   4.739   7.087  0.0651 -0.0379 -0.0034
    1W        W45264  27.860  28.646   1.617 -0.1634  0.2573  0.0721
    1W        W45265   3.801  22.293   0.928 -0.1935 -0.3373  0.0825
    1W        W45266  22.280  27.505   2.616  0.0354  0.2726 -0.1583
    1W        W45267  11.695  19.016   0.338 -0.0179 -0.3210 -0.1865
    1W        W45268   4.089   6.917   0.034 -0.2649 -0.1642 -0.2687
    1W        W45269   0.711  13.237   1.931  0.0441 -0.1194  0.1715
    1W        W45270  15.505  11.688   2.529 -0.1281  0.4069 -0.1025
    1W        W45271  28.135  28.159   1.761 -0.0696 -0.2180  0.2728
    1W        W45272  15.859   2.110   0.129 -0.1501 -0.2349 -0.1858
    1W        W45273  22.556  25.130   6.542 -0.0705 -0.4451 -0.2044
    1W        W45274  21.439   2.058   0.862 -0.2389  0.1083  0.0734
    1W        W45275   0.054  13.485   8.484  0.0166  0.0060  0.0399
    1W        W45276   8.368  24.893   6.905 -0.0216  0.0004  0.1121
    1W        W45277  20.987  22.396   1.119 -0.0588  0.1127  0.2141
    1W        W45278   6.618   4.939   0.788  0.1397  0.1420 -0.0415
    1W        W45279  19.260   3.348   9.463 -0.1642  0.1215  0.0399
    1W        W45280  16.053   5.836   8.264 -0.0973 -0.0239 -0.1016
    1W        W45281  20.877   7.417   1.076  0.0614  0.0108  0.1332
    1W        W45282  24.214   1.426   8.226 -0.3516  0.0749  0.0290
    1W        W45283   5.145  10.099   1.500 -0.0798  0.1331  0.1382
    1W        W45284  21.244  18.125   5.010 -0.2380  0.2367  0.1472
    1W        W45285  23.813  28.862   2.796  0.2569  0.4657  0.0322
    1W        W45286  28.273  16.125   7.034 -0.4130  0.0220  0.2218
    1W        W45287  18.522  18.326   0.968  0.0480  0.0923 -0.0820
    1W        W45288  23.332  23.088   1.938 -0.0777 -0.0723 -0.0233
    1W        W45289   0.279   2.584   3.459  0.0889 -0.1575 -0.3334
    1W        W45290  28.675  17.044   7.295 -0.0935 -0.0141  0.1290
    1W        W45291  23.266  20.975   9.254  0.2148 -0.1523  0.2691
    1W        W45292  10.864   7.582   2.915 -0.0053  0.1622 -0.3100
    1W        W45293   5.812   8.930   1.116 -0.0393  0.0014  0.1622
    1W        W45294  13.513  20.265   2.077  0.1273  0.2312 -0.0428
    1W        W45295   7.955  20.740   8.123  0.3765  0.0651 -0.2570
    1W        W45296  27.507   3.654   0.171  0.0753 -0.0975 -0.0623
    1W        W45297   3.234  27.079   9.284 -0.1695  0.1234 -0.0073
    1W        W45298  22.989  18.491   8.193  0.1398 -0.1065  0.0466
    1W        W45299  20.506  18.754   0.100  0.1399 -0.1740 -0.1570
    1W        W45300  23.573  19.342   5.230 -0.1890  0.3459  0.1450
    1W        W45301   7.911   5.409   2.567  0.0169 -0.1073 -0.2780
    1W        W45302  15.141  21.527   8.443 -0.1379 -0.2331 -0.1755
    1W        W45303  14.098  28.256   0.890 -0.1357  0.2404  0.0565
    1W        W45304  15.244  16.993   0.400  0.0233 -0.1790 -0.0675
    1W        W45305  17.855  23.804   9.245  0.1590 -0.0060 -0.2002
    1W        W45306  24.476   8.652   8.616  0.2814  0.0473  0.2899
    1W        W45307  17.523  11.125   1.836 -0.0439 -0.1316  0.1317
    1W        W45308  18.245  20.411   1.721 -0.0944 -0.1838 -0.1537
    1W        W45309  14.740   1.312   2.970  0.3079 -0.3721  0.0550
    1W        W45310   6.932  26.008   7.611 -0.2530 -0.0566  0.0117
    1W        W45311  15.856  13.678   1.920 -0.0118  0.5130 -0.2381
    1W        W45312  18.061  26.101   1.782  0.2155 -0.4131 -0.0024
    1W        W45313   3.713  14.772   7.979  0.3355  0.2436 -0.2919
    1W        W45314  14.540  17.639   0.763  0.0643  0.0339  0.2764
    1W        W45315  15.147   8.942   7.510 -0.0251  0.3369  0.1415
    1W        W45316  13.351  27.966   1.064  0.1050 -0.1905 -0.2276
    1W        W45317  13.987  22.687   7.349 -0.3289  0.0976  0.1443
    1W        W45318  10.033  11.039   2.000  0.1007  0.2147 -0.0432
    1W        W45319  10.847  26.522   9.250  0.0757  0.3154 -0.0062
    1W        W45320   7.813  28.816   8.459  0.2020  0.0261  0.1330
    1W        W45321  13.062  12.683   0.263  0.1422  0.2552 -0.1445
    1W        W45322  29.580  25.932   2.764 -0.0573 -0.2785 -0.3121
    1W        W45323   5.481   3.506   7.883  0.1831  0.2262 -0.1462
    1W        W45324   5.073   4.094   7.313 -0.1182 -0.0816 -0.0077
    1W        W45325  12.851  10.447   1.764  0.1502 -0.0644 -0.1035
    1W        W45326  17.313   3.050   2.046  0.0417  0.2307 -0.1483
    1W        W45327  19.870   5.118   3.044  0.3345 -0.0112 -0.0278
    1W        W45328  13.437  10.645   2.046  0.1598 -0.3151  0.1271
    1W        W45329  24.555  15.776   6.579 -0.1391 -0.0918 -0.0621
    1W        W45330  25.944  20.749   7.070 -0.1104 -0.1374  0.1829
    1W        W45331  18.648  21.263   2.181 -0.0189 -0.0782  0.1680
    1W        W45332  24.104  10.424   6.399  0.0534 -0.0676  0.0163
    1W        W45333  25.669  29.528   9.244  0.0510  0.1325  0.0947
    1W        W45334   7.047   1.316   0.165  0.2001  0.2400 -0.0046
    1W        W45335   8.517  10.905   7.514 -0.1375 -0.1591 -0.4186
    1W        W45336   9.178  23.060   1.847 -0.1072 -0.1695 -0.0538
    1W        W45337  22.682   8.246   6.720  0.2281  0.3298  0.0541
    1W        W45338   4.436  23.472   2.501  0.1535  0.1512  0.0568
    1W        W45339  13.442  24.970   8.449  0.1362  0.1854 -0.1262
    1W        W45340  10.977  16.266   1.363  0.3044 -0.0630 -0.1738
    1W        W45341  21.060  15.046   8.008 -0.0822  0.1287  0.0794
    1W        W45342   2.360  14.557   0.451 -0.0408  0.2256 -0.2747
    1W        W45343   5.609   2.459   8.868 -0.0575 -0.0971  0.0542
    1W        W45344  15.056   7.622   8.605 -0.0843  0.2153 -0.5476
    1W        W45345  11.985   2.096   0.497  0.1880  0.2009  0.0708
    1W        W45346  25.822   9.024   7.299 -0.1111  0.0840  0.1110
    1W        W45347  21.885  18.955   8.641  0.0089  0.1339  0.3449
    1W        W45348  21.844  15.210   7.115 -0.1447  0.4913 -0.0525
    1W        W45349   3.843   7.803   2.411 -0.1670 -0.0028  0.2012
    1W        W45350  20.744  16.991   1.497  0.1618 -0.0114 -0.0224
    1W        W45351   9.089  19.659   1.749  0.1268 -0.0868  0.0946
    1W        W45352  17.004   9.669   7.827 -0.0787 -0.1745 -0.2066
    1W        W45353  17.901  27.355   1.903  0.3512  0.1958  0.1560
    1W        W45354   7.467  29.559   9.351 -0.2355  0.3923 -0.0251
    1W        W45355   9.520  14.555   9.144  0.2106 -0.1585  0.1620
    1W        W45356  28.599   2.739   9.140  0.2732  0.2147 -0.0473
    1W        W45357   5.281  14.193   0.753  0.2349  0.1117 -0.1028
    1W        W45358  14.430  28.766   8.333  0.2278 -0.1094 -0.0536
    1W        W45359  15.734  26.309   7.112 -0.1999 -0.0271 -0.1498
    1W        W45360  16.973  14.264   7.022 -0.1235 -0.3704 -0.0486
    1W        W45361  13.721   8.931   9.061 -0.0197 -0.1890 -0.3476
    1W        W45362  25.544  24.501   2.399 -0.0570 -0.3051 -0.1680
    1W        W45363  21.196  15.985   7.064 -0.2572 -0.0205 -0.0302
    1W        W45364  25.200   8.289   2.496 -0.1568  0.1224 -0.1735
    1W        W45365   5.754  29.772   1.632 -0.2130 -0.1260 -0.2748
    1W        W45366  23.105   1.757   7.782  0.1221 -0.1026 -0.0483
    1W        W45367  20.135   4.116   1.202  0.3500  0.0019  0.1082
    1W        W45368  16.669   7.518   1.678 -0.3346 -0.2621 -0.2550
    1W        W45369  10.545  14.693   8.813 -0.1132 -0.1310  0.1057
    1W        W45370  23.590  12.079   0.531 -0.0984 -0.0496 -0.1224
    1W        W45371  17.319   5.298   8.868  0.0078  0.0505  0.1458
    1W        W45372  24.864  24.573   9.017 -0.3713  0.3991  0.1132
    1W        W45373   0.707  20.811   1.897 -0.2380 -0.0285 -0.0096
    1W        W45374  19.071  17.203   8.303 -0.1686 -0.0433 -0.1985
    1W        W45375   0.210  19.318   8.639  0.0232 -0.1939  0.2012
    1W        W45376  29.038  17.839   6.960 -0.1121 -0.1735 -0.2800
    1W        W45377   3.577   7.107   1.754 -0.3916 -0.2616  0.1994
    1W        W45378  11.663  23.147   1.393  0.1413 -0.0532  0.0480
    1W        W45379  21.401  23.717   6.930  0.1217  0.1055  0.0206
    1W        W45380  12.228  19.043   8.263  0.2094  0.2259  0.0953
    1W        W45381  11.366   7.409   8.051 -0.0274  0.2337 -0.3940
    1W        W45382  28.599  27.751   1.766  0.0040 -0.0452 -0.0520
    1W        W45383  19.130  16.833   1.836 -0.2467  0.0257  0.0544
    1W        W45384  22.319  21.458   6.273 -0.2456 -0.2600  0.2926
    1W        W45385  26.480  17.125   8.077  0.0399  0.3469 -0.0528
    1W        W45386  14.983  15.716   7.237 -0.1627  0.1509  0.0566
    1W        W45387  17.672   2.871   2.393  0.0866 -0.4593 -0.2920
    1W        W45388  12.444   8.912   8.694 -0.1218 -0.0988 -0.4183
    1W        W45389  20.603  14.508   0.112 -0.1019  0.1636  0.0812
    1W        W45390   3.922   0.447   2.857  0.1263  0.2882 -0.0567
    1W        W45391  24.048  18.092   6.611 -0.2207 -0.0565  0.0522
    1W        W45392  11.975   9.015   1.313 -0.3009  0.1571 -0.0323
    1W        W45393  12.748  14.814   2.787  0.1394 -0.0569 -0.2847
    1W        W45394  17.428  20.881   8.227  0.1514  0.1689 -0.1878
    1W        W45395   1.120  25.507   1.941  0.3070 -0.1634  0.0538
    1W        W45396  23.148  24.841   8.391 -0.2014  0.0237 -0.2872
    1W        W45397   9.754  15.365   0.151 -0.0374  0.1968 -0.0662
    1W        W45398   6.394  17.363   2.646 -0.1777  0.2734 -0.3991
    1W        W45399   7.555   8.807   1.646  0.0582  0.3041  0.4254
    1W        W45400  15.373  18.202   1.433 -0.2342 -0.3197  0.3559
    1W        W45401  13.422  22.602   2.115 -0.1535  0.0279 -0.1004
    1W        W45402   5.595  16.506   7.284  0.0882  0.1113 -0.2586
    1W        W45403  14.637  10.263   9.121 -0.0836 -0.0085 -0.0307
    1W        W45404   3.717   0.892   6.915  0.0502  0.0062  0.2116
    1W        W45405  20.029  20.239   1.662 -0.2425  0.2446 -0.0986
    1W        W45406  18.068  29.220   1.846 -0.1050 -0.1208  0.0831
    1W        W45407  28.713   3.651   6.007 -0.0418 -0.1535 -0.0671
    1W        W45408  27.574  21.084   1.502  0.1325  0.0338  0.1553
    1W        W45409  25.481   9.842   1.762 -0.0557 -0.1219 -0.0532
    1W        W45410  14.354  27.361   7.374 -0.0362 -0.2461 -0.0452
    1W        W45411   7.003   8.017   8.057 -0.2898 -0.2566 -0.0460
    1W        W45412  17.201   0.299   1.700 -0.1954 -0.0842 -0.0557
    1W        W45413   0.846  28.057   7.854 -0.1307 -0.3143  0.1778
    1W        W45414   5.253  16.915   8.814 -0.1993 -0.1063  0.3842
    1W        W45415  10.126  19.772   7.332  0.1761  0.1270 -0.2091
    1W        W45416   2.087  26.911   1.705  0.1099 -0.3322  0.2962
    1W        W45417  16.666   2.909   7.435  0.0360 -0.1183 -0.2322
    1W        W45418  10.429   9.403   3.018  0.2152 -0.0080  0.1463
    1W        W45419  26.872  14.734   7.997 -0.0491 -0.0207 -0.3568
    1W        W45420  26.404  25.971   2.558 -0.1159 -0.3950 -0.2153
    1W        W45421   3.428   7.243   1.207 -0.1326  0.1052  0.1772
    1W        W45422  27.143  26.213   9.521  0.1365 -0.0116 -0.0841
    1W        W45423  26.175   4.708   0.075 -0.3631  0.2680  0.2688
    1W        W45424  27.802  28.490   8.344  0.1758 -0.3696 -0.1192
    1W        W45425  11.818  28.153   7.734 -0.0487  0.0172 -0.0082
    1W        W45426  29.312   0.738   8.829 -0.2016 -0.0593 -0.2132
    1W        W45427  25.841  12.356   1.539  0.1349  0.4771  0.0294
    1W        W45428  14.705   7.029   9.200 -0.1545  0.0654 -0.1921
    1W        W45429   9.588   1.989   1.908 -0.1541 -0.3099 -0.0806
    1W        W45430  17.944  22.278   8.413  0.3694 -0.0001 -0.0559
    1W        W45431  12.345  20.753   0.562 -0.2619  0.0348 -0.1269
    1W        W45432   8.574   9.253   8.738  0.0136  0.0367 -0.0162
    1W        W45433   9.888  11.191   2.961  0.1666  0.0687  0.1134
    1W        W45434  16.252  26.072   1.416  0.2636  0.2159  0.2575
    1W        W45435  25.035  17.036   0.804 -0.2638  0.0996  0.1601
    1W        W45436   7.745   9.116   2.647 -0.1034  0.1567  0.2274
    1W        W45437  15.826  10.299   0.040 -0.1177  0.2627 -0.3122
    1W        W45438   5.570  21.444   7.402 -0.0822  0.1710 -0.0714
    1W        W45439  23.993  23.819   7.012  0.0153  0.1758 -0.1538
    1W        W45440  15.608  19.634   0.367 -0.3137  0.0747 -0.1219
    1W        W45441  29.020   1.018   0.242 -0.2258 -0.1361  0.1247
    1W        W45442  19.305  14.074   6.900  0.2252  0.3155 -0.0884
    1W        W45443  20.130   2.231   2.720  0.0490 -0.1645  0.2634
    1W        W45444  16.025  18.121   9.334  0.0394  0.0480  0.0467
    1W        W45445   0.970  26.255   8.278 -0.1604  0.5251  0.0829
    1W        W45446  23.856  20.170   0.973  0.3101  0.2182 -0.2819
    1W        W45447  12.232   6.808   6.756  0.2514 -0.0711  0.2075
    1W        W45448  21.825  11.386   6.422 -0.1105  0.2432 -0.0072
    1W        W45449  10.954  17.306   7.343 -0.1230 -0.0189 -0.1715
    1W        W45450   8.695   0.422   0.285  0.2275 -0.0479 -0.0931
    1W        W45451   1.527  13.499   8.164 -0.0307 -0.2023  0.1154
    1W        W45452   8.734  18.495   8.033 -0.4112  0.0635 -0.2483
    1W        W45453  15.751   7.725   2.060 -0.0959 -0.1690 -0.2348
    1W        W45454   3.868   1.895   6.475 -0.1625  0.1722  0.1534
    1W        W45455  17.641  28.025   7.106 -0.0597  0.0805 -0.2243
    1W        W45456  21.713   2.622   4.005 -0.2646  0.0279 -0.1702
    1W        W45457  28.464   7.177   6.753 -0.0824 -0.0201  0.2535
    1W        W45458   2.971  12.422   9.367 -0.1959  0.0883  0.3447
    1W        W45459   1.673  11.082   9.309  0.1612  0.3103 -0.1804
    1W        W45460  11.145  15.589   2.109 -0.1036 -0.2727  0.0274
    1W        W45461  24.604  29.351   6.363 -0.0126  0.1119  0.0365
    1W        W45462  12.111   5.580   7.807 -0.0379 -0.1068 -0.0719
    1W        W45463  21.918  27.239   2.882 -0.1533 -0.4356  0.1008
    1W        W45464  27.595  15.658   6.292 -0.1865  0.0094 -0.3243
    1W        W45465   8.793   5.033   3.208  0.0073 -0.2150 -0.1364
    1W        W45466   0.661   5.861   1.822  0.1258  0.1226  0.0194
    1W        W45467   3.239  14.966   0.917  0.1910 -0.1626 -0.0707
    1W        W45468   9.546  27.994   2.625  0.3104  0.1000 -0.2291
    1W        W45469   2.522  16.847   7.611 -0.0714  0.0374  0.1879
    1W        W45470  12.377  26.132   1.332 -0.0076 -0.0756  0.4091
    1W        W45471   0.510  10.360   0.039  0.0572 -0.3167 -0.0017
    1W        W45472  16.803  11.345   1.976 -0.1725  0.1003  0.1369
    1W        W45473  26.172  10.605   9.328  0.3000  0.1738 -0.1645
    1W        W45474  18.250   1.895   0.410  0.0313  0.1810 -0.0708
    1W        W45475   8.628  23.337   0.205  0.1894 -0.0073  0.0010
    1W        W45476  25.184   4.950   2.424 -0.0543 -0.0054 -0.0999
    1W        W45477   0.778  10.434   6.276 -0.2751 -0.1878 -0.2819
    1W        W45478  19.459  18.382   8.890  0.2675 -0.0306  0.1377
    1W        W45479  17.575  16.786   0.965 -0.1670  0.2997 -0.1722
    1W        W45480  19.455  18.230   2.785  0.1791 -0.1938  0.1704
    1W        W45481  13.258   6.342   7.988 -0.1573 -0.2164 -0.0407
    1W        W45482  13.177  20.632   1.099 -0.3009 -0.1013  0.1950
    1W        W45483   6.933  21.280   0.051 -0.0925  0.1444  0.0362
    1W        W45484  18.186  17.631   7.666 -0.0600 -0.2549 -0.4104
    1W        W45485  29.102  13.777   0.206 -0.4990 -0.1347 -0.0233
    1W        W45486   3.765   7.229   7.006 -0.0343  0.1667 -0.2853
    1W        W45487   6.955  29.683   8.427 -0.0864 -0.2930  0.0099
    1W        W45488  27.976  29.357   0.175 -0.2200 -0.0396  0.1585
    1W        W45489  12.737  19.393   9.414 -0.0608  0.0242 -0.2937
    1W        W45490  16.779  29.514   1.716  0.2557  0.1800 -0.3341
    1W        W45491  13.018  27.511   8.324  0.0532 -0.0651 -0.1439
    1W        W45492  20.221  15.221   0.978 -0.2760  0.0903 -0.0320
    1W        W45493   9.791   3.768   2.889  0.1245  0.1394  0.3206
    1W        W45494  10.974  14.898   1.564 -0.4164 -0.3914  0.0537
    1W        W45495  12.172  16.122   8.456  0.0538 -0.4099  0.1314
    1W        W45496  14.365  14.581   1.356  0.1027  0.0005 -0.2793
    1W        W45497  25.257  24.319   6.809 -0.0601  0.5026 -0.1117
    1W        W45498  17.107  14.260   8.443 -0.0181  0.1998 -0.0716
    1W        W45499   1.142   6.055   2.110 -0.2061 -0.0285 -0.3767
    1W        W45500   6.341   6.827   7.546 -0.1182  0.2791  0.2554
    1W        W45501  15.762  21.057   2.239  0.0268  0.2392 -0.1910
    1W        W45502   2.409   2.103   3.357 -0.3637 -0.1219 -0.0296
    1W        W45503  11.727  22.396   1.727 -0.0377  0.0590  0.0202
    1W        W45504  18.948  14.121   1.116 -0.1946  0.1595 -0.0154
    1W        W45505  22.153   3.868   1.289  0.0479  0.2433 -0.0457
    1W        W45506  24.854   1.979   1.112  0.0939 -0.2689 -0.1282
    1W        W45507  15.651  24.834   0.918  0.0322  0.2451 -0.3398
    1W        W45508  13.515  28.138   0.573  0.2638  0.0254  0.1341
    1W        W45509   3.606  17.691   1.259 -0.1534 -0.0414  0.0483
    1W        W45510  14.089   4.650   1.989 -0.1928 -0.0917  0.0216
    1W        W45511   2.885  25.817   1.092  0.0975  0.1870  0.1963
    1W        W45512  26.044  10.563   0.236 -0.0404  0.0664  0.1108
    1W        W45513   1.402  28.818   0.824  0.1805  0.0866 -0.0826
    1W        W45514  24.999  19.315   9.209 -0.0852  0.4324 -0.1514
    1W        W45515  21.446  18.285   6.554 -0.0485  0.0916  0.0336
    1W        W45516  11.540   1.087   2.594 -0.0339  0.3446 -0.0074
    1W        W45517  21.321   8.262   3.571 -0.2277 -0.2334 -0.0264
    1W        W45518  22.844  11.852   8.516 -0.1376 -0.1515  0.0621
    1W        W45519  21.719  14.022   8.729  0.1784  0.1658 -0.0446
    1W        W45520  17.957  18.156   6.935  0.1251 -0.4594  0.2795
    1W        W45521  19.138  29.174   8.531 -0.0248  0.1628 -0.1156
    1W        W45522  24.782  21.330   7.534  0.1336  0.0203 -0.2206
    1W        W45523   5.665  22.274   8.893  0.0396  0.4291 -0.1730
    1W        W45524  28.634  10.729   1.044  0.0372  0.0234  0.1586
    1W        W45525  17.648  15.446   0.441  0.2348 -0.0530 -0.1573
    1W        W45526  15.698  18.839   7.690  0.1099 -0.0933  0.0842
    1W        W45527  28.321   3.116   0.353  0.0319 -0.1161  0.0026
    1W        W45528  26.690   6.563   8.231 -0.0067 -0.0706 -0.1511
    1W        W45529   5.211  22.570   8.933  0.2474 -0.1417 -0.2709
    1W        W45530  21.852  16.484   1.848  0.1744  0.2175  0.0977
    1W        W45531  23.548  11.922   7.077  0.0410  0.2000 -0.1045
    1W        W45532   0.528   4.102   6.580 -0.1550 -0.2092  0.1254
    1W        W45533   7.039  24.246   9.188 -0.2023  0.0345  0.1619
    1W        W45534  22.017  26.096   2.636  0.0942 -0.1064  0.0213
    1W        W45535  28.379  27.048   9.212 -0.0108 -0.0061  0.0965
    1W        W45536  28.893   5.053   9.039  0.0616  0.3536 -0.1353
    1W        W45537  18.899  29.232   8.099 -0.0806  0.0321  0.0090
    1W        W45538  21.453  13.066   7.224  0.1080  0.1124  0.1352
    1W        W45539   5.585  21.409   8.277 -0.0157  0.0328  0.0757
    1W        W45540  13.984   7.458   6.930 -0.2449  0.0054 -0.2218
    1W        W45541  14.749  25.445   7.180  0.2193  0.0610  0.1341
    1W        W45542  19.672  28.697   2.786  0.0306 -0.0102 -0.0358
    1W        W45543  14.044  13.301   6.279 -0.3831  0.3640  0.0122
    1W        W45544  10.030  13.746   7.138  0.0558  0.0288  0.1096
    1W        W45545  20.449  12.312   8.754 -0.0405  0.0613  0.0150
    1W        W45546   2.507  23.031   1.758  0.0529 -0.2577 -0.0075
    1W        W45547   6.847   8.704   7.806 -0.2257 -0.0810  0.0178
    1W        W45548  25.090   8.499   0.292  0.1534 -0.2037  0.0037
    1W        W45549  11.711  25.462   0.843  0.1135  0.0433  0.4411
    1W        W45550  26.616  11.580   7.022  0.5073 -0.0981  0.1249
    1W        W45551  24.778  15.071   7.649  0.2527  0.3187  0.1139
    1W        W45552  22.264   7.131   1.796 -0.1546  0.1121  0.1212
    1W        W45553  14.698  21.014   0.966  0.1667 -0.0192  0.0103
    1W        W45554  16.551   9.312   7.001  0.0592  0.0555  0.0153
    1W        W45555  13.964  27.931   2.165 -0.2264 -0.2728  0.0393
    1W        W45556  20.666  25.717   2.360 -0.0092 -0.1639  0.0090
    1W        W45557   0.366   6.180   6.211  0.2037 -0.0140  0.2111
    1W        W45558  11.858  18.051   1.830  0.0913 -0.0723 -0.1806
    1W        W45559  13.360  11.342   0.084 -0.1383  0.1259 -0.2623
    1W        W45560  22.560  22.203   1.670 -0.1972 -0.1048 -0.1621
    1W        W45561   3.694  11.753   2.238 -0.0674  0.3282 -0.1863
    1W        W45562  11.835   7.556   8.201 -0.0783 -0.2494 -0.3165
    1W        W45563  29.490  19.420   9.348  0.0083 -0.0406 -0.0699
    1W        W45564   3.431   5.664   7.287  0.1621 -0.0002  0.1509
    1W        W45565   6.981   9.687   2.380 -0.1886 -0.0342 -0.3312
    1W        W45566  28.792  25.525   1.922 -0.1410  0.0319  0.1055
    1W        W45567   1.748  19.183   1.572  0.1488  0.2733 -0.0866
    1W        W45568  11.024  10.957   2.238  0.1518 -0.4134  0.1427
    1W        W45569  29.311  23.270   7.258  0.2570 -0.2088 -0.0721
    1W        W45570   5.992   7.181   1.335  0.0519  0.0869 -0.0819
    1W        W45571  19.382   5.246   7.518 -0.1603  0.2529  0.1125
    1W        W45572  13.489  11.481   8.371  0.2207 -0.1240  0.3369
    1W        W45573  18.455   2.741   2.009 -0.2867  0.0431  0.3467
    1W        W45574  13.210  18.233   2.974  0.0088  0.3216  0.0818
    1W        W45575  29.781  24.708   1.698  0.0864 -0.1771 -0.1717
    1W        W45576  29.248  21.972   1.751  0.0489 -0.0873 -0.0506
    1W        W45577  28.746  14.359   0.911 -0.3149 -0.0859  0.1517
    1W        W45578  11.180   2.674   8.577 -0.1395 -0.1655  0.2597
    1W        W45579  24.041  12.167   7.052 -0.1184 -0.1520 -0.1067
    1W        W45580   6.827  14.193   7.818 -0.4049  0.1688  0.2429
    1W        W45581  16.581  17.090   7.921 -0.1729 -0.2466  0.4138
    1W        W45582   5.853   3.153   2.265 -0.0115  0.0588  0.1783
    1W        W45583   5.732  29.712   8.068 -0.0178  0.0166 -0.1299
    1W        W45584   4.428  21.956   7.611  0.3736  0.0762  0.1980
    1W        W45585  18.488  28.964   8.083  0.2620 -0.0358  0.1261
    1W        W45586  22.380  27.769   7.828 -0.0063  0.0115 -0.0214
    1W        W45587  27.432   5.238   3.309  0.2012  0.1166  0.0307
    1W        W45588  18.429   9.380   3.050  0.5088 -0.0611 -0.1758
    1W        W45589  17.316   0.297   3.753 -0.4580  0.0018 -0.5933
    1W        W45590   5.569  10.816   2.209 -0.0294 -0.2094  0.0488
    1W        W45591  19.912  29.018   1.215  0.4031  0.2904 -0.3841
    1W        W45592  21.445  14.048   8.270 -0.1879 -0.1336 -0.0684
    1W        W45593  17.954   4.414   8.772 -0.0739 -0.0623  0.1546
    1W        W45594   6.915   9.139   7.541  0.2906 -0.0285 -0.1235
    1W        W45595  28.196   9.418   9.319 -0.1937  0.0261 -0.1722
    1W        W45596   1.891  14.581   7.379  0.0692  0.1760 -0.4265
    1W        W45597   2.268   6.123   6.430 -0.2907  0.1105  0.1649
    1W        W45598  28.442   5.308   2.545  0.1979 -0.0395  0.1072
    1W        W45599   0.931  24.602   2.031  0.4846  0.2750 -0.0953
    1W        W45600  20.192  25.285   6.920 -0.0096  0.1200 -0.1008
    1W        W45601  24.738  24.417   6.743 -0.1533 -0.0438  0.2158
    1W        W45602  19.113  11.123   9.038  0.1170 -0.1298  0.1961
    1W        W45603  24.973  29.239   9.482 -0.2076  0.0008 -0.0833
    1W        W45604   8.212  18.487   0.491 -0.1735  0.1924  0.1067
    1W        W45605  13.347  28.470   1.362  0.0970  0.0790  0.0509
    1W        W45606  13.825  14.574   6.701  0.4851  0.0113  0.2585
    1W        W45607   7.419  29.758   0.746 -0.1696 -0.2088  0.2531
    1W        W45608   3.155  22.345   2.142 -0.1793 -0.1093  0.0563
    1W        W45609  21.052  14.155   9.529 -0.1520  0.1672  0.0252
    1W        W45610   4.467  10.565   0.795 -0.1617  0.1285  0.0586
    1W        W45611   9.422   5.582   2.204 -0.0412  0.3088 -0.0439
    1W        W45612  20.419  13.482   0.498  0.1151 -0.4069  0.0680
    1W        W45613   5.619   1.947   8.988 -0.1963 -0.1821 -0.1165
    1W        W45614   1.426  20.306   8.167 -0.1527  0.1657 -0.1164
    1W        W45615   6.676   1.009   3.071 -0.0833  0.0360 -0.0422
    1W        W45616   6.042  14.102   8.601  0.2246 -0.3414 -0.1751
    1W        W45617  18.193  22.363   2.316 -0.1613  0.2047 -0.0492
    1W        W45618  25.336  17.222   0.419  0.0007  0.1801 -0.0102
    1W        W45619  23.092  19.681   1.937 -0.2159  0.0389 -0.2681
    1W        W45620  20.081   8.892   6.384  0.0870  0.0548  0.0976
    1W        W45621   1.558  15.901   7.929  0.1405 -0.1089  0.0921
    1W        W45622   5.325  26.545   6.169  0.1442  0.1059  0.0877
    1W        W45623  10.599   4.365   2.148 -0.0576  0.2240  0.0371
    1W        W45624   6.204  12.057   2.013  0.0738 -0.1691 -0.0278
    1W        W45625   1.205  11.838   9.416 -0.1106 -0.0665  0.1099
    1W        W45626  21.957  17.408   6.020 -0.2554 -0.3036  0.1348
    1W        W45627   1.652  25.387   1.967 -0.2609 -0.1206  0.2481
    1W        W45628  28.669  28.643   7.804 -0.0036 -0.0866  0.1032
    1W        W45629  23.612   8.301   7.436  0.0368  0.1973  0.1787
    1W        W45630  11.921  25.982   1.613 -0.0116 -0.2518  0.2280
    1W        W45631   5.519  14.206   7.748 -0.1772 -0.0784  0.2220
    1W        W45632  15.431   5.283   3.459 -0.2608 -0.0280  0.1051
    1W        W45633   4.678  12.189   0.934  0.0755 -0.0168  0.0552
    1W        W45634  14.513  16.335   1.836  0.0587  0.1464 -0.0159
    1W        W45635   8.323  12.614   0.457  0.1389 -0.0327 -0.0625
    1W        W45636   1.035   6.061   0.596 -0.1147 -0.3241 -0.0936
    1W        W45637  23.883  23.718   1.396 -0.0338  0.2562 -0.3289
    1W        W45638  12.973  12.260   9.479 -0.0388  0.0552 -0.0150
    1W        W45639   8.608  15.240   7.687  0.0303  0.2450 -0.0733
    1W        W45640   1.588   6.804   1.006 -0.0454  0.1571  0.2767
    1W        W45641   1.936  13.423   7.881 -0.1447 -0.0642  0.1056
    1W        W45642  13.865   1.121   0.843  0.2143 -0.2097 -0.0714
    1W        W45643  18.965  21.726   1.423 -0.1330 -0.2183  0.0418
    1W        W45644  15.849  15.611   8.468  0.0992 -0.1435  0.1082
    1W        W45645   6.380  24.940   1.908  0.0008 -0.1606  0.1438
    1W        W45646   9.294  25.255   1.483 -0.2376  0.1614 -0.1212
    1W        W45647   9.358  21.850   8.163  0.4319 -0.1368  0.0935
    1W        W45648  24.069  18.397   0.469 -0.1558 -0.2222 -0.1584
    1W        W45649  15.989  16.791   0.999 -0.1302  0.0671 -0.0862
    1W        W45650  20.423   4.116   0.765 -0.3405 -0.1781  0.0961
    1W        W45651  17.681   4.409   7.409 -0.0456 -0.1981  0.3260
    1W        W45652  16.318   2.675   9.148 -0.0864 -0.1513  0.0453
    1W        W45653  13.018   3.553   1.454 -0.0104  0.1808  0.1265
    1W        W45654  19.195   4.057   2.348 -0.0500 -0.4785  0.2024
    1W        W45655  11.475   5.677   9.476 -0.0617  0.0623 -0.1053
    1W        W45656   1.169  16.441   1.463  0.0280 -0.1687  0.0061
    1W        W45657  22.960  25.267   7.885 -0.2211  0.1256  0.1845
    1W        W45658  13.363  12.584   0.633 -0.0756  0.1414 -0.4416
    1W        W45659   9.998   7.970   7.423 -0.1290  0.0104 -0.2483
    1W        W45660  11.169  28.048   1.412 -0.1891 -0.2279  0.0717
    1W        W45661  13.990   5.150   2.290 -0.1916  0.3010 -0.0570
    1W        W45662  25.393  11.443   6.485  0.0916  0.0854  0.2181
    1W        W45663  15.600  28.438   0.358 -0.0836  0.2377 -0.1478
    1W        W45664  23.904  24.309   0.096 -0.0977 -0.0024 -0.1242
    1W        W45665  12.135  23.262   8.910  0.0433 -0.2248  0.0042
    1W        W45666  28.665   7.974   2.146  0.0459  0.0191  0.0733
    1W        W45667  14.384  25.697   8.702  0.1659  0.0847 -0.1650
    1W        W45668   6.310   1.078   0.085  0.0207  0.1215 -0.2404
    1W        W45669  21.277  11.756   1.163 -0.2122 -0.1826 -0.2965
    1W        W45670  11.773  27.984   0.873 -0.2728 -0.0793  0.2412
    1W        W45671  25.087  22.363   5.508  0.4687 -0.4811 -0.0279
    1W        W45672  16.880  14.406   1.466  0.1604  0.4149 -0.3992
    1W        W45673  15.170  29.571   9.329 -0.1238  0.1774 -0.1237
    1W        W45674  17.811  21.748   2.461  0.0383  0.1900  0.0621
    1W        W45675  24.491  14.901   8.313 -0.0062  0.0660  0.2079
    1W        W45676   1.672  11.610   9.497  0.0439  0.2000 -0.3112
    1W        W45677   1.741  18.320   6.444 -0.3036 -0.2005 -0.0654
    1W        W45678  17.601   1.346   8.069 -0.3215  0.0759 -0.0046
    1W        W45679  14.587   8.377   8.196  0.0391 -0.0298  0.0395
    1W        W45680  12.071   2.905   1.921 -0.0788  0.0766  0.0519
    1W        W45681  17.242  27.263   6.690 -0.3403  0.0870  0.2173
    1W        W45682  21.493   2.071   7.568  0.0235 -0.0697  0.0776
    1W        W45683  22.275  13.780   1.331 -0.0592 -0.1789  0.2912
    1W        W45684  18.353  22.935   2.460  0.0966  0.0309 -0.0508
    1W        W45685  29.218  16.164   0.608  0.1309 -0.2199  0.1037
    1W        W45686   1.503  23.618   2.848  0.3111 -0.3163  0.2608
    1W        W45687  29.785  11.468   1.907  0.0848  0.1157 -0.0558
    1W        W45688   0.685  10.575   1.986 -0.1312 -0.1641  0.2513
    1W        W45689  20.057   2.698   8.548 -0.1239  0.1516 -0.2231
    1W        W45690  14.348  24.015   9.364 -0.0852  0.4462  0.2509
    1W        W45691  20.763   9.468   7.530 -0.3389 -0.1253 -0.0598
    1W        W45692  26.737   3.697   2.775 -0.2331 -0.0418  0.1879
    1W        W45693  21.074  29.578   2.819  0.1123 -0.3137 -0.0135
    1W        W45694  11.643   5.679   1.823 -0.3312  0.0920 -0.1003
    1W        W45695  11.061   6.258   0.622 -0.1349  0.0277 -0.2137
    1W        W45696  18.690  20.315   1.655 -0.1491  0.1792 -0.2839
    1W        W45697  24.505  16.182   6.321  0.0444  0.1880  0.2647
    1W        W45698   1.349  15.348   7.216  0.2648 -0.1157 -0.0282
    1W        W45699  21.809   2.176   8.854  0.0911 -0.2195 -0.0944
    1W        W45700   7.443  28.473   2.977  0.3598 -0.0305  0.0747
    1W        W45701  14.224  26.711   7.384  0.1614  0.1531  0.1884
    1W        W45702   9.320   9.530   7.191 -0.1116 -0.0221  0.2258
    1W        W45703   1.831  27.470   2.505 -0.3588  0.0948  0.1653
    1W        W45704  25.057  20.232   6.962 -0.0438  0.0054  0.0486
    1W        W45705  17.166  27.140   2.029  0.1954  0.0087  0.0022
    1W        W45706   8.856  15.467   8.030 -0.0359 -0.0730  0.1589
    1W        W45707  14.223  23.865   8.246  0.1893  0.0385  0.0089
    1W        W45708  13.716  17.927   0.371  0.0662 -0.0861  0.0913
    1W        W45709  13.413   3.206   9.064  0.1918 -0.0123 -0.0569
    1W        W45710  21.556  18.424   5.854 -0.0922  0.0654  0.0915
    1W        W45711  13.823  24.313   7.028  0.0108  0.0055  0.3683
    1W        W45712  20.620  27.146   1.234  0.1416 -0.2655  0.0708
    1W        W45713  28.534   6.565   8.577 -0.0075 -0.0893  0.2254
    1W        W45714  21.761  12.725   1.497  0.1403 -0.3126 -0.1121
    1W        W45715   7.165  12.869   0.307  0.1788  0.1214  0.0346
    1W        W45716  15.491   3.026   8.897 -0.0414 -0.0610  0.0433
    1W        W45717   7.199  11.613   1.084 -0.0692  0.1273 -0.1307
    1W        W45718  15.150  24.376   0.217  0.0411 -0.0857  0.1236
    1W        W45719  16.923  19.224   8.039 -0.2449  0.2060  0.1264
    1W        W45720   4.333  29.286   2.801  0.0666 -0.1669  0.3738
    1W        W45721  28.095  15.909   0.594  0.0510 -0.0300  0.0976
    1W        W45722   9.012   5.384   8.687 -0.2834 -0.0363 -0.0318
    1W        W45723  18.466   2.451   2.425  0.2239 -0.2166 -0.0731
    1W        W45724  12.469  16.855   0.234  0.0337 -0.1342  0.0403
    1W        W45725  24.828  28.832   2.068 -0.2681 -0.4551  0.3009
    1W        W45726  19.527  19.620   7.112  0.0038 -0.2035  0.1516
    1W        W45727   7.813  15.864   2.004 -0.2522  0.0481  0.0152
    1W        W45728  14.707  26.678   0.394  0.0447  0.0521  0.1310
    1W        W45729  22.055  19.905   1.207  0.0434 -0.1548  0.0052
    1W        W45730   9.191  15.731   9.098 -0.0803  0.1450  0.1670
    1W        W45731  14.867   4.059   7.844 -0.3248 -0.2288  0.0379
    1W        W45732  10.476   7.106   0.422  0.1747  0.0117 -0.0982
    1W        W45733   8.435  26.038   7.650  0.0594 -0.3518 -0.3643
    1W        W45734  10.514   5.586   7.810  0.1848 -0.2544 -0.0683
    1W        W45735  15.948   1.126   8.087 -0.2871  0.0175  0.3231
    1W        W45736  11.934   7.641   6.844  0.2091 -0.1524  0.0354
    1W        W45737  28.275  16.630   9.043 -0.2335 -0.0789 -0.0115
    1W        W45738   7.039  24.410   6.716  0.0497  0.2869  0.0439
    1W        W45739  24.683  14.267   9.491 -0.2139 -0.1591 -0.1739
    1W        W45740   0.425  20.231   6.105  0.0446 -0.0440 -0.3363
    1W        W45741   5.305  15.082   0.564 -0.3315  0.1753 -0.1051
    1W        W45742   9.873   1.169   2.701  0.1471 -0.1950  0.0506
    1W        W45743  26.855  12.680   7.227 -0.2595 -0.1443  0.0929
    1W        W45744  17.896  19.600   6.862  0.2771  0.3321 -0.2290
    1W        W45745  23.570  28.895   8.958  0.2323  0.1641 -0.1548
    1W        W45746  24.598   1.544   8.589  0.2956 -0.0124  0.2697
    1W        W45747   5.397  18.726   9.249  0.3016 -0.0874 -0.2159
    1W        W45748  11.870  28.454   0.010 -0.0879 -0.0289  0.1708
    1W        W45749  14.360  16.775   2.165 -0.2088  0.0537  0.1103
    1W        W45750   0.808  27.678   0.983  0.0036  0.1412 -0.0252
    1W        W45751  18.153  13.486   7.835 -0.4257  0.1048  0.0773
    1W        W45752  28.082  26.725   2.542  0.1588  0.0967  0.0325
    1W        W45753  25.905  13.407   8.191 -0.0595 -0.1069 -0.3386
    1W        W45754  18.355   2.793   2.759  0.0600 -0.1033  0.0163
    1W        W45755  25.176  10.251   0.262  0.0482  0.2481  0.0817
    1W        W45756  25.421   4.164   3.476  0.2021  0.1284 -0.2521
    1W        W45757   6.272  24.783   2.493 -0.1959  0.0805  0.5348
    1W        W45758  22.004  26.885   0.082  0.1673  0.1093 -0.0623
    1W        W45759  12.222  28.559   7.792 -0.0519  0.3662  0.0707
    1W        W45760  14.812   5.918   2.988 -0.1668  0.1112 -0.0143
    1W        W45761  28.167  25.890   1.345 -0.1828 -0.0843  0.1988
    1W        W45762  18.075  23.263   0.805  0.2047  0.1146 -0.2004
    1W        W45763  18.751  23.213   2.236  0.1452 -0.0546 -0.4222
    1W        W45764  23.728  22.051   0.770  0.4591  0.0917 -0.0894
    1W        W45765  15.411  22.457   2.405  0.1271 -0.2247 -0.0773
    1W        W45766  29.469  29.136   8.403 -0.0573 -0.1172  0.0469
    1W        W45767  24.444  26.512   0.367  0.3625 -0.1408 -0.2523
    1W        W45768   7.344  13.919   7.803  0.1018  0.0687 -0.1238
    1W        W45769  27.972  15.815   9.267 -0.0887 -0.0993 -0.3067
    1W        W45770  14.912  11.047   2.250 -0.1176  0.4290 -0.1837
    1W        W45771   8.055   4.637   9.551 -0.2528 -0.0226 -0.2553
    1W        W45772  28.891   0.228   2.540 -0.2210 -0.1186 -0.0262
    1W        W45773  13.518   8.360   1.667  0.1106 -0.3648 -0.0262
    1W        W45774   6.477   9.769   2.230 -0.1744 -0.1125  0.0905
    1W        W45775  29.016   0.603   2.162 -0.1366  0.0158  0.2645
    1W        W45776  14.597   1.071   1.578  0.3166  0.0569  0.2754
    1W        W45777   9.562  28.486   2.363  0.2105 -0.2761 -0.4243
    1W        W45778   5.021  14.021   1.982  0.0299 -0.0064  0.0929
    1W        W45779  10.448  22.308   9.390 -0.0266 -0.0252 -0.2897
    1W        W45780   0.523  28.424   7.086 -0.0563  0.2224  0.1230
    1W        W45781   2.337  19.724   2.044 -0.0320  0.0295 -0.2510
    1W        W45782  22.850  25.834   9.091  0.1534  0.1107  0.1882
    1W        W45783  27.073   3.253   9.498  0.0483  0.0559 -0.2941
    1W        W45784  18.539  26.915   7.555 -0.2300 -0.0676  0.2951
    1W        W45785  17.041  27.187   0.732 -0.2542 -0.0975  0.3154
    1W        W45786  16.501  16.416   8.773  0.0679  0.1658 -0.1636
    1W        W45787  17.820  15.563   6.919  0.0153  0.0178  0.5282
    1W        W45788  14.863  24.967   6.938 -0.1735  0.0389  0.0410
    1W        W45789  15.888  17.327   0.950 -0.0776  0.2319 -0.6049
    1W        W45790  27.825   0.557   3.415  0.3546  0.2048  0.1572
    1W        W45791   0.827  26.463   7.705  0.2367 -0.0248  0.1712
    1W        W45792  14.386  16.380   8.623 -0.1326 -0.1722  0.2019
    1W        W45793  12.716   3.058   9.476  0.0480 -0.3654 -0.0980
    1W        W45794  21.793  19.324   7.632  0.1328 -0.0898 -0.0623
    1W        W45795  23.410  15.270   5.255  0.0601 -0.2893  0.1568
    1W        W45796  12.719  17.070   7.432 -0.1555  0.1652  0.1996
    1W        W45797   5.629   3.083   1.842  0.1068 -0.0325  0.0931
    1W        W45798  24.957  10.968   8.279 -0.0902  0.2124 -0.2156
    1W        W45799  10.490  18.247   7.638  0.1203 -0.0192  0.1330
    1W        W45800   0.789  10.328   7.471 -0.2539 -0.1918  0.2936
    1W        W45801  26.775  28.407   2.539  0.0265 -0.0046  0.1939
    1W        W45802   7.001  22.116   0.674  0.0767 -0.1008  0.1791
    1W        W45803   7.145  26.738   1.495  0.0549 -0.0880  0.0631
    1W        W45804   8.555  25.283   2.256  0.1427 -0.0492 -0.2397
    1W        W45805  10.420  13.240   1.874  0.0266  0.1189  0.2286
    1W        W45806   0.794  25.521   8.912 -0.0430  0.0109 -0.0183
    1W        W45807  10.886  25.647   0.200  0.0773  0.1773  0.0057
    1W        W45808  20.845   5.516   2.881 -0.0911 -0.1760 -0.2372
    1W        W45809   1.202  13.174   0.265 -0.0056  0.0859  0.0201
    1W        W45810  25.922   1.592   9.368 -0.4558 -0.0468  0.0817
    1W        W45811  20.831   1.552   7.991  0.3047  0.2848  0.1460
    1W        W45812  27.384  29.589   9.517 -0.0613 -0.1366  0.1031
    1W        W45813   5.769  20.702   2.499  0.2725  0.1359  0.0731
    1W        W45814  12.005  19.222   8.684 -0.1159  0.2331  0.0676
    1W        W45815  23.948  21.815   0.389 -0.0526  0.0680 -0.1814
    1W        W45816  18.008  23.942   8.628 -0.2096 -0.3303 -0.0673
    1W        W45817  15.215   9.083   2.132  0.1726 -0.0849  0.0379
    1W        W45818   7.521  15.023   1.408 -0.0893  0.0020 -0.1729
    1W        W45819  21.990   9.519   6.969  0.2172  0.2947  0.2072
    1W        W45820   0.400  10.371   1.633  0.1541 -0.1217 -0.0058
    1W        W45821  26.893   1.819   8.027 -0.1365  0.0955  0.2674
    1W        W45822  21.539  23.751   6.098  0.0040 -0.0013 -0.0006
    1W        W45823   6.498  27.954   0.617 -0.0223  0.2361 -0.1205
    1W        W45824   1.254   0.528   8.143 -0.0214 -0.1848  0.1262
    1W        W45825  10.867   7.272   8.282  0.0416  0.0219 -0.1208
    1W        W45826  24.488  19.919   8.174 -0.0718 -0.1090  0.0064
    1W        W45827  23.747  27.399   0.105  0.0777 -0.1480 -0.0932
    1W        W45828   4.688  16.183   2.613  0.1573  0.3171 -0.1849
    1W        W45829   6.381   7.600   2.972  0.0327  0.1764 -0.0891
    1W        W45830  26.395   6.291   9.152  0.0732  0.0313  0.2825
    1W        W45831  11.831   5.061   7.862  0.0808  0.0656 -0.0141
    1W        W45832   8.284   4.442   2.296  0.0075 -0.0938 -0.0699
    1W        W45833  10.867  28.601   9.420  0.1237 -0.0109  0.1969
    1W        W45834  29.294   7.222   0.257  0.6017 -0.1344  0.0345
    1W        W45835  21.523   8.733   8.752  0.3180  0.0633 -0.1953
    1W        W45836   4.595   0.944   1.524  0.0950 -0.1403  0.0415
    1W        W45837  29.698  27.901   1.131 -0.1580  0.0006  0.0289
    1W        W45838  25.218  27.304   2.626 -0.2136  0.1764  0.0774
    1W        W45839  26.626  16.023   9.289 -0.2670  0.1331  0.2145
    1W        W45840   3.321  20.611   9.292 -0.0552  0.3790 -0.0832
    1W        W45841  26.903  15.143   9.132  0.1925 -0.0418 -0.0253
    1W        W45842  21.389  28.286   3.125 -0.0580  0.2525 -0.1917
    1W        W45843   5.282  25.351   7.825  0.1727 -0.0714 -0.1243
    1W        W45844  20.623  11.425   7.534  0.3373 -0.1943  0.1960
    1W        W45845   7.170   1.404   6.528 -0.1482 -0.2469 -0.1239
    1W        W45846  12.438  29.314   8.857  0.1469  0.0617  0.0842
    1W        W45847  23.118  22.125   0.274 -0.0344  0.4568  0.0192
    1W        W45848  26.534   9.286   8.060  0.1493  0.3697 -0.0241
    1W        W45849  27.684  20.756   8.318 -0.0021 -0.1161  0.0946
    1W        W45850  22.933  17.178   6.356 -0.0209  0.2252 -0.3459
    1W        W45851  29.728   0.890   9.227  0.2370  0.0678 -0.2632
    1W        W45852  23.678   5.766   3.177 -0.3827  0.4351  0.1498
    1W        W45853  28.445  25.283   7.060 -0.0873  0.0225 -0.1110
    1W        W45854  17.606   5.849   8.830 -0.1644 -0.1916  0.0341
    1W        W45855  29.029  23.394   7.701 -0.1180 -0.2470 -0.0359
    1W        W45856   9.109  18.298   9.428  0.0934 -0.0861  0.1646
    1W        W45857   5.982   7.242   7.485  0.1376 -0.1159  0.0719
    1W        W45858   8.847  20.729   0.431  0.3010 -0.2810  0.0511
    1W        W45859  28.779   2.314   7.198  0.1303 -0.2709  0.5055
    1W        W45860   2.990   8.221   0.300 -0.0857 -0.1083 -0.4471
    1W        W45861  24.930   3.710   2.973  0.0357 -0.1999 -0.0225
    1W        W45862  12.870  21.928   7.079 -0.1165 -0.0127  0.4323
    1W        W45863  14.034  28.611   8.637 -0.0369  0.0018  0.0877
    1W        W45864  15.275  21.503   2.363 -0.0442 -0.0600 -0.2749
    1W        W45865  23.397  17.724   0.009 -0.2415  0.0925 -0.2204
    1W        W45866  24.573  16.874   5.868 -0.0074 -0.0339 -0.0511
    1W        W45867  15.255  20.350   6.180 -0.0807 -0.0500 -0.0924
    1W        W45868  19.649   7.152   0.870  0.1153 -0.1057  0.1005
    1W        W45869  23.045   7.638   0.505 -0.2222 -0.0188 -0.0196
    1W        W45870   7.756  23.112   1.984 -0.3539  0.2809 -0.2810
    1W        W45871   3.253  21.440   1.956 -0.0801 -0.2375  0.0698
    1W        W45872   3.514  22.640   8.632 -0.0744  0.0441 -0.2964
    1W        W45873   2.640   6.742   6.165 -0.1531 -0.0846  0.1403
    1W        W45874  25.867  22.407   1.719  0.2245  0.0719 -0.1054
    1W        W45875  22.510   0.679   7.465 -0.2284  0.1737  0.0901
    1W        W45876  27.832   1.562   0.308  0.1458 -0.0371 -0.1301
    1W        W45877   5.581   8.475   1.183  0.0970 -0.1062 -0.1692
    1W        W45878  27.371  16.738   6.605  0.0100 -0.2167 -0.0021
    1W        W45879  25.938  22.381   6.783  0.1678 -0.1476 -0.1089
    1W        W45880  14.163  25.977   0.509  0.2541 -0.2314 -0.1385
    1W        W45881  19.044  24.606   2.453 -0.1028 -0.1121 -0.0377
    1W        W45882  26.349   8.617   8.982 -0.0599  0.1747  0.1152
    1W        W45883   4.371  12.270   7.381  0.1723 -0.0135  0.0678
    1W        W45884   8.968   0.731   2.849  0.3078  0.0826 -0.0987
    1W        W45885   1.868  27.553   1.178 -0.1631  0.0324 -0.0052
    1W        W45886   8.133  20.484   7.005 -0.3885  0.5161 -0.4516
    1W        W45887  26.621  10.471   1.867  0.0742  0.1048 -0.1971
    1W        W45888   1.373   4.188   2.809  0.0538  0.0254 -0.2149
    1W        W45889  13.429   3.364   1.790 -0.3518  0.0411  0.1194
    1W        W45890   1.376  17.716   8.037 -0.1393 -0.0480  0.1570
    1W        W45891  26.249   8.570   1.106  0.1561 -0.1775  0.2446
    1W        W45892  28.039   6.419   0.809  0.1337  0.1565  0.0649
    1W        W45893  28.166  16.105   7.968  0.1719  0.1154  0.2418
    1W        W45894   4.912   2.829   8.575  0.3353 -0.0882  0.0237
    1W        W45895   8.637  17.264   0.693 -0.1243  0.1385 -0.3600
    1W        W45896  19.733  20.503   6.538 -0.0561  0.0472 -0.1400
    1W        W45897  16.165  25.852   7.875 -0.1683  0.2867  0.2176
    1W        W45898   9.356  23.109   0.022  0.0452 -0.0995 -0.1246
    1W        W45899   3.449  29.376   7.443  0.4672 -0.0235 -0.1084
    1W        W45900   2.662  15.747   7.648 -0.0853  0.4540 -0.1899
    1W        W45901  26.181  28.070   7.583 -0.1260  0.0306  0.3345
    1W        W45902   2.247  10.794   7.249 -0.1096 -0.1855  0.1952
    1W        W45903   4.265  13.527   1.610  0.0830  0.1496 -0.1570
    1W        W45904  24.725  28.535   0.823 -0.1578  0.1381  0.1041
    1W        W45905   0.515  14.645   7.988 -0.0839 -0.1109 -0.1131
    1W        W45906  18.248  16.670   2.672 -0.1082 -0.0549  0.1212
    1W        W45907   8.131  22.740   8.892 -0.1423  0.0090 -0.0757
    1W        W45908  13.380   1.938   8.352 -0.1031 -0.1187  0.2232
    1W        W45909  19.791   4.553   2.401  0.0624  0.0030 -0.3070
    1W        W45910  26.203   2.579   2.022  0.0099 -0.0837 -0.0584
    1W        W45911  22.847  11.712   5.854 -0.1789 -0.0831 -0.0640
    1W        W45912  19.921  22.952   8.104 -0.3499  0.2317 -0.2649
    1W        W45913   8.128   8.401   8.941  0.2487 -0.0634  0.1309
    1W        W45914  20.708  17.582   6.590 -0.0957  0.2414  0.0447
    1W        W45915  23.389  28.849   1.137 -0.1311 -0.2858  0.1023
    1W        W45916  12.224  22.485   0.380 -0.5953 -0.2960 -0.1371
    1W        W45917   7.445   2.091   0.089 -0.1508  0.0992  0.0693
    1W        W45918  17.325  18.025   2.436  0.0724 -0.1319  0.2629
    1W        W45919   6.635  22.159   6.345  0.1473  0.0619 -0.1740
    1W        W45920   9.305   5.986   9.324 -0.1032  0.0141 -0.0583
    1W        W45921  13.055  15.233   8.217 -0.0767  0.0172  0.0730
    1W        W45922  27.335  16.409   8.943  0.0155  0.1052 -0.0022
    1W        W45923  15.916   8.792   6.916 -0.2656  0.2719  0.0794
    1W        W45924  16.342   1.789   7.741  0.0691  0.0346  0.1125
    1W        W45925  24.317  28.623   2.162  0.0925 -0.0995 -0.2047
    1W        W45926   5.703  16.998   0.076  0.1466  0.1349  0.0492
    1W        W45927  11.544  23.309   2.837  0.1378 -0.1325 -0.0650
    1W        W45928   5.287   8.207   7.461  0.0613  0.1052 -0.0596
    1W        W45929   7.978  15.314   1.863  0.2984  0.0269 -0.2102
    1W        W45930   8.280   9.519   1.433  0.2380 -0.0561  0.1576
    1W        W45931  21.977  24.696   2.942 -0.0785  0.3302  0.1791
    1W        W45932   6.214  26.913   1.658  0.1039 -0.0714 -0.0811
    1W        W45933   7.596  26.034   0.288  0.0309 -0.0343  0.1591
    1W        W45934   0.147  17.175   9.073 -0.0720 -0.2437  0.0832
    1W        W45935   7.515  25.291   6.581 -0.0374  0.1429 -0.0207
    1W        W45936   7.427   8.714   0.117 -0.1140 -0.0444 -0.0613
    1W        W45937  13.198  18.056   8.138  0.2578  0.1594  0.3159
    1W        W45938  16.344   9.144   1.004 -0.2672  0.2028  0.1866
    1W        W45939  15.939  24.670   2.651 -0.0185  0.1174  0.2595
    1W        W45940  16.070   5.215   7.109  0.0987  0.0420 -0.2787
    1W        W45941   7.786  19.904   2.203 -0.1357  0.0516 -0.0866
    1W        W45942   4.873   4.898   0.808 -0.0274  0.0621 -0.2198
    1W        W45943  10.087   3.379   2.966  0.1812  0.4870  0.0122
    1W        W45944  23.586  16.587   7.193  0.0567 -0.0571 -0.2145
    1W        W45945  17.358   1.892   1.955 -0.0692 -0.2656 -0.1180
    1W        W45946  19.020  22.949   8.956 -0.0709 -0.1491  0.0923
    1W        W45947   4.596  11.455   2.517 -0.2311 -0.0625 -0.0730
    1W        W45948  20.523  27.639   9.402  0.1749  0.2802  0.0541
    1W        W45949  11.792   3.350   1.204  0.2379  0.1623 -0.4507
    1W        W45950  18.887  21.059   7.048  0.4359  0.3432 -0.0287
    1W        W45951   5.605  12.959   9.233  0.0859  0.1112  0.0186
    1W        W45952   7.953  29.600   0.540 -0.1186  0.1619 -0.0526
    1W        W45953  16.411  29.427   9.156  0.2235  0.1274  0.0170
    1W        W45954   9.243  22.677   2.415 -0.0861 -0.3511  0.2318
    1W        W45955  24.217  20.526   1.225 -0.0222  0.0875  0.1053
    1W        W45956  22.089  19.223   8.175  0.2222  0.2172  0.4870
    1W        W45957  15.114  15.285   0.652 -0.2995 -0.1006  0.0705
    1W        W45958  27.703  26.208   0.778 -0.3326 -0.3578  0.2321
    1W        W45959  24.410   9.984   6.891  0.1289  0.4086  0.2134
    1W        W45960  23.662  16.522   7.724 -0.2431 -0.3097 -0.3533
    1W        W45961  17.317  17.784   0.809 -0.1742 -0.0069  0.2118
    1W        W45962  18.877  10.259   0.154 -0.0982 -0.0622 -0.1159
    1W        W45963  29.393  26.952   2.433 -0.0907 -0.0221  0.0079
    1W        W45964  15.874   1.630   7.880 -0.0407  0.1944 -0.1559
    1W        W45965  23.730   4.666   1.933 -0.2956 -0.3369 -0.1655
    1W        W45966   1.607  22.255   1.342 -0.3901 -0.0528 -0.3332
    1W        W45967  29.491   7.899   7.228 -0.4100  0.1904  0.0552
    1W        W45968  14.200   1.560   7.455 -0.1363 -0.0372 -0.3203
    1W        W45969   5.335  28.932   6.260 -0.2531 -0.2071 -0.2598
    1W        W45970   4.879   3.231   9.418 -0.1747 -0.2458 -0.2142
    1W        W45971  13.501   9.875   0.149 -0.0175 -0.0350 -0.0391
    1W        W45972  10.151  10.990   0.079  0.1024  0.1411 -0.4543
    1W        W45973  16.595  13.878   7.064 -0.1153  0.0148  0.1391
    1W        W45974  24.671   5.979   6.924 -0.1581  0.2273 -0.0567
    1W        W45975  21.055   9.744   8.192 -0.0765  0.3286  0.1737
    1W        W45976   9.064  11.088   8.110  0.0687  0.4231  0.1112
    1W        W45977  22.004  12.394   7.207  0.1144 -0.4444 -0.0065
    1W        W45978   4.073   3.605   0.533 -0.1740  0.1464  0.4686
    1W        W45979  15.407  14.830   8.653 -0.0575  0.0841 -0.1503
    1W        W45980  17.999  29.570   2.990  0.0381 -0.1450 -0.0475
    1W        W45981   2.215  15.468   1.515  0.1131 -0.0198  0.0379
    1W        W45982  21.865  25.651   2.837 -0.2098  0.0065 -0.0065
    1W        W45983  22.370   5.226   1.854  0.2753 -0.1208 -0.3199
    1W        W45984  15.420  15.316   3.186 -0.0434 -0.3166 -0.0237
    1W        W45985  10.494  26.298   1.613 -0.2825  0.1954 -0.0730
    1W        W45986  15.678  16.556   2.147  0.2188  0.2903  0.0242
    1W        W45987  23.456   0.940   1.563  0.1222 -0.0506  0.0966
    1W        W45988   1.868  18.537   0.789  0.0779  0.2569 -0.1572
    1W        W45989   9.792   2.559   1.083 -0.0548  0.0587 -0.3662
    1W        W45990  29.455   1.704   8.511 -0.1046 -0.0740  0.1531
    1W        W45991   6.199  29.174   7.403 -0.0221 -0.4175  0.1726
    1W        W45992  12.778  10.235   9.051 -0.1945 -0.0818  0.1990
    1W        W45993   7.358  27.312   1.253 -0.0005 -0.0076 -0.0596
    1W        W45994   1.790  27.880   6.714  0.1446 -0.0657 -0.0682
    1W        W45995  16.609  23.314   7.594  0.1810  0.0029  0.3430
    1W        W45996  13.023  26.710   7.264 -0.0912 -0.0482 -0.1033
    1W        W45997  17.439   7.686   8.504 -0.0057  0.1562  0.1153
    1W        W45998  26.698  29.754   2.782  0.2999  0.0852  0.3115
    1W        W45999  20.194  18.077   9.065  0.0174 -0.1025 -0.0389
    1W        W46000  23.443  16.645   8.717 -0.0350 -0.0435  0.4278
    1W        W46001  23.479   9.454   9.119  0.0462  0.2499 -0.0705
    1W        W46002   7.466  23.565   1.505 -0.0333 -0.0745  0.2312
    1W        W46003  10.124  16.597   8.458  0.0183 -0.1043  0.1921
    1W        W46004  12.853  12.156   8.138  0.3854  0.4087 -0.1582
    1W        W46005  11.833  29.457   8.684 -0.2647 -0.0637 -0.0128
    1W        W46006  28.114   3.430   9.100  0.2157 -0.6273  0.1142
    1W        W46007  17.111   3.798   7.275 -0.1694 -0.1001  0.1960
    1W        W46008  17.402  11.891   8.248  0.3904 -0.2082  0.0467
    1W        W46009   8.309  13.616   8.642 -0.3113 -0.2073 -0.1442
    1W        W46010  14.742  23.131   2.469  0.1100  0.0309 -0.2306
    1W        W46011   3.811  29.160   9.047  0.2419 -0.0763 -0.2382
    1W        W46012  19.483   8.091   8.872  0.0260  0.0383 -0.1734
    1W        W46013   8.450  22.685   2.357  0.1547  0.0678 -0.1020
    1W        W46014  14.824  20.822   9.097  0.0549  0.1022  0.1936
    1W        W46015   2.805   6.498   8.483  0.3038 -0.1959  0.0048
    1W        W46016  20.829   3.425   8.175  0.0962 -0.1577  0.1073
    1W        W46017  10.816   3.095   2.623 -0.0284 -0.0232 -0.3295
    1W        W46018  25.383  16.344   7.949 -0.2232 -0.2251  0.1114
    1W        W46019  21.237  19.759   2.189 -0.0310 -0.0706  0.0174
    1W        W46020  27.753  11.690   1.353 -0.3081 -0.0325 -0.1754
    1W        W46021  14.971   3.597   8.374 -0.1880 -0.3189 -0.0184
    1W        W46022  27.691  19.749   0.122  0.1754  0.4436 -0.0022
    1W        W46023  28.241  19.082   8.458  0.5328  0.0062  0.2815
    1W        W46024  28.182   4.518   7.818  0.0272  0.0863 -0.0741
    1W        W46025   8.429   8.470   1.205 -0.2222  0.1002 -0.0032
    1W        W46026  17.070   5.814   8.802  0.0310  0.0696  0.1603
    1W        W46027  11.905  21.272   2.111 -0.2030 -0.0574  0.3677
    1W        W46028   9.804   7.583   3.340 -0.0150 -0.0165 -0.0043
    1W        W46029   5.917  28.553   8.023  0.3666  0.0569 -0.3182
    1W        W46030   3.157  25.479   8.767  0.2683  0.1955  0.0321
    1W        W46031  26.461  24.237   1.091  0.0887  0.0619  0.0021
    1W        W46032  24.273   9.279   2.378  0.1530 -0.1286  0.0112
    1W        W46033  24.686  28.263   3.441  0.0010 -0.0518 -0.1572
    1W        W46034  27.976  21.232   2.148 -0.0453  0.0197  0.1607
    1W        W46035   4.108  11.002   1.063 -0.0705  0.3427 -0.0338
    1W        W46036  21.925  18.256   1.561  0.0772 -0.0487  0.1604
    1W        W46037   0.476  20.210   1.043  0.0367 -0.0576 -0.0458
    1W        W46038   5.079  17.139   2.135 -0.0502 -0.0919 -0.2823
    1W        W46039   6.962  28.634   2.742  0.0720  0.0491 -0.1953
    1W        W46040  14.533   8.225   7.632 -0.1256  0.2504  0.2218
    1W        W46041   8.602   1.397   0.362  0.2759  0.0439 -0.2078
    1W        W46042  25.501  13.886   6.688  0.0638 -0.1569 -0.0310
    1W        W46043  10.025  25.767   9.122  0.0934  0.2373 -0.1692
    1W        W46044  23.794   7.994   1.242 -0.1874 -0.0421  0.1389
    1W        W46045  22.073  27.006   6.895  0.4148 -0.1109 -0.0247
    1W        W46046  10.269   1.280   1.353  0.1159  0.1901  0.0063
    1W        W46047  18.655  16.899   8.203  0.1890 -0.2666  0.2423
    1W        W46048  28.775   3.694   8.235 -0.2001  0.2417  0.0944
    1W        W46049  24.809  11.932   8.757  0.2566  0.2142 -0.0110
    1W        W46050   3.994   2.136   7.255 -0.0441 -0.1420  0.0183
    1W        W46051   7.373   8.858   6.968  0.1056 -0.2154 -0.2009
    1W        W46052  21.912   9.289   7.888  0.1460 -0.1570  0.1561
    1W        W46053  15.800   7.803   6.941 -0.4098 -0.0716 -0.1922
    1W        W46054  13.253  28.005   1.564  0.3150 -0.0152  0.1798
    1W        W46055   0.962  16.823   1.643 -0.2521 -0.0536  0.0934
    1W        W46056  20.464  15.520   8.538 -0.3218 -0.1595 -0.1135
    1W        W46057  10.861  18.668   0.461 -0.0468 -0.0659 -0.3193
    1W        W46058  25.445   6.196   6.925 -0.0108 -0.2490  0.0331
    1W        W46059  28.449  19.456   8.750 -0.0514 -0.1444  0.1242
    1W        W46060   3.435   2.671   8.267  0.2207  0.0157  0.0728
    1W        W46061   9.441  27.163   1.029 -0.0910 -0.4794 -0.3192
    1W        W46062  26.766   9.548   0.312 -0.0271 -0.0142 -0.1109
    1W        W46063  20.386   5.436   9.151 -0.2888 -0.0969 -0.3950
    1W        W46064  22.365   1.941   3.115 -0.2412 -0.1610 -0.1884
    1W        W46065   0.481   7.261   9.002  0.1523 -0.2796  0.0138
    1W        W46066   2.357   6.004   6.952 -0.1146 -0.1736  0.0817
    1W        W46067  17.446  15.878   0.637  0.0048 -0.1083 -0.0691
    1W        W46068   5.075  11.363   0.846 -0.2396 -0.0491  0.0937
    1W        W46069   6.243  24.646   1.516 -0.0449 -0.1302 -0.0759
    1W        W46070  26.815  18.422   8.025 -0.2133  0.0173  0.0286
    1W        W46071  26.784  24.487   7.730 -0.2605  0.0869  0.1788
    1W        W46072  13.273  24.429   1.039  0.0864  0.2874 -0.1559
    1W        W46073   1.200  29.090   2.269 -0.3272 -0.1422 -0.0265
    1W        W46074   6.682  10.033   1.205  0.3196  0.0334  0.0599
    1W        W46075   9.895   8.522   2.153 -0.0138 -0.2248 -0.1944
    1W        W46076   3.686   5.447   7.606 -0.0600  0.0995 -0.3246
    1W        W46077  28.324   6.622   7.648 -0.2363  0.1170 -0.2371
    1W        W46078   0.423  12.038   9.213 -0.0727 -0.0306 -0.1934
    1W        W46079  23.311  25.678   1.851 -0.0192 -0.3023 -0.0703
    1W        W46080  21.543  12.937   7.917 -0.2228  0.1748  0.2494
    1W        W46081  18.540   6.456   2.499  0.3014  0.1105 -0.0197
    1W        W46082  23.912  15.054   7.510  0.1547 -0.0988 -0.1617
    1W        W46083  26.148  18.452   6.324  0.1581  0.0273 -0.0583
    1W        W46084  16.383  29.659   1.486 -0.1559 -0.0943 -0.3858
    1W        W46085  20.559   7.236   0.710  0.1664 -0.1640 -0.1190
    1W        W46086  12.462  12.770   2.429 -0.1762  0.0895 -0.2197
    1W        W46087  26.913  21.614   1.310  0.1226 -0.3262 -0.1390
    1W        W46088  29.468  29.362   7.473  0.0904  0.1442  0.0572
    1W        W46089  26.820  22.150   7.537  0.1425 -0.0017  0.2954
    1W        W46090  28.390   0.049   1.333 -0.1997 -0.0213 -0.1543
    1W        W46091  18.962  24.796   9.453 -0.2143 -0.1209 -0.1144
    1W        W46092  26.946  16.607   0.101 -0.1836  0.2277 -0.1413
    1W        W46093  19.211  23.943   1.932 -0.0763 -0.1027  0.0044
    1W        W46094   7.939  16.416   1.284  0.1335  0.1847  0.2141
    1W        W46095   0.897   4.682   7.737 -0.1148  0.0534  0.1320
    1W        W46096  10.282  22.136   8.376  0.0576 -0.0123 -0.1081
    1W        W46097  17.507   1.936   8.081 -0.1762  0.6599 -0.1841
    1W        W46098  25.828   9.829   7.776 -0.2342 -0.1671  0.2193
    1W        W46099   7.592  24.059   9.081 -0.1845 -0.0769  0.2180
    1W        W46100  23.886   1.034   1.967 -0.2994 -0.0922 -0.1637
    1W        W46101  16.109   4.578   7.762 -0.0860  0.0546  0.1066
    1W        W46102   7.583  17.769   8.929 -0.0489 -0.1020  0.0071
    1W        W46103   7.956  26.521   2.915  0.1638 -0.0133  0.4005
    1W        W46104  23.361   0.886   0.821 -0.2353 -0.1231  0.4374
    1W        W46105  24.621  13.449   8.315 -0.0103 -0.0418  0.3297
    1W        W46106   3.288  17.604   8.636  0.2115 -0.0035 -0.1520
    1W        W46107   7.067   0.843   6.512  0.2447 -0.2100 -0.0346
    1W        W46108  17.897  19.543   0.124 -0.0129  0.2524 -0.1253
    1W        W46109  27.365   9.447   8.836  0.1734 -0.0238  0.1931
    1W        W46110  18.654   4.448   7.159  0.1893  0.0752 -0.1414
    1W        W46111  22.880   6.384   2.895  0.0407  0.1994  0.3444
    1W        W46112  12.856  26.277   2.908 -0.0774  0.2246 -0.1941
    1W        W46113  22.438  10.927   1.096  0.0769  0.1120 -0.1448
    1W        W46114  16.306   5.477   8.028  0.2651 -0.0750  0.2437
    1W        W46115   7.627  14.259   8.506  0.1055  0.1442 -0.2639
    1W        W46116  16.899  21.783   1.562  0.2642  0.0058  0.0553
    1W        W46117  14.697   0.893   2.544  0.2719  0.1510  0.0869
    1W        W46118   8.277  10.685   7.180  0.0973 -0.1346  0.2431
    1W        W46119  28.951  15.139   8.041 -0.1630  0.1222 -0.0378
    1W        W46120  11.401  18.025   2.048 -0.0248 -0.3080  0.1404
    1W        W46121  12.059  27.751   7.133  0.0096 -0.2021 -0.1562
    1W        W46122  13.990   5.972   7.235  0.0809  0.0747  0.2273
    1W        W46123   5.372  15.551   7.198 -0.1034 -0.0993 -0.1426
    1W        W46124   2.628   6.828   0.124 -0.1528  0.1780 -0.0320
    1W        W46125   9.174   3.012   8.023 -0.2870 -0.1782 -0.4021
    1W        W46126  17.183  27.516   1.665  0.1329  0.0609 -0.1182
    1W        W46127   7.541  12.749   8.763 -0.2500 -0.2090 -0.1179
    1W        W46128  15.967  27.385   8.205 -0.2872 -0.1592 -0.0547
    1W        W46129  17.798   5.354   3.067  0.1706 -0.0095  0.0171
    1W        W46130  22.453  10.961   9.475  0.0682  0.1281  0.1372
    1W        W46131   0.203  25.665   0.172 -0.0295  0.0372 -0.1510
    1W        W46132  20.140   7.046   8.325  0.0951  0.1999 -0.0340
    1W        W46133  22.231  27.107   8.305  0.0772 -0.0107  0.3608
    1W        W46134  16.128  25.485   1.174  0.0577  0.3314  0.0742
    1W        W46135   7.154  13.305   7.623  0.2946  0.2699  0.1628
    1W        W46136  12.851  11.607   7.115 -0.1578  0.1214 -0.2308
    1W        W46137   3.262  23.463   7.619 -0.4208 -0.0448 -0.0735
    1W        W46138   3.807  12.438   7.710 -0.3533  0.2137 -0.0091
    1W        W46139   1.817   3.038   3.488  0.2305  0.0021  0.3276
    1W        W46140  19.635   1.807   9.376  0.0951  0.5108  0.0696
    1W        W46141   8.752  19.913   2.263 -0.1410 -0.2174  0.1638
    1W        W46142   2.420   0.974   7.003 -0.3560  0.1838  0.0200
    1W        W46143  28.468  29.227   1.499 -0.1004  0.2401  0.0393
    1W        W46144  13.253   8.162   1.303  0.1917  0.1596 -0.1633
    1W        W46145   6.159  10.564   1.971  0.1131 -0.6835 -0.2473
    1W        W46146  10.304  27.751   0.589 -0.1083 -0.3478 -0.2849
    1W        W46147  18.121   1.322   9.403  0.4563 -0.1860 -0.0471
    1W        W46148  24.262  24.517   0.872  0.0175 -0.2665  0.0133
    1W        W46149  16.594   6.992   0.976 -0.2035 -0.0493 -0.1030
    1W        W46150   0.472  26.070   7.736 -0.2182  0.0473 -0.1156
    1W        W46151  27.118  14.731   9.394  0.0334  0.2174 -0.1056
    1W        W46152  13.836  19.214   2.075  0.0283  0.3068 -0.0978
    1W        W46153   2.750  15.432   0.383 -0.0260  0.0349  0.0913
    1W        W46154  22.958   5.503   8.455 -0.0079  0.1273 -0.0360
    1W        W46155   8.783  28.807   3.027  0.0288 -0.1188 -0.3650
    1W        W46156  14.214   1.202   1.836 -0.1729  0.2249 -0.0468
    1W        W46157  27.576   1.243   1.877 -0.0484 -0.3208  0.1688
    1W        W46158  29.008  12.383   1.706 -0.0976 -0.1779  0.1526
    1W        W46159  17.953  18.690   6.912  0.2069  0.1294 -0.1795
    1W        W46160  28.126  26.499   7.991  0.2547 -0.2740  0.1079
    1W        W46161  11.036  14.449   2.554  0.2906  0.0928  0.1292
    1W        W46162  17.783   4.090   3.030 -0.0112 -0.2286 -0.2011
    1W        W46163  28.671  27.973   3.352 -0.0414 -0.2054 -0.1421
    1W        W46164   9.563   5.226   8.820  0.1041  0.2035 -0.3267
    1W        W46165   7.284  19.790   2.084  0.1269  0.0087 -0.2352
    1W        W46166   1.194  17.893   0.893 -0.3055 -0.0152  0.1555
    1W        W46167  12.598  14.289   6.977  0.0298 -0.1226  0.1738
    1W        W46168  18.830   1.669   2.173 -0.2590  0.2609 -0.3557
    1W        W46169  22.228  16.831   7.530  0.3053 -0.0733  0.0579
    1W        W46170   3.042  24.403   2.601 -0.3718 -0.0776  0.1176
    1W        W46171  20.937  14.503   6.347  0.2059  0.1591 -0.1504
    1W        W46172   6.118  11.586   1.647  0.1872  0.1841  0.0094
    1W        W46173   0.037  10.516   2.614  0.1969 -0.1489  0.0945
    1W        W46174  16.918  24.603   7.673  0.0178 -0.1110 -0.3130
    1W        W46175  14.389  10.648   0.363 -0.1099 -0.0165  0.1534
    1W        W46176   7.707  25.148   7.185 -0.0921  0.0442  0.2161
    1W        W46177  14.633  28.842   0.914 -0.1613  0.1845  0.2251
    1W        W46178  21.214   2.545   2.603 -0.2664  0.2570  0.0329
    1W        W46179  21.717  23.345   2.338 -0.6243 -0.2093  0.0702
    1W        W46180  19.421  24.186   0.255  0.0464  0.2360  0.2690
    1W        W46181  13.504  14.993   8.103  0.2865 -0.2266  0.0314
    1W        W46182  20.907  14.685   1.607 -0.1605  0.0387 -0.1747
    1W        W46183   1.426   7.095   1.368 -0.0380 -0.1207  0.0915
    1W        W46184  17.391   6.805   0.765 -0.0496 -0.0803  0.3496
    1W        W46185  20.749   7.989   0.339  0.3975  0.0124  0.2869
    1W        W46186   1.381  12.583   7.389 -0.0781  0.2379  0.0216
    1W        W46187  16.501  28.572   9.241  0.1346 -0.2737  0.2462
    1W        W46188  24.542   4.021   8.388 -0.0939  0.3005  0.1629
    1W        W46189  16.400  29.560   8.306 -0.1981  0.2024 -0.3038
    1W        W46190  13.006   0.110   3.698  0.0083 -0.0234 -0.2353
    1W        W46191  10.262  22.017   1.918  0.0159 -0.1363 -0.0274
    1W        W46192  29.605  15.851   9.112 -0.0486 -0.1039  0.0371
    1W        W46193  21.980  10.513   9.509  0.1922 -0.3011  0.0948
    1W        W46194   0.575  25.669   9.323 -0.2079 -0.0941  0.0256
    1W        W46195   3.151   1.792   1.018 -0.0078  0.1452  0.5662
    1W        W46196  13.924  14.434   9.464 -0.0278  0.0331  0.1581
    1W        W46197  26.548  27.330   7.737 -0.1325 -0.2055 -0.0898
    1W        W46198   5.956  28.707   9.123 -0.2875  0.2224  0.0733
    1W        W46199  13.396   1.171   1.678 -0.0751 -0.3170  0.0283
    1W        W46200  27.266   5.027   2.181 -0.0478  0.0844  0.0663
    1W        W46201  11.069   2.653   2.296 -0.1339  0.2084 -0.0632
    1W        W46202   0.894  13.549   1.615  0.0867  0.0845 -0.1824
    1W        W46203  25.175  10.454   7.353 -0.0661 -0.1324  0.0269
    1W        W46204  28.345   0.194   1.825 -0.3254 -0.1183 -0.1059
    1W        W46205  13.728  16.684   6.567  0.3166  0.1482  0.0658
    1W        W46206  27.522  20.133   6.908 -0.3776 -0.0840  0.0561
    1W        W46207  13.570  26.142   7.543 -0.1357 -0.0010 -0.2870
    1W        W46208  10.304  16.755   2.299  0.0679 -0.2285  0.0502
    1W        W46209  23.841  11.982   1.360 -0.1509  0.1930  0.1021
    1W        W46210  13.126   4.611   8.031 -0.2259  0.2216  0.1293
    1W        W46211   8.988  28.462   3.286 -0.4707  0.1755 -0.1889
    1W        W46212  19.692  21.931   3.125  0.1027  0.0575  0.1156
    1W        W46213  25.948   7.950   2.822 -0.4483 -0.2004 -0.0433
    1W        W46214  19.931  28.296   1.753  0.0464 -0.3824  0.0030
    1W        W46215  10.251   8.434   1.424 -0.2832  0.4547 -0.2574
    1W        W46216   8.190   9.760   8.032  0.1651 -0.1881 -0.0073
    1W        W46217  22.623  21.447   0.734 -0.0142  0.0978 -0.0706
    1W        W46218  10.365  22.818   7.104 -0.1979 -0.2039  0.2300
    1W        W46219   0.278  28.043   1.859  0.0133  0.1586 -0.0442
    1W        W46220  22.884  13.745   6.874  0.0233 -0.0858 -0.3149
    1W        W46221   8.308  23.269   7.500  0.0773 -0.0584  0.1080
    1W        W46222  11.572   3.833   9.425  0.0552  0.1336 -0.0063
    1W        W46223  14.236  15.098   0.576 -0.2149  0.2547  0.1753
    1W        W46224   9.612  10.696   2.014  0.0348  0.0094 -0.1368
    1W        W46225   7.634  25.701   8.903  0.1863  0.2240  0.2197
    1W        W46226   2.828  25.357   9.341 -0.0686 -0.1838 -0.0144
    1W        W46227   0.367   5.750   7.201 -0.2303 -0.0658  0.3513
    1W        W46228  15.304   8.959   3.179  0.0643  0.0489  0.1837
    1W        W46229  12.335   0.932   2.179 -0.4936  0.2374 -0.3085
    1W        W46230  22.420  22.669   8.624  0.1964 -0.1524 -0.1125
    1W        W46231  20.763  25.197   2.483  0.0042  0.0932 -0.3723
    1W        W46232  15.590  24.301   7.087 -0.1193  0.1517 -0.1345
    1W        W46233  22.866  28.399   8.966  0.0085 -0.0291  0.1324
    1W        W46234   2.078   7.799   8.968  0.1493 -0.0076 -0.1361
    1W        W46235  22.298   1.543   1.162 -0.0621  0.3719 -0.3196
    1W        W46236   8.185  26.427   1.094 -0.0673  0.4071  0.2916
    1W        W46237   7.394  18.756   0.052  0.2031 -0.1844  0.0938
    1W        W46238   5.779  17.221   8.116  0.0327 -0.0761 -0.2329
    1W        W46239  29.230   2.894   2.917 -0.0492 -0.0676 -0.3576
    1W        W46240  28.663  14.306   9.544 -0.4222 -0.2346 -0.0664
    1W        W46241  14.331  16.503   7.554 -0.0231  0.1589  0.0364
    1W        W46242  21.181  10.670   6.308  0.0497  0.2675 -0.0106
    1W        W46243  27.247  24.427   2.045  0.0917  0.0349 -0.3194
    1W        W46244  14.741   5.829   2.127  0.3082 -0.1282 -0.0306
    1W        W46245  15.259  18.392   7.150  0.1563 -0.1146  0.2801
    1W        W46246  23.936   9.896   7.122  0.4117  0.5679 -0.0500
    1W        W46247  25.522  16.238   5.795  0.0663 -0.1274 -0.5097
    1W        W46248  27.114  10.226   0.748 -0.3223 -0.0378 -0.0043
    1W        W46249   8.006   2.922   8.915  0.0178 -0.3543  0.2165
    1W        W46250  23.256   5.457   7.783  0.1336  0.0267  0.1259
    1W        W46251  13.254  25.118   8.850  0.1483 -0.1689  0.1166
    1W        W46252  29.346  18.539   5.998 -0.2241  0.2283 -0.1287
    1W        W46253  18.251   7.268   1.316  0.0024  0.0636 -0.0184
    1W        W46254   0.013  14.100   8.306 -0.1878  0.2160 -0.0001
    1W        W46255  23.006   7.933   6.980  0.0198  0.2687  0.2619
    1W        W46256  16.095   3.193   0.384  0.1311 -0.0758 -0.3683
    1W        W46257   6.838  12.189   9.284  0.2095 -0.1714  0.1209
    1W        W46258  19.285  24.351   0.746  0.1149  0.5183 -0.1641
    1W        W46259  28.427   6.273   6.322  0.2312  0.5184 -0.0982
    1W        W46260  26.821  21.487   0.827  0.0916  0.3773 -0.0128
    1W        W46261  13.697  24.332   2.014 -0.1972  0.1537  0.0302
    1W        W46262   5.084  24.194   6.909  0.0663  0.2548 -0.3346
    1W        W46263   7.326  28.975   0.383 -0.2204  0.0672 -0.0942
    1W        W46264  29.031  18.854   8.018 -0.2350 -0.0274  0.1756
    1W        W46265   0.440  17.526   9.466  0.0325  0.0627  0.2281
    1W        W46266  22.577  29.599   3.142  0.2778  0.0048  0.0284
    1W        W46267  28.938  12.804   0.224 -0.1573  0.2870  0.0856
    1W        W46268   4.686  14.346   7.493  0.0486  0.1164  0.0569
    1W        W46269  20.637   0.802   4.143 -0.3814  0.1786  0.0894
    1W        W46270  29.158   4.023   8.884  0.0476  0.3092  0.1753
    1W        W46271  27.312  14.368   0.488 -0.0120  0.2402  0.0429
    1W        W46272   3.610  27.958   7.381  0.0180  0.0390  0.1087
    1W        W46273  19.977  25.342   0.996 -0.1139  0.0122 -0.1638
    1W        W46274   4.201   6.793   1.260  0.1441 -0.0118 -0.2110
    1W        W46275  29.290  15.983   6.304 -0.1394 -0.4074  0.0320
    1W        W46276  17.456   2.924   6.907  0.2798 -0.2345 -0.0732
    1W        W46277   6.865   9.489   7.886 -0.1892  0.0234  0.2471
    1W        W46278  14.507   4.461   7.772 -0.1669  0.1646 -0.2144
    1W        W46279  27.570  25.660   3.111 -0.1434 -0.0732  0.0447
    1W        W46280   4.365   4.261   2.342 -0.1678 -0.1590 -0.2910
    1W        W46281  26.665   8.994   7.647  0.2509  0.1640 -0.0936
    1W        W46282  15.104  22.423   9.167 -0.1942 -0.0885 -0.0106
    1W        W46283  16.261  20.902   2.343  0.1349 -0.0892 -0.2329
    1W        W46284  26.515  11.183   6.305  0.3038  0.3615 -0.0151
    1W        W46285   8.804  19.325   3.008 -0.0602  0.0690  0.0807
    1W        W46286  12.643   7.249   3.465 -0.1372 -0.0110 -0.0258
    1W        W46287   3.294  16.332   1.150 -0.0787 -0.1441  0.0097
    1W        W46288   7.078   0.708   8.730  0.0890 -0.3861 -0.1535
    1W        W46289  18.815   3.020   7.415 -0.0171 -0.2979 -0.1017
    1W        W46290  17.924  12.307   6.209  0.0577  0.1413  0.0123
    1W        W46291  28.478  29.504   0.943  0.0587  0.1169 -0.0440
    1W        W46292  27.431  28.804   8.435  0.1484 -0.2482  0.1779
    1W        W46293   8.290  28.064   7.465  0.4050  0.3242 -0.2427
    1W        W46294  22.018  15.677   9.528 -0.2579  0.0216 -0.0427
    1W        W46295   7.303   8.953   0.585 -0.1512  0.0021  0.1844
    1W        W46296  20.909  21.245   1.945 -0.0857 -0.0209  0.2353
    1W        W46297   1.997  13.008   9.165 -0.0604  0.0516 -0.0423
    1W        W46298  23.863  19.002   0.828 -0.2537  0.1691  0.3460
    1W        W46299  19.982   1.230   1.719  0.4607 -0.1313  0.2570
    1W        W46300  20.574  15.302   8.025  0.2088 -0.4265  0.0560
    1W        W46301   1.361   1.024   9.482  0.1260 -0.1638 -0.2491
    1W        W46302   5.670   1.258   6.767 -0.1788  0.1138  0.0231
    1W        W46303  19.744   5.411   2.258 -0.2649  0.2773  0.2893
    1W        W46304  19.706   6.117   8.435 -0.0386  0.2189 -0.2378
    1W        W46305   0.148  27.241   7.673 -0.3048 -0.0107 -0.0136
    1W        W46306  13.896   9.168   1.267  0.0644  0.0426 -0.1518
    1W        W46307  29.746  26.792   7.740 -0.1997 -0.0234 -0.0561
    1W        W46308  12.948   8.778   8.911  0.2012  0.1449  0.2336
    1W        W46309   9.049  25.350   0.005  0.2079 -0.2208 -0.0276
    1W        W46310   4.806  14.289   8.489  0.0513 -0.0906 -0.3404
    1W        W46311  26.983  26.115   2.400  0.1884 -0.0582  0.2893
    1W        W46312  22.139  10.088   0.288  0.1477  0.1082  0.0889
    1W        W46313  24.183  18.611   8.545  0.0197  0.0635 -0.0602
    1W        W46314  24.675  25.860   9.324 -0.1522  0.1768  0.0531
    1W        W46315   9.912  27.289   0.866  0.0594 -0.1520 -0.0732
    1W        W46316   1.769   3.752   9.372 -0.1337  0.0412  0.1080
    1W        W46317  10.447   7.970   1.325  0.0137  0.1432  0.1333
    1W        W46318  10.749  11.930   1.378  0.1992  0.3254  0.0806
    1W        W46319   7.015  23.322   9.045 -0.0915 -0.2394 -0.2969
    1W        W46320  20.703   1.407   1.225  0.0957 -0.0763  0.1031
    1W        W46321  26.239   2.666   6.655 -0.1659 -0.0469 -0.1427
    1W        W46322  26.873  15.768   8.084  0.0465 -0.0340 -0.0142
    1W        W46323  12.699  26.502   1.119  0.1223 -0.0304 -0.0719
    1W        W46324  28.328   8.063   8.088  0.2425  0.2148  0.0882
    1W        W46325   2.332  13.913   7.013  0.1518 -0.2738  0.1797
    1W        W46326  28.261   1.436   1.134 -0.3375 -0.0109  0.0774
    1W        W46327   9.031  13.578   8.826 -0.0550  0.1322 -0.1803
    1W        W46328  26.688  21.117   1.402 -0.1071  0.1723 -0.2044
    1W        W46329  15.763  20.538   8.272  0.2319 -0.0049  0.0202
    1W        W46330  10.863  21.496   7.965  0.2308  0.0577 -0.1086
    1W        W46331  18.954  21.111   8.936 -0.0479  0.0706 -0.2197
    1W        W46332  21.827   0.027   7.939  0.1156  0.0170 -0.0089
    1W        W46333   7.279   0.936   8.188  0.2108 -0.0138 -0.3305
    1W        W46334  28.009  28.067   8.196  0.0092  0.3694 -0.0618
    1W        W46335  16.795  26.282   2.449 -0.2479  0.0111  0.0930
    1W        W46336   6.556   3.659   3.842 -0.0036  0.1946 -0.3391
    1W        W46337  25.371  11.426   8.307  0.0732  0.0007 -0.1464
    1W        W46338  29.232   5.520   7.659  0.0860  0.0459 -0.0548
    1W        W46339  25.477  29.664   8.354  0.1646 -0.3706 -0.0278
    1W        W46340  23.473  29.049   7.926  0.0166  0.0374  0.2860
    1W        W46341  12.142  23.319   6.998 -0.4333  0.1878 -0.0659
    1W        W46342   5.859  25.632   0.836  0.0743 -0.1824 -0.2317
    1W        W46343  27.152  12.308   7.075  0.1540  0.0531  0.2234
    1W        W46344  23.089  20.284   1.698 -0.0127  0.3801 -0.0340
    1W        W46345   9.375   8.017   1.882 -0.1715 -0.2217  0.1133
    1W        W46346  11.050  27.862   2.002 -0.1007 -0.1121 -0.1243
    1W        W46347   7.383   4.412   0.653 -0.0387 -0.0045  0.2295
    1W        W46348   3.014   9.529   0.472 -0.0216 -0.0770 -0.3335
    1W        W46349  21.241  18.746   6.436 -0.1452 -0.1671  0.0389
    1W        W46350  22.570  25.042   8.630  0.0026 -0.1557 -0.0519
    1W        W46351   7.337   9.099   8.367  0.1775  0.0503 -0.2953
    1W        W46352  19.497   3.576   1.534  0.2346  0.0445  0.2116
    1W        W46353  25.110   1.673   8.692  0.1371 -0.0613 -0.0774
    1W        W46354  13.988   9.790   8.757  0.2042 -0.1747  0.1346
    1W        W46355  10.598  25.502   1.794  0.0902  0.4096 -0.0315
    1W        W46356  23.591  11.233   0.016 -0.1333  0.0785 -0.0357
    1W        W46357  17.015  21.926   6.738 -0.0153 -0.1322 -0.4329
    1W        W46358   8.083   3.756   1.762 -0.0183  0.1738  0.3286
    1W        W46359  13.749  23.444   9.037  0.2205  0.1842 -0.0478
    1W        W46360  10.551  17.035   1.141  0.0003  0.0371 -0.1026
    1W        W46361   3.059  24.977   9.103  0.1503  0.2462 -0.0892
    1W        W46362  14.566  11.673   0.715 -0.0067 -0.0721  0.1209
    1W        W46363  17.149  20.010   8.514  0.0667 -0.0991  0.1025
    1W        W46364  22.923  21.983   9.176 -0.0469  0.1571 -0.0895
    1W        W46365  15.631   2.763   2.220  0.2572  0.1180 -0.1707
    1W        W46366  28.614  22.227   6.941 -0.0640 -0.2988 -0.1795
    1W        W46367  17.791  23.344   0.336 -0.1304 -0.2215 -0.1278
    1W        W46368  16.484   5.354   0.339  0.1311  0.0097  0.0950
    1W        W46369  18.007   2.874   8.013 -0.0079  0.2625  0.1981
    1W        W46370   5.233  10.857   9.357  0.1066  0.0676 -0.1222
    1W        W46371  23.942  18.960   8.287 -0.1381 -0.3123 -0.2506
    1W        W46372  10.681  25.834   1.437 -0.0203  0.0202 -0.3012
    1W        W46373  25.016   6.484   1.265 -0.0461 -0.0874 -0.1491
    1W        W46374  28.179  18.023   6.785 -0.0830 -0.1731  0.1403
    1W        W46375  20.994  23.872   9.165 -0.1143 -0.1616  0.0493
    1W        W46376   8.171  16.984   9.347  0.0574  0.4593  0.1433
    1W        W46377   4.137  12.613   9.276 -0.3406  0.1642 -0.1704
    1W        W46378  19.651   5.743   0.153  0.3424  0.0687  0.2297
    1W        W46379  16.327   2.175   8.948  0.4112 -0.0218  0.5132
    1W        W46380  20.110  14.178   9.037  0.1604 -0.0180 -0.2341
    1W        W46381  28.876  28.973   1.455  0.0270  0.3182  0.1026
    1W        W46382  23.885   9.613   2.444  0.2626  0.1020  0.0241
    1W        W46383  24.418  21.546   8.205  0.1861  0.0439 -0.1563
    1W        W46384  25.686  17.215   8.968 -0.2056  0.1558 -0.2300
    1W        W46385  12.620  23.093   2.571  0.1067  0.2357  0.0708
    1W        W46386  19.768   9.931   9.050 -0.2818  0.1608 -0.0957
    1W        W46387   2.307  21.089   1.690 -0.1631  0.0398 -0.1774
    1W        W46388   7.396   0.505   7.896 -0.0004  0.1098 -0.1696
    1W        W46389   5.196   7.914   2.693  0.0512  0.1723  0.2832
    1W        W46390   8.368  18.926   7.281  0.0006  0.0499  0.2602
    1W        W46391  18.919  19.634   8.699 -0.1948  0.2197 -0.0392
    1W        W46392  27.657   8.250   7.331  0.0685 -0.0049 -0.0585
    1W        W46393  16.831  28.175   1.500 -0.0927  0.0476  0.1534
    1W        W46394  14.995  22.116   7.087  0.0269  0.0183  0.0125
    1W        W46395  15.038  21.160   7.138 -0.0744  0.0178  0.0963
    1W        W46396  16.779  15.147   7.602 -0.0087 -0.0507 -0.1026
    1W        W46397   4.639   2.435   6.523 -0.1134  0.1569  0.1812
    1W        W46398  14.923  17.763   2.741  0.0543  0.1228 -0.1351
    1W        W46399  21.408  29.754   7.755 -0.0863 -0.2581 -0.0587
    1W        W46400  13.891  22.585   1.283 -0.0935 -0.1346  0.1207
    1W        W46401   3.324  21.832   0.693  0.0492 -0.0889  0.0194
    1W        W46402  16.294  18.269   8.930  0.1471 -0.3213 -0.1895
    1W        W46403  20.823  23.901   8.718 -0.1404 -0.0299 -0.3935
    1W        W46404  10.039  24.259   7.093 -0.1254 -0.3372  0.1428
    1W        W46405  26.452  16.491   8.080 -0.0374  0.0694  0.2460
    1W        W46406  19.218  21.185   1.999  0.0944  0.1605 -0.0001
    1W        W46407  16.572  24.583   1.276 -0.1327 -0.1679 -0.0338
    1W        W46408   4.984  14.785   7.323 -0.0618  0.0061  0.0412
    1W        W46409   6.324  27.823   1.816  0.2745 -0.2499  0.0358
    1W        W46410   5.580  13.976   8.442  0.1745 -0.0648 -0.0603
    1W        W46411   5.174   0.588   0.793  0.0986  0.3307 -0.1797
    1W        W46412   2.420  20.006   2.431  0.0888 -0.1059  0.0819
    1W        W46413  16.043   5.845   7.735  0.2414 -0.1232 -0.2527
    1W        W46414  13.980  14.661   2.104  0.0954  0.2288  0.0142
    1W        W46415  17.646  12.447   8.016  0.0848 -0.3367 -0.3978
    1W        W46416  13.265  18.064   8.732  0.3462 -0.4828  0.3637
    1W        W46417   6.251   8.663   9.153 -0.0031 -0.0311 -0.0894
    1W        W46418  16.006  15.032   9.210  0.3366 -0.0857  0.0762
    1W        W46419  24.176  17.235   7.736 -0.0150  0.1217 -0.1110
    1W        W46420   1.016   6.514   7.267  0.0746 -0.0478 -0.3372
    1W        W46421   0.789   3.019   8.199 -0.0442 -0.3278  0.1065
    1W        W46422   1.280  18.236   6.809  0.3342 -0.1100  0.0594
    1W        W46423  16.206  22.478   2.975 -0.2207  0.0594  0.0042
    1W        W46424  27.245   8.526   0.029 -0.2006  0.2581  0.1182
    1W        W46425  26.414   4.519   0.659 -0.3217 -0.1346  0.2299
    1W        W46426  20.053  20.952   6.493  0.1041 -0.0883  0.2246
    1W        W46427  13.186   1.628   0.162  0.0875 -0.1385 -0.0557
    1W        W46428  11.332  16.823   0.531 -0.0135  0.0240 -0.2954
    1W        W46429  27.554  18.645   0.087 -0.0016 -0.0332  0.0409
    1W        W46430   1.835   6.948   8.463 -0.0308 -0.1346 -0.0020
    1W        W46431  16.937  17.024   7.516  0.1466  0.0379 -0.2058
    1W        W46432  16.579  14.637   2.560  0.1588  0.0301 -0.0904
    1W        W46433  13.627  20.848   7.006  0.0955  0.1789 -0.0025
    1W        W46434   0.712   4.381   9.140  0.0337 -0.1317 -0.0911
    1W        W46435  18.703   5.992   8.360  0.1886 -0.0313  0.1544
    1W        W46436  25.702   5.931   8.737 -0.0659 -0.4450 -0.1319
    1W        W46437   2.661  27.755   7.995  0.0289 -0.0520 -0.2254
    1W        W46438   9.895  21.330   8.047  0.1791  0.2780  0.0170
    1W        W46439  21.825   9.604   8.789  0.1040  0.0405 -0.0818
    1W        W46440  24.931   6.497   8.811  0.3506 -0.0364  0.3202
    1W        W46441  19.070   7.900   0.572  0.1935  0.5153  0.0148
    1W        W46442  19.614  12.560   1.370 -0.0232  0.1084  0.1925
    1W        W46443  22.075  18.153   8.237 -0.0174  0.1535 -0.1687
    1W        W46444  26.871   8.269   1.112  0.1238 -0.2965  0.1728
    1W        W46445  15.512  21.975   2.308 -0.2300 -0.0040 -0.2279
    1W        W46446  17.462  26.271   8.398  0.2007  0.2878  0.0525
    1W        W46447  22.239  13.448   8.143  0.0864 -0.1712 -0.0518
    1W        W46448   7.844  18.414   9.223  0.0072  0.3337  0.1610
    1W        W46449  21.031   1.981   4.073 -0.1033 -0.1636  0.1386
    1W        W46450  20.075  25.668   3.528 -0.1662  0.2003  0.2684
    1W        W46451  20.436   0.116   9.255 -0.2294  0.0775 -0.2124
    1W        W46452  22.609  23.050   0.102 -0.2457 -0.2273  0.0680
    1W        W46453  19.910   2.813   2.904  0.1167  0.2148  0.0033
    1W        W46454  29.639  24.125   0.053  0.1065 -0.3705 -0.1998
    1W        W46455  24.776   6.509   2.889 -0.0690 -0.0478  0.0597
    1W        W46456   7.614  22.083   6.812  0.0575 -0.1114  0.1695
    1W        W46457  20.021  12.316   6.640 -0.1257  0.1642 -0.0744
    1W        W46458  12.181  13.092   1.971 -0.0599 -0.1856  0.1015
    1W        W46459  19.857   1.430   0.166 -0.1291  0.0187 -0.2315
    1W        W46460   7.864  23.192   1.451  0.2217 -0.2084  0.1472
    1W        W46461   4.362   9.842   0.222 -0.3394  0.0223  0.0397
    1W        W46462   0.299  18.594   7.580  0.0452 -0.3040 -0.0809
    1W        W46463   1.242  11.667   7.246  0.0787 -0.0483 -0.2069
    1W        W46464   6.631  23.426   8.697  0.1825  0.0094  0.0954
    1W        W46465  19.216  18.087   0.290  0.3710  0.2817  0.4797
    1W        W46466   9.915  16.636   7.134 -0.1288  0.2358 -0.1079
    1W        W46467   6.756   1.207   8.857  0.1174 -0.1566 -0.2086
    1W        W46468  12.220  23.323   0.739 -0.0471  0.1770  0.4046
    1W        W46469  21.514  15.523   8.882 -0.3850  0.1360  0.2023
    1W        W46470  20.634   4.322   8.427  0.0472 -0.0885  0.1585
    1W        W46471  29.394  21.556   2.004 -0.2792 -0.1480  0.1978
    1W        W46472  25.094  25.916   0.640 -0.3368  0.1042 -0.0903
    1W        W46473   8.348  11.199   0.113  0.1382  0.2197 -0.5000
    1W        W46474  26.204  23.288   7.232  0.0403 -0.0104 -0.1363
    1W        W46475   7.868  22.926   0.564 -0.1761 -0.0233 -0.1007
    1W        W46476  13.704  19.212   2.538 -0.0159  0.2316 -0.2072
    1W        W46477  25.040   9.227   0.616  0.0827 -0.1589 -0.3514
    1W        W46478   0.425  25.822   7.220  0.1488  0.2042 -0.1230
    1W        W46479   0.048  12.297   2.378  0.3639  0.3153 -0.0840
    1W        W46480  20.444  20.284   5.925 -0.0206 -0.1887 -0.2412
    1W        W46481  23.812  15.132   0.005  0.0415  0.1621  0.0817
    1W        W46482  26.011  16.237   0.427 -0.1362 -0.4051 -0.0141
    1W        W46483  11.645  11.902   0.845 -0.0327 -0.1214  0.1329
    1W        W46484   9.537  17.856   0.726 -0.1427  0.2098 -0.0034
    1W        W46485  24.837   5.224   1.173 -0.1895 -0.3279  0.2779
    1W        W46486  24.339  24.439   2.846  0.4123  0.1504  0.2298
    1W        W46487   1.648  23.689   8.664 -0.3556  0.1262  0.0939
    1W        W46488   8.055  27.233   2.924  0.2209 -0.2050  0.1818
    1W        W46489   0.451  10.465   8.752 -0.1062  0.0514  0.1964
    1W        W46490  28.315  25.514   0.028 -0.0861 -0.1032  0.0529
    1W        W46491  21.271  13.772   0.772  0.2224 -0.1322  0.0861
    1W        W46492  24.741  25.165   8.109  0.1890  0.0884  0.4617
    1W        W46493  16.424  26.971   7.378  0.3765  0.0187 -0.2544
    1W        W46494  14.985   4.335   1.937  0.0859  0.0828 -0.0062
    1W        W46495  26.793  11.853   7.847 -0.0137 -0.2461 -0.1125
    1W        W46496  14.095   8.971   8.006  0.1216  0.0990  0.2541
    1W        W46497  12.484   8.763   3.107 -0.1364 -0.0654  0.0169
    1W        W46498  11.902   1.067   8.317  0.0395  0.1209  0.2840
    1W        W46499  17.537   1.380   3.568  0.1262 -0.0711  0.0024
    1W        W46500   3.109  19.326   1.814 -0.1649  0.0849  0.0003
    1W        W46501  10.453  25.372   0.199  0.2709  0.2514  0.1289
    1W        W46502   0.039  17.973   9.502  0.1664  0.0098 -0.1505
    1W        W46503   0.615  25.372   2.028  0.2564  0.0888  0.1354
    1W        W46504  20.990   8.370   0.800 -0.0455 -0.0550  0.1281
    1W        W46505  28.145  21.659   2.399  0.1216 -0.1806  0.1067
    1W        W46506  24.277   8.743   1.532  0.3028 -0.0729  0.3788
    1W        W46507  28.498   6.416   0.642 -0.1439  0.1496  0.0774
    1W        W46508   1.480  18.527   7.235  0.0599 -0.1108 -0.0707
    1W        W46509  15.414   8.676   1.165 -0.4294 -0.2686  0.1044
    1W        W46510  19.932  27.510   2.201 -0.3045 -0.0744 -0.0651
    1W        W46511  17.223  26.657   9.006 -0.1811 -0.0019 -0.0089
    1W        W46512   8.710   0.708   1.483 -0.1006  0.1100 -0.4891
    1W        W46513  14.244   6.579   0.835  0.0679  0.1981  0.1329
    1W        W46514   3.538  24.432   2.858 -0.1306  0.1659 -0.0663
    1W        W46515  29.467  19.127   0.996 -0.0630 -0.0311  0.1420
    1W        W46516  26.044  28.687   3.581 -0.1035  0.1170  0.1580
    1W        W46517  20.184  12.082   2.621 -0.4254  0.1291 -0.0790
    1W        W46518   1.362  27.722   6.377  0.0940 -0.2086 -0.0925
    1W        W46519   6.617  25.891   8.048 -0.1122  0.3211  0.0914
    1W        W46520  27.913  29.631   2.085 -0.1301  0.2085 -0.2737
    1W        W46521   3.685  23.027   8.281  0.0478 -0.0001  0.2311
    1W        W46522   6.210  24.795   7.764  0.0261 -0.0006 -0.1266
    1W        W46523   6.873   1.003   6.928 -0.0929 -0.3162 -0.2834
    1W        W46524  21.788  18.104   4.926  0.2707  0.3193  0.2355
    1W        W46525   9.953  11.616   2.137  0.3095  0.1800 -0.1597
    1W        W46526  19.630  16.801   9.327 -0.1359 -0.2161  0.2821
    1W        W46527   5.364   4.860   9.013  0.1152 -0.0769 -0.0988
    1W        W46528   9.405   5.543   3.769 -0.3318  0.1337  0.2095
    1W        W46529  14.632   7.369   8.702  0.3891 -0.0811 -0.1579
    1W        W46530  27.857  22.484   0.777 -0.4175 -0.1659 -0.0644
    1W        W46531  24.445  28.395   1.738 -0.1578 -0.0682  0.0863
    1W        W46532   9.140  19.234   0.929 -0.5062  0.1926 -0.0427
    1W        W46533   8.529  16.832   6.614  0.0609  0.1207 -0.3036
    1W        W46534  22.227  28.048   1.464  0.1271 -0.0240 -0.2314
    1W        W46535  17.191   7.693   0.965  0.0720 -0.0700 -0.2948
    1W        W46536   0.006  20.022   8.407 -0.3214  0.1180 -0.2346
    1W        W46537   6.622  27.283   0.817 -0.0849  0.0688  0.0508
    1W        W46538  19.053  24.763   8.464  0.0464  0.0431 -0.2220
    1W        W46539  24.388   9.724   9.438 -0.2947  0.1184 -0.0156
    1W        W46540  24.753  25.597   0.292 -0.3098 -0.0138 -0.3756
    1W        W46541  29.672  14.438   1.131  0.0410 -0.1086  0.1776
    1W        W46542  24.255   9.460   7.343 -0.2241  0.2218 -0.0455
    1W        W46543  22.973   4.746   2.458  0.0208  0.0370  0.0356
    1W        W46544  18.190  15.960   6.810  0.1488  0.0442 -0.2151
    1W        W46545  10.295  26.979   0.962 -0.1058 -0.2294  0.2597
    1W        W46546   2.499  16.807   8.842  0.0795  0.0359  0.2576
    1W        W46547  10.312  13.659   8.396 -0.2064 -0.0024 -0.0822
    1W        W46548   1.402  23.602   1.969  0.2641 -0.0306  0.0472
    1W        W46549  29.139  17.172   6.213 -0.1831  0.1236  0.0585
    1W        W46550  10.891  11.475   7.939  0.2121 -0.0971  0.0792
    1W        W46551  15.424  11.531   7.531  0.0427  0.0397  0.3158
    1W        W46552  29.559  20.573   6.839  0.0038 -0.1389  0.2331
    1W        W46553  20.493  28.854   1.320  0.1672 -0.0639 -0.1145
    1W        W46554  26.979   3.137   6.844  0.0659  0.3061  0.1728
    1W        W46555  12.238  20.576   6.417 -0.1894  0.1206 -0.1936
    1W        W46556  14.105   5.447   9.132  0.3272  0.1355  0.1170
    1W        W46557  28.310  28.054   9.482  0.0101 -0.5358  0.1725
    1W        W46558   9.297  18.368   9.000 -0.0755  0.2160 -0.0813
    1W        W46559   8.967  16.218   1.634  0.0335  0.0994 -0.1744
    1W        W46560   4.470   8.665   3.203  0.3750 -0.2565  0.2469
    1W        W46561  24.962  10.657   5.844  0.0167 -0.1554 -0.0636
    1W        W46562   0.886  29.104   0.008 -0.1517 -0.2799 -0.3472
    1W        W46563  21.408   2.829   8.516 -0.0312 -0.1541 -0.1624
    1W        W46564  14.155  20.308   1.431 -0.2085  0.1746 -0.0208
    1W        W46565  28.979   2.661   3.271  0.1040  0.0149  0.1406
    1W        W46566  11.579  17.131   8.037 -0.1523  0.0223  0.1252
    1W        W46567   3.774   4.702   2.745 -0.0958 -0.1316 -0.0466
    1W        W46568  12.146  22.192   0.922  0.0838  0.0563  0.2810
    1W        W46569  26.788  25.767   6.867  0.0347 -0.1756 -0.1740
    1W        W46570  22.052   0.583   9.520 -0.2561  0.1305  0.3484
    1W        W46571  11.324   5.500   0.415 -0.0618 -0.3424  0.3260
    1W        W46572  26.102  24.887   2.465  0.0159  0.2822  0.2885
    1W        W46573  28.576  19.985   7.609  0.1608  0.2098 -0.0916
    1W        W46574  28.085   2.578   9.096 -0.1841 -0.1137 -0.0761
    1W        W46575  22.247  17.100   9.151  0.0442  0.0074 -0.0116
    1W        W46576  22.135   6.606   7.750 -0.2986  0.2747 -0.0991
    1W        W46577  20.113   0.581   2.401  0.2488  0.0103  0.0768
    1W        W46578  25.260  22.017   5.818 -0.0039 -0.1722  0.0489
    1W        W46579  17.034  11.638   2.304 -0.1188 -0.0317 -0.2960
    1W        W46580  19.911   8.381   2.177  0.1928 -0.0180 -0.1270
    1W        W46581  22.811  15.486   1.156 -0.0153  0.2176 -0.2515
    1W        W46582   1.249  12.620   8.117  0.1992 -0.1325  0.0967
    1W        W46583  28.988  13.305   9.542  0.3530  0.1622 -0.0363
    1W        W46584  29.458   9.218   8.240  0.1225  0.0972 -0.0628
    1W        W46585  24.686   9.009   0.375  0.1428 -0.0579 -0.0330
    1W        W46586  25.180  15.538   0.363 -0.1408 -0.2360  0.2922
    1W        W46587   4.226  29.688   7.472  0.0373 -0.1676  0.1481
    1W        W46588  19.682   7.724   9.189  0.0323  0.0119 -0.1930
    1W        W46589   4.027  25.127   3.013  0.0299  0.1735  0.3249
    1W        W46590   0.177  23.772   1.285  0.0574 -0.2373  0.1073
    1W        W46591  14.626   6.370   8.068  0.2169  0.0731 -0.0148
    1W        W46592  16.568  21.470   6.886  0.0801  0.0403 -0.0725
    1W        W46593  17.017  17.993   7.520  0.1148  0.3424  0.0023
    1W        W46594   2.479   7.518   0.647 -0.2431 -0.0860 -0.2336
    1W        W46595   7.946   9.706   9.364 -0.0339 -0.1552 -0.0464
    1W        W46596  12.830  23.507   0.768 -0.0564 -0.0483 -0.2011
    1W        W46597  14.158  27.877   3.130  0.0536  0.2059 -0.1816
    1W        W46598  18.532  19.751   2.737  0.2639  0.2283 -0.0071
    1W        W46599  24.148   1.844   0.774 -0.0253 -0.1316 -0.3684
    1W        W46600   6.121   0.673   8.982 -0.0802 -0.0951  0.3009
    1W        W46601  20.218  10.111   1.223  0.2198 -0.0572 -0.2237
    1W        W46602   8.575  27.237   8.242  0.3435 -0.2707 -0.0129
    1W        W46603  25.570  21.175   8.986 -0.0274  0.0769  0.0208
    1W        W46604  28.165  12.614   7.895  0.3040 -0.0986  0.0938
    1W        W46605  16.457  11.186   0.608 -0.0849 -0.0475  0.0198
    1W        W46606  24.583   0.008   1.201 -0.0536  0.0406  0.0118
    1W        W46607  20.982   3.755   0.854  0.1392  0.0262 -0.2701
    1W        W46608  26.430  25.464   9.197 -0.1357 -0.0068  0.2548
    1W        W46609  12.458   7.921   1.771 -0.0499  0.2006 -0.3571
    1W        W46610  20.390  11.089   7.223 -0.1471  0.2249  0.3518
    1W        W46611   7.861   0.379   1.428  0.0449 -0.1359  0.0173
    1W        W46612  25.029  17.279   9.019 -0.1094 -0.1554  0.0655
    1W        W46613   9.681   0.299   8.597  0.1237 -0.2187  0.0930
    1W        W46614   4.016  23.417   0.285 -0.0399  0.1056  0.1459
    1W        W46615   5.254  18.113   0.584  0.1618  0.0837 -0.1053
    1W        W46616  27.264  28.238   0.480 -0.0705 -0.3948 -0.2355
    1W        W46617  25.539  25.819   7.790  0.3501 -0.0248  0.0353
    1W        W46618   8.134  16.889   1.154 -0.0351  0.3136 -0.1108
    1W        W46619  28.676  25.447   7.536  0.1905 -0.0098  0.1612
    1W        W46620  15.427   4.847   8.376  0.0374 -0.1536  0.2272
    1W        W46621   5.190  16.118   1.856 -0.0140  0.1186  0.2571
    1W        W46622  15.393   8.368   9.018 -0.2733 -0.0145  0.2355
    1W        W46623  22.779  10.356   6.525  0.4848  0.0603  0.1295
    1W        W46624  22.640  21.462   8.316 -0.1859 -0.1862 -0.1801
    1W        W46625   2.231   7.883   2.648  0.5572 -0.0139 -0.1587
    1W        W46626   3.215   6.870   0.379 -0.0040  0.0133  0.0835
    1W        W46627  21.658   3.471   2.713 -0.2332  0.2161 -0.1109
    1W        W46628   5.490  28.093   7.280  0.1597  0.0082 -0.1079
    1W        W46629  15.038  28.197   7.297  0.2559 -0.0192 -0.3391
    1W        W46630  26.946   0.076   2.282  0.4639  0.0708  0.0582
    1W        W46631  11.234   0.872   1.020 -0.2101 -0.0225  0.0674
    1W        W46632  13.567  14.994   1.717 -0.0393  0.0734 -0.1179
    1W        W46633  29.773   4.380   2.624  0.0461  0.0192  0.0495
    1W        W46634   1.476  12.082   2.686 -0.3290 -0.0629  0.0532
    1W        W46635   3.388  29.694   8.095 -0.0717 -0.0445  0.0335
    1W        W46636   7.037  12.945   8.870  0.2254  0.0482 -0.3296
    1W        W46637  26.811   8.769   6.561  0.3876  0.0121 -0.3609
    1W        W46638   3.332  10.771   6.560 -0.1105  0.1214  0.1412
    1W        W46639  27.942  24.947   9.367 -0.0302  0.1352 -0.2766
    1W        W46640  12.605  27.989   0.371 -0.0092  0.0768  0.1426
    1W        W46641  22.028   9.068   8.838  0.0538  0.1905  0.1503
    1W        W46642  17.984  16.811   1.610  0.0410  0.0103  0.0347
    1W        W46643  10.705  17.945   1.137  0.3625 -0.3386  0.3503
    1W        W46644  25.861  10.851   9.049  0.3220 -0.0484 -0.2043
    1W        W46645  18.775  22.778   9.318  0.1492  0.0700 -0.0578
    1W        W46646  18.728  14.521   1.865  0.1137  0.1028  0.2230
    1W        W46647  26.841   6.557   9.229 -0.2385  0.1582  0.0035
    1W        W46648   5.959  26.048   1.184 -0.1444  0.1980  0.0279
    1W        W46649  27.544   0.713   2.048 -0.0880  0.1397  0.0436
    1W        W46650  18.626  26.280   2.090 -0.0302 -0.1925 -0.0752
    1W        W46651   5.499   9.315   0.975  0.0183  0.0427  0.3624
    1W        W46652  13.453   8.337   2.174  0.4232  0.0994 -0.0313
    1W        W46653   6.137  26.990   7.329  0.2566 -0.0426 -0.1443
    1W        W46654  24.901   8.707   9.343  0.1675 -0.2442 -0.3760
    1W        W46655  27.284   2.150   2.707 -0.0149 -0.2130 -0.0443
    1W        W46656  19.599  27.211   2.794 -0.2842  0.1389  0.2120
    1W        W46657   2.792  28.953   2.396 -0.0013  0.2050 -0.0580
    1W        W46658  14.229   8.199   8.536  0.0514 -0.0682 -0.0618
    1W        W46659   9.023   8.122   3.159 -0.2251  0.0566 -0.0507
    1W        W46660   6.296  18.566   0.322  0.1883 -0.0055  0.0213
    1W        W46661   6.247   4.542   1.589 -0.0857 -0.0743 -0.1286
    1W        W46662  14.797  21.656   0.149  0.2552 -0.2243  0.1499
    1W        W46663  24.925  27.328   2.183 -0.2147 -0.1760 -0.2511
    1W        W46664   8.970  15.268   8.456 -0.3487 -0.0368 -0.0020
    1W        W46665  24.003   8.269   9.429 -0.0523  0.3456  0.1832
    1W        W46666   4.349  23.758   0.355  0.3398 -0.0928  0.1015
    1W        W46667  11.144  16.355   8.404  0.1502 -0.0856 -0.2014
    1W        W46668  13.861   0.747   1.230 -0.3003 -0.2585 -0.3610
    1W        W46669   3.324  25.610   2.765 -0.2041 -0.0342 -0.1648
    1W        W46670  17.333  20.869   7.139 -0.1828  0.2836 -0.0145
    1W        W46671   9.766  10.768   2.453  0.1542 -0.0149 -0.2795
    1W        W46672  10.109   2.042   7.553  0.1401  0.0630  0.2088
    1W        W46673  16.564   5.891   7.673  0.0597 -0.2716  0.0864
    1W        W46674   9.496  25.922   2.086 -0.2443  0.1389  0.0484
    1W        W46675  24.406   7.995   9.491 -0.3025  0.0285  0.0329
    1W        W46676   3.799  12.210   9.151 -0.2663 -0.0048  0.5713
    1W        W46677  14.348  24.800   1.336 -0.1586  0.0915 -0.2133
    1W        W46678   2.008   0.098   0.071 -0.1008  0.0511  0.0991
    1W        W46679  21.377  16.465   8.004 -0.1356  0.2052 -0.1276
    1W        W46680   5.874   9.787   1.555 -0.1100  0.2641  0.2993
    1W        W46681  22.933  19.166   0.593  0.0959  0.1599  0.0666
    1W        W46682  26.827   5.104   7.164 -0.0790  0.0048  0.2129
    1W        W46683  18.728   9.312   2.265 -0.0892 -0.2235  0.0950
    1W        W46684   4.849   3.410   1.304  0.2241 -0.1820 -0.0599
    1W        W46685  18.706  20.456   6.748  0.4226  0.0209  0.1514
    1W        W46686   7.328  17.829   2.599 -0.1461  0.3210 -0.0219
    1W        W46687  28.957   8.561   7.699 -0.1727 -0.2414  0.0050
    1W        W46688  24.087  27.581   8.618 -0.1045 -0.4043 -0.0851
    1W        W46689  17.381  17.918   8.981  0.1434 -0.1093  0.0750
    1W        W46690   3.671   6.068   6.574 -0.2487  0.0500 -0.0937
    1W        W46691  27.421   8.328   6.412 -0.0729  0.1104 -0.2329
    1W        W46692  29.554   5.766   1.284 -0.3020  0.0914 -0.1118
    1W        W46693   6.391   7.611   8.566  0.0389  0.2816 -0.2669
    1W        W46694  14.481  25.611   7.651  0.2891 -0.1553 -0.0222
    1W        W46695  23.619  14.976   0.455 -0.0216  0.5619 -0.0171
    1W        W46696  12.078  25.677   8.799  0.0301 -0.1845  0.1346
    1W        W46697   0.293  11.041   2.005 -0.2075 -0.2190 -0.1144
    1W        W46698   3.801   0.076   0.197 -0.2208  0.0083  0.1394
    1W        W46699  25.541  29.484   6.886  0.0338  0.3927  0.1432
    1W        W46700  21.051  26.741   7.063 -0.2246 -0.6251  0.0159
    1W        W46701   1.034  19.164   8.381  0.0963  0.2219 -0.1663
    1W        W46702  21.133  20.804   7.632  0.1618  0.4287 -0.1834
    1W        W46703  26.550  23.713   6.331 -0.0972  0.0318 -0.1907
    1W        W46704  11.430  27.340   0.316 -0.0512  0.3819  0.2015
    1W        W46705   9.888  16.228   9.408 -0.0790 -0.1432  0.2648
    1W        W46706  22.762  20.666   6.886 -0.3142  0.1607 -0.0443
    1W        W46707  19.213  14.423   0.211  0.1490  0.2755  0.0231
    1W        W46708  24.485  24.810   8.863  0.0599 -0.1861  0.2287
    1W        W46709  11.276  11.688   1.080  0.1256  0.0838 -0.1451
    1W        W46710  15.206   7.043   7.368  0.3464  0.1283 -0.2505
    1W        W46711  14.940  16.734   8.885 -0.1353 -0.0023  0.0237
    1W        W46712   6.016   6.800   3.203 -0.2937  0.3027 -0.2012
    1W        W46713   2.160  21.588   1.523  0.2767  0.2628 -0.6502
    1W        W46714   0.119   1.907   1.005  0.1370  0.1937  0.0287
    1W        W46715  24.953  11.520   1.682 -0.2955  0.1319  0.1481
    1W        W46716   6.303  29.544   9.063  0.0590 -0.0225  0.0467
    1W        W46717  15.833  11.888   0.418  0.0753  0.3030 -0.1062
    1W        W46718  25.283  18.932   8.005  0.0024  0.1053 -0.0348
    1W        W46719  21.352   7.221   2.825  0.4141  0.1772  0.1329
    1W        W46720  13.327  26.890   2.645 -0.3334 -0.3287  0.0904
    1W        W46721   9.507  24.765   7.084 -0.5125  0.0340  0.0482
    1W        W46722  15.955   0.073   8.336 -0.2725 -0.0551  0.2131
    1W        W46723  11.188  11.076   9.322  0.4198 -0.1453 -0.0767
    1W        W46724  11.883   0.475   1.517 -0.1253 -0.0675  0.0757
    1W        W46725  26.472   9.812   7.800  0.1238 -0.2020  0.2500
    1W        W46726  14.984   8.514   7.220  0.0064  0.0905  0.1041
    1W        W46727  28.491   3.231   1.361 -0.1699 -0.0981  0.1380
    1W        W46728  27.456  10.103   0.354  0.0640 -0.0210  0.0046
    1W        W46729  27.774  23.182   2.120  0.0428 -0.0445 -0.0414
    1W        W46730  13.042  22.937   1.859 -0.0594 -0.1204  0.0609
    1W        W46731   5.015   0.244   0.380  0.1799 -0.5017 -0.0973
    1W        W46732  22.313  16.592   1.616  0.2046  0.4440 -0.0097
    1W        W46733   6.212  24.503   2.064 -0.0725 -0.1228 -0.0123
    1W        W46734  27.906  19.743   6.928  0.1748  0.0125 -0.1005
    1W        W46735   7.175  12.088   7.360 -0.2984 -0.0307 -0.0246
    1W        W46736   5.441  24.909   1.114 -0.1045 -0.1697  0.1325
    1W        W46737   6.377  14.114   8.108 -0.0591  0.0370 -0.2040
    1W        W46738   5.005   5.837   9.105  0.0089  0.1454 -0.0363
    1W        W46739  21.708  14.716   6.991  0.0613 -0.4659 -0.5145
    1W        W46740   2.407   8.405   2.350 -0.1774 -0.1753 -0.1599
    1W        W46741  28.427  20.186   8.036  0.1053  0.2745  0.0615
    1W        W46742  15.243  23.696   1.656  0.0130  0.2913  0.1719
    1W        W46743   8.376  10.945   0.549  0.2356 -0.1815  0.0566
    1W        W46744  15.389  11.583   9.078  0.3803  0.2847 -0.0425
    1W        W46745   3.295   0.568   2.944 -0.2457  0.0797  0.1265
    1W        W46746   9.464   1.190   8.156  0.1241 -0.3307 -0.0505
    1W        W46747   7.028  29.615   1.045  0.1083  0.1184 -0.1026
    1W        W46748  14.730  24.462   1.528  0.3109 -0.0103  0.3697
    1W        W46749   1.581  14.823   0.334  0.1805  0.2206  0.1424
    1W        W46750  17.543   6.375   3.705  0.1308  0.0368 -0.3564
    1W        W46751  22.598  28.977   7.567 -0.1451 -0.1055  0.0841
    1W        W46752  11.709   4.818   3.730  0.2334 -0.0946 -0.2751
    1W        W46753   4.809  19.254   8.862  0.0889 -0.0927  0.0997
    1W        W46754  27.100  23.698   2.143 -0.0144  0.2059  0.0726
    1W        W46755  22.233   0.105   0.139 -0.1917 -0.0844  0.0445
    1W        W46756   8.464   3.433   1.814 -0.2524  0.2826 -0.2215
    1W        W46757  13.650   5.436   0.012 -0.0127 -0.0057  0.0281
    1W        W46758   4.542   3.905   8.794  0.0895 -0.4999 -0.0086
    1W        W46759  15.817  11.474   2.129  0.0644  0.0428  0.1512
    1W        W46760   9.219   5.680   3.339 -0.3442 -0.1480 -0.0380
    1W        W46761  11.635  24.697   7.184  0.0697 -0.0978  0.0081
    1W        W46762  16.804   7.010   0.167 -0.0937  0.1386 -0.0010
    1W        W46763  20.959  22.968   0.632  0.1518 -0.0108  0.4707
    1W        W46764   2.975   3.006   1.302  0.0174  0.1286  0.1990
    1W        W46765   8.121  22.444   0.635 -0.1269 -0.4512  0.3490
    1W        W46766   7.956  21.735   6.809  0.0018 -0.2008  0.1122
    1W        W46767   8.239  23.452   8.819  0.2794 -0.3603  0.0336
    1W        W46768  29.622  13.617   7.525 -0.1838 -0.0373 -0.1466
    1W        W46769   8.519   3.470   9.544  0.0015 -0.1699 -0.0809
    1W        W46770  11.715  27.362   0.849 -0.1348 -0.0724 -0.0799
    1W        W46771   7.525  10.649   2.179 -0.0558  0.0361  0.0041
    1W        W46772   0.117  26.934   7.298 -0.3840  0.2316  0.0804
    1W        W46773  16.328  27.606   9.174 -0.2339 -0.0728  0.0471
    1W        W46774  12.234  19.153   0.046 -0.0203 -0.0134 -0.1416
    1W        W46775  17.075   9.292   3.087  0.2193  0.1905  0.0584
    1W        W46776  13.777   9.044   7.510  0.0759  0.1272 -0.1897
    1W        W46777  13.346  12.140   8.451  0.1396 -0.0682 -0.2176
    1W        W46778  28.663  17.693   7.303 -0.0720  0.1847 -0.0264
    1W        W46779  16.729  13.894   6.585 -0.2636  0.0946 -0.1836
    1W        W46780   8.232  15.819   0.438 -0.1388  0.0626  0.2981
    1W        W46781  10.610  27.755   7.659  0.0814  0.0307 -0.0078
    1W        W46782  20.671  15.333   0.830  0.6022 -0.1247  0.0735
    1W        W46783  24.300  25.280   7.062 -0.0677  0.0837 -0.0714
    1W        W46784  13.455  21.642   1.032  0.1864 -0.2626  0.0550
    1W        W46785   4.679  20.880   8.562 -0.0432  0.1545 -0.1792
    1W        W46786  18.792  26.861   7.117  0.2631  0.4000  0.3776
    1W        W46787   9.951  29.417   1.309  0.2123  0.0725  0.1465
    1W        W46788  13.280  14.155   2.093 -0.0297 -0.0883  0.0437
    1W        W46789   4.062   0.618   0.451 -0.1233  0.0888  0.1081
    1W        W46790   8.274  13.010   1.600  0.2055  0.0910 -0.0254
    1W        W46791  20.220  11.944   7.041 -0.1651 -0.0893 -0.3931
    1W        W46792   9.630  28.240   8.493  0.1868  0.1085  0.1320
    1W        W46793  17.353  21.962   1.305 -0.0136 -0.1241 -0.0487
    1W        W46794  29.619  21.885   7.423 -0.1927 -0.1711 -0.0892
    1W        W46795  12.192  28.030   6.186  0.0478 -0.1896  0.0941
    1W        W46796  26.862  27.546   8.694  0.0012  0.1197  0.1032
    1W        W46797  20.059  13.761   9.510 -0.2013 -0.1272  0.0293
    1W        W46798  24.572  17.093   6.363  0.0622 -0.0901  0.2563
    1W        W46799  15.820   4.362   1.188 -0.2252 -0.1031 -0.2529
    1W        W46800  10.814  26.501   2.941  0.0797  0.1331 -0.3458
    1W        W46801  13.234  10.710   1.514  0.3147 -0.3215  0.1215
    1W        W46802  29.046   8.218   0.014  0.1125  0.0413 -0.0689
    1W        W46803  17.194   4.979   7.938 -0.0064  0.1292 -0.0910
    1W        W46804  12.683   8.394   2.730  0.0688 -0.0512  0.1045
    1W        W46805   8.339  19.945   0.085  0.4155  0.0747  0.1496
    1W        W46806  29.708  20.500   8.938 -0.3478  0.2734  0.1012
    1W        W46807  16.310  22.335   8.945  0.0515 -0.1391 -0.0982
    1W        W46808  26.127  13.801   7.280  0.2301  0.0604  0.1696
    1W        W46809  24.437  17.973   7.831  0.2685 -0.2917  0.0535
    1W        W46810  16.563  27.465   7.520 -0.0179 -0.0143  0.1557
    1W        W46811  26.061  28.563   0.438  0.0762  0.0254 -0.0853
    1W        W46812  17.815  21.405   6.503 -0.2160 -0.0137 -0.0337
    1W        W46813  12.168  17.035   2.116  0.3270  0.1815  0.1810
    1W        W46814   5.590   5.770   7.487  0.0729  0.1795  0.0307
    1W        W46815  26.916  23.565   1.641  0.3296  0.0537 -0.0612
    1W        W46816  17.710  22.239   2.395 -0.2394 -0.1435  0.1697
    1W        W46817   9.349  15.290   7.227 -0.0609 -0.2571 -0.2761
    1W        W46818   9.447  29.161   7.659 -0.2651  0.0193 -0.0193
    1W        W46819  12.491  24.241   0.092  0.1533  0.1158  0.1010
    1W        W46820  23.402   1.777   7.263 -0.1183  0.1563 -0.0018
    1W        W46821  11.837  15.888   8.166  0.4144  0.2998 -0.0582
    1W        W46822  19.291  29.121   0.832  0.1471 -0.1024 -0.3507
    1W        W46823  20.987  27.384   1.600  0.0993  0.1876  0.1524
    1W        W46824  29.403  25.903   8.278  0.1093 -0.1484  0.0310
    1W        W46825   7.762  16.347   8.113  0.3004  0.0975  0.2056
    1W        W46826  14.099  25.364   6.547  0.2903 -0.0849  0.2729
    1W        W46827   0.639   9.546   8.688  0.2246  0.0404 -0.0465
    1W        W46828  17.177  21.439   6.672  0.5329 -0.0443  0.1147
    1W        W46829  16.102  17.060   7.350 -0.2211 -0.2847  0.1130
    1W        W46830   1.244  28.060   6.030 -0.1517 -0.1626  0.3770
    1W        W46831   7.919  22.821   9.426  0.2925  0.1058  0.4004
    1W        W46832  27.922  28.209   7.634 -0.0269  0.0729 -0.1307
    1W        W46833  24.909   6.853   1.621 -0.0253 -0.0736 -0.2106
    1W        W46834  26.635   3.072   9.045 -0.0342  0.0034  0.4216
    1W        W46835  24.730   6.253   1.888  0.3024 -0.0057 -0.0763
    1W        W46836  24.035  26.891   1.998 -0.0254 -0.0421  0.2950
    1W        W46837  15.855   9.985   2.503 -0.0491 -0.1451 -0.1437
    1W        W46838  21.913  13.993   7.043  0.1719  0.0260 -0.1738
    1W        W46839  26.152   6.180   2.435 -0.1409 -0.0034  0.1317
    1W        W46840   1.570   4.185   9.312 -0.0909  0.1424  0.1310
    1W        W46841  11.094  16.045   7.591  0.0471 -0.1825 -0.0172
    1W        W46842  18.527   4.064   0.735  0.0539  0.1523 -0.2481
    1W        W46843  27.697  13.911   8.026  0.1091  0.0389  0.0285
    1W        W46844  10.804  13.609   2.078 -0.0436 -0.1448 -0.0009
    1W        W46845  10.964  21.557   8.732 -0.2699  0.0466  0.0763
    1W        W46846  29.745  28.329   2.041 -0.2002 -0.0664 -0.2796
    1W        W46847   9.889   0.638   0.790 -0.0855 -0.1539  0.5354
    1W        W46848  22.547  13.874   8.305 -0.2948 -0.1429 -0.1032
    1W        W46849  27.527   1.952   3.579  0.0910  0.1551 -0.0136
    1W        W46850  12.099   6.286   3.054  0.0195 -0.3811  0.0709
    1W        W46851  29.786  24.083   6.943 -0.3083 -0.1957  0.2939
    1W        W46852  27.295   5.828   1.815  0.2879  0.1133  0.2489
    1W        W46853   7.603   5.821   7.510  0.1282 -0.2754 -0.2376
    1W        W46854  10.675  18.705   1.906  0.1212  0.2142 -0.0273
    1W        W46855   3.576   2.303   7.526 -0.0891  0.3697 -0.1107
    1W        W46856  27.378  24.586   0.812 -0.1031 -0.2484  0.0608
    1W        W46857  23.843  12.133   9.092  0.1135 -0.0537 -0.1002
    1W        W46858   1.781  16.841   8.191  0.0849  0.1123 -0.0911
    1W        W46859   3.673  17.447   0.776  0.0968  0.1203 -0.1699
    1W        W46860  25.292   9.113   6.959 -0.0335  0.0111 -0.5564
    1W        W46861   8.987  23.331   9.393 -0.3551  0.0102 -0.2052
    1W        W46862  15.745  26.975   8.035 -0.0417  0.3045 -0.2660
    1W        W46863  16.301   2.824   7.047 -0.0385 -0.2581 -0.0194
    1W        W46864  24.371  25.538   8.131 -0.0026  0.1600  0.3047
    1W        W46865  27.709  25.888   1.721 -0.0537  0.2065  0.0188
    1W        W46866  24.253  12.110   6.560 -0.0343 -0.2444 -0.1700
    1W        W46867  11.136   4.262   2.993 -0.1759  0.4726 -0.2463
    1W        W46868  21.146  20.388   1.697  0.2655 -0.1790  0.4599
    1W        W46869  11.512  21.969   7.356 -0.0937  0.0363 -0.1445
    1W        W46870   1.542  21.933   0.938 -0.0500  0.0127 -0.1672
    1W        W46871  25.073  19.639   8.235  0.0438  0.1053  0.0202
    1W        W46872  15.086  21.306   0.288  0.2687 -0.2300  0.3047
    1W        W46873  19.753  28.537   1.336  0.0855 -0.2626 -0.1894
    1W        W46874   7.361  10.247   7.066 -0.2205 -0.1067 -0.1447
    1W        W46875   5.471  22.389   0.871 -0.0223 -0.0945 -0.0249
    1W        W46876  18.390   2.591   8.142  0.0107  0.0512 -0.5255
    1W        W46877   7.798   9.038   0.628 -0.0463  0.1530  0.1365
    1W        W46878  17.609  17.109   1.411  0.2046  0.0212 -0.4400
    1W        W46879   3.275  24.453   0.956  0.2025 -0.6783  0.0396
    1W        W46880  13.116  11.171   1.950 -0.3102  0.3274 -0.3188
    1W        W46881  15.978   7.869   8.143  0.1437  0.1031  0.1648
    1W        W46882   7.735  18.353   1.238  0.0307  0.0733 -0.2670
    1W        W46883  28.921  12.022   7.606 -0.2321 -0.1371  0.1805
    1W        W46884  16.941  25.355   9.257 -0.3990  0.0094 -0.2861
    1W        W46885   6.097  22.924   7.501 -0.0332  0.1499  0.1480
    1W        W46886  27.531  27.531   2.466 -0.0645  0.2194  0.0814
    1W        W46887  18.448   6.789   3.029 -0.4085  0.0197  0.0294
    1W        W46888  25.829  11.451   8.086 -0.2350  0.1009  0.0991
    1W        W46889  10.968  13.355   7.106  0.1307 -0.0620  0.2769
    1W        W46890  13.490   1.461   0.770  0.0237 -0.0576  0.3601
    1W        W46891  20.408  25.713   1.709  0.0810  0.2484 -0.0816
    1W        W46892  12.274  21.643   0.529  0.1650  0.0563  0.1991
    1W        W46893   1.759  13.122   2.669  0.0719 -0.0520  0.1774
    1W        W46894  13.209  13.202   1.968  0.2776  0.1504  0.2851
    1W        W46895  21.503  12.038   7.683 -0.0700 -0.2419 -0.2403
    1W        W46896  24.824   9.026   1.564 -0.0017  0.2590 -0.1607
    1W        W46897  23.704   6.471   0.186  0.2432  0.2918 -0.2862
    1W        W46898  16.060  13.921   7.124 -0.0480  0.2922 -0.3471
    1W        W46899  29.674  16.262   2.025 -0.2108 -0.3502  0.1438
    1W        W46900  27.712  22.443   6.715  0.2509  0.2603  0.2180
    1W        W46901  22.424   9.609   7.207  0.0237 -0.2702  0.0564
    1W        W46902  29.308  26.214   7.331  0.3717  0.2166 -0.1424
    1W        W46903  16.782  15.461   8.166 -0.0601  0.1215 -0.1791
    1W        W46904  15.201  19.572   7.294 -0.0948 -0.3996  0.0739
    1W        W46905   1.155   5.817   1.623  0.0138  0.2911 -0.0398
    1W        W46906  25.964  16.187   8.932  0.0721 -0.2314  0.3235
    1W        W46907  11.810  13.092   9.143 -0.1009  0.2167 -0.2823
    1W        W46908  12.578  19.249   6.648  0.0398  0.1060  0.1042
    1W        W46909  18.061  28.861   6.992 -0.1666  0.0149  0.4593
    1W        W46910  27.741   8.593   8.270  0.0294  0.0771  0.1789
    1W        W46911  19.040  20.589   7.193  0.0665  0.0797 -0.0298
    1W        W46912  20.665  13.237   6.024  0.1998 -0.2491 -0.1133
    1W        W46913   5.391   6.143   7.775  0.2312  0.3113 -0.4677
    1W        W46914  21.358  21.785   6.538 -0.0957 -0.2121  0.4102
    1W        W46915  12.417  17.839   1.752 -0.1146  0.1454  0.0295
    1W        W46916  26.856  27.850   9.164 -0.2515 -0.1646 -0.0156
    1W        W46917  14.005  25.098   9.400  0.4449 -0.0051  0.0571
    1W        W46918  13.983  22.559   6.521 -0.0378  0.4165  0.1752
    1W        W46919   9.891   3.481   3.498 -0.0170 -0.0953 -0.0359
    1W        W46920  15.747  20.205   2.499  0.0365  0.1014  0.0165
    1W        W46921   5.567   8.256   2.595  0.1530  0.0776  0.3308
    1W        W46922   7.211  21.755   8.514  0.1021 -0.0312  0.0201
    1W        W46923  22.851  12.096   6.352  0.1672 -0.0852 -0.0215
    1W        W46924   3.201   0.313   6.694  0.2213  0.2061 -0.0221
    1W        W46925   3.758   9.253   8.990  0.0954  0.3072 -0.0098
    1W        W46926  27.721  12.717   7.531  0.2027  0.0190 -0.0728
    1W        W46927   5.633  27.414   1.343 -0.2707  0.1542  0.1610
    1W        W46928   0.761  15.633   9.186  0.0694  0.1701 -0.0700
    1W        W46929  29.157   3.358   0.203 -0.0021  0.3055  0.2120
    1W        W46930   8.943  15.761   9.539 -0.1521  0.3163 -0.1816
    1W        W46931  24.876  22.176   9.543 -0.0291  0.0513  0.1473
    1W        W46932  22.554   2.992   1.832 -0.1045 -0.0159  0.0905
    1W        W46933   4.929  12.732   8.422  0.1355  0.1133 -0.0807
    1W        W46934  28.470  25.606   8.849  0.1420 -0.2995  0.0347
    1W        W46935   8.047  29.097   7.705 -0.2211  0.1912  0.0154
    1W        W46936   5.676   9.472   1.930  0.0443  0.1036  0.2035
    1W        W46937  18.418   0.571   9.466  0.2143 -0.3478  0.1692
    1W        W46938   0.818  28.043   7.293  0.0407 -0.1604  0.3252
    1W        W46939  20.885  18.181   7.428 -0.2222  0.1056  0.0605
    1W        W46940  27.577  28.662   8.904  0.2853 -0.0525  0.1619
    1W        W46941  24.928   9.967   8.057  0.2219 -0.1336  0.2854
    1W        W46942  28.552   8.277   7.656  0.2529  0.1021 -0.1098
    1W        W46943   5.647  22.502   6.642 -0.2187  0.1309 -0.3704
    1W        W46944   3.667  27.919   3.123  0.0677  0.1360  0.0403
    1W        W46945  16.219  10.131   8.648 -0.0648 -0.2670  0.1571
    1W        W46946   0.249  22.222   0.223  0.0063  0.2199  0.2014
    1W        W46947   9.766  22.963   0.372 -0.0077 -0.0633 -0.2098
    1W        W46948  16.439   4.049   7.948  0.0603 -0.1144  0.0760
    1W        W46949  28.585  23.671   0.601 -0.2165 -0.1287 -0.1378
    1W        W46950  18.558  12.649   6.964  0.0389 -0.3719  0.0177
    1W        W46951  11.435   8.847   8.231  0.1164  0.0150 -0.0967
    1W        W46952  29.708  18.308   8.624  0.0119  0.2467  0.0442
    1W        W46953   2.093  21.739   2.071 -0.4382 -0.0020  0.1308
    1W        W46954  18.510  22.275   1.862 -0.0105 -0.0970  0.0885
    1W        W46955   5.403   7.523   0.856  0.0507 -0.1663  0.2895
    1W        W46956  12.294  15.187   1.804 -0.2568 -0.3349  0.0141
    1W        W46957  29.047  27.739   1.972  0.1612 -0.0454 -0.2007
    1W        W46958  22.368   1.356   8.648  0.5154 -0.2115  0.1496
    1W        W46959  14.669  22.168   9.248 -0.0148  0.0056 -0.1467
    1W        W46960  26.115  24.025   6.353 -0.1615 -0.2530  0.5025
    1W        W46961  15.287   8.280   1.907  0.0178  0.2714  0.4993
    1W        W46962   1.734  28.208   5.825 -0.0901 -0.1017  0.0650
    1W        W46963   9.175  26.029   2.477  0.0332  0.0349  0.1748
    1W        W46964  25.473  19.081   7.475  0.0792  0.0469 -0.0453
    1W        W46965  29.355   5.194   8.198  0.0629  0.2621  0.0545
    1W        W46966   9.519  26.321   8.817 -0.0244 -0.0954  0.1610
    1W        W46967   9.455  18.860   0.885  0.2572 -0.1603  0.2718
    1W        W46968   4.686   0.376   8.697  0.1552  0.2214  0.0550
    1W        W46969  21.406  15.187   7.684  0.0387 -0.2715  0.1365
    1W        W46970   9.040   0.388   1.216  0.0673  0.0450  0.1696
    1W        W46971  13.456  13.697   0.124 -0.0695 -0.2672  0.3702
    1W        W46972  11.048  16.713   8.762 -0.1534 -0.1503  0.1390
    1W        W46973  12.234  28.176   9.143  0.1259  0.0989  0.0297
    1W        W46974   2.634  27.576   6.658  0.2488 -0.1698 -0.1348
    1W        W46975  26.262  20.311   7.418 -0.0450 -0.2017 -0.1828
    1W        W46976  29.542   3.380   6.318  0.0363  0.0886 -0.1162
    1W        W46977  12.485  26.565   0.017 -0.0704  0.0203  0.0957
    1W        W46978  22.705  21.536   6.971  0.5109  0.5290  0.1422
    1W        W46979  13.624  20.849   0.845  0.1786  0.2364  0.1775
    1W        W46980  21.723  21.693   9.196 -0.1904 -0.0996 -0.0516
    1W        W46981  15.539  12.732   0.828  0.0444 -0.1878 -0.0759
    1W        W46982  22.094   3.627   2.394  0.0571  0.0658 -0.1439
    1W        W46983   0.008  14.990   1.380  0.1537  0.1840 -0.2688
    1W        W46984  18.952  12.628   2.229 -0.1569  0.1080 -0.1621
    1W        W46985  18.534  25.793   0.870 -0.1816  0.0975 -0.2484
    1W        W46986  13.201  29.455   7.722 -0.0618  0.0567  0.0735
    1W        W46987  10.563  24.595   0.425 -0.0523  0.0139 -0.3580
    1W        W46988   7.844  12.016   9.387  0.1023 -0.2384  0.2273
    1W        W46989   5.076   1.773   8.146 -0.1416 -0.2798 -0.1910
    1W        W46990  27.313  26.656   1.425  0.0017  0.1645 -0.1338
    1W        W46991  20.902  28.248   3.013  0.1988  0.0042  0.3333
    1W        W46992  14.504  29.564   7.396  0.1791 -0.2322 -0.1023
    1W        W46993  13.653  21.763   0.551  0.1227 -0.3893  0.1016
    1W        W46994  23.464  10.298   8.806  0.5106  0.0797  0.0248
    1W        W46995  13.804   3.295   8.697 -0.2903  0.0933 -0.3270
    1W        W46996  14.671  23.674   8.395  0.1141 -0.0254 -0.1055
    1W        W46997  22.993  27.921   9.052 -0.2080  0.1899  0.0164
    1W        W46998  14.588   7.515   2.755 -0.0994  0.0208 -0.0791
    1W        W46999   0.168  16.213   8.961  0.0447 -0.1779  0.0477
    1W        W47000  19.831  28.077   6.758  0.2288  0.1641  0.1752
    1W        W47001  12.186  24.151   0.470 -0.2262  0.1493  0.4014
    1W        W47002   7.403  10.562   1.316 -0.0465  0.2229  0.1537
    1W        W47003  10.937  15.376   0.457  0.1226  0.2487  0.0337
    1W        W47004   4.137  11.599   8.076 -0.2909  0.2142  0.3343
    1W        W47005   2.575   9.760   0.634  0.2373  0.0020 -0.1299
    1W        W47006  23.219   1.607   1.464  0.0175  0.0433  0.3025
    1W        W47007   5.391   4.763   7.939 -0.2293  0.0422  0.1513
    1W        W47008  15.344  17.787   2.540 -0.1181 -0.3707  0.2771
    1W        W47009   9.167  22.461   8.911 -0.2576  0.0044 -0.4974
    1W        W47010  11.195   9.244   9.014 -0.1858 -0.1821 -0.0241
    1W        W47011   4.798  15.443   9.154  0.0065  0.2447 -0.5845
    1W        W47012  22.956  21.290   9.553 -0.2229 -0.0138  0.0876
    1W        W47013  22.438  16.835   6.427  0.0229  0.1375  0.3002
    1W        W47014   4.825  15.263   8.626 -0.0462  0.0021  0.0948
    1W        W47015   9.454   1.171   1.362  0.3805  0.3158  0.1240
    1W        W47016  17.652   3.393   8.520  0.3113 -0.0393 -0.0029
    1W        W47017  24.125  24.044   1.008 -0.1137 -0.1767  0.1768
    1W        W47018  22.591  23.839   1.923 -0.3378 -0.1403  0.0125
    1W        W47019  28.848  22.460   7.809  0.3005  0.0041  0.0790
    1W        W47020  22.112  26.589   9.176  0.2853 -0.1490 -0.2381
    1W        W47021  13.725  12.266   2.856 -0.5009 -0.3966  0.3213
    1W        W47022  19.946   1.005   3.332 -0.2946 -0.4043  0.0735
    1W        W47023   2.981  22.958   2.880 -0.0861 -0.1402 -0.1255
    1W        W47024  24.614   1.019   0.814  0.0181  0.2460  0.4296
    1W        W47025  29.240  22.292   7.587  0.1019 -0.1181 -0.1710
    1W        W47026  16.830  10.001   7.449  0.0291  0.2732  0.0073
    1W        W47027  24.738  26.533   2.493 -0.1281 -0.2143  0.0903
    1W        W47028  22.952  21.071   7.086 -0.2907 -0.2905 -0.0858
    1W        W47029   4.061  15.599   1.081  0.2057 -0.0939  0.2480
    1W        W47030  25.019  26.210   2.731 -0.0693 -0.0050  0.1838
    1W        W47031  10.762  24.099   7.139 -0.2167 -0.1503  0.2258
    1W        W47032  20.081  29.239   7.986  0.2610 -0.2500 -0.3562
    1W        W47033  23.051  14.574   7.863  0.1774 -0.0909 -0.1258
    1W        W47034  15.419  25.778   0.969  0.1533  0.0463  0.0676
    1W        W47035  14.922   8.657   1.995  0.0855  0.2331  0.1459
    1W        W47036  10.777  13.131   7.804 -0.1144  0.1186  0.1667
    1W        W47037   9.025  27.198   9.260  0.0272  0.2225 -0.4492
    1W        W47038  15.517  22.967   0.536  0.1685  0.0293 -0.0560
    1W        W47039  15.988  21.276   6.804 -0.4166 -0.0253 -0.2232
    1W        W47040  26.751   7.992   1.673  0.0200 -0.2424 -0.1948
    1W        W47041   7.890  19.294   0.102 -0.1394 -0.2553 -0.3568
    1W        W47042  28.687   7.031   7.669  0.0438 -0.1045 -0.0103
    1W        W47043  20.438   0.995   2.544 -0.0123 -0.2255 -0.2792
    1W        W47044  22.880   0.810   7.864 -0.3082 -0.0628 -0.0746
    1W        W47045  28.530  15.607   0.786 -0.1970  0.1450  0.0143
    1W        W47046  26.512   5.398   2.288 -0.2530 -0.0369 -0.1543
    1W        W47047  13.450  10.609   7.278 -0.0815  0.1662  0.2175
    1W        W47048  18.326  27.453   7.821 -0.0335 -0.4192  0.0092
    1W        W47049  29.507  21.517   9.093 -0.0428 -0.0250 -0.0589
    1W        W47050  15.314   8.273   9.505 -0.3133  0.1473  0.0575
    1W        W47051   9.801   2.376   0.557  0.1653  0.0093 -0.4080
    1W        W47052  16.169   6.084   8.904  0.0526 -0.2441 -0.0817
    1W        W47053  22.930   9.408   8.638  0.4294 -0.2537 -0.1032
    1W        W47054  23.713  15.613   6.011  0.2784 -0.0023  0.2765
    1W        W47055  13.554  28.787   2.274  0.0317 -0.2339 -0.1703
    1W        W47056  18.761  11.473   6.505 -0.2260 -0.2938 -0.0229
    1W        W47057  13.406  13.866   7.273 -0.1563 -0.3523 -0.3411
    1W        W47058   9.758  21.453   7.279  0.1243  0.1427 -0.1278
    1W        W47059   6.166  17.800   2.019 -0.0087 -0.0951  0.0728
    1W        W47060   3.651   5.371   2.191 -0.1068 -0.1638  0.5202
    1W        W47061  29.767   2.417   6.712 -0.2295  0.4106  0.1064
    1W        W47062   2.457   8.244   8.115  0.0763 -0.1040  0.1658
    1W        W47063  20.707  13.369   2.893  0.0257 -0.0188  0.0019
    1W        W47064  19.315   3.764   0.174 -0.0143 -0.1241  0.0878
    1W        W47065   3.033  10.153   1.814  0.1183 -0.1369 -0.0798
    1W        W47066  16.650  25.059   1.516  0.1042  0.1692 -0.1079
    1W        W47067   9.136  21.621   2.304  0.3340 -0.1328  0.0567
    1W        W47068  16.584  26.079   7.736  0.2939  0.1979 -0.1232
    1W        W47069  17.352  16.227   0.167 -0.1454 -0.1324  0.1067
    1W        W47070   5.482  24.909   9.147  0.0745 -0.0586  0.1021
    1W        W47071  27.554  29.686   8.775 -0.2881 -0.3022 -0.1250
    1W        W47072   7.770   2.033   0.445 -0.1999 -0.0355  0.0425
    1W        W47073  14.805  17.018   0.089 -0.4469  0.0479  0.3415
    1W        W47074  27.663   0.461   2.813  0.1174  0.1235  0.0645
    1W        W47075  26.401   8.258   7.274 -0.0710  0.2705  0.3985
    1W        W47076  22.982  29.253   7.786  0.0914  0.2125  0.1855
    1W        W47077   3.621  18.997   9.213 -0.3981  0.1420 -0.0103
    1W        W47078   0.013  29.660   7.865 -0.0680  0.1388 -0.0443
    1W        W47079  11.593  26.857   6.616 -0.2927  0.0769 -0.1723
    1W        W47080  27.812  13.812   8.686  0.2121 -0.2132  0.2664
    1W        W47081   0.466  13.725   1.030 -0.0808  0.1954 -0.2811
    1W        W47082   0.992  22.930   0.558  0.0259  0.0785  0.0160
    1W        W47083  20.208  21.532   6.759  0.0105  0.2257  0.0136
    1W        W47084   1.805  13.939   6.664  0.5760  0.1571 -0.0195
    1W        W47085  26.434  25.542   7.058 -0.1455  0.2257  0.0476
    1W        W47086  24.961   0.362   9.008  0.2658 -0.3732  0.0709
    1W        W47087  29.491   4.730   1.405  0.2586  0.1197 -0.0742
    1W        W47088  13.091   4.747   2.189 -0.0395 -0.0851 -0.0740
    1W        W47089   6.944  25.933   0.097 -0.0254 -0.1523  0.1007
    1W        W47090  22.307   9.958   8.839  0.0302  0.1603 -0.0042
    1W        W47091  26.207  21.477   0.759  0.2789  0.0307 -0.1006
    1W        W47092  29.362   8.306   7.873 -0.1166 -0.0808 -0.2517
    1W        W47093   6.672  21.609   1.706  0.1006 -0.2464 -0.1046
    1W        W47094  23.747  23.037   5.453  0.2280 -0.1158 -0.1013
    1W        W47095  18.214  17.356   2.001 -0.0957 -0.1950 -0.0407
    1W        W47096  11.340   9.429   8.587 -0.1741  0.0238  0.0618
    1W        W47097  18.337  18.120   9.341  0.1025 -0.0497  0.2089
    1W        W47098  23.008  25.283   1.641  0.2326 -0.4187 -0.1213
    1W        W47099  17.852  18.932   2.025  0.2671 -0.0776  0.1134
    1W        W47100  18.072  13.007   6.196  0.1234 -0.2600 -0.1257
    1W        W47101  17.056   0.873   8.566 -0.2531 -0.0995 -0.1784
    1W        W47102  17.530   7.321   8.890 -0.0161 -0.0896 -0.1246
    1W        W47103  10.395  25.876   0.052  0.4049 -0.0109  0.1299
    1W        W47104  15.946  24.761   2.095 -0.1031 -0.0046 -0.2528
    1W        W47105   3.712  16.451   1.603 -0.0652  0.0207 -0.0666
    1W        W47106   1.456   7.306   0.906 -0.2480 -0.2248 -0.1645
    1W        W47107  24.979   7.857   2.395  0.3069 -0.3367 -0.2090
    1W        W47108  24.398  22.633   7.559  0.2046  0.2042 -0.0412
    1W        W47109  21.355   0.177   1.594 -0.1199  0.0438 -0.2933
    1W        W47110  27.441  12.503   9.338  0.0196 -0.1756 -0.1356
    1W        W47111  12.352  22.838   1.580 -0.1974 -0.3097  0.1051
    1W        W47112  11.116  14.734   7.861 -0.0754  0.1672  0.0958
    1W        W47113  18.674  18.027   8.951 -0.1357 -0.0764 -0.0194
    1W        W47114  11.693  21.239   8.279  0.3192  0.4873 -0.0273
    1W        W47115  11.891   2.979   2.390 -0.1264 -0.0581  0.2837
    1W        W47116   0.668  24.004   1.317  0.3342  0.1717  0.2190
    1W        W47117  12.807  13.935   2.302  0.1884  0.1015 -0.1609
    1W        W47118   7.219  25.221   6.978  0.0041 -0.0679 -0.1321
    1W        W47119   3.660   8.636   6.835  0.0397 -0.2805 -0.0676
    1W        W47120   1.868  26.096   7.486  0.1902 -0.1375 -0.0893
    1W        W47121  27.719  20.853   0.300 -0.1769  0.0364  0.0061
    1W        W47122   7.906   8.415   9.354  0.0920  0.2390 -0.0393
    1W        W47123  21.832  13.383   1.502 -0.1086 -0.2984  0.1292
    1W        W47124  23.926  26.343   7.781  0.0203  0.0584 -0.4618
    1W        W47125  25.891  27.694   2.884 -0.2921 -0.1460 -0.1389
    1W        W47126  26.816   9.423   0.817 -0.1412 -0.0636 -0.0597
    1W        W47127  14.601  18.884   7.483 -0.1437 -0.1619  0.2395
    1W        W47128   7.428  21.666   0.661  0.2623  0.0096 -0.0297
    1W        W47129   1.625   2.382   1.918 -0.0387  0.3910  0.1205
    1W        W47130  14.850  21.778   7.529 -0.0104  0.1777  0.0391
    1W        W47131  24.861  15.669   7.032  0.0408 -0.1838 -0.2385
    1W        W47132  17.848  13.484   8.952  0.0742  0.1574  0.0491
    1W        W47133   5.529   7.317   8.538 -0.0787 -0.2434  0.0949
    1W        W47134  10.872   4.598   0.482 -0.1456 -0.1414  0.0736
    1W        W47135  18.391  20.894   6.966 -0.1102 -0.2238  0.0871
    1W        W47136  24.998   8.114   7.007  0.0885  0.4377  0.0278
    1W        W47137   2.505   8.058   8.935  0.0445  0.0385 -0.0985
    1W        W47138   1.924  17.935   2.289  0.1849 -0.1486 -0.1090
    1W        W47139  19.643  23.007   9.002  0.1389  0.1694 -0.0560
    1W        W47140  17.788  28.673   8.939 -0.0058  0.0647  0.0098
    1W        W47141  27.112  20.578   8.078  0.0644 -0.6713 -0.0590
    1W        W47142  24.321   4.010   1.539  0.1338  0.1885 -0.1278
    1W        W47143   9.453  23.321   9.176 -0.2638 -0.0135  0.0277
    1W        W47144   7.102  20.088   1.192  0.0030 -0.1062 -0.1048
    1W        W47145  11.288   9.418   0.696  0.1199  0.0302 -0.1705
    1W        W47146  14.330   0.479   8.069 -0.0498 -0.2112 -0.1957
    1W        W47147   8.359  21.352   7.530 -0.0943 -0.1819 -0.0055
    1W        W47148  13.939  17.058   2.113 -0.3372  0.2437 -0.1820
    1W        W47149   0.912   6.987   9.342  0.1204  0.0470  0.0256
    1W        W47150  24.167   9.038   8.100  0.1013  0.2561 -0.0655
    1W        W47151  17.302  16.841   6.817  0.2590  0.3237 -0.3170
    1W        W47152  27.948  24.503   0.765 -0.1627  0.0443 -0.2575
    1W        W47153  18.405  25.227   0.914 -0.0430  0.1292  0.1959
    1W        W47154  13.445  27.881   2.061 -0.1389  0.0787 -0.1216
    1W        W47155   2.530   2.081   2.899  0.2404 -0.0946 -0.0670
    1W        W47156   8.806  28.154   7.394 -0.1608 -0.1234  0.1079
    1W        W47157  13.279  16.446   9.451 -0.0584 -0.1435 -0.0458
    1W        W47158  17.611  19.065   6.715 -0.0180 -0.0039 -0.0305
    1W        W47159   5.832   4.189   1.406  0.0804 -0.2024 -0.0914
    1W        W47160   7.805   2.234   7.186  0.1335 -0.0780  0.0211
    1W        W47161  22.184   2.830   2.061  0.0329 -0.0894  0.1946
    1W        W47162  16.191   6.606   0.729  0.1980 -0.2180 -0.1263
    1W        W47163  18.065   5.506   2.709 -0.1221 -0.1820  0.2011
    1W        W47164   1.198  13.846   8.349 -0.1062 -0.1337  0.2620
    1W        W47165   5.809  27.826   6.304  0.2013  0.0475  0.2881
    1W        W47166  29.728  27.194   1.930  0.1680  0.0510 -0.1631
    1W        W47167  10.853  22.489   9.030 -0.5144  0.0469 -0.1079
    1W        W47168   3.694  24.070   6.450 -0.0500  0.1838 -0.0785
    1W        W47169   1.803   7.279   6.247 -0.0943  0.2509  0.0561
    1W        W47170  14.307   3.112   1.672  0.0028  0.0287  0.3062
    1W        W47171   0.505  16.406   7.710  0.0277  0.2228  0.3452
    1W        W47172   4.716  21.573   7.734 -0.1255  0.2404  0.0100
    1W        W47173  18.207   4.395   7.376 -0.0198 -0.1081 -0.3935
    1W        W47174   5.771  22.941   2.593  0.1669 -0.1193  0.0934
    1W        W47175  13.906  14.369   2.524  0.2513  0.1351 -0.2057
    1W        W47176  21.719  21.276   8.476 -0.0586  0.0973 -0.0560
    1W        W47177  23.766  17.001   8.497  0.0728 -0.0786  0.0920
    1W        W47178  14.411   7.388   3.177 -0.0117 -0.0292 -0.1375
    1W        W47179  18.339  12.434   6.486 -0.4436  0.0619  0.1043
    1W        W47180  21.852   1.367   0.422 -0.0640  0.2768 -0.0148
    1W        W47181  22.922   4.610   2.931 -0.1150 -0.0798 -0.0019
    1W        W47182   5.894  24.475   0.395  0.1476  0.0968 -0.2727
    1W        W47183   4.167   4.260   8.665 -0.1281  0.1551  0.0020
    1W        W47184  19.271  25.921   2.244 -0.0550 -0.1296  0.1191
    1W        W47185  17.886  27.116   6.822  0.0120  0.1073 -0.1621
    1W        W47186   2.217  11.670   1.849  0.0425 -0.0647  0.1046
    1W        W47187  10.431  24.100   1.590 -0.0241 -0.0407 -0.0059
    1W        W47188  11.666   5.092   1.992  0.1934  0.1328  0.0406
    1W        W47189  10.450  22.789   1.208  0.0517 -0.1347  0.0913
    1W        W47190   4.246  14.745   8.098 -0.0291  0.4029  0.0507
    1W        W47191  12.370  13.225   2.876 -0.2145  0.2998  0.1075
    1W        W47192   9.058  17.358   9.062 -0.0510 -0.3341  0.0585
    1W        W47193   5.829   3.569   1.946 -0.2212  0.2342  0.3117
    1W        W47194  19.402  16.566   6.820  0.1148  0.1421  0.0236
    1W        W47195  25.078  13.641   0.573  0.1155  0.0139  0.0701
    1W        W47196  26.565  24.069   1.648 -0.0276 -0.0777  0.0521
    1W        W47197  21.602   9.667   1.107 -0.1782  0.2698  0.2675
    1W        W47198  14.388  20.330   0.454  0.2007 -0.2070 -0.1851
    1W        W47199  14.778  12.737   6.701 -0.1246 -0.0944  0.2461
    1W        W47200  27.411  21.351   7.212 -0.0237 -0.1796  0.2977
    1W        W47201  19.400  11.707   1.911 -0.0581 -0.0046  0.2679
    1W        W47202  27.788   0.396   0.891 -0.0088 -0.0785  0.0587
    1W        W47203  25.444  20.557   2.525  0.0891 -0.4106  0.2675
    1W        W47204  21.963   8.687   0.687 -0.1156 -0.1972  0.0800
    1W        W47205  14.772  12.168   8.612  0.0605 -0.0497  0.1291
    1W        W47206   3.441   6.976   8.732 -0.0537  0.0941 -0.2314
    1W        W47207  21.506   9.023   0.498 -0.0523  0.1231 -0.1415
    1W        W47208   4.087  18.629   7.836  0.0141  0.0273  0.2794
    1W        W47209   2.792  22.233   1.848  0.0335  0.1471  0.1015
    1W        W47210   6.632  18.886   1.909 -0.2648 -0.1572 -0.0942
    1W        W47211  23.509   7.041   9.291  0.1127 -0.1870  0.2605
    1W        W47212   3.848   7.810   3.456 -0.2397 -0.3292  0.1816
    1W        W47213  15.240   1.012   8.349 -0.3928  0.1003  0.1221
    1W        W47214  15.544  15.536   0.500 -0.3649 -0.0326  0.1406
    1W        W47215  26.734   6.572   0.491  0.2673 -0.0391 -0.2476
    1W        W47216  18.771  13.345   9.037 -0.2466 -0.2953  0.0218
    1W        W47217   4.466  19.127   9.242 -0.0875 -0.3342  0.2192
    1W        W47218  20.800  19.859   5.787  0.1993  0.1597  0.0039
    1W        W47219  12.468  28.615   8.850  0.1946 -0.0763  0.0816
    1W        W47220  29.166  15.421   7.133 -0.1911  0.1897  0.2146
    1W        W47221  10.935   0.074   3.066 -0.2827 -0.2693 -0.3213
    1W        W47222  17.077  26.495   1.228 -0.1363  0.5176 -0.0391
    1W        W47223   2.856  19.784   8.479  0.1624 -0.1362 -0.2032
    1W        W47224  17.955  16.327   2.457 -0.1144  0.1445  0.0856
    1W        W47225   3.252   9.112   8.825  0.0821 -0.1392 -0.1161
    1W        W47226  20.394  14.191   7.991 -0.0905  0.0869 -0.0694
    1W        W47227  24.824   7.521   7.840  0.1991 -0.0329  0.0053
    1W        W47228  22.619  12.976   6.493 -0.2728  0.0898 -0.0726
    1W        W47229  20.476  13.322   2.398 -0.1825 -0.1057  0.0998
    1W        W47230   6.716   0.946   0.363 -0.3474 -0.3551 -0.0953
    1W        W47231  16.193   4.616   2.433 -0.1067  0.1983  0.1061
    1W        W47232  19.173   3.472   0.642  0.0894  0.1550  0.1052
    1W        W47233   7.348  10.647   8.512  0.1211  0.2589  0.1410
    1W        W47234  16.352  12.891   7.003  0.3580  0.0546 -0.0558
    1W        W47235   1.178  28.355   9.541 -0.0693 -0.2274  0.0284
    1W        W47236  17.983  15.358   8.243  0.0263  0.1259 -0.1099
    1W        W47237  12.583  22.008   8.618  0.0434  0.0459  0.0752
    1W        W47238   5.207   7.256   2.002 -0.0999  0.0800 -0.0008
    1W        W47239  24.856   7.391   2.431 -0.1945 -0.1584  0.0175
    1W        W47240  25.613  14.912   0.631  0.4354  0.0687  0.1120
    1W        W47241   3.210  28.420   7.668 -0.1431  0.4260  0.1649
    1W        W47242  23.661  17.913   6.179 -0.1144 -0.1425  0.3073
    1W        W47243  15.829  13.525   8.048 -0.0157  0.0530  0.0691
    1W        W47244   8.401   6.313   2.044 -0.1948 -0.4051 -0.1740
    1W        W47245  28.244  23.275   1.801  0.0844  0.0475 -0.0500
    1W        W47246  20.043   9.002   1.601 -0.0685 -0.0435 -0.1638
    1W        W47247  28.243  21.878   6.131 -0.0215 -0.1545  0.0966
    1W        W47248   0.332  26.404   8.106 -0.0934  0.0595 -0.2890
    1W        W47249  11.838   3.239   8.601 -0.0688 -0.0982  0.2841
    1W        W47250   9.066  19.479   6.596  0.1521  0.0274 -0.1007
    1W        W47251   9.006   2.044   0.957  0.3041  0.2248  0.4825
    1W        W47252  24.799   4.033   1.398 -0.3377 -0.0764  0.0222
    1W        W47253  28.943  24.832   1.699  0.2923 -0.2038 -0.2322
    1W        W47254  17.605  16.102   6.344  0.1028 -0.3275 -0.2921
    1W        W47255   0.922  20.473   0.285  0.2144  0.0980  0.0893
    1W        W47256  19.543   2.318   7.539 -0.2107 -0.2426 -0.0648
    1W        W47257  10.250  27.062   3.539 -0.1798  0.0506  0.0683
    1W        W47258  21.710  25.896   7.868  0.0513 -0.0255  0.0123
    1W        W47259  10.490  14.745   2.798 -0.2312 -0.1630  0.2881
    1W        W47260   2.085  17.759   9.120  0.0477  0.0128  0.1528
    1W        W47261   0.241  20.940   1.594 -0.0409 -0.3733 -0.1139
    1W        W47262   1.619  11.312   0.900 -0.1413 -0.2776  0.0424
    1W        W47263   6.085  13.539   8.541  0.0442 -0.1085 -0.0664
    1W        W47264  16.668  13.440   1.655  0.2517 -0.1121 -0.2836
    1W        W47265  18.324   3.888   8.655  0.2561 -0.4476 -0.0448
    1W        W47266  24.483  16.496   7.087  0.0460  0.1512  0.0523
    1W        W47267  10.988  26.404   7.791  0.4089 -0.0821  0.0991
    1W        W47268  28.195  15.630   1.196  0.1586 -0.1731  0.1653
    1W        W47269  26.368   5.872   7.434  0.0634 -0.0033  0.0613
    1W        W47270  16.050  25.969   1.863 -0.1996 -0.2954  0.0305
    1W        W47271  17.846  12.293   8.421  0.0237  0.1885  0.1037
    1W        W47272  15.816  17.382   1.680  0.0561  0.2099  0.1109
    1W        W47273  28.223  14.753   9.328 -0.0043  0.2934 -0.1804
    1W        W47274   2.738  13.466   9.071 -0.0130 -0.1170  0.1317
    1W        W47275  15.300  27.547   9.517  0.0366  0.4167  0.2950
    1W        W47276  16.191  25.802   8.847  0.0077  0.0990 -0.3998
    1W        W47277   5.225   2.654   1.797  0.0409  0.1427  0.0108
    1W        W47278   1.562  19.537   8.439  0.0554 -0.0327  0.0429
    1W        W47279   3.144  13.547   7.385  0.0238 -0.0532  0.0773
    1W        W47280  13.599  26.287   7.087  0.0294 -0.0470  0.1577
    1W        W47281  13.313   3.545   7.429  0.0836 -0.2910  0.0366
    1W        W47282  25.193  27.795   0.857  0.0696  0.4422 -0.0996
    1W        W47283  21.960   1.224   8.878  0.1902  0.0715 -0.0327
    1W        W47284   4.187   5.216   8.337  0.0823 -0.3373  0.0379
    1W        W47285   8.246   9.137   2.668 -0.0479  0.0497  0.1334
    1W        W47286  27.173   3.964   6.600 -0.2778  0.2926 -0.3365
    1W        W47287   1.393  11.248   8.523  0.4012  0.2706  0.1827
    1W        W47288  26.044  18.759   8.516  0.2356  0.0715  0.0502
    1W        W47289   9.029  16.597   0.891 -0.0622 -0.0163  0.1900
    1W        W47290   2.770  21.713   8.215 -0.2768  0.2689 -0.1367
    1W        W47291  18.749  20.004   2.296  0.1155  0.1926  0.2455
    1W        W47292  26.217  18.641   7.873 -0.0606  0.0357  0.0621
    1W        W47293   9.391  15.351   8.186  0.1486 -0.2528 -0.0937
    1W        W47294  16.344  14.289   0.889  0.0624  0.0179 -0.0680
    1W        W47295   8.735  28.632   8.282  0.1032  0.0708 -0.2586
    1W        W47296   3.638   4.289   6.922  0.3290  0.0244  0.1477
    1W        W47297  22.455  12.920   8.104  0.0101  0.2198  0.0600
    1W        W47298  14.415   2.957   1.208  0.1418  0.3622 -0.2984
    1W        W47299  29.545  16.905   8.890  0.0959  0.1836  0.1539
    1W        W47300   3.295   0.637   2.077 -0.1753  0.1847 -0.2298
    1W        W47301   3.987  29.274   1.872  0.3202 -0.1808 -0.1099
    1W        W47302  19.138  28.177   2.997  0.0559 -0.0506  0.1285
    1W        W47303  12.686  23.239   0.375  0.0249 -0.1127  0.1997
    1W        W47304   6.742   4.178   8.031 -0.2313 -0.1955  0.2829
    1W        W47305   1.542  16.896   0.002 -0.0523  0.0618  0.0828
    1W        W47306   2.065   0.831   2.163 -0.2384 -0.0399  0.3354
    1W        W47307  25.681  21.539   2.232 -0.0445  0.0587 -0.0071
    1W        W47308   0.879  12.782   7.314  0.0654 -0.0385  0.0138
    1W        W47309  11.180   8.689   7.024  0.0031 -0.0671  0.2928
    1W        W47310  12.963  29.059   0.078 -0.0335  0.3713 -0.1313
    1W        W47311  16.412  17.819   2.148  0.0784  0.0416 -0.2631
    1W        W47312   5.418  12.156   0.304 -0.0333 -0.0210  0.0979
    1W        W47313   7.241   8.384   7.814  0.2659  0.1044  0.0990
    1W        W47314   0.640   7.857   7.232 -0.0911 -0.1365 -0.2801
    1W        W47315  26.709   2.008   6.916 -0.0544 -0.2548  0.1038
    1W        W47316   5.033  25.058   0.809  0.1643  0.0798  0.1193
    1W        W47317   2.709  28.051   8.438 -0.1555 -0.0381 -0.0959
    1W        W47318  20.604  11.944   7.427 -0.0110  0.3476  0.1437
    1W        W47319   9.176   8.985   7.769  0.1862  0.1568  0.1373
    1W        W47320   5.657   0.663   1.584 -0.1990  0.1356  0.0343
    1W        W47321  28.332  25.043   0.100 -0.0621  0.1429 -0.3538
    1W        W47322   9.630  17.729   0.263 -0.5628  0.0618  0.0742
    1W        W47323  28.239  26.099   1.804 -0.0963  0.2679  0.2590
    1W        W47324  25.194   2.296   2.866  0.0133  0.2451 -0.3079
    1W        W47325  11.892   0.265   2.891 -0.0990  0.3134 -0.0899
    1W        W47326  15.798   5.564   7.377 -0.5037  0.0649 -0.3339
    1W        W47327   2.565  25.427   3.370 -0.4744 -0.0326  0.0741
    1W        W47328  16.382  20.723   0.624  0.1089 -0.1134 -0.3147
    1W        W47329  21.663  12.707   8.527  0.1735  0.1026 -0.1783
    1W        W47330   9.851  24.921   2.174  0.0827 -0.0489 -0.0855
    1W        W47331   5.273  13.200   2.384 -0.1103 -0.0898 -0.0915
    1W        W47332  18.497   8.357   2.415 -0.0329  0.0526  0.0456
    1W        W47333  16.273  28.253   7.898  0.3939 -0.3471  0.1347
    1W        W47334  14.985  29.405   8.257  0.0216  0.0300 -0.0333
    1W        W47335   4.406   4.211   2.853  0.0445  0.2136 -0.0766
    1W        W47336  27.973  24.979   8.164  0.0125 -0.1056 -0.3983
    1W        W47337  20.821  22.565   8.493 -0.2273  0.0306 -0.0036
    1W        W47338  27.410   6.311   1.920 -0.2157 -0.0340  0.1700
    1W        W47339  10.328  29.230   2.180  0.2409  0.1105 -0.1263
    1W        W47340   1.697  12.146   7.347  0.1680  0.1001 -0.0889
    1W        W47341  12.457   9.502   7.380  0.0549  0.1532  0.1359
    1W        W47342   7.041   3.822   8.017  0.1462 -0.2686 -0.2068
    1W        W47343  10.026   6.233   8.097 -0.2400 -0.1802  0.2592
    1W        W47344  21.340  10.729   9.079  0.0149  0.0302  0.3290
    1W        W47345  12.022   3.510   1.729  0.2622 -0.2102 -0.3049
    1W        W47346   8.100   1.809   0.827  0.1565 -0.1964 -0.0802
    1W        W47347  20.554  19.394   5.996 -0.3898  0.1039 -0.0775
    1W        W47348  20.330  28.800   2.087 -0.0257 -0.0011 -0.0906
    1W        W47349  21.899  11.672   9.232  0.0033  0.2024 -0.1133
    1W        W47350   4.073   4.122   3.227 -0.0093 -0.0154 -0.0495
    1W        W47351  12.910  17.959   1.565  0.3448  0.1576 -0.0368
    1W        W47352  18.402   8.023   6.936 -0.0275 -0.3462 -0.0670
    1W        W47353   5.419  21.082   7.084  0.1246  0.2555 -0.0755
    1W        W47354  25.990   1.777   3.270  0.0318  0.0059 -0.3370
    1W        W47355   7.810   2.776   0.263  0.0010  0.0772 -0.1327
    1W        W47356  23.505  13.176   0.231  0.0243 -0.1350  0.2279
    1W        W47357  10.012  29.785   9.369 -0.0292  0.0483 -0.2327
    1W        W47358  11.588  18.261   2.799  0.2079 -0.3777  0.0605
    1W        W47359  28.736  20.472   8.314 -0.1293  0.0377  0.1174
    1W        W47360  18.795  16.961   9.266  0.0169  0.0051 -0.0804
    1W        W47361  18.197  21.903   2.070 -0.4149 -0.0635  0.2390
    1W        W47362  29.013   5.756   0.351 -0.2637  0.0667 -0.2007
    1W        W47363  23.843  17.962   5.169 -0.3319  0.1377 -0.4871
    1W        W47364  19.262  13.742   0.354  0.0944 -0.2745  0.0339
    1W        W47365  12.607   4.915   8.947 -0.1420  0.2198  0.2614
    1W        W47366  25.730  28.047   0.813 -0.0110 -0.0181 -0.0299
    1W        W47367   0.720  29.367   2.260  0.0332  0.1605 -0.4378
    1W        W47368   3.651  14.696   0.988 -0.3632 -0.0284  0.0112
    1W        W47369  21.181  26.308   0.958  0.0549 -0.1820 -0.0747
    1W        W47370  16.387  16.873   8.810  0.6702  0.2057  0.1610
    1W        W47371  14.675   1.919   2.194 -0.1460  0.0487 -0.2554
    1W        W47372   2.394   6.878   1.340 -0.0709  0.0970 -0.1518
    1W        W47373  10.459  21.990   7.923 -0.2314 -0.2491  0.2566
    1W        W47374  26.243   0.009   0.338  0.1023  0.0525 -0.0911
    1W        W47375  12.058  11.854   6.646 -0.0127  0.0540 -0.1220
    1W        W47376  18.301  10.788   2.164  0.1187 -0.0047 -0.0799
    1W        W47377  10.030  16.451   8.997  0.0926  0.0563 -0.2223
    1W        W47378   3.525  18.770   1.042 -0.0982  0.0440  0.1357
    1W        W47379  22.901  18.630   1.529  0.2156 -0.0299  0.1424
    1W        W47380  11.007   5.311   8.535 -0.1430 -0.0323  0.0449
    1W        W47381   6.965  29.386   8.044 -0.3776 -0.1472  0.3686
    1W        W47382  24.169   8.102   6.693  0.0378  0.1472 -0.1275
    1W        W47383  20.689  16.461   1.347  0.0493 -0.2998  0.0465
    1W        W47384  24.199  18.156   1.805  0.0571 -0.1299  0.1707
    1W        W47385  22.607  15.290   0.460  0.0234 -0.0671 -0.4444
    1W        W47386  18.472  12.145   6.952  0.1875 -0.0418 -0.0431
    1W        W47387   9.187   0.973   2.431  0.2221  0.1456  0.0406
    1W        W47388  15.427   1.206   2.357 -0.3866  0.1182 -0.1887
    1W        W47389  23.337   7.454   7.749 -0.0869 -0.0215  0.2086
    1W        W47390   4.252  27.824   8.183 -0.1828  0.2384  0.1057
    1W        W47391  14.526   2.386   1.422 -0.1131  0.1594  0.2147
    1W        W47392  28.602  11.874   8.972 -0.0676  0.5382  0.1681
    1W        W47393   0.477   9.302   7.236 -0.1330  0.2523  0.3366
    1W        W47394  12.062  28.173   2.279  0.4174 -0.1533 -0.0841
    1W        W47395  27.139  21.394   9.112  0.2954  0.0078 -0.2554
    1W        W47396  18.798  13.610   7.930  0.1031 -0.3136  0.0440
    1W        W47397  17.039  10.321   9.053 -0.1889  0.0774  0.0439
    1W        W47398   1.784  20.469   1.250 -0.1535  0.0363  0.0322
    1W        W47399   2.761  12.998   0.968 -0.0000  0.3345 -0.1919
    1W        W47400  29.474   5.068   7.733 -0.0849 -0.0721  0.0388
    1W        W47401  25.234   6.660   6.650 -0.0194  0.2737  0.2190
    1W        W47402  25.909  20.360   0.685 -0.0780  0.0677  0.0153
    1W        W47403   9.847  28.795   0.004 -0.0625  0.0282  0.1167
    1W        W47404   2.176   9.066   7.465  0.0240 -0.0413  0.1086
    1W        W47405  23.675   3.396   1.806  0.0016  0.0130 -0.0685
    1W        W47406  17.904   3.392   2.182 -0.0703 -0.1695  0.1830
    1W        W47407  15.134   7.485   1.248  0.5395  0.3314 -0.1232
    1W        W47408  23.622  22.388   9.182 -0.0975  0.2967 -0.0221
    1W        W47409  11.928  20.375   6.089  0.0813  0.0119 -0.2719
    1W        W47410  12.069  29.455   7.622  0.1448  0.0091 -0.2005
    1W        W47411   1.495   3.180   1.456  0.3392  0.1120  0.3357
    1W        W47412   3.737  21.720   0.439  0.0874  0.3178 -0.2901
    1W        W47413  11.261   2.889   1.797  0.0148 -0.2598  0.1520
    1W        W47414  24.706  12.511   5.654 -0.0384 -0.1895 -0.0375
    1W        W47415  17.895  21.478   6.004 -0.1214 -0.2421 -0.1812
    1W        W47416  22.484   2.355   2.057 -0.1372  0.2048  0.1691
    1W        W47417  24.899  25.004   2.350  0.4150 -0.0504  0.0118
    1W        W47418   7.718  28.029   0.180  0.0284  0.2213  0.0990
    1W        W47419  22.753  21.897   2.076 -0.1706  0.1498 -0.1396
    1W        W47420   3.843  16.463   7.275  0.3109 -0.0577  0.3110
    1W        W47421  23.335  13.263   1.374 -0.1168 -0.1302 -0.2228
    1W        W47422  17.129  29.402   3.358 -0.2043 -0.1774 -0.0213
    1W        W47423   3.641   1.539   2.424  0.1149 -0.0596 -0.0926
    1W        W47424  19.093   7.456   0.872  0.3095  0.0207 -0.3287
    1W        W47425  15.590   1.878   2.050  0.2064  0.1178 -0.1049
    1W        W47426  20.996   8.186   9.265  0.0243 -0.1816  0.0840
    1W        W47427   9.470  27.651   3.007  0.3413 -0.0816 -0.2720
    1W        W47428  13.200   4.055   2.750 -0.4733 -0.1392 -0.1768
    1W        W47429  27.654   8.162   1.619 -0.0423  0.0864  0.0158
    1W        W47430  16.901   9.096   1.700  0.2380  0.3123  0.1535
    1W        W47431  22.138   8.692   1.236  0.0885  0.0869  0.2476
    1W        W47432   0.647  23.025   0.203  0.3047 -0.0344  0.0431
    1W        W47433   0.978   5.899   6.615 -0.1050 -0.0245 -0.1541
    1W        W47434  16.222  14.783   6.801  0.3725 -0.1492  0.0084
    1W        W47435  22.693  13.870   6.406  0.0050 -0.0907  0.0017
    1W        W47436   9.378  23.178   0.598  0.1905  0.0723  0.2005
    1W        W47437   4.621  12.549   7.819 -0.3417 -0.3109 -0.2388
    1W        W47438  25.457  25.900   1.145 -0.0788 -0.1440 -0.2363
    1W        W47439   5.624  17.427   2.019 -0.0517 -0.2975 -0.3446
    1W        W47440  28.612   3.642   1.085  0.1119  0.1863  0.2600
    1W        W47441  14.982  19.777   1.421  0.0124 -0.0223 -0.1408
    1W        W47442   0.391  27.989   1.326 -0.1274  0.0382 -0.1401
    1W        W47443  18.065  14.806   1.143  0.0194  0.0315 -0.0125
    1W        W47444  24.765   2.254   2.497 -0.2044  0.0426 -0.3432
    1W        W47445  27.056  21.348   0.406 -0.2202  0.2527 -0.2656
    1W        W47446  29.718  13.499   9.132 -0.2120 -0.3837  0.1241
    1W        W47447   8.912  24.118   0.309  0.0102  0.1374  0.0353
    1W        W47448   4.901  12.287   8.085  0.1733 -0.0050  0.1767
    1W        W47449  16.853  28.930   8.633 -0.7083 -0.1652 -0.2538
    1W        W47450  28.903  21.236   6.328 -0.0982 -0.0377 -0.1067
    1W        W47451  13.609   9.850   8.204  0.0003 -0.2640 -0.0205
    1W        W47452  21.587   0.859   2.215 -0.0252 -0.1739  0.1517
    1W        W47453   2.544   0.178   9.457 -0.1651  0.0425 -0.1877
    1W        W47454   2.304   7.244   9.525 -0.1570 -0.0376  0.3831
    1W        W47455  20.504  20.427   8.877  0.1123  0.1612  0.1634
    1W        W47456  27.623   8.956   7.868  0.2428  0.1751  0.1004
    1W        W47457  11.886   1.806   9.130 -0.3676  0.0504 -0.0745
    1W        W47458  23.347  18.851   0.790 -0.0424 -0.0382 -0.1551
    1W        W47459   9.364  27.501   8.241 -0.0101  0.0761 -0.2966
    1W        W47460  22.957  23.670   8.020  0.3777  0.1437 -0.0604
    1W        W47461   7.438   6.569   8.736 -0.0307  0.1652  0.1005
    1W        W47462  15.409   8.956   8.916  0.1065  0.1815 -0.5191
    1W        W47463   7.206  15.803   1.471  0.1145  0.0964 -0.3598
    1W        W47464  27.488   5.913   2.607 -0.0182 -0.2432 -0.0156
    1W        W47465  19.762  19.265   7.301 -0.1310 -0.3906  0.0937
    1W        W47466  17.870  13.777   9.438  0.1988  0.0466 -0.2313
    1W        W47467  17.506  23.327   3.510  0.0792 -0.0873 -0.0221
    1W        W47468  18.989  21.914   9.547  0.1737 -0.4484 -0.4017
    1W        W47469  16.366  12.018   2.549 -0.0546  0.0471  0.2727
    1W        W47470  17.514   2.005   0.034  0.0524 -0.2075  0.4312
    1W        W47471  23.749  21.841   9.026  0.2601  0.2180 -0.1311
    1W        W47472  24.959  25.145   3.029  0.0649 -0.3193  0.3002
    1W        W47473  11.607   2.021   2.864 -0.1547  0.0900  0.1543
    1W        W47474   6.225  12.166   2.546 -0.0566 -0.2095 -0.1001
    1W        W47475  14.142  25.148   1.740 -0.1770  0.2102  0.0133
    1W        W47476  10.619   0.987   1.618  0.0239 -0.3093  0.1720
    1W        W47477  10.432   7.606   1.643  0.0920 -0.1402  0.2464
    1W        W47478   2.219   0.299   2.882  0.1606 -0.0968  0.3400
    1W        W47479   6.097   3.405   7.885  0.1392  0.0890  0.0677
    1W        W47480  11.339   7.612   9.081 -0.0953 -0.3325  0.0443
    1W        W47481  16.159  17.396   3.124  0.1283  0.3701  0.1204
    1W        W47482  19.866  26.240   0.350  0.1449  0.1561  0.1164
    1W        W47483  26.416  27.056   3.241  0.0780 -0.1124 -0.2438
    1W        W47484   8.483  24.755   8.647 -0.0922  0.3590  0.2857
    1W        W47485  12.531   4.012   8.545 -0.1180 -0.0025  0.2061
    1W        W47486  25.012   4.495   2.314 -0.1917  0.1633 -0.2413
    1W        W47487  15.177   6.187   2.096 -0.1787 -0.0513 -0.0047
    1W        W47488  26.670   3.003   7.693  0.0742 -0.1868  0.1589
    1W        W47489  26.077  10.701   7.371 -0.0866 -0.0365  0.2031
    1W        W47490  20.450  24.955   2.256  0.0763  0.2705  0.0029
    1W        W47491  26.446  21.369   0.324 -0.3185 -0.0404 -0.2468
    1W        W47492  26.404  26.579   0.900 -0.1796 -0.1596  0.0621
    1W        W47493  29.614   5.697   8.695  0.3535 -0.2462  0.1421
    1W        W47494  22.213  12.672   2.134 -0.1144 -0.2112  0.0595
    1W        W47495  13.876  21.971   5.919  0.2639  0.2270  0.1430
    1W        W47496  12.831  12.709   9.139 -0.0983 -0.1547 -0.0273
    1W        W47497   1.943  27.943   2.528 -0.1867  0.2284 -0.1060
    1W        W47498   6.069  23.058   9.429  0.0835 -0.0156 -0.0128
    1W        W47499   3.214  27.381   2.395  0.2938 -0.0709 -0.0104
    1W        W47500  24.480   4.601   8.627  0.2853 -0.2903  0.0676
    1W        W47501  28.547   7.382   8.099  0.0453  0.2350  0.0210
    1W        W47502  24.893  18.016   7.630 -0.2418 -0.1271 -0.3466
    1W        W47503  13.174  10.895   0.241  0.0518  0.1598  0.0454
    1W        W47504  25.160  10.637   8.591 -0.1367  0.3376 -0.1698
    1W        W47505  29.073  29.151   7.186 -0.4005 -0.2428 -0.1259
    1W        W47506   4.150  13.862   6.384  0.1471 -0.0433 -0.0673
    1W        W47507   9.147  13.942   7.963  0.2076 -0.1005 -0.0494
    1W        W47508  28.605   8.561   1.879  0.0261 -0.0886 -0.3846
    1W        W47509  22.239  18.742   6.254  0.1566 -0.0546  0.1113
    1W        W47510  17.900   8.647   7.441 -0.0118  0.2889  0.4239
    1W        W47511   5.172   2.346   2.690 -0.0838  0.0457  0.0907
    1W        W47512  24.302  17.342   8.256  0.0462 -0.1428 -0.0664
    1W        W47513  12.061   8.186   2.699 -0.1223 -0.0356  0.3036
    1W        W47514  28.465  27.812   0.477  0.1504  0.1829  0.1354
    1W        W47515  11.829  28.880   7.815 -0.1459  0.0480  0.0126
    1W        W47516  15.290  20.949   8.937 -0.0170 -0.0476 -0.0076
    1W        W47517  13.382  17.644   8.395 -0.1095 -0.0571 -0.2205
    1W        W47518  29.083  28.318   8.853 -0.0973  0.2337 -0.2364
    1W        W47519  29.292   5.610   0.724 -0.2933  0.0302  0.3243
    1W        W47520  25.154   6.278   2.172  0.0771 -0.2220 -0.2540
    1W        W47521  19.968  10.383   2.183 -0.1933 -0.2163 -0.0061
    1W        W47522   1.554   3.306   1.930 -0.0746  0.0216  0.0060
    1W        W47523  20.539  23.704   9.029 -0.0667  0.3353  0.0142
    1W        W47524  24.675   7.629   2.826 -0.2825 -0.1199 -0.1274
    1W        W47525  25.722  22.557   6.388  0.0792  0.2414 -0.1172
    1W        W47526  17.701   9.260   2.322  0.0479  0.0770 -0.0295
    1W        W47527  17.307   4.390   8.645 -0.2541  0.0048  0.3879
    1W        W47528   8.222   0.259   9.316  0.1953  0.0243 -0.3844
    1W        W47529  23.153  22.754   6.443 -0.1442  0.0679  0.1346
    1W        W47530  12.415   1.996   0.765  0.1959  0.1369  0.0081
    1W        W47531  25.355  24.703   0.556 -0.3163  0.1461 -0.1374
    1W        W47532  14.471   5.517   1.479 -0.0670 -0.2475 -0.1199
    1W        W47533   5.789  29.384   1.278  0.0307 -0.1674  0.1153
    1W        W47534   7.260  15.817   2.582  0.0107 -0.2627  0.0725
    1W        W47535  13.381   5.659   2.568 -0.0110  0.3707  0.1540
    1W        W47536  28.909   4.523   8.842 -0.0340 -0.1276 -0.1959
    1W        W47537  18.325  13.337   2.077 -0.1044 -0.0180 -0.0759
    1W        W47538  22.518  21.272   7.896  0.0320  0.2998 -0.0565
    1W        W47539  29.442   7.948   1.883 -0.1122  0.0488  0.1395
    1W        W47540  11.209  12.460   2.659  0.1110 -0.0835  0.0404
    1W        W47541  14.319  20.684   8.774  0.0013  0.0924  0.2788
    1W        W47542   8.478  29.354   9.214 -0.2731  0.0376 -0.1179
    1W        W47543   0.261   8.818   9.062 -0.1630  0.0411  0.0322
    1W        W47544  22.650  15.758   6.739 -0.1780  0.2337 -0.2434
    1W        W47545  15.142  29.573   1.546  0.1833 -0.0184  0.1847
    1W        W47546   8.915  24.917   0.745 -0.0280  0.2393  0.1180
    1W        W47547  13.028   3.104   1.682  0.0993  0.4114  0.0447
    1W        W47548  20.816  25.371   7.596 -0.2397 -0.2188 -0.2561
    1W        W47549  25.084   4.159   0.633  0.1206 -0.1590  0.0457
    1W        W47550  10.581  28.988   1.791  0.2238 -0.0804 -0.2538
    1W        W47551   8.814   8.835   2.334 -0.0973  0.0929  0.3009
    1W        W47552   0.439  19.429   6.766 -0.0986 -0.1198  0.1188
    1W        W47553  15.436   4.753   7.449  0.2177  0.0513  0.0562
    1W        W47554  17.952   4.653   2.108 -0.2445 -0.0244 -0.4344
    1W        W47555  23.197   5.281   0.890  0.0902 -0.0747  0.0135
    1W        W47556  18.725  23.850   2.852 -0.1124 -0.0927  0.1226
    1W        W47557   6.614  14.366   1.338 -0.0759  0.0777  0.0042
    1W        W47558  17.185   2.882   1.584  0.2709 -0.0356 -0.1147
    1W        W47559  22.650   8.119   2.248  0.0558 -0.2885  0.0262
    1W        W47560  13.402   4.654   1.813 -0.1358  0.2955 -0.2783
    1W        W47561  24.707  19.885   5.209  0.0424 -0.0384 -0.1473
    1W        W47562   3.193   6.375   6.028 -0.0153 -0.2892  0.1586
    1W        W47563   2.808  13.812   0.028 -0.0620 -0.1793 -0.0338
    1W        W47564  19.847   1.797   0.493  0.0094  0.0751 -0.0769
    1W        W47565   4.487   2.167   0.647  0.2265  0.0526 -0.0137
    1W        W47566  15.488  13.595   6.558  0.1339  0.1147 -0.0839
    1W        W47567  28.261   0.122   0.825  0.3391  0.2849 -0.1587
    1W        W47568  28.245  24.605   9.340 -0.4174  0.1480  0.3684
    1W        W47569  26.178   7.279   8.816  0.2436  0.0289 -0.2460
    1W        W47570   8.829   8.838   0.117 -0.0376  0.1288 -0.3612
    1W        W47571  23.107  19.801   1.486 -0.0909  0.1491  0.1287
    1W        W47572   2.715  23.959   2.586  0.1861 -0.0061  0.0455
    1W        W47573  23.959   3.595   2.845 -0.0408  0.2751  0.3834
    1W        W47574   3.872  16.624   9.345 -0.0994 -0.0404  0.1486
    1W        W47575  28.697  27.292   8.208 -0.1225 -0.0780  0.1023
    1W        W47576  11.222   3.379   2.902 -0.1496 -0.0275  0.3358
    1W        W47577  11.449  14.429   7.703 -0.0099 -0.0117 -0.1292
    1W        W47578  22.559  12.589   9.476 -0.2296  0.2459  0.3681
    1W        W47579  22.794  15.058   0.058 -0.3185  0.5376 -0.0257
    1W        W47580  19.105  14.846   6.623  0.0032 -0.0677 -0.1369
    1W        W47581  22.074  28.627   9.311  0.1984  0.3249 -0.1820
    1W        W47582  25.245   6.695   7.896  0.0279  0.0767  0.3739
    1W        W47583  23.548  11.212   7.056 -0.1497 -0.0579 -0.2744
    1W        W47584   6.735  14.535   7.273  0.2344 -0.0987  0.1511
    1W        W47585  18.741   8.966   3.227  0.0456 -0.0810 -0.1226
    1W        W47586  12.590   4.974   7.058  0.1460  0.0679 -0.1668
    1W        W47587  24.574   8.507   6.701 -0.1635 -0.0870  0.2371
    1W        W47588  22.338  27.437   1.160  0.0553  0.1647 -0.1016
    1W        W47589  14.385  18.340   6.903 -0.0997  0.1070  0.1073
    1W        W47590  28.072  18.483   7.109  0.1041  0.0044  0.1355
    1W        W47591  18.032  13.908   7.589  0.0088 -0.0930 -0.0753
    1W        W47592  21.987   7.327   8.523 -0.2020  0.0253 -0.1331
    1W        W47593  12.922  18.944   2.021 -0.4145 -0.0477  0.2988
    1W        W47594  16.827  22.396   8.115 -0.3463 -0.0417  0.1609
    1W        W47595  21.016   9.288   7.941  0.1774  0.1997 -0.0947
    1W        W47596  17.916   0.347   9.328 -0.0423  0.0964 -0.0223
    1W        W47597  14.613   2.326   2.752 -0.0163 -0.0812  0.0788
    1W        W47598  13.770  13.024   1.287 -0.2435 -0.0568 -0.0483
    1W        W47599  11.338  22.369   1.285 -0.0632  0.5289  0.1123
    1W        W47600  26.784  13.908   1.363 -0.0503 -0.0365  0.0833
    1W        W47601   3.556  12.889   1.061 -0.2288  0.0671  0.1729
    1W        W47602  12.398   2.281   0.060  0.0604 -0.0750  0.0664
    1W        W47603  16.915   3.530   0.478  0.1847 -0.4661 -0.2398
    1W        W47604  26.013  19.003   7.641 -0.0795 -0.0686 -0.1033
    1W        W47605   1.474  18.164   7.621 -0.0938  0.1733  0.0493
    1W        W47606  17.164  26.927   2.918 -0.0335  0.6018 -0.0703
    1W        W47607  20.773  23.582   8.345 -0.2099 -0.3947 -0.1093
    1W        W47608  23.142   4.535   1.671  0.1154 -0.0113 -0.0855
    1W        W47609  17.535   9.796   7.728 -0.2360  0.0319  0.0379
    1W        W47610   5.594   6.449   9.546 -0.0308  0.0077  0.1488
    1W        W47611  22.938  22.517   0.720  0.2473 -0.0951 -0.0489
    1W        W47612  26.095   3.142   7.805  0.1525 -0.0150 -0.0885
    1W        W47613   3.953   1.881   0.165  0.2841 -0.5446  0.1740
    1W        W47614  14.718   4.313   0.659  0.1915 -0.0839 -0.0005
    1W        W47615  25.371   0.516   2.534  0.0303  0.2224 -0.0460
    1W        W47616  27.756   6.078   1.147  0.1135 -0.0701 -0.1443
    1W        W47617  15.977  25.387   7.980 -0.0019 -0.1397  0.0618
    1W        W47618  28.319  19.837   1.502 -0.0374  0.0083  0.2268
    1W        W47619  18.215   3.403   8.511 -0.0527 -0.0959 -0.0303
    1W        W47620   0.612  27.990   2.286 -0.0005 -0.1584 -0.0260
    1W        W47621   5.450   7.258   1.260 -0.1352 -0.0320 -0.0904
    1W        W47622  23.398   0.919   9.108 -0.1505 -0.2530 -0.1399
    1W        W47623   5.991   9.833   2.033  0.0518  0.1154 -0.1026
    1W        W47624  28.649  20.115   0.138 -0.0299  0.1141  0.0506
    1W        W47625  19.920  12.027   0.774  0.1561 -0.1175  0.0485
    1W        W47626  23.262  21.501   9.208  0.1312  0.2348 -0.1414
    1W        W47627   5.521   6.667   0.525  0.1627  0.4271 -0.2492
    1W        W47628  26.109  23.784   1.629 -0.3453  0.2790  0.2179
    1W        W47629  15.218  23.116   2.213  0.1621  0.1639  0.1234
    1W        W47630  13.761  10.275   1.944  0.0198 -0.2051 -0.2253
    1W        W47631  15.020  25.145   9.460  0.0572 -0.0031 -0.1964
    1W        W47632  27.997   3.916   7.312  0.0786  0.1530  0.2461
    1W        W47633  19.665  26.014   9.436  0.0274 -0.0480  0.0912
    1W        W47634  26.103   2.758   1.270  0.0593  0.0299  0.1950
    1W        W47635   3.276  21.095   8.382  0.0439  0.2352  0.0350
    1W        W47636  22.024  28.843   7.772  0.3470  0.0917 -0.1029
    1W        W47637  24.449  14.634   0.154  0.1935  0.1411 -0.1515
    1W        W47638   9.968  29.141   0.656 -0.0934  0.2259  0.0743
    1W        W47639  19.440   7.496   8.866  0.3654 -0.0390 -0.0025
    1W        W47640  22.833  21.028   0.411  0.1177  0.0819 -0.0711
    1W        W47641  20.255  10.781   2.105  0.1314 -0.3727  0.1478
    1W        W47642  16.165  19.661   3.202 -0.3152 -0.0382 -0.1346
    1W        W47643   3.090  29.294   2.192  0.2654  0.1223 -0.2296
    1W        W47644   9.815   4.930   9.308  0.1428 -0.3458 -0.2497
    1W        W47645  21.169  11.857   6.929 -0.4487 -0.0381  0.1730
    1W        W47646  26.722  27.824   0.576  0.2223 -0.2683  0.1193
    1W        W47647   7.390  14.521   1.208  0.0280 -0.4635  0.0382
    1W        W47648  13.298   7.650   7.975  0.0452  0.2054 -0.3102
    1W        W47649  21.688   6.415   2.291 -0.0490  0.1499 -0.0130
    1W        W47650  28.205  24.664   8.634  0.1356  0.2203 -0.1685
    1W        W47651   6.823  12.450   0.182  0.2374 -0.2598  0.0085
    1W        W47652  23.120  10.635   8.928  0.0248 -0.0479 -0.2173
    1W        W47653  16.846  20.336   0.662 -0.2253 -0.1757 -0.1130
    1W        W47654  23.749   6.501   0.776  0.0718 -0.2012  0.3119
    1W        W47655   7.796  28.900   2.195 -0.2097  0.0376  0.1845
    1W        W47656   9.273  26.780   3.066  0.1947  0.0270 -0.1282
    1W        W47657   9.253  26.505   7.640  0.0418  0.2266 -0.1305
    1W        W47658   8.788   6.275   7.218 -0.0855  0.0739  0.2042
    1W        W47659  19.091   3.195   8.974 -0.3578 -0.0274 -0.1957
    1W        W47660   5.324  17.465   7.477  0.1971  0.0921  0.4078
    1W        W47661   7.836  25.803   6.675 -0.0758 -0.0893 -0.0662
    1W        W47662  14.816   8.800   1.494 -0.3069  0.0107  0.5806
    1W        W47663   1.664  25.774   6.784 -0.1457  0.2842  0.0670
    1W        W47664   8.315   1.724   8.454 -0.0437  0.2966  0.0143
    1W        W47665  24.830  22.241   5.946 -0.0277  0.2025 -0.0071
    1W        W47666  28.179   8.527   8.499 -0.0188  0.1390  0.0871
    1W        W47667   4.300   1.834   1.907 -0.1749  0.1214 -0.0131
    1W        W47668  19.333  26.567   8.833  0.3067  0.0372 -0.2045
    1W        W47669  20.380   6.640   2.778  0.0696  0.1979 -0.0035
    1W        W47670  28.931  26.095   7.718 -0.3414  0.2742 -0.2587
    1W        W47671  11.668   0.272   3.511 -0.2847  0.0219  0.5569
    1W        W47672  10.897  12.356   2.110 -0.3072 -0.0424 -0.2039
    1W        W47673  10.714  16.268   8.632  0.1807  0.1716 -0.2258
    1W        W47674   4.966  28.663   3.007  0.0896 -0.0024 -0.0229
    1W        W47675  26.994   5.524   2.246 -0.2341  0.0680 -0.0763
    1W        W47676  14.758  10.997   7.299 -0.1345 -0.3085 -0.5374
    1W        W47677  28.542   6.096   1.408  0.2249 -0.2503  0.1311
    1W        W47678   7.526   9.795   2.532 -0.2995  0.2516 -0.0198
    1W        W47679   8.995  28.929   0.389  0.1164  0.1497  0.1371
    1W        W47680   9.197   0.776   1.530 -0.3126 -0.1395 -0.3168
    1W        W47681  24.144  26.020   1.993 -0.1912  0.3568  0.1183
    1W        W47682  20.151  20.589   1.987  0.0019  0.0374 -0.0086
    1W        W47683  14.539   4.021   9.101 -0.3776  0.0250  0.1554
    1W        W47684  14.865  27.421   7.318 -0.1647  0.0155 -0.2255
    1W        W47685  19.083  25.496   2.000  0.0664 -0.2437  0.1171
    1W        W47686   1.691  29.292   0.807  0.3255 -0.4251 -0.0400
    1W        W47687  23.912  26.637   2.913  0.3887 -0.2586 -0.0559
    1W        W47688   6.318  28.829   7.842 -0.1371  0.1632 -0.1083
    1W        W47689  22.474  25.390   1.649  0.1178 -0.0555 -0.0252
    1W        W47690   8.577  19.644   8.880  0.2730  0.1702  0.1541
    1W        W47691  25.069  27.598   1.837 -0.2651 -0.2695  0.3313
    1W        W47692   7.338  24.020   2.227  0.1405 -0.0454 -0.0606
    1W        W47693   3.892  10.250   2.034 -0.2603 -0.3761 -0.0187
    1W        W47694   1.821   2.691   7.278  0.0294 -0.0066 -0.0479
    1W        W47695  23.278  10.188   1.247  0.2218 -0.1915  0.1678
    1W        W47696  27.721  26.264   2.669  0.0383  0.0452  0.0452
    1W        W47697   5.976  11.954   8.886  0.0635 -0.2121 -0.0074
    1W        W47698   3.375  12.702   7.646 -0.1033 -0.2330 -0.3617
    1W        W47699  19.481   4.175   7.453  0.0421 -0.1748  0.2546
    1W        W47700  26.086   6.673   6.592  0.0359 -0.2564  0.0795
    1W        W47701  18.452  26.484   1.197 -0.2529  0.1087  0.3279
    1W        W47702  25.514   0.524   0.480  0.1101  0.2043 -0.1149
    1W        W47703  11.875  19.748   6.556  0.1993 -0.0265  0.0735
    1W        W47704   0.540   8.644   2.153 -0.0145 -0.2181 -0.2809
    1W        W47705  27.260  25.797   1.544  0.2281  0.1233  0.0752
    1W        W47706  28.493  28.517   9.385 -0.0827  0.3889  0.0876
    1W        W47707  15.547  15.486   7.425  0.3494 -0.2859  0.0002
    1W        W47708  16.821  22.567   1.970  0.1673 -0.0073 -0.1615
    1W        W47709  23.274   2.703   0.152 -0.2983  0.2293  0.0930
    1W        W47710   4.407   7.015   9.171  0.0479 -0.1492 -0.1917
    1W        W47711  14.446  25.264   2.370  0.2354  0.0924 -0.4019
    1W        W47712  16.817  10.857   0.402 -0.0322 -0.2210  0.0067
    1W        W47713  16.029  24.506   6.942  0.3854  0.0799 -0.2057
    1W        W47714  14.725  28.338   0.757 -0.0176  0.0523  0.4289
    1W        W47715  15.370  15.931   7.051 -0.0567  0.0977  0.0905
    1W        W47716  22.874  28.860   2.606 -0.0011 -0.4195 -0.2617
    1W        W47717  15.377   4.356   0.038 -0.1566  0.1623 -0.0323
    1W        W47718  24.297  28.124   9.071 -0.0205 -0.3535 -0.0206
    1W        W47719  27.630   1.918   0.048 -0.3121 -0.1393  0.0637
    1W        W47720  28.798   7.242   1.853  0.1900  0.0064  0.3127
    1W        W47721   6.121  17.922   7.551 -0.1383  0.3063  0.5315
    1W        W47722  24.498  24.411   1.288 -0.0196  0.0551 -0.0285
    1W        W47723  23.746  26.548   8.175  0.1822 -0.0236 -0.1122
    1W        W47724  18.514   7.688   0.616  0.1797 -0.3126 -0.0463
    1W        W47725  10.706  16.942   9.200  0.0712  0.0286  0.0709
    1W        W47726  22.264  20.171   7.411 -0.0416 -0.2457  0.1178
    1W        W47727  10.889  11.603   2.774  0.0241  0.2394  0.0697
    1W        W47728   2.883  21.291   8.708  0.0919  0.0849  0.0017
    1W        W47729   6.579  13.617   0.638 -0.0461  0.2267  0.4134
    1W        W47730   9.379  15.142   0.409  0.0700  0.0774  0.0953
    1W        W47731  14.788   4.135   8.675 -0.2244 -0.0106  0.2548
    1W        W47732  22.599  12.535   0.384  0.0041 -0.0080  0.3144
    1W        W47733  18.894  12.752   9.219  0.2001 -0.2603  0.1965
    1W        W47734  16.554   0.068   9.275  0.1177  0.0738  0.0610
    1W        W47735   3.421  25.031   8.666 -0.0251 -0.0550 -0.1654
    1W        W47736   0.032  26.340   7.649 -0.0642  0.1234 -0.2326
    1W        W47737  29.031  27.252   0.971  0.1200 -0.1429  0.2461
    1W        W47738  26.323  21.914   0.526  0.0188  0.0315 -0.0003
    1W        W47739   2.958   7.020   2.886  0.0451  0.0040  0.1644
    1W        W47740  26.337   1.505   7.188  0.2573 -0.2624 -0.1781
    1W        W47741   9.003  18.328   7.685 -0.1298  0.3251 -0.1081
    1W        W47742  14.163  18.684   9.498  0.0111 -0.1233 -0.1472
    1W        W47743  25.534   7.648   2.163  0.0280 -0.0835 -0.0558
    1W        W47744   9.600   6.028   8.357  0.1335 -0.1717 -0.0485
    1W        W47745  18.549  12.944   6.517 -0.0459 -0.1721  0.2201
    1W        W47746  18.381   4.032   2.450  0.0640  0.0977  0.2433
    1W        W47747  20.923  23.132   0.160  0.0063  0.3185  0.2389
    1W        W47748  28.925   8.171   2.663 -0.1855  0.1153 -0.1579
    1W        W47749  16.304  28.301   6.947 -0.0969  0.1707  0.2965
    1W        W47750  15.865  10.586   8.820 -0.2287 -0.0490  0.0303
    1W        W47751   1.283   6.735   8.094  0.0240 -0.2535  0.0235
    1W        W47752  18.823  26.065   1.223  0.0866  0.1105  0.4279
    1W        W47753   7.148  10.746   7.889 -0.3885  0.2202 -0.1698
    1W        W47754  20.157   3.819   2.196 -0.0855 -0.4248 -0.0602
    1W        W47755   4.165  20.029   2.022  0.2675  0.2334  0.0476
    1W        W47756  27.917   8.439   2.000 -0.3495 -0.2228  0.0371
    1W        W47757  24.329  23.937   8.387  0.1113  0.0175  0.0429
    1W        W47758   5.357   1.078   0.544  0.2822  0.0418  0.2428
    1W        W47759  22.570   7.530   2.633 -0.0050 -0.0590 -0.0335
    1W        W47760   1.687  26.871   0.881 -0.1006 -0.0511 -0.3491
    1W        W47761   8.538  17.397   7.715  0.0612  0.1023  0.3791
    1W        W47762   0.430   0.814   7.576 -0.2816 -0.1103  0.1349
    1W        W47763   5.690  27.408   0.803 -0.2013  0.0879 -0.1461
    1W        W47764  13.725  18.737   2.385  0.1357  0.1247  0.0268
    1W        W47765  14.015  13.769   0.042  0.3683 -0.0036 -0.0688
    1W        W47766   4.467   4.948   7.837 -0.3150 -0.3508  0.1966
    1W        W47767  23.405   9.309   0.462  0.2048  0.2975 -0.1465
    1W        W47768  12.171  20.126   1.397  0.1605 -0.2508  0.3924
    1W        W47769   0.793   5.209   0.397  0.2082 -0.0618 -0.0769
    1W        W47770  21.843  13.127   9.296  0.3171  0.1678  0.1058
    1W        W47771  13.464  27.671   6.988  0.1595 -0.0729 -0.1018
    1W        W47772  14.364  13.470   7.093  0.2574  0.0339  0.1102
    1W        W47773   6.816   5.582   2.220  0.1478 -0.4981  0.0335
    1W        W47774  20.161  24.338   8.119 -0.0563 -0.0941  0.1599
    1W        W47775   6.528  15.581   7.959 -0.1257 -0.1728 -0.3029
    1W        W47776  24.467   3.435   0.566  0.4133  0.2002  0.1627
    1W        W47777   0.369   4.612   6.553 -0.0354  0.2589  0.2816
    1W        W47778  12.579  21.725   0.877 -0.0431 -0.1346 -0.1223
    1W        W47779  16.022   6.411   8.332 -0.2704 -0.1158 -0.2179
    1W        W47780  21.437  16.429   6.813 -0.1263  0.2768  0.1200
    1W        W47781  14.592  27.739   8.187 -0.0280 -0.0078  0.1161
    1W        W47782  27.897   5.653   9.217 -0.4434  0.0828  0.3272
    1W        W47783  21.364   3.064   2.569  0.2223 -0.2224 -0.2863
    1W        W47784   3.315  17.581   0.028  0.0545  0.1482 -0.0864
    1W        W47785  16.513   0.276   8.227  0.1287 -0.0286  0.1816
    1W        W47786   5.401  21.363   9.091 -0.1389 -0.0379 -0.3144
    1W        W47787   8.946   8.067   1.622  0.2023  0.2531  0.0529
    1W        W47788   6.807  28.090   0.281  0.0323  0.0456 -0.1512
    1W        W47789   9.652  11.087   8.251  0.0680 -0.0261 -0.1300
    1W        W47790  14.718  20.675   0.005 -0.2690 -0.2222  0.0211
    1W        W47791  16.444  18.958   8.052 -0.0045  0.2060  0.2222
    1W        W47792  28.702  28.949   3.591  0.2727  0.2561 -0.2456
    1W        W47793  16.218  23.917   3.107 -0.0713  0.2535  0.0408
    1W        W47794  27.347   0.640   3.251 -0.0495 -0.1391  0.0215
    1W        W47795  19.985  21.132   8.250 -0.0766  0.1726 -0.0876
    1W        W47796  11.327  26.427   9.489  0.0181  0.1216 -0.0952
    1W        W47797   3.630  16.807   6.996  0.1086  0.1845  0.1071
    1W        W47798   5.495  26.982   0.490 -0.3618  0.3474 -0.2085
    1W        W47799   2.559  25.048   0.605  0.0237  0.1032 -0.0048
    1W        W47800  28.339  21.215   0.794 -0.0751 -0.1206 -0.2138
    1W        W47801  11.385  22.499   9.151  0.2003  0.0012  0.1704
    1W        W47802   0.941  19.609   6.758  0.1907  0.0926 -0.3236
    1W        W47803  22.301  10.836   1.601  0.2502  0.2950  0.0551
    1W        W47804  23.447  19.193   7.761 -0.0254  0.1564 -0.0446
    1W        W47805  29.591   9.662   6.928  0.0589 -0.3624  0.1224
    1W        W47806   0.916  12.737   9.255 -0.0755  0.0663 -0.0432
    1W        W47807  21.412  20.401   2.349  0.4115  0.2237 -0.2406
    1W        W47808  14.284  23.690   7.237 -0.1749 -0.0212  0.0614
    1W        W47809   7.382   3.407   7.807 -0.0893 -0.1651  0.0194
    1W        W47810   7.268  11.289   2.714  0.3047  0.0008  0.1828
    1W        W47811  20.526   3.734   0.449  0.1281 -0.2368  0.0746
    1W        W47812   3.548   3.993   2.163 -0.2968  0.1411  0.0396
    1W        W47813   5.628   0.663   7.679 -0.3963  0.0576  0.3056
    1W        W47814   1.713  26.521   2.650 -0.0192  0.0291  0.1940
    1W        W47815   1.766  21.495   1.087 -0.1221  0.2510  0.2915
    1W        W47816   3.823  12.455   1.171  0.2111 -0.2114  0.0003
    1W        W47817   2.657  12.995   0.244  0.0339 -0.2158 -0.1913
    1W        W47818   2.991   7.023   7.729 -0.0440  0.1097  0.2498
    1W        W47819  16.624  23.327   8.075 -0.1864  0.4837  0.1848
    1W        W47820  18.665  25.173   7.459 -0.2062  0.1484  0.0721
    1W        W47821   8.254  18.689   1.756  0.1381  0.3473  0.1296
    1W        W47822  28.240   3.214   3.138  0.2000  0.1114  0.1919
    1W        W47823   2.625  25.002   8.113  0.2814  0.2143 -0.2339
    1W        W47824  22.536  28.140   3.041  0.1997 -0.0514  0.1920
    1W        W47825  28.434  17.109   0.481  0.1838  0.0528 -0.0515
    1W        W47826  17.983  18.660   9.192  0.4446 -0.0150  0.2602
    1W        W47827  14.179  12.178   2.094 -0.1649  0.0733 -0.1512
    1W        W47828  23.277  17.770   5.849  0.0260 -0.1616  0.0866
    1W        W47829  18.444  16.420   8.606 -0.0011  0.1192  0.1333
    1W        W47830   2.007   1.934   1.585 -0.0909  0.0464 -0.1880
    1W        W47831   2.604   6.358   9.425 -0.3072 -0.0676  0.3284
    1W        W47832   1.852  10.382   1.657  0.2576  0.1816  0.0862
    1W        W47833  18.642   3.204   9.148  0.1273 -0.1970  0.0273
    1W        W47834  18.188   5.443   1.731  0.1439 -0.0711  0.1385
    1W        W47835  11.280  28.820   2.326  0.1151  0.2301 -0.1652
    1W        W47836  10.408   8.633   0.415  0.1194  0.0734 -0.1531
    1W        W47837  20.766  24.390   9.182  0.0616 -0.2363  0.2577
    1W        W47838  21.202  21.187   8.396  0.3814 -0.1063 -0.1060
    1W        W47839  26.104   7.235   8.187  0.0529  0.1103 -0.1455
    1W        W47840   3.230  21.770   9.030  0.0442 -0.2285 -0.0195
    1W        W47841  28.757   5.102   1.776  0.1586 -0.1281  0.2189
    1W        W47842  16.689  18.847   6.815 -0.0819 -0.0240 -0.1425
    1W        W47843  22.218  20.825   1.643 -0.3024 -0.2336  0.0873
    1W        W47844  18.731  21.803   7.495  0.0928 -0.1678  0.0911
    1W        W47845  18.669   9.653   2.625  0.1144 -0.2758 -0.1038
    1W        W47846   7.865  18.856   7.912  0.2700  0.0643 -0.0160
    1W        W47847  14.831  11.412   7.668 -0.2432  0.1371 -0.1157
    1W        W47848   2.413  13.892   1.576 -0.2029 -0.1553  0.0880
    1W        W47849   2.492  10.246   0.406  0.3384 -0.0951  0.1361
    1W        W47850  21.503  11.939   9.091  0.1300 -0.1140 -0.0301
    1W        W47851  19.965   4.256   0.747 -0.1347 -0.0892 -0.1101
    1W        W47852  12.904  16.742   0.891 -0.2568  0.1511 -0.1638
    1W        W47853  15.907  19.781   1.596  0.0578  0.1395  0.0570
    1W        W47854  29.320  21.299   8.595  0.0970 -0.2571 -0.0482
    1W        W47855  27.656  27.015   1.159 -0.0965 -0.0273  0.0688
    1W        W47856  22.092  16.494   6.221  0.1990 -0.3825  0.1411
    1W        W47857   7.271   9.862   7.839 -0.0270 -0.1880  0.1491
    1W        W47858  21.935   4.378   3.111  0.2893 -0.1186  0.1464
    1W        W47859   9.018  29.085   8.236 -0.0166 -0.2086  0.0677
    1W        W47860  16.023   3.650   7.896 -0.2359 -0.0165  0.1061
    1W        W47861  29.614  27.868   7.010  0.1907  0.0113  0.1631
    1W        W47862  17.616   4.284   8.255 -0.0777  0.0658 -0.1628
    1W        W47863   5.254  11.005   1.824  0.2790 -0.1069  0.4080
    1W        W47864  16.190   7.070   7.626 -0.1320  0.0301 -0.0623
    1W        W47865   5.719  10.697   1.069 -0.0215  0.2909 -0.3135
    1W        W47866  11.875  25.039   6.268  0.2186 -0.3738  0.3782
    1W        W47867   8.569  13.361   2.334  0.1073  0.1223  0.0310
    1W        W47868  29.544  15.729   7.351 -0.0011  0.1350 -0.1008
    1W        W47869   3.955  24.111   0.429 -0.1712 -0.0380  0.0048
    1W        W47870   9.559   4.467   7.056 -0.1074  0.1234  0.0665
    1W        W47871   2.386  19.674   9.442  0.0555  0.0769 -0.1091
    1W        W47872   3.191   8.899   6.703 -0.2189 -0.0307  0.3999
    1W        W47873   4.517   2.030   8.083  0.2365  0.0381 -0.0595
    1W        W47874   2.935  11.219   2.129 -0.2235  0.0995  0.0251
    1W        W47875  27.093  10.293   8.941 -0.1572  0.1489 -0.0555
    1W        W47876  18.188   2.371   0.660 -0.1305  0.3470  0.0381
    1W        W47877  26.246  27.145   8.076  0.0045  0.3832 -0.2824
    1W        W47878  10.246  19.171   8.543  0.2025  0.1280 -0.2902
    1W        W47879  20.704   1.178   2.133  0.0820 -0.2582  0.0221
    1W        W47880  16.012  27.820   6.901  0.2040  0.1065  0.0219
    1W        W47881   4.612  15.449   1.018 -0.0377  0.0210 -0.0465
    1W        W47882  22.333   5.751   2.515  0.0003  0.2273  0.0653
    1W        W47883  13.858  23.558   1.251  0.0463 -0.0115 -0.2853
    1W        W47884  10.011  28.119   2.525  0.0514  0.1529 -0.1809
    1W        W47885  26.669  21.092   6.316  0.3166  0.2755 -0.0259
    1W        W47886  25.679  11.906   1.286  0.1617 -0.1093  0.0702
    1W        W47887   3.085   2.194   7.425  0.2066  0.2828  0.0084
    1W        W47888  11.957  18.784   7.096  0.0969 -0.1823  0.2041
    1W        W47889   7.601  14.217   2.533 -0.1470 -0.1075  0.0444
    1W        W47890   0.177  19.433   7.378 -0.0271 -0.1561  0.1824
    1W        W47891  13.246  24.403   1.599 -0.0875  0.0323  0.0885
    1W        W47892  28.740   1.037   1.482  0.3725 -0.1007 -0.1658
    1W        W47893  23.159   3.801   8.098 -0.0473 -0.1544 -0.1646
    1W        W47894  10.604   5.299   1.527 -0.2793 -0.1998 -0.1066
    1W        W47895   5.002  16.617   1.860  0.0292 -0.2335 -0.0186
    1W        W47896  24.333  24.755   1.660  0.1535  0.2235 -0.1705
    1W        W47897  24.552  12.382   8.000 -0.0373  0.2048  0.1471
    1W        W47898   3.194  26.206   1.072  0.1231 -0.0604 -0.0571
    1W        W47899  19.293   0.265   8.804 -0.0473  0.0885 -0.4620
    1W        W47900  20.260   1.108   0.836 -0.0473  0.0191 -0.2040
    1W        W47901   3.795   4.640   0.764  0.1224 -0.2329 -0.1262
    1W        W47902  27.906   0.398   2.385 -0.3394 -0.0101 -0.0245
    1W        W47903  24.405  21.840   1.213  0.0857  0.0293 -0.1165
    1W        W47904  29.450  24.150   8.490 -0.1986 -0.1554  0.1514
    1W        W47905  16.126   7.106   0.890  0.0681 -0.3399 -0.2894
    1W        W47906   4.540   1.185   2.538 -0.0350 -0.0255  0.2203
    1W        W47907  22.110  12.174   6.202  0.0577 -0.2105  0.0542
    1W        W47908   6.657  24.180   7.054  0.1894  0.0741  0.0973
    1W        W47909  17.521  29.129   0.823  0.0161  0.2359 -0.0551
    1W        W47910  26.436  13.984   7.706 -0.0998  0.2170  0.1520
    1W        W47911  16.069  19.784   2.478  0.2027 -0.1634 -0.1925
    1W        W47912   0.976   5.171   0.886  0.0495  0.0295  0.0246
    1W        W47913   9.181  25.265   0.951 -0.1694 -0.2048 -0.2080
    1W        W47914  12.662  12.040   7.323  0.1795 -0.0274 -0.1119
    1W        W47915  21.419  26.701   1.540  0.5289  0.1217 -0.1173
    1W        W47916  19.668  25.520   1.431  0.2299 -0.1552  0.0833
    1W        W47917  25.002  28.613   6.797 -0.0635  0.1902 -0.2163
    1W        W47918  29.785  27.115   9.411  0.1169  0.0580 -0.0264
    1W        W47919  15.666  18.172   1.015  0.0634  0.0354  0.0347
    1W        W47920  26.190   1.816   1.981  0.1906 -0.1517 -0.0492
    1W        W47921   9.774   2.942   1.514  0.3735  0.2081  0.0364
    1W        W47922   1.650   5.513   9.458  0.0358 -0.0403 -0.2172
    1W        W47923  20.408  27.428   7.363 -0.0674 -0.0420 -0.0696
    1W        W47924  13.160  23.222   1.051 -0.0510  0.0852 -0.0018
    1W        W47925   2.844   2.068   9.527 -0.4635 -0.0138  0.0744
    1W        W47926  11.311  20.079   6.765  0.1490 -0.0038  0.1977
    1W        W47927  25.708   3.834   1.062  0.0275  0.2465 -0.0122
    1W        W47928  26.791   2.136   9.325  0.0742 -0.0774  0.1734
    1W        W47929   9.181  24.023   1.588  0.0466  0.0121  0.1630
    1W        W47930  13.767  10.159   9.411  0.0327  0.3817  0.0565
    1W        W47931  29.021   6.862   7.966  0.1391 -0.0611 -0.2553
    1W        W47932  17.694  14.048   5.291  0.0833  0.0168 -0.0096
    1W        W47933  21.841   2.500   1.933  0.0029 -0.1666 -0.0233
    1W        W47934  25.156   5.326   7.648 -0.2526  0.0818  0.1810
    1W        W47935  11.171  28.287   8.322  0.0120  0.2065 -0.3783
    1W        W47936  19.044   8.581   8.693  0.3178  0.0137 -0.2703
    1W        W47937  29.498   1.630   7.694 -0.1899 -0.2609  0.0901
    1W        W47938   4.757  29.179   7.200 -0.0122 -0.1443  0.0951
    1W        W47939  10.203  16.711   1.816  0.1315  0.3939  0.2088
    1W        W47940  15.785   7.721   7.605 -0.2883  0.1168  0.0302
    1W        W47941  16.982  28.060   6.344  0.2429 -0.0086  0.0247
    1W        W47942  27.059  24.369   0.177  0.1729 -0.1888  0.0214
    1W        W47943  17.693   7.627   1.204  0.0347 -0.1411 -0.1651
    1W        W47944   4.206  15.640   7.810  0.2436 -0.1435  0.3046
    1W        W47945   7.805  15.111   9.092 -0.1183  0.3404 -0.0446
    1W        W47946  26.776  14.223   8.040 -0.0080  0.0757  0.1921
    1W        W47947   8.567  24.471   9.518  0.2123 -0.1918  0.0182
    1W        W47948   3.285   7.300   6.603  0.2566 -0.4053 -0.1567
    1W        W47949   1.539  29.392   8.126  0.1237 -0.0422 -0.0218
    1W        W47950  28.140  23.995   0.713 -0.0170 -0.1643  0.0246
    1W        W47951   9.360  21.338   8.231  0.0466 -0.2280  0.1096
    1W        W47952  20.090   2.111   8.381 -0.0927  0.2867  0.4377
    1W        W47953  18.437  12.507   9.302 -0.0019  0.0916 -0.1402
    1W        W47954   4.445  13.298   2.102  0.0220  0.0444 -0.1719
    1W        W47955  25.741  29.182   0.534 -0.2232  0.1928  0.1037
    1W        W47956  10.652  29.554   3.410  0.0103 -0.1824 -0.1202
    1W        W47957  18.833   7.629   1.917 -0.0303  0.0702  0.3438
    1W        W47958  10.836  29.607   9.264 -0.1496 -0.2245 -0.1123
    1W        W47959  19.146  17.802   6.021  0.2038 -0.0471  0.0914
    1W        W47960  26.925  25.341   8.984  0.0523  0.0405  0.0083
    1W        W47961  29.080  26.758   9.538  0.0561  0.1693  0.0770
    1W        W47962  19.516  27.164   2.291 -0.2144  0.0514  0.0214
    1W        W47963  22.172  28.050   2.021 -0.0094  0.3147  0.1635
    1W        W47964   2.962  18.179   9.470  0.0202  0.1252 -0.0714
    1W        W47965  11.817   3.032   9.028  0.1766 -0.0251 -0.0260
    1W        W47966   2.515  24.071   8.924 -0.0162  0.4475 -0.4338
    1W        W47967  21.681   1.831   0.250  0.3390 -0.1167 -0.3208
    1W        W47968  27.112  29.613   0.408 -0.3075 -0.0001 -0.1160
    1W        W47969  10.147   4.245   2.944 -0.1698  0.2070  0.0292
    1W        W47970  15.707   1.398   7.468 -0.1166  0.0802 -0.2005
    1W        W47971  28.788   7.105   1.204 -0.3771 -0.2619 -0.2281
    1W        W47972   1.641   5.890   8.009  0.0231 -0.1088 -0.2415
    1W        W47973  20.854   2.806   7.753  0.2241 -0.2581 -0.1535
    1W        W47974   6.847   7.508   6.918  0.3376  0.1245 -0.0682
    1W        W47975  14.167  19.885   0.842 -0.1701  0.0998 -0.0205
    1W        W47976  16.503  19.372   7.742  0.0794  0.1461  0.1087
    1W        W47977   5.150  26.225   9.440 -0.0497 -0.2510  0.1511
    1W        W47978  25.994  22.249   8.175  0.1626 -0.0396  0.0193
    1W        W47979   1.073  20.134   9.398 -0.0928  0.5228 -0.0083
    1W        W47980  21.378   6.800   7.143 -0.2907  0.0537  0.3265
    1W        W47981   0.598  13.206   0.862  0.2443  0.0744 -0.0947
    1W        W47982  12.976   6.252   0.268 -0.0840  0.0234  0.2447
    1W        W47983  17.395  19.737   0.239 -0.0991  0.1541 -0.1698
    1W        W47984  10.080  21.663   0.369  0.0721  0.2545 -0.1692
    1W        W47985   6.192  10.443   9.140 -0.1166  0.0161 -0.0012
    1W        W47986  16.089  28.835   1.220  0.0557  0.1432 -0.4087
    1W        W47987  20.318  28.357   7.608  0.1669  0.4525  0.0085
    1W        W47988   9.676   4.105   2.550  0.0140  0.0768 -0.2886
    1W        W47989   2.274   1.593   8.267  0.0414 -0.2792  0.2845
    1W        W47990  25.125   1.666   0.541 -0.1244 -0.0304  0.0344
    1W        W47991  10.611  27.678   1.476 -0.2569 -0.2204 -0.0034
    1W        W47992  24.263   0.691   0.147 -0.0496 -0.0835  0.1021
    1W        W47993   0.406   3.763   0.900 -0.0842  0.1642  0.0359
    1W        W47994   3.561  29.463   6.791 -0.0312 -0.1017 -0.0018
    1W        W47995   8.194  23.247   2.209  0.1118  0.3331 -0.0691
    1W        W47996  12.185   4.607   9.166  0.0424 -0.1005 -0.1434
    1W        W47997   3.971   4.999   7.545  0.1687  0.0723 -0.3061
    1W        W47998  16.390  10.153   0.234 -0.0438  0.0483  0.2936
    1W        W47999  26.631  21.676   1.734  0.0369  0.2177  0.1947
    1W        W48000   0.854  13.646   8.685  0.1237 -0.2491  0.2429
    1W        W48001   9.311  24.837   1.754  0.0487  0.2180  0.0743
    1W        W48002  14.150  15.098   2.843 -0.0445  0.1674  0.3231
    1W        W48003   1.505   5.363   7.760 -0.1308 -0.0997 -0.3745
    1W        W48004   9.894   0.977   1.169  0.2274 -0.0242  0.0068
    1W        W48005   6.644  12.240   1.174 -0.1813  0.3247  0.0531
    1W        W48006  17.621  20.604   2.618 -0.5110  0.1003 -0.5041
    1W        W48007  17.013  29.661   1.318 -0.1780 -0.0569  0.0952
    1W        W48008  23.977  11.455   7.757  0.1014 -0.1448 -0.0159
    1W        W48009  21.969  23.416   8.147  0.0514  0.3924  0.1345
    1W        W48010  23.215  18.170   9.528  0.0699 -0.0548  0.1620
    1W        W48011  10.812  12.918   2.858 -0.1498  0.1033 -0.2284
    1W        W48012   6.567  28.580   6.806 -0.1092  0.0593 -0.0544
    1W        W48013  27.965   4.464   0.030  0.0930  0.1738  0.1753
    1W        W48014   6.220   6.405   1.261  0.0719  0.2530  0.2749
    1W        W48015   9.741  11.307   0.208  0.1609  0.0117 -0.1040
    1W        W48016  29.048   9.211   1.657  0.0036  0.1131 -0.2079
    1W        W48017   0.966  14.105   0.457 -0.3130  0.0739  0.0706
    1W        W48018  22.236  29.671   8.167  0.0283 -0.3178  0.0486
    1W        W48019   0.171  29.415   2.384  0.2720  0.0260 -0.0407
    1W        W48020  25.838  22.910   2.111 -0.0329 -0.2032 -0.1872
    1W        W48021  12.729  25.952   1.702 -0.0989 -0.0131 -0.2074
    1W        W48022  23.643   1.331   2.405 -0.0312  0.2469 -0.0876
    1W        W48023  12.293   5.801   8.823 -0.0213  0.2747  0.2782
    1W        W48024   0.878  11.908   8.994 -0.2063  0.1817 -0.0405
    1W        W48025   0.163   3.090   2.089 -0.2342  0.2771  0.1022
    1W        W48026   1.215  17.126   7.439  0.0491 -0.2178 -0.2575
    1W        W48027   8.538  25.320   0.971 -0.1525  0.0306 -0.0302
    1W        W48028  23.613  15.343   1.781 -0.1355  0.0885 -0.0584
    1W        W48029  26.443  10.170   9.058 -0.0079 -0.0976 -0.2584
    1W        W48030  17.825   5.570   8.093 -0.2380  0.2380 -0.0701
    1W        W48031   9.507  20.988   1.826 -0.0869 -0.1722  0.1093
    1W        W48032   0.348  24.228   8.349  0.2028 -0.2435  0.0615
    1W        W48033  26.242  26.107   8.715 -0.0569 -0.2008  0.1185
    1W        W48034  17.217  11.741   8.804 -0.0401 -0.2110  0.0407
    1W        W48035  11.261  24.121   0.552  0.3550 -0.1948 -0.2342
    1W        W48036   7.124  15.315   0.007 -0.1132 -0.0021  0.3667
    1W        W48037   3.176   4.532   7.772  0.0174  0.3056 -0.1080
    1W        W48038  14.481  14.977   8.078  0.0011 -0.1476 -0.1674
    1W        W48039  21.087   9.703   1.119  0.3631  0.2440 -0.0156
    1W        W48040   7.876  29.691   1.514  0.1623  0.0527  0.0193
    1W        W48041  15.146   6.918   0.488  0.1188  0.2736  0.0129
    1W        W48042  24.720  20.001   0.920 -0.0242 -0.1047  0.0461
    1W        W48043   0.161  15.886   8.216  0.0468  0.0346  0.0946
    1W        W48044   5.237  23.206   7.863  0.1205 -0.1413  0.1319
    1W        W48045   8.396  27.782   1.097 -0.1624  0.3052 -0.0757
    1W        W48046  27.538   3.178   0.064  0.2148  0.1164 -0.4793
    1W        W48047   0.624  11.924   7.996  0.0240 -0.1227  0.0357
    1W        W48048  19.131   3.745   1.859 -0.1336 -0.1990 -0.3621
    1W        W48049   0.396  23.620   1.792 -0.0690  0.0724 -0.2476
    1W        W48050   8.971  22.075   7.912  0.0107 -0.0734 -0.2043
    1W        W48051  19.515  28.143   8.637  0.1445 -0.1407 -0.0849
    1W        W48052  16.485  18.742   8.970 -0.2921 -0.3315 -0.3224
    1W        W48053  18.837  25.141   0.244  0.0188 -0.0197  0.2070
    1W        W48054  20.018  21.799   2.636  0.2012  0.2837  0.3484
    1W        W48055  12.637  25.497   7.156 -0.0312 -0.0326 -0.1207
    1W        W48056  26.972  10.871   6.215  0.0088  0.1887  0.0320
    1W        W48057  17.303  23.698   6.400 -0.1519 -0.1250 -0.0188
    1W        W48058   2.489  23.482   7.977  0.3874 -0.1359  0.0246
    1W        W48059  17.491   8.669   0.523 -0.0310 -0.1168 -0.2719
    1W        W48060  10.863   5.327   0.896 -0.0473  0.0099 -0.4985
    1W        W48061  26.918  12.901   6.360 -0.1696  0.3010  0.0112
    1W        W48062   7.940  25.913   7.704 -0.0266 -0.2618  0.0757
    1W        W48063   7.440   9.124   8.898  0.0317  0.4067  0.2143
    1W        W48064  20.144  24.616   8.546  0.0431  0.0804  0.4531
    1W        W48065  18.467   8.902   2.192  0.2275 -0.1082  0.1950
    1W        W48066  27.463  22.568   5.842 -0.1764  0.1250 -0.1537
    1W        W48067  14.774  12.235   1.549 -0.0538  0.2263  0.0175
    1W        W48068   9.539  16.408   7.426 -0.0326  0.0414  0.1786
    1W        W48069  14.944  11.695   9.482  0.0620 -0.0942 -0.1745
    1W        W48070  21.671  24.795   0.190 -0.2461  0.1291 -0.1687
    1W        W48071  27.598  14.415   8.095  0.2719 -0.2910 -0.1236
    1W        W48072  11.324  27.748   0.836 -0.0348 -0.0883  0.0599
    1W        W48073   7.001   5.958   2.921 -0.4162 -0.1802  0.0005
    1W        W48074   1.555  21.604   8.754  0.1446 -0.2584 -0.0344
    1W        W48075  25.360  13.985   0.878  0.0705  0.1625 -0.3277
    1W        W48076  18.547  19.865   0.877 -0.0936 -0.0399  0.0529
    1W        W48077  23.198   4.155   9.429 -0.1377  0.2577  0.1573
    1W        W48078  27.041  13.555   1.142 -0.4104 -0.1097 -0.2122
    1W        W48079  24.716   2.029   8.820  0.1737 -0.0326 -0.0519
    1W        W48080  21.543   7.403   8.786  0.1574  0.0001  0.1329
    1W        W48081  29.706  21.044   2.124 -0.2217 -0.0145 -0.0850
    1W        W48082  26.482  14.327   0.834 -0.0780 -0.4722  0.0850
    1W        W48083   0.502  10.875   1.606 -0.0174  0.0931  0.1465
    1W        W48084  29.719   5.081   1.744  0.2478  0.0939 -0.4004
    1W        W48085  19.066   0.171   2.310 -0.1689  0.1616  0.0763
    1W        W48086   4.859   9.057   1.329 -0.1033 -0.0932  0.0177
    1W        W48087  10.267  10.208   8.131  0.1570 -0.1361 -0.2726
    1W        W48088   0.254   6.606   7.138  0.1105  0.1013 -0.1485
    1W        W48089   6.916   8.841   0.214 -0.0984  0.1447 -0.0194
    1W        W48090  15.002  21.045   6.604  0.1868  0.3789  0.0140
    1W        W48091  13.490   3.415   3.461  0.1208 -0.0343 -0.0491
    1W        W48092  19.024  12.555   0.791 -0.2672  0.2107 -0.0961
    1W        W48093   5.493   7.035   6.597  0.2394 -0.1323 -0.3249
    1W        W48094  26.999  14.047   7.585  0.2841 -0.0753 -0.0752
    1W        W48095  21.173  21.619   2.109 -0.0868  0.0918  0.0238
    1W        W48096  29.636  20.656   0.193  0.1707 -0.1690 -0.0247
    1W        W48097  27.987   8.103   7.687 -0.0295  0.3187 -0.1217
    1W        W48098  29.783  11.388   7.907  0.3964 -0.0359 -0.0614
    1W        W48099   6.142   2.566   2.350 -0.4159  0.0777 -0.2472
    1W        W48100  15.215   6.963   6.824  0.0447  0.0087  0.0005
    1W        W48101   8.682   6.455   0.486 -0.0732  0.2007  0.3697
    1W        W48102   3.270  24.845   0.012 -0.1104  0.0033 -0.0536
    1W        W48103  28.488  28.639   7.053 -0.1727 -0.0278  0.1757
    1W        W48104  19.020  24.386   7.098 -0.1145  0.0313 -0.2436
    1W        W48105  17.267  23.713   0.493 -0.1109  0.0763 -0.0896
    1W        W48106  25.479   9.003   1.884 -0.1238 -0.0024  0.1385
    1W        W48107  21.436  17.962   9.548 -0.0938 -0.2100 -0.1696
    1W        W48108  14.208   1.447   0.585  0.1463 -0.1007  0.0124
    1W        W48109  24.708  13.165   6.740  0.2345  0.0526  0.0444
    1W        W48110  23.914  28.716   7.944  0.1717 -0.2730 -0.0045
    1W        W48111  18.636  27.113   6.735 -0.0770 -0.0274  0.1274
    1W        W48112   3.628  18.521   7.569 -0.0220 -0.2237  0.0185
    1W        W48113   7.532  22.466   9.483  0.2578 -0.0670  0.1676
    1W        W48114   2.186  12.559   2.747  0.0422 -0.0047  0.1944
    1W        W48115  12.961   8.414   9.246  0.1121 -0.2772  0.1963
    1W        W48116   3.936  16.410   8.882 -0.1346 -0.2207 -0.2971
    1W        W48117   5.694   0.616   7.208  0.0649 -0.3888  0.0004
    1W        W48118  25.196  23.615   1.570 -0.2114 -0.1091 -0.1650
    1W        W48119  10.302   4.320   0.142  0.2414 -0.1283  0.3017
    1W        W48120   5.134  13.551   1.811 -0.2070  0.0822  0.1861
    1W        W48121  13.008   6.441   2.797  0.0299  0.0153 -0.1991
    1W        W48122   5.772  11.973   1.669 -0.1052 -0.3116  0.1798
    1W        W48123   2.160   3.657   7.461 -0.2346 -0.0051  0.1774
    1W        W48124  19.909  17.407   8.014  0.2215  0.1295 -0.0767
    1W        W48125  20.140  15.710   0.551  0.1887  0.0916  0.1160
    1W        W48126   7.890  14.665   1.376 -0.1162  0.1570  0.3301
    1W        W48127  26.740  23.319   7.179  0.0294  0.0789  0.3053
    1W        W48128  26.783  23.640   7.697  0.2461 -0.3533 -0.0836
    1W        W48129  15.025   4.946   0.137 -0.0643  0.3165 -0.2155
    1W        W48130   6.511   4.575   8.284 -0.0322  0.1200  0.0532
    1W        W48131  12.428  25.138   1.541  0.1719 -0.3525  0.0555
    1W        W48132  20.726   7.734   9.115 -0.0989 -0.2106  0.2709
    1W        W48133  11.771  18.491   0.374  0.0141  0.3066  0.0896
    1W        W48134   3.228  18.790   7.674 -0.0319  0.2014 -0.1666
    1W        W48135   6.456  16.981   2.329 -0.0309  0.0425  0.2978
    1W        W48136  24.540  28.647   0.261  0.0931  0.1377 -0.0671
    1W        W48137  24.477  20.184   6.152  0.4149 -0.2253 -0.0548
    1W        W48138  11.795  27.682   0.472 -0.0188  0.1927  0.1720
    1W        W48139   9.529  19.164   0.423 -0.1294  0.0499  0.0626
    1W        W48140  13.222  13.466   8.218 -0.0333 -0.0566  0.0251
    1W        W48141  29.422  28.213   8.409  0.0247 -0.1956  0.0847
    1W        W48142   5.132   1.115   1.934 -0.1222  0.2627 -0.0838
    1W        W48143   5.700  18.614   2.030 -0.0115 -0.0749 -0.0919
    1W        W48144  23.929   4.556   0.495  0.0920  0.4599 -0.0061
    1W        W48145  14.823  16.476   7.493 -0.1318 -0.1740 -0.0220
    1W        W48146  18.695  18.802   7.129 -0.1066 -0.5019  0.3865
    1W        W48147   9.529  24.647   8.444  0.1943  0.4937 -0.2549
    1W        W48148  22.700  16.906   1.353 -0.0467 -0.1659  0.2449
    1W        W48149  11.662   2.057   2.330 -0.1869  0.0807  0.0782
    1W        W48150  13.188  15.644   7.404 -0.0138  0.0062 -0.1590
    1W        W48151  15.608  24.376   1.986  0.1527  0.3020 -0.2975
    1W        W48152   6.663   6.053   2.432  0.2152 -0.0022  0.0494
    1W        W48153  16.446  13.480   8.333  0.1144 -0.0780 -0.0448
    1W        W48154   1.876   0.342   0.960  0.2173  0.1256  0.1520
    1W        W48155  24.244  16.026   6.869 -0.1404 -0.1289 -0.2586
    1W        W48156  26.992  23.405   1.127 -0.0435 -0.2916 -0.1844
    1W        W48157  18.354  10.353   0.084  0.1189  0.2082 -0.0661
    1W        W48158   2.733  21.358   1.941  0.0349 -0.0811 -0.2533
    1W        W48159  24.623  20.051   2.114 -0.1690  0.1619 -0.0151
    1W        W48160   5.081  23.708   8.658 -0.0609  0.2531  0.0756
    1W        W48161   4.252  23.159   8.282  0.2552 -0.0564  0.1758
    1W        W48162  26.034  16.091   6.991  0.2387  0.0878  0.0401
    1W        W48163  29.426   8.823   7.651 -0.2578 -0.2328  0.3693
    1W        W48164  25.296   5.242   0.847  0.1189 -0.3582  0.0035
    1W        W48165  11.269  14.207   7.307  0.2684  0.0288 -0.0910
    1W        W48166  19.007   4.447   7.493  0.2153  0.2135 -0.0505
    1W        W48167   5.217  20.493   0.109 -0.2351  0.1294  0.0136
    1W        W48168  26.387  12.434   7.264  0.0281  0.1389  0.0914
    1W        W48169  22.012  18.425   6.668  0.0718 -0.1046  0.0588
    1W        W48170   8.407   4.119   2.823 -0.1659 -0.1791 -0.4438
    1W        W48171   1.322   2.522   0.905  0.0728  0.0075 -0.1176
    1W        W48172  11.618   6.111   2.120 -0.1834  0.1240  0.1154
    1W        W48173  12.512  17.682   8.106  0.3665 -0.0484  0.0338
    1W        W48174  27.926   0.248   8.665 -0.0354  0.0017 -0.0776
    1W        W48175  21.225  13.554   8.125  0.0082 -0.0008  0.0744
    1W        W48176  14.670   0.195   1.390 -0.1734 -0.0194  0.3142
    1W        W48177  20.509  23.969   0.421  0.3211 -0.0236 -0.0783
    1W        W48178  16.278   0.509   1.444  0.3206  0.2382  0.2089
    1W        W48179   2.065  22.430   1.345 -0.3056  0.0428 -0.0863
    1W        W48180   0.867  20.488   0.890 -0.2169 -0.0794  0.0262
    1W        W48181   8.201  10.400   7.622 -0.3047 -0.2516 -0.0823
    1W        W48182   1.346   9.097   2.524  0.1700 -0.0344 -0.0284
    1W        W48183  27.254  26.989   0.822  0.0469  0.0823  0.1608
    1W        W48184  25.865  28.801   1.429 -0.0847  0.1981 -0.1744
    1W        W48185  29.677  15.076   8.513 -0.0759  0.4693 -0.0549
    1W        W48186  18.683   2.337   3.480  0.0738  0.3135  0.1948
    1W        W48187   8.343   9.624   0.376 -0.0901  0.2810  0.0851
    1W        W48188  14.611  15.428   0.544 -0.0129 -0.0930 -0.2710
    1W        W48189  13.208   5.196   2.243 -0.0019 -0.1989  0.2039
    1W        W48190   7.817   8.927   8.428 -0.2703  0.2717  0.0045
    1W        W48191   5.068   9.482   8.721  0.1499  0.0630  0.0019
    1W        W48192   6.505   3.122   0.171  0.1192  0.0904  0.1660
    1W        W48193   3.817  28.712   2.297  0.2779  0.2583 -0.1430
    1W        W48194   0.681  26.259   0.463  0.1646  0.3629  0.0638
    1W        W48195   9.425  23.485   7.373  0.3440  0.0929 -0.3711
    1W        W48196  15.820  27.682   7.352 -0.1634  0.0563 -0.2175
    1W        W48197  12.355  28.966   9.367  0.1228  0.0866  0.2740
    1W        W48198   3.769  22.308   1.452 -0.1929 -0.0854 -0.0422
    1W        W48199  29.353  26.770   8.197 -0.1741  0.0912  0.0566
    1W        W48200   6.974   6.411   8.971 -0.3074  0.1741  0.1497
    1W        W48201   7.504  25.630   6.228 -0.0859 -0.0632 -0.0950
    1W        W48202   4.330   9.849   2.659  0.3072  0.2882 -0.1650
    1W        W48203  23.327   2.877   8.017  0.0548  0.1858  0.0737
    1W        W48204   2.082  19.174   0.855 -0.0290 -0.1714  0.1018
    1W        W48205  22.515  15.812   0.214 -0.0190 -0.3845  0.0172
    1W        W48206   8.978  21.169   8.586  0.3167  0.1304 -0.0543
    1W        W48207   9.976   6.949   3.090 -0.2989 -0.1245  0.1719
    1W        W48208  17.492   6.206   3.196  0.0413 -0.0534 -0.1118
    1W        W48209   3.775  11.340   7.722  0.1087 -0.0602  0.1669
    1W        W48210  23.165  28.972   2.199  0.1333  0.0724  0.1274
    1W        W48211  14.828  10.062   7.481  0.1743 -0.0219  0.1721
    1W        W48212  28.389   2.795   1.746 -0.3060  0.0418 -0.1437
    1W        W48213  17.254  19.345   6.313 -0.1620  0.1824  0.2543
    1W        W48214  23.182   3.415   2.205  0.0606 -0.2803 -0.0955
    1W        W48215   9.486   3.121   9.481  0.0836 -0.3456  0.1949
    1W        W48216  28.530  26.492   7.042  0.0078 -0.1390 -0.2201
    1W        W48217  22.087   9.559   0.306  0.1670  0.2073 -0.0432
    1W        W48218  19.270   2.586   6.550  0.1653 -0.2023 -0.2573
    1W        W48219  18.990  26.383   3.365 -0.0017 -0.1030 -0.2775
    1W        W48220  20.204  11.037   1.574 -0.0100  0.0765 -0.1234
    1W        W48221   2.773  13.913   7.283  0.0370 -0.0177 -0.2981
    1W        W48222  17.170  19.985   0.818  0.1068 -0.0422 -0.1927
    1W        W48223  23.937   0.719   2.353  0.0197  0.1188 -0.1769
    1W        W48224  23.416  23.313   9.423 -0.0954  0.1875 -0.0154
    1W        W48225   7.131   9.703   3.200 -0.2038 -0.1902  0.0858
    1W        W48226  17.362   3.550   7.689 -0.3859  0.0414 -0.2199
    1W        W48227  14.789  19.249   0.584  0.1213 -0.0904 -0.2863
    1W        W48228  12.575   7.908   2.628  0.1246 -0.1746 -0.0148
    1W        W48229  19.717  16.417   8.455  0.1473 -0.0998  0.2541
    1W        W48230   3.696  29.377   0.220 -0.2023 -0.2215 -0.1038
    1W        W48231  13.567   2.896   3.281  0.0269  0.0569  0.1716
    1W        W48232  20.015   7.338   9.505  0.2060  0.1693  0.1105
    1W        W48233   4.872  26.201   8.982  0.2221  0.2703  0.1602
    1W        W48234  28.755  24.140   0.314 -0.0838  0.0008 -0.3956
    1W        W48235   9.175  18.321   8.506 -0.1327  0.1100 -0.4554
    1W        W48236   4.475  13.865   7.730  0.1814  0.0996 -0.0031
    1W        W48237  26.414  25.332   1.760  0.1475  0.1596  0.1123
    1W        W48238  21.754  23.931   6.591  0.1690 -0.0205 -0.1354
    1W        W48239   0.918   9.447   7.781 -0.0860 -0.0044 -0.1300
    1W        W48240  25.068  27.510   6.938  0.2781  0.2662  0.0264
    1W        W48241   3.487  27.316   8.143  0.0787 -0.2469 -0.1144
    1W        W48242   5.107   9.939   8.646  0.0673 -0.2739 -0.0800
    1W        W48243  15.002  27.845   3.460 -0.0184 -0.0135  0.3699
    1W        W48244  22.178   0.493   0.456  0.0910 -0.1249 -0.3082
    1W        W48245  23.696   0.234   2.977 -0.2819 -0.0321  0.1852
    1W        W48246  20.880   3.388   1.287  0.0081 -0.2309 -0.2181
    1W        W48247  16.662  22.588   0.124 -0.0518  0.2989  0.0226
    1W        W48248  21.758  15.294   5.622 -0.1554 -0.3121 -0.1365
    1W        W48249  10.701  15.845   0.324  0.1778  0.0770  0.1889
    1W        W48250  10.535   0.889   8.209  0.3364 -0.1872  0.1200
    1W        W48251   1.008  10.609   1.421  0.1859 -0.2269 -0.3543
    1W        W48252  20.282  16.271   0.446 -0.2869 -0.2683 -0.1819
    1W        W48253  18.396  24.819   7.735 -0.1927  0.0241 -0.0021
    1W        W48254  18.657  21.407   7.756 -0.0967 -0.1031  0.1458
    1W        W48255  18.170   1.575   2.658 -0.1785  0.0728 -0.0031
    1W        W48256  22.737  29.332   0.420  0.2250 -0.2235 -0.0130
    1W        W48257  17.741  22.811   1.592  0.1365  0.1246  0.0124
    1W        W48258  16.298  12.679   0.295 -0.1763 -0.0456 -0.1812
    1W        W48259  13.996  29.783   7.262  0.2183  0.0262 -0.2591
    1W        W48260   8.685  15.059   8.833  0.1114 -0.0767 -0.1270
    1W        W48261  12.031  16.458   8.858 -0.2997  0.0213  0.0907
    1W        W48262  20.172  20.577   8.242  0.0450  0.2202  0.2671
    1W        W48263  22.826   7.306   3.518 -0.2587  0.0177  0.1301
    1W        W48264  16.013   4.552   4.197 -0.0797 -0.1021  0.0191
    1W        W48265  16.016   8.258   6.897 -0.1720  0.1380 -0.2117
    1W        W48266  11.897   2.943   7.733  0.1302 -0.1357  0.0579
    1W        W48267   8.741   3.747   7.711  0.0083 -0.3618 -0.1892
    1W        W48268   2.560  16.615   8.401 -0.0714 -0.1944 -0.0207
    1W        W48269   5.254  19.269   0.408 -0.1249 -0.1691  0.0089
    1W        W48270   7.537  11.085   7.679 -0.3149 -0.0987 -0.0494
    1W        W48271  19.360  14.525   2.513 -0.2369  0.0720  0.1896
    1W        W48272   0.026   3.065   7.576  0.0442  0.1735 -0.1410
    1W        W48273  22.915  13.437   6.374 -0.2137  0.0275 -0.3804
    1W        W48274  24.913  15.638   8.266  0.2137  0.2694  0.0420
    1W        W48275   7.955   5.939   1.858 -0.2188  0.1772  0.4851
    1W        W48276  19.000   6.203   6.797 -0.0913  0.1641 -0.1691
    1W        W48277   8.237  26.872   8.172 -0.1165 -0.1111 -0.0844
    1W        W48278  12.183  13.636   2.653  0.3528  0.1209 -0.0062
    1W        W48279  15.914  11.018   1.240  0.1975 -0.0961  0.0077
    1W        W48280   8.097   1.202   8.306 -0.0991 -0.2400  0.1717
    1W        W48281   3.005   4.314   2.255 -0.1899  0.1375 -0.1836
    1W        W48282  14.362  25.591   2.003 -0.0744 -0.1227 -0.0778
    1W        W48283   6.707  18.330   1.144 -0.0891 -0.2859  0.0381
    1W        W48284  27.298  24.233   1.358 -0.2702  0.0365 -0.1245
    1W        W48285  11.909  23.778   6.825  0.0030 -0.3354 -0.1517
    1W        W48286   9.960  23.242   7.042 -0.1067 -0.1955 -0.0114
    1W        W48287   6.409  22.239   1.054 -0.2551 -0.0784  0.1702
    1W        W48288   8.303   7.591   8.965 -0.0530 -0.2599 -0.1362
    1W        W48289  14.934  28.812   3.187 -0.4216  0.3102  0.0848
    1W        W48290  28.239   3.858   1.511 -0.0186  0.3861 -0.2284
    1W        W48291  27.313  17.907   0.568  0.0878 -0.0607  0.0742
    1W        W48292  16.092   0.564   0.854  0.2669  0.0296  0.0237
    1W        W48293  21.123  15.757   9.133  0.1876  0.1920  0.0546
    1W        W48294  21.484  24.414   8.293  0.0137  0.1484  0.1034
    1W        W48295  22.997  23.663   6.388  0.0677  0.4519  0.0861
    1W        W48296  16.805   2.082   8.839 -0.2969 -0.1304 -0.2460
    1W        W48297  16.597  25.238   8.601  0.2229  0.1088  0.1680
    1W        W48298  20.895  22.018   6.702 -0.3173  0.2603  0.1305
    1W        W48299   3.513  14.310   8.223  0.1924  0.3720  0.1549
    1W        W48300  16.073   4.171   2.672 -0.0744 -0.2385  0.2010
    1W        W48301  10.791  24.428   1.464  0.0319 -0.1505  0.1777
    1W        W48302   5.736  28.855   8.689  0.1617 -0.0978  0.3846
    1W        W48303   9.961   7.124   7.070 -0.0502 -0.1249 -0.0935
    1W        W48304  20.433  21.934   8.520 -0.1005 -0.3196 -0.1186
    1W        W48305   6.506   7.261   8.909  0.0983  0.1366  0.1401
    1W        W48306  25.088  19.333   8.644  0.0875 -0.7034 -0.3895
    1W        W48307  18.378  25.532   2.558  0.1100  0.0344 -0.1638
    1W        W48308  25.660   1.179   9.470  0.0760 -0.2238 -0.1603
    1W        W48309  14.598  10.317   2.228 -0.1544 -0.0253  0.0492
    1W        W48310  11.618   3.713   8.539  0.0547 -0.4468  0.0902
    1W        W48311  18.833  19.983   6.839  0.0254 -0.3706  0.0217
    1W        W48312   8.580   1.785   0.916 -0.0912 -0.0398  0.3081
    1W        W48313  28.359  17.814   6.281  0.4401 -0.0516  0.0561
    1W        W48314  28.907  11.128   9.518 -0.0677 -0.0566  0.2754
    1W        W48315  16.060   8.213   0.629 -0.1854 -0.3605  0.0292
    1W        W48316  27.838  14.012   6.839 -0.3702  0.3916  0.1996
    1W        W48317  24.589  27.193   9.264  0.0102  0.0824  0.0666
    1W        W48318  28.810  23.498   6.757  0.0822  0.2081 -0.4078
    1W        W48319  24.746  26.034   2.283  0.2153  0.1351 -0.2510
    1W        W48320  21.110   9.529   2.840  0.1635  0.0457 -0.0130
    1W        W48321   0.571  25.525   2.485  0.0381 -0.0310  0.0235
    1W        W48322   8.345  28.483   9.456 -0.0882 -0.4132  0.0753
    1W        W48323   6.569   5.968   7.915 -0.0977 -0.0573  0.0012
    1W        W48324  21.510  13.339   0.628 -0.1699 -0.0504  0.0161
    1W        W48325   4.440  16.449   7.435 -0.0362 -0.0110  0.1994
    1W        W48326  17.061  29.406   0.862 -0.0098  0.0966  0.3650
    1W        W48327  10.532  16.091   1.248 -0.0465  0.1749 -0.0009
    1W        W48328  11.865   1.101   0.103  0.2194  0.0773 -0.2370
    1W        W48329  12.098   8.829   3.475  0.0830 -0.6266  0.0109
    1W        W48330   7.540  23.995   1.753  0.1295 -0.0688  0.1871
    1W        W48331  24.063  25.143   0.097 -0.1256 -0.0976 -0.0756
    1W        W48332  29.797  27.277   2.980 -0.0398  0.0355  0.2053
    1W        W48333   7.427  12.936   6.884  0.0972  0.1136 -0.0563
    1W        W48334   5.000  15.451   8.213  0.1013  0.1177  0.0292
    1W        W48335   4.515  10.441   9.312  0.1314 -0.1770  0.5283
    1W        W48336   8.011  12.673   1.857 -0.0829  0.1741  0.0359
    1W        W48337   5.979   7.480   8.327 -0.0121 -0.2611 -0.2796
    1W        W48338  16.690  20.908   8.292  0.2578 -0.1580 -0.0737
    1W        W48339  18.567  22.852   6.887 -0.0443 -0.0227  0.2817
    1W        W48340   1.880  28.739   6.973 -0.1296 -0.0738  0.0496
    1W        W48341  26.393  10.366   8.393  0.3085 -0.2230  0.1480
    1W        W48342  26.110  23.886   9.388  0.2227  0.2207  0.0339
    1W        W48343  25.281  22.343   7.365 -0.0082 -0.0835  0.0934
    1W        W48344  29.231  13.552   1.595  0.0777  0.1707  0.1795
    1W        W48345   9.966  16.947   8.813  0.1837  0.3115 -0.1434
    1W        W48346  28.619  10.254   1.293  0.0662 -0.4905 -0.5787
    1W        W48347   1.052  25.170   1.067  0.2052 -0.0393 -0.0506
    1W        W48348   7.870   1.871   8.668 -0.1003  0.1295 -0.0764
    1W        W48349  24.870  29.410   1.074 -0.1528 -0.0337 -0.2821
    1W        W48350   4.417  15.752   9.335 -0.2240  0.0215 -0.1953
    1W        W48351  24.210  26.209   0.864 -0.1387  0.3389  0.0012
    1W        W48352  21.608   0.780   8.777 -0.2265  0.0805 -0.0457
    1W        W48353  17.132  15.010   9.256  0.0843 -0.2254 -0.2805
    1W        W48354   4.913   0.611   2.043 -0.0373  0.1604  0.0262
    1W        W48355  28.956   3.041   1.046  0.1278  0.2711  0.2424
    1W        W48356  29.341  16.464   9.551 -0.1731 -0.0233 -0.3971
    1W        W48357  11.218  23.309   7.141 -0.0582  0.1389 -0.1747
    1W        W48358  12.985  14.497   1.898  0.1456 -0.0952 -0.0833
    1W        W48359  23.603  12.605   0.210 -0.3511  0.1690  0.1469
    1W        W48360  20.748  25.338   1.479  0.1761 -0.0232  0.4008
    1W        W48361  16.584   7.864   8.153  0.2938  0.1572  0.0077
    1W        W48362  26.213  25.230   0.917 -0.0285 -0.1780  0.1309
    1W        W48363  24.061  11.366   0.718 -0.0477  0.2396  0.0694
    1W        W48364   6.735  18.694   9.200 -0.0435 -0.2047  0.3761
    1W        W48365   9.626  12.896   0.379 -0.1988  0.1109  0.0607
    1W        W48366  26.135  28.014   0.418 -0.2850 -0.1817  0.0072
    1W        W48367   7.699   4.119   1.026 -0.2243 -0.2716 -0.3077
    1W        W48368  20.080   0.060   2.483 -0.1250  0.4076 -0.0338
    1W        W48369  29.759  23.300   1.969 -0.1107  0.1520 -0.0712
    1W        W48370   1.213  17.348   1.485  0.0222 -0.0781 -0.1464
    1W        W48371   3.501  11.941   7.156  0.0562  0.1386  0.0051
    1W        W48372   1.693   5.326   8.739  0.1324  0.0799  0.1956
    1W        W48373  26.104  25.595   0.530 -0.2136 -0.1158 -0.0813
    1W        W48374   7.426   4.895   8.292  0.1642 -0.1277 -0.4549
    1W        W48375  12.918   1.872   2.757  0.2747 -0.0800  0.2629
    1W        W48376   3.109  24.475   9.239  0.1106 -0.0076 -0.0981
    1W        W48377  12.128   0.880   1.339 -0.0506  0.0816  0.0400
    1W        W48378  26.646  18.924   0.353  0.0555  0.1473  0.1805
    1W        W48379   3.985  23.860   2.137 -0.1244 -0.1031  0.1553
    1W        W48380   6.916   7.384   8.642 -0.0481  0.0295  0.0377
    1W        W48381   1.473  11.891   6.431 -0.1474 -0.3717 -0.0878
    1W        W48382  26.932  14.875   1.298 -0.1940  0.0858 -0.2465
    1W        W48383   4.550  18.273   8.558  0.1693 -0.2151  0.1192
    1W        W48384  11.381  25.658   7.202  0.1720  0.0750  0.0166
    1W        W48385  16.233  11.566   1.856 -0.1953  0.2501 -0.0685
    1W        W48386   9.339  25.982   7.736  0.1961 -0.2333  0.3400
    1W        W48387   4.700   7.789   2.790  0.0417  0.1784 -0.0176
    1W        W48388  17.261  14.058   6.575 -0.2966  0.0356  0.0639
    1W        W48389  16.699   1.896   0.589  0.0796  0.2286  0.1074
    1W        W48390  13.263  11.977   7.309  0.0306  0.2024 -0.0194
    1W        W48391  22.339   1.444   0.249 -0.4839  0.3462 -0.0474
    1W        W48392  20.079   9.903   7.574 -0.1274  0.0400  0.1066
    1W        W48393  21.062  11.647   7.419 -0.2504  0.4117  0.1327
    1W        W48394   1.275  19.392   7.103  0.3213 -0.0557  0.0792
    1W        W48395   6.131  25.391   3.134  0.1371 -0.0753 -0.3052
    1W        W48396  10.855  27.725   0.644 -0.0621 -0.1856 -0.0987
    1W        W48397  28.642  26.178   1.491 -0.0861 -0.0751 -0.2551
    1W        W48398  23.081  24.066   6.075  0.2354  0.1322  0.3103
    1W        W48399   6.295  11.276   0.496  0.0730  0.2031  0.0162
    1W        W48400  27.300  21.889   2.280  0.0113  0.1633 -0.1373
    1W        W48401   8.844   8.211   8.024 -0.0746 -0.0709  0.0043
    1W        W48402  25.809   6.986   0.621  0.1371  0.0327 -0.1273
    1W        W48403  28.049  16.629   8.040  0.1992 -0.3024 -0.1555
    1W        W48404  15.264   0.223   2.441 -0.0836 -0.2555 -0.0291
    1W        W48405  15.098  14.425   2.185 -0.0273  0.2834  0.1373
    1W        W48406  27.766  26.223   3.148  0.0517  0.0695 -0.3100
    1W        W48407   3.876  11.887   9.515 -0.2955  0.2677  0.1125
    1W        W48408  17.244  22.593   7.147  0.0386 -0.1541  0.1677
    1W        W48409   5.204  25.613   2.610 -0.0659 -0.0898  0.5599
    1W        W48410  13.763  29.631   7.678  0.0718 -0.0977 -0.0695
    1W        W48411  15.992   1.127   2.426 -0.0080 -0.0694 -0.1345
    1W        W48412   8.517  15.459   1.351 -0.0962  0.0639 -0.2376
    1W        W48413   5.040   6.969   1.479  0.2950  0.3010  0.0590
    1W        W48414  23.983  19.074   7.764  0.3144  0.0933 -0.4711
    1W        W48415  22.335   4.357   7.724  0.1019  0.2378 -0.0622
    1W        W48416  19.915  29.679   9.422 -0.0059  0.1320 -0.0041
    1W        W48417  25.078  29.548   2.959  0.6260 -0.2382 -0.0751
    1W        W48418   0.193   6.850   8.856  0.2683 -0.0316 -0.0716
    1W        W48419  18.726   0.091   1.818  0.0478 -0.2968  0.0400
    1W        W48420  22.388   7.120   3.504  0.1625  0.2036 -0.1500
    1W        W48421   7.162  22.939   6.063  0.1129 -0.0360 -0.1307
    1W        W48422  14.338   5.150   0.513  0.0395  0.0220 -0.0428
    1W        W48423  29.397  14.029   1.523 -0.1904 -0.0786 -0.2073
    1W        W48424   7.972  25.365   2.332 -0.2996 -0.0363 -0.0233
    1W        W48425   2.765  29.087   0.513  0.4059  0.2417  0.0886
    1W        W48426  11.380   0.626   8.863 -0.3664 -0.0655 -0.2789
    1W        W48427  15.835  14.850   1.142  0.0638 -0.0542 -0.3631
    1W        W48428  21.646  18.841   0.045 -0.0464  0.2608  0.2190
    1W        W48429  23.900   7.913   2.232  0.2627  0.3433  0.0009
    1W        W48430  26.526  10.778   1.508 -0.0203  0.0738  0.0159
    1W        W48431  18.348  24.955   9.360  0.0789  0.3077 -0.0136
    1W        W48432   5.566  18.925   7.610 -0.1574 -0.1849  0.1239
    1W        W48433  12.227  24.018   6.590 -0.1297 -0.2625 -0.1194
    1W        W48434  26.335  17.032   0.692 -0.0924  0.0291 -0.1364
    1W        W48435  24.044  19.697   0.203 -0.3805 -0.4223  0.1040
    1W        W48436   3.580  29.500   2.094 -0.3297  0.1295 -0.0614
    1W        W48437  12.141  26.549   8.608 -0.0949 -0.0254 -0.0235
    1W        W48438  29.143  13.239   7.631  0.0274 -0.0789  0.0822
    1W        W48439   5.856  21.848   8.822  0.0876  0.1415  0.1235
    1W        W48440   6.403  16.597   8.134 -0.0852 -0.2047  0.1468
    1W        W48441   5.671  17.761   8.383  0.2873 -0.1545  0.2306
    1W        W48442  13.615   7.246   8.886 -0.0199 -0.0675 -0.4203
    1W        W48443   4.721  12.717   0.851  0.2309 -0.0907  0.2525
    1W        W48444   6.097  21.786   1.047  0.0127  0.1711 -0.1156
    1W        W48445  28.011  20.262   5.309 -0.1746 -0.1131  0.0318
    1W        W48446  29.736  21.950   1.979 -0.0609 -0.5243 -0.2550
    1W        W48447  20.243  26.075   3.092 -0.0605  0.0099 -0.0181
    1W        W48448  18.829  16.221   6.348  0.1179 -0.2057 -0.2344
    1W        W48449  19.244  12.123   2.232  0.0147  0.1900  0.0692
    1W        W48450  10.967  20.984   7.968  0.1010  0.1874  0.0337
    1W        W48451   4.167   1.251   1.762 -0.0545 -0.1661 -0.3879
    1W        W48452  24.804  10.937   1.788  0.1004 -0.2402  0.1244
    1W        W48453   3.754   1.009   0.437 -0.1278  0.0220 -0.2366
    1W        W48454  28.821  17.925   6.185  0.2707 -0.1226  0.0411
    1W        W48455   0.652   0.785   1.442  0.0059 -0.1286 -0.2662
    1W        W48456  16.820  27.632   1.360  0.0303  0.0337 -0.1835
    1W        W48457  13.198  21.206   8.413  0.0140 -0.1934  0.0557
    1W        W48458  25.526   5.183   7.991 -0.1558 -0.1943 -0.0005
    1W        W48459  13.582   4.838   2.293  0.0750 -0.0936  0.2667
    1W        W48460  28.315   9.865   1.989  0.0291 -0.1628 -0.0093
    1W        W48461  22.193  14.499   1.606  0.0362 -0.1442 -0.0181
    1W        W48462  15.498   1.856   9.436  0.1498 -0.2211  0.0037
    1W        W48463   0.064  11.143   1.573 -0.0444 -0.0192  0.0419
    1W        W48464   0.904  11.558   8.257 -0.1412 -0.0517 -0.3832
    1W        W48465  23.864   8.865   1.234 -0.2545  0.0982 -0.0699
    1W        W48466  25.471   1.237   2.494 -0.0710  0.1391  0.0703
    1W        W48467  10.752  21.781   8.337 -0.1744 -0.2060  0.3799
    1W        W48468   3.914  15.487   7.470  0.0525  0.0121 -0.1863
    1W        W48469   5.383   0.443   1.259 -0.1153  0.1715 -0.3903
    1W        W48470  29.630  19.902   1.802 -0.0940  0.1684 -0.1439
    1W        W48471  20.050   9.189   0.424 -0.0088  0.3928  0.2940
    1W        W48472   9.030  26.390   8.097  0.1283  0.2104 -0.1985
    1W        W48473  23.046  20.582   0.403  0.0935  0.1126  0.2981
    1W        W48474  22.927  17.408   7.659  0.2330 -0.0777  0.2623
    1W        W48475   3.234  16.018   9.324  0.1619 -0.2148 -0.1849
    1W        W48476   3.816  14.563   8.505  0.1738  0.0693 -0.2943
    1W        W48477   8.174   5.831   3.251 -0.1953 -0.0931  0.1349
    1W        W48478  23.127  15.578   6.646 -0.0656 -0.0534 -0.1665
    1W        W48479  21.439  13.105   8.374  0.0776 -0.1091  0.1633
    1W        W48480  24.342  10.879   1.213 -0.0695  0.3031  0.1830
    1W        W48481  18.289  14.617   6.835 -0.0613 -0.0078 -0.1309
    1W        W48482  25.705  21.124   9.485 -0.0883  0.0408  0.0314
    1W        W48483  27.610   4.387   0.904 -0.0484 -0.2511  0.1376
    1W        W48484   4.251   8.005   2.700  0.1931 -0.0523  0.0480
    1W        W48485   0.233  12.243   7.685 -0.1656  0.0047  0.1286
    1W        W48486  12.091  20.374   0.841  0.1095  0.1397  0.0198
    1W        W48487  24.198  11.940   0.373  0.1025 -0.1054 -0.0783
    1W        W48488  10.044  24.670   0.597 -0.0243 -0.0111  0.0837
    1W        W48489  29.029   3.855   7.543 -0.1237  0.1634 -0.2567
    1W        W48490  27.715   5.096   8.357  0.0871 -0.0765 -0.1481
    1W        W48491  13.431   0.908   8.498  0.0541  0.1835  0.2505
    1W        W48492  24.815  14.027   0.935  0.0574 -0.0080 -0.0371
    1W        W48493   2.443   5.958   3.429  0.0208  0.1788 -0.0477
    1W        W48494  15.536  17.624   1.317 -0.2935 -0.0151 -0.1037
    1W        W48495  11.536   0.120   1.682  0.0903  0.0459  0.0458
    1W        W48496  25.659  21.015   6.698 -0.3364  0.1266 -0.1841
    1W        W48497   4.200   6.347   1.633 -0.1806 -0.2024  0.0434
    1W        W48498  15.162  14.303   7.883 -0.0521  0.2414  0.1260
    1W        W48499  16.294  15.403   8.775 -0.0057 -0.2158 -0.0320
    1W        W48500  12.575  15.972   8.242  0.1981 -0.0225  0.0310
    1W        W48501  15.298  21.590   7.484  0.1712 -0.0444  0.3701
    1W        W48502  20.436  10.110   0.762 -0.0857  0.3751  0.1375
    1W        W48503  29.459  23.470   1.286  0.2904  0.4031 -0.3322
    1W        W48504   9.893  23.989   7.712  0.1558  0.2087  0.1361
    1W        W48505  14.510  29.029   7.404  0.2368  0.1139  0.2380
    1W        W48506   8.729  12.720   0.705 -0.1945 -0.1215 -0.1519
    1W        W48507   7.440  28.557   8.213 -0.0796 -0.2893 -0.3104
    1W        W48508   8.036  22.179   6.586  0.3818  0.0958  0.3818
    1W        W48509  17.480  10.854   0.225 -0.0314 -0.0281  0.0590
    1W        W48510   5.714  15.663   2.693 -0.2203 -0.0969 -0.2264
    1W        W48511  20.206  26.520   2.790 -0.2446  0.3211  0.0631
    1W        W48512  14.895  14.505   1.247 -0.0306 -0.0767  0.1157
    1W        W48513  22.875  25.303   3.072  0.1642  0.3641 -0.0867
    1W        W48514  16.684  24.644   8.811  0.2551 -0.2709 -0.0949
    1W        W48515  24.405  20.396   7.935 -0.3367 -0.0229 -0.0287
    1W        W48516  17.880  14.200   6.705  0.3453  0.3039 -0.2298
    1W        W48517  12.713   7.559   3.009 -0.2465 -0.1025 -0.1510
    1W        W48518  15.717   2.415   8.384 -0.1105 -0.1425 -0.0557
    1W        W48519  14.144  19.984   7.077  0.0621  0.0145 -0.2502
    1W        W48520  10.928   7.608   7.806 -0.1155  0.1698 -0.2807
    1W        W48521  23.508  23.159   6.506 -0.0574 -0.1641  0.0326
    1W        W48522  27.871  16.906   6.648  0.1491 -0.1745  0.1524
    1W        W48523  22.011  21.385   9.544  0.0536 -0.1346 -0.1845
    1W        W48524   1.907  14.705   7.949  0.0264 -0.2493 -0.0353
    1W        W48525  10.180   4.174   1.857 -0.0287  0.1163  0.0854
    1W        W48526   4.834  21.472   0.415 -0.0532  0.2702 -0.2098
    1W        W48527  10.004  11.368   9.301 -0.0266  0.1866  0.0727
    1W        W48528  14.415   6.707   8.893 -0.1444 -0.1317 -0.0060
    1W        W48529  22.529  26.703   1.645 -0.1786 -0.1025 -0.0960
    1W        W48530   3.660  27.390   6.503  0.0594 -0.0159  0.0165
    1W        W48531  29.596  19.487   1.425 -0.0630 -0.1870  0.0115
    1W        W48532   6.861  22.105   2.950  0.0671 -0.0543 -0.2249
    1W        W48533  11.518  26.690   2.765  0.3553 -0.0940 -0.1986
    1W        W48534  28.812   5.187   1.270 -0.2022 -0.0697  0.0956
    1W        W48535  17.247  18.613   2.515 -0.5056 -0.0310  0.0421
    1W        W48536  24.266   3.168   1.467 -0.3094  0.1698 -0.0382
    1W        W48537  17.821   1.150   3.205  0.1127 -0.1412 -0.2303
    1W        W48538   9.338   2.807   1.924  0.0193  0.1989  0.4549
    1W        W48539  19.184  21.201   9.385  0.1140  0.0273 -0.2581
    1W        W48540  19.408   9.196   8.602 -0.1028  0.0205 -0.1282
    1W        W48541  26.486  20.873   8.700 -0.3458 -0.1104  0.2001
    1W        W48542   4.215   7.388   3.507 -0.3819 -0.1861 -0.2417
    1W        W48543   4.872   5.429   2.624  0.2152  0.0716  0.1557
    1W        W48544   8.326  15.459   9.031  0.0260 -0.1408  0.0669
    1W        W48545   0.746   0.135   6.194 -0.3131  0.1221 -0.2115
    1W        W48546   6.706   6.592   1.387 -0.2951 -0.0841  0.2366
    1W        W48547   4.407  29.016   1.950  0.0085 -0.1553  0.0870
    1W        W48548  15.908  15.005   7.424 -0.3430  0.1846 -0.0646
    1W        W48549  13.809   9.465   6.036 -0.0195 -0.1559  0.0697
    1W        W48550  19.092  24.526   9.047  0.2503 -0.0709 -0.3311
    1W        W48551  23.920   2.383   8.527 -0.0135  0.1442 -0.0494
    1W        W48552  21.395  24.831   7.007  0.1540 -0.1457  0.0126
    1W        W48553  19.001  25.425   7.175  0.1463  0.0520  0.0176
    1W        W48554  15.544  23.713   7.285 -0.1743  0.4397 -0.1345
    1W        W48555  14.740   3.261   1.391 -0.2135  0.1200  0.3052
    1W        W48556  16.185  20.681   1.617  0.1626  0.2252  0.0081
    1W        W48557  18.501  28.464   1.559  0.3377 -0.0613  0.2332
    1W        W48558  20.798  21.688   1.609  0.1311 -0.1163 -0.0149
    1W        W48559  14.321   2.729   2.019 -0.3070  0.1514 -0.0277
    1W        W48560  27.649   0.896   1.055  0.3792 -0.1363 -0.0238
    1W        W48561  12.743  27.927   1.671 -0.0479  0.2005  0.0722
    1W        W48562  15.421   0.149   7.419  0.2893 -0.0670 -0.1375
    1W        W48563   5.147  27.843   0.057 -0.0181  0.1905  0.1771
    1W        W48564   6.263  27.836   7.534 -0.2730 -0.4358 -0.3526
    1W        W48565   1.060  25.326   2.395  0.0572 -0.0341  0.1799
    1W        W48566   1.345   8.583   1.594  0.3539  0.1371 -0.1280
    1W        W48567  17.261  26.442   7.418 -0.1460  0.1057 -0.0881
    1W        W48568   5.348  25.907   2.966 -0.0534 -0.0560  0.0656
    1W        W48569  19.616  19.029   2.414  0.2427 -0.2340 -0.0819
    1W        W48570  17.276   4.144   2.908  0.0378  0.0728 -0.0062
    1W        W48571  12.286  23.826   7.238 -0.1094 -0.2639 -0.0957
    1W        W48572  17.503  23.867   2.212  0.3539  0.2801  0.0585
    1W        W48573  26.317  11.138   8.017  0.2762 -0.2077 -0.0921
    1W        W48574  14.962   5.305   2.354 -0.1171 -0.3225  0.1896
    1W        W48575  16.809  16.499   2.858  0.1679 -0.2422 -0.0434
    1W        W48576  17.339   6.253   8.906  0.1184 -0.1230  0.2172
    1W        W48577  21.586  16.526   5.510  0.1001 -0.0337 -0.0410
    1W        W48578  28.849  10.411   7.298 -0.1483  0.0410  0.0890
    1W        W48579  26.823  26.990   8.012 -0.0434  0.0954  0.0403
    1W        W48580   7.828  26.154   9.372 -0.2260  0.1289 -0.2131
    1W        W48581   0.294  25.175   2.383 -0.2526 -0.3237 -0.1010
    1W        W48582  12.970  17.510   8.084  0.0034 -0.0637 -0.0856
    1W        W48583  16.830  20.387   7.736 -0.2315 -0.0822 -0.2785
    1W        W48584   0.562  25.328   1.033 -0.1224  0.0711 -0.0593
    1W        W48585  13.413   2.242   0.965  0.2063  0.0138  0.0183
    1W        W48586  15.771  15.197   8.772  0.0361  0.3433 -0.2392
    1W        W48587  27.384  10.082   7.493  0.3553 -0.1082 -0.2443
    1W        W48588  18.684   7.562   8.320  0.1338  0.0812 -0.1618
    1W        W48589   2.050   3.573   1.345 -0.1100 -0.1795 -0.2366
    1W        W48590  10.906  14.609   1.085 -0.0212  0.0958 -0.0217
    1W        W48591   0.648  16.031   8.025  0.0713 -0.1284 -0.1600
    1W        W48592   1.129  20.739   2.091 -0.4240 -0.1157  0.1022
    1W        W48593  19.997  23.043   8.607  0.0328  0.0453  0.0498
    1W        W48594  11.021   7.086   1.307 -0.1073  0.0535  0.1545
    1W        W48595  21.137  12.442   7.744 -0.0557  0.0984 -0.1531
    1W        W48596  17.954  11.474   6.960 -0.2082 -0.1850  0.0603
    1W        W48597  11.570  28.908   9.027 -0.2061 -0.0089  0.1091
    1W        W48598  12.741  22.515   1.831  0.0200 -0.1565  0.1960
    1W        W48599   7.294   8.920   7.898  0.0754 -0.1552  0.2467
    1W        W48600   7.261  21.735   2.240  0.0433  0.1824  0.0618
    1W        W48601   8.876  27.731   8.199 -0.0644  0.2401 -0.1150
    1W        W48602   5.403  18.744   8.321  0.0976 -0.3027 -0.0402
    1W        W48603  28.920  14.179   0.455 -0.5100  0.0571  0.1642
    1W        W48604  20.030  22.407   8.230 -0.1186 -0.2757 -0.0375
    1W        W48605  10.499   6.500   7.283 -0.2741  0.1239 -0.1309
    1W        W48606   4.647   5.423   7.652 -0.3044  0.0510 -0.0716
    1W        W48607   8.414   0.557   9.000  0.1637 -0.0651  0.0795
    1W        W48608  19.423  10.977   9.410 -0.0687 -0.1419  0.0863
    1W        W48609  12.824   7.471   7.980  0.1539 -0.1679 -0.0629
    1W        W48610   2.723  26.807   6.422  0.2233 -0.2513  0.0015
    1W        W48611  20.484  18.999   2.121  0.3648  0.0737 -0.0010
    1W        W48612  13.659  20.513   1.233 -0.1023 -0.1704 -0.1364
    1W        W48613   1.272  13.559   7.310 -0.1075  0.1840 -0.1869
    1W        W48614  16.370  27.874   1.949 -0.0205 -0.0049 -0.1844
    1W        W48615  29.411   2.065   2.342 -0.2542  0.0386 -0.0813
    1W        W48616  20.256  22.350   0.915  0.2348  0.1940  0.1219
    1W        W48617  14.003   0.551   2.084 -0.0605  0.0950 -0.0133
    1W        W48618   9.403  25.540   7.533  0.1594  0.0483  0.1031
    1W        W48619  26.054  26.384   0.603  0.1885  0.3020  0.1219
    1W        W48620  26.103  17.905   7.208  0.0980 -0.0202 -0.2741
    1W        W48621   5.515  27.472   1.899 -0.1666 -0.1763 -0.3827
    1W        W48622  25.010  13.832   6.789  0.0438 -0.1207 -0.2291
    1W        W48623  19.151  22.652   0.419  0.0635 -0.2983 -0.1058
    1W        W48624  29.705  13.163   7.853  0.1775 -0.1221 -0.1504
    1W        W48625  15.171   5.535   2.979  0.0927  0.3953  0.0663
    1W        W48626  14.495  16.228   7.132 -0.2305  0.1391  0.3090
    1W        W48627  13.599   8.099   2.667  0.2605  0.0383  0.0891
    1W        W48628  29.108  10.920   6.544  0.0181 -0.2529  0.1082
    1W        W48629   5.232  17.277   1.117  0.1417 -0.1806 -0.0712
    1W        W48630  15.854  26.785   9.372 -0.0697  0.0614  0.1530
    1W        W48631  15.535   1.012   7.785  0.2549 -0.0065  0.0838
    1W        W48632  10.799   5.459   2.511 -0.1719  0.2279  0.0276
    1W        W48633  29.589   9.181   6.706 -0.0708 -0.1663  0.1848
    1W        W48634   6.883  24.043   7.596 -0.3012  0.0091 -0.0579
    1W        W48635  17.251   7.627   1.484  0.1533  0.1336  0.2825
    1W        W48636  29.118   7.193   0.809 -0.1281 -0.1293 -0.0577
    1W        W48637  23.082  28.286   9.409  0.0972 -0.0342 -0.2328
    1W        W48638   6.266   0.518   1.896  0.0470  0.0542  0.0434
    1W        W48639   8.087  16.141   7.714  0.0007  0.0173 -0.0748
    1W        W48640  26.056  16.079   7.503  0.1989 -0.2455 -0.1615
    1W        W48641  20.202  23.117   6.547 -0.0871  0.0921 -0.2196
    1W        W48642  20.626  26.666   0.561 -0.0949 -0.1466  0.1218
    1W        W48643  26.746  19.009   6.013 -0.1266  0.2592 -0.0830
    1W        W48644   5.917  25.807   7.406 -0.1645  0.1285  0.2730
    1W        W48645  26.813  28.470   8.429  0.1119  0.0485  0.1540
    1W        W48646  25.902   6.106   0.161  0.2355 -0.0652  0.1983
    1W        W48647   1.207  16.953   6.081 -0.3803  0.1735 -0.2776
    1W        W48648  12.758   1.845   0.053  0.0399 -0.1136 -0.1430
    1W        W48649   8.473   8.112   6.700 -0.0187 -0.2718 -0.0687
    1W        W48650  28.488  19.169   6.609  0.1070 -0.0277  0.1752
    1W        W48651   7.484  18.592   1.577  0.2240  0.0002  0.1278
    1W        W48652  29.224  10.680   1.249 -0.0010  0.0633 -0.0196
    1W        W48653   5.481  19.856   1.400  0.2920 -0.1300 -0.1297
    1W        W48654  11.599  19.174   8.998  0.2323  0.0128  0.1130
    1W        W48655  19.860   4.820   1.814 -0.0935 -0.0263 -0.0830
    1W        W48656  29.586  28.321   8.965  0.0528  0.1289  0.0769
    1W        W48657  20.253   6.626   2.079 -0.1145 -0.1375  0.0459
    1W        W48658   1.956   9.325   8.705 -0.1084  0.2502 -0.0278
    1W        W48659   9.870  21.323   8.523  0.0505  0.2363  0.0428
    1W        W48660  29.486  27.851   8.838  0.0059  0.0531 -0.0970
    1W        W48661  28.071  27.647   1.752 -0.0903  0.0148  0.0149
    1W        W48662   6.517   3.727   7.952 -0.0181  0.2095  0.0613
    1W        W48663   6.283   9.118   1.270  0.0630 -0.0438 -0.1649
    1W        W48664  12.251   8.363   2.242 -0.1544  0.0373  0.1994
    1W        W48665   7.751  27.020   1.646 -0.1658 -0.3924  0.1246
    1W        W48666  23.410  27.001   9.476 -0.2252 -0.1926 -0.0131
    1W        W48667  16.166  21.623   7.142 -0.0016 -0.0519  0.0218
    1W        W48668   4.381  17.135   1.579  0.0676  0.0765 -0.0726
    1W        W48669  20.844   6.086   7.472 -0.2088 -0.1178  0.1210
    1W        W48670  19.418   5.362   9.490 -0.1839 -0.2235  0.0073
    1W        W48671  28.983  28.318   3.137 -0.0463 -0.2202 -0.1730
    1W        W48672  13.421  24.029   0.131 -0.1314 -0.2530 -0.1165
    1W        W48673  27.771  12.000   1.866  0.2106 -0.0059  0.0372
    1W        W48674   6.601   3.718   0.420 -0.2486  0.2000 -0.0944
    1W        W48675  12.856   2.602   0.122  0.3829 -0.2104 -0.0001
    1W        W48676  21.188  23.124   6.509  0.0885 -0.0944 -0.0968
    1W        W48677  26.030  22.345   8.742  0.0120 -0.0324 -0.2595
    1W        W48678  25.121  21.129   9.348 -0.0368  0.1560  0.1873
    1W        W48679  23.224  28.392   8.179  0.1063  0.1394  0.0641
    1W        W48680  22.943  15.142   6.719 -0.0439 -0.1821  0.0582
    1W        W48681   3.387  25.767   0.890 -0.1582  0.0179 -0.0504
    1W        W48682  10.608   5.584   9.278 -0.2496 -0.0805 -0.1644
    1W        W48683  16.608  28.214   8.759  0.0665 -0.1284  0.0230
    1W        W48684  14.336  10.062   3.435  0.1411 -0.1378 -0.3325
    1W        W48685  27.832   4.657   8.498 -0.3280 -0.0307  0.1238
    1W        W48686   5.538   3.526   2.473 -0.0041 -0.1969 -0.0752
    1W        W48687   6.256   1.325   2.166 -0.3195  0.0706  0.0937
    1W        W48688   4.248  20.782   9.061  0.3565 -0.4127 -0.1462
    1W        W48689   4.071  10.709   9.439 -0.2536 -0.1463 -0.0749
    1W        W48690   4.620   9.691   9.278 -0.1112  0.1177  0.1572
    1W        W48691  16.392  29.224   6.952 -0.2007  0.1972  0.0186
    1W        W48692  11.542   9.241   6.707  0.1790  0.0046 -0.1673
    1W        W48693  16.239  10.817   0.261 -0.0491 -0.1485 -0.3096
    1W        W48694  22.780  26.598   1.228 -0.2788 -0.0748 -0.2535
    1W        W48695  13.003  24.656   8.676  0.2219 -0.1051  0.0392
    1W        W48696   5.464  24.457   9.397 -0.0212 -0.0940  0.0752
    1W        W48697   5.287  14.264   1.613  0.2027  0.2019 -0.0192
    1W        W48698  27.538  12.464   0.802  0.0060  0.2890 -0.0944
    1W        W48699   7.990  29.576   9.149  0.3014 -0.2385  0.0865
    1W        W48700   0.078   8.498   1.960 -0.0598  0.0781 -0.0671
    1W        W48701   9.774  28.914   3.190 -0.1409 -0.1022  0.3221
    1W        W48702  18.104   7.414   0.729  0.3795 -0.1490 -0.0629
    1W        W48703   4.515   1.939   1.491 -0.3409 -0.0648 -0.1396
    1W        W48704  11.828  24.826   0.913 -0.1365  0.0791 -0.0578
    1W        W48705  15.889   8.243   7.751 -0.0016  0.1149 -0.0273
    1W        W48706  28.525  23.517   8.499  0.0074 -0.0249  0.1153
    1W        W48707   2.751  19.162   8.202 -0.0937  0.0799 -0.0190
    1W        W48708  29.780  16.897   7.956 -0.0747 -0.1126 -0.0221
    1W        W48709  27.771   9.872   7.989  0.2204  0.0998  0.0977
    1W        W48710  15.357  15.845   9.183  0.2435  0.0659 -0.0883
    1W        W48711  25.757  22.534   7.230 -0.0372  0.0799  0.0255
    1W        W48712  16.317  27.603   0.984 -0.0798 -0.1308 -0.2414
    1W        W48713  11.378   4.689   0.683 -0.0771  0.1086  0.4066
    1W        W48714   6.043  10.355   2.775  0.1189 -0.0149 -0.0306
    1W        W48715  15.661   5.445   9.290  0.0117  0.2372  0.0264
    1W        W48716   8.758  22.180   8.863 -0.0495 -0.1892 -0.1735
    1W        W48717   6.899  15.407   8.515 -0.1539  0.0736 -0.1328
    1W        W48718  10.338   4.444   0.641  0.1392 -0.4985  0.1265
    1W        W48719  29.358  11.494   7.701 -0.0337  0.0023 -0.0232
    1W        W48720  11.756   7.347   7.742  0.1121  0.2261 -0.0585
    1W        W48721   2.560  23.335   7.429 -0.0132 -0.0577 -0.1971
    1W        W48722  14.206  17.662   0.368 -0.0673  0.0415 -0.0890
    1W        W48723  21.274  15.137   5.490 -0.2913  0.1088 -0.1541
    1W        W48724  20.952   2.388   1.584 -0.0941  0.0472  0.0463
    1W        W48725  11.011  27.345   7.762  0.0301 -0.0438  0.0694
    1W        W48726  20.789  12.656   6.850 -0.1822  0.0529  0.1258
    1W        W48727   2.635  25.748   7.044 -0.2030  0.0875  0.0937
    1W        W48728   0.614   9.117   0.743  0.3916 -0.0774  0.0764
    1W        W48729   8.841  26.194   7.458 -0.0558  0.0941 -0.1108
    1W        W48730   1.003  28.772   3.115  0.4033  0.0700 -0.1638
    1W        W48731  14.711  24.954   8.104  0.1660  0.0919  0.2368
    1W        W48732   1.795  18.660   8.521  0.0688 -0.0736 -0.0704
    1W        W48733  13.686  23.662   7.019  0.0695  0.1416 -0.3588
    1W        W48734  22.964  18.652   7.537  0.2130 -0.0354  0.0422
    1W        W48735  11.104  21.974   1.972 -0.1691  0.1050 -0.1455
    1W        W48736  23.848  26.174   9.553  0.0643  0.3769  0.4604
    1W        W48737  15.341  10.500   0.508 -0.0018 -0.1269  0.2988
    1W        W48738  12.670  28.942   7.231  0.3899  0.1874 -0.1092
    1W        W48739  23.855  21.084   0.491 -0.3350  0.4465  0.0922
    1W        W48740  11.550  10.479   2.738  0.0761  0.1582  0.0647
    1W        W48741   2.414  24.400   7.091 -0.1421 -0.0136 -0.2930
    1W        W48742  13.414  24.107   0.652  0.1232 -0.1399  0.2382
    1W        W48743   5.797   5.909   0.869 -0.1582  0.0238 -0.0086
    1W        W48744   4.926   4.372   0.748 -0.1856 -0.0116  0.0067
    1W        W48745  25.677  17.335   1.493  0.0949 -0.1354 -0.0198
    1W        W48746  26.036  15.995   5.835 -0.1219 -0.1211  0.2913
    1W        W48747   6.500  13.915   7.455  0.0830  0.0496  0.1290
    1W        W48748   8.541   7.473   3.408 -0.0674 -0.3343 -0.0569
    1W        W48749  21.063   0.516   8.871 -0.2037 -0.0372  0.2312
    1W        W48750  13.448   6.543   0.085  0.1427  0.0925 -0.0579
    1W        W48751  28.183  10.845   7.486 -0.0465  0.2803  0.0569
    1W        W48752  19.173  27.944   2.155  0.3854 -0.0097 -0.0362
    1W        W48753  21.120  27.918   0.511  0.3702 -0.1704  0.1990
    1W        W48754   3.188   8.791   1.997 -0.1258  0.0397 -0.0531
    1W        W48755  25.657  24.197   7.049  0.2337 -0.0891 -0.0674
    1W        W48756  15.321  12.235   1.668 -0.1140 -0.1186  0.1321
    1W        W48757   0.738  26.710   8.128  0.1202  0.2007 -0.0370
    1W        W48758  16.799   8.665   0.841 -0.2461  0.0214  0.2143
    1W        W48759  21.991  20.353   8.813  0.2340  0.0195 -0.2349
    1W        W48760  18.598   2.273   6.917 -0.0528  0.1158 -0.0190
    1W        W48761  11.852  11.206   1.488 -0.0315  0.0231 -0.0204
    1W        W48762  22.615  24.417   6.804 -0.1778  0.3318  0.1556
    1W        W48763  28.727  13.253   7.326 -0.2228 -0.1303  0.0684
    1W        W48764   9.667  19.287   8.263 -0.2811 -0.2250  0.0455
    1W        W48765   4.390  18.441   0.533  0.0090 -0.1355  0.0645
    1W        W48766  29.494   9.177   2.182 -0.1943  0.0518  0.0262
    1W        W48767  24.183  23.435   8.398 -0.1890  0.0071  0.0819
    1W        W48768  28.484   9.085   6.906 -0.0903  0.2848  0.0283
    1W        W48769  10.658  20.836   0.113 -0.0471  0.1322 -0.1038
    1W        W48770  26.376  24.795   8.387  0.1821  0.2023 -0.3600
    1W        W48771   7.893  24.318   9.446 -0.0802  0.1539 -0.1889
    1W        W48772  27.030  15.259   7.871 -0.2206 -0.0026 -0.0571
    1W        W48773  14.529  20.678   7.408  0.2021 -0.2647  0.1207
    1W        W48774  21.546  12.265   1.344  0.0011  0.1306 -0.1525
    1W        W48775  24.349  27.833   2.593 -0.1364  0.1492 -0.2646
    1W        W48776  12.416   5.286   8.694  0.3135  0.0707  0.1324
    1W        W48777  14.633  13.098   9.302  0.0132  0.0433  0.0478
    1W        W48778   8.065  28.127   3.156  0.0100  0.0013 -0.0081
    1W        W48779  13.868  20.607   3.024 -0.0182 -0.2198  0.0942
    1W        W48780  16.658  22.243   8.569  0.3444 -0.0024  0.1922
    1W        W48781   2.789  10.973   8.479 -0.3565 -0.1290 -0.1163
    1W        W48782   9.248  18.856   2.298 -0.0309 -0.0592  0.2960
    1W        W48783   6.541  15.790   0.830 -0.1934  0.2251  0.0098
    1W        W48784  27.339   5.125   7.274  0.2025 -0.0829  0.0281
    1W        W48785  12.143  23.013   0.148 -0.3575 -0.0675  0.0785
    1W        W48786  15.802  11.179   3.191 -0.1680  0.1276 -0.1594
    1W        W48787   1.584  19.963   7.247  0.1635 -0.1558  0.0849
    1W        W48788  13.794  14.153   2.082  0.0597  0.4775 -0.0609
    1W        W48789  17.891  11.805   8.052 -0.0958  0.0101 -0.3484
    1W        W48790   9.333  17.021   8.759 -0.1127 -0.1512  0.1427
    1W        W48791  15.238  25.261   1.873  0.1798 -0.2369 -0.0448
    1W        W48792  20.684   8.905   6.299  0.4487  0.2238 -0.2579
    1W        W48793   3.611  20.882   2.079  0.0944 -0.0362 -0.1783
    1W        W48794  23.597  27.291   2.367 -0.1648  0.1535  0.2783
    1W        W48795  24.382   7.654   3.250 -0.0158 -0.2081 -0.1924
    1W        W48796   8.143  27.757   0.005 -0.1145 -0.0375  0.0002
    1W        W48797  10.699  17.728   2.734  0.0145  0.1178  0.0479
    1W        W48798  12.808  28.185   9.022  0.2609  0.0133 -0.1513
    1W        W48799  23.597   6.869   2.508 -0.3191  0.0665 -0.1446
    1W        W48800   7.758  18.119   0.798 -0.0170 -0.0384  0.1485
    1W        W48801  23.609  10.625   1.259 -0.1034 -0.0388 -0.1809
    1W        W48802  26.343  19.150   0.758 -0.1580  0.2016 -0.1109
    1W        W48803  21.938  23.753   9.081  0.0765 -0.1605  0.0377
    1W        W48804   4.693  20.266   7.594  0.1742  0.1382  0.0509
    1W        W48805   8.429   0.877   0.439 -0.1060  0.0131 -0.2158
    1W        W48806   4.509  21.758   1.478  0.2684 -0.1498  0.2440
    1W        W48807   8.045   0.964   6.561 -0.0475 -0.1664  0.3062
    1W        W48808  18.999  13.679   0.830 -0.2287  0.2841  0.2611
    1W        W48809   5.259  11.693   7.591 -0.1326 -0.2020 -0.1797
    1W        W48810   3.287  19.833   1.728  0.2334 -0.1595 -0.0554
    1W        W48811  20.082  28.390   0.881  0.1649 -0.1183 -0.0620
    1W        W48812   4.787  25.483   0.877  0.0316 -0.0036 -0.2827
    1W        W48813  14.862  22.681   1.036 -0.0252 -0.0884 -0.1331
    1W        W48814  11.806  12.627   8.884 -0.0206 -0.3594  0.1471
    1W        W48815  24.936  22.349   6.796 -0.1001  0.1522 -0.3134
    1W        W48816  22.302   4.835   7.814  0.2120  0.1644  0.0277
    1W        W48817   5.580  13.489   2.710  0.1079  0.1132 -0.1242
    1W        W48818  26.399   8.614   9.486 -0.2009  0.2010  0.0764
    1W        W48819   5.463  28.590   9.069  0.1665  0.1363  0.3383
    1W        W48820  13.960   8.497   8.832 -0.2014  0.1111 -0.0436
    1W        W48821   1.632   8.222   6.291 -0.1491 -0.0617  0.1077
    1W        W48822   1.442  26.409   1.836 -0.0405  0.2076  0.3415
    1W        W48823  20.175  11.260   6.804 -0.1691 -0.1663  0.0271
    1W        W48824  12.519   6.105   2.838 -0.1442  0.0661  0.2633
    1W        W48825  21.541  18.186   8.857  0.0018  0.0755 -0.1089
    1W        W48826  15.394  28.831   0.858 -0.0873 -0.0725 -0.0249
    1W        W48827   6.846  24.643   7.965  0.3141 -0.0024  0.2743
    1W        W48828  22.177  21.404   5.678  0.0321 -0.1223  0.0408
    1W        W48829   9.998  10.179   7.242 -0.0666  0.2986  0.1349
    1W        W48830  20.255  11.421   9.543  0.1593 -0.0149  0.2921
    1W        W48831  23.513  21.808   1.127 -0.1048  0.0110 -0.1179
    1W        W48832  14.357   6.817   7.803  0.0805 -0.0269  0.1221
    1W        W48833  14.462  15.323   3.277 -0.0016 -0.2701 -0.1922
    1W        W48834  25.932  10.270   8.272 -0.3315 -0.1277  0.2584
    1W        W48835  16.840  14.969   0.771  0.0310  0.1485  0.0554
    1W        W48836  22.926  18.146   0.454 -0.1548  0.0833  0.3174
    1W        W48837   1.495  13.993   0.420 -0.1029  0.1108 -0.2015
    1W        W48838   2.566   2.188   8.005  0.1870  0.0100  0.4610
    1W        W48839  13.298  17.734   2.303 -0.2470  0.2260  0.0056
    1W        W48840  20.710  13.251   6.845 -0.2564 -0.0441  0.0772
    1W        W48841  17.474  25.223   8.470 -0.1133 -0.0259  0.0922
    1W        W48842  21.555  18.191   1.938  0.0847  0.2173  0.0150
    1W        W48843   6.433   0.961   7.800 -0.2939  0.0205  0.0282
    1W        W48844   5.530   3.935   1.733  0.1968  0.0262 -0.1903
    1W        W48845  12.154   6.256   0.466  0.0745 -0.0743  0.0925
    1W        W48846  20.343   9.068   2.766  0.1980 -0.0142  0.0995
    1W        W48847  13.981  26.941   9.060  0.1356  0.3151 -0.0785
    1W        W48848   0.042   4.570   7.875 -0.1611  0.2240 -0.3053
    1W        W48849  26.913  13.552   6.829 -0.1800  0.0988 -0.2671
    1W        W48850  15.524  19.627   6.734 -0.2296  0.1243  0.0582
    1W        W48851   3.322   1.126   2.278 -0.1668  0.1565  0.0719
    1W        W48852   5.427  24.596   0.730  0.1987 -0.1324  0.0660
    1W        W48853   4.041   4.743   7.924  0.1233  0.0872 -0.0372
    1W        W48854  18.569  17.726   5.847 -0.1252 -0.1309  0.1028
    1W        W48855  24.587  23.092   8.141 -0.0123 -0.0700  0.1620
    1W        W48856   3.576  18.672   8.068 -0.2525  0.3412  0.0403
    1W        W48857   9.432  10.683   7.983 -0.0208  0.0908  0.1863
    1W        W48858  16.383   2.177   1.544 -0.2933  0.4373  0.1644
    1W        W48859   1.167   4.010   7.658 -0.1264 -0.1219  0.0272
    1W        W48860   0.652  18.020   6.801  0.2277 -0.2779 -0.0892
    1W        W48861  10.705  14.923   2.364 -0.0980  0.4122 -0.0681
    1W        W48862   9.423  18.654   1.748  0.0022 -0.2071  0.1300
    1W        W48863  19.069  27.585   0.748  0.0683  0.1571 -0.0159
    1W        W48864  14.744   2.023   1.138  0.1422  0.2491 -0.2274
    1W        W48865  18.733   6.551   2.059  0.1926 -0.1326  0.1938
    1W        W48866  26.759  26.354   7.558 -0.1542 -0.0346 -0.1391
    1W        W48867  12.941   0.915   7.888  0.0024 -0.1007 -0.1880
    1W        W48868  26.549  10.293   0.018 -0.0361 -0.2781  0.2520
    1W        W48869  22.121  28.100   7.549  0.2283  0.0314  0.0643
    1W        W48870   9.657   7.215   1.188 -0.1688  0.0750 -0.2847
    1W        W48871  13.861  17.588   8.231  0.2157  0.0331  0.1737
    1W        W48872   3.234  18.084   8.668  0.0883 -0.0873 -0.1149
    1W        W48873  19.678   1.968   7.090  0.1449 -0.2708 -0.2498
    1W        W48874  11.791  15.089   0.829  0.0682 -0.1988  0.1040
    1W        W48875  27.674  14.478   1.193  0.3962  0.2890 -0.1069
    1W        W48876  20.142   0.305   8.070  0.1879  0.0894  0.0761
    1W        W48877   9.277  12.683   2.543  0.0078 -0.1124 -0.0499
    1W        W48878   1.393  15.133   8.714 -0.3378 -0.2565 -0.0045
    1W        W48879  12.654  11.321   8.116  0.1664 -0.1778 -0.1155
    1W        W48880  11.380  16.363   9.183 -0.0519 -0.1424 -0.2579
    1W        W48881  18.400   8.424   7.191  0.3070 -0.0672  0.0687
    1W        W48882  23.834   8.958   0.303  0.0256  0.2093  0.1376
    1W        W48883  20.338  17.328   9.351  0.0166  0.0964 -0.0101
    1W        W48884  10.684   0.587   7.715  0.0906 -0.1200 -0.1896
    1W        W48885  14.815  29.001   8.588 -0.0670 -0.1808  0.2168
    1W        W48886  12.050  14.994   8.709 -0.2553  0.0638 -0.1415
    1W        W48887  24.252   4.515   1.906 -0.0358  0.0174 -0.1443
    1W        W48888   6.864   4.307   9.349 -0.1255  0.2441  0.0735
    1W        W48889  11.470  23.551   8.353 -0.1182  0.1964  0.0195
    1W        W48890  18.840   6.541   7.662  0.0744  0.1488  0.2497
    1W        W48891  19.094  16.040   6.892 -0.1579 -0.1446  0.0974
    1W        W48892  23.110  22.577   1.495  0.0412  0.1753  0.3481
    1W        W48893  21.370  26.960   2.997  0.1210 -0.1553  0.1607
    1W        W48894  10.364   2.287   0.658 -0.0585  0.0273  0.3447
    1W        W48895   1.425  28.374   0.464 -0.1495  0.2531  0.0276
    1W        W48896  27.194   4.540   7.947  0.3460  0.3297  0.0088
    1W        W48897  19.149  18.723   8.392  0.0946 -0.1136  0.1694
    1W        W48898  17.826  24.083   7.732  0.0611  0.0428 -0.1485
    1W        W48899  24.113  25.835   2.447  0.2497 -0.2352  0.2901
    1W        W48900  28.232  21.884   0.205  0.1065 -0.0557 -0.0326
    1W        W48901  10.571  15.964   7.320  0.0517  0.0444  0.1797
    1W        W48902   6.039  16.147   8.080 -0.0497  0.0403 -0.1565
    1W        W48903  26.436  23.497   1.841  0.2536 -0.1441  0.0087
    1W        W48904  29.487   1.055   1.153 -0.1554 -0.1790  0.1212
    1W        W48905  24.819  10.213   7.608  0.3095 -0.3004 -0.0258
    1W        W48906  27.537  24.613   6.878 -0.1713 -0.1806 -0.0568
    1W        W48907  25.207   9.753   9.027  0.0973  0.0925 -0.1637
    1W        W48908  13.604  13.994   9.303  0.2026 -0.3007 -0.2290
    1W        W48909   5.940   8.121   0.369  0.0437  0.1750  0.0012
    1W        W48910   6.538  28.361   1.828  0.1116 -0.1199  0.1447
    1W        W48911  22.042  14.271   7.413  0.2045 -0.0930 -0.0889
    1W        W48912   3.450  12.558   0.685  0.2024 -0.1924  0.1531
    1W        W48913   8.220   9.318   7.285 -0.1389 -0.1061 -0.0022
    1W        W48914   0.632  13.987   1.484 -0.1609  0.0757  0.2385
    1W        W48915  27.637   9.672   7.269 -0.0860  0.2451 -0.0288
    1W        W48916  28.352  21.398   8.008  0.0170  0.0465 -0.2549
    1W        W48917  13.589  19.523   6.562  0.2303  0.0811 -0.2830
    1W        W48918   1.297   6.506   1.891 -0.2006  0.1565 -0.0580
    1W        W48919  10.047  15.340   2.845  0.0612 -0.1522 -0.1838
    1W        W48920  25.046  12.441   1.891  0.2694 -0.0428  0.0483
    1W        W48921   4.030  24.993   0.984  0.0002 -0.2401 -0.2244
    1W        W48922   0.388  20.803   1.063  0.2065  0.1570 -0.3074
    1W        W48923   4.732   2.900   3.330  0.0817 -0.0363 -0.3944
    1W        W48924   5.644   7.898   2.294  0.0317 -0.0095 -0.1074
    1W        W48925   1.113   1.087   2.711  0.1285  0.1612  0.2021
    1W        W48926   9.935  22.329   1.718 -0.3747 -0.1775 -0.1118
    1W        W48927  18.477  12.796   8.431 -0.2407  0.0733  0.0210
    1W        W48928   9.166   5.241   1.927  0.1584  0.1744  0.0618
    1W        W48929  27.243  25.759   2.090  0.1062  0.0029 -0.1655
    1W        W48930  10.628  15.145   9.121  0.4578 -0.2447  0.0779
    1W        W48931   0.519  27.541   2.468 -0.1302  0.5156 -0.2505
    1W        W48932  27.107  28.287   9.540  0.1689  0.0577 -0.1996
    1W        W48933   3.857   4.044   2.684  0.0256 -0.0393 -0.0908
    1W        W48934   1.099   1.707   8.805  0.0741 -0.1163  0.1183
    1W        W48935  23.170  18.636   6.098  0.1343 -0.0008 -0.4169
    1W        W48936   6.398   5.892   7.020  0.0904 -0.3807  0.0973
    1W        W48937  20.699  26.595   8.848 -0.2153 -0.3339 -0.4431
    1W        W48938  14.324  10.136   0.574  0.1067  0.2420  0.0106
    1W        W48939  18.282   7.129   7.530  0.0054  0.1797  0.1589
    1W        W48940  23.602   2.255   9.472 -0.0070 -0.0780 -0.2983
    1W        W48941   8.183  11.884   7.421  0.1508 -0.2414 -0.0302
    1W        W48942   0.306  20.790   8.024 -0.4259 -0.1843  0.3114
    1W        W48943  28.296  20.034   0.469 -0.0885  0.2198  0.0657
    1W        W48944  16.870  20.649   7.196  0.1101  0.0257 -0.0890
    1W        W48945   7.014   9.443   8.936 -0.1021 -0.1318  0.0207
    1W        W48946  15.612   4.731   7.911 -0.5330  0.3321  0.2475
    1W        W48947  22.825   6.519   1.959  0.3342 -0.2501 -0.0347
    1W        W48948  14.438  23.533   1.127 -0.0655 -0.4780 -0.1852
    1W        W48949  27.314   7.151   1.410 -0.0246 -0.2354 -0.0437
    1W        W48950  24.483   4.421   1.371  0.1106  0.2392 -0.0265
    1W        W48951  25.937  15.122   6.980 -0.2152 -0.2430  0.1459
    1W        W48952  13.003  28.190   2.153  0.1961 -0.0707 -0.5642
    1W        W48953  19.167  22.596   2.086 -0.0939  0.2974  0.1920
    1W        W48954   9.361  23.855   5.990  0.1487  0.1066 -0.0494
    1W        W48955  23.294  26.830   8.178 -0.1213 -0.0976 -0.1410
    1W        W48956  18.563  25.953   9.260 -0.2166 -0.0319 -0.0272
    1W        W48957  27.189   0.853   2.818  0.6407  0.0605  0.1693
    1W        W48958   3.827  10.092   7.918  0.1881  0.1255  0.0478
    1W        W48959  25.542   4.146   0.321 -0.0431 -0.0023  0.0422
    1W        W48960  22.964  19.421   2.406 -0.0029 -0.0247  0.0881
    1W        W48961  14.766  26.213   0.641 -0.1899  0.2111  0.2635
    1W        W48962  14.751  25.296   2.756 -0.2118 -0.0279 -0.2710
    1W        W48963  23.262   2.160   2.405  0.0910  0.1659  0.2172
    1W        W48964  17.782   1.750   2.269 -0.1430  0.2687 -0.0757
    1W        W48965  10.851  23.977   8.002 -0.1099 -0.0755 -0.1763
    1W        W48966   3.566  25.719   1.900 -0.1204  0.1581 -0.0449
    1W        W48967  21.689  17.702   8.571 -0.1975  0.0939 -0.2755
    1W        W48968  29.748  28.290   1.559  0.0393  0.1226 -0.1259
    1W        W48969  23.478  12.295   7.796 -0.0785 -0.2833 -0.0002
    1W        W48970   4.218   6.523   2.656 -0.0622  0.2363  0.0279
    1W        W48971  14.350  19.132   1.582 -0.0913  0.1414 -0.2064
    1W        W48972   6.395   7.127   3.126 -0.1012  0.3000 -0.0829
    1W        W48973   7.538  14.564   1.675 -0.3523  0.1500  0.0318
    1W        W48974  14.894  19.596   0.979  0.2167 -0.1210  0.5747
    1W        W48975   7.145  21.625   9.358  0.0010 -0.0700  0.1739
    1W        W48976  26.853  13.529   8.622 -0.4074  0.0565  0.1524
    1W        W48977   7.350  15.070   7.690  0.1306  0.3651  0.0967
    1W        W48978  21.809  24.143   2.010 -0.1726 -0.0997 -0.0252
    1W        W48979  24.453  11.714   1.512  0.2200  0.1256 -0.2759
    1W        W48980  17.143   8.930   9.473 -0.2001  0.0312 -0.0155
    1W        W48981   0.994  21.200   8.263 -0.0430  0.2120  0.1505
    1W        W48982  15.869  26.840   1.841  0.0381 -0.0323 -0.1874
    1W        W48983  23.416  24.417   1.817 -0.2937 -0.3480 -0.2734
    1W        W48984  21.160   2.912   9.026 -0.0793 -0.0485 -0.3041
    1W        W48985  13.207  17.573   1.211  0.1763 -0.0260 -0.1284
    1W        W48986  27.821   4.026   0.323 -0.0884 -0.1003  0.1484
    1W        W48987  16.502  16.006   2.080 -0.0693  0.1111  0.2327
    1W        W48988   5.342  12.412   8.367  0.1574 -0.3332  0.3937
    1W        W48989   5.141   1.797   2.792  0.0711  0.4997 -0.1941
    1W        W48990  18.173   4.964   1.763 -0.2730  0.1331  0.2301
    1W        W48991   0.556  27.763   8.804  0.1395 -0.2805 -0.2472
    1W        W48992  26.083  25.687   2.226 -0.1967  0.1113 -0.0270
    1W        W48993  27.420  25.810   2.633 -0.2464  0.3544  0.2066
    1W        W48994   6.515   2.761   7.319 -0.1955  0.2729 -0.1049
    1W        W48995  21.077  24.917   1.251 -0.1397  0.0128 -0.0854
    1W        W48996  16.832  20.267   8.764  0.1382  0.2622 -0.0336
    1W        W48997   3.649  13.355   9.106 -0.1836  0.1701  0.0285
    1W        W48998  14.441   0.629   9.457 -0.0439  0.0032 -0.0496
    1W        W48999  20.186  28.751   7.996 -0.1592  0.0952 -0.1398
    1W        W49000   5.676  24.878   7.723  0.1239 -0.1087  0.3695
    1W        W49001  22.189   4.809   8.782  0.3742 -0.0295 -0.0970
    1W        W49002  27.102   5.964   7.113  0.0590  0.0644  0.1486
    1W        W49003  15.090  25.172   8.336  0.1441 -0.0326 -0.2246
    1W        W49004   7.038  16.335   1.373 -0.0264 -0.1277  0.0086
    1W        W49005  15.486   7.872   2.613  0.3554  0.2531  0.2536
    1W        W49006  21.255  27.476   2.770 -0.0795  0.1997  0.1824
    1W        W49007   8.919   3.220   7.614  0.4264  0.1206 -0.1699
    1W        W49008  10.460   9.868   7.205  0.2684  0.0325  0.0785
    1W        W49009   1.864  18.593   1.583 -0.0916  0.2962  0.0777
    1W        W49010  13.932  25.865   8.856 -0.0476 -0.0730  0.1937
    1W        W49011  27.579  16.769   8.711 -0.2071  0.0235 -0.1098
    1W        W49012  20.907  23.538   2.708 -0.0745 -0.0172  0.2204
    1W        W49013  29.605   0.837   7.111 -0.2295  0.1018 -0.0250
    1W        W49014  21.065  27.077   2.547 -0.0753  0.4386  0.2983
    1W        W49015  12.850   7.266   1.219  0.1731 -0.1014  0.1167
    1W        W49016   3.724  15.134   1.814  0.0059  0.0768  0.1509
    1W        W49017  27.177  28.054   2.441 -0.0893  0.2031  0.2733
    1W        W49018  25.943  26.867   0.868 -0.1567  0.2017 -0.1845
    1W        W49019   8.424  22.403   7.523 -0.2398  0.2418 -0.1993
    1W        W49020  14.492  14.051   8.035  0.0014  0.0081 -0.1249
    1W        W49021  13.213  19.231   0.781 -0.0644  0.0242  0.0124
    1W        W49022  19.349   2.758   9.065 -0.3586  0.1503  0.0877
    1W        W49023  26.193  25.137   0.344 -0.0117 -0.0566 -0.0670
    1W        W49024  26.589  25.949   7.795 -0.4951  0.0473  0.4813
    1W        W49025  10.272  13.763   0.345  0.2539  0.1602 -0.2059
    1W        W49026  16.050  13.883   0.584 -0.1034 -0.0118  0.0422
    1W        W49027   6.742  22.577   0.923  0.0765  0.0955 -0.1246
    1W        W49028   3.605  20.847   0.744 -0.0450  0.0832  0.2436
    1W        W49029   6.496  23.666   1.532 -0.2375  0.0253  0.0718
    1W        W49030  10.054  20.878   1.084  0.1103 -0.1256 -0.0186
    1W        W49031  24.014  27.337   7.755  0.0324 -0.4245  0.0615
    1W        W49032   8.173   5.179   8.792 -0.0932  0.0937  0.2158
    1W        W49033   8.133  22.395   1.166 -0.1782 -0.0698  0.0925
    1W        W49034  24.809  27.002   2.686 -0.4178 -0.0120  0.0366
    1W        W49035   2.741   4.281   7.945  0.0957 -0.1281  0.2100
    1W        W49036  11.603  12.268   7.348 -0.3001  0.1272 -0.3928
    1W        W49037  11.250  28.793   8.529 -0.0632  0.0099  0.0071
    1W        W49038   2.810  23.496   0.429 -0.1213  0.0036  0.0251
    1W        W49039  29.206  10.751   2.966 -0.2363 -0.0015  0.2467
    1W        W49040  13.143   8.221   2.561 -0.1191  0.0538  0.1241
    1W        W49041   8.728   3.197   2.986  0.1490 -0.0951 -0.0641
    1W        W49042  24.209   5.089   9.360 -0.4615  0.1132 -0.0507
    1W        W49043   8.331   2.843   3.082  0.0949  0.0539  0.2074
    1W        W49044  13.364   1.580   7.000 -0.1616 -0.2848 -0.1785
    1W        W49045   1.382   3.608   0.653  0.2098  0.0381 -0.1731
    1W        W49046  24.638  20.615   0.281 -0.0087 -0.0549 -0.1613
    1W        W49047  10.990  25.805   1.915  0.1466 -0.1414 -0.0314
    1W        W49048  23.076  20.255   1.118 -0.1305 -0.0162 -0.0408
    1W        W49049   6.717  28.384   2.296  0.0177 -0.0800  0.0045
    1W        W49050   2.472  16.140   8.241  0.0950  0.1816  0.0786
    1W        W49051   8.805   0.306   2.220  0.0363  0.0143  0.1723
    1W        W49052  11.033   1.549   0.279 -0.0946  0.1400  0.0329
    1W        W49053   9.314   6.509   0.479 -0.0511  0.3080 -0.0670
    1W        W49054   9.873  14.454   0.905  0.1743 -0.2008  0.3117
    1W        W49055  10.453  19.576   7.678 -0.1640  0.4668  0.3522
    1W        W49056   5.986  13.853   8.102  0.3605  0.1069  0.1224
    1W        W49057  28.480  17.118   8.739  0.4080  0.3131  0.0806
    1W        W49058  11.165  12.185   1.628  0.1474 -0.3042  0.1253
    1W        W49059   3.592  15.232   7.799  0.0305  0.3972  0.0525
    1W        W49060  26.334  20.144   6.078  0.1293 -0.1002 -0.0261
    1W        W49061  19.167   0.384   1.708  0.0538  0.0838 -0.0772
    1W        W49062   7.357  15.637   8.397 -0.4985 -0.1029  0.0126
    1W        W49063   7.357  17.188   1.846  0.0355  0.0052  0.1571
    1W        W49064   5.727  12.461   7.910 -0.0506 -0.0413 -0.0462
    1W        W49065  18.737  14.213   7.742 -0.3750  0.0894 -0.0110
    1W        W49066   5.131   0.755   1.603 -0.0940  0.2625 -0.1844
    1W        W49067  28.774   8.878   6.402 -0.0283 -0.3694 -0.1265
    1W        W49068   6.946   2.224   7.986 -0.4685  0.1721 -0.0114
    1W        W49069  10.460   9.363   0.247 -0.2805 -0.2675  0.0288
    1W        W49070   9.589  28.679   9.057  0.0834  0.2631  0.0412
    1W        W49071  18.195   4.411   0.646 -0.1337  0.1646  0.3696
    1W        W49072  20.086  26.685   3.622 -0.0166 -0.3226 -0.2376
    1W        W49073   3.806   7.705   7.868 -0.0315 -0.2523 -0.0340
    1W        W49074   7.918  28.671   9.544  0.0383 -0.2466 -0.0759
    1W        W49075   4.380   6.427   7.995 -0.0538 -0.1962  0.3110
    1W        W49076  16.028  23.867   1.828 -0.1258 -0.0929 -0.2877
    1W        W49077  28.565   1.886   8.754  0.0445  0.1194 -0.0522
    1W        W49078  15.542  16.967   7.599  0.2042 -0.1551  0.0523
    1W        W49079  28.080  24.937   1.195  0.2959  0.0078  0.0503
    1W        W49080  15.840   8.933   1.779 -0.0524 -0.0364  0.2273
    1W        W49081   7.758   1.754   9.166 -0.0414  0.1439 -0.1747
    1W        W49082  19.498  14.825   8.929  0.0070 -0.0191 -0.2104
    1W        W49083  28.067   8.293   9.031 -0.0207  0.3909 -0.2542
    1W        W49084  25.162  12.042   6.361  0.2039  0.1550  0.1795
    1W        W49085  10.670  18.409   8.232  0.1044  0.1303 -0.3308
    1W        W49086  15.214  10.599   1.013  0.2581 -0.4039  0.1646
    1W        W49087  28.751  25.277   9.352  0.1213  0.1275  0.0233
    1W        W49088   4.574   1.124   0.127 -0.2507  0.1093 -0.0848
    1W        W49089  15.661  16.534   1.251  0.4366  0.1642 -0.1536
    1W        W49090   0.448   9.840   1.663  0.0455 -0.0650  0.2379
    1W        W49091  22.834  21.683   1.585 -0.3020  0.4488 -0.1614
    1W        W49092   2.405  14.052   0.232 -0.1190  0.4774 -0.0754
    1W        W49093  16.115  27.477   8.748  0.0006  0.2411 -0.0234
    1W        W49094  11.724  26.560   8.909  0.0393  0.1542  0.0097
    1W        W49095  27.539  20.816   1.030 -0.0410 -0.0113  0.1102
    1W        W49096  14.226   9.558   1.207 -0.1313  0.2379 -0.3375
    1W        W49097  13.791  17.600   0.035 -0.0873 -0.0373  0.0164
    1W        W49098   2.932  22.964   8.585  0.1909 -0.1065 -0.0359
    1W        W49099  21.812  16.280   7.865  0.1516 -0.0753  0.0960
    1W        W49100  19.065   4.837   2.785  0.0352 -0.2000 -0.0775
    1W        W49101  18.329  13.210   0.444  0.1391  0.2353  0.2176
    1W        W49102  17.125  18.396   2.063  0.0460 -0.1997  0.1362
    1W        W49103   9.492  23.081   7.106  0.0927 -0.0530  0.0436
    1W        W49104  17.855  11.033   0.550  0.1197  0.1616 -0.0743
    1W        W49105  14.450   9.166   1.258 -0.1089  0.2621 -0.1495
    1W        W49106  24.818  27.674   0.516 -0.1289 -0.1153  0.2369
    1W        W49107   2.273  15.480   1.005  0.0871  0.0791  0.0550
    1W        W49108  10.257  21.282   8.871 -0.2282  0.1838  0.0104
    1W        W49109  24.754  27.150   7.147 -0.1725 -0.1501  0.0428
    1W        W49110  18.612  12.715   1.511  0.0743 -0.2961  0.0920
    1W        W49111   6.059  22.211   8.589  0.0903  0.1181  0.1183
    1W        W49112   5.963  16.656   1.526  0.3400 -0.0824  0.1423
    1W        W49113  24.875   9.507   9.284  0.2017  0.3610  0.1914
    1W        W49114  19.020  14.201   0.615  0.0317  0.2342 -0.2442
    1W        W49115   0.705  10.003   8.906 -0.0359 -0.0270  0.1265
    1W        W49116  11.653  20.102   7.603  0.2499 -0.0788 -0.2186
    1W        W49117  27.337   2.808   9.337  0.3104  0.2185  0.2044
    1W        W49118  29.085  22.307   0.117  0.1430  0.1466  0.2153
    1W        W49119   2.955  16.149   0.855  0.1040  0.1560  0.0817
    1W        W49120   3.049  13.257   1.566 -0.2398  0.0706  0.0048
    1W        W49121   3.670   6.484   2.612 -0.4306 -0.0399  0.2423
    1W        W49122  14.678  12.727   7.166  0.3399  0.0967 -0.2170
    1W        W49123   2.631   7.775   1.526  0.0007  0.2291 -0.0853
    1W        W49124  11.371   9.812   1.800  0.2726  0.0171 -0.1174
    1W        W49125  29.177  23.336   8.628  0.0347  0.2300  0.0761
    1W        W49126   3.501  10.360   1.737 -0.0086  0.1101  0.2668
    1W        W49127  14.214  20.492   7.050 -0.1083  0.1464  0.0255
    1W        W49128  26.733  26.968   0.672  0.4036 -0.0808  0.1584
    1W        W49129   8.272   8.123   0.623  0.0491 -0.0284 -0.0965
    1W        W49130  19.598  29.391   8.615 -0.0067  0.4439  0.0560
    1W        W49131  25.284   5.252   3.332 -0.1678  0.0854 -0.3514
    1W        W49132   2.260  27.096   8.618 -0.1130  0.3309 -0.0729
    1W        W49133  25.546  28.701   0.055 -0.1612  0.0031 -0.3237
    1W        W49134  13.215  18.186   2.012  0.1512 -0.0291 -0.1785
    1W        W49135   1.949   2.766   8.716  0.0387  0.3022 -0.1707
    1W        W49136  20.534  24.908   0.312 -0.2298 -0.1671 -0.0069
    1W        W49137  28.228  10.033   7.929  0.2489 -0.1636  0.0686
    1W        W49138  11.411  12.384   2.137 -0.0560  0.0879 -0.0808
    1W        W49139  21.170  28.472   2.671  0.2223  0.0984 -0.0486
    1W        W49140  28.154  28.479   1.272 -0.0206 -0.1866  0.0813
    1W        W49141   0.749  22.884   1.580 -0.3189  0.3043 -0.0540
    1W        W49142   4.372  16.160   7.989  0.1673  0.4101 -0.1426
    1W        W49143  15.301  19.859   6.342 -0.1454 -0.1472  0.0579
    1W        W49144   6.559  14.589   8.180  0.1222 -0.0363  0.0231
    1W        W49145  13.740  28.294   8.297  0.0884 -0.1132  0.2698
    1W        W49146   1.331  11.883   2.210  0.0228 -0.0092  0.0288
    1W        W49147  18.128  26.989   0.463 -0.1413 -0.0833 -0.1631
    1W        W49148  10.869  21.528   0.980  0.1024 -0.1324  0.1695
    1W        W49149  11.753   4.286   0.285  0.5092  0.0107 -0.0338
    1W        W49150  25.792   3.736   0.425  0.0024 -0.3140 -0.1918
    1W        W49151  20.039  23.555   3.124 -0.0605 -0.1560  0.1731
    1W        W49152  11.375  16.589   8.040 -0.2155 -0.2337  0.1502
    1W        W49153  20.357  13.355   7.835 -0.1589  0.1301 -0.1459
    1W        W49154   5.796  23.893   7.098 -0.2368  0.1927  0.1414
    1W        W49155  18.399   6.175   2.046 -0.4038  0.1191 -0.0499
    1W        W49156  15.995  15.991   1.737  0.0665  0.0460  0.0102
    1W        W49157   6.702  11.766   1.366 -0.0723 -0.0833 -0.1976
    1W        W49158  10.719  25.835   7.887  0.0304 -0.4782 -0.0001
    1W        W49159  26.345  17.880   1.239  0.0282 -0.1621 -0.1149
    1W        W49160   3.053  19.499   1.301  0.0003 -0.1552 -0.3333
    1W        W49161  29.273   5.273   2.001 -0.2006 -0.0188  0.0207
    1W        W49162  20.188   6.724   6.963  0.0352 -0.0083 -0.2425
    1W        W49163  20.236  25.836   0.735  0.0941 -0.1118 -0.1416
    1W        W49164   6.054  12.797   0.098  0.3188  0.1781  0.1008
    1W        W49165  11.251  29.506   1.775 -0.2154 -0.3997 -0.2012
    1W        W49166   9.484  15.474   8.688 -0.0970  0.0226 -0.0667
    1W        W49167  25.035  13.830   7.445 -0.3763 -0.2787  0.2195
    1W        W49168  23.135  29.722   0.028  0.4724  0.2819  0.4183
    1W        W49169  17.433   4.848   7.447 -0.1284  0.2984 -0.1022
    1W        W49170  11.527   6.971   7.862  0.0412  0.1035 -0.0566
    1W        W49171   9.364  27.101   2.681  0.0374 -0.0919  0.0416
    1W        W49172  21.384   8.833   2.338 -0.0378 -0.3072 -0.1070
    1W        W49173   7.405  17.380   9.151  0.1435 -0.1420 -0.1057
    1W        W49174  23.977  17.569   0.992  0.0971 -0.1493  0.2106
    1W        W49175  20.549  14.357   8.772  0.5320 -0.0500 -0.0907
    1W        W49176  15.808   6.588   1.102  0.1054  0.0897  0.0957
    1W        W49177   7.433  12.724   1.141  0.1127 -0.0486  0.1220
    1W        W49178   0.781   0.176   1.519  0.3945  0.1304  0.0327
    1W        W49179  23.707   3.088   2.844 -0.1366  0.2159  0.1317
    1W        W49180   9.651  11.299   7.278  0.0219 -0.0221  0.0193
    1W        W49181  26.667  20.818   7.970 -0.1173  0.1366 -0.3801
    1W        W49182  12.658  14.045   9.140  0.1274 -0.0032 -0.0032
    1W        W49183  16.167   5.248   2.906  0.3297 -0.1101 -0.1012
    1W        W49184  25.361   1.349   1.348  0.1989 -0.5818 -0.1707
    1W        W49185  15.465   2.283   7.963 -0.0249  0.0714  0.4670
    1W        W49186  28.112  24.655   1.580 -0.0397 -0.0894 -0.1657
    1W        W49187  19.448  23.879   8.833  0.2036  0.2131  0.0653
    1W        W49188  22.093  23.775   2.180  0.3630 -0.2674 -0.0159
    1W        W49189  25.899  25.543   1.742 -0.3122 -0.0767  0.1764
    1W        W49190  26.534  21.636   6.452  0.3062  0.0553 -0.0401
    1W        W49191  11.867  24.297   2.583  0.1065  0.1370  0.0132
    1W        W49192  23.710  20.781   0.117  0.1175 -0.1005  0.3642
    1W        W49193  29.250  19.360   0.227 -0.3368 -0.0124 -0.3868
    1W        W49194  14.446   5.902   7.383 -0.0143 -0.0202 -0.2003
    1W        W49195  10.600  27.804   2.507 -0.0728  0.2968  0.0262
    1W        W49196   5.990  14.386   8.058  0.0368 -0.0181  0.0744
    1W        W49197  11.554  19.586   8.694  0.1186 -0.3731  0.1757
    1W        W49198   1.775   3.740   2.054 -0.2245  0.3012  0.0243
    1W        W49199   5.806   7.688   1.128  0.3624 -0.3401  0.0293
    1W        W49200  23.122  21.071   5.944 -0.1319  0.1514 -0.0709
    1W        W49201  19.791   2.907   8.156 -0.1430  0.2501  0.0309
    1W        W49202  19.187  28.393   1.276  0.0497  0.2191  0.2036
    1W        W49203  25.104  20.305   6.455 -0.2140  0.1000 -0.1889
    1W        W49204   6.953  27.150   3.355  0.1991 -0.1024  0.1550
    1W        W49205   8.407   0.150   7.422  0.1151  0.0236 -0.1493
    1W        W49206   4.841   8.996   6.477  0.1709  0.0931 -0.0750
    1W        W49207  13.041  21.294   0.323 -0.1902  0.0284 -0.0400
    1W        W49208   2.787  10.676   0.326  0.0348 -0.2244  0.2571
    1W        W49209  12.611   6.290   7.470  0.0183  0.1004 -0.5019
    1W        W49210   9.554   5.839   7.804  0.0684  0.1098  0.0512
    1W        W49211  28.773  18.480   1.153  0.1033  0.0156  0.2408
    1W        W49212  21.735   3.929   0.330 -0.1080 -0.1463 -0.1322
    1W        W49213  11.449  29.528   7.419 -0.0688  0.0312  0.1815
    1W        W49214   9.886  21.813   8.241 -0.0218 -0.1465 -0.0356
    1W        W49215  17.209  14.425   7.462  0.0896 -0.2861  0.1146
    1W        W49216   4.400  26.242   8.486 -0.2202  0.1930  0.0897
    1W        W49217  21.541  29.396   8.205  0.0483  0.2741 -0.2352
    1W        W49218  14.881   3.324   7.282  0.3298 -0.1906 -0.0618
    1W        W49219  15.761   5.938   1.273  0.2491 -0.0857 -0.1092
    1W        W49220   6.940  12.908   2.337  0.0213 -0.0967 -0.1158
    1W        W49221  12.975  24.116   0.259  0.1684 -0.0238  0.0818
    1W        W49222   6.379  24.284   2.500  0.1814 -0.0458 -0.2546
    1W        W49223  29.690  16.992   0.627  0.2998 -0.3914  0.4117
    1W        W49224  15.497   8.732   7.211  0.2051 -0.1072 -0.1535
    1W        W49225  28.288   5.696   0.082  0.1011 -0.1360 -0.0174
    1W        W49226  25.099  27.958   1.441 -0.3143  0.0421  0.1544
    1W        W49227  20.143  15.101   8.276 -0.1202 -0.3167 -0.0099
    1W        W49228   4.706  20.935   9.500  0.1614 -0.0426  0.0744
    1W        W49229   7.432  11.987   2.277  0.0338  0.0251 -0.2839
    1W        W49230  11.565  23.746   1.106 -0.3073  0.2639  0.0088
    1W        W49231   2.686  23.898   2.086 -0.1659 -0.1005 -0.2720
    1W        W49232  19.691  15.023   1.009  0.2411  0.2258 -0.0893
    1W        W49233  28.584   3.706   7.735 -0.2937 -0.0742 -0.0546
    1W        W49234   1.700  25.153   7.672  0.1419  0.3039  0.0293
    1W        W49235  21.808   0.059   1.358 -0.1603 -0.2052  0.1079
    1W        W49236   0.479   0.026   2.253  0.0419  0.0431 -0.1448
    1W        W49237  18.605  22.276   9.173 -0.1071 -0.1815  0.0264
    1W        W49238  11.691   3.666   7.170 -0.2128 -0.2119  0.1166
    1W        W49239   6.128   2.380   0.098  0.0320  0.3021 -0.1600
    1W        W49240  13.543  11.252   1.541  0.0351  0.0533 -0.3472
    1W        W49241   8.201  21.325   6.773 -0.0302  0.1043  0.0021
    1W        W49242  18.941  13.698   8.610 -0.1965  0.2790  0.2504
    1W        W49243  12.371   4.960   0.031  0.0136  0.1839 -0.1871
    1W        W49244  18.682   2.308   0.998 -0.0204 -0.0020 -0.1061
    1W        W49245  20.356  24.820   6.862 -0.1937 -0.3911  0.3738
    1W        W49246  21.182   9.468   3.353 -0.2168 -0.2637  0.2275
    1W        W49247  23.102  18.660   0.232 -0.0392 -0.2595 -0.1314
    1W        W49248   2.971  26.548   8.327  0.2914  0.0661  0.0849
    1W        W49249  15.709  19.559   7.233 -0.0221  0.2920  0.0841
    1W        W49250   4.241  21.927   8.605 -0.2067  0.1298  0.0711
    1W        W49251  27.675  19.816   7.366 -0.0724  0.5055 -0.0442
    1W        W49252   6.649  26.650   1.095  0.0494 -0.1529  0.2209
    1W        W49253   5.402   8.665   8.168 -0.1781  0.0016  0.3038
    1W        W49254  26.463  19.965   8.165 -0.0383  0.1735  0.1889
    1W        W49255  27.880   4.455   6.465  0.0112  0.2846  0.0652
    1W        W49256  10.554  18.695   2.352 -0.0009  0.0191  0.1516
    1W        W49257   7.965  10.376   1.204  0.2273 -0.0061  0.0163
    1W        W49258  18.666  22.624   2.196 -0.0748  0.0697  0.2156
    1W        W49259  13.406  28.445   1.953 -0.0211  0.1744  0.4381
    1W        W49260   6.245   7.318   1.888 -0.0722  0.1629  0.2559
    1W        W49261   8.972  22.387   9.350  0.3719 -0.1841 -0.0718
    1W        W49262   7.212  19.009   9.218 -0.0415 -0.1902 -0.0069
    1W        W49263  15.613  29.469   7.448 -0.0348 -0.0935  0.1263
    1W        W49264  27.074   4.176   7.620  0.1999  0.0315  0.0162
    1W        W49265  12.040  16.901   9.533 -0.0035 -0.0164  0.0468
    1W        W49266  27.565  23.510   7.075  0.1596 -0.1687 -0.1107
    1W        W49267  14.779  13.716   1.683 -0.1901 -0.4073  0.1349
    1W        W49268  22.568  14.178   9.208 -0.1996  0.0425 -0.0920
    1W        W49269  10.313  23.057   0.751 -0.3713 -0.0534 -0.0229
    1W        W49270  10.226  15.459   0.318  0.1879 -0.0669 -0.0325
    1W        W49271  16.387  23.009   6.721  0.1165  0.1333 -0.4231
    1W        W49272   0.797   0.755   8.245 -0.2112 -0.0851 -0.1905
    1W        W49273   1.230  22.025   8.392 -0.0078  0.0281  0.0630
    1W        W49274   5.870  18.758   8.095 -0.0837 -0.2859  0.2767
    1W        W49275   3.559  24.227   7.295 -0.2333 -0.1206  0.0362
    1W        W49276  11.687  24.144   7.201  0.1796  0.1613 -0.3246
    1W        W49277  29.436  13.956   2.479 -0.2253  0.3141  0.3877
    1W        W49278  29.702   4.007   8.682  0.0953  0.0748  0.2810
    1W        W49279  18.075  16.683   0.612  0.0688 -0.0283 -0.0146
    1W        W49280   0.103  23.949   0.864  0.1189 -0.0362 -0.2824
    1W        W49281   8.782  17.337   8.627  0.1455 -0.2962  0.2901
    1W        W49282   2.950  22.503   9.389  0.3959  0.0316  0.1796
    1W        W49283  24.254   6.300   8.020  0.3703  0.0785 -0.1173
    1W        W49284  25.204  18.976   9.535 -0.1003  0.0972 -0.0975
    1W        W49285  15.646   1.017   9.051 -0.1351 -0.1253  0.1176
    1W        W49286  20.422   6.017   2.162  0.1254 -0.1433 -0.1681
    1W        W49287   4.513  18.399   6.949 -0.4364 -0.0414 -0.1008
    1W        W49288  14.727  16.785   7.839 -0.0366 -0.0913  0.2028
    1W        W49289  10.594   0.096   0.719  0.2312 -0.0808  0.2677
    1W        W49290  25.883  26.438   2.204  0.2111  0.3000 -0.3033
    1W        W49291  26.788  18.386   8.557 -0.1771  0.2905 -0.3359
    1W        W49292  22.148   0.476   1.487 -0.1294  0.1324 -0.3299
    1W        W49293  26.559  23.351   5.968  0.0985  0.1707 -0.3069
    1W        W49294  13.315   3.955   7.850  0.0650 -0.4309  0.0430
    1W        W49295   9.542  16.177   2.125 -0.0773 -0.1123  0.0158
    1W        W49296  12.876  26.033   0.135 -0.1715 -0.2155 -0.0015
    1W        W49297   2.182   7.808   1.127  0.0153  0.0624  0.0723
    1W        W49298  24.854  11.426   6.403 -0.2494  0.1239  0.1247
    1W        W49299  25.684  22.408   2.150  0.1526 -0.1730  0.1697
    1W        W49300  20.127  23.439   8.219  0.0982 -0.0793 -0.1032
    1W        W49301   7.249  22.246   8.242 -0.1639 -0.2733  0.3120
    1W        W49302  25.478  23.043   8.334  0.0307  0.1331  0.1258
    1W        W49303  11.860   8.920   2.423 -0.0597 -0.1881 -0.3509
    1W        W49304  14.243  22.976   7.826 -0.0515  0.1844  0.2142
    1W        W49305  26.493  18.763   1.647 -0.0864  0.0090  0.1498
    1W        W49306  20.780   3.916   0.004  0.0890  0.1263 -0.2118
    1W        W49307  17.465  11.247   8.897  0.1300  0.3570  0.2722
    1W        W49308  14.708   9.834   0.398 -0.2519  0.2600  0.0706
    1W        W49309  27.952  24.368   7.433  0.0750 -0.2379 -0.0657
    1W        W49310  19.336  23.482   2.063  0.0668  0.1171  0.2204
    1W        W49311  25.854   7.777   1.714  0.1589  0.0696  0.0956
    1W        W49312  28.927  11.846   1.770  0.3094 -0.0207  0.3598
    1W        W49313  19.431   2.856   7.777  0.0165  0.2279 -0.2214
    1W        W49314   6.595  16.543   6.870  0.2163 -0.2440 -0.0961
    1W        W49315   7.135   1.051   2.800 -0.2594 -0.1162  0.4105
    1W        W49316  21.989  26.825   2.633 -0.3295  0.2830  0.1010
    1W        W49317  22.066   5.638   3.441  0.1904  0.0890  0.4211
    1W        W49318  29.356  29.049   1.513  0.1401  0.2294  0.4627
    1W        W49319   4.800   5.902   2.253  0.1045  0.0130  0.0323
    1W        W49320  27.998   7.528   2.269  0.0215 -0.0307 -0.0133
    1W        W49321   9.535  10.009   8.997  0.1178 -0.1098  0.0781
    1W        W49322  17.726   9.057   2.787 -0.3882  0.0396  0.0108
    1W        W49323  28.050   5.114   7.830  0.1043  0.0464 -0.0239
    1W        W49324  15.818   6.696   9.202 -0.3203 -0.0483  0.0883
    1W        W49325  29.422   3.655   1.518 -0.0167 -0.2813  0.1300
    1W        W49326  26.712   5.663   0.814  0.2502 -0.2595 -0.2830
    1W        W49327  20.601  26.205   9.242 -0.0909 -0.1501 -0.1395
    1W        W49328  12.147   2.840   1.367  0.2060 -0.0300  0.2235
    1W        W49329   0.183   9.412   0.944  0.0179 -0.0847  0.1678
    1W        W49330  23.198   8.508   7.610 -0.0311 -0.1621 -0.0597
    1W        W49331  28.371  19.308   1.776  0.0049 -0.1574 -0.3091
    1W        W49332  19.040  18.707   0.999 -0.1576 -0.3021 -0.0605
    1W        W49333  27.225   8.146   2.779 -0.2658  0.1804 -0.1140
    1W        W49334  26.628   6.755   0.043  0.1276  0.3183 -0.0718
    1W        W49335  25.679  15.763   6.753 -0.1675  0.1613  0.3265
    1W        W49336   4.378  13.513   0.632  0.0649  0.2164 -0.0088
    1W        W49337  14.728  18.816   1.325 -0.2108 -0.0119 -0.0420
    1W        W49338  13.253   7.522   7.380  0.2448 -0.3807  0.0430
    1W        W49339  24.942  24.101   1.461 -0.1109  0.0319  0.2444
    1W        W49340  14.434  19.283   6.513  0.2187  0.1941 -0.1036
    1W        W49341   5.660  13.285   7.437 -0.0309  0.3184 -0.0397
    1W        W49342   5.988   4.692   8.975  0.3704  0.0108  0.0918
    1W        W49343   2.274   9.122   1.849 -0.0059 -0.0930 -0.2707
    1W        W49344  10.539  12.862   0.310  0.0367 -0.0003  0.1414
    1W        W49345  21.292  12.948   9.266 -0.4356  0.0056  0.4119
    1W        W49346  21.851  17.909   5.902  0.0158 -0.0114  0.2965
    1W        W49347  28.175   7.651   0.832  0.1506 -0.0790 -0.1995
    1W        W49348  15.510   1.309   0.539  0.4627  0.1744  0.3079
    1W        W49349   8.876  20.107   2.774  0.3014  0.2835  0.1055
    1W        W49350  22.177  15.966   8.276 -0.2568  0.2677 -0.0066
    1W        W49351   9.673   3.944   8.429 -0.1336 -0.0968 -0.1338
    1W        W49352  24.012  28.936   9.187  0.1445  0.1186  0.0280
    1W        W49353  20.267   1.525   1.416 -0.2185 -0.1682  0.1474
    1W        W49354  21.708  12.411   8.023 -0.1449 -0.0453  0.3235
    1W        W49355  14.352   2.479   6.286 -0.0554  0.0500  0.1742
    1W        W49356   0.404  18.632   8.105 -0.2200  0.1434  0.0158
    1W        W49357  13.142  20.936   0.664 -0.1418 -0.1327 -0.1623
    1W        W49358   7.709  10.818   0.972 -0.3347  0.0858  0.1137
    1W        W49359  22.493  15.019   9.131 -0.2375 -0.1619 -0.1208
    1W        W49360   9.716  29.441   2.548 -0.1939  0.0246 -0.0071
    1W        W49361  15.673  17.384   7.424 -0.1598 -0.1467 -0.2593
    1W        W49362  28.048  23.922   2.097  0.1153 -0.0124 -0.0344
    1W        W49363   0.790  15.129   7.913 -0.1071  0.1505  0.2135
    1W        W49364  22.003  14.337   7.983 -0.0963 -0.0753  0.3029
    1W        W49365  27.627  21.331   1.028  0.3343  0.1919 -0.0659
    1W        W49366   5.389  15.529   0.869 -0.1921 -0.1286  0.2658
    1W        W49367   5.236  11.058   6.649  0.1094 -0.0975  0.1673
    1W        W49368  20.108   0.137   8.559  0.0554 -0.1018  0.4304
    1W        W49369   0.866  14.168   8.264 -0.2007  0.0699  0.2997
    1W        W49370  22.921   4.126   2.668  0.1052  0.0182  0.2192
    1W        W49371   7.209   3.136   1.467 -0.1408 -0.0316  0.0525
    1W        W49372  26.903   3.738   7.772 -0.1577 -0.1921  0.2270
    1W        W49373  23.661  22.926   8.054 -0.0836  0.1970 -0.3232
    1W        W49374  17.565  26.540   1.095  0.0261 -0.5185  0.1220
    1W        W49375   5.370  29.012   9.341 -0.0304 -0.3056  0.4110
    1W        W49376  15.242  17.723   7.383 -0.1136 -0.0287 -0.1026
    1W        W49377   5.067  15.219   1.105  0.4860 -0.0383  0.3021
    1W        W49378  23.325   7.387   0.185  0.2596  0.2021 -0.0066
    1W        W49379   1.493  19.621   1.616 -0.1614 -0.1130  0.1250
    1W        W49380   6.785   0.456   1.765 -0.1113  0.1067 -0.2051
    1W        W49381   1.970   4.912   8.712 -0.1582  0.1495 -0.3980
    1W        W49382   0.910  26.045   9.063  0.1257 -0.1104 -0.2127
    1W        W49383  21.172   3.519   2.560 -0.2926 -0.0064  0.2868
    1W        W49384  13.356  20.959   2.537  0.0388  0.0388 -0.0995
    1W        W49385  15.580  27.502   8.614  0.1284  0.0223 -0.2480
    1W        W49386  18.666  29.505   8.448  0.0808  0.0060 -0.1125
    1W        W49387   2.228  22.253   1.767 -0.1586 -0.0655  0.1352
    1W        W49388  18.850  26.550   1.620 -0.1769 -0.1578 -0.0799
    1W        W49389  13.570   1.929   2.056 -0.2421 -0.0549  0.0916
    1W        W49390  21.912  21.838   2.476 -0.1481  0.1226 -0.2236
    1W        W49391  11.450  27.484   7.827 -0.2902  0.0433 -0.0703
    1W        W49392  13.027  14.522   2.476  0.0093 -0.3023 -0.0715
    1W        W49393  12.739  28.136   7.029 -0.3747  0.1285 -0.3644
    1W        W49394  26.796   8.602   0.247  0.1612  0.0840  0.1369
    1W        W49395  28.991   9.445   1.192  0.0355 -0.0421 -0.0202
    1W        W49396  10.674   6.204   0.995 -0.0741 -0.1579 -0.0421
    1W        W49397   7.811   9.655   1.735  0.1213  0.1564  0.2881
    1W        W49398  28.644   7.160   8.529  0.1779 -0.1280  0.0963
    1W        W49399  23.795  25.624   0.229  0.0851 -0.3588  0.2200
    1W        W49400   9.629  22.469   1.217 -0.1404 -0.1913  0.1315
    1W        W49401  19.712   5.914   3.643 -0.0314 -0.1293 -0.2771
    1W        W49402  13.920  20.607   0.445 -0.1298 -0.2747 -0.0048
    1W        W49403  10.455   4.776   0.284  0.0175  0.1814  0.4831
    1W        W49404  28.582  26.347   2.086  0.2264 -0.1764 -0.1326
    1W        W49405   3.802  23.653   6.808 -0.4443  0.1008  0.2785
    1W        W49406  11.343  27.056   8.846  0.0726  0.0872  0.0042
    1W        W49407   8.382  20.653   0.730  0.2899  0.0433  0.1423
    1W        W49408  18.259  22.260   1.420  0.0951 -0.3518 -0.0092
    1W        W49409   2.965  15.942   0.209  0.1254 -0.0095  0.1689
    1W        W49410  29.429   2.523   7.786  0.3581 -0.1115  0.0225
    1W        W49411  16.096  19.869   9.213  0.3372  0.2507 -0.0014
    1W        W49412  18.829   7.935   1.039 -0.2782  0.4531  0.1555
    1W        W49413  17.905   3.260   2.678  0.3095  0.0912 -0.1597
    1W        W49414  17.459  13.052   0.479 -0.2024 -0.2165  0.1153
    1W        W49415  11.454  19.025   1.140  0.0032  0.0333  0.4823
    1W        W49416   1.112   6.585   0.942  0.0350 -0.0664 -0.1218
    1W        W49417   2.124   7.225   7.691  0.0647  0.1070  0.0121
    1W        W49418  25.821  18.863   7.181  0.0101  0.1412 -0.0534
    1W        W49419   8.843   0.343   9.340  0.2995  0.2302  0.0119
    1W        W49420  23.410   9.106   0.962  0.3283 -0.4989 -0.0272
    1W        W49421   9.121  19.256   8.695 -0.3317 -0.0380  0.1551
    1W        W49422  28.349   1.448   8.510 -0.0698 -0.1710 -0.0742
    1W        W49423  20.635  20.368   1.882 -0.0162  0.2355  0.0242
    1W        W49424  18.928  27.433   1.318  0.1929 -0.3836  0.3868
    1W        W49425  25.570  24.307   2.830 -0.0243 -0.2129 -0.0969
    1W        W49426   3.435  10.133   7.119 -0.0101 -0.0578 -0.1644
    1W        W49427   7.680   3.859   7.739 -0.3264  0.0935 -0.2716
    1W        W49428  29.374   2.162   6.554  0.2401  0.2892 -0.1054
    1W        W49429  15.742  27.263   0.014  0.0719  0.0871  0.0057
    1W        W49430  18.958   5.674   0.049 -0.0900  0.1806  0.1448
    1W        W49431  27.217  12.440   7.570 -0.1770 -0.3029 -0.1892
    1W        W49432   0.579  20.770   7.168 -0.0649 -0.0141  0.0980
    1W        W49433  29.625  22.019   6.307  0.2226 -0.1709  0.2081
    1W        W49434   8.092  20.524   1.398 -0.4542 -0.0468  0.1941
    1W        W49435  14.696  21.329   8.368  0.3813 -0.1156 -0.0754
    1W        W49436  24.075   4.685   1.440 -0.2826  0.2179 -0.2150
    1W        W49437  24.029  25.455   1.056  0.2831 -0.2563 -0.0331
    1W        W49438   0.302  17.533   1.236 -0.1455  0.0479 -0.0219
    1W        W49439   5.870  27.537   8.137  0.0672  0.0258 -0.0768
    1W        W49440  14.909  14.597   8.822 -0.0390 -0.2988  0.2476
    1W        W49441  15.822  23.373   2.112 -0.1967 -0.0599 -0.2873
    1W        W49442  18.889  25.420   1.090 -0.0551 -0.0972 -0.1129
    1W        W49443  22.092  10.758   0.757 -0.3689 -0.1291 -0.1296
    1W        W49444  27.173   0.449   8.891 -0.2804  0.4048 -0.0602
    1W        W49445  10.600  26.632   2.461  0.4584  0.0603  0.4300
    1W        W49446  22.056  17.098   0.069  0.0464 -0.0563  0.1354
    1W        W49447  12.757  18.979   0.649 -0.3924 -0.0458  0.2384
    1W        W49448  10.733  16.009   9.412  0.2321  0.0133  0.0150
    1W        W49449   6.784  25.395   1.053 -0.0020  0.0705 -0.0075
    1W        W49450  17.422  23.884   8.379 -0.2258  0.1238 -0.1416
    1W        W49451  10.885   5.888   3.420  0.4146  0.0540 -0.1960
    1W        W49452  27.960   3.205   1.574 -0.2912  0.1018 -0.0118
    1W        W49453  28.192   9.288   2.292  0.0559 -0.0283  0.2099
    1W        W49454  22.380  13.307   1.500 -0.3105  0.0447  0.2984
    1W        W49455  10.853  13.825   1.643  0.0716 -0.0020  0.0419
    1W        W49456   6.940  13.831   0.368  0.0151 -0.1117  0.2800
    1W        W49457   3.150  11.582   7.220  0.1971 -0.0191  0.3337
    1W        W49458  28.588   6.792   2.614  0.1206 -0.0626  0.0039
    1W        W49459   7.081  11.921   8.834  0.1455 -0.1094  0.0604
    1W        W49460  27.086   7.726   7.737 -0.2319  0.0481  0.1662
    1W        W49461  27.604   6.512   1.411 -0.1243  0.0646  0.2618
    1W        W49462   0.310  14.715   6.637 -0.3126 -0.1755  0.1312
    1W        W49463  19.510  18.623   1.263  0.1365 -0.1912 -0.1291
    1W        W49464  11.385  14.565   9.489 -0.0249 -0.0613 -0.1219
    1W        W49465  29.074   2.353   8.068  0.3854  0.1279 -0.0424
    1W        W49466  19.975  19.635   6.781  0.1865  0.0059  0.1814
    1W        W49467  22.175   4.113   0.038  0.2558 -0.1334 -0.0314
    1W        W49468  26.668  15.009   7.555  0.0482 -0.0363 -0.0514
    1W        W49469  16.312  13.173   0.133  0.1180  0.5718  0.0348
    1W        W49470   8.614  19.789   8.398  0.0167  0.0256  0.0377
    1W        W49471   9.811  14.923   7.231  0.2093  0.0104 -0.1303
    1W        W49472  12.406  29.361   1.514 -0.2159  0.0989  0.1104
    1W        W49473  11.096  22.525   8.592 -0.1241  0.0619  0.1017
    1W        W49474  24.178  19.647   8.699  0.1555  0.2538  0.2392
    1W        W49475   1.934   9.590   6.739 -0.0469  0.4024 -0.1936
    1W        W49476   8.083   9.880   8.899  0.2104  0.3344  0.1728
    1W        W49477  19.128  21.511   0.223 -0.0196 -0.0939  0.2019
    1W        W49478   5.232  23.161   1.450 -0.3281  0.3930  0.2627
    1W        W49479  18.461   0.630   8.105 -0.2377 -0.0311 -0.2826
    1W        W49480  13.623  22.897   6.484  0.0216 -0.0968 -0.0986
    1W        W49481   5.691  10.974   7.287 -0.1981 -0.1181 -0.1447
    1W        W49482  23.544  21.820   7.246 -0.0485  0.1509  0.2501
    1W        W49483   8.601  19.294   0.889 -0.1326 -0.0012  0.3204
    1W        W49484  19.534  22.872   7.172 -0.0532 -0.0670  0.2310
    1W        W49485  27.271  27.376   8.552 -0.1803 -0.1922 -0.1038
    1W        W49486   3.640   9.397   8.013  0.1907 -0.3991 -0.0212
    1W        W49487  25.740   0.430   7.888  0.1220 -0.1866 -0.0656
    1W        W49488  14.533   6.347   7.112  0.3341 -0.3663 -0.2250
    1W        W49489  16.311   5.584   1.960  0.1920 -0.2893 -0.2145
    1W        W49490  15.029  19.200   8.438 -0.0043  0.1068  0.0977
    1W        W49491   5.447  25.681   7.362  0.2670 -0.3366  0.0805
    1W        W49492   6.218  24.245   0.064  0.0502  0.1807 -0.2249
    1W        W49493   7.982   4.072   2.307 -0.0773  0.1576 -0.0520
    1W        W49494  27.507  15.916   9.024 -0.1042 -0.0539 -0.1366
    1W        W49495   8.231  15.721   7.945 -0.1017  0.0973  0.0226
    1W        W49496   6.061  19.964   2.888 -0.4044  0.0999 -0.0017
    1W        W49497  18.744   3.585   2.145 -0.1386 -0.3027  0.0958
    1W        W49498  18.330  13.560   9.032 -0.1470 -0.2380 -0.2285
    1W        W49499  24.352  27.108   7.435  0.5074 -0.1782 -0.0709
    1W        W49500  14.542   6.038   2.537  0.1751 -0.1440  0.1361
    1W        W49501   5.279  25.014   0.398 -0.2329  0.1347 -0.2125
    1W        W49502   7.478   1.670   8.490 -0.0496 -0.0818 -0.0808
    1W        W49503  28.007   9.982   6.581 -0.0195 -0.0401  0.1574
    1W        W49504   7.111  15.100   1.763  0.1259 -0.0146 -0.1605
    1W        W49505   2.841  28.574   1.540  0.1571  0.3531  0.0755
    1W        W49506   7.150  24.944   1.547  0.1314 -0.0455  0.2686
    1W        W49507   6.508  19.703   0.675  0.0062  0.3438 -0.0029
    1W        W49508  18.232  26.983   9.538 -0.0969  0.0101  0.0661
    1W        W49509   9.339   4.692   0.500  0.1268 -0.1875  0.2360
    1W        W49510   4.663   4.701   3.038  0.1833 -0.1244 -0.1645
    1W        W49511   3.571  12.357   2.827 -0.0530 -0.2477  0.4037
    1W        W49512  18.441   7.922   2.706  0.1447 -0.0183 -0.0375
    1W        W49513  23.421   1.262   2.885  0.0554 -0.0936 -0.3175
    1W        W49514  25.840  24.833   0.549 -0.1561 -0.0635 -0.0255
    1W        W49515   6.674  19.958   8.309  0.3125 -0.2274 -0.0263
    1W        W49516   8.888  21.729   6.783 -0.0858 -0.2827 -0.0647
    1W        W49517   6.219  22.963   1.962  0.1438  0.2012 -0.2287
    1W        W49518  21.675  24.248   1.015  0.0801  0.0221 -0.5944
    1W        W49519  28.158  29.716   7.238 -0.1548 -0.0288 -0.1179
    1W        W49520  29.417  26.949   2.968  0.0970  0.1580  0.0358
    1W        W49521  12.280   1.097   0.352 -0.1859  0.0299  0.0378
    1W        W49522  23.865  21.352   8.329 -0.0502 -0.0096  0.0099
    1W        W49523  23.740  10.611   7.250 -0.2469 -0.0050 -0.2821
    1W        W49524   6.225  12.208   7.721  0.0185 -0.2040  0.0305
    1W        W49525  26.197  11.529   0.837 -0.3049  0.0159 -0.2312
    1W        W49526  13.740  27.048   8.095  0.1879 -0.4242 -0.1718
    1W        W49527   8.028   1.524   0.422  0.3763  0.2594  0.0018
    1W        W49528  15.985  10.053   1.591  0.1289 -0.1443 -0.0999
    1W        W49529   7.071  10.804   6.424  0.0462  0.2620 -0.1240
    1W        W49530   4.430  24.166   8.095 -0.0232 -0.1047  0.1532
    1W        W49531   7.580  14.970   1.899 -0.0557  0.1035  0.1851
    1W        W49532  10.398  10.038   9.488  0.2930 -0.2123 -0.0201
    1W        W49533  20.891   0.108   8.410 -0.1158  0.3356  0.1483
    1W        W49534  16.870  12.139   7.669  0.1437 -0.2501 -0.2381
    1W        W49535  29.289  11.157   1.420 -0.0645 -0.1184  0.2750
    1W        W49536  10.191  11.233   7.377 -0.1082  0.1634 -0.0750
    1W        W49537  10.604  29.729   7.843 -0.0770  0.0244  0.0577
    1W        W49538   2.718  27.975   1.430 -0.0269 -0.1988 -0.1347
    1W        W49539  17.434   3.515   1.907 -0.0947  0.0019  0.5082
    1W        W49540  22.483  21.490   1.903  0.0306  0.2060 -0.0157
    1W        W49541   8.678   5.393   6.816  0.0692  0.1596  0.2277
    1W        W49542  23.674  20.038   6.270 -0.2485 -0.2563  0.0831
    1W        W49543  17.582  15.643   8.086 -0.0363  0.0532 -0.0011
    1W        W49544  21.415  28.701   2.275 -0.0893  0.2109 -0.1191
    1W        W49545  24.357   2.773   7.033 -0.2411 -0.0240  0.0879
    1W        W49546   0.035  13.143   0.450  0.1683 -0.1472 -0.0238
    1W        W49547  15.244  20.428   8.614 -0.2384 -0.1216  0.1798
    1W        W49548   7.304   7.253   2.834 -0.0042  0.1522  0.6515
    1W        W49549  22.006  22.709   0.711  0.0001  0.0246 -0.0758
    1W        W49550   9.414  28.525   8.093  0.0435  0.1197 -0.0809
    1W        W49551  28.735  27.804   7.284  0.0375 -0.1189 -0.0082
    1W        W49552  21.678   5.667   9.392 -0.1764 -0.0711 -0.0604
    1W        W49553  16.067  25.497   0.353 -0.0875  0.6082  0.1087
    1W        W49554  18.262  21.477   2.362  0.2341  0.3173  0.1726
    1W        W49555  18.736  24.202   2.416  0.2184 -0.1756  0.0107
    1W        W49556  14.610  18.835   0.721  0.0881  0.0307 -0.0914
    1W        W49557  28.279  11.881   8.461  0.0092  0.0925  0.0548
    1W        W49558  29.203  10.487   6.902 -0.1808 -0.2547  0.2297
    1W        W49559   3.822  21.884   8.338  0.0800 -0.0612  0.0612
    1W        W49560   7.126  20.600   2.070  0.0018 -0.0469 -0.0749
    1W        W49561  16.449   8.820   6.722  0.0530  0.0145 -0.4354
    1W        W49562   2.736  15.930   9.214 -0.1438  0.0963  0.2351
    1W        W49563  10.607   4.826   1.246 -0.1054  0.0796  0.1471
    1W        W49564   2.326  21.627   1.057  0.0818  0.1563  0.2273
    1W        W49565  13.533  29.002   0.900  0.0228  0.0328 -0.1202
    1W        W49566  27.695  17.399   7.590 -0.1116 -0.0360 -0.0890
    1W        W49567   4.219  25.158   2.551  0.2300 -0.0937 -0.1406
    1W        W49568  25.437   8.649   7.169 -0.0001  0.0984 -0.2727
    1W        W49569   4.794  20.454   8.051  0.1524  0.0525  0.0464
    1W        W49570   4.804  15.519   0.074  0.2548 -0.1441 -0.0394
    1W        W49571  19.792  14.906   8.542  0.1456  0.0329  0.0856
    1W        W49572   0.143  29.507   0.237  0.1228 -0.1226  0.1110
    1W        W49573  11.481  19.487   0.381 -0.1100  0.1022  0.3323
    1W        W49574   9.567   3.341   3.131 -0.1774 -0.1171  0.0499
    1W        W49575   1.867  18.889   7.887 -0.0131 -0.2020  0.0544
    1W        W49576  12.337  26.409   7.357  0.0604 -0.1809 -0.1086
    1W        W49577  19.001  26.774   7.575  0.0628  0.1591 -0.0942
    1W        W49578  17.629   4.217   1.172  0.0461  0.0598 -0.4564
    1W        W49579  15.933   2.426   1.430  0.0909 -0.2116  0.0269
    1W        W49580  15.373  27.197   8.267 -0.2754 -0.2563  0.0229
    1W        W49581   0.318   5.695   3.468 -0.2875  0.0058 -0.1821
    1W        W49582   7.422   2.183   8.577 -0.0987 -0.1374  0.1596
    1W        W49583   2.462  27.264   0.302 -0.2855  0.1781  0.0337
    1W        W49584  25.453  10.184   7.002 -0.3036  0.0808  0.0134
    1W        W49585  11.678   6.458   2.503 -0.0222 -0.1039 -0.0418
    1W        W49586   7.628   7.382   1.804  0.0066  0.4101 -0.0110
    1W        W49587  19.264  18.160   6.751 -0.0859 -0.0907 -0.1504
    1W        W49588  25.842  10.002   6.534 -0.0047  0.0480 -0.0619
    1W        W49589   6.970  15.726   8.136  0.3477  0.1528 -0.1531
    1W        W49590  19.619  24.194   7.473  0.0367  0.0432 -0.0752
    1W        W49591   1.899  20.310   9.019 -0.0701 -0.3079 -0.0472
    1W        W49592  17.945   9.134   7.300  0.0419  0.1481 -0.0001
    1W        W49593  13.276   6.930   1.340 -0.2596 -0.1576  0.0704
    1W        W49594  23.815  27.747   2.578  0.3761 -0.1987  0.2644
    1W        W49595  20.458  10.970   9.450  0.0110  0.0738  0.1798
    1W        W49596  18.257   6.315   2.853 -0.0116 -0.0620 -0.0353
    1W        W49597   5.935  29.150   6.956 -0.1395  0.0474  0.0148
    1W        W49598  21.475   8.072   8.118 -0.3595 -0.2253 -0.2500
    1W        W49599  17.125  11.950   7.084  0.1498 -0.1786 -0.1133
    1W        W49600  20.101  10.622   8.262  0.2314  0.1957 -0.0946
    1W        W49601  19.576  27.269   7.398  0.1300 -0.2653  0.0984
    1W        W49602  12.766  21.239   1.882 -0.3781 -0.1438  0.0400
    1W        W49603  12.498   0.593   1.521 -0.0284 -0.0878 -0.3013
    1W        W49604  24.443  15.770   7.301  0.0086 -0.1938 -0.1694
    1W        W49605  20.175   3.754   3.052 -0.2463  0.0523  0.2287
    1W        W49606  28.845  18.771   6.632 -0.0813  0.2691  0.0656
    1W        W49607  10.030   0.918   3.111 -0.0376  0.1873 -0.0441
    1W        W49608   3.895  26.752   2.049 -0.3659 -0.0833 -0.1953
    1W        W49609   2.681  15.632   1.311 -0.0125 -0.0381 -0.1114
    1W        W49610   3.853   5.671   6.830 -0.2221  0.2575 -0.0370
    1W        W49611   1.532  29.662   1.087 -0.0090 -0.2392  0.2843
    1W        W49612  19.235  21.527   8.916  0.1716  0.0083  0.0658
    1W        W49613  14.453   9.393   9.147 -0.1909 -0.0698  0.0445
    1W        W49614  16.308   7.600   7.795  0.0930 -0.1174  0.2492
    1W        W49615  21.704  19.504   6.117  0.0560 -0.1822  0.0946
    1W        W49616  14.719  26.940   7.445 -0.1958 -0.3407  0.1774
    1W        W49617   1.192  11.085   8.029  0.0945  0.1618 -0.0495
    1W        W49618   8.086  14.651   8.262 -0.2608  0.2279  0.0564
    1W        W49619  12.092  28.337   8.680 -0.0437 -0.0279 -0.1860
    1W        W49620  21.904   2.399   1.388  0.1847  0.1176  0.1811
    1W        W49621  18.037  25.598   0.969  0.1698  0.2726  0.1661
    1W        W49622  22.938   9.780   1.156 -0.1293  0.1006 -0.0664
    1W        W49623  27.495   5.507   2.267  0.1491 -0.0143 -0.0681
    1W        W49624   0.829  24.626   2.960 -0.3691 -0.1204 -0.2386
    1W        W49625  26.500  10.662   6.929  0.0611  0.1354 -0.0176
    1W        W49626  16.272  23.699   8.244 -0.1888  0.1438 -0.0630
    1W        W49627  14.285  22.426   0.609  0.2367  0.3046 -0.2132
    1W        W49628  22.201  17.806   6.266  0.0883  0.1248  0.0248
    1W        W49629  27.535  20.494   0.619  0.1280 -0.0998  0.0151
    1W        W49630  24.086  10.368   6.948 -0.1371  0.1953 -0.3646
    1W        W49631   8.510  16.152   6.731  0.2005 -0.1549 -0.2615
    1W        W49632  24.636  23.067   7.621 -0.1033 -0.0830  0.3086
    1W        W49633  18.061   5.284   7.078  0.1536 -0.0938  0.0946
    1W        W49634  19.062  29.615   3.803 -0.0500  0.2369  0.3997
    1W        W49635  15.801  29.326   8.449 -0.1018 -0.0697  0.0832
    1W        W49636  11.944  19.123   1.235 -0.0359  0.2034  0.0049
    1W        W49637  13.597  24.689   2.441  0.0617 -0.0937  0.1248
    1W        W49638  22.556  26.177   7.756 -0.1664  0.2390  0.4305
    1W        W49639   7.031  16.030   0.989  0.1275 -0.0210 -0.3569
    1W        W49640  22.711  16.481   8.116 -0.0917 -0.0868  0.3553
    1W        W49641  23.380   9.975   9.156 -0.2066  0.1855 -0.3779
    1W        W49642  17.719   3.658   1.563 -0.0108  0.1974 -0.1642
    1W        W49643  16.819   0.496   8.749  0.0292  0.0470 -0.3279
    1W        W49644  18.523   3.496   7.510  0.1186  0.1455 -0.2047
    1W        W49645  15.253  18.519   0.840  0.1387  0.0779 -0.2235
    1W        W49646  10.986  26.128   3.315 -0.0209 -0.1115  0.1527
    1W        W49647   1.025   5.579   2.023  0.1456  0.2280 -0.0758
    1W        W49648   2.838  12.086   1.200 -0.1019  0.2871 -0.0393
    1W        W49649   8.831  28.353   0.713 -0.0275  0.2667 -0.2271
    1W        W49650   6.037  15.918   0.819 -0.1963  0.0869 -0.0550
    1W        W49651  13.569   9.282   2.652 -0.1573  0.1798 -0.0288
    1W        W49652  17.816  10.755   6.859  0.0155  0.0258 -0.1844
    1W        W49653  21.674  18.844   5.577 -0.3548  0.0403 -0.0159
    1W        W49654  27.706  24.221   0.436  0.1904 -0.1617 -0.2677
    1W        W49655  23.247  18.272   7.764  0.0380 -0.3419 -0.0097
    1W        W49656  21.146  25.334   9.444  0.1181 -0.2068  0.1913
    1W        W49657   6.055  13.265   7.079 -0.3273 -0.3237 -0.2953
    1W        W49658  26.864  16.192   1.435  0.0566 -0.0443  0.2157
    1W        W49659  19.403  27.649   2.449  0.0287 -0.2296 -0.1355
    1W        W49660  23.405  11.650   8.450  0.2366  0.0859  0.0976
    1W        W49661  22.235  24.945   2.491  0.0204 -0.0960 -0.1538
    1W        W49662  18.185   7.604   7.106 -0.0570  0.0730  0.0948
    1W        W49663  19.565  11.720   0.346  0.2302  0.1957 -0.0257
    1W        W49664  21.529   6.321   0.119  0.2548  0.2102  0.2121
    1W        W49665  26.540  22.935   8.033  0.1129 -0.2421  0.2029
    1W        W49666   5.816   2.071   8.562  0.1089 -0.1570 -0.0554
    1W        W49667  22.124  11.751   6.433 -0.0796 -0.2722 -0.1023
    1W        W49668  11.826  12.258   6.818  0.1112 -0.1482  0.2242
    1W        W49669   9.984  20.961   2.152 -0.0774  0.1756  0.2255
    1W        W49670  13.052  16.432   8.071  0.1240  0.0876  0.0529
    1W        W49671  23.239  13.130   9.050  0.0862  0.0096 -0.4230
    1W        W49672  27.831  16.873   9.116  0.0296 -0.1133  0.2726
    1W        W49673  26.770   3.197   2.548  0.0619 -0.0384 -0.0287
    1W        W49674  18.944   4.711   2.136  0.0111  0.1792 -0.1769
    1W        W49675  14.594   4.396   7.244 -0.0146  0.0426 -0.1522
    1W        W49676  18.022   1.132   6.531 -0.1061  0.0426 -0.1837
    1W        W49677   8.854   4.782   1.794 -0.1992  0.0100 -0.0797
    1W        W49678  20.153   1.797   2.946  0.1813  0.1423 -0.1828
    1W        W49679  20.602   3.885   1.302 -0.1448 -0.1592  0.2224
    1W        W49680  16.267  20.874   1.124  0.1371 -0.0996 -0.0421
    1W        W49681   8.514  18.280   1.834 -0.2199  0.1047 -0.0355
    1W        W49682   0.691  16.352   1.548 -0.3129 -0.3037 -0.2892
    1W        W49683  29.416  26.036   9.205  0.2463  0.0391 -0.0119
    1W        W49684  11.649  29.532   2.112  0.0401 -0.0830  0.1460
    1W        W49685  27.148  28.984   1.938 -0.0354  0.1331 -0.4424
    1W        W49686  21.181   6.359   9.306  0.0308  0.2083  0.1906
    1W        W49687  22.512   8.554   1.613 -0.0484  0.1498  0.1359
    1W        W49688   1.335  17.002   6.730 -0.0791  0.0522 -0.1450
    1W        W49689  22.471  21.143   7.322  0.0384 -0.1323  0.0777
    1W        W49690   9.763  29.788   1.631  0.2219 -0.0875  0.0421
    1W        W49691  29.042  13.709   7.303  0.0971 -0.1354  0.1398
    1W        W49692   3.145  21.502   7.945 -0.2773 -0.2245 -0.1027
    1W        W49693  23.390  19.078   6.180  0.0360  0.1091 -0.0489
    1W        W49694  20.634  15.799   8.057 -0.0738 -0.0012 -0.5126
    1W        W49695   0.591   4.351   7.012  0.2151 -0.0778  0.2300
    1W        W49696  26.239  21.135   9.502  0.0163 -0.1735 -0.0524
    1W        W49697   9.545  26.345   8.042 -0.1100  0.3494 -0.1033
    1W        W49698   1.311  19.166   1.173 -0.0352  0.1290 -0.0779
    1W        W49699  26.565  29.012   8.739 -0.2224  0.3778  0.0819
    1W        W49700   9.014   7.243   6.801 -0.0418 -0.0954 -0.2684
    1W        W49701   0.488  29.745   8.991 -0.0821 -0.2289  0.0556
    1W        W49702  12.197  28.966   3.446  0.1613  0.0235 -0.0583
    1W        W49703  16.614  21.356   8.588 -0.2967 -0.1058  0.3937
    1W        W49704  13.054  24.821   9.182  0.0777  0.2831  0.3689
    1W        W49705   7.330  13.473   8.303 -0.0749  0.3010 -0.3203
    1W        W49706   7.974   1.890   6.701  0.1337 -0.0895 -0.2887
    1W        W49707   6.966  17.870   7.927 -0.0739  0.0217  0.2614
    1W        W49708  29.572  24.668   9.497 -0.0252  0.1830  0.0995
    1W        W49709  13.351   3.336   8.540  0.2272 -0.0446 -0.3064
    1W        W49710  20.762  18.852   8.799 -0.0220  0.2032 -0.1324
    1W        W49711   8.256   5.477   2.203  0.2325 -0.0097 -0.1627
    1W        W49712  24.693   6.633   0.228 -0.1297 -0.2443 -0.1916
    1W        W49713  13.483   5.148   3.543  0.1621  0.2895 -0.2252
    1W        W49714  29.033   3.231   6.387  0.1080 -0.0326  0.0317
    1W        W49715  12.775  17.463   1.625 -0.1603 -0.0503  0.1499
    1W        W49716  22.748  27.325   7.987  0.1535  0.4456  0.0782
    1W        W49717  22.873  24.124   9.025  0.2110 -0.0674  0.1438
    1W        W49718  28.509  25.837   9.266  0.2976  0.1557 -0.1090
    1W        W49719  17.228  11.805   0.560 -0.0656 -0.0298  0.0117
    1W        W49720  20.676   2.542   2.006  0.2324 -0.0117  0.1113
    1W        W49721   9.376  14.819   7.974  0.0282 -0.2097  0.0755
    1W        W49722   1.391   7.650   6.336  0.2048 -0.2519  0.0141
    1W        W49723  18.291  11.922   0.907 -0.0155 -0.1352  0.0441
    1W        W49724  14.291   0.182   0.453 -0.1267  0.0816  0.0495
    1W        W49725  22.580  22.174   6.744  0.0752  0.2587  0.0790
    1W        W49726   3.404   4.100   7.418  0.3329  0.0990 -0.0557
    1W        W49727  16.834  18.366   0.320  0.0166 -0.2338  0.0015
    1W        W49728  16.597  18.287   2.260 -0.0637 -0.1449 -0.0726
    1W        W49729   6.373  24.704   0.264 -0.0837  0.1733 -0.1804
    1W        W49730   9.104  20.228   9.394 -0.0332  0.0727  0.4465
    1W        W49731  23.795  27.627   7.151 -0.0586  0.1086 -0.1242
    1W        W49732  29.418  10.061   9.248 -0.0659  0.0085  0.2701
    1W        W49733  23.924  17.948   8.941 -0.3309 -0.1861  0.0332
    1W        W49734  13.167  10.564   2.493  0.0799  0.2216  0.0789
    1W        W49735  20.771   0.931   0.008  0.1647  0.0256 -0.3752
    1W        W49736  14.636  11.337   1.127  0.0696 -0.0110  0.2412
    1W        W49737   0.020   8.015   8.581 -0.0265 -0.1273 -0.0666
    1W        W49738   3.066   5.732   9.005  0.1515  0.2476  0.1111
    1W        W49739   1.392  29.131   0.014  0.0308 -0.1056  0.0754
    1W        W49740   7.094  16.626   9.395  0.0950  0.1194  0.1210
    1W        W49741  16.695  29.059   0.550 -0.0965  0.0628  0.1683
    1W        W49742   7.092  22.457   6.246 -0.0654 -0.0710  0.2075
    1W        W49743  22.848  20.889   6.336 -0.1799 -0.0633 -0.0646
    1W        W49744   8.136  13.557   0.501 -0.1891  0.2142 -0.3181
    1W        W49745   4.157  20.036   8.482  0.1033 -0.2504 -0.1016
    1W        W49746  19.125  22.393   9.247  0.0451 -0.2453  0.0844
    1W        W49747  11.801   5.403   7.204  0.1173 -0.2751  0.3973
    1W        W49748  24.181  14.856   1.002 -0.0498 -0.1156  0.0578
    1W        W49749   8.462  12.366   8.509  0.0499 -0.0170 -0.0345
    1W        W49750  16.230  26.170   6.965  0.2025  0.0488 -0.0566
    1W        W49751  16.686  27.973   3.278 -0.1270  0.0333  0.3391
    1W        W49752  21.281   5.858   0.024 -0.1519  0.1361 -0.1809
    1W        W49753  14.729   2.820   1.673  0.2227 -0.0335 -0.2605
    1W        W49754   6.774  25.132   8.870  0.0372 -0.1159 -0.0485
    1W        W49755   0.720   0.840   0.481 -0.0878 -0.1965 -0.1054
    1W        W49756  13.794  29.422   8.163  0.1340 -0.2348 -0.1119
    1W        W49757  14.711   3.603   7.881 -0.0363  0.0294 -0.0971
    1W        W49758  11.074   9.663   8.082 -0.2077 -0.0499  0.0655
    1W        W49759   7.571  24.812   0.667 -0.1268  0.1107 -0.0276
    1W        W49760  24.149  17.605   5.628  0.0315  0.1616  0.1909
    1W        W49761  21.964  22.048   8.067 -0.0894  0.0237 -0.0788
    1W        W49762  28.954  24.065   7.594  0.1803 -0.3483  0.2249
    1W        W49763   2.380  21.580   8.514 -0.0679  0.1147  0.3254
    1W        W49764   6.503  24.049   0.418  0.1457  0.3865  0.3672
    1W        W49765   9.950  12.498   6.923 -0.1108 -0.0296 -0.1014
    1W        W49766   5.557  22.921   0.150 -0.1979 -0.3620  0.3430
    1W        W49767  21.299  23.840   1.110  0.0404  0.0498 -0.0480
    1W        W49768  27.617   6.817   2.053  0.2495 -0.3545  0.0037
    1W        W49769  25.722  16.261   6.574 -0.3236 -0.1245 -0.0309
    1W        W49770  19.022  22.752   2.573 -0.0347 -0.0710  0.2626
    1W        W49771  12.322  18.768   8.825  0.0500 -0.0959  0.1414
    1W        W49772  14.726  23.243   8.731  0.0794  0.4034 -0.0054
    1W        W49773  10.478  15.694   8.403  0.4198 -0.0184  0.1247
    1W        W49774  11.502   4.555   6.768  0.0745  0.1662  0.2853
    1W        W49775   0.172   1.261   9.008 -0.0274  0.0547  0.2178
    1W        W49776   5.093   9.507   6.379 -0.1653 -0.0226  0.0989
    1W        W49777  14.341  10.967   1.163  0.0436 -0.0202 -0.1365
    1W        W49778  17.060  27.110   8.780 -0.2030 -0.0377  0.1536
    1W        W49779   4.358   5.819   8.711  0.2366  0.4527  0.1414
    1W        W49780  25.700   2.907   7.415 -0.2627 -0.0709 -0.1943
    1W        W49781   8.973  22.619   1.393  0.1708  0.1794  0.1478
    1W        W49782   0.060   3.053   1.468 -0.1682  0.0139  0.5484
    1W        W49783  10.634   8.647   3.280  0.1342 -0.2686  0.0185
    1W        W49784  13.319  29.293   8.224 -0.0589 -0.0373 -0.0156
    1W        W49785  21.569  28.621   8.513  0.2110 -0.2223 -0.0259
    1W        W49786  15.804  25.409   1.614  0.0575 -0.1487  0.1718
    1W        W49787  14.775   7.948   9.284  0.1591 -0.0755 -0.1229
    1W        W49788  12.763   1.735   0.539  0.0213  0.0037  0.2634
    1W        W49789   8.315   3.561   3.806  0.2870 -0.1448  0.1258
    1W        W49790   9.148  28.103   8.412 -0.1366 -0.0279 -0.0839
    1W        W49791  17.325   4.768   8.329 -0.1239 -0.0566 -0.0875
    1W        W49792   3.960  17.069   6.726 -0.0651 -0.0722 -0.0351
    1W        W49793  16.341  20.099   7.334 -0.3680  0.0485 -0.1110
    1W        W49794   4.311   9.898   2.038  0.0040  0.0468 -0.0697
    1W        W49795  14.801   0.185   0.778 -0.2831 -0.0102 -0.2061
    1W        W49796   8.195  12.575   9.526 -0.1109  0.0809 -0.0746
    1W        W49797   2.712  19.775   0.554 -0.1538 -0.2532 -0.1122
    1W        W49798  22.566  20.442   7.798  0.0111  0.1905  0.2621
    1W        W49799  21.938   0.779   1.815 -0.0612  0.0751  0.2057
    1W        W49800   5.685   0.749   6.697  0.1310 -0.1119  0.1105
    1W        W49801  15.394   3.850   9.473 -0.0253 -0.0471  0.4083
    1W        W49802   6.058   3.741   0.531 -0.0183  0.0131 -0.2109
    1W        W49803  25.234  27.874   7.334  0.0966 -0.0699  0.0462
    1W        W49804  17.329  26.995   1.115 -0.1432 -0.1751  0.2622
    1W        W49805  13.229  20.295   8.039 -0.2128 -0.1312  0.1367
    1W        W49806  18.068  12.695   7.493 -0.2271 -0.0698 -0.0514
    1W        W49807  12.556  29.791   8.611  0.4541  0.1169  0.1118
    1W        W49808  19.519  10.713   7.414 -0.1320  0.1424 -0.1565
    1W        W49809  13.767  24.742   1.107  0.1769  0.0374  0.2224
    1W        W49810  18.659  10.540   8.369 -0.1448 -0.0588  0.1667
    1W        W49811  26.970  29.097   0.514  0.1348  0.1557 -0.4043
    1W        W49812  10.944   1.934   6.990  0.0813 -0.3842  0.0501
    1W        W49813  24.719  29.454   3.313  0.0258  0.1575 -0.1968
    1W        W49814   4.587  15.113   8.129  0.1827  0.0410 -0.0823
    1W        W49815   5.208  29.803   6.422 -0.3255  0.0589 -0.1230
    1W        W49816  29.603  26.317   8.075  0.0838  0.0667 -0.2053
    1W        W49817  11.394   7.821   7.702  0.0542 -0.1575  0.1242
    1W        W49818  14.163  18.017   8.278 -0.2129 -0.0725  0.0499
    1W        W49819   4.201  11.997   6.972 -0.2729 -0.2445  0.1796
    1W        W49820  20.165   4.164   7.732  0.0721 -0.1504 -0.1250
    1W        W49821   2.349   5.409   8.187  0.0855  0.1939  0.1080
    1W        W49822  21.758  23.940   8.224 -0.0008  0.0613  0.3124
    1W        W49823  12.999  10.618   8.433  0.2125  0.2723  0.0976
    1W        W49824  18.205  22.357   2.932  0.0045 -0.3380  0.0276
    1W        W49825  10.839  22.558   7.315  0.1403  0.1189  0.1784
    1W        W49826  14.557  26.760   2.417 -0.1558  0.4947 -0.1757
    1W        W49827   6.125  22.624   2.505 -0.1935 -0.1316  0.1483
    1W        W49828  16.055  19.287   1.361  0.0327  0.2896 -0.0349
    1W        W49829   9.620   0.034   8.996  0.0349 -0.2416  0.2030
    1W        W49830   9.194   9.690   1.792 -0.0120  0.0293  0.1688
    1W        W49831   2.251  23.001   7.709  0.0855 -0.0910 -0.0500
    1W        W49832  10.589   1.793   2.543  0.3270  0.1044 -0.0268
    1W        W49833   6.987  27.427   7.396  0.0152 -0.1876  0.0639
    1W        W49834   3.808  11.536   6.828 -0.1239  0.0892 -0.2227
    1W        W49835  19.446   6.149   8.992  0.0672 -0.3490  0.1557
    1W        W49836  10.128  12.763   1.263 -0.1451  0.0051 -0.1498
    1W        W49837  25.136  28.000   3.485 -0.0284  0.3311 -0.0288
    1W        W49838  22.136  25.072   7.052 -0.0930  0.2376 -0.1487
    1W        W49839  18.664  16.001   5.921 -0.0520  0.2022 -0.2018
    1W        W49840  28.806   6.126   1.007 -0.1627  0.1359  0.2985
    1W        W49841  11.887  11.684   8.098  0.0713 -0.2883  0.1122
    1W        W49842  24.875   2.582   1.093  0.2661  0.0873 -0.1125
    1W        W49843   2.887  11.384   0.410 -0.1027 -0.0703 -0.0235
    1W        W49844   7.233  27.662   0.221 -0.3390 -0.0159  0.3295
    1W        W49845  24.949   6.704   8.319 -0.0405 -0.1105 -0.0513
    1W        W49846  23.414  27.654   8.746 -0.1077  0.3652 -0.1061
    1W        W49847  19.056  10.211   0.949 -0.2764 -0.1108 -0.3589
    1W        W49848  23.499  27.938   9.248  0.1110  0.2696 -0.1775
    1W        W49849  23.035  20.567   7.293 -0.0409  0.0154  0.1221
    1W        W49850   1.439  19.750   9.285 -0.2958  0.0102  0.0962
    1W        W49851   4.055   4.183   6.593  0.1025 -0.0279  0.3599
    1W        W49852  24.298  21.390   1.776 -0.0117 -0.1994 -0.1076
    1W        W49853   3.999  18.627   6.833  0.1108  0.0305 -0.0182
    1W        W49854   4.206   0.423   8.322  0.1415  0.0068  0.2400
    1W        W49855  21.909  10.355   6.843  0.2167  0.3108 -0.3370
    1W        W49856  22.692   9.395   1.438  0.2803 -0.2242 -0.1932
    1W        W49857   9.372  17.615   7.988 -0.0447 -0.2314 -0.1381
    1W        W49858   9.730   6.427   6.777 -0.2936 -0.0312 -0.0213
    1W        W49859   9.879  20.988   7.154  0.3841 -0.3605  0.0231
    1W        W49860  20.896   5.340   1.774 -0.1728  0.0668 -0.2574
    1W        W49861  23.882  11.961   2.346 -0.0110  0.3939  0.2959
    1W        W49862  11.718   3.405   8.082 -0.0005 -0.1056  0.1128
    1W        W49863  22.492  20.653   7.278 -0.0405  0.1714  0.2113
    1W        W49864   6.095   9.128   7.180  0.2304  0.3256  0.0125
    1W        W49865  16.004  24.432   1.713 -0.1379  0.0331  0.0793
    1W        W49866  21.344   3.822   3.649  0.2035 -0.3474 -0.0004
    1W        W49867  25.242  13.706   8.787  0.0757  0.3525  0.1680
    1W        W49868   6.926   0.016   0.602  0.0766 -0.3243 -0.4154
    1W        W49869  23.570   8.000   7.792  0.2643 -0.3349  0.1901
    1W        W49870   2.329  15.646   8.218  0.0632 -0.0203 -0.1951
    1W        W49871   7.095  21.985   7.046 -0.1995 -0.1148 -0.2233
    1W        W49872  12.535  25.414   9.136 -0.1594  0.1719  0.1048
    1W        W49873  26.088  21.609   6.645 -0.2215 -0.1797  0.1893
    1W        W49874  15.347  15.309   6.191  0.0162  0.2299 -0.1242
    1W        W49875  24.066  16.896   8.076 -0.2416  0.2857  0.0136
    1W        W49876  21.751  10.132   8.753 -0.1128 -0.0555  0.2438
    1W        W49877  14.041  28.418   9.180  0.0303  0.0053 -0.1600
    1W        W49878  27.965  13.765   0.030 -0.2921 -0.1703  0.0687
    1W        W49879  15.281   4.913   2.588  0.0947 -0.1877 -0.1525
    1W        W49880  20.689  27.694   8.877 -0.0683  0.1122 -0.0631
    1W        W49881   5.575   8.056   0.843  0.1919  0.3495 -0.0498
    1W        W49882  19.774   7.356   8.469 -0.0196 -0.3336 -0.1543
    1W        W49883  17.690  17.746   0.430 -0.2058  0.2728 -0.1840
    1W        W49884  12.663  28.808   7.792  0.0864 -0.0849  0.1038
    1W        W49885   3.082   0.514   0.613 -0.0213 -0.0663  0.1934
    1W        W49886  19.955  25.700   2.804  0.2800 -0.1433 -0.0099
    1W        W49887   7.953   8.048   0.214 -0.0951 -0.0013  0.0457
    1W        W49888  17.558   5.248   7.193  0.0440 -0.2271  0.0263
    1W        W49889  26.742  22.976   0.343 -0.0480  0.0738 -0.0664
    1W        W49890  11.606   9.378   2.317 -0.3260 -0.0065  0.0945
    1W        W49891  26.036  14.257   8.997  0.2935 -0.2068 -0.0614
    1W        W49892   7.630   3.882   1.974  0.2437 -0.1245  0.0051
    1W        W49893  23.784  28.592   2.296  0.3542 -0.0526 -0.1216
    1W        W49894  27.895   7.588   5.839 -0.0728 -0.1604 -0.1985
    1W        W49895   6.293   5.886   1.103  0.0557  0.0659 -0.1370
    1W        W49896   1.389  10.983   1.126  0.0734 -0.1372  0.1501
    1W        W49897  11.291  27.549   6.510  0.2698 -0.1787 -0.2062
    1W        W49898  27.608  26.773   2.505  0.0843 -0.2615  0.0747
    1W        W49899  16.299  21.309   0.799  0.0167 -0.1731 -0.6515
    1W        W49900  23.088   3.663   9.300  0.1604  0.3109 -0.0525
    1W        W49901  13.149  12.587   8.169  0.0372 -0.0794 -0.0022
    1W        W49902   9.001  24.494   8.560 -0.0082  0.0860  0.1865
    1W        W49903  10.932  17.891   2.134 -0.4202 -0.1668 -0.2928
    1W        W49904  13.739   9.698   1.198  0.4634  0.3016 -0.1323
    1W        W49905  11.427   1.309   0.571  0.2964  0.2234 -0.0359
    1W        W49906  11.950  12.004   7.689 -0.1836 -0.1675 -0.0012
    1W        W49907  22.363  25.267   2.103  0.1358  0.0507 -0.3286
    1W        W49908  14.714  19.455   1.819  0.1342  0.0184  0.2451
    1W        W49909  23.369  23.397   0.749  0.0504  0.0925 -0.1409
    1W        W49910   4.234  22.227   8.192 -0.1741 -0.0217  0.2153
    1W        W49911  24.338   4.651   9.080 -0.0713  0.1436 -0.1154
    1W        W49912  15.440  20.482   0.039  0.0789  0.2794 -0.2706
    1W        W49913  25.381  26.338   7.362 -0.4198 -0.1240 -0.1513
    1W        W49914  20.907   4.069   0.493 -0.2366 -0.0149  0.2264
    1W        W49915   8.146  23.789   1.366 -0.0582  0.3213 -0.0196
    1W        W49916  19.360  25.631   7.421  0.3897 -0.0484  0.1118
    1W        W49917  24.388  11.652   0.977 -0.1240 -0.1061  0.1972
    1W        W49918  22.380  29.069   9.535 -0.0131 -0.1975 -0.0463
    1W        W49919  15.641  16.867   0.720 -0.0519  0.0115  0.2052
    1W        W49920  13.890  17.897   8.636 -0.0337 -0.2669 -0.0873
    1W        W49921  18.441  22.256   7.564 -0.0995 -0.2274  0.0772
    1W        W49922   7.423  14.868   0.035  0.1583  0.3049  0.2273
    1W        W49923   6.982   6.866   2.951 -0.1123  0.1057 -0.1699
    1W        W49924   4.451   1.711   7.694  0.1410 -0.1177 -0.0160
    1W        W49925  21.744   0.351   1.865 -0.1775 -0.0859  0.3694
    1W        W49926  13.179   7.045   6.202 -0.2089 -0.1006  0.1680
    1W        W49927  28.168  27.988   2.964 -0.0259  0.3263 -0.0642
    1W        W49928   1.199  20.157   7.561 -0.2191  0.2640  0.2261
    1W        W49929  12.413  18.494   0.503 -0.2586 -0.2731 -0.0016
    1W        W49930   8.915  11.358   8.939 -0.0274  0.0110 -0.1460
    1W        W49931   5.740  14.069   2.305  0.2638  0.0405  0.1122
    1W        W49932  27.866  18.315   9.341 -0.3674 -0.0859 -0.1101
    1W        W49933  13.225   1.696   8.761 -0.3021  0.2124 -0.1295
    1W        W49934  18.983   1.560   7.289  0.1943 -0.2501 -0.3419
    1W        W49935  10.912   1.628   2.173 -0.1205 -0.0082 -0.1489
    1W        W49936  25.167  17.636   6.909  0.1126  0.0752 -0.0215
    1W        W49937  12.307  25.643   1.487  0.1925  0.0165  0.0526
    1W        W49938  15.524  11.040   0.879  0.0784  0.2582  0.1904
    1W        W49939  15.489  21.455   0.990 -0.0493  0.0648  0.1289
    1W        W49940  16.967  19.328   7.562  0.1465  0.2738  0.0802
    1W        W49941  24.017   5.921   1.871 -0.3348  0.1147 -0.0572
    1W        W49942   2.295  13.108   7.713 -0.1968  0.3429  0.0966
    1W        W49943  25.448  12.147   7.559  0.0106 -0.0649  0.0318
    1W        W49944  12.402   4.065   7.263 -0.0477  0.1867  0.0087
    1W        W49945  19.734   2.455   8.003  0.0532  0.1465  0.0590
    1W        W49946  15.408  12.358   7.601  0.1152  0.0374 -0.2802
    1W        W49947  16.390  22.898   1.858  0.2774 -0.2167 -0.2079
    1W        W49948  18.438  10.245   0.580  0.0774 -0.0106  0.0892
    1W        W49949  17.778  15.610   2.710 -0.0189  0.1921 -0.2080
    1W        W49950  28.794   3.130   9.515  0.1936  0.1294 -0.0138
    1W        W49951  17.616   4.362   6.891 -0.0479  0.2824  0.0008
    1W        W49952   4.776  22.459   7.363  0.3379 -0.1749 -0.1266
    1W        W49953  18.133   4.904   8.863 -0.2337 -0.1819 -0.3448
    1W        W49954   6.177  20.731   1.667 -0.0561 -0.2044 -0.0305
    1W        W49955  28.645   7.365   7.370  0.0867 -0.1176 -0.2408
    1W        W49956  29.277  18.758   6.997  0.1565  0.5174 -0.2181
    1W        W49957  12.850  18.624   7.510  0.0356 -0.2034  0.0688
    1W        W49958  24.410   7.824   0.455  0.2261 -0.5406 -0.0423
    1W        W49959   6.674  20.719   1.932 -0.0355 -0.1104  0.0735
    1W        W49960  14.371   2.769   8.051 -0.1830  0.0763 -0.2736
    1W        W49961  23.226  23.157   9.027  0.0649  0.0231 -0.0762
    1W        W49962  17.398  27.112   9.137 -0.1455  0.4304  0.0148
    1W        W49963  17.055  26.449   0.563  0.0680 -0.1208  0.0033
    1W        W49964  14.541  14.091   8.945 -0.0985  0.2847  0.1297
    1W        W49965  28.568   1.165   2.843 -0.0605 -0.0419  0.1325
    1W        W49966   4.969  22.758   7.858  0.0717 -0.1616  0.0776
    1W        W49967  27.859  28.116   6.588  0.1009  0.1417 -0.2545
    1W        W49968  26.378  18.630   8.869  0.2385  0.2245  0.0961
    1W        W49969  23.165  14.558   1.802 -0.0470  0.0447  0.1565
    1W        W49970  26.086   4.075   0.657  0.1810  0.1978  0.0573
    1W        W49971  26.326  28.135   2.522 -0.1816 -0.3292 -0.0490
    1W        W49972  12.927   3.029   0.551 -0.1427  0.2394  0.1479
    1W        W49973   2.513  23.680   1.652 -0.1177  0.0066 -0.0098
    1W        W49974  11.909  13.490   0.169 -0.2307  0.1294 -0.1681
    1W        W49975   2.203   4.840   8.286  0.1341 -0.0662  0.0428
    1W        W49976  21.677  27.107   0.550  0.0052 -0.1491  0.2624
    1W        W49977  26.934  24.323   0.998  0.0797  0.2080 -0.0379
    1W        W49978  29.439   7.107   8.320 -0.0249  0.0490  0.3241
    1W        W49979  23.111  24.440   2.226  0.2971  0.1532  0.0127
    1W        W49980   5.392   0.148   0.652 -0.0760 -0.0039 -0.1447
    1W        W49981  17.596  16.574   1.395  0.2134  0.0713  0.1525
    1W        W49982  12.215  16.814   1.650  0.0163  0.2778  0.0444
    1W        W49983  27.213  14.501   7.764  0.0740  0.0159 -0.0578
    1W        W49984  12.643   5.531   0.829  0.0863 -0.0979  0.1022
    1W        W49985   3.228   5.775   1.610 -0.1051  0.1410 -0.0819
    1W        W49986  18.787  21.304   1.688 -0.1169  0.1378  0.1413
    1W        W49987  12.216  13.634   8.519  0.0807  0.0089  0.0376
    1W        W49988  10.533  16.226   1.820  0.0547  0.0397  0.0325
    1W        W49989   4.253  11.449   8.538 -0.1052  0.1708  0.2599
    1W        W49990  10.353  28.046   8.653 -0.0019 -0.0399 -0.1714
    1W        W49991   9.705   5.453   3.356 -0.0456 -0.1453  0.3749
    1W        W49992  12.643  24.400   6.335  0.1813  0.0558 -0.1519
    1W        W49993   6.884   8.449   8.683 -0.2713 -0.0494  0.0336
    1W        W49994  10.437  23.691   9.199  0.1471  0.1187  0.0799
    1W        W49995   2.138  26.634   6.762  0.1490  0.1513  0.1440
    1W        W49996   9.222   1.681   8.331  0.3123 -0.0173  0.0426
    1W        W49997  15.162   2.623   9.001  0.1931  0.0404 -0.1546
    1W        W49998  21.652  21.569   0.852 -0.1491  0.2972  0.2871
    1W        W49999   5.864  28.059   3.152 -0.0393 -0.0243  0.0382
    1W        W50000  10.330  15.726   1.730  0.1289  0.1899  0.3177
    1W        W50001  25.702  14.114   0.204 -0.0897  0.0199 -0.1376
    1W        W50002  17.098  28.230   2.223  0.0317 -0.2190 -0.0528
    1W        W50003   1.333   7.765   2.960 -0.0494  0.1206  0.5132
    1W        W50004   7.862  29.234   8.262 -0.1240 -0.0149  0.1551
    1W        W50005  16.504  16.263   9.260  0.1687 -0.1998 -0.0623
    1W        W50006  18.390  12.977   7.934  0.0936  0.0558 -0.3996
    1W        W50007  22.634  24.923   7.051  0.0009  0.1066 -0.1074
    1W        W50008  13.002  12.727   1.897 -0.0919 -0.1555  0.0100
    1W        W50009  29.133  15.979   9.249  0.2960 -0.1183 -0.0123
    1W        W50010   4.740   0.119   7.539  0.0467  0.2286 -0.0430
    1W        W50011  23.596  29.145   1.513 -0.1044  0.2111  0.0178
    1W        W50012   7.752  24.611   7.848 -0.1150  0.2509 -0.3116
    1W        W50013  24.626  23.653   1.740  0.0476 -0.0926  0.0150
    1W        W50014  18.306  27.995   0.762  0.0728 -0.0651  0.1311
    1W        W50015  26.989   2.845   7.309  0.0445 -0.0294 -0.4211
    1W        W50016  26.738  10.647   9.179  0.0026  0.2808  0.1050
    1W        W50017  11.528  26.750   7.310 -0.0926  0.2526 -0.1817
    1W        W50018   4.442  10.518   0.298 -0.0590  0.0015 -0.2115
    1W        W50019  15.372  13.772   9.283  0.1268 -0.1352 -0.3034
    1W        W50020  17.557  11.906   1.609  0.2174 -0.1345  0.3519
    1W        W50021   3.385  21.328   8.985 -0.0410  0.1867 -0.2484
    1W        W50022  24.500  29.247   0.200 -0.1162 -0.1719 -0.2523
    1W        W50023  16.223  18.794   7.615 -0.0399 -0.2710  0.2052
    1W        W50024  20.870  20.166   2.274  0.2101  0.0389 -0.0368
    1W        W50025  11.982  24.564   1.569 -0.0195 -0.1209 -0.2585
    1W        W50026   4.126  13.872   1.179 -0.1455 -0.0289  0.2304
    1W        W50027  15.198  14.798   1.779  0.1321  0.0975  0.3059
    1W        W50028  15.463  25.853   7.172  0.2987 -0.0758  0.2843
    1W        W50029  14.232  24.232   2.165 -0.1948  0.2268  0.0869
    1W        W50030  21.626  11.951   8.244  0.0270 -0.1389  0.3109
    1W        W50031  17.478  28.385   7.415 -0.1592 -0.3295  0.2697
    1W        W50032  28.972  10.787   8.714 -0.1734  0.1735  0.0591
    1W        W50033  29.055  27.009   3.284 -0.1223 -0.1110 -0.1908
    1W        W50034  25.668  19.481   6.012 -0.0387  0.0789  0.1010
    1W        W50035   3.582  23.019   1.397  0.1973  0.0850  0.0261
    1W        W50036  13.116  26.746   1.820 -0.2146  0.0537 -0.0192
    1W        W50037   0.572  21.224   7.924  0.2020  0.2269  0.2157
    1W        W50038   0.690  15.098   2.142  0.0460  0.1452 -0.0700
    1W        W50039  13.998  21.708   0.147 -0.0316  0.0194  0.1707
    1W        W50040  14.727   7.130   7.722 -0.2588  0.2404 -0.5815
    1W        W50041  11.183  28.190   9.442 -0.2943  0.0442 -0.0651
    1W        W50042   6.933  20.342   8.536 -0.2446  0.1795 -0.1584
    1W        W50043   2.753   9.227   0.187  0.2054 -0.1505  0.1616
    1W        W50044  12.695  29.151   6.772 -0.1115  0.1500  0.2790
    1W        W50045  17.164  26.699   2.459  0.1169  0.2004 -0.1134
    1W        W50046  19.697  16.602   1.831 -0.1909 -0.1274  0.1674
    1W        W50047  17.116  20.483   8.202  0.0048  0.0675 -0.2297
    1W        W50048  28.113  27.622   6.541  0.3136  0.2519  0.0225
    1W        W50049  12.392   5.626   1.510 -0.0235 -0.1418 -0.0370
    1W        W50050  13.989  26.233   2.473  0.1743 -0.0414 -0.0933
    1W        W50051  17.103  13.169   1.678 -0.1890 -0.0310  0.3265
    1W        W50052  23.045   7.563   1.369  0.0626  0.0821  0.1822
    1W        W50053  17.505  12.305   7.177 -0.0254 -0.0009 -0.1876
    1W        W50054   2.178  17.165   7.798 -0.0733  0.1605 -0.3565
    1W        W50055  16.452  25.374   0.735  0.1163 -0.2592  0.1137
    1W        W50056  12.934  28.305   0.562  0.1164 -0.1023 -0.2326
    1W        W50057  15.519  25.076   1.416 -0.0510 -0.0432 -0.1614
    1W        W50058  14.478  12.586   9.496  0.1135  0.1713 -0.0425
    1W        W50059  28.775  25.024   2.505 -0.3415  0.1331 -0.1081
    1W        W50060  25.350  28.862   0.488 -0.1110 -0.0381 -0.2914
    1W        W50061  25.202  21.897   6.570 -0.0244  0.0609  0.1600
    1W        W50062  25.539  20.114   6.677  0.3494 -0.0553  0.1336
    1W        W50063  27.097  20.968   7.660  0.1178  0.1346 -0.0310
    1W        W50064   7.208   3.012   0.373  0.3125 -0.2403 -0.0966
    1W        W50065  12.449  19.212   1.383 -0.2390 -0.1679 -0.1455
    1W        W50066  23.202  15.765   6.102 -0.1341 -0.2446  0.2026
    1W        W50067   2.276  11.743   0.936  0.1892  0.2208 -0.0784
    1W        W50068  10.063  12.441   8.282 -0.0405  0.0192 -0.0997
    1W        W50069  17.688   0.555   7.890  0.0500  0.2107  0.2055
    1W        W50070  16.964  13.668   0.493 -0.0297 -0.1630 -0.0537
    1W        W50071   5.072   8.401   2.762 -0.0622  0.3937  0.1610
    1W        W50072  13.207  20.781   7.838  0.2434  0.1411 -0.2546
    1W        W50073  19.143  12.696   0.349 -0.1430 -0.0220 -0.1943
    1W        W50074  26.348  24.965   9.402  0.0778 -0.0376 -0.0577
    1W        W50075  29.318  12.816   7.893 -0.1731 -0.1269 -0.0562
    1W        W50076   5.464  21.596   1.876 -0.1265  0.0103  0.0506
    1W        W50077   7.711  11.357   1.672 -0.5008 -0.2707 -0.1276
    1W        W50078  17.520   2.614   1.920 -0.1228  0.2169  0.0848
    1W        W50079  25.674  10.216   0.377  0.0673 -0.1812  0.3816
    1W        W50080  21.031  14.163   7.401 -0.0796 -0.0356  0.4376
    1W        W50081  17.635  20.478   7.892 -0.0362 -0.2463  0.0475
    1W        W50082  21.524  12.084   2.295  0.2729  0.0423  0.1353
    1W        W50083   6.328  20.178   1.003 -0.1297 -0.0204  0.0876
    1W        W50084  23.065  25.760   8.633 -0.1823  0.0100  0.1584
    1W        W50085   4.854   6.302   2.506  0.0865  0.1557  0.0959
    1W        W50086   0.991  18.488   2.274 -0.1425  0.2181 -0.0630
    1W        W50087   3.563  22.388   9.121 -0.1936  0.1219 -0.0903
    1W        W50088  10.520  25.561   7.568 -0.0311 -0.0442  0.3835
    1W        W50089  26.971  12.964   6.855  0.0466 -0.0115 -0.2498
    1W        W50090   6.399   9.563   1.781 -0.0079  0.1397  0.0085
    1W        W50091  10.516  22.481   2.157  0.1453 -0.0590 -0.0643
    1W        W50092  21.887   1.258   2.037  0.1642  0.1584 -0.0746
    1W        W50093   3.919   0.775   7.941 -0.0629 -0.0926  0.0764
    1W        W50094  24.897  11.452   8.457 -0.3237  0.1574 -0.3207
    1W        W50095   7.551  16.691   7.202  0.2181  0.2770 -0.1720
    1W        W50096  13.606  21.112   1.984  0.0221 -0.0289  0.0857
    1W        W50097  17.281   5.389   6.706  0.3506 -0.1267 -0.2373
    1W        W50098  29.368  29.629   8.926 -0.2685 -0.1923  0.1386
    1W        W50099  18.466   2.813   0.683  0.0323  0.0834  0.0592
    1W        W50100  16.979   8.606   8.574 -0.0140 -0.0256 -0.6079
    1W        W50101  13.729  28.572   5.960  0.0149 -0.0716 -0.2739
    1W        W50102  18.249   3.861   7.658  0.2423  0.0404  0.3679
    1W        W50103  15.263  26.037   2.800  0.1830  0.0112 -0.2366
    1W        W50104  21.743  27.958   7.875 -0.0606 -0.0458  0.3383
    1W        W50105  20.340   5.001   8.925 -0.0670 -0.0251  0.1402
    1W        W50106  27.700   2.116   3.037 -0.2358 -0.0128 -0.3250
    1W        W50107  23.113   5.746   3.123 -0.0543  0.0869  0.1013
    1W        W50108  16.680  23.824   8.964  0.1925  0.0034  0.1262
    1W        W50109  17.914  13.832   8.633 -0.0721 -0.2247  0.1130
    1W        W50110  23.197  17.466   0.355  0.0146  0.1166  0.0952
    1W        W50111  10.628  18.194   9.208  0.2778  0.3471 -0.0395
    1W        W50112  28.958  20.197   8.002  0.0248 -0.0695 -0.3145
    1W        W50113  29.141   1.709   0.644 -0.0724  0.0914  0.0150
    1W        W50114  28.505   2.798   8.154 -0.4141  0.0794 -0.0042
    1W        W50115  17.202  17.498   7.699  0.1579 -0.2867 -0.2705
    1W        W50116  10.253  17.033   0.759 -0.1222  0.0370 -0.1523
    1W        W50117  25.722  23.773   1.272  0.0144 -0.0376 -0.0892
    1W        W50118  26.157  12.200   0.264 -0.0676 -0.1677 -0.0093
    1W        W50119   9.554  20.169   0.684  0.1233  0.0135 -0.1900
    1W        W50120  18.243  23.110   7.747  0.0251  0.0125  0.5444
    1W        W50121  10.597   9.187   9.204 -0.1552 -0.0111  0.1929
    1W        W50122  18.003   2.317   1.109 -0.2116  0.2038 -0.3053
    1W        W50123  13.420  13.341   7.504  0.2141 -0.2826  0.1488
    1W        W50124   0.867  16.567   8.067  0.0000  0.1795  0.1078
    1W        W50125  29.760   7.485   7.027  0.0620 -0.3468 -0.1439
    1W        W50126   9.400  27.355   7.776  0.0436 -0.0022 -0.1861
    1W        W50127   9.680  26.319   2.430 -0.0397 -0.0174  0.0239
    1W        W50128  12.486  16.475   1.190 -0.1228  0.0535 -0.0107
    1W        W50129   7.513  23.573   6.987 -0.4101 -0.0330 -0.3635
    1W        W50130  11.851  21.500   0.365  0.0648 -0.0424  0.0869
    1W        W50131  25.156   7.202   7.125  0.1360 -0.3213 -0.2219
    1W        W50132  15.378  21.164   6.284 -0.2371 -0.3214  0.0199
    1W        W50133  23.893  16.559   8.946  0.3206 -0.2874  0.1246
    1W        W50134  14.095  11.197   2.384  0.0685 -0.2230 -0.0208
    1W        W50135   1.118  20.906   8.682  0.1217 -0.0995  0.0608
    1W        W50136  21.004   4.252   0.962 -0.0995  0.2606 -0.0033
    1W        W50137   7.779  17.247   8.001  0.1328  0.2203 -0.0604
    1W        W50138  21.430  16.555   1.019 -0.2871  0.0145  0.0167
    1W        W50139   6.344  21.115   0.043 -0.1370  0.2429 -0.1050
    1W        W50140   4.918  19.844   7.741 -0.2166  0.4383  0.2652
    1W        W50141  17.131   5.846   7.617  0.4462 -0.1635  0.2172
    1W        W50142  22.442   6.331   9.179  0.3749 -0.2137  0.2060
    1W        W50143  17.978   0.602   0.245  0.1532 -0.0656  0.0367
    1W        W50144  19.366   1.751   2.174 -0.0644  0.0603  0.1125
    1W        W50145   4.513  12.813   2.479 -0.0230  0.2780  0.0689
    1W        W50146  13.903  17.823   2.638  0.0734 -0.1226  0.2259
    1W        W50147   6.977  22.656   7.231  0.2483 -0.1175  0.0294
    1W        W50148   2.047  17.940   0.207  0.2364 -0.2235 -0.0432
    1W        W50149  21.151  19.308   0.529  0.0902  0.1613 -0.0030
    1W        W50150  19.755   3.219   7.359 -0.3059 -0.2474  0.0537
    1W        W50151   1.560  12.276   0.846  0.0621 -0.0253 -0.0067
    1W        W50152   0.093  28.346   1.100  0.0094  0.1093 -0.1524
    1W        W50153   1.153   7.303   8.816 -0.0789 -0.4234  0.2808
    1W        W50154  15.800  24.472   8.793  0.1073 -0.5042 -0.1235
    1W        W50155   6.303   2.752   0.472  0.0673  0.0139 -0.0684
    1W        W50156  19.697  10.901   8.400 -0.1847 -0.0112  0.2630
    1W        W50157  12.904  23.122   9.485 -0.0889 -0.2244 -0.1907
    1W        W50158   2.724   0.921   9.081 -0.0868 -0.4382 -0.2004
    1W        W50159   7.928  21.519   1.608  0.0767  0.0749 -0.3225
    1W        W50160  11.928  10.952   2.049 -0.2566  0.0795 -0.1976
    1W        W50161  18.314  19.003   9.319 -0.3003  0.0480 -0.0737
    1W        W50162  28.610   4.594   1.860 -0.2825 -0.3205  0.1659
    1W        W50163  18.765   6.062   2.348 -0.1025 -0.0958  0.0978
    1W        W50164  21.718  18.673   6.299 -0.0589  0.1218 -0.1836
    1W        W50165   1.664   2.203   7.279 -0.1054  0.1724 -0.1296
    1W        W50166   0.028   6.457   8.121 -0.4199 -0.2630  0.0137
    1W        W50167  25.465   7.640   8.197 -0.0282  0.0124  0.0079
    1W        W50168   1.180  25.015   1.960 -0.3123  0.1935 -0.0799
    1W        W50169  25.162  23.082   1.187  0.1361 -0.0632 -0.1606
    1W        W50170  28.167  10.726   6.104  0.1935 -0.0133  0.1246
    1W        W50171  28.160  25.583   1.762  0.0446 -0.0823  0.1260
    1W        W50172  20.357  13.245   9.512 -0.1051 -0.1963 -0.2913
    1W        W50173   1.111   2.660   6.532  0.0853  0.0253 -0.0391
    1W        W50174   8.708   1.220   2.240  0.0753 -0.2297  0.1221
    1W        W50175   9.710  15.999   7.772  0.0524  0.0653 -0.0114
    1W        W50176   8.868  20.144   0.301  0.0657  0.0647 -0.0375
    1W        W50177  16.158  21.506   9.023 -0.1443 -0.2711 -0.0246
    1W        W50178  12.392  29.359   7.172  0.1224 -0.1629  0.3312
    1W        W50179   9.209  13.502   0.574 -0.2506  0.0690 -0.0249
    1W        W50180   0.233  29.219   8.241 -0.0104 -0.0551 -0.0740
    1W        W50181  21.562   6.649   9.003 -0.3906 -0.1101  0.1522
    1W        W50182  18.637  19.455   8.296 -0.1506  0.0247  0.0875
    1W        W50183   7.779  19.407   0.575  0.1537 -0.1167  0.2873
    1W        W50184  23.531   0.615   1.177  0.0444  0.0544  0.3860
    1W        W50185  23.310  16.213   1.521  0.1641 -0.2396  0.1233
    1W        W50186  21.978   6.593   7.035  0.1330 -0.1142  0.4882
    1W        W50187   9.846  26.546   0.311 -0.0451 -0.0831  0.2892
    1W        W50188  23.538  19.336   0.632  0.1157  0.1212  0.0754
    1W        W50189  14.090  11.781   3.593  0.2160 -0.4719  0.3203
    1W        W50190   4.182  21.349   2.177  0.1619  0.3302  0.0519
    1W        W50191   0.302  27.610   0.985 -0.0709 -0.1458 -0.0904
    1W        W50192  15.759  29.071   7.731  0.0819 -0.1878  0.1773
    1W        W50193  12.382  28.462   9.531 -0.2797  0.2967 -0.1214
    1W        W50194  13.461  26.802   9.252  0.0709 -0.2626 -0.1590
    1W        W50195  22.601   4.171   0.501  0.0360  0.1509  0.1782
    1W        W50196  15.846   5.549   0.419 -0.1057  0.2331 -0.1406
    1W        W50197   9.410   2.292   0.130 -0.4444  0.2729  0.0092
    1W        W50198   1.275   2.657   3.788  0.0428  0.5137 -0.0392
    1W        W50199  27.021   2.699   7.816 -0.0780 -0.0753  0.2685
    1W        W50200  14.963  12.203   0.004 -0.1807 -0.0427 -0.1671
    1W        W50201  28.938   8.405   8.594  0.4204 -0.3018  0.0090
    1W        W50202  23.143   1.350   9.136  0.0776  0.2244 -0.2126
    1W        W50203   4.388  21.578   0.624 -0.1606 -0.0785 -0.1477
    1W        W50204   9.529   7.700   1.447 -0.0652  0.0540 -0.0780
    1W        W50205   6.271  20.039   8.606 -0.1771 -0.0617  0.0214
    1W        W50206   7.409  19.701   0.377 -0.3735 -0.1032 -0.0429
    1W        W50207  28.977   4.640   2.208 -0.1619  0.0806 -0.1396
    1W        W50208   9.824  14.440   8.167 -0.0397  0.0261  0.0999
    1W        W50209   0.060   7.680   6.519  0.3171  0.0062  0.3696
    1W        W50210   2.854   7.579   6.567 -0.0482  0.1248  0.0941
    1W        W50211   3.463  25.416   8.322  0.2772  0.2930  0.0472
    1W        W50212  27.816  23.190   1.358 -0.0900 -0.3903  0.2293
    1W        W50213  17.388  28.639   9.363 -0.2878 -0.0611 -0.1555
    1W        W50214  17.498  22.160   0.290 -0.0701  0.2943 -0.0634
    1W        W50215   2.415  22.067   8.499 -0.1019 -0.0552 -0.0558
    1W        W50216   1.957   0.817   8.669  0.2306 -0.1663  0.3003
    1W        W50217  21.579  12.589   7.520  0.0669 -0.2172 -0.1001
    1W        W50218  22.032  21.496   8.173 -0.0556  0.1364 -0.1783
    1W        W50219  22.400  18.263   8.972 -0.3207 -0.0611 -0.0697
    1W        W50220  22.449  17.344   1.444 -0.1541 -0.1831  0.1855
    1W        W50221  15.546   5.792   0.150 -0.0372  0.2858  0.0781
    1W        W50222  20.253  17.993   7.293 -0.0562 -0.0606  0.0919
    1W        W50223   5.706   2.094   0.309  0.0826  0.0843 -0.2114
    1W        W50224  23.827   7.351   0.104  0.0184  0.0579 -0.0486
    1W        W50225  24.242  26.045   0.323 -0.2908  0.2067 -0.2822
    1W        W50226  27.860  21.303   8.053  0.1324  0.0542 -0.1977
    1W        W50227   7.163  15.030   0.449 -0.3774 -0.0248 -0.0035
    1W        W50228  20.502   2.437   8.529  0.0020 -0.0397  0.2287
    1W        W50229   2.813  24.264   0.653  0.0395 -0.1486  0.0389
    1W        W50230  27.617  29.250   0.485 -0.0451  0.0286  0.0685
    1W        W50231  26.982  27.053   7.025  0.1534  0.2203 -0.2789
    1W        W50232  13.727  16.177   9.235  0.2201 -0.0965 -0.0502
    1W        W50233  22.956  11.963   1.758 -0.0757  0.3305 -0.0002
    1W        W50234   9.960  24.266   8.408  0.2003 -0.2314  0.2030
    1W        W50235  16.728   8.839   7.229  0.1963 -0.1946 -0.0867
    1W        W50236   4.758   5.597   0.049 -0.0062 -0.1431 -0.1275
    1W        W50237  26.095  16.296   9.429  0.0776  0.0356  0.1726
    1W        W50238  28.858  29.802   6.420  0.1190  0.0466  0.1455
    1W        W50239  28.673  14.852   0.033  0.0440 -0.2733  0.1192
    1W        W50240  28.760  16.109   8.504 -0.1054 -0.3396  0.3686
    1W        W50241  15.256   4.481   2.979  0.0920  0.1280 -0.0961
    1W        W50242   8.078  28.747   1.558 -0.0422 -0.0541  0.3190
    1W        W50243  26.219  11.967   1.108 -0.0969 -0.1401 -0.1674
    1W        W50244  15.340  26.974   1.127  0.3882 -0.0013  0.1276
    1W        W50245  10.028  17.402   8.677  0.1059 -0.0888 -0.0684
    1W        W50246   4.059  26.280   9.290 -0.0782 -0.4251  0.1563
    1W        W50247   2.855  19.513   7.518  0.1580 -0.0271  0.1729
    1W        W50248  20.150  13.928   0.463 -0.0686 -0.0356  0.0279
    1W        W50249  27.721  16.472   6.374 -0.0016 -0.0775  0.2396
    1W        W50250   2.634  27.404   7.142 -0.0019  0.1325  0.2213
    1W        W50251  11.772  15.850   2.331  0.2801  0.0095 -0.3104
    1W        W50252  17.771  27.748   3.090  0.2295  0.1921  0.1430
    1W        W50253  12.288  26.203   1.808 -0.1249  0.0496 -0.4457
    1W        W50254  17.375   0.807   7.141  0.1893 -0.0096 -0.1092
    1W        W50255  16.748  11.914   0.618  0.1363 -0.2387  0.0489
    1W        W50256   3.944  22.891   0.392  0.1305  0.1481 -0.0167
    1W        W50257   9.670   4.898   3.242 -0.2107 -0.1809 -0.3541
    1W        W50258  19.195  19.691   8.161  0.0459 -0.0195 -0.2999
    1W        W50259  21.487  24.752   1.047 -0.0480  0.1047  0.2323
    1W        W50260  19.970   8.358   0.653  0.0243 -0.1416  0.0004
    1W        W50261  12.841  19.922   9.302  0.1949  0.2402 -0.1493
    1W        W50262  13.949   7.094   7.704 -0.1268 -0.3147 -0.0723
    1W        W50263  13.185  14.137   1.566  0.0010 -0.1937 -0.0423
    1W        W50264  11.354   9.328   1.839  0.0025  0.0736 -0.0995
    1W        W50265  13.470  25.853   8.966 -0.0361  0.1020  0.0734
    1W        W50266   3.662  27.960   9.427 -0.1303  0.3020  0.0179
    1W        W50267  16.300  20.309   7.830 -0.1678  0.0120 -0.3380
    1W        W50268  22.089   6.944   1.376 -0.1017 -0.1525  0.1316
    1W        W50269  19.039  17.742   6.626 -0.1296 -0.2608 -0.2036
    1W        W50270  20.052  17.060   0.757 -0.2876 -0.0320 -0.4315
    1W        W50271   1.823   3.521   3.434  0.2611 -0.2195 -0.2050
    1W        W50272  12.819   1.919   8.582 -0.0871 -0.0538  0.1188
    1W        W50273  13.916   8.242   1.908  0.1432 -0.0543 -0.1666
    1W        W50274  28.765  15.120   7.071  0.0399  0.2760  0.1218
    1W        W50275  18.604  12.798   7.449 -0.0383  0.0066 -0.1380
    1W        W50276  15.154  28.357   9.113 -0.0975  0.0490 -0.0392
    1W        W50277  13.947  22.475   5.986 -0.0270  0.1679  0.0730
    1W        W50278  25.280  26.803   7.476 -0.0633  0.0134 -0.2002
    1W        W50279  29.180  26.936   1.357  0.0537 -0.1666 -0.1452
    1W        W50280  23.363  17.906   0.527 -0.1554  0.1605 -0.0063
    1W        W50281  12.719  29.419   2.031 -0.0056  0.1659  0.1952
    1W        W50282  28.680  18.941   0.691 -0.0950  0.0774 -0.0415
    1W        W50283   3.414  15.644   0.038 -0.1317 -0.2507 -0.5217
    1W        W50284  18.614   8.038   1.995 -0.2267 -0.0366 -0.5132
    1W        W50285  23.419  18.232   5.905  0.1442 -0.1647  0.0700
    1W        W50286  29.090   0.951   2.946 -0.3024  0.4315 -0.1083
    1W        W50287  13.300  15.924   1.525  0.0626 -0.2099  0.0565
    1W        W50288   3.484   4.644   9.435  0.2130 -0.0869  0.0328
    1W        W50289  20.238   2.587   8.071  0.0101  0.1418 -0.0419
    1W        W50290  14.798  17.770   8.695  0.0413  0.0181  0.3449
    1W        W50291  10.729   6.007   7.566 -0.2215  0.0109 -0.0568
    1W        W50292  24.202  17.208   8.789  0.1810  0.1596  0.0965
    1W        W50293  10.182  14.072   1.599 -0.1160  0.1042 -0.0012
    1W        W50294   6.653  15.784   0.143 -0.0535  0.0303  0.0072
    1W        W50295  22.299   9.937   7.593  0.0531 -0.0867  0.2990
    1W        W50296  29.193  15.060   8.510 -0.1417 -0.1111  0.1718
    1W        W50297  25.497  21.576   9.237  0.1615  0.0029 -0.0349
    1W        W50298   7.304   1.736   0.402 -0.0884  0.1151  0.1824
    1W        W50299   9.477  20.440   2.701 -0.1629 -0.1946 -0.1014
    1W        W50300  13.678  24.172   2.509  0.2305  0.2071 -0.1727
    1W        W50301  27.427  22.747   8.496  0.2103  0.0431 -0.2086
    1W        W50302   0.318  23.113   1.611  0.1887 -0.0630 -0.2064
    1W        W50303  11.531  26.478   6.229  0.1326  0.1224 -0.1471
    1W        W50304  28.926  18.380   6.168  0.0695  0.0747 -0.1215
    1W        W50305   2.198   7.338   9.051  0.1621 -0.0349 -0.0598
    1W        W50306   4.123   9.339   0.320  0.0442 -0.1408 -0.0677
    1W        W50307  21.215   9.988   2.220 -0.0477  0.3119  0.1483
    1W        W50308  16.499   7.012   7.159 -0.0808  0.1588  0.1671
    1W        W50309   4.264   0.319   7.245 -0.3851 -0.0333 -0.0796
    1W        W50310   2.812  14.344   9.544  0.0579  0.1908 -0.1448
    1W        W50311   4.477  24.223   7.559 -0.0064 -0.2117 -0.3565
    1W        W50312  12.220   2.894   8.627  0.3579 -0.0845  0.1580
    1W        W50313   5.235   1.977   6.946  0.0454  0.3426 -0.0940
    1W        W50314  18.182   5.208   8.399 -0.0471  0.0131 -0.0572
    1W        W50315  11.513  18.478   7.071  0.1821  0.1360 -0.0930
    1W        W50316  12.257  13.091   8.414 -0.0987  0.1863  0.0381
    1W        W50317  18.867   4.662   9.023 -0.0922  0.1029 -0.1437
    1W        W50318   1.171   1.677   1.961  0.1871 -0.2915 -0.2163
    1W        W50319  23.432   8.968   7.756 -0.2638  0.0694  0.0497
    1W        W50320  18.575  28.735   2.528 -0.1182 -0.0493 -0.0402
    1W        W50321   5.372   4.026   9.419 -0.0752  0.0591 -0.0693
    1W        W50322  28.584  18.565   0.328 -0.2924  0.2523  0.1394
    1W        W50323   9.145  20.984   0.979 -0.0718 -0.0814 -0.1647
    1W        W50324  29.074  19.132   9.352  0.0498  0.2261 -0.0103
    1W        W50325  28.027  18.233   8.206  0.1875 -0.2872 -0.0145
    1W        W50326   9.259   7.540   7.667  0.0685 -0.0649  0.1862
    1W        W50327  28.390  13.991   8.899  0.2527 -0.0487  0.1541
    1W        W50328  28.808  10.784   1.502 -0.1333 -0.1701 -0.0436
    1W        W50329  14.959  13.614   2.200  0.1598  0.1788 -0.3807
    1W        W50330  20.326  17.367   8.300  0.1051 -0.2040  0.1567
    1W        W50331   9.082   5.907   7.987  0.0994 -0.2024 -0.3479
    1W        W50332  14.797   9.400   2.194  0.0839 -0.0793 -0.0887
    1W        W50333  12.817   3.132   8.034 -0.0765  0.0045 -0.0061
    1W        W50334  17.947  23.618   8.236  0.1306  0.1892  0.1765
    1W        W50335   2.790  16.556   1.080  0.2703 -0.0496 -0.1038
    1W        W50336   6.033  23.232   0.821 -0.0551 -0.1123 -0.1212
    1W        W50337  18.516  14.941   1.244  0.2154  0.0250 -0.2119
    1W        W50338  15.885  17.223   8.009 -0.0054 -0.0257 -0.0552
    1W        W50339  29.487  16.441   0.967 -0.3284  0.0352 -0.1568
    1W        W50340  20.628   3.499   3.144  0.0270 -0.1468 -0.1554
    1W        W50341  25.024  25.404   8.515  0.3078 -0.0022 -0.0663
    1W        W50342   2.419  18.627   0.723  0.3745  0.1973 -0.0054
    1W        W50343  16.322   4.119   3.196 -0.2239  0.1246 -0.0095
    1W        W50344  22.181  28.160   9.460 -0.1571  0.0209 -0.2100
    1W        W50345   9.452  17.561   7.517  0.0858 -0.1801  0.1826
    1W        W50346  19.814  17.220   3.018 -0.0435  0.2038  0.0895
    1W        W50347  17.925  21.902   6.279  0.1115  0.2068 -0.3933
    1W        W50348  19.888  17.567   7.120  0.3685 -0.0475 -0.3032
    1W        W50349  18.135   3.735   0.835  0.1556  0.0983  0.0909
    1W        W50350   8.274  13.845   2.326 -0.0155 -0.1921 -0.2113
    1W        W50351  23.645  14.491   6.371  0.0066 -0.3605  0.1786
    1W        W50352  29.005  18.423   7.632 -0.0102  0.1068  0.2298
    1W        W50353  15.409   2.544   1.262  0.1268  0.0651 -0.1359
    1W        W50354   2.585  26.801   1.416 -0.1102  0.0186  0.4047
    1W        W50355  24.895  26.681   0.229  0.2525 -0.1227 -0.0988
    1W        W50356  22.012  19.222   6.432  0.0217  0.0058  0.0866
    1W        W50357   4.812  26.749   1.821 -0.1707 -0.0044 -0.2012
    1W        W50358  20.154  19.246   5.645 -0.2712  0.0511  0.2270
    1W        W50359  22.543  16.384   0.259  0.0727 -0.1405 -0.0158
    1W        W50360  20.234   1.551   2.436  0.1612 -0.0260 -0.2888
    1W        W50361   5.560  11.197   8.233  0.1002 -0.1438  0.2070
    1W        W50362  19.030  15.403   2.136  0.0223 -0.3361  0.3688
    1W        W50363  21.380   1.800   6.700 -0.1103 -0.2031 -0.1096
    1W        W50364   2.281   4.944   9.402  0.1314  0.1500 -0.0297
    1W        W50365  25.072  27.256   0.695 -0.1933  0.2156  0.2968
    1W        W50366  14.209   1.333   2.587 -0.0394  0.0462  0.1272
    1W        W50367   1.570  14.741   2.521  0.1013  0.1642 -0.1988
    1W        W50368  18.267  28.016   1.806 -0.4134 -0.2841 -0.0557
    1W        W50369   7.331  22.736   8.385  0.1749 -0.1452 -0.2744
    1W        W50370  13.655   3.374   2.212 -0.2835 -0.0596 -0.0780
    1W        W50371  29.541  24.951   0.400 -0.0282 -0.1637  0.0545
    1W        W50372  23.006  25.247   2.181 -0.3045 -0.0926 -0.1441
    1W        W50373  13.775  27.326   9.412 -0.2057 -0.1589 -0.2104
    1W        W50374  29.481  28.816   7.301  0.0106 -0.0663  0.0981
    1W        W50375  29.125  19.385   1.369 -0.2905 -0.0552  0.2491
    1W        W50376  14.348   1.049   8.107 -0.0153 -0.0875 -0.4526
    1W        W50377  20.505  13.631   1.538  0.1464 -0.0500 -0.2620
    1W        W50378  14.451   6.951   0.108  0.1284  0.1435  0.1139
    1W        W50379  21.706  15.744   6.217 -0.0002  0.0480  0.3104
    1W        W50380  15.968   4.626   0.499  0.1427  0.0977 -0.0528
    1W        W50381  11.221  27.912   2.504 -0.5400  0.1676 -0.0778
    1W        W50382  15.964  14.941   7.957 -0.1896  0.3630 -0.2136
    1W        W50383  26.623   1.628   2.451 -0.0466 -0.0047  0.1956
    1W        W50384  15.941  13.964   1.138 -0.0145 -0.1761 -0.0118
    1W        W50385  26.070  12.968   8.038  0.0690 -0.1566 -0.1315
    1W        W50386   8.255  19.119   0.452  0.1488  0.3264 -0.1769
    1W        W50387  25.569  27.140   0.653 -0.0390 -0.1112 -0.0890
    1W        W50388   7.552  26.219   7.554  0.0775 -0.0958 -0.0510
    1W        W50389   9.737  25.964   7.344 -0.0798 -0.3777 -0.1227
    1W        W50390  19.311   5.000   7.024 -0.2567 -0.3828  0.0722
    1W        W50391  23.568  11.415   7.494 -0.1877  0.0164 -0.3200
    1W        W50392  18.696  23.195   7.642 -0.3388 -0.2755 -0.0154
    1W        W50393  20.412  11.047   0.883  0.2614  0.1699 -0.0512
    1W        W50394  20.011   0.693   1.745 -0.0243  0.0255  0.0751
    1W        W50395  22.299  16.667   7.950  0.2334 -0.2450 -0.0222
    1W        W50396   2.321  24.092   1.173 -0.1874 -0.1646  0.2076
    1W        W50397  22.828   8.251   8.414  0.2180 -0.1012  0.3205
    1W        W50398  26.709  25.648   0.435 -0.0308  0.0677  0.2141
    1W        W50399  10.373  29.468   9.452 -0.0817  0.1926 -0.0187
    1W        W50400  11.265  11.109   1.119 -0.2419  0.1516 -0.0487
    1W        W50401  18.970  15.798   8.827 -0.1782  0.1877  0.1995
    1W        W50402  25.421   9.837   2.667 -0.0797  0.3160  0.1527
    1W        W50403   7.916  23.288   9.263  0.0477 -0.3417  0.0185
    1W        W50404  17.847   2.178   0.354  0.1915  0.0622  0.1448
    1W        W50405  21.790  27.683   2.689 -0.2379 -0.3746  0.1442
    1W        W50406  19.135  20.753   1.371 -0.2480 -0.1492  0.2272
    1W        W50407  17.680  15.986   6.816 -0.0696 -0.1286 -0.0463
    1W        W50408  28.305   9.071   0.080 -0.1910  0.0045 -0.3687
    1W        W50409   6.823  17.556   1.359 -0.0017 -0.2789  0.1932
    1W        W50410  14.861   5.088   8.438  0.0645  0.0987  0.0173
    1W        W50411   0.587   8.903   0.301  0.0536  0.0051  0.0948
    1W        W50412   2.991  11.557   9.186  0.1073  0.0009  0.0146
    1W        W50413  28.362  26.444   1.182  0.0484 -0.0659  0.1472
    1W        W50414  29.084   7.372   8.122 -0.1781  0.1083 -0.1255
    1W        W50415   8.274  26.138   2.114  0.0908 -0.0514  0.2759
    1W        W50416  28.373  26.885   8.205 -0.1964  0.1955  0.1479
    1W        W50417  19.858   6.083   9.344 -0.2221  0.1918  0.0151
    1W        W50418  21.718  21.020   1.491 -0.0698  0.1779  0.1215
    1W        W50419  16.178  28.171   2.372  0.0365 -0.0103 -0.2631
    1W        W50420  11.780  23.595   7.338  0.3516 -0.0784  0.0181
    1W        W50421  13.242  22.223   7.932 -0.1723 -0.0603 -0.2391
    1W        W50422   2.576  26.086   2.611 -0.4109 -0.0218 -0.2076
    1W        W50423  24.335  24.154   8.821 -0.1259  0.1036 -0.4047
    1W        W50424   4.699   0.714   7.330  0.2472  0.3813  0.2940
    1W        W50425  18.243   9.166   8.835 -0.0752  0.0413  0.1541
    1W        W50426  22.128  21.297   1.521  0.2451 -0.2117  0.2149
    1W        W50427  12.549  22.517   8.319  0.0861 -0.0833 -0.3413
    1W        W50428  25.618  10.650   7.119  0.0911 -0.0405  0.4117
    1W        W50429  19.934  27.480   8.454  0.0140 -0.0848  0.0172
    1W        W50430   9.409   1.481   9.401  0.2312 -0.0328  0.3121
    1W        W50431  15.152  21.798   7.966 -0.3753  0.2208  0.0025
    1W        W50432  20.905  22.818   9.315 -0.1726  0.0386  0.1006
    1W        W50433  24.798   1.870   2.165 -0.2815  0.2681 -0.1660
    1W        W50434  16.389   9.939   2.493  0.2830 -0.0178 -0.1006
    1W        W50435  20.753  18.354   1.985 -0.0959 -0.0413 -0.0131
    1W        W50436   8.355   4.337   0.468 -0.1776 -0.3105 -0.1704
    1W        W50437   5.097  27.428   0.729  0.1915 -0.0571  0.0194
    1W        W50438  23.617  19.571   8.096 -0.0006 -0.2100  0.1125
    1W        W50439  28.209   3.414   7.481  0.2281  0.0729 -0.0779
    1W        W50440  23.063  27.055   9.055 -0.0778 -0.0818  0.2673
    1W        W50441  27.107  21.855   9.016  0.0041 -0.1076 -0.0071
    1W        W50442   8.876  10.994   8.563  0.0296  0.0709 -0.0587
    1W        W50443  27.085  19.980   7.119  0.2107  0.0190 -0.0400
    1W        W50444   2.185  23.719   8.864  0.1966 -0.0681 -0.1582
    1W        W50445   5.906   4.961   7.262  0.0405 -0.3517 -0.1221
    1W        W50446  23.106  11.900   4.837 -0.0798 -0.0513 -0.1893
    1W        W50447  20.828  12.681   8.579  0.1612 -0.1567 -0.0781
    1W        W50448  27.439  12.038   1.523  0.1122 -0.3595 -0.0571
    1W        W50449  25.943  27.001   9.309  0.2522 -0.0953  0.0593
    1W        W50450  11.224  29.039   7.690 -0.2201  0.2339 -0.2003
    1W        W50451  27.589  16.828   1.716  0.1305 -0.0517 -0.2686
    1W        W50452  25.861   5.913   7.438 -0.1091 -0.0478 -0.1475
    1W        W50453  14.668   3.215   8.504 -0.1225  0.1311  0.1036
    1W        W50454  17.512  25.667   0.365  0.0212 -0.0798  0.2457
    1W        W50455  25.830   3.426   9.546 -0.2152  0.0584 -0.1097
    1W        W50456   0.088   0.197   0.086 -0.1580 -0.0252  0.0176
    1W        W50457  17.420  19.492   6.780  0.2311 -0.2648 -0.3004
    1W        W50458  13.503  11.541   1.991  0.0717  0.0294 -0.2134
    1W        W50459  11.806  28.592   7.407 -0.0226  0.0404 -0.2499
    1W        W50460  23.283  21.424   1.555 -0.0011 -0.2064  0.1202
    1W        W50461  20.227  29.018   7.073 -0.1369  0.1669  0.1561
    1W        W50462   3.646   7.757   1.409  0.1209  0.1912 -0.1171
    1W        W50463   0.601  23.501   0.051 -0.1602 -0.0841  0.1370
    1W        W50464  22.553  14.507   5.661  0.0088  0.4767 -0.1739
    1W        W50465  21.525  17.454   7.646 -0.4067  0.2684 -0.3942
    1W        W50466   2.054  15.335   6.963  0.1578  0.2309  0.0232
    1W        W50467   8.581  29.077   2.539  0.1304  0.0504  0.1890
    1W        W50468  10.914  19.208   7.017 -0.1589  0.3034  0.1156
    1W        W50469   7.337  28.727   2.447  0.0010  0.2284  0.0612
    1W        W50470  24.784   2.557   8.917  0.1948 -0.2260 -0.1472
    1W        W50471  23.388  14.874   5.998 -0.1273 -0.0008  0.1399
    1W        W50472  13.789   5.939   6.455  0.2218  0.0854 -0.1616
    1W        W50473  25.018  18.834   8.816  0.1093  0.1530 -0.0405
    1W        W50474  19.183  25.159   7.570 -0.2759 -0.3502  0.0276
    1W        W50475   8.447  11.981   1.569 -0.0772 -0.0492  0.1617
    1W        W50476  26.823   4.821   8.216  0.0937 -0.0228 -0.0310
    1W        W50477  20.135   3.323   3.373 -0.0137 -0.1435  0.2860
    1W        W50478   2.447  22.137   9.054 -0.0977 -0.1543  0.1836
    1W        W50479  23.174   3.684   8.837 -0.2277  0.1411 -0.4088
    1W        W50480  21.651  16.783   8.541  0.1850  0.0304 -0.1981
    1W        W50481   2.411  21.678   0.560 -0.3041 -0.1963 -0.0231
    1W        W50482  16.263  15.604   8.179 -0.3060 -0.2599  0.1332
    1W        W50483  16.429   4.537   1.774  0.2370 -0.0752  0.1718
    1W        W50484  14.580   7.879   8.383  0.0436 -0.3220  0.1865
    1W        W50485   7.509   0.493   7.369  0.2002  0.2559  0.1833
    1W        W50486  21.519   2.352   3.009  0.1792  0.0785 -0.0691
    1W        W50487  24.028   1.357   7.726  0.1070  0.5054  0.2337
    1W        W50488  26.819  22.582   7.779 -0.1992  0.1871  0.0521
    1W        W50489   8.620  11.388   1.913 -0.1812 -0.1170 -0.0163
    1W        W50490  21.993   4.495   9.269 -0.1204  0.4639  0.0427
    1W        W50491  11.938  15.339   1.335  0.0114  0.1058  0.0776
    1W        W50492   3.736   3.830   8.745  0.0067  0.2170  0.1752
    1W        W50493   9.600  27.689   0.957  0.1144  0.1100  0.2116
    1W        W50494  25.007  12.955   5.747 -0.0108 -0.2084  0.1095
    1W        W50495  21.080  18.126   8.540  0.1235  0.0653 -0.0184
    1W        W50496  27.177  24.175   0.605 -0.0882 -0.0747 -0.0604
    1W        W50497   8.647  26.379   1.221  0.0846  0.3361 -0.3489
    1W        W50498  16.461  24.350   0.398  0.1440 -0.0116  0.0062
    1W        W50499  25.949   7.896   8.915 -0.3863 -0.3035 -0.3485
    1W        W50500  26.155   1.942   8.609  0.1120  0.1935 -0.0889
    1W        W50501  19.260  19.171   2.835  0.1207  0.0906  0.1068
    1W        W50502   0.939  18.729   1.126  0.0814 -0.4276 -0.1200
    1W        W50503   5.525   6.900   0.118  0.0198  0.2002 -0.0703
    1W        W50504   0.177   5.542   6.830 -0.1305 -0.0161 -0.0021
    1W        W50505  23.490   6.731   1.998  0.1323 -0.0491 -0.0119
    1W        W50506  12.163   1.371   1.932 -0.1849  0.1957  0.1981
    1W        W50507  22.137  29.458   9.265 -0.2554 -0.3210  0.0463
    1W        W50508   5.304  25.931   9.016  0.1411 -0.1483 -0.0815
    1W        W50509   2.525   6.223   7.976  0.1056 -0.0483  0.0021
    1W        W50510  11.676  11.269   7.179  0.0501  0.3230  0.0705
    1W        W50511  14.393  23.275   0.239 -0.2335 -0.1570 -0.0500
    1W        W50512  14.045  21.055   6.739 -0.0821  0.2570  0.0262
    1W        W50513  16.687   6.901   1.538  0.0447  0.0048 -0.1063
    1W        W50514   4.066  23.781   2.638 -0.1019  0.0837  0.0861
    1W        W50515  11.682   0.107   8.843  0.0228 -0.0914  0.0058
    1W        W50516   7.001   3.544   1.245 -0.1951 -0.2394 -0.1768
    1W        W50517  29.304  24.117   7.216  0.1520  0.2197  0.0109
    1W        W50518  13.966   2.250   6.685  0.1895  0.2513 -0.0529
    1W        W50519  29.305  12.849   6.145  0.1807  0.0777 -0.0039
    1W        W50520  28.529  12.579   0.031  0.0525 -0.2797 -0.0969
    1W        W50521  20.152  10.655   6.990  0.2503  0.0235 -0.6597
    1W        W50522   2.172  26.530   8.806 -0.0440 -0.1739  0.1174
    1W        W50523  25.981  20.201   0.149 -0.1715  0.1559 -0.1400
    1W        W50524  11.161  10.010   7.655 -0.2004  0.1059 -0.0351
    1W        W50525  15.963   7.900   3.626 -0.0066 -0.0248  0.1480
    1W        W50526  15.781   9.104   8.307 -0.0606  0.0970 -0.0098
    1W        W50527  11.126  12.778   0.889  0.1934  0.0330  0.2354
    1W        W50528  10.566  20.109   6.305  0.2857 -0.2121  0.0242
    1W        W50529  17.406  13.019   0.009 -0.0247 -0.1188  0.0572
    1W        W50530  20.498  29.518   3.717  0.1300 -0.0101  0.0616
    1W        W50531   0.482  29.033   7.763  0.2239 -0.0719 -0.1564
    1W        W50532  15.437   1.422   1.933  0.0355 -0.1490 -0.1476
    1W        W50533  15.206   7.803   2.158 -0.5442  0.2855 -0.0297
    1W        W50534   8.885   4.381   3.060 -0.1005  0.3269  0.0157
    1W        W50535  22.226  14.239   6.376  0.0546  0.2100 -0.0915
    1W        W50536  16.719  25.729   8.651  0.2725 -0.0135  0.0704
    1W        W50537  22.559   5.215   8.585  0.0176 -0.0617  0.1315
    1W        W50538  16.802   5.091   1.127 -0.1398  0.1328 -0.3499
    1W        W50539  13.179  23.696   7.360 -0.3177  0.0499 -0.1420
    1W        W50540   5.910   1.901   1.595  0.1311  0.1348 -0.0781
    1W        W50541   0.852  21.164   7.384  0.1499  0.2258  0.1961
    1W        W50542  22.887   5.380   9.055  0.1932 -0.0600  0.0881
    1W        W50543   5.286  29.771   1.117  0.0760  0.0145 -0.1006
    1W        W50544  16.770  27.584   2.845  0.0290  0.3832  0.2589
    1W        W50545  27.139  10.039   2.460 -0.1978  0.0384  0.1469
    1W        W50546   2.748  17.596   1.091  0.1676 -0.0267  0.1474
    1W        W50547  13.968  18.369   2.671 -0.1407  0.2235 -0.0525
    1W        W50548  28.172  26.169   7.133  0.1247  0.2214 -0.3508
    1W        W50549  19.016  23.278   9.407 -0.2070 -0.2217  0.2470
    1W        W50550   9.682   1.833   7.657  0.0255 -0.1557  0.2539
    1W        W50551  18.110  29.574   7.682  0.0746  0.0560 -0.0032
    1W        W50552   3.210   7.268   9.220  0.0235 -0.0784 -0.0604
    1W        W50553   8.457   5.422   3.409  0.0579  0.0896 -0.0550
    1W        W50554   1.154  19.588   8.077  0.3888  0.2495 -0.1515
    1W        W50555  28.425  16.151   8.923  0.1542 -0.0621 -0.3035
    1W        W50556   4.279  11.359   7.684  0.0675  0.0093 -0.1759
    1W        W50557   4.896  13.883   7.404  0.2874  0.1787 -0.1631
    1W        W50558  26.585  16.063   7.782 -0.2480  0.0507 -0.0446
    1W        W50559  10.274  29.609   0.990 -0.0235 -0.1548  0.0009
    1W        W50560   0.173  12.055   8.311  0.2115 -0.1157  0.4650
    1W        W50561  29.380  25.443   1.227 -0.4926 -0.1813 -0.0905
    1W        W50562   5.869  13.020   0.617 -0.3136  0.3731 -0.1079
    1W        W50563  18.416  23.516   1.996 -0.2363 -0.2357  0.1240
    1W        W50564  23.001   0.987   9.421  0.4052  0.0899 -0.1588
    1W        W50565   4.462  12.805   8.771 -0.1864  0.1045  0.0131
    1W        W50566  11.360  20.038   8.903  0.0907  0.0709  0.1564
    1W        W50567   7.672  26.422   1.475 -0.4286 -0.2032  0.3540
    1W        W50568  21.071  11.103   8.282  0.1974 -0.1216  0.0074
    1W        W50569   5.626   1.115   1.710  0.0230 -0.0820 -0.0485
    1W        W50570  16.290  20.117   0.726  0.3338 -0.0362  0.1418
    1W        W50571  11.352  23.629   7.526  0.1533  0.0328 -0.1692
    1W        W50572  25.534   2.188   0.406  0.0981 -0.1151 -0.2084
    1W        W50573   3.908  16.971   8.329  0.2673  0.1350 -0.0694
    1W        W50574  24.409   2.509   0.131  0.2380  0.1934 -0.3106
    1W        W50575  21.584  24.581   8.846  0.0484 -0.2404  0.0946
    1W        W50576  11.394   3.191   3.335 -0.0646 -0.2919  0.0493
    1W        W50577  18.490  10.704   2.635  0.0914  0.0633 -0.1037
    1W        W50578  10.764   4.567   9.495  0.1459 -0.1091  0.1803
    1W        W50579   1.541   9.040   8.579 -0.3014 -0.0537 -0.0131
    1W        W50580  17.440   6.247   0.661  0.4033 -0.1478 -0.1090
    1W        W50581   2.313   9.533   7.050  0.0404 -0.0309 -0.0430
    1W        W50582   3.548  12.846   1.540  0.2253 -0.2047  0.2748
    1W        W50583   3.106  12.392   2.446 -0.0207  0.1964 -0.0907
    1W        W50584  13.971  28.381   0.352 -0.1579  0.0199 -0.2575
    1W        W50585   1.408  21.531   8.269  0.1025  0.0333 -0.0433
    1W        W50586   3.926  22.348   0.424  0.1240  0.1804 -0.5514
    1W        W50587  15.666   6.350   1.620 -0.1104 -0.2969 -0.1116
    1W        W50588   7.722  21.534   2.195  0.1288  0.0089  0.0323
    1W        W50589  28.119   5.123   9.511 -0.1247  0.2973 -0.0048
    1W        W50590   6.890  23.418   7.577 -0.1140 -0.2533 -0.0486
    1W        W50591   2.657   4.800   7.953  0.3009  0.1123  0.5407
    1W        W50592  13.132  25.044   0.367  0.1008  0.2082  0.1493
    1W        W50593  24.010  25.788   0.684 -0.0677 -0.4007  0.0353
    1W        W50594  25.377   6.755   2.401  0.0827 -0.1488  0.2628
    1W        W50595  10.132   7.786   9.172 -0.4361  0.4690 -0.2350
    1W        W50596  23.597  14.962   8.565 -0.0495 -0.0719  0.0167
    1W        W50597  16.507   4.920   0.638 -0.2596  0.1161  0.1361
    1W        W50598  11.693   8.706   1.054  0.1700  0.0281  0.2693
    1W        W50599   7.766  20.634   2.087 -0.0898  0.0903  0.3843
    1W        W50600  11.128  23.786   6.170  0.1835  0.2992 -0.2489
    1W        W50601  10.005  19.307   0.385  0.1188  0.2589  0.1999
    1W        W50602   9.961  14.199   8.936  0.0862  0.3263 -0.1788
    1W        W50603  26.423   7.064   1.274  0.0950 -0.3112  0.2472
    1W        W50604  23.483  21.883   1.610 -0.1521 -0.3429  0.0923
    1W        W50605  11.585  16.672   8.819  0.1460 -0.0295 -0.1378
    1W        W50606   4.186  15.049   1.824 -0.0360 -0.0203 -0.1590
    1W        W50607  22.891  25.319   8.407 -0.2466  0.1587  0.1285
    1W        W50608   6.298  18.177   1.631 -0.2036 -0.1578 -0.0683
    1W        W50609  13.189   1.867   7.396 -0.0288 -0.0743  0.0931
    1W        W50610   4.916  15.849   1.023  0.2107 -0.0786  0.0619
    1W        W50611  22.355   0.725   3.583 -0.3532  0.0075 -0.0391
    1W        W50612   0.485  10.330   7.943 -0.2673  0.2764 -0.4708
    1W        W50613  27.352  26.072   8.906 -0.0916  0.0886 -0.0393
    1W        W50614  24.375  16.992   7.283 -0.2112 -0.1373 -0.1063
    1W        W50615  26.822  16.973   0.922  0.3355 -0.1228  0.1723
    1W        W50616   9.027  17.852   8.856 -0.2543 -0.0018  0.0022
    1W        W50617  13.107  26.227   7.281 -0.2267  0.0097 -0.0934
    1W        W50618  10.168  12.442   0.785  0.0467 -0.1034  0.1540
    1W        W50619  19.761  26.313   7.190 -0.1060  0.1486  0.0402
    1W        W50620   5.023   3.682   8.037 -0.1025  0.0466  0.2644
    1W        W50621  20.087  14.745   2.320 -0.2459 -0.2732 -0.1232
    1W        W50622   2.382   9.766   0.200 -0.0734 -0.1990 -0.0032
    1W        W50623  13.270   8.871   8.584  0.3562 -0.3420  0.2826
    1W        W50624   3.419  17.081   1.711  0.2211  0.0072 -0.2396
    1W        W50625  22.169   5.363   9.474  0.0902  0.0340  0.0763
    1W        W50626  21.619  21.141   9.378  0.1824  0.0210  0.2308
    1W        W50627  24.236   2.663   9.243 -0.1347  0.2646 -0.1574
    1W        W50628   7.823  14.460   0.828 -0.0749 -0.7380 -0.2568
    1W        W50629  12.137  28.906   0.289 -0.0653 -0.1891  0.0161
    1W        W50630  20.383  10.197   2.489 -0.0359  0.0279  0.0538
    1W        W50631   7.991   5.795   0.341  0.1973 -0.2636  0.0997
    1W        W50632  16.179  18.727   6.950  0.3437  0.0270  0.2075
    1W        W50633   6.594  12.672   1.524 -0.1378  0.0712 -0.0143
    1W        W50634  24.754  22.087   9.065  0.1630 -0.0567 -0.2879
    1W        W50635  23.987  27.110   8.808  0.3616 -0.0255 -0.2423
    1W        W50636  22.258  24.682   0.443 -0.3352 -0.1291 -0.1701
    1W        W50637   6.938   1.268   7.949 -0.1752 -0.1846 -0.1477
    1W        W50638  10.140  22.629   0.433  0.0746  0.2245 -0.2731
    1W        W50639   6.712  12.824   0.547 -0.1400 -0.0911 -0.3795
    1W        W50640  11.162  19.502   6.007  0.1863  0.1854 -0.0484
    1W        W50641  27.356  25.453   0.429 -0.1036  0.4937  0.0702
    1W        W50642   4.020   7.304   9.267 -0.0295 -0.0029 -0.2273
    1W        W50643  24.502  27.302   2.525 -0.0553  0.0520  0.0408
    1W        W50644  18.497   2.237   1.891  0.0744 -0.2210 -0.0523
    1W        W50645  19.483  15.294   8.717 -0.0916  0.0937 -0.1976
    1W        W50646  21.311   7.371   9.226  0.0631  0.1308  0.0529
    1W        W50647  20.563  20.815   7.937 -0.1417 -0.1147 -0.4159
    1W        W50648   3.492   8.802   3.033 -0.1294  0.3756  0.0341
    1W        W50649  17.528   6.476   7.395  0.0229 -0.2158 -0.2071
    1W        W50650  23.744   7.933   2.762 -0.0261 -0.2169  0.2180
    1W        W50651  14.414   5.035   8.870 -0.2316  0.1380  0.2228
    1W        W50652   6.882  11.718   9.415 -0.0348 -0.0183  0.0206
    1W        W50653  16.836  28.003   0.378 -0.0412 -0.3474 -0.0705
    1W        W50654   2.506  12.335   9.116  0.0878 -0.4369 -0.2873
    1W        W50655  29.489  13.121   1.175 -0.1313  0.0756 -0.3403
    1W        W50656  12.712  10.093   6.943  0.0157 -0.2956  0.1114
    1W        W50657  23.453  18.500   1.753 -0.3783  0.1018 -0.3927
    1W        W50658  16.678  21.224   2.331  0.2042  0.0506  0.0601
    1W        W50659  26.488  28.486   6.737 -0.0497  0.0416  0.0145
    1W        W50660  11.217  15.410   1.583 -0.0673  0.0382 -0.0844
    1W        W50661  21.238  20.616   5.624 -0.0573 -0.2140  0.0605
    1W        W50662  14.303   3.502   0.280  0.1420  0.1394 -0.3063
    1W        W50663  22.444  20.246   6.938  0.1100  0.0483 -0.0769
    1W        W50664  24.485   6.390   8.538 -0.0563 -0.0497  0.1225
    1W        W50665  17.702  19.513   6.389  0.4208 -0.2599  0.2392
    1W        W50666  19.286   7.033   0.598 -0.1287 -0.0927 -0.1888
    1W        W50667  11.824  12.862   8.100  0.0716  0.1656 -0.1470
    1W        W50668   2.933   1.863   1.449  0.0915  0.4923 -0.0115
    1W        W50669   0.254   8.801   0.688 -0.2462  0.1336  0.0913
    1W        W50670   4.403   2.430   7.028 -0.0996 -0.1403 -0.1787
    1W        W50671  15.107  24.509   2.473 -0.3120 -0.0070 -0.0081
    1W        W50672  24.780   7.928   9.151  0.0537  0.0176  0.0491
    1W        W50673  16.016  29.076   8.827  0.1500 -0.0197 -0.0247
    1W        W50674   8.745  15.822   8.312  0.1574 -0.4376 -0.1822
    1W        W50675   9.546  13.697   9.280 -0.1544 -0.2222 -0.1538
    1W        W50676  11.134  11.976   2.403 -0.2078  0.0525  0.0066
    1W        W50677   3.719  27.739   6.060 -0.2352  0.1124 -0.1014
    1W        W50678   4.321  18.024   9.028 -0.2319  0.0880  0.2952
    1W        W50679   1.165  11.984   8.054  0.2508  0.2340 -0.0196
    1W        W50680  10.060  27.802   7.417 -0.1821 -0.1952  0.2509
    1W        W50681   9.014  29.356   9.103 -0.0940  0.0823 -0.0705
    1W        W50682  27.714  19.681   6.016  0.2948  0.1491 -0.3881
    1W        W50683   5.675  22.434   2.457 -0.3631  0.1326 -0.0727
    1W        W50684  15.849  26.424   1.592 -0.3242  0.0319  0.1967
    1W        W50685  14.624  17.569   0.173  0.0579  0.2056 -0.2326
    1W        W50686  21.468   0.032   2.672  0.1009 -0.0896  0.0650
    1W        W50687  11.231  18.172   0.946  0.0212 -0.0652  0.2620
    1W        W50688  23.806  19.824   1.339  0.0700  0.1764 -0.2848
    1W        W50689  23.464  29.587   8.760  0.2737  0.1521 -0.2119
    1W        W50690   0.371  23.123   7.110  0.3180  0.2655 -0.3421
    1W        W50691   7.291   1.472   1.708 -0.2008  0.1126  0.1976
    1W        W50692  24.806  10.752   7.375 -0.0700 -0.0592  0.1911
    1W        W50693  25.953   9.080   0.628 -0.2878 -0.0254 -0.0864
    1W        W50694  13.505  17.609   0.727  0.1904  0.0189  0.0673
    1W        W50695  14.598   3.739   2.738 -0.1881 -0.1747  0.2386
    1W        W50696   3.874  19.438   1.277 -0.1592  0.1904  0.1051
    1W        W50697   9.620  23.093   6.636  0.0287  0.1362 -0.2841
    1W        W50698  18.364   5.989   1.143 -0.4422 -0.0423 -0.0078
    1W        W50699  29.037   1.313   1.052 -0.0145 -0.2241 -0.1501
    1W        W50700  10.459  24.046   7.530 -0.0396 -0.2005 -0.3095
    1W        W50701  16.230  19.014   8.632 -0.1888  0.3102  0.0646
    1W        W50702  14.372  10.680   8.974  0.2395  0.1119  0.0762
    1W        W50703  12.003  16.754   1.116 -0.0961  0.0296 -0.2299
    1W        W50704   5.507  14.117   9.165 -0.0104 -0.1676  0.1489
    1W        W50705   2.284   6.923   8.742  0.0921 -0.1088  0.2407
    1W        W50706  20.432  15.704   5.690 -0.0150  0.1632 -0.2556
    1W        W50707  13.295  16.602   7.212  0.1718  0.2098 -0.1948
    1W        W50708  20.700  13.769   0.123  0.1469 -0.2962  0.1273
    1W        W50709   9.510  21.251   6.899 -0.1235 -0.2490 -0.0172
    1W        W50710   3.507  25.076   2.080 -0.1271 -0.0968  0.1473
    1W        W50711  17.972  20.923   6.623  0.1564 -0.1818 -0.1605
    1W        W50712  10.169  10.594   2.212 -0.2188  0.3136 -0.0821
    1W        W50713  15.314  21.744   1.929 -0.0806  0.0412 -0.0606
    1W        W50714   7.987   5.946   9.386  0.0458  0.1075  0.2110
    1W        W50715  12.191   9.272   2.500 -0.0580  0.1841 -0.1328
    1W        W50716  16.640   4.659   2.209  0.0179 -0.0577 -0.2254
    1W        W50717  27.750  24.569   8.422 -0.1384 -0.2104 -0.2614
    1W        W50718  12.811  16.131   1.497 -0.1270  0.0041  0.0780
    1W        W50719   5.875   1.756   2.936 -0.0365  0.0235 -0.0933
    1W        W50720  24.596  22.546   9.256 -0.0168  0.0343 -0.1153
    1W        W50721  28.180  17.899   1.062  0.0370  0.4162 -0.1705
    1W        W50722  20.832   0.492   9.355 -0.2497 -0.1678  0.1358
    1W        W50723   7.176  20.879   9.242 -0.0654 -0.0245 -0.0317
    1W        W50724  11.867  29.298   0.259 -0.3117 -0.0588 -0.1321
    1W        W50725  15.976  12.564   6.894  0.0292 -0.2195 -0.2244
    1W        W50726   3.041   6.600   6.472  0.0598 -0.1768  0.3410
    1W        W50727  14.683  11.849   3.413  0.0625  0.1052  0.1589
    1W        W50728   4.919  29.374   1.283  0.1001 -0.0313 -0.0330
    1W        W50729   0.110  11.257   6.911 -0.0222  0.1688  0.1116
    1W        W50730   2.937  16.065   7.300  0.0326 -0.2136  0.2063
    1W        W50731  19.581   3.688   7.481 -0.0967  0.1724  0.2119
    1W        W50732  11.130  23.750   0.158  0.0118  0.0792 -0.3147
    1W        W50733  22.781   9.638   7.560  0.3469 -0.1337  0.0637
    1W        W50734  16.986   0.443   7.134  0.2750 -0.0134 -0.0510
    1W        W50735  19.319  10.980   7.817 -0.0159 -0.1134  0.1138
    1W        W50736  10.006  24.780   7.209 -0.1150 -0.1870  0.0323
    1W        W50737  28.047  17.866   9.100  0.2104  0.0296 -0.2106
    1W        W50738  26.529   7.246   0.049  0.0565 -0.0006 -0.0936
    1W        W50739   8.237   1.275   1.760 -0.0443  0.1819 -0.1928
    1W        W50740  11.305  18.858   8.745  0.4458  0.2269 -0.1284
    1W        W50741  29.753  22.410   7.522  0.3855  0.1535  0.0872
    1W        W50742  11.257  22.014   9.188  0.2398 -0.1241 -0.1187
    1W        W50743   4.731  19.258   6.671 -0.3211  0.2005  0.0301
    1W        W50744   2.325  25.849   2.984  0.1027 -0.1158 -0.2311
    1W        W50745  12.079   9.738   2.639 -0.0100 -0.0322  0.1648
    1W        W50746  17.059  18.484   0.757  0.1223 -0.0693 -0.3694
    1W        W50747   1.551   9.538   2.323  0.1982  0.0147 -0.3861
    1W        W50748   4.414  20.446   8.471  0.1936 -0.2963  0.2028
    1W        W50749  22.806  23.539   1.528  0.2568  0.2653 -0.2269
    1W        W50750  11.187  23.865   7.115 -0.1011  0.1078  0.1052
    1W        W50751  20.300  18.702   8.888  0.3788 -0.2578  0.1101
    1W        W50752   6.857   9.153   2.592 -0.0839  0.2452  0.0153
    1W        W50753   1.072  17.823   6.723 -0.2883  0.2870  0.0193
    1W        W50754  16.492  23.119   2.697  0.0528 -0.3792 -0.4091
    1W        W50755  10.074   8.465   0.042 -0.5768 -0.1670 -0.0925
    1W        W50756  23.761  19.273   7.353  0.0154 -0.2915  0.1958
    1W        W50757  21.184  25.891   9.057 -0.1441 -0.2301 -0.0378
    1W        W50758  27.917  23.627   9.306  0.1487  0.1982 -0.1390
    1W        W50759   3.437  22.006   1.140  0.0533 -0.1064 -0.3023
    1W        W50760   5.384   5.667   1.119 -0.0823  0.2252  0.0206
    1W        W50761  21.051  25.586   7.223  0.0063  0.3120  0.0265
    1W        W50762  12.566  23.437   1.773 -0.2326 -0.0640  0.1071
    1W        W50763  21.223  20.051   9.119 -0.3096  0.1314 -0.0748
    1W        W50764   5.607  25.421   2.413  0.0948  0.1941  0.1339
    1W        W50765  22.740  22.000   0.643  0.0022 -0.1222  0.1330
    1W        W50766  27.005  28.913   2.927  0.0839 -0.0578 -0.2265
    1W        W50767   4.804   3.859   1.024  0.0265 -0.0591  0.1108
    1W        W50768   8.115   2.468   1.928 -0.1205 -0.0529  0.4545
    1W        W50769  14.347  14.063   7.107  0.0555  0.0480  0.1477
    1W        W50770  16.925   4.869   7.564  0.0854  0.2665 -0.2142
    1W        W50771   9.274  15.330   9.446  0.2641  0.0348  0.0220
    1W        W50772  14.296  26.105   7.692 -0.0725  0.1894 -0.0986
    1W        W50773  19.540   9.191   0.226 -0.3730 -0.1218 -0.0311
    1W        W50774   4.052  18.893   0.510  0.0859  0.1661  0.2075
    1W        W50775  23.203  29.452   8.327 -0.2015 -0.0858 -0.0227
    1W        W50776   2.076  25.707   1.789  0.0176  0.0915  0.1549
    1W        W50777   2.366   3.983   9.433 -0.3492  0.1739  0.1951
    1W        W50778   5.179  21.836   8.260 -0.2460  0.0268 -0.0953
    1W        W50779  24.039  18.156   4.721 -0.0689 -0.1743  0.2344
    1W        W50780   4.562   6.775   1.612 -0.2352 -0.0399  0.2352
    1W        W50781  12.041  15.472   2.561  0.2780 -0.3400  0.1502
    1W        W50782  21.798   1.203   3.073 -0.0276 -0.1431  0.1262
    1W        W50783  17.634  26.189   0.613  0.1412  0.0609  0.0995
    1W        W50784   1.509  26.905   1.800  0.0797 -0.2659  0.0109
    1W        W50785  18.703  23.092   8.160  0.3718  0.0552  0.1383
    1W        W50786  13.378   1.149   3.061  0.0215  0.1162  0.0535
    1W        W50787   1.726  10.556   2.127 -0.0530  0.1704  0.2858
    1W        W50788  12.096   2.759   7.284  0.2352  0.1524 -0.0460
    1W        W50789  10.657   3.798   8.871  0.3134  0.0265 -0.1109
    1W        W50790  27.570  25.321   6.252 -0.0889 -0.1830 -0.2895
    1W        W50791   0.671  16.596   8.637 -0.0690  0.1426 -0.0436
    1W        W50792   9.135   6.100   1.390  0.2415 -0.0550  0.0650
    1W        W50793   8.533   7.438   6.814  0.2678 -0.1799 -0.0252
    1W        W50794  28.392  27.234   8.623 -0.0778  0.4697  0.0127
    1W        W50795  14.300   0.177   2.357  0.3410  0.1070 -0.1797
    1W        W50796   6.232  21.308   0.967 -0.0158  0.2207 -0.1950
    1W        W50797  24.051   0.599   2.899  0.1392  0.0276  0.0039
    1W        W50798  16.220  29.180   0.254  0.0341  0.4140 -0.0380
    1W        W50799  12.257   5.760   0.971  0.0789 -0.0808 -0.0294
    1W        W50800  22.888  22.464   8.531  0.2409  0.1202 -0.1286
    1W        W50801   9.917  12.939   8.227  0.2968 -0.0095 -0.2489
    1W        W50802  27.874   9.699   2.182  0.0387  0.1212 -0.0828
    1W        W50803  13.746  26.931   0.123  0.2053  0.2296  0.1028
    1W        W50804  13.603  16.443   1.353  0.0697  0.3232  0.0071
    1W        W50805  13.920  29.799   2.016 -0.2421 -0.2859 -0.2703
    1W        W50806   8.684  28.216   1.156  0.1908  0.0968  0.1215
    1W        W50807  15.128  14.450   8.411  0.2042 -0.2546  0.2294
    1W        W50808  13.063  29.243   1.097  0.5232  0.1037 -0.1919
    1W        W50809   9.816   3.600   9.390  0.1187  0.1079  0.0062
    1W        W50810  19.316  29.113   7.854 -0.3419  0.2186 -0.0838
    1W        W50811  13.896   0.300   1.583  0.2020 -0.1483  0.1076
    1W        W50812   2.853  28.213   1.846  0.4295  0.0035 -0.1207
    1W        W50813  10.942   1.204   0.658  0.0430  0.2176 -0.3742
    1W        W50814  22.094  18.090   1.092  0.2411 -0.1118 -0.0490
    1W        W50815   6.091  16.240   0.314  0.1621 -0.0272 -0.0856
    1W        W50816  20.240  28.905   7.528 -0.0839 -0.0777 -0.1108
    1W        W50817   5.418   1.348   3.171 -0.0886 -0.1655  0.2809
    1W        W50818  15.112  27.551   7.979 -0.2249 -0.2497 -0.2550
    1W        W50819  24.737  25.916   8.708  0.1503  0.1595  0.1794
    1W        W50820  16.399  20.364   6.892 -0.1486 -0.0690  0.3330
    1W        W50821  24.710  11.035   0.798 -0.2662 -0.0591 -0.2240
    1W        W50822  13.819   4.093   7.793 -0.0774 -0.1676  0.3211
    1W        W50823  23.545  26.938   1.934 -0.3018 -0.0479 -0.0912
    1W        W50824  10.639   1.133   9.156 -0.1008  0.0841  0.2565
    1W        W50825  18.938   5.530   9.052 -0.0845 -0.2265 -0.0277
    1W        W50826   9.113  11.032   2.116  0.0057  0.0065  0.0754
    1W        W50827   4.799  25.044   0.277 -0.0492 -0.0100  0.0316
    1W        W50828  29.240  17.875   0.540  0.3249  0.0715 -0.0771
    1W        W50829   7.196   4.045   8.585  0.0237 -0.2368  0.1310
    1W        W50830   9.285  14.442   0.769 -0.0373  0.0380 -0.1061
    1W        W50831  18.375   0.651   2.809 -0.0329  0.0584  0.3865
    1W        W50832   5.340   8.024   9.220 -0.0623  0.0942 -0.0995
    1W        W50833  29.272   0.904   9.380 -0.2349  0.2476  0.0134
    1W        W50834   4.419  23.981   0.798 -0.0820  0.1220 -0.4106
    1W        W50835  21.159  19.872   7.503 -0.2064  0.5579 -0.0572
    1W        W50836  17.682  28.604   8.437 -0.0139  0.0209 -0.0992
    1W        W50837  24.667   6.152   0.492 -0.2082 -0.0171  0.0206
    1W        W50838  24.926  15.590   9.068 -0.0933  0.0370  0.0532
    1W        W50839  18.788  18.732   1.666 -0.0723  0.3071  0.2604
    1W        W50840   3.926  19.868   9.273  0.1455  0.1115  0.1625
    1W        W50841  16.627  12.375   0.729 -0.0996 -0.0830  0.4688
    1W        W50842  28.816   7.761   0.094  0.1026 -0.1710  0.1125
    1W        W50843  24.860   4.738   8.917  0.2543  0.5453 -0.1692
    1W        W50844  14.744   5.401   7.244  0.2911  0.1256 -0.1820
    1W        W50845  25.924   8.666   2.948  0.4819  0.0164 -0.1514
    1W        W50846   0.783  28.727   8.005 -0.1127  0.2682 -0.0125
    1W        W50847  16.498  10.957   1.215 -0.0808  0.0526 -0.0012
    1W        W50848  13.232  21.134   6.901 -0.1939  0.0540  0.0101
    1W        W50849  16.749   9.343   0.707 -0.4339  0.1726  0.1065
    1W        W50850   1.629   5.179   2.549  0.1274 -0.1207  0.2392
    1W        W50851  26.856  12.116   1.511  0.1172  0.0500 -0.2089
    1W        W50852   4.175  29.475   0.222  0.1230 -0.0780 -0.0851
    1W        W50853  23.689   4.296   0.161 -0.1286 -0.0112  0.0804
    1W        W50854   9.130  21.588   7.794  0.2312 -0.0105  0.1755
    1W        W50855  23.471  27.962   8.142 -0.0482 -0.0679 -0.5817
    1W        W50856   0.001  18.332   8.037 -0.0771  0.1619  0.0777
    1W        W50857   8.095   0.995   0.739  0.1732 -0.2098  0.0517
    1W        W50858  21.876  12.237   0.497 -0.0523 -0.2501  0.0069
    1W        W50859  25.855   8.442   8.141  0.0927  0.0446  0.0960
    1W        W50860  18.905   7.405   3.022 -0.3107 -0.1129 -0.1054
    1W        W50861  17.780  29.489   8.085  0.1155 -0.0043  0.1230
    1W        W50862  14.586  18.063   0.400  0.0327 -0.3274  0.0303
    1W        W50863  27.387  25.106   8.942  0.0383 -0.1478 -0.0770
    1W        W50864  12.679  29.705   6.836  0.1649  0.0734 -0.0519
    1W        W50865   3.849   9.927   0.295 -0.2638  0.1818 -0.2762
    1W        W50866  19.905  20.192   7.748 -0.2127  0.1000  0.0759
    1W        W50867   5.920  18.970   9.314 -0.0140  0.0662 -0.3734
    1W        W50868  19.168  20.905   2.725  0.0760 -0.1198 -0.1160
    1W        W50869   0.977   8.736   0.099 -0.1195 -0.1642  0.2487
    1W        W50870  29.034  11.077   7.731  0.2147  0.2104  0.3080
    1W        W50871   6.390  13.073   9.294 -0.2876 -0.0388 -0.0299
    1W        W50872   4.333  14.584   8.763  0.4229 -0.1142  0.1000
    1W        W50873  21.603  28.673   9.159 -0.1911  0.2402  0.0958
    1W        W50874   8.353  26.915   8.652 -0.2286  0.0333 -0.1528
    1W        W50875  11.953  10.708   1.625  0.0133 -0.1124  0.1360
    1W        W50876   0.245  20.176   1.736 -0.0634  0.4050 -0.0557
    1W        W50877  18.494   0.766   3.280 -0.1511  0.2134 -0.1339
    1W        W50878   6.401  24.725   6.356  0.2906  0.0536  0.2896
    1W        W50879  18.207  12.926   1.848 -0.0800 -0.0069  0.0549
    1W        W50880  21.597  13.167   8.842 -0.1401  0.2244 -0.2150
    1W        W50881  17.971  29.799   1.286 -0.2346  0.0933  0.2344
    1W        W50882  18.838  18.343   0.603 -0.1212 -0.0102  0.0059
    1W        W50883  24.191  26.944   0.546 -0.0680 -0.1463 -0.1256
    1W        W50884  26.969   7.544   7.287 -0.1000 -0.2217 -0.1193
    1W        W50885  22.892  29.080   3.211 -0.0580  0.1503 -0.3725
    1W        W50886  11.416  11.313   0.234 -0.2036  0.0222  0.4304
    1W        W50887  23.932  13.532   6.514  0.3885 -0.1035  0.2457
    1W        W50888  20.286  19.717   0.966 -0.2132 -0.3136  0.1792
    1W        W50889  19.707  24.583   1.600  0.2495 -0.2616 -0.0080
    1W        W50890  24.459  24.910   7.769  0.0037  0.3935  0.1329
    1W        W50891  14.085  29.352   1.737  0.1141  0.0758 -0.3689
    1W        W50892   4.196  25.352   0.664 -0.0379 -0.2922 -0.2705
    1W        W50893   3.374  14.720   1.374 -0.2158 -0.0756 -0.3207
    1W        W50894  12.981  25.205   2.658  0.0719  0.0357  0.0205
    1W        W50895  17.755  15.839   2.023 -0.1487  0.1659  0.2402
    1W        W50896  21.017  11.516   9.173 -0.0474  0.2319 -0.2164
    1W        W50897   0.071   1.217   8.103  0.0301  0.0544 -0.1042
    1W        W50898  19.615  19.153   6.843  0.0634 -0.1124  0.1792
    1W        W50899  21.456   3.925   1.857  0.0251  0.0296 -0.1061
    1W        W50900  22.344   5.098   1.155 -0.2671  0.0243 -0.0571
    1W        W50901  25.908   1.340   7.709 -0.0724 -0.1477  0.3435
    1W        W50902   3.417  28.470   0.525  0.0990  0.0064  0.1904
    1W        W50903  21.097  10.746   1.650  0.0555 -0.0633 -0.0260
    1W        W50904  28.976  14.627   9.272 -0.1438  0.3765  0.1207
    1W        W50905   4.893   9.667   7.293  0.3708  0.3941  0.1793
    1W        W50906  24.276  20.869   6.702  0.0878  0.0521 -0.0585
    1W        W50907   7.124  14.256   8.356  0.0009  0.0458 -0.0217
    1W        W50908  11.379  14.588   1.424 -0.2314 -0.1113 -0.0928
    1W        W50909  10.948  12.198   7.261  0.0759 -0.2196 -0.0253
    1W        W50910   8.494  12.510   1.925  0.3292 -0.1371  0.0749
    1W        W50911  17.049   4.357   2.504 -0.1320  0.0371 -0.0280
    1W        W50912  15.718  16.421   7.788  0.0088  0.0398  0.0119
    1W        W50913  11.443  21.538   7.143 -0.2796 -0.1099  0.1220
    1W        W50914  26.619  25.700   2.111  0.1648  0.1716 -0.0800
    1W        W50915   1.024   0.324   9.466 -0.0038  0.0160 -0.0333
    1W        W50916  27.654  21.162   6.444 -0.0918 -0.3139  0.4680
    1W        W50917   5.730  22.867   2.065 -0.2200  0.2028 -0.2348
    1W        W50918  11.787  16.676   7.258 -0.2186  0.1196  0.0862
    1W        W50919  19.633  15.230   1.475 -0.0997  0.0435 -0.1367
    1W        W50920   0.552   6.031   0.407  0.0944  0.1071 -0.0720
    1W        W50921   6.457  17.909   7.087 -0.0329 -0.3555 -0.2692
    1W        W50922   1.710  26.299   8.865  0.3213  0.3197  0.1468
    1W        W50923  22.197  14.247   5.864  0.2990  0.1576  0.1631
    1W        W50924  16.032  28.523   9.502 -0.2720  0.1469 -0.0089
    1W        W50925  19.731  26.691   2.802 -0.0197  0.1834 -0.2382
    1W        W50926  23.926   6.098   0.047 -0.0558  0.1947 -0.3506
    1W        W50927  11.645  17.609   7.378  0.1865 -0.0408  0.1699
    1W        W50928  20.594  23.702   3.058 -0.2198 -0.1885 -0.4024
    1W        W50929  20.037  15.321   8.732  0.1534  0.2394 -0.1061
    1W        W50930   3.913  28.602   6.393  0.1485 -0.0458 -0.4815
    1W        W50931  14.055  10.141   1.056  0.1117 -0.2673 -0.0759
    1W        W50932  21.037  13.375   7.181  0.1100 -0.1892  0.2414
    1W        W50933   7.760   3.633   8.207 -0.2219  0.3448  0.0869
    1W        W50934  22.906  16.495   0.617 -0.1461  0.0627 -0.0871
    1W        W50935  20.208  10.163   8.902  0.0695 -0.0386 -0.0534
    1W        W50936  19.428  15.370   0.065  0.2035  0.0319  0.2477
    1W        W50937   2.968  18.967   6.720 -0.2542 -0.2539 -0.1882
    1W        W50938  12.137   8.860   0.877 -0.0454 -0.0988 -0.1024
    1W        W50939  21.895  20.129   6.124  0.3243 -0.0278  0.1028
    1W        W50940  12.624   4.780   2.023 -0.0820  0.2660 -0.3825
    1W        W50941  29.313  24.698   8.622  0.0365 -0.4385 -0.2535
    1W        W50942  24.615  18.709   8.382 -0.1115 -0.1656 -0.0854
    1W        W50943  21.806  23.045   6.670 -0.0659 -0.0115  0.1844
    1W        W50944   8.706  13.348   7.659  0.0111 -0.1310  0.2729
    1W        W50945   4.574   4.208   7.313  0.0518 -0.0562  0.3066
    1W        W50946   8.275  15.416   2.552 -0.1098 -0.3171 -0.3255
    1W        W50947   4.968  21.111   8.938  0.0572 -0.2770 -0.3589
    1W        W50948   3.631  27.052   8.937 -0.0305  0.0149 -0.1180
    1W        W50949  16.403   7.999   2.545  0.4847 -0.0891  0.1432
    1W        W50950  17.753   1.225   0.669  0.0451 -0.1532  0.0134
    1W        W50951  12.844  28.343   0.021  0.1347 -0.3321 -0.0163
    1W        W50952   2.502   3.520   9.425 -0.0304 -0.0333 -0.0494
    1W        W50953   4.344   1.114   1.121  0.0430  0.1822 -0.3739
    1W        W50954  15.378  27.186   2.275  0.0126  0.0646 -0.2042
    1W        W50955   8.772  13.169   9.551  0.0469  0.2586 -0.0134
    1W        W50956  16.311  19.304   0.830  0.1530 -0.1647  0.2345
    1W        W50957  10.494  10.567   1.380 -0.0178  0.1101  0.1880
    1W        W50958  20.673  21.429   9.382  0.0752 -0.4259 -0.0601
    1W        W50959  14.848  18.328   8.655  0.0099 -0.3185  0.3439
    1W        W50960  15.505  13.005   2.781 -0.1803  0.0979  0.2954
    1W        W50961  13.414  12.429   7.358  0.1130 -0.0341  0.0702
    1W        W50962  17.816  15.424   1.782  0.0490 -0.0184  0.0242
    1W        W50963   9.723  23.348   1.444 -0.3912 -0.0765  0.1694
    1W        W50964  22.399  23.491   7.735 -0.1738  0.0997 -0.0058
    1W        W50965  24.229  16.457   6.627  0.1545 -0.3125 -0.1684
    1W        W50966  21.199  26.534   0.490 -0.3181 -0.0492 -0.2273
    1W        W50967   7.328  27.787   3.020 -0.0679 -0.0584 -0.0171
    1W        W50968   1.237  17.445   1.007 -0.0889 -0.1333  0.1947
    1W        W50969   9.306   3.906   4.375 -0.0114 -0.1440  0.4621
    1W        W50970   6.127  10.766   7.413 -0.0093  0.1179 -0.0342
    1W        W50971   2.204  11.409   7.425 -0.1214 -0.0685  0.1584
    1W        W50972   5.078  19.564   7.362 -0.2071 -0.0889 -0.1078
    1W        W50973  24.099  21.327   7.876 -0.3239 -0.3237 -0.0754
    1W        W50974   7.728   8.431   0.568  0.1821  0.1027 -0.0023
    1W        W50975  14.137  18.781   8.924 -0.1055 -0.2438  0.0849
    1W        W50976   2.582  28.972   9.069  0.0279  0.1341  0.0492
    1W        W50977  15.041  21.885   2.578  0.4212 -0.5108 -0.0467
    1W        W50978  19.624   9.621   1.332  0.1288  0.0289 -0.0357
    1W        W50979   7.158  24.348   8.224  0.2359 -0.0931 -0.1363
    1W        W50980  12.274  13.424   0.938 -0.0277  0.1028  0.2664
    1W        W50981  16.197  16.375   7.572 -0.1842  0.1601 -0.1252
    1W        W50982  16.925   9.385   7.448  0.3548  0.2163 -0.0372
    1W        W50983  29.004  20.438   0.278 -0.1803 -0.1320  0.0644
    1W        W50984  28.637   7.806   1.579 -0.1743 -0.0977 -0.1463
    1W        W50985   5.168  27.149   1.743  0.1270 -0.0362 -0.0719
    1W        W50986   6.398  16.898   1.770 -0.0950 -0.0566  0.0404
    1W        W50987   3.204  24.492   8.681 -0.1707 -0.0620 -0.0454
    1W        W50988  13.868  21.919   3.176 -0.0269  0.0601 -0.1938
    1W        W50989  26.990  29.243   6.787 -0.0492 -0.1900 -0.0371
    1W        W50990  26.469  10.560   2.358 -0.1672 -0.0242 -0.0582
    1W        W50991   7.954  29.674   2.702 -0.1770 -0.2283 -0.0150
    1W        W50992   4.652   1.472   1.384 -0.1303  0.0323 -0.1621
    1W        W50993  10.725  25.372   1.029  0.0316  0.4197 -0.2171
    1W        W50994  16.848  12.019   6.568  0.0284 -0.2676 -0.1052
    1W        W50995   2.320  12.920   0.646 -0.1520  0.2504  0.0280
    1W        W50996  16.216  19.746   1.086  0.0066 -0.2673  0.2315
    1W        W50997  13.166  13.322   0.357  0.1090  0.1421 -0.1151
    1W        W50998  17.016  23.434   7.792 -0.0460 -0.2318  0.4139
    1W        W50999  26.189  13.384   6.368 -0.0362 -0.1632  0.4527
    1W        W51000   7.425   7.818   0.426  0.1526 -0.1509 -0.1197
    1W        W51001   0.452  29.117   0.186 -0.1217 -0.1803 -0.0292
    1W        W51002  27.828  20.231   0.226 -0.1282 -0.0975 -0.2832
    1W        W51003  10.899   4.284   4.035 -0.2465 -0.0021  0.1087
    1W        W51004  24.558  25.797   2.658  0.0994 -0.3456 -0.3846
    1W        W51005  13.551   0.493   0.284 -0.0827 -0.1138  0.2310
    1W        W51006  21.616  27.386   7.952  0.0597 -0.0009 -0.0581
    1W        W51007   0.003   8.487   9.451  0.0083 -0.0001  0.1579
    1W        W51008  16.359   0.799   2.317 -0.0538  0.2111  0.2628
    1W        W51009   8.711   9.354   0.671  0.0574 -0.0040  0.1474
    1W        W51010  23.066  15.625   8.399  0.6199 -0.1244 -0.1202
    1W        W51011  15.502   0.504   7.094 -0.2946  0.0775 -0.0062
    1W        W51012  22.244   3.966   9.093 -0.0794 -0.0222  0.1505
    1W        W51013  27.545  18.453   0.538  0.0151  0.0691 -0.2585
    1W        W51014   8.878  11.093   1.635 -0.0085  0.2812  0.0101
    1W        W51015  18.801  25.180   1.572  0.3988  0.6077  0.1312
    1W        W51016  22.988  25.781   0.464  0.2554 -0.1821  0.3432
    1W        W51017   2.480  16.346   0.701 -0.2589  0.0929 -0.2597
    1W        W51018   2.134  15.885   7.810  0.1625 -0.1635  0.0259
    1W        W51019  27.293   2.156   7.979  0.1527 -0.4201 -0.0546
    1W        W51020  28.036  20.122   7.623  0.0414 -0.0271 -0.0593
    1W        W51021  13.536  22.382   6.326  0.0664 -0.2223 -0.0784
    1W        W51022  15.012  17.102   7.590  0.3181 -0.1747 -0.4247
    1W        W51023  25.129  23.652   2.108  0.0935 -0.1646  0.0816
    1W        W51024   1.148  11.435   0.996 -0.0457 -0.0284 -0.0881
    1W        W51025  10.458  10.884   6.715  0.1685  0.1602 -0.0702
    1W        W51026  23.532   5.716   0.096  0.0860  0.4778 -0.1207
    1W        W51027  12.301  10.375   7.921  0.1766 -0.0808 -0.0288
    1W        W51028  27.666  12.278   7.812  0.0329 -0.1374 -0.3518
    1W        W51029   6.956   7.093   2.485 -0.1777  0.1740  0.0061
    1W        W51030  28.964  11.079   1.096  0.2376  0.4017 -0.2759
    1W        W51031   0.280   1.690   7.248  0.1097  0.0572 -0.5367
    1W        W51032   5.493  29.143   7.385  0.0522 -0.0347  0.0325
    1W        W51033  16.103  19.261   2.489 -0.2040  0.1008 -0.0040
    1W        W51034   5.356  14.329   2.192  0.2180  0.3740  0.1334
    1W        W51035  14.801   8.577   2.476  0.0819 -0.2263  0.2120
    1W        W51036  23.133   7.512   1.859  0.3002 -0.3587  0.0089
    1W        W51037  13.539   8.162   8.682  0.0917  0.0754  0.0748
    1W        W51038   3.488  26.653   1.781  0.0512 -0.1708  0.1004
    1W        W51039  25.504   4.860   2.078 -0.0530 -0.3752  0.2296
    1W        W51040   4.607  24.656   6.792 -0.0921  0.3102 -0.1419
    1W        W51041   6.312  28.280   1.412 -0.1496  0.1630 -0.1277
    1W        W51042  23.213   9.092   8.976 -0.1759 -0.1310  0.0996
    1W        W51043  10.924   8.460   1.459 -0.0416  0.0216 -0.2453
    1W        W51044  17.541  29.182   3.489 -0.2602 -0.0037  0.2138
    1W        W51045  13.728  19.770   2.001 -0.3058  0.1039 -0.1739
    1W        W51046  26.701  12.715   0.828  0.1692  0.3049 -0.2313
    1W        W51047  25.520  28.431   7.886 -0.0875  0.2968 -0.1034
    1W        W51048  20.334  10.514   1.612 -0.1641 -0.0780 -0.0806
    1W        W51049  10.486   2.328   7.794  0.0449  0.0676  0.1941
    1W        W51050   7.733  21.314   6.921 -0.1972  0.2467  0.3493
    1W        W51051   8.890  22.183   6.569 -0.0054  0.1584  0.0413
    1W        W51052   8.304  24.194   7.912  0.2337 -0.1101 -0.2188
    1W        W51053  12.733  26.379   2.072 -0.0009  0.1034  0.1991
    1W        W51054   2.504  12.658   9.484 -0.2375 -0.1024  0.1017
    1W        W51055  23.648   7.294   7.320 -0.2048 -0.0331 -0.2573
    1W        W51056  16.743  17.845   2.510 -0.1809  0.0672 -0.1969
    1W        W51057   2.310  16.589   7.251 -0.1253  0.1695 -0.0900
    1W        W51058  21.193  20.768   6.257 -0.2011  0.0669  0.1107
    1W        W51059  29.057   8.035   6.957  0.0360 -0.1231  0.1278
    1W        W51060   7.021  13.941   7.421 -0.2340  0.2790 -0.0669
    1W        W51061  19.352   8.858   7.527  0.2524  0.2000 -0.0238
    1W        W51062  23.884  28.189   7.879 -0.2119 -0.3002  0.0580
    1W        W51063  24.352  26.257   9.426  0.0512  0.1338  0.0271
    1W        W51064  12.753   9.338   7.029 -0.2684 -0.2694  0.0988
    1W        W51065   3.446   7.477   2.156  0.0006  0.2116  0.0162
    1W        W51066  13.587  19.133   1.179 -0.1235 -0.0374  0.1702
    1W        W51067  13.555  28.067   7.881 -0.1914 -0.0157  0.4470
    1W        W51068   9.870  27.974   3.084  0.0638  0.3393  0.0769
    1W        W51069  11.409   7.043   9.003  0.0197 -0.0170 -0.2407
    1W        W51070  20.655  26.312   2.869  0.2512  0.1057  0.1730
    1W        W51071  29.699  15.329   7.071  0.2688  0.0207 -0.0847
    1W        W51072   7.864  23.763   9.368  0.2458 -0.0263  0.1172
    1W        W51073   8.001  21.387   0.210 -0.0866 -0.0481  0.4624
    1W        W51074   5.993  27.065   8.114 -0.1307  0.1048  0.0565
    1W        W51075   9.523  25.777   9.354  0.1491 -0.2621 -0.0033
    1W        W51076  28.989   1.646   0.135 -0.3764 -0.1041  0.0545
    1W        W51077   0.441   0.849   9.091  0.2578  0.1765  0.0669
    1W        W51078  14.314  20.659   6.628 -0.1207 -0.0209  0.2146
    1W        W51079   1.560  10.207   6.974 -0.0155 -0.3725  0.0980
    1W        W51080   8.536   3.426   0.912  0.4742 -0.2073  0.2935
    1W        W51081  22.724  22.401   1.208 -0.0908 -0.1000  0.0891
    1W        W51082  22.481  17.447   0.106  0.2242 -0.0851 -0.1091
    1W        W51083  23.550  10.949   6.396 -0.2156  0.2873  0.0678
    1W        W51084  26.505  21.239   7.657  0.1523  0.2741 -0.1865
    1W        W51085   7.617   3.069   0.637  0.0410 -0.2560 -0.0986
    1W        W51086  23.027  17.505   6.683  0.1320 -0.1258 -0.0618
    1W        W51087  27.014  24.037   1.790 -0.2898 -0.0400  0.2744
    1W        W51088  28.992  26.226   8.215 -0.0007 -0.1123 -0.0252
    1W        W51089  23.094  23.652   8.935 -0.1181 -0.0045  0.1419
    1W        W51090  24.966   9.995   1.581  0.1184  0.0707 -0.3135
    1W        W51091  21.464  16.249   1.526  0.0823 -0.1918  0.3247
    1W        W51092  25.682  17.624   7.032  0.3978  0.1722  0.1411
    1W        W51093   8.220  18.260   7.163  0.1375 -0.2013 -0.1969
    1W        W51094  26.796  28.989   1.020 -0.1405 -0.0333 -0.1439
    1W        W51095  22.113  28.450   8.519  0.0964  0.1091 -0.2296
    1W        W51096  25.977  10.937   6.985  0.1317  0.1059 -0.0203
    1W        W51097  20.339  26.006   8.862 -0.4774 -0.2080  0.1707
    1W        W51098  25.433   0.964   1.053  0.0078  0.3702 -0.0340
    1W        W51099  22.693  29.754   8.018  0.3578  0.1537  0.1698
    1W        W51100   6.486   2.431   8.236 -0.0542  0.1247 -0.0988
    1W        W51101   3.315   9.080   0.188 -0.2517  0.0261 -0.2320
    1W        W51102   2.997  11.049   7.251  0.3611 -0.0709  0.1306
    1W        W51103  22.861   0.827   0.857  0.2550  0.2105 -0.1305
    1W        W51104  15.193   2.287   0.884  0.0306  0.0429  0.1578
    1W        W51105  29.458  24.408   6.103 -0.0409  0.1260  0.2345
    1W        W51106   2.729  29.575   7.094  0.2039  0.0354 -0.1200
    1W        W51107   3.374  20.183   9.064 -0.2819 -0.0744  0.2483
    1W        W51108  18.084  24.380   9.147 -0.0279 -0.4138 -0.2807
    1W        W51109  19.742  25.043   1.312 -0.4142  0.0367  0.1311
    1W        W51110   3.975  23.344   2.375 -0.3108  0.3214 -0.0799
    1W        W51111  27.412  16.510   7.715  0.0059  0.0406  0.1057
    1W        W51112  22.655   9.002   2.280 -0.0401  0.1798  0.0180
    1W        W51113  23.799  23.866   7.488  0.2592  0.1291 -0.3730
    1W        W51114  22.038  21.734   8.779 -0.0412  0.0402 -0.3280
    1W        W51115  26.899   0.155   1.805  0.1873  0.1840  0.0003
    1W        W51116  21.078   8.919   8.639 -0.2889  0.0132  0.0694
    1W        W51117  19.714   7.253   2.262 -0.2431 -0.1412  0.0840
    1W        W51118  22.143   7.885   0.671 -0.0670  0.0728  0.0936
    1W        W51119   0.549   6.911   1.683  0.1343  0.2002  0.2825
    1W        W51120   7.917  28.033   1.984 -0.2675 -0.3471  0.0234
    1W        W51121   9.276  20.441   0.286  0.1910 -0.1019  0.0019
    1W        W51122  15.031  18.982   0.942 -0.0251 -0.1105 -0.1815
    1W        W51123  23.526  29.405   0.774 -0.0013  0.3677 -0.1423
    1W        W51124   0.673   9.807   7.489  0.2328  0.1601 -0.0263
    1W        W51125   3.109  19.910   6.830  0.1393  0.2909  0.0462
    1W        W51126  22.592  10.019   1.895  0.0449 -0.0435 -0.2500
    1W        W51127  17.488   6.445   1.150 -0.1046  0.0201 -0.1664
    1W        W51128  24.171  13.161   8.413 -0.0689 -0.0096 -0.0891
    1W        W51129  20.341   4.115   1.695  0.2960 -0.2826 -0.0822
    1W        W51130   0.220  25.283   8.735  0.1892  0.2738  0.1544
    1W        W51131  21.544   4.630   9.077  0.0133  0.0431  0.0786
    1W        W51132  10.574  11.711   8.529  0.0308 -0.0591  0.0607
    1W        W51133   6.699  24.474   2.180 -0.0921 -0.3480  0.1757
    1W        W51134  11.836  11.790   7.094  0.0097 -0.0629  0.0446
    1W        W51135  14.989  14.468   0.691 -0.1594  0.2045 -0.1115
    1W        W51136  13.480  29.204   2.515 -0.6215 -0.3051  0.1251
    1W        W51137   1.025   2.288   1.527 -0.1053  0.4531  0.1556
    1W        W51138  29.790   1.644   2.055 -0.1317  0.3422  0.0629
    1W        W51139   0.133  24.908   7.151 -0.0712  0.1724 -0.2573
    1W        W51140  12.968  27.674   7.178  0.0216 -0.0021  0.0993
    1W        W51141  10.584  13.621   7.892 -0.0508  0.1404  0.2630
    1W        W51142  26.460  24.179   2.572  0.3562 -0.0183 -0.1071
    1W        W51143  20.580   2.757   1.571 -0.2043  0.1798  0.1899
    1W        W51144  26.662   0.215   9.106  0.1210 -0.1566 -0.1038
    1W        W51145   5.175   7.462   2.477  0.5525 -0.2044 -0.0879
    1W        W51146   6.446   5.351   1.852 -0.0382  0.1924 -0.2434
    1W        W51147   8.668  13.294   1.373  0.0753 -0.2300  0.2160
    1W        W51148  26.177  20.238   1.204 -0.2990 -0.2818 -0.1382
    1W        W51149  10.174  11.901   8.318 -0.0406  0.1689 -0.2179
    1W        W51150  10.381   0.555   0.880  0.2953 -0.1984 -0.0110
    1W        W51151  27.467  15.406   6.748  0.2937 -0.0468  0.0560
    1W        W51152   6.845  24.148   0.813 -0.1746 -0.2806  0.1775
    1W        W51153  12.834  12.535   6.747  0.1241 -0.1277  0.1383
    1W        W51154  27.604   4.957   2.549  0.1107  0.0277  0.2206
    1W        W51155  18.818  14.538   1.361 -0.3088 -0.1050 -0.1253
    1W        W51156  21.357  14.507   1.580  0.1457  0.0674  0.0056
    1W        W51157  13.317   3.357   7.979 -0.2275 -0.3347  0.0064
    1W        W51158  23.617  24.308   2.326  0.0492 -0.1292  0.0888
    1W        W51159  24.740  17.353   7.267  0.2428 -0.2066 -0.0940
    1W        W51160  20.569  19.087   6.624  0.0331  0.0400 -0.2921
    1W        W51161  16.880  17.509   8.850  0.0692 -0.1061 -0.2996
    1W        W51162  25.051  23.994   8.763 -0.2204  0.3094  0.2464
    1W        W51163   5.120   2.122   7.746 -0.0019 -0.0565  0.0558
    1W        W51164  28.580  22.766   6.767 -0.2643  0.3747  0.2538
    1W        W51165  23.119   8.022   7.443 -0.0884  0.0669  0.0281
    1W        W51166  25.882   6.015   2.851  0.1329  0.2478 -0.0072
    1W        W51167   6.962  24.667   6.274  0.1355  0.1327 -0.2077
    1W        W51168   8.691  26.299   3.438  0.1250 -0.2397  0.1569
    1W        W51169  29.305   7.728   7.851  0.1716 -0.1466 -0.1747
    1W        W51170  28.369  27.649   1.118 -0.1497 -0.2235  0.2560
    1W        W51171   5.522  16.229   8.165 -0.1182 -0.2011  0.0151
    1W        W51172  23.060  14.652   6.807  0.2173  0.0837  0.0241
    1W        W51173   9.650   8.140   8.146 -0.1740 -0.2894  0.0904
    1W        W51174  12.134  25.075   8.946 -0.0551  0.0581 -0.2098
    1W        W51175   4.767   8.239   8.391 -0.0156 -0.0360  0.0095
    1W        W51176  25.000   6.372   7.100 -0.0482  0.0409 -0.1052
    1W        W51177  27.979   1.478   7.527  0.3695  0.1874  0.2944
    1W        W51178  25.795   5.626   7.922  0.1420 -0.0810  0.1482
    1W        W51179  29.439   6.334   7.750  0.0376  0.0312  0.0743
    1W        W51180  17.057  25.086   8.696 -0.0177 -0.0803  0.0162
    1W        W51181  28.079   2.743   1.116 -0.0888 -0.1440  0.2036
    1W        W51182   2.100  23.005   9.538  0.1314  0.2184  0.0280
    1W        W51183  24.055   5.301   2.689 -0.1781 -0.3322 -0.1611
    1W        W51184  20.471  22.037   1.820  0.3047  0.1898  0.2910
    1W        W51185  23.701  21.335   7.293 -0.0708 -0.1511  0.2257
    1W        W51186  27.091   8.884   6.955 -0.2391 -0.1130  0.2043
    1W        W51187   0.433  24.442   2.288 -0.2179  0.4975  0.3843
    1W        W51188  22.261  25.212   1.192  0.3495  0.4298  0.0661
    1W        W51189  23.563  19.748   0.333 -0.1229  0.1358 -0.0267
    1W        W51190   9.018  11.611   8.085 -0.2438  0.0748 -0.4501
    1W        W51191  18.622   4.986   8.742  0.0846  0.3416 -0.0257
    1W        W51192  11.611  17.609   1.051 -0.2927 -0.1689 -0.2830
    1W        W51193  16.345  11.101   3.294  0.0304  0.4787 -0.0951
    1W        W51194  20.148  16.082   7.358 -0.2493 -0.0754  0.0601
    1W        W51195   5.483  23.972   9.484 -0.2497  0.3782  0.3220
    1W        W51196  18.634  19.136   6.339 -0.4088  0.1688 -0.1311
    1W        W51197   0.084  27.505   1.551  0.0154  0.1375  0.0145
    1W        W51198  22.007  25.571   1.942 -0.2581  0.0920 -0.0458
    1W        W51199  18.834  14.039   1.625 -0.2398 -0.1738 -0.1728
    1W        W51200   2.889  28.522   0.648  0.0660  0.1364 -0.0527
    1W        W51201   1.093  13.370   8.309 -0.0333  0.4389 -0.2448
    1W        W51202   1.288   0.889   8.590  0.2220  0.0300  0.3179
    1W        W51203  12.320  26.292   2.544 -0.2229  0.0322  0.1375
    1W        W51204  21.313  21.994   5.745 -0.0283 -0.1991  0.3830
    1W        W51205  18.246  21.500   9.059 -0.0506  0.0349  0.0099
    1W        W51206  20.351   2.241   1.729 -0.2925  0.0280 -0.1419
    1W        W51207  21.319  17.830   7.382  0.0035 -0.0419 -0.1709
    1W        W51208  10.424  18.572   2.824 -0.5080 -0.1226  0.0507
    1W        W51209  17.895   6.791   7.439 -0.1103 -0.0900 -0.1272
    1W        W51210  11.594  17.840   7.925 -0.0140  0.0311  0.2198
    1W        W51211  12.093   0.651   0.265  0.0151 -0.2401 -0.2807
    1W        W51212   7.685  28.008   8.337 -0.4642  0.0607  0.2615
    1W        W51213  13.404  10.333   6.326  0.0495  0.0197 -0.0375
    1W        W51214   7.094   6.813   8.047 -0.0457  0.3050  0.0358
    1W        W51215   8.050  13.006   0.592 -0.2285 -0.0758  0.2652
    1W        W51216   3.926   7.351   0.891  0.0802 -0.2344 -0.2047
    1W        W51217  27.401  11.885   9.489  0.2191  0.1089  0.0676
    1W        W51218  19.460  19.068   0.964  0.1404 -0.0118 -0.0468
    1W        W51219   9.046   9.879   7.462  0.0793  0.1545 -0.0498
    1W        W51220  23.104  19.524   0.191  0.1698  0.0824 -0.0790
    1W        W51221   5.048  13.622   2.850 -0.0065  0.1638 -0.0770
    1W        W51222   1.881  24.624   6.820 -0.1514 -0.0412 -0.2662
    1W        W51223  16.911  16.467   6.832 -0.0903 -0.2662 -0.1146
    1W        W51224  10.109   4.729   3.010 -0.2659  0.4354 -0.0258
    1W        W51225  23.429  14.192   8.964  0.1636 -0.1578  0.0908
    1W        W51226  12.646  18.898   0.192  0.0234 -0.3084 -0.0634
    1W        W51227  25.574  24.299   0.464 -0.2115 -0.1379  0.0617
    1W        W51228   0.022   4.132   0.208  0.1612 -0.2738 -0.3325
    1W        W51229  16.389  24.075   7.234  0.2542  0.0629  0.1094
    1W        W51230  27.087  28.700   0.797 -0.3168  0.0801  0.1638
    1W        W51231  19.535  17.725   2.049  0.0095  0.0340 -0.1281
    1W        W51232  21.906  16.414   7.040 -0.4171 -0.2517  0.0568
    1W        W51233  11.475   9.769   7.347 -0.0944  0.0001 -0.5182
    1W        W51234  19.779  28.051   2.180 -0.0917  0.0458 -0.1292
    1W        W51235   1.239  14.311   9.156  0.0052 -0.0591  0.2439
    1W        W51236  28.832  26.619   1.264  0.2771  0.2091  0.0531
    1W        W51237   1.007  25.221   9.242 -0.0552  0.0645  0.1355
    1W        W51238  25.613   8.350   0.149 -0.1610 -0.2788 -0.0224
    1W        W51239   1.625  20.119   1.602  0.0711 -0.3504 -0.0118
    1W        W51240  10.426  20.040   7.781  0.0530  0.0865 -0.0111
    1W        W51241  23.518   4.262   3.513 -0.2656 -0.2291  0.1525
    1W        W51242   6.117  11.661   7.716  0.0728  0.0487  0.2923
    1W        W51243   2.511  20.091   8.207 -0.0139  0.0105  0.0113
    1W        W51244   8.378  23.813   0.959  0.1415 -0.2397  0.1130
    1W        W51245  17.825  21.500   2.053  0.3363 -0.2125  0.1332
    1W        W51246  27.885  28.859   0.176 -0.1206 -0.1927  0.4055
    1W        W51247  23.841   8.591   7.846 -0.0223  0.0172 -0.0752
    1W        W51248   3.557   6.512   7.464 -0.4550  0.1523 -0.0211
    1W        W51249  11.937  14.471   9.534  0.3161 -0.1106 -0.0850
    1W        W51250  21.833  13.499   0.984 -0.0123 -0.1372  0.2058
    1W        W51251   3.854  26.574   7.611  0.2564  0.1506  0.0386
    1W        W51252  17.089  13.307   0.768  0.2765  0.1296 -0.1233
    1W        W51253  21.177  29.510   1.737 -0.2592 -0.2148 -0.1886
    1W        W51254   4.063  11.945   8.463  0.1562 -0.0879  0.0743
    1W        W51255   4.994   2.844   1.320  0.0957  0.1331  0.1100
    1W        W51256  21.551  21.278   6.949 -0.0995 -0.0605  0.1103
    1W        W51257   2.178  19.084   1.375  0.2104 -0.2029  0.2351
    1W        W51258  20.877   3.240   2.813 -0.0438  0.0049  0.2771
    1W        W51259  10.375   7.805   3.105 -0.1331  0.0413  0.1058
    1W        W51260   8.337  19.631   0.526 -0.3327  0.0866  0.3873
    1W        W51261   5.986   3.383   2.664  0.0504 -0.1834  0.1929
    1W        W51262  28.545   0.943   8.694  0.0095  0.0720  0.3366
    1W        W51263  12.467  17.571   2.162 -0.0332 -0.1659 -0.0478
    1W        W51264  10.041  16.295   7.490  0.2910 -0.0916 -0.0243
    1W        W51265  10.569  10.943   0.458  0.1224 -0.0276 -0.2557
    1W        W51266   2.829  17.809   8.483  0.1174 -0.2210  0.4630
    1W        W51267  15.190   0.324   1.972 -0.1140  0.0166 -0.1389
    1W        W51268  13.474  26.321   8.945  0.1948  0.0788 -0.1649
    1W        W51269  24.444  13.990   8.948  0.3661  0.2773 -0.0827
    1W        W51270   8.272  15.685   2.079 -0.0800 -0.1148 -0.1182
    1W        W51271  22.702  28.318   8.397  0.1022 -0.2274  0.0810
    1W        W51272  16.689  19.315   8.770  0.1139  0.1734  0.0064
    1W        W51273   1.800  25.543   2.504 -0.0006 -0.2491 -0.1335
    1W        W51274  23.663  15.899   1.437  0.0078  0.1726  0.0172
    1W        W51275  11.159   6.652   7.708  0.0550  0.0683 -0.3533
    1W        W51276  17.082  15.040   8.656  0.1751  0.2037  0.0889
    1W        W51277  28.319   5.452   7.482 -0.2064 -0.0035 -0.0101
    1W        W51278   6.719  21.144   0.967  0.1010 -0.0207  0.2841
    1W        W51279  15.894  14.475   9.370  0.1992 -0.3892 -0.0175
    1W        W51280  21.953  20.793   0.081  0.0083 -0.1921  0.3315
    1W        W51281  16.210   2.053   2.807 -0.1271 -0.0356 -0.0232
    1W        W51282  15.410  11.791   2.022 -0.0379 -0.1421  0.0162
    1W        W51283  20.443  18.727   1.713  0.2700  0.3447  0.0821
    1W        W51284  19.300   7.687   1.704 -0.1030  0.3676  0.0725
    1W        W51285  26.185   8.087   6.326 -0.2452 -0.0877  0.1800
    1W        W51286   6.034  28.291   1.855 -0.0813  0.0680 -0.0327
    1W        W51287  21.031  28.441   9.239 -0.0911  0.3546  0.1797
    1W        W51288   9.669   8.645   6.928  0.1812 -0.0756 -0.3644
    1W        W51289  17.369   1.417   0.424  0.0376  0.1160  0.1073
    1W        W51290  24.090  19.998   7.866  0.0868 -0.4454  0.1175
    1W        W51291   0.280   4.696   2.727  0.2406 -0.1185 -0.3038
    1W        W51292  16.807   2.664   3.306  0.0051 -0.4077  0.2383
    1W        W51293  29.197  28.723   8.593 -0.2143 -0.1816  0.0638
    1W        W51294   1.813  26.390   9.335 -0.1860 -0.1463 -0.2204
    1W        W51295  27.038   7.011   7.122 -0.1798  0.0966  0.0265
    1W        W51296  28.002   2.739   3.107  0.3164  0.1794  0.0216
    1W        W51297   4.312   7.862   7.304  0.2706 -0.0538 -0.0315
    1W        W51298   9.547  26.501   7.166 -0.0125 -0.1263 -0.3245
    1W        W51299  18.972  18.329   2.630 -0.0619 -0.0188  0.0018
    1W        W51300  12.149  15.588   2.077  0.1431  0.0992 -0.0101
    1W        W51301  14.708   2.876   7.028 -0.2005 -0.0302 -0.0737
    1W        W51302   9.615   7.953   0.397 -0.0034  0.1447  0.2440
    1W        W51303  29.747  23.674   6.526  0.1628  0.1368  0.0886
    1W        W51304  14.702  15.830   6.786 -0.0407  0.0452 -0.1369
    1W        W51305  14.153  12.898   7.317 -0.3527  0.0670  0.3794
    1W        W51306   1.672  14.237   8.820  0.0945  0.0004 -0.0433
    1W        W51307  13.140  29.146   7.281  0.3139 -0.0719  0.1695
    1W        W51308  19.115   8.473   3.240 -0.1287 -0.0492 -0.0638
    1W        W51309   5.543   1.115   7.234  0.0797 -0.1474 -0.0342
    1W        W51310   5.175  27.702   9.034 -0.0650  0.1152 -0.0639
    1W        W51311  27.696   1.241   7.097  0.0244 -0.1731 -0.3877
    1W        W51312   6.761  24.901   1.226  0.1014 -0.0418  0.1327
    1W        W51313  24.562  14.815   8.741 -0.1409 -0.3964 -0.1322
    1W        W51314  14.758  22.667   9.379  0.3219 -0.1007  0.0538
    1W        W51315  18.130   5.332   0.407 -0.2060 -0.0410  0.0720
    1W        W51316  28.438   2.407   6.784 -0.2549  0.2061 -0.4546
    1W        W51317   0.226   3.384   2.575  0.0371 -0.0226 -0.0303
    1W        W51318  16.745  14.145   0.570  0.3252  0.2040 -0.0724
    1W        W51319  11.996  26.244   0.690  0.1165 -0.1630 -0.2806
    1W        W51320  16.384  21.124   6.444 -0.2411  0.0912 -0.2220
    1W        W51321   4.489  19.753   1.595 -0.1926  0.1554  0.0728
    1W        W51322  23.794  28.070   6.931 -0.0539  0.3418  0.0691
    1W        W51323  10.080  26.577   7.974 -0.0860 -0.5585  0.1597
    1W        W51324  28.848   6.473   9.239  0.2717 -0.0181  0.0379
    1W        W51325  22.058   6.676   2.971  0.4025 -0.0149  0.2642
    1W        W51326  29.201  22.042   0.549 -0.0301 -0.1965  0.0955
    1W        W51327  18.598   0.890   2.427  0.1740 -0.0415  0.2579
    1W        W51328   5.915  25.417   3.571  0.3228 -0.2735  0.0475
    1W        W51329  20.712   2.228   3.108 -0.1163 -0.1026 -0.0125
    1W        W51330   5.086   7.098   0.190  0.0299 -0.1222  0.2593
    1W        W51331   5.188   3.276   8.706  0.0507 -0.1472 -0.0108
    1W        W51332  14.155  22.114   6.342 -0.0151  0.0922 -0.1267
    1W        W51333  13.975  15.115   1.933  0.1764 -0.1383  0.0228
    1W        W51334  24.373   3.355   2.228  0.3867  0.1318  0.1651
    1W        W51335  13.719  28.757   9.031  0.0163 -0.0280  0.1657
    1W        W51336  10.411  14.287   0.550  0.1783  0.0818 -0.1381
    1W        W51337  14.257  14.122   0.360 -0.0816 -0.2145 -0.0006
    1W        W51338  10.414  26.884   7.219  0.1968 -0.0090 -0.1264
    1W        W51339  27.015  12.971   1.212  0.1543  0.0208  0.1114
    1W        W51340   9.200   4.635   7.329  0.3661  0.0558 -0.0579
    1W        W51341  27.802  24.159   1.532 -0.1923  0.0468  0.2459
    1W        W51342  25.856  21.312   6.999 -0.3673 -0.1238  0.1124
    1W        W51343  16.492  23.226   9.504  0.0619  0.2005  0.2157
    1W        W51344  26.687   1.062   2.216  0.1297 -0.0435  0.0026
    1W        W51345  12.214   0.537   1.940  0.0557 -0.1666 -0.0798
    1W        W51346  15.425  21.062   8.411 -0.2098 -0.0890 -0.1907
    1W        W51347  27.836  20.066   0.759 -0.0112 -0.0421 -0.0500
    1W        W51348  15.464  23.607   7.806 -0.0624  0.0512  0.2242
    1W        W51349   5.731  11.928   9.360  0.3679  0.1808 -0.1848
    1W        W51350  27.323  21.503   0.007  0.2263 -0.1413  0.1196
    1W        W51351  16.513  17.011   0.948  0.1321  0.1124 -0.1673
    1W        W51352  10.234  29.153   8.503  0.3160  0.1327 -0.1439
    1W        W51353  19.507  23.841   6.393  0.3039  0.3667  0.5385
    1W        W51354   6.721  11.565   0.404 -0.1272  0.1815  0.1432
    1W        W51355  20.085  10.661   8.767 -0.3263 -0.1622  0.1542
    1W        W51356  21.601   4.308   8.473  0.0452 -0.2249  0.0550
    1W        W51357  21.063   6.523   1.674  0.2247 -0.1328  0.0794
    1W        W51358   8.952  18.958   6.507  0.2157  0.1802 -0.1053
    1W        W51359   8.642   2.457   3.091 -0.2266 -0.5889  0.1355
    1W        W51360  15.569  25.251   8.307 -0.0572  0.0038  0.4050
    1W        W51361   4.753  25.239   9.404  0.1013  0.0320 -0.1772
    1W        W51362   1.759  11.680   7.332  0.1464  0.2249 -0.1237
    1W        W51363  10.200  13.545   0.865 -0.3787 -0.0368  0.0814
    1W        W51364  14.680  13.173   8.599 -0.3927 -0.0848 -0.2307
    1W        W51365  25.946  13.850   7.781  0.0601  0.1779 -0.3605
    1W        W51366   1.460  28.625   8.552  0.1506  0.2162 -0.0177
    1W        W51367  12.239  17.957   6.908 -0.0222 -0.2603  0.0690
    1W        W51368  13.514  10.915   3.017  0.1421  0.0997 -0.2641
    1W        W51369  12.895  21.225   2.508  0.3341  0.0536  0.2677
    1W        W51370   4.305   0.720   7.606  0.1168 -0.1771  0.0445
    1W        W51371  19.354  17.196   7.208 -0.1423  0.0525  0.0459
    1W        W51372  10.397  25.775   7.117 -0.0499  0.0751 -0.0772
    1W        W51373  17.874  18.417   7.342  0.0688 -0.0783  0.2903
    1W        W51374   9.952  13.661   8.798  0.0163  0.1759  0.0692
    1W        W51375  14.853   7.905   1.302 -0.0672  0.0620  0.2198
    1W        W51376   6.141   1.430   7.795 -0.0693 -0.1054 -0.1560
    1W        W51377  18.781  24.951   8.937  0.1215 -0.2033  0.1481
    1W        W51378  23.200  14.433   8.512  0.2396 -0.0004  0.2093
    1W        W51379  11.914  29.518   8.157  0.1221  0.1778 -0.1883
    1W        W51380   8.387  26.870   2.759 -0.2435  0.1173  0.1544
    1W        W51381  19.481  15.705   6.724 -0.5603 -0.1604 -0.2704
    1W        W51382  28.108  17.161   7.390 -0.0954 -0.1555  0.2287
    1W        W51383  20.639   2.935   7.086  0.1291 -0.0524  0.0568
    1W        W51384  29.603   5.618   1.863  0.1467  0.0416  0.3430
    1W        W51385  13.069  13.032   9.458  0.1149  0.0081 -0.2023
    1W        W51386  24.310  26.981   2.947  0.0070 -0.0036  0.0413
    1W        W51387  14.048  15.644   7.580 -0.0213 -0.1363  0.3198
    1W        W51388   6.602  29.336   0.749  0.0696 -0.1329  0.2941
    1W        W51389   4.463  11.967   2.654 -0.0035  0.0591 -0.0332
    1W        W51390   7.509   2.085   8.069  0.4339  0.4515 -0.1439
    1W        W51391   5.776  22.779   0.825  0.1057  0.2511  0.2391
    1W        W51392  27.900  29.691   0.576  0.0892 -0.0308  0.2577
    1W        W51393   2.924   6.379   0.258  0.3166 -0.0262 -0.3075
    1W        W51394  11.030   7.239   2.166  0.1222  0.1169 -0.2828
    1W        W51395  16.460   4.914   2.724  0.0990  0.1448  0.1290
    1W        W51396  20.423  28.419   1.543 -0.1582  0.0273 -0.1781
    1W        W51397   3.492  28.987   3.375  0.4017 -0.0174 -0.1031
    1W        W51398  21.725  16.824   5.944  0.1315 -0.0452  0.2413
    1W        W51399   3.509  25.791   0.365  0.3042  0.5401 -0.0983
    1W        W51400  23.372   6.099   0.468  0.3652 -0.0887  0.0931
    1W        W51401  20.989  21.902   9.145  0.0452  0.0694  0.2424
    1W        W51402  13.511  12.385   6.414  0.0173 -0.4885  0.1205
    1W        W51403   4.178   8.963   8.936 -0.1235 -0.1292 -0.0240
    1W        W51404  12.460  19.719   6.365 -0.0076 -0.2756  0.1153
    1W        W51405  28.860  12.977   6.616 -0.0325 -0.1783 -0.0583
    1W        W51406   1.918  18.078   7.818 -0.0835 -0.2519  0.0869
    1W        W51407  10.031   7.497   1.303  0.3364 -0.1577  0.2283
    1W        W51408  29.264   3.261   0.739 -0.1830 -0.4720 -0.1524
    1W        W51409  18.591  20.452   8.376 -0.0863 -0.0580 -0.1024
    1W        W51410   1.271  22.098   1.779  0.0133  0.0965  0.1678
    1W        W51411  18.446  24.646   0.980  0.1427  0.1226  0.1530
    1W        W51412   9.000  22.282   7.463 -0.1535 -0.0286  0.0276
    1W        W51413  10.139   1.918   0.439  0.1531  0.0558 -0.0481
    1W        W51414  29.295  12.763   6.660 -0.0045 -0.1486  0.0447
    1W        W51415  22.755   5.668   8.004  0.2476  0.0488  0.0464
    1W        W51416   0.476  26.520   0.871  0.0123  0.4782 -0.0815
    1W        W51417  28.903   0.130   1.155  0.1015  0.1260  0.0577
    1W        W51418  25.080   1.899   7.835 -0.0001  0.0262  0.2262
    1W        W51419  27.934   6.461   2.024  0.0761  0.1781  0.2682
    1W        W51420   5.740   0.376   8.136 -0.0022  0.0067  0.0336
    1W        W51421  18.316  26.377   9.369 -0.1668 -0.0076  0.0834
    1W        W51422   0.170   0.758   1.180 -0.0838  0.1889 -0.2552
    1W        W51423  11.509   8.376   1.848  0.3689 -0.1975 -0.1264
    1W        W51424   4.397   2.739   9.482  0.0016 -0.1959  0.0505
    1W        W51425   4.345   1.026   6.621 -0.1772  0.0296  0.0240
    1W        W51426   6.452   8.783   7.476 -0.1677  0.1002 -0.4444
    1W        W51427  16.829   1.721   2.501  0.0374 -0.2801  0.0386
    1W        W51428   9.926   7.022   2.602  0.1076 -0.0827 -0.2303
    1W        W51429  24.482   3.520   7.602 -0.1430 -0.0289 -0.1029
    1W        W51430  13.335   8.278   6.416  0.0704 -0.0476 -0.2069
    1W        W51431  25.615  27.690   1.683  0.0872  0.2484  0.0362
    1W        W51432   6.195   5.705   8.901  0.3150  0.0271 -0.1070
    1W        W51433  28.059   7.946   8.620  0.1078  0.3387  0.0056
    1W        W51434  13.867   2.518   7.322  0.0060 -0.1320  0.4222
    1W        W51435   0.047  11.972   1.954 -0.1735  0.3416  0.3320
    1W        W51436  20.050   8.226   7.591  0.0705 -0.1478  0.0794
    1W        W51437  15.176   4.387   2.511  0.0669 -0.1321  0.1838
    1W        W51438   1.139  25.590   0.345 -0.0756  0.1471  0.2988
    1W        W51439  12.404  12.300   2.226 -0.1154 -0.0162  0.1108
    1W        W51440  11.294  13.084   1.425 -0.1928  0.1980 -0.0608
    1W        W51441   4.864   3.526   8.965  0.1345  0.1290  0.0996
    1W        W51442  16.828  12.019   1.092 -0.1339  0.0445  0.1352
    1W        W51443  10.067  27.507   6.613 -0.1595 -0.0365  0.0469
    1W        W51444  21.129   5.372   0.033 -0.1908 -0.2689 -0.0802
    1W        W51445   0.324  22.081   7.381  0.1984  0.0783  0.0098
    1W        W51446   2.296  18.868   2.190  0.5859  0.2110  0.0747
    1W        W51447   9.722  26.741   9.039 -0.3250 -0.0610 -0.1747
    1W        W51448   7.812   1.587   1.633 -0.1848 -0.3292  0.0713
    1W        W51449   1.394  25.832   8.243  0.1598  0.0303  0.1190
    1W        W51450   2.841  23.446   0.951 -0.4431  0.0516  0.0785
    1W        W51451  27.241   8.608   2.023  0.4548  0.2571  0.0380
    1W        W51452  22.979  12.824   0.463  0.2515  0.3484 -0.2826
    1W        W51453   1.985  14.832   6.896  0.2104  0.1041  0.0809
    1W        W51454  27.054  26.562   7.241 -0.1829  0.0363 -0.0301
    1W        W51455  26.986   8.313   2.370  0.1745  0.0094  0.2301
    1W        W51456   8.840  13.358   0.865  0.2033 -0.1165  0.1752
    1W        W51457  10.692  19.126   7.887 -0.0110  0.1046 -0.0400
    1W        W51458   9.260  11.405   8.512 -0.0457  0.1092 -0.0683
    1W        W51459   3.324  10.970   1.673  0.3069 -0.0112 -0.0383
    1W        W51460   1.032   0.000   7.591 -0.1670  0.2236 -0.1552
    1W        W51461   1.509  26.812   2.259  0.2307  0.1169 -0.0074
    1W        W51462   3.539   8.112   0.252 -0.0329 -0.4194  0.0164
    1W        W51463   3.036  25.215   2.529  0.1333  0.0747  0.0085
    1W        W51464  22.491  15.097   6.468  0.1490  0.0256 -0.0254
    1W        W51465  26.225  15.826   0.018 -0.2213  0.0316 -0.0706
    1W        W51466   9.468   0.534   1.050 -0.0130  0.0424 -0.1049
    1W        W51467   2.310  16.075   2.166  0.0863 -0.4433 -0.0325
    1W        W51468   2.409  11.979   2.250 -0.3064  0.1595 -0.0743
    1W        W51469   9.586  21.335   2.415  0.0643 -0.1712 -0.1573
    1W        W51470  12.778  13.492   3.086  0.0871  0.1036  0.1818
    1W        W51471  13.071   7.452   3.319  0.3781 -0.2396  0.4735
    1W        W51472   5.350  16.406   8.633  0.0769  0.3844 -0.0385
    1W        W51473  11.274   4.645   3.332  0.1686 -0.0602 -0.0527
    1W        W51474  14.327  12.285   6.944  0.0366 -0.0612 -0.2911
    1W        W51475  16.868   6.998   3.533  0.0180 -0.3169 -0.1859
    1W        W51476  22.651   4.787   7.362  0.3789  0.0718 -0.0511
    1W        W51477   3.378  13.318   6.643 -0.0175  0.1319 -0.2081
    1W        W51478  11.083   2.042   0.315 -0.2418 -0.1982 -0.0210
    1W        W51479   7.739  29.515   1.068 -0.0700  0.3247 -0.0710
    1W        W51480  22.758  15.499   6.326  0.1968  0.2141  0.1600
    1W        W51481  15.872  22.539   8.090  0.1668 -0.1813 -0.0522
    1W        W51482   3.788  24.841   7.785  0.2003 -0.2140 -0.0302
    1W        W51483  15.643  15.982   1.292 -0.2906 -0.0714 -0.1615
    1W        W51484  14.034   8.851   9.465  0.0031 -0.0228 -0.0672
    1W        W51485  20.353   8.640   7.865 -0.2020 -0.2971  0.1220
    1W        W51486  14.571  19.239   1.075  0.2259  0.3678  0.2878
    1W        W51487   8.959  27.814   3.191  0.4417 -0.2709 -0.0231
    1W        W51488   0.061   2.601   2.228  0.1041  0.1223 -0.0321
    1W        W51489   0.254   5.459   8.560 -0.1107 -0.2681 -0.0811
    1W        W51490  12.963  22.633   8.082 -0.0061  0.2690  0.1354
    1W        W51491  16.723   7.764   2.938 -0.2289 -0.3233 -0.0716
    1W        W51492   6.724  10.244   2.118 -0.1045 -0.0183 -0.0986
    1W        W51493  22.193   1.877   3.789  0.0161  0.3900 -0.1446
    1W        W51494  25.254   0.206   8.108 -0.1414  0.1447  0.0038
    1W        W51495   7.079  21.556   1.049 -0.0294  0.1356  0.2663
    1W        W51496  21.789  17.687   7.247  0.2722  0.0294 -0.0768
    1W        W51497  20.874  11.393   8.652 -0.0330 -0.1853  0.0728
    1W        W51498  11.489  14.970   1.700  0.0113 -0.0944 -0.0595
    1W        W51499  26.185  26.883   8.862  0.2335 -0.0974  0.4510
    1W        W51500   3.716  25.505   0.016  0.1073  0.2402 -0.2372
    1W        W51501   3.566  13.775   0.050  0.0192 -0.0703  0.4035
    1W        W51502   4.512  21.844   9.004  0.4440 -0.0480  0.1069
    1W        W51503  25.221   2.095   1.383 -0.2878 -0.0778  0.0338
    1W        W51504   3.942   2.450   6.862 -0.2473  0.0879  0.1466
    1W        W51505  14.401  19.508   0.664 -0.1744  0.1709  0.1448
    1W        W51506  21.737  12.176   9.467  0.1805 -0.1590  0.2756
    1W        W51507  23.828  12.308   6.267 -0.0558 -0.1954 -0.1450
    1W        W51508  15.888  18.535   0.769  0.1593  0.1966  0.1776
    1W        W51509   3.694  22.752   0.807  0.2712  0.1822  0.2033
    1W        W51510   2.683  10.433   7.737  0.2536  0.1087 -0.0381
    1W        W51511   3.005   7.671   9.455  0.1299  0.1667  0.2114
    1W        W51512  23.070  21.613   1.061 -0.0145 -0.1186 -0.3278
    1W        W51513   0.899   0.546   7.737 -0.2559 -0.1932  0.1705
    1W        W51514  27.509   1.298   3.284 -0.1765  0.1599  0.3012
    1W        W51515  17.311   8.499   0.989 -0.0891 -0.1113 -0.4074
    1W        W51516  10.871   0.910   2.011 -0.1542 -0.6929  0.2244
    1W        W51517   2.460  12.495   0.883 -0.1744  0.0964 -0.1011
    1W        W51518  21.775   5.156   0.197  0.1989  0.1917  0.1570
    1W        W51519   8.100  11.301   8.957 -0.1718  0.3736  0.2429
    1W        W51520  28.867  27.427   7.015  0.0917  0.0178  0.1013
    1W        W51521  13.003  28.579   8.759 -0.1960  0.1088 -0.0751
    1W        W51522   5.872   6.369   7.725 -0.4185  0.1046  0.0626
    1W        W51523   7.923  23.877   7.195 -0.1056  0.2579 -0.2228
    1W        W51524   3.578  20.696   0.198  0.0911 -0.0720  0.0465
    1W        W51525   5.767  27.441   5.939 -0.1032 -0.1680  0.1228
    1W        W51526  10.109  29.617   8.887 -0.0833  0.1002 -0.4330
    1W        W51527  20.083  12.497   1.146  0.1581 -0.1987 -0.0504
    1W        W51528   1.195  22.201   7.317  0.1505 -0.2468  0.0209
    1W        W51529   5.574  23.885   8.521  0.0963 -0.0683 -0.1550
    1W        W51530  17.937  16.497   8.629  0.1018 -0.1363 -0.0777
    1W        W51531   7.132  26.807   0.522 -0.3888  0.2748  0.1137
    1W        W51532  14.768  21.447   2.601  0.0054 -0.0434  0.1628
    1W        W51533  10.019   2.956   7.365  0.2156  0.1454  0.0424
    1W        W51534   3.992   0.994   2.270 -0.2165  0.0520 -0.0891
    1W        W51535   2.232   0.529   1.474 -0.0973 -0.0796  0.5805
    1W        W51536  13.240  19.931   1.770  0.0261 -0.0531  0.3116
    1W        W51537  11.275   6.107   8.824 -0.1628  0.2315  0.1585
    1W        W51538  23.347   9.362   8.073 -0.0438  0.1578 -0.2017
    1W        W51539  11.691   0.391   2.467  0.3475  0.0168  0.1657
    1W        W51540   3.330   6.441   8.468  0.1277  0.1376 -0.1421
    1W        W51541  25.024   8.740   6.778 -0.0714 -0.1896  0.1205
    1W        W51542   5.577  21.401   1.032  0.0334 -0.1454  0.2001
    1W        W51543   5.066  27.154   8.971  0.3703  0.2628 -0.3640
    1W        W51544  20.729  16.949   7.437  0.0828 -0.0825  0.1873
    1W        W51545   7.662  10.330   2.524 -0.0346 -0.0396  0.1583
    1W        W51546  22.520   5.720   8.812 -0.2053 -0.0374  0.1182
    1W        W51547   5.977  28.779   1.700 -0.1645 -0.3600 -0.2572
    1W        W51548   6.851   3.226   2.262 -0.2207  0.0242  0.5862
    1W        W51549  27.730  18.011   7.800 -0.2288  0.1176  0.0250
    1W        W51550  28.207   8.641   2.954  0.3049  0.0162  0.2228
    1W        W51551   0.773  29.121   6.439 -0.2725 -0.1805 -0.0116
    1W        W51552   3.259  12.633   1.962  0.0850 -0.1667  0.2790
    1W        W51553  23.232  21.690   6.396 -0.1902  0.1737  0.1393
    1W        W51554   3.768   5.121   8.711  0.1104 -0.0152 -0.0561
    1W        W51555   8.103   2.604   8.469 -0.2310 -0.0700  0.0282
    1W        W51556  22.540   6.139   3.680 -0.0323  0.0193  0.2742
    1W        W51557  23.564   0.692   2.665 -0.3223 -0.0650  0.3560
    1W        W51558   5.385  27.067   7.138  0.2810 -0.0404 -0.2088
    1W        W51559  13.223  25.035   6.623 -0.1523 -0.4630  0.0790
    1W        W51560   9.179  15.181   8.928  0.0304  0.0269  0.1274
    1W        W51561  24.676  15.029   1.038  0.0588 -0.3745 -0.0298
    1W        W51562   6.783  16.806   8.935  0.1252  0.2504 -0.0700
    1W        W51563   7.006   3.721   2.576  0.1661  0.1724  0.0017
    1W        W51564  27.229  23.563   0.551 -0.1575  0.0879  0.2716
    1W        W51565  28.168  10.866   9.130  0.1917 -0.1001 -0.1371
    1W        W51566  26.557  15.258   1.341 -0.0327  0.2297  0.1309
    1W        W51567   8.287   8.739   8.618  0.0131 -0.2241 -0.0465
    1W        W51568  23.369  12.364   7.289 -0.0851  0.1844  0.2173
    1W        W51569   9.872  17.425   0.866 -0.2153 -0.0819 -0.0050
    1W        W51570   7.490  12.591   1.695  0.4457 -0.0549  0.2237
    1W        W51571   6.134  21.090   2.983  0.2588  0.0094  0.0998
    1W        W51572   0.504  13.860   8.391 -0.0305  0.0995 -0.0336
    1W        W51573  20.964  22.240   1.606  0.2884 -0.0239 -0.1959
    1W        W51574   7.457   3.786   6.919 -0.1428 -0.1200  0.0152
    1W        W51575   6.821  28.847   2.157  0.2133  0.3697 -0.1620
    1W        W51576  10.629   0.492   3.871  0.0812  0.0660  0.0100
    1W        W51577   1.499  10.533   1.199  0.1049 -0.0167  0.0178
    1W        W51578  12.734  24.751   2.700  0.0282 -0.2778 -0.1180
    1W        W51579   1.937  24.796   7.343  0.0229  0.0532 -0.0188
    1W        W51580  10.476   7.301   7.832  0.0582 -0.0852  0.0844
    1W        W51581  13.984  16.674   2.469 -0.0078 -0.3752 -0.0180
    1W        W51582  14.087  10.354   2.367 -0.1640 -0.0891 -0.1427
    1W        W51583   9.969  20.162   8.017 -0.0770 -0.0163  0.2189
    1W        W51584  16.120  25.352   7.475 -0.0753  0.1474 -0.1663
    1W        W51585  14.093  11.358   9.205  0.1278 -0.0545  0.1549
    1W        W51586  16.471  26.567   8.211  0.0195  0.1213  0.2670
    1W        W51587  16.083  15.526   7.304 -0.1482 -0.0174 -0.0002
    1W        W51588  25.957  28.392   2.883  0.1314  0.0200 -0.0272
    1W        W51589  15.844   8.922   3.919 -0.2315  0.2093  0.0704
    1W        W51590  17.030   4.441   0.512 -0.1526  0.0730  0.0948
    1W        W51591   3.638   3.482   2.010 -0.1045 -0.1956  0.0700
    1W        W51592  27.932   3.791   8.735  0.2943  0.0018  0.5945
    1W        W51593   9.840  11.810   0.214  0.0888  0.0722  0.3058
    1W        W51594  25.701   6.609   0.349 -0.1635 -0.0187  0.2850
    1W        W51595   4.017   6.537   2.158 -0.0192  0.0838 -0.3415
    1W        W51596  20.061  12.510   0.475 -0.0388  0.1421  0.1227
    1W        W51597   0.648  17.353   7.419 -0.1485 -0.3793 -0.0678
    1W        W51598   1.359  17.422   7.019 -0.0431 -0.1493  0.0224
    1W        W51599  18.806  12.982   0.623 -0.1273  0.4191 -0.1630
    1W        W51600   0.700   7.431   2.576 -0.0724  0.1141 -0.0940
    1W        W51601  22.652   4.533   8.596 -0.0932 -0.0019 -0.2437
    1W        W51602  25.223   4.723   2.876 -0.2543  0.1488  0.0585
    1W        W51603  24.773  21.120   0.242  0.0840 -0.0843 -0.1645
    1W        W51604   6.564   4.105   7.588 -0.1011  0.0654 -0.2569
    1W        W51605  12.615  19.958   8.534  0.3414  0.2501 -0.1551
    1W        W51606  20.261   1.300   9.536 -0.1793  0.2037  0.2932
    1W        W51607   1.095   6.132   7.512  0.3227  0.0331 -0.1228
    1W        W51608  12.597  22.749   0.099 -0.0332  0.1913 -0.0993
    1W        W51609   5.143   1.069   7.499  0.2235  0.3606  0.0652
    1W        W51610  20.407  17.345   0.948 -0.3393  0.2810 -0.0975
    1W        W51611   3.951  25.992   6.674 -0.3291 -0.0155 -0.3323
    1W        W51612  25.666  19.883   8.525  0.1113  0.0109  0.0393
    1W        W51613  18.284  17.752   2.424 -0.0458  0.1762  0.0208
    1W        W51614  25.205  25.892   2.380 -0.0263 -0.2260 -0.1392
    1W        W51615  25.465   3.935   2.139  0.0196  0.0316  0.0916
    1W        W51616  11.923  10.604   2.460  0.1343  0.1541  0.1185
    1W        W51617   4.442   0.213   2.141 -0.0283 -0.2489  0.3019
    1W        W51618  12.014  16.578   0.366 -0.1415  0.1081 -0.0334
    1W        W51619  15.327  10.482   8.635 -0.4599 -0.0090  0.1996
    1W        W51620   9.302  22.637   7.899  0.1272  0.0358 -0.0811
    1W        W51621  27.979   2.122   8.733 -0.4150 -0.3079 -0.1527
    1W        W51622  29.333  11.305   6.838  0.2410  0.0679 -0.0246
    1W        W51623  15.992   6.956   8.369 -0.0061  0.0606  0.4273
    1W        W51624  28.585   2.112   2.887 -0.2095  0.0695  0.2134
    1W        W51625  11.988   8.820   7.371 -0.1429  0.0253 -0.4589
    1W        W51626  26.537   3.019   0.465  0.0562  0.2545  0.2001
    1W        W51627   9.431  19.367   2.423 -0.0307 -0.3058 -0.4216
    1W        W51628  26.247   0.348   7.756  0.1388 -0.1234 -0.3874
    1W        W51629  20.011  17.935   6.344  0.1378 -0.0340  0.1807
    1W        W51630  20.164  21.281   7.806  0.1022 -0.1385 -0.0850
    1W        W51631  19.417  23.235   1.119  0.2824  0.1932  0.2343
    1W        W51632   2.095   5.026   6.782 -0.1421 -0.1460 -0.0978
    1W        W51633  19.233  11.260   6.370  0.1381  0.0783 -0.0831
    1W        W51634  20.900  28.638   2.261  0.2263  0.4860  0.2746
    1W        W51635  11.707  12.156   1.671 -0.2292  0.0251  0.1102
    1W        W51636   7.685  12.232   8.910  0.2131  0.1352 -0.3401
    1W        W51637  19.367  19.436   8.902 -0.2188 -0.2036 -0.0912
    1W        W51638  28.092  26.558   1.638 -0.2782 -0.1639 -0.1950
    1W        W51639   3.311  27.140   0.964  0.2523 -0.1260 -0.0513
    1W        W51640   1.325  20.802   8.244  0.3163 -0.0547 -0.3960
    1W        W51641  16.883  22.198   2.796 -0.3311 -0.1769 -0.1868
    1W        W51642   2.916  11.869   7.656 -0.0599  0.1889  0.2734
    1W        W51643  20.011   2.205   7.361  0.0533 -0.0860  0.0495
    1W        W51644  24.409  21.296   6.255  0.0354 -0.0856  0.0709
    1W        W51645   7.336  10.672   9.041 -0.0218 -0.1312  0.0286
    1W        W51646  19.983  20.312   2.458 -0.0094 -0.2676 -0.1024
    1W        W51647  21.359   5.427   2.931 -0.0191  0.3233 -0.1925
    1W        W51648   6.953   4.980   2.568  0.0191  0.2560 -0.0464
    1W        W51649  20.357  26.779   7.747  0.1179 -0.0829 -0.0709
    1W        W51650  27.080  13.410   1.701  0.0233 -0.1007  0.1739
    1W        W51651  15.696  24.588   1.379  0.1131  0.0141 -0.0235
    1W        W51652  19.006  19.542   1.417  0.1344  0.0521  0.3316
    1W        W51653  15.210  19.925   9.262  0.3313  0.1276 -0.2674
    1W        W51654  11.702  19.877   7.008 -0.0225  0.2055 -0.3996
    1W        W51655   4.170  21.547   7.721 -0.0378  0.2730 -0.0848
    1W        W51656   8.380  22.665   0.160 -0.1851 -0.0149  0.3183
    1W        W51657  28.958  11.392   8.462 -0.0580  0.1126  0.1068
    1W        W51658  14.865  23.763   3.030  0.1225  0.0254 -0.0272
    1W        W51659  29.138   1.707   7.273  0.1876 -0.1827 -0.0685
    1W        W51660  20.844  11.530   1.233 -0.0654 -0.0350 -0.5187
    1W        W51661  20.001  21.815   5.815 -0.0815 -0.1395  0.1314
    1W        W51662   8.567  13.124   0.500  0.0628  0.1225 -0.3111
    1W        W51663   1.974   5.469   1.721  0.0869 -0.0533 -0.1067
    1W        W51664  13.851   0.798   8.174 -0.1274 -0.0885 -0.0394
    1W        W51665  20.050  12.204   8.161 -0.0475 -0.2351  0.0575
    1W        W51666  18.517  25.917   7.792 -0.2451  0.0823 -0.0378
    1W        W51667  11.983  19.485   8.250 -0.0495 -0.0992  0.0912
    1W        W51668   9.292  24.815   1.168 -0.0729 -0.0156 -0.0777
    1W        W51669  21.113  21.285   7.317 -0.2647 -0.2016  0.0046
    1W        W51670   4.419  19.775   7.612  0.1889 -0.2043  0.1471
    1W        W51671  24.270  22.175   7.854 -0.0306 -0.1482 -0.0983
    1W        W51672   7.521   4.308   2.440  0.0824 -0.0043  0.0490
    1W        W51673   9.021   7.245   9.064  0.0017 -0.1205  0.0504
    1W        W51674   7.156   6.713   1.164 -0.0285  0.0822  0.0355
    1W        W51675  14.488  20.340   9.175  0.1397  0.0205  0.1766
    1W        W51676  28.680  18.472   8.971 -0.3705 -0.1183 -0.1524
    1W        W51677  14.962   5.791   0.197 -0.3553  0.0357 -0.0290
    1W        W51678  21.450  25.264   8.452 -0.0334  0.2634 -0.0497
    1W        W51679  16.585  18.575   7.319 -0.2368 -0.0724  0.1487
    1W        W51680  13.800   8.942   8.556  0.0196 -0.0142  0.1529
    1W        W51681  12.111  17.898   7.875  0.1035 -0.1496 -0.0151
    1W        W51682  28.977  16.783   0.091  0.0439 -0.0939 -0.1286
    1W        W51683  18.767  20.111   6.383  0.5053  0.2364  0.3580
    1W        W51684  28.695  10.039   7.018  0.0416  0.4182  0.3281
    1W        W51685   4.124  14.345   0.267  0.1553 -0.0761 -0.1886
    1W        W51686   2.247   5.976   0.922  0.0433  0.0294  0.1010
    1W        W51687  11.269  11.517   8.478 -0.4185  0.1044 -0.2016
    1W        W51688   0.566  13.454   6.591 -0.0112 -0.0993  0.0550
    1W        W51689  21.528  29.511   0.335  0.2442 -0.1829  0.3005
    1W        W51690  13.745   9.425   0.360  0.4025 -0.1166 -0.0730
    1W        W51691  13.734  12.808   7.038  0.0970  0.1615  0.0601
    1W        W51692  14.408   0.298   1.840 -0.2767 -0.1831 -0.1418
    1W        W51693   0.682   3.598   6.437  0.4049  0.0416 -0.1425
    1W        W51694   0.517  19.446   1.326 -0.4980 -0.0019  0.0082
    1W        W51695  24.712   9.511   1.738 -0.1189 -0.1050 -0.0279
    1W        W51696   1.391   7.510   1.687 -0.0930  0.0790 -0.0071
    1W        W51697   3.699   8.730   7.432  0.0630  0.4467  0.2076
    1W        W51698  16.365  24.596   2.314  0.4158  0.1563 -0.1565
    1W        W51699  28.232  21.917   7.325  0.0015  0.0425 -0.1216
    1W        W51700  20.878  24.191   6.548  0.0497  0.0762 -0.0870
    1W        W51701  11.364  27.184   8.271  0.3369  0.1940  0.1135
    1W        W51702  20.867  18.030   1.197  0.0857 -0.2783  0.2720
    1W        W51703  20.259   1.099   8.536  0.1609  0.1330  0.0358
    1W        W51704   7.908  20.411   8.550  0.1328 -0.1738 -0.1540
    1W        W51705  18.219   9.158   2.530 -0.1264  0.2348  0.0505
    1W        W51706   1.951   2.194   0.318  0.2396 -0.0426  0.1375
    1W        W51707  11.931  12.450   2.093 -0.0847  0.0366  0.0660
    1W        W51708  25.080  13.044   7.078  0.3885  0.0542  0.1145
    1W        W51709   4.178  24.156   3.427  0.0080  0.1717  0.1199
    1W        W51710   6.877   8.024   0.630  0.0928 -0.2417 -0.0487
    1W        W51711  26.361  13.402   6.971 -0.1458 -0.2015  0.1950
    1W        W51712  10.988   0.711   8.451 -0.3104 -0.3273  0.0801
    1W        W51713  23.433  14.792   8.118  0.2890  0.1811 -0.0843
    1W        W51714   9.817  26.268   0.804  0.0103 -0.0987 -0.2743
    1W        W51715  11.968  25.516   7.883  0.0694 -0.0488  0.1391
    1W        W51716  19.806  17.827   8.910  0.0840  0.1699 -0.1923
    1W        W51717  26.997   8.127   7.175  0.1875  0.0158 -0.5282
    1W        W51718   8.976   7.878   2.144  0.1572 -0.0666 -0.0163
    1W        W51719  19.681  20.374   8.390 -0.3225 -0.0780  0.1020
    1W        W51720   0.525  16.496   9.351  0.4452  0.4057  0.1016
    1W        W51721  29.729  27.983   9.286  0.0551 -0.2140  0.0242
    1W        W51722  16.233  17.413   7.657 -0.0741  0.1327 -0.2552
    1W        W51723   0.295   8.833   7.413 -0.0836 -0.4161  0.1129
    1W        W51724   4.574  16.186   9.549 -0.2746 -0.1291 -0.2607
    1W        W51725  23.593   2.011   8.525  0.1169  0.0047  0.1049
    1W        W51726   8.711   8.757   7.838  0.1054 -0.0144 -0.2611
    1W        W51727  15.878  29.208   2.210  0.1058  0.1020  0.2351
    1W        W51728  26.684   9.758   6.459  0.0703 -0.1107  0.1205
    1W        W51729  13.099  14.818   9.140 -0.1700 -0.0403 -0.0915
    1W        W51730   5.491  19.728   8.374 -0.0033 -0.0218  0.0101
    1W        W51731   0.798  13.078   7.919 -0.0612  0.1626 -0.0352
    1W        W51732  25.548  29.686   7.866 -0.0038  0.1096  0.2432
    1W        W51733  24.334   3.313   2.741 -0.0713  0.2463  0.0941
    1W        W51734  14.606  27.576   8.690  0.0505 -0.1701 -0.3035
    1W        W51735  12.198  14.331   9.079  0.0147  0.1376  0.4298
    1W        W51736   5.925  19.190   7.846 -0.2370 -0.0423 -0.0120
    1W        W51737  17.604  15.046   9.411 -0.0755  0.0929  0.2938
    1W        W51738   9.407   5.549   8.265  0.0475 -0.1408  0.2375
    1W        W51739   2.075  27.167   3.269  0.2840  0.0778 -0.1460
    1W        W51740   2.994  28.660   8.845 -0.2788 -0.0749  0.1082
    1W        W51741  26.983   5.312   9.043  0.0772  0.1261  0.1173
    1W        W51742  13.492   4.327   8.225  0.0237  0.3150  0.0589
    1W        W51743  21.447  26.786   7.771 -0.0845 -0.2532 -0.3756
    1W        W51744  15.841  23.279   8.792  0.1502  0.0948  0.1624
    1W        W51745  16.918   7.362   7.166 -0.0848 -0.3984  0.1574
    1W        W51746  26.439   0.272   1.398  0.1457  0.2446 -0.3018
    1W        W51747   3.007   9.453   1.765 -0.0317  0.1615  0.0889
    1W        W51748  10.561   5.272   8.896 -0.3620  0.4214  0.1005
    1W        W51749   9.183   1.251   8.557 -0.0696 -0.0113  0.0915
    1W        W51750   3.059  27.613   1.524  0.0472 -0.0807  0.0930
    1W        W51751   8.259  19.758   2.380 -0.2040 -0.2785 -0.0979
    1W        W51752  11.081  28.541   2.700  0.0025 -0.3331  0.1335
    1W        W51753  29.187  18.599   9.282 -0.1146  0.1844  0.0479
    1W        W51754  13.484  18.731   7.510  0.1447 -0.2143  0.0030
    1W        W51755  23.153   4.126   8.518 -0.1839 -0.3350 -0.3656
    1W        W51756  11.745   2.245   1.837 -0.0220 -0.2836 -0.2771
    1W        W51757  28.814   8.152   8.101  0.0281 -0.1780  0.0329
    1W        W51758  12.958  19.474   2.167 -0.1703  0.1600 -0.1043
    1W        W51759  19.849  25.527   7.776 -0.2779 -0.1329 -0.4007
    1W        W51760  21.844  11.766   0.191  0.0648  0.0785 -0.0424
    1W        W51761  10.318   6.232   6.762 -0.2429  0.0748 -0.0370
    1W        W51762   8.583   1.303   8.449  0.1662 -0.0050 -0.1577
    1W        W51763  13.675  28.531   0.920 -0.1573 -0.1540 -0.2993
    1W        W51764  24.670  17.533   7.734  0.2689  0.0815 -0.0008
    1W        W51765   7.249  25.595   1.041 -0.1445 -0.1191  0.2592
    1W        W51766   0.197   7.901   6.905 -0.0629  0.0685 -0.0004
    1W        W51767  21.525  13.819   1.755  0.0145  0.0856  0.0403
    1W        W51768  22.024  25.539   3.345  0.1097  0.4605 -0.3201
    1W        W51769  11.464  20.770   7.928 -0.2087 -0.1829  0.3412
    1W        W51770  13.029  22.829   2.851 -0.1881 -0.0893  0.1525
    1W        W51771   4.771  29.230   1.747 -0.2310 -0.3365 -0.0452
    1W        W51772  26.904  27.016   7.524 -0.0681 -0.2860  0.2238
    1W        W51773  24.530  27.385   7.848 -0.0327  0.1687  0.3002
    1W        W51774  19.210  15.603   9.242 -0.0845  0.1549 -0.0015
    1W        W51775  29.522  10.460   2.163  0.1724  0.0004 -0.0366
    1W        W51776  24.374  25.733   8.915 -0.0140  0.2014 -0.3219
    1W        W51777   5.476  13.837   7.420  0.0200  0.0860 -0.2723
    1W        W51778  26.510  16.194   8.861 -0.1844  0.2350 -0.1127
    1W        W51779   6.721  14.097   0.876 -0.0993  0.0818  0.2044
    1W        W51780  22.777  10.401   8.705  0.1458  0.0047  0.0945
    1W        W51781   4.276  25.386   3.524 -0.0666 -0.1503  0.2507
    1W        W51782   1.987   3.372   6.532 -0.0157  0.1237 -0.0026
    1W        W51783  22.948  11.258   0.198 -0.2935  0.4887 -0.3563
    1W        W51784  24.406  28.088   3.034 -0.3459  0.3005  0.0127
    1W        W51785   2.360  16.607   0.235 -0.0091  0.0533  0.0119
    1W        W51786  16.493  22.763   9.263  0.0425 -0.2511  0.2512
    1W        W51787  22.927  27.962   8.119  0.4673  0.0855  0.0346
    1W        W51788   0.615   5.354   2.230 -0.0639  0.1824 -0.0588
    1W        W51789  27.284  21.642   0.886 -0.0359  0.0804 -0.0530
    1W        W51790   2.288   6.488   8.431  0.0484 -0.2871  0.0794
    1W        W51791   0.483  19.068   7.661  0.2547 -0.0378  0.0201
    1W        W51792   0.263  19.147   0.635  0.3421  0.1532 -0.2382
    1W        W51793  19.072  15.432   8.508 -0.0938 -0.2157 -0.0950
    1W        W51794  27.906   2.142   9.271  0.5164 -0.3187  0.1914
    1W        W51795  18.933  19.224   1.789 -0.0889  0.2525  0.0425
    1W        W51796  17.057  29.538   9.330 -0.1303  0.1495 -0.3228
    1W        W51797   1.632  23.884   1.135 -0.0182 -0.0770 -0.0676
    1W        W51798  17.899  15.142   0.826 -0.0142 -0.0277  0.0605
    1W        W51799  16.853   7.191   2.894  0.0868 -0.0925  0.1588
    1W        W51800  12.064  26.966   6.610  0.0388  0.1895  0.0947
    1W        W51801  25.004   0.973   7.437 -0.0183 -0.0215 -0.1001
    1W        W51802  29.721   2.300   0.267  0.0799 -0.4996  0.1521
    1W        W51803  18.678  28.243   1.067  0.1045 -0.1827 -0.0749
    1W        W51804  13.897   2.427   8.689 -0.0585  0.1677  0.1730
    1W        W51805  19.870  11.849   6.640  0.1364  0.0266  0.1257
    1W        W51806   0.100  25.141   6.521 -0.0522 -0.2158  0.1115
    1W        W51807  25.335  29.252   1.238  0.1303 -0.1101  0.1365
    1W        W51808  26.339   2.926   8.238  0.1777  0.2910 -0.0353
    1W        W51809  10.031  25.649   6.818  0.0994 -0.0884  0.2388
    1W        W51810   4.466  13.353   8.053  0.2427 -0.2312  0.3416
    1W        W51811  22.192   9.071   6.418  0.0030  0.3793  0.2404
    1W        W51812   2.706  19.910   7.126 -0.2730 -0.4464 -0.0001
    1W        W51813   1.539  13.086   0.658 -0.0538 -0.0358  0.0999
    1W        W51814  24.114  29.646   7.819 -0.2880  0.0141  0.1841
    1W        W51815  23.951   5.444   7.383 -0.0962 -0.2487 -0.1245
    1W        W51816  15.014  27.334   1.318 -0.3350  0.5451  0.0151
    1W        W51817  14.019  19.553   9.288 -0.0882 -0.0525  0.1577
    1W        W51818  19.851  16.099   0.833 -0.1196 -0.0430 -0.2085
    1W        W51819  25.708   1.070   8.049 -0.0360  0.0901 -0.2074
    1W        W51820   7.925  26.738   0.767 -0.0307  0.2023 -0.0923
    1W        W51821   5.312  19.161   9.006  0.0671 -0.0962  0.2486
    1W        W51822   4.392  16.045   8.631 -0.0751 -0.2965 -0.3018
    1W        W51823  20.493  19.224   9.063  0.0570  0.2326 -0.1057
    1W        W51824  10.912   8.039   2.725 -0.0322 -0.0025  0.0450
    1W        W51825   4.872  20.824   7.723  0.0294 -0.0402  0.0469
    1W        W51826   4.201   3.198   2.591 -0.0702  0.1920 -0.1724
    1W        W51827  10.935   8.637   8.369  0.2171  0.0515 -0.0592
    1W        W51828  19.080  15.561   7.155 -0.0155 -0.5219 -0.1028
    1W        W51829  22.198  22.692   0.129 -0.2163  0.1483  0.2721
    1W        W51830  23.113   8.827   7.230  0.2714  0.1040 -0.1956
    1W        W51831  15.853   3.963   0.126 -0.0739  0.3380  0.0301
    1W        W51832   6.372   3.600   7.453  0.1925 -0.2614 -0.2242
    1W        W51833   0.554   1.637   0.127  0.1514 -0.4339 -0.1998
    1W        W51834  12.940   0.872   1.511  0.0099  0.0609 -0.2338
    1W        W51835  16.966  17.927   0.111  0.0894 -0.3029  0.2878
    1W        W51836  23.991  10.818   6.761  0.1132 -0.1484 -0.0634
    1W        W51837  16.304  24.648   0.005 -0.0701 -0.0649  0.0214
    1W        W51838   0.181  28.677   6.917 -0.0343  0.1967 -0.3079
    1W        W51839   6.122  15.849   7.643  0.0559  0.0151  0.2558
    1W        W51840  12.259  23.677   7.919  0.2992  0.3187 -0.0435
    1W        W51841  12.738  21.321   9.392  0.1073  0.1406  0.0530
    1W        W51842   2.749  24.104   1.625  0.4436 -0.0350 -0.0229
    1W        W51843   5.845  26.682   6.481  0.1523  0.5013  0.0477
    1W        W51844  22.972   2.595   0.583  0.1181 -0.1879 -0.2191
    1W        W51845   9.154  24.597   2.706  0.0496  0.3290  0.0156
    1W        W51846  19.420   1.576   0.336 -0.2124 -0.1447 -0.0205
    1W        W51847  14.634  25.534   9.318 -0.0192 -0.0058  0.1108
    1W        W51848  26.864   9.641   8.924  0.0488 -0.2996  0.3067
    1W        W51849  23.757  21.377   2.070 -0.0969 -0.0087 -0.1349
    1W        W51850  21.343  26.502   3.213  0.0987 -0.1056  0.1497
    1W        W51851   6.200  28.397   7.590  0.0815 -0.0912  0.1925
    1W        W51852   0.862   9.949   2.563  0.3425 -0.1088 -0.2234
    1W        W51853  28.181  27.361   8.156  0.1632 -0.1474 -0.0077
    1W        W51854   6.340  16.375   0.770  0.0242  0.0890  0.2339
    1W        W51855  12.675  25.240   0.401 -0.1373 -0.1810 -0.1863
    1W        W51856  13.447  22.764   7.333  0.2194  0.1464  0.1654
    1W        W51857  24.576   5.610   2.538  0.3814  0.0782 -0.2552
    1W        W51858  12.155  16.898   9.009  0.0352  0.1512 -0.1084
    1W        W51859   6.907   3.830   9.544 -0.4565  0.0024  0.0364
    1W        W51860  25.151  21.422   8.920 -0.0937 -0.1117  0.1583
    1W        W51861  13.176  26.463   0.876 -0.0831 -0.2013 -0.0852
    1W        W51862  24.979   0.335   6.732 -0.3121  0.3765 -0.2204
    1W        W51863  17.214   9.377   2.208 -0.4262 -0.2746  0.1213
    1W        W51864   7.040  11.045   7.520  0.3545  0.0900  0.0069
    1W        W51865  21.085   2.124   2.834 -0.2430  0.0458 -0.1087
    1W        W51866  26.847  18.348   6.877  0.1056 -0.3595 -0.0259
    1W        W51867  27.427  12.000   8.620  0.0348 -0.1118  0.0155
    1W        W51868  13.206  21.492   9.278 -0.1063 -0.3013 -0.5128
    1W        W51869   9.685   4.259   1.389  0.0813  0.1547  0.1261
    1W        W51870  17.063   6.721   1.117  0.1125  0.0846 -0.2781
    1W        W51871  16.194  11.434   1.369  0.0152  0.0237 -0.1567
    1W        W51872  12.489   3.620   1.954  0.1275 -0.0010  0.1076
    1W        W51873  24.069  24.309   6.292  0.5341 -0.2005 -0.0054
    1W        W51874  28.946  26.515   1.757 -0.0415  0.2074 -0.1086
    1W        W51875  11.437   8.655   6.587  0.0954  0.1473  0.1909
    1W        W51876   2.091  17.527   1.313 -0.1779 -0.0454  0.0037
    1W        W51877  12.696  24.726   0.180  0.1174  0.0231  0.0827
    1W        W51878  22.176   0.796   8.412 -0.2829 -0.0683  0.0346
    1W        W51879  16.514   1.963   8.477 -0.2153 -0.3687  0.1030
    1W        W51880   8.465  11.478   8.706  0.3334  0.2199  0.1630
    1W        W51881  18.512  29.160   2.140  0.0457 -0.2723  0.0914
    1W        W51882   2.594  27.361   7.690 -0.1148 -0.2025 -0.2408
    1W        W51883  26.683   3.462   0.564  0.1171 -0.2690 -0.0238
    1W        W51884   8.893  27.665   1.038 -0.0261  0.1003 -0.2269
    1W        W51885  13.001  20.092   2.759 -0.0681 -0.1481 -0.0111
    1W        W51886  16.037  13.005   6.653 -0.2388 -0.1173  0.1786
    1W        W51887  28.186  20.434   8.397  0.1080 -0.2154 -0.0601
    1W        W51888  17.485   3.372   2.382 -0.1716 -0.3200 -0.0912
    1W        W51889  28.387  17.450   1.022  0.5984  0.0411 -0.3189
    1W        W51890   9.275   0.015   1.545  0.0481 -0.0761 -0.2264
    1W        W51891  16.559  11.521   0.974 -0.1244 -0.0691 -0.1413
    1W        W51892  19.135  20.810   6.686  0.1809 -0.1912  0.1049
    1W        W51893  24.312   7.160   7.777 -0.0897  0.0002 -0.1238
    1W        W51894  20.065  10.339   2.839 -0.0169  0.1312  0.0687
    1W        W51895   4.414   3.007   2.082 -0.1809 -0.0018 -0.3898
    1W        W51896  25.175   1.418   0.070 -0.0999  0.1719 -0.0191
    1W        W51897   3.037   0.415   1.699  0.4504 -0.0370 -0.0072
    1W        W51898  27.085  18.608   0.683 -0.2201  0.0152 -0.3838
    1W        W51899   6.038  26.311   0.098 -0.2003  0.1829  0.1424
    1W        W51900  19.011  11.630   0.517 -0.2651 -0.0425  0.0436
    1W        W51901  12.660  12.501   1.431  0.2635 -0.2266  0.0845
    1W        W51902  11.337   8.624   9.507  0.0218  0.2393  0.2028
    1W        W51903  27.149   3.461   1.337  0.0581  0.0649 -0.0920
    1W        W51904  14.353  28.992   1.475  0.0715  0.2119  0.0253
    1W        W51905   2.071  17.004   8.677  0.0341 -0.0656  0.1368
    1W        W51906   1.427  24.277   0.130  0.0892  0.0283 -0.0686
    1W        W51907   0.736  19.338   8.712 -0.0746  0.0032  0.1069
    1W        W51908  16.179   8.043   7.406 -0.0496 -0.0477 -0.1209
    1W        W51909  21.845   8.013   2.730  0.0148 -0.2538  0.2129
    1W        W51910  10.098  14.890   1.892  0.1464  0.0251 -0.1217
    1W        W51911  24.442   2.850   2.958 -0.3375  0.3382 -0.0645
    1W        W51912  29.472  27.544   9.268 -0.1827  0.0447 -0.1689
    1W        W51913  17.474  14.034   7.816 -0.1435 -0.2512  0.3186
    1W        W51914   7.183   4.949   8.743  0.0405 -0.3189 -0.3434
    1W        W51915  15.946   7.116   8.823 -0.0409  0.3535 -0.4103
    1W        W51916  28.017  25.793   0.930  0.2386 -0.1243 -0.0582
    1W        W51917  13.891  28.793   9.521  0.0655 -0.1044  0.1801
    1W        W51918  10.639  27.251   0.437 -0.3011 -0.0341 -0.2271
    1W        W51919  17.860  25.232   1.267 -0.1749 -0.0860 -0.0261
    1W        W51920  17.185   5.305   7.538 -0.0873  0.0997 -0.2007
    1W        W51921   9.664   2.380   2.446  0.1918 -0.2846 -0.1276
    1W        W51922  12.786  13.544   9.528 -0.0406 -0.1294  0.0736
    1W        W51923  18.807  23.273   2.816 -0.0986  0.1936  0.0017
    1W        W51924  21.037  25.733   8.572  0.0714  0.5154 -0.2589
    1W        W51925  12.376   7.431   1.322 -0.0702  0.1780  0.0129
    1W        W51926  24.049  12.432   1.168 -0.1187  0.0062  0.0393
    1W        W51927  16.745  14.503   0.993 -0.2513 -0.0405  0.0005
    1W        W51928  20.149  24.931   0.796 -0.1931 -0.1404  0.0630
    1W        W51929  22.801   4.752   2.011 -0.0563  0.1739  0.3859
    1W        W51930  11.118  11.451   2.166 -0.0327  0.2021  0.4341
    1W        W51931   6.043  10.850   8.175  0.2879  0.2768  0.1729
    1W        W51932  11.311  27.227   7.378  0.0013  0.1286  0.0675
    1W        W51933   0.203  12.188   7.191  0.2353  0.1670  0.1087
    1W        W51934  26.212   1.169   8.029 -0.1120  0.0540  0.0764
    1W        W51935   3.380  22.926   7.633 -0.5076 -0.1528  0.0120
    1W        W51936   9.433  22.190   7.732 -0.2201  0.1744 -0.2348
    1W        W51937   6.500   0.121   8.411  0.0024 -0.0855 -0.0383
    1W        W51938   3.470  16.809   0.397 -0.0218  0.1747  0.0830
    1W        W51939  19.228  25.811   8.413 -0.1662  0.1567 -0.0670
    1W        W51940   0.372  21.733   2.094 -0.2588  0.0346  0.1477
    1W        W51941  25.217  17.730   5.655 -0.1860 -0.1193  0.1598
    1W        W51942   4.722  14.994   0.688 -0.2203  0.3381  0.2691
    1W        W51943  10.297   7.287   0.865  0.0872  0.1180  0.2367
    1W        W51944  13.769  13.349   0.196  0.0029 -0.0069  0.0339
    1W        W51945  25.662   8.663   0.553  0.0521  0.1581  0.0107
    1W        W51946  29.700   9.636   1.902  0.0403  0.0033 -0.0747
    1W        W51947   5.235  15.927   8.907  0.1171  0.1806  0.1182
    1W        W51948  25.368   9.716   5.894  0.0351 -0.2413  0.0356
    1W        W51949  11.911  22.061   0.341 -0.1486  0.0821  0.0029
    1W        W51950   0.569  21.331   1.670 -0.0142  0.1394 -0.3469
    1W        W51951   1.167  24.670   1.111 -0.0395  0.2847 -0.0715
    1W        W51952   2.270   3.287   2.354  0.0235  0.1723  0.1146
    1W        W51953   7.887  15.991   0.835  0.1794 -0.0712  0.1551
    1W        W51954  29.352  15.320   7.609  0.0250  0.0317 -0.1079
    1W        W51955  14.135   0.463   9.011  0.2994  0.2136 -0.1651
    1W        W51956   3.742   7.485   7.419 -0.0514  0.2745 -0.0746
    1W        W51957  18.027  15.683   0.702  0.1925 -0.2032 -0.1304
    1W        W51958  17.122  11.507   8.372  0.2015 -0.3150  0.1774
    1W        W51959  13.488  15.696   9.289 -0.0590 -0.0324 -0.0899
    1W        W51960  18.321  11.558   7.454 -0.3483 -0.2540  0.3358
    1W        W51961   4.252  23.333   7.627 -0.0252  0.1870 -0.0395
    1W        W51962   2.523  18.552   8.931 -0.0789 -0.1760 -0.1007
    1W        W51963  19.833   5.460   1.380 -0.2895  0.2134 -0.0118
    1W        W51964   5.149  19.046   1.447  0.3595 -0.1878  0.0413
    1W        W51965  26.585  25.328   6.665  0.0782  0.0088 -0.0142
    1W        W51966  10.294  22.730   2.579  0.0438 -0.0489  0.1369
    1W        W51967   5.762   3.776   2.863  0.1071  0.0128 -0.1971
    1W        W51968  17.116  18.547   7.435 -0.0386 -0.2245  0.0853
    1W        W51969  18.343  18.714   8.703 -0.0757 -0.3138  0.2623
    1W        W51970   1.375   5.718   0.704  0.0858  0.2834 -0.0897
    1W        W51971  10.362   0.153   3.501 -0.2331 -0.0635 -0.1212
    1W        W51972  14.109  23.895   2.533 -0.0334 -0.1184 -0.0376
    1W        W51973   5.692  13.836   1.877 -0.0067 -0.1203 -0.0307
    1W        W51974   3.830  15.612   6.996  0.0429  0.0499  0.1689
    1W        W51975  13.239  14.360   8.577 -0.4525  0.1448 -0.1323
    1W        W51976  16.869   0.731   0.876 -0.3081  0.2327  0.1058
    1W        W51977  22.825  23.432   9.338 -0.3160 -0.0400  0.1028
    1W        W51978  26.304  18.222   8.095  0.0474 -0.1604  0.0312
    1W        W51979  18.164   5.531   1.240  0.0304 -0.0509  0.1534
    1W        W51980  19.876   8.341   7.118 -0.0896  0.0253 -0.3552
    1W        W51981   9.352  18.388   1.331  0.0202  0.2165  0.0843
    1W        W51982   2.075  10.975   2.127 -0.1751  0.1439 -0.0825
    1W        W51983  21.829  13.340   6.051 -0.2094 -0.0023 -0.2416
    1W        W51984  20.553   3.630   1.838  0.4075 -0.0740 -0.3169
    1W        W51985  20.401  23.970   1.045 -0.0586  0.1035  0.2525
    1W        W51986   5.988  13.276   9.444  0.0563  0.3468 -0.1221
    1W        W51987   4.375  24.819   2.897 -0.2517 -0.1106 -0.1600
    1W        W51988  29.736  17.784   1.966  0.0710  0.0489  0.0250
    1W        W51989   6.851  12.690   8.045  0.1288  0.2734  0.4615
    1W        W51990  21.230  11.112   8.734 -0.0432  0.2992 -0.0731
    1W        W51991  22.305   3.142   2.434 -0.1427 -0.1269  0.0030
    1W        W51992  19.337  28.207   8.161 -0.1758 -0.0839 -0.1050
    1W        W51993  26.137  15.088   6.097  0.1069 -0.0718  0.3018
    1W        W51994  13.922  22.274   8.555  0.2297 -0.2029  0.0628
    1W        W51995   7.933   6.963   0.052 -0.0609  0.1446  0.2352
    1W        W51996  18.417  12.817   2.323  0.0929  0.0180 -0.1162
    1W        W51997  26.095   3.233   9.208 -0.0052  0.0394 -0.0528
    1W        W51998  10.621   8.970   1.471  0.2834 -0.0001 -0.0291
    1W        W51999   1.933   3.216   7.357 -0.0043 -0.2179 -0.3036
    1W        W52000  11.602  26.968   1.960 -0.0969  0.0405 -0.1643
    1W        W52001  16.919   8.520   1.380  0.1570 -0.2455  0.0015
    1W        W52002  14.058   7.417   0.218  0.1026  0.1079 -0.0607
    1W        W52003  10.476  22.998   0.249 -0.2446 -0.2367  0.4483
    1W        W52004  26.818  28.873   9.226  0.0888 -0.0197 -0.1883
    1W        W52005  26.361  20.796   7.496  0.0069 -0.0042  0.1034
    1W        W52006  16.757  29.788   7.203  0.1706 -0.0380  0.0939
    1W        W52007  17.734  13.916   1.551 -0.4333  0.0901  0.0649
    1W        W52008  21.564  28.136   8.354 -0.3037  0.0048  0.0613
    1W        W52009  25.511  24.772   7.419  0.0040  0.3221  0.2531
    1W        W52010   7.429  29.425   1.489  0.1890 -0.0169  0.1527
    1W        W52011  22.773   1.090   3.490  0.2293 -0.0808  0.1333
    1W        W52012  12.504  15.640   1.761 -0.1856  0.0153  0.0654
    1W        W52013  15.871   4.764   7.119  0.0319  0.1333 -0.1451
    1W        W52014  18.620  17.047   1.978  0.1237 -0.1674 -0.1269
    1W        W52015  23.145   5.060   1.356  0.1734  0.2454 -0.1205
    1W        W52016  20.376  25.582   1.174  0.0811  0.2393 -0.0079
    1W        W52017   1.136   3.594   1.550 -0.2646 -0.0244 -0.0537
    1W        W52018  20.326  16.419   8.842 -0.1102  0.0733  0.0348
    1W        W52019   2.757  24.897   0.009 -0.3225  0.2402 -0.0043
    1W        W52020  29.780  21.166   8.004 -0.0242  0.1435  0.0976
    1W        W52021  23.025   6.393   0.267  0.1243 -0.4188 -0.0958
    1W        W52022  29.303  22.132   1.246 -0.1367 -0.1465 -0.0549
    1W        W52023  14.846   4.736   2.747 -0.0062  0.2594 -0.3070
    1W        W52024  18.049  22.618   7.540  0.0925  0.0357 -0.1332
    1W        W52025  15.341   8.913   1.609  0.1510  0.3356  0.0261
    1W        W52026  13.783  28.275   2.941 -0.0884 -0.2135  0.0400
    1W        W52027   0.875  26.227   3.693 -0.1527  0.1065 -0.1539
    1W        W52028  25.763   3.152   2.774  0.3131  0.3326 -0.2441
    1W        W52029  22.581  12.263   5.848 -0.0659 -0.0488  0.1383
    1W        W52030  21.739  15.913   6.917 -0.0469 -0.0498  0.1891
    1W        W52031   2.953   2.923   2.625 -0.0149  0.1756 -0.2946
    1W        W52032   3.685  28.163   6.878  0.1757  0.2378 -0.0150
    1W        W52033  26.332  17.004   1.262  0.1325 -0.1587 -0.0410
    1W        W52034  11.350  11.705   0.510 -0.0406 -0.0495 -0.2507
    1W        W52035  10.990  29.197   3.214  0.0238  0.1607  0.1608
    1W        W52036   4.497  21.997   2.427  0.0075  0.0695  0.0679
    1W        W52037  25.322  17.833   7.861  0.0666  0.0456  0.2162
    1W        W52038  11.014  15.128   2.022 -0.1091  0.2944  0.1486
    1W        W52039  13.445   0.913   0.017  0.0421 -0.0887  0.1452
    1W        W52040  19.793   1.229   1.133 -0.2792  0.3035  0.3132
    1W        W52041  11.822  21.479   1.573  0.2452  0.4211  0.3979
    1W        W52042  20.140   9.614   1.477  0.0553  0.0707 -0.0492
    1W        W52043  11.338  26.243   1.302 -0.0203 -0.2322  0.0006
    1W        W52044  23.883   8.455   1.612 -0.0950 -0.1171 -0.0279
    1W        W52045   7.229   5.883   3.543 -0.2043 -0.2927  0.0366
    1W        W52046   6.846  17.117   9.402  0.1198 -0.1089 -0.0380
    1W        W52047  16.046  18.326   2.948 -0.1496  0.2793 -0.0425
    1W        W52048  28.933  11.076   2.243 -0.2037  0.2237 -0.0298
    1W        W52049   4.583  13.253   8.507 -0.0423 -0.1409 -0.3001
    1W        W52050   7.315   4.860   7.795  0.1705  0.0165  0.1126
    1W        W52051  25.974   6.106   0.946  0.2798 -0.2273 -0.3352
    1W        W52052  20.028  16.253   7.778  0.0140 -0.0333  0.1069
    1W        W52053  11.090   6.722   9.250  0.0973  0.2467 -0.2241
    1W        W52054  28.905  23.523   0.949 -0.3227  0.1090 -0.0341
    1W        W52055   9.559  19.650   0.607  0.1198 -0.0777  0.1725
    1W        W52056  20.531   5.279   0.075 -0.0248 -0.3564 -0.4332
    1W        W52057   3.200   3.031   9.113 -0.2697 -0.1200  0.0744
    1W        W52058  15.262   9.141   8.464  0.0183 -0.2079 -0.2313
    1W        W52059  15.370  28.312   2.566  0.3267  0.0376 -0.2486
    1W        W52060  10.917   3.193   8.643 -0.1613  0.0162  0.2891
    1W        W52061  26.061  25.205   8.556 -0.0306 -0.0553 -0.0395
    1W        W52062   2.763  18.256   1.624  0.0224  0.3580  0.1139
    1W        W52063  10.435   1.468   0.442 -0.0675 -0.2488  0.0235
    1W        W52064  29.333  21.318   1.577 -0.0354 -0.2164  0.1348
    1W        W52065   0.886  21.475   0.423 -0.0425 -0.1104 -0.0399
    1W        W52066   0.495   0.834   3.419 -0.1783  0.1310  0.0257
    1W        W52067  29.598  22.106   0.864 -0.2093 -0.1410  0.0812
    1W        W52068   1.456  15.468   9.516 -0.0469  0.0597  0.0002
    1W        W52069   1.859  12.758   2.053 -0.3219 -0.1079  0.1633
    1W        W52070  17.114  22.860   0.314 -0.1901  0.2770 -0.0012
    1W        W52071  19.091  20.652   8.716 -0.1660  0.1173 -0.0341
    1W        W52072  18.763  16.702   1.023 -0.0776  0.1020  0.0465
    1W        W52073  22.036  19.257   5.578  0.0279 -0.0638 -0.0640
    1W        W52074  10.311  26.292   2.611  0.1191 -0.2056 -0.0093
    1W        W52075  25.078  23.923   6.530  0.0407  0.0477  0.1701
    1W        W52076  19.264  23.736   9.459 -0.0031  0.4064 -0.2431
    1W        W52077  27.907  13.503   8.179 -0.0082 -0.1205 -0.2077
    1W        W52078  24.746  15.913   0.596  0.0754  0.1470  0.1332
    1W        W52079  10.284  25.429   1.408  0.3087  0.0917 -0.1640
    1W        W52080  16.522  10.709   2.733  0.1340 -0.0710  0.2117
    1W        W52081  16.734  29.644   7.807  0.0565  0.2825 -0.0595
    1W        W52082  15.516  18.588   0.353  0.1064  0.3551 -0.0606
    1W        W52083   7.242  19.866   6.536 -0.2205 -0.0853  0.0854
    1W        W52084  25.244   7.830   9.189  0.0055  0.0129 -0.2133
    1W        W52085   7.579   6.432   3.631  0.1239  0.4146 -0.3594
    1W        W52086  22.041   6.117   7.895 -0.1129 -0.0113  0.0447
    1W        W52087  21.240  14.642   7.480  0.4095  0.0325  0.0888
    1W        W52088  13.666  24.905   0.397 -0.5783 -0.3142 -0.0513
    1W        W52089  28.867  26.570   0.435 -0.0160 -0.4400 -0.1412
    1W        W52090   6.388  16.813   7.692 -0.2968  0.2456  0.2245
    1W        W52091  23.562  27.053   3.940 -0.2460 -0.2610 -0.0564
    1W        W52092  10.907  12.110   8.752 -0.4134 -0.2079 -0.2834
    1W        W52093  25.136   7.030   3.180  0.2621 -0.2849 -0.1734
    1W        W52094  10.811  24.181   0.411  0.0726 -0.1675 -0.2061
    1W        W52095  13.360  11.766   1.516 -0.4013  0.1500 -0.1367
    1W        W52096   9.103   7.278   8.128 -0.0675 -0.1198 -0.0976
    1W        W52097  27.955   4.687   9.136  0.1710  0.1198  0.0144
    1W        W52098   3.303  14.402   8.892 -0.0167  0.2619 -0.0982
    1W        W52099  29.182  16.107   1.358  0.0959 -0.2990  0.2483
    1W        W52100  28.184   7.593   2.866  0.0358 -0.0960  0.2150
    1W        W52101  24.013  18.572   6.450  0.1241  0.0747  0.1988
    1W        W52102  10.487  21.037   6.304 -0.0557 -0.0734  0.0979
    1W        W52103   0.400  11.573   2.177  0.0457  0.0458  0.1703
    1W        W52104  25.594  13.093   7.002 -0.0357  0.2605 -0.0365
    1W        W52105  11.165   4.163   0.143 -0.0031  0.3046  0.2202
    1W        W52106  11.300  21.825   0.960  0.2058  0.1383  0.0581
    1W        W52107  12.333  12.103   8.573  0.3093 -0.1510 -0.0270
    1W        W52108  25.865  11.964   7.794  0.1747 -0.0637  0.0769
    1W        W52109  16.462   1.777   0.123  0.1473 -0.0696  0.1416
    1W        W52110   7.827  24.111   8.180  0.0027  0.0923 -0.0515
    1W        W52111  16.220  11.182   2.742 -0.0961 -0.0891 -0.1197
    1W        W52112   6.834  28.119   2.794  0.1469 -0.1315 -0.0831
    1W        W52113   6.351  10.522   7.004 -0.2353 -0.1348 -0.0736
    1W        W52114  27.956  23.066   0.876  0.1130  0.1210 -0.0687
    1W        W52115  16.968   4.640   3.638 -0.0345 -0.1456  0.2237
    1W        W52116   2.749   4.983   1.834 -0.0791  0.1381  0.0902
    1W        W52117   5.548  14.446   1.194 -0.2900  0.1189  0.1261
    1W        W52118   6.307  18.900   8.308  0.2198  0.0949  0.0329
    1W        W52119  24.268   2.859   0.428 -0.0528 -0.0585 -0.2015
    1W        W52120  19.445   9.549   9.412  0.3151 -0.0618  0.2060
    1W        W52121  28.761  13.844   9.331 -0.2878 -0.1301  0.1626
    1W        W52122  23.775  15.451   1.266  0.0567  0.0482  0.0944
    1W        W52123  29.275  24.568   9.104  0.1802 -0.0095  0.0808
    1W        W52124   7.982   6.487   1.021  0.0994  0.2037 -0.2854
    1W        W52125  29.779  21.391   1.287  0.0838  0.1610  0.1332
    1W        W52126  24.831  11.018   0.287  0.1837 -0.2518 -0.1163
    1W        W52127  28.986  21.312   6.884 -0.1562 -0.1778 -0.2043
    1W        W52128  12.497  27.534   0.717  0.2394 -0.0230 -0.1725
    1W        W52129  23.717  13.237   8.876  0.1468  0.2841  0.0393
    1W        W52130  28.552  20.978   7.759  0.2906 -0.0284 -0.1064
    1W        W52131  26.998  22.715   7.305  0.2213 -0.3517 -0.2230
    1W        W52132   3.544  23.081   2.485  0.1945 -0.0664 -0.0326
    1W        W52133   1.156  22.544   8.260  0.2652 -0.2361  0.0317
    1W        W52134  11.450  26.337   7.668  0.0819  0.0244  0.1314
    1W        W52135   2.900   6.289   8.955  0.1190 -0.1632 -0.0328
    1W        W52136   2.928  20.881   9.176  0.2589  0.0591 -0.0470
    1W        W52137  17.943  25.695   2.675  0.0243  0.1785 -0.0731
    1W        W52138   2.899  29.154   8.643 -0.1533  0.0327  0.2219
    1W        W52139   7.487  16.467   0.172  0.0443 -0.1317 -0.0083
    1W        W52140   7.926   6.706   0.486  0.4369 -0.0078 -0.1599
    1W        W52141   0.647  16.055   8.910 -0.0083 -0.3285  0.2077
    1W        W52142  24.530  23.932   7.783 -0.2147  0.0700  0.1363
    1W        W52143  24.496  15.778   1.537 -0.1753 -0.0096 -0.0956
    1W        W52144  25.448   1.957   6.764 -0.1801  0.1675  0.1518
    1W        W52145   6.605   3.467   3.358  0.4140 -0.1994  0.1991
    1W        W52146  20.420  22.015   7.622  0.0639  0.1133 -0.2443
    1W        W52147  27.736   5.984   0.092 -0.2944  0.2308  0.1196
    1W        W52148  15.842  23.852   2.449 -0.0886  0.2278 -0.0412
    1W        W52149  12.762  17.024   7.943  0.1396 -0.1112  0.0498
    1W        W52150   7.648   2.754   8.658 -0.1108 -0.1357 -0.0482
    1W        W52151   9.913   4.571   2.573 -0.1736  0.1377  0.1861
    1W        W52152   1.700   4.687   8.369 -0.1402  0.0577  0.0583
    1W        W52153  20.279   5.898   2.680  0.2324 -0.1201  0.0159
    1W        W52154  12.124  18.294   7.250 -0.0763 -0.0212 -0.1024
    1W        W52155  29.368   7.799   1.394 -0.0878 -0.2534 -0.2947
    1W        W52156  18.086   0.799   9.139 -0.0996  0.1743 -0.2337
    1W        W52157  16.043   0.067   1.173  0.1375 -0.0887 -0.0595
    1W        W52158  22.856  15.979   1.080 -0.4374 -0.0213  0.2485
    1W        W52159  23.368  25.006   0.748  0.0025 -0.0484  0.2698
    1W        W52160   8.792  24.985   9.331  0.0524  0.1648 -0.0575
    1W        W52161  16.242   3.601   1.523  0.1967  0.3125 -0.0494
    1W        W52162  17.500  10.128   9.405 -0.0431 -0.0120  0.1153
    1W        W52163  11.703   5.048   8.430 -0.0390  0.1607 -0.2021
    1W        W52164  24.183  16.699   5.624  0.3595  0.2300  0.1988
    1W        W52165  27.191  16.220   6.482 -0.1616  0.0230 -0.0961
    1W        W52166  11.537  15.514   9.282  0.1980  0.0296 -0.2429
    1W        W52167   5.304  20.001   0.007  0.0273 -0.0957 -0.1023
    1W        W52168  18.678   8.397   8.985  0.1177 -0.0439  0.0164
    1W        W52169  19.574   6.571   9.361  0.0181  0.0142 -0.0957
    1W        W52170  13.742   4.757   8.274 -0.0927 -0.0849  0.1841
    1W        W52171   4.729  17.753   1.039  0.2137  0.1367 -0.2067
    1W        W52172  20.422   2.458   7.475  0.1097  0.1025  0.0226
    1W        W52173   7.253  28.148   0.073 -0.0413 -0.0474  0.1047
    1W        W52174  23.776   5.283   2.234 -0.2088 -0.2596  0.3463
    1W        W52175   7.577  29.801   8.940 -0.2304 -0.0221  0.1055
    1W        W52176  12.020  25.938   6.727  0.1095 -0.1437  0.1395
    1W        W52177   0.834  21.527   2.082  0.0462 -0.1139 -0.0439
    1W        W52178  27.641  16.077   7.288 -0.0086  0.1048  0.1621
    1W        W52179  19.379  12.602   6.934  0.3281  0.2286 -0.1715
    1W        W52180  19.960  23.548   6.538 -0.0477  0.0588 -0.0991
    1W        W52181   7.854   6.357   3.243  0.2749  0.0745 -0.3275
    1W        W52182  21.189   7.295   7.043 -0.0036 -0.0238 -0.1418
    1W        W52183  21.162   8.491   2.729  0.1153 -0.0883 -0.2824
    1W        W52184  22.191  28.971   0.434 -0.0562 -0.1536 -0.3335
    1W        W52185   3.270   5.378   7.874  0.1644  0.1719 -0.1405
    1W        W52186   4.517  29.222   6.678 -0.0009 -0.0862  0.0777
    1W        W52187  11.272  23.956   8.798  0.1422 -0.1604 -0.2066
    1W        W52188  26.778  17.031   9.268  0.2115  0.0516  0.2777
    1W        W52189   9.646  21.670   7.713 -0.1691  0.1084  0.0866
    1W        W52190   0.336  16.723   8.979  0.0203  0.3389  0.3463
    1W        W52191   5.797  20.671   7.361 -0.0506 -0.0571 -0.0021
    1W        W52192  23.536  29.188   6.579  0.0292  0.2630 -0.1434
    1W        W52193   1.180   0.878   0.358  0.0173 -0.0638 -0.0469
    1W        W52194   2.174   3.759   2.504 -0.1244  0.2688 -0.1662
    1W        W52195   2.638  17.142   9.299  0.2300 -0.0637 -0.5100
    1W        W52196  10.153  23.190   8.870  0.2342 -0.1099 -0.0739
    1W        W52197   5.173   3.581   7.490 -0.1737  0.1670 -0.2504
    1W        W52198  23.435   1.257   7.218 -0.0414  0.2436 -0.1523
    1W        W52199   2.432   0.011   1.626  0.0463  0.1488  0.2526
    1W        W52200  12.299  10.912   7.914 -0.2506 -0.2421  0.1214
    1W        W52201   2.464  11.201   1.929  0.1867  0.3491 -0.1220
    1W        W52202  23.633  26.761   3.525  0.0760 -0.2456  0.1875
    1W        W52203  10.715  17.890   7.970 -0.1436  0.5167 -0.0544
    1W        W52204   6.869  11.284   6.601  0.1058  0.1831  0.0456
    1W        W52205  11.723   1.880   8.542 -0.2439  0.2836  0.1205
    1W        W52206   4.943  26.777   7.286 -0.2092 -0.0690 -0.2010
    1W        W52207  24.521  25.392   0.776  0.3921 -0.0929  0.0996
    1W        W52208  19.580  22.835   2.544  0.2309  0.2004  0.1903
    1W        W52209  24.143  20.335   9.366  0.1230  0.2818 -0.0535
    1W        W52210  28.960  27.919   0.539 -0.0604  0.2253  0.0609
    1W        W52211   3.331  26.256   8.648 -0.0573  0.3498 -0.2240
    1W        W52212  24.357  12.069   8.934  0.0454 -0.2672  0.1409
    1W        W52213   9.041  19.641   2.618  0.1799 -0.0028 -0.1142
    1W        W52214  25.171   9.071   8.617  0.0977  0.0803 -0.1429
    1W        W52215   3.534  28.884   1.939 -0.2920  0.0721 -0.3650
    1W        W52216  22.700  12.492   0.890  0.2614 -0.3317  0.2137
    1W        W52217  17.151  22.960   7.537 -0.0766  0.2077 -0.0481
    1W        W52218  29.077   9.090   7.977  0.0286  0.2618 -0.0289
    1W        W52219   3.186   1.322   9.322  0.0571 -0.0746 -0.0625
    1W        W52220   5.542   9.259   2.513  0.1427 -0.4103 -0.1310
    1W        W52221   1.799   4.702   2.289 -0.0016  0.0063  0.1040
    1W        W52222   6.217  15.610   9.232 -0.0857 -0.2068 -0.0370
    1W        W52223   0.480  25.580   7.833 -0.0689  0.0867 -0.1404
    1W        W52224   5.198  12.571   0.964 -0.1036  0.5271 -0.1744
    1W        W52225   6.723  15.697   1.288 -0.1490 -0.0690 -0.1773
    1W        W52226  23.144  20.362   8.449  0.0413 -0.0989 -0.0643
    1W        W52227  26.600  23.373   0.739  0.0643  0.1998  0.1193
    1W        W52228  26.314   7.590   9.218  0.3984 -0.0198  0.2106
    1W        W52229  24.436  12.100   1.214  0.0159  0.0291  0.1043
    1W        W52230  23.590   4.186   8.315 -0.1592  0.1777  0.1704
    1W        W52231  18.792  27.635   7.620  0.1220  0.0517  0.0950
    1W        W52232  19.242  23.401   8.934  0.3151 -0.0374  0.3323
    1W        W52233  28.057  22.987   6.571 -0.1285  0.2244  0.1849
    1W        W52234   1.082   6.817   1.553 -0.0815  0.2157 -0.1297
    1W        W52235  15.704   7.097   7.506 -0.2716 -0.1114  0.1593
    1W        W52236  11.184   0.300   0.228  0.2539  0.0405 -0.0905
    1W        W52237   9.899  12.261   0.059 -0.1961 -0.2409  0.0194
    1W        W52238   7.448  24.278   0.920  0.1403  0.1676 -0.5681
    1W        W52239   7.479  24.900   2.284 -0.1934 -0.0387 -0.0488
    1W        W52240  17.874  19.843   8.538  0.0880  0.0269  0.1845
    1W        W52241  26.771  17.866   7.895 -0.1487 -0.0475  0.0691
    1W        W52242   4.731  27.333   6.626  0.0431  0.1158  0.3044
    1W        W52243   9.777   4.933   2.288  0.0644  0.2855  0.0002
    1W        W52244  14.759  18.094   9.078  0.1947  0.2457  0.0801
    1W        W52245  15.058  27.008   1.758 -0.0765 -0.1942 -0.1147
    1W        W52246   8.068  10.636   0.734 -0.0153 -0.1686  0.1952
    1W        W52247  10.952  15.178   7.411 -0.2024 -0.0215  0.2524
    1W        W52248   5.638   1.500   1.346 -0.1403 -0.1896 -0.3355
    1W        W52249  10.776   4.602   3.085  0.1418  0.2883  0.0745
    1W        W52250  27.637  27.703   8.969  0.2551  0.1970 -0.3478
    1W        W52251  13.367   7.628   9.311  0.2454 -0.0962 -0.1370
    1W        W52252   8.768   9.388   1.722  0.1452  0.2092  0.0172
    1W        W52253  25.939  19.684   0.198  0.1809 -0.1890 -0.0305
    1W        W52254   1.922  15.714   9.475 -0.0497  0.0624  0.0407
    1W        W52255   4.867   4.677   8.974 -0.0953  0.3513 -0.0789
    1W        W52256   5.985  12.905   2.190  0.0074  0.0541  0.3819
    1W        W52257  18.159  18.248   8.836  0.0957  0.1915  0.0514
    1W        W52258  26.653  24.736   1.135  0.4096 -0.2001 -0.0530
    1W        W52259   8.047  14.765   1.857  0.3881 -0.1047 -0.1316
    1W        W52260   1.814   8.984   0.089  0.1326 -0.2750 -0.1651
    1W        W52261  23.185  21.861   7.598  0.2513  0.2856 -0.1276
    1W        W52262  18.790   2.184   2.982  0.4583  0.1215  0.2410
    1W        W52263  20.125  24.057   2.913  0.0715  0.0992 -0.1253
    1W        W52264  21.709  21.474   1.368  0.0577 -0.2131  0.1522
    1W        W52265  21.993   8.569   8.885  0.0164  0.0923 -0.3015
    1W        W52266   5.861  29.236   9.028 -0.4930  0.1777  0.4449
    1W        W52267  27.564  24.123   8.287 -0.1740  0.1673  0.2216
    1W        W52268  21.985  21.570   1.865  0.0952 -0.1819 -0.1860
    1W        W52269  15.733   3.821   7.037  0.1420 -0.1017  0.0542
    1W        W52270  22.390   7.895   9.376  0.0097  0.0323  0.1894
    1W        W52271   4.407  17.642   1.483  0.2415 -0.2779 -0.0989
    1W        W52272  13.317  16.022   9.007  0.0979  0.1858 -0.2801
    1W        W52273  27.488   0.198   0.470 -0.3712  0.1069  0.3961
    1W        W52274   5.586   5.582   1.563 -0.0343 -0.0857 -0.2689
    1W        W52275   0.907  15.481   7.007 -0.2917 -0.2092  0.2189
    1W        W52276  17.502  11.137   6.686  0.0669  0.0508 -0.3559
    1W        W52277  17.356  24.461   0.327  0.0742  0.0323  0.4296
    1W        W52278  28.863  15.141   1.581  0.1450  0.2106 -0.1215
    1W        W52279   0.375  25.657   6.556 -0.0554 -0.2926 -0.2659
    1W        W52280  24.070   2.292   8.011 -0.0124  0.0840  0.2259
    1W        W52281  16.613  26.560   7.658  0.2605 -0.1036  0.2240
    1W        W52282  15.275   7.085   3.261 -0.1411 -0.0213 -0.0793
    1W        W52283  10.626  23.473   8.040  0.2555  0.2991 -0.1408
    1W        W52284  15.875  26.405   2.612 -0.2918  0.0047 -0.4668
    1W        W52285  22.549   2.102   1.180 -0.1997  0.0403  0.1594
    1W        W52286   1.359  24.741   7.888 -0.2161 -0.2027 -0.1751
    1W        W52287   0.742  19.397   7.224 -0.2259 -0.1146  0.5124
    1W        W52288  29.351  13.280   0.685 -0.0804  0.1967  0.0977
    1W        W52289  15.033  15.354   8.596 -0.1569 -0.2743  0.0824
    1W        W52290   2.530  15.203   8.576 -0.0438 -0.1064 -0.2880
    1W        W52291  25.664   3.905   9.447  0.0758  0.1817  0.1558
    1W        W52292   8.885  22.170   0.797 -0.1623 -0.1325 -0.0294
    1W        W52293  12.273  19.629   6.883 -0.1858  0.3378  0.1666
    1W        W52294  10.986   6.014   9.319 -0.1530  0.3726  0.1360
    1W        W52295  18.806   6.166   8.912  0.0762  0.0734 -0.0334
    1W        W52296  21.034   8.968   0.505  0.2525  0.0034 -0.1176
    1W        W52297  20.004  11.409   9.136  0.0577 -0.1829 -0.0631
    1W        W52298  26.584   4.596   8.704  0.3315 -0.0142  0.1841
    1W        W52299   2.485   9.213   8.561 -0.0240 -0.0878 -0.2971
    1W        W52300   9.016   2.750   3.143 -0.0606  0.0375 -0.0089
    1W        W52301  28.425  23.224   6.907  0.2459 -0.2477 -0.1164
    1W        W52302  27.461   7.694   6.478 -0.2131  0.0883  0.0280
    1W        W52303  29.398  23.112   1.666 -0.0543  0.3452  0.0935
    1W        W52304   9.548  25.867   2.773 -0.2577 -0.2169  0.0448
    1W        W52305  28.213  22.443   6.576  0.1152 -0.1767 -0.2712
    1W        W52306   3.024  26.649   1.598 -0.1275  0.0234 -0.0355
    1W        W52307  19.626  16.051   8.137  0.1476 -0.1979 -0.0327
    1W        W52308  21.896   3.055   2.885  0.0656 -0.3139 -0.1453
    1W        W52309  17.994   8.194   5.985  0.0909 -0.0270  0.1245
    1W        W52310   7.662  11.402   1.139 -0.0148 -0.2600  0.1956
    1W        W52311  29.711  23.718   1.707 -0.0418 -0.0855  0.0929
    1W        W52312   4.066  28.757   9.109 -0.1248 -0.1687  0.0388
    1W        W52313  14.273  22.052   8.891 -0.3119 -0.1945  0.2353
    1W        W52314  13.025  21.526   0.802 -0.0198 -0.3254 -0.0804
    1W        W52315  24.725   9.478   0.867 -0.1965 -0.2408 -0.2161
    1W        W52316  14.852  21.887   1.615  0.2123 -0.2283 -0.1494
    1W        W52317  19.462  24.128   1.217  0.2142  0.1032 -0.1276
    1W        W52318  28.096  26.150   9.190 -0.1346  0.2238 -0.0261
    1W        W52319   2.514  10.566   0.727  0.0123 -0.0296  0.0192
    1W        W52320  21.707  24.429   6.668  0.0709  0.1135  0.2150
    1W        W52321   7.411  24.868   0.185 -0.1960  0.1512  0.0843
    1W        W52322  24.245   8.902   9.075  0.1774  0.2310  0.0686
    1W        W52323  12.926  24.819   6.243  0.1236 -0.3277 -0.2022
    1W        W52324  14.151  11.560   6.860 -0.0083  0.2071 -0.3975
    1W        W52325  19.796  24.540   7.835 -0.0687  0.1454 -0.0743
    1W        W52326  16.179   2.890   2.096  0.0718  0.1142  0.1623
    1W        W52327   4.866  29.653   8.524 -0.1258  0.0754 -0.0113
    1W        W52328  14.939  28.116   8.296  0.1001 -0.0400 -0.1110
    1W        W52329  26.011   2.958   0.047 -0.0139 -0.4753  0.2610
    1W        W52330   0.929   2.577   7.983  0.1092 -0.0297 -0.0863
    1W        W52331   5.808  11.906   0.505  0.0424 -0.2155 -0.0538
    1W        W52332  17.618   0.754   8.755 -0.1130 -0.0944 -0.1895
    1W        W52333   3.911  25.817   9.072  0.2879  0.1609  0.1498
    1W        W52334  24.252  15.705   0.658  0.0105 -0.1961 -0.0037
    1W        W52335   8.274  17.337   8.841 -0.0421 -0.0973  0.0959
    1W        W52336  13.039  19.331   0.279  0.1747 -0.0699  0.0248
    1W        W52337   1.863  13.076   1.541  0.3157  0.0891 -0.0373
    1W        W52338   0.641   3.031   2.229  0.2796  0.2891 -0.1770
    1W        W52339  16.217   5.456   9.493  0.1897  0.1691 -0.0933
    1W        W52340  21.619   5.307   4.033 -0.4577  0.0814  0.0595
    1W        W52341   4.127  19.877   6.979 -0.4096 -0.0627  0.0510
    1W        W52342   2.041  12.071   8.458  0.0917 -0.0459 -0.0139
    1W        W52343   5.160  26.708   3.048 -0.3274  0.0005 -0.1549
    1W        W52344  28.106  13.642   0.850  0.2646 -0.1078 -0.2039
    1W        W52345  13.441  10.436   0.161  0.1362  0.1333  0.1775
    1W        W52346  22.614  19.217   6.450  0.1150  0.0151 -0.1361
    1W        W52347  26.578   9.931   1.539 -0.4096 -0.0505 -0.1807
    1W        W52348   8.583   4.019   2.329  0.0625 -0.2613  0.4141
    1W        W52349   6.470   9.582   1.299  0.2889  0.1568 -0.0131
    1W        W52350  14.243  23.166   8.727 -0.1907  0.0421 -0.1786
    1W        W52351  22.138   8.298   2.454  0.1245 -0.1405 -0.1157
    1W        W52352   5.540   5.553   0.076  0.2257 -0.0544 -0.0001
    1W        W52353  10.210   9.710   8.263  0.2642 -0.1137  0.0987
    1W        W52354  29.306   8.078   8.429  0.0346 -0.0874 -0.1719
    1W        W52355  14.427  10.242   2.774 -0.1364  0.2191  0.1148
    1W        W52356  16.842   1.012   2.126 -0.0744 -0.1253  0.2591
    1W        W52357   1.132  26.409   6.994 -0.1168 -0.0759  0.0690
    1W        W52358  24.777   0.746   1.912 -0.1485  0.0925  0.0985
    1W        W52359  13.491  19.671   2.468 -0.1097  0.1171  0.0658
    1W        W52360  16.749   2.930   1.981 -0.1334 -0.0008 -0.1602
    1W        W52361  14.859   6.560   8.513  0.2484 -0.1853  0.1535
    1W        W52362  21.055   0.252   7.622 -0.1098 -0.4551 -0.1069
    1W        W52363   8.815  19.894   6.497  0.5359 -0.2378 -0.2596
    1W        W52364  18.929   3.889   0.494 -0.4506 -0.1592 -0.1966
    1W        W52365  24.989  12.784   0.983 -0.0685 -0.2527 -0.1188
    1W        W52366   8.805  12.907   2.528  0.0030 -0.0127 -0.3382
    1W        W52367  15.848  20.652   2.619  0.1217  0.1450  0.0552
    1W        W52368   9.362  13.723   1.532  0.0301  0.0595  0.0214
    1W        W52369  17.749   2.660   1.495  0.1229  0.1822 -0.2560
    1W        W52370  20.276  29.535   2.858  0.1033 -0.1020  0.0817
    1W        W52371  11.208   6.304   2.318  0.0201 -0.0933 -0.2152
    1W        W52372  20.989   3.802   3.277 -0.0192 -0.0428  0.0747
    1W        W52373  23.494  12.801   1.150  0.3079  0.0153 -0.0796
    1W        W52374   5.406   5.186   8.198 -0.1972  0.5555  0.2213
    1W        W52375  19.228  19.826   2.286 -0.1946 -0.2841  0.0488
    1W        W52376  16.646   6.285   8.905  0.1274  0.1404  0.1408
    1W        W52377  27.664  19.389   6.461  0.2817 -0.1930 -0.1293
    1W        W52378  17.755  22.636   5.884  0.0454 -0.2972 -0.4348
    1W        W52379  25.916   0.661   1.292  0.1375  0.2219 -0.0218
    1W        W52380  28.617  21.678   7.639  0.0728  0.2141 -0.0089
    1W        W52381   9.573   1.966   1.424 -0.3030  0.3422  0.0676
    1W        W52382  21.127  18.221   0.322 -0.2603 -0.0570 -0.2482
    1W        W52383  16.796  15.108   2.250  0.1612 -0.3575  0.0245
    1W        W52384  26.681  10.026   8.646  0.1245  0.0047 -0.0220
    1W        W52385  22.375   6.319   2.730 -0.2925  0.1626 -0.0430
    1W        W52386   0.846  10.721   8.737  0.0752 -0.2006  0.1947
    1W        W52387  10.441  10.859   7.646 -0.0042  0.2327 -0.0644
    1W        W52388  23.034  23.739   6.978  0.0495 -0.3275  0.1003
    1W        W52389  21.265  27.720   1.339 -0.1821 -0.1278 -0.0715
    1W        W52390   1.946  29.330   2.262  0.2686  0.1585  0.0597
    1W        W52391  24.411  15.250   0.650  0.0687 -0.2179 -0.0742
    1W        W52392   5.089   8.866   7.796 -0.1128  0.0814 -0.0431
    1W        W52393  11.444   7.522   2.078  0.0677 -0.0204  0.2502
    1W        W52394   5.681  10.164   7.554 -0.0832  0.0944  0.1009
    1W        W52395  22.488   0.079   2.664  0.0181 -0.0087 -0.0596
    1W        W52396  17.325  12.116   9.310  0.2850 -0.0322 -0.1088
    1W        W52397  13.016   7.764   2.605 -0.3157  0.3278 -0.1858
    1W        W52398  10.044  24.064   9.220 -0.2276 -0.1333 -0.3114
    1W        W52399  10.561   3.600   8.404 -0.2790  0.2549  0.1554
    1W        W52400   7.821   4.896   7.683  0.1980 -0.1696  0.1406
    1W        W52401   1.562  15.777   9.126  0.1357  0.1827  0.1114
    1W        W52402  28.711  27.244   2.175 -0.3643 -0.2435 -0.0589
    1W        W52403  23.656  12.809   1.923  0.0269 -0.2266 -0.0085
    1W        W52404  26.124   7.269   0.876  0.2390 -0.0004 -0.0682
    1W        W52405   5.302   0.274   7.884  0.1910 -0.0957 -0.0671
    1W        W52406   7.347  22.085   1.009 -0.1793 -0.0230 -0.0188
    1W        W52407   8.529  28.781   7.701 -0.1818 -0.0810 -0.0281
    1W        W52408  16.417   3.323   1.930 -0.2501  0.1105  0.0395
    1W        W52409   8.780  29.666   7.584  0.1318  0.1398  0.0505
    1W        W52410  23.192  27.493   8.272  0.3095 -0.2121  0.2148
    1W        W52411   9.746   2.715   0.072 -0.0461 -0.1592 -0.0534
    1W        W52412  23.049  23.324   1.110 -0.0866  0.0824 -0.0942
    1W        W52413  28.222   2.347   1.475 -0.0865 -0.3271  0.1153
    1W        W52414   3.370  23.133   8.756 -0.2592 -0.0278 -0.2632
    1W        W52415   9.411  13.707   8.408  0.0360  0.1324  0.1497
    1W        W52416  19.351  13.200   0.149 -0.0037  0.0822  0.1639
    1W        W52417   4.166  29.029   8.668  0.1880 -0.0905 -0.1782
    1W        W52418  27.276  26.597   7.790  0.0273  0.2054  0.1045
    1W        W52419   9.339   4.000   3.033  0.0448  0.1317 -0.1657
    1W        W52420   4.874  24.309   2.271 -0.1248  0.0422  0.0616
    1W        W52421   0.858  23.212   9.249  0.0495  0.1047  0.0219
    1W        W52422  25.667   1.862   2.068  0.0291  0.1484 -0.0263
    1W        W52423  12.655   7.067   2.998  0.2507  0.2867  0.0163
    1W        W52424   9.428   1.008   1.892 -0.0586 -0.1290 -0.1057
    1W        W52425  23.954  21.278   6.535 -0.0629 -0.2247  0.1391
    1W        W52426  19.463   7.942   0.143  0.0948  0.1047  0.0152
    1W        W52427   0.762   0.908   7.226  0.0522  0.2586  0.2959
    1W        W52428  13.295  11.929   0.624  0.0365 -0.0476  0.1731
    1W        W52429   7.318   3.927   7.424  0.0460 -0.1248  0.1693
    1W        W52430   3.376   1.686   9.023 -0.1186 -0.1536 -0.1053
    1W        W52431   6.786  27.859   7.299  0.0518  0.2003  0.0625
    1W        W52432  23.895   7.540   3.156 -0.1435 -0.1923  0.1363
    1W        W52433  22.943  18.185   1.214 -0.2905  0.0664  0.3592
    1W        W52434  17.826  18.996   7.452  0.3171 -0.3290  0.0210
    1W        W52435  21.386  17.784   6.880 -0.0350 -0.0042  0.1104
    1W        W52436   8.797   1.583   3.553 -0.1687  0.1862  0.1210
    1W        W52437   4.964   0.897   0.311  0.3186  0.1173 -0.3958
    1W        W52438   6.020   5.903   3.052  0.0538 -0.0010  0.1496
    1W        W52439   4.480  21.142   0.402 -0.2995 -0.2253  0.1405
    1W        W52440  22.287  10.461   1.199 -0.2938 -0.0788 -0.0584
    1W        W52441  12.715  13.058   2.104 -0.1736 -0.2108  0.1682
    1W        W52442   1.588   4.843   9.130  0.0842  0.0221 -0.0935
    1W        W52443   7.246   5.585   8.746 -0.0349  0.0532 -0.0939
    1W        W52444  20.074   5.638   3.862 -0.0190  0.1181  0.1008
    1W        W52445  13.437   4.928   1.406 -0.0132  0.0932 -0.0107
    1W        W52446  22.517  21.057   5.914  0.1054  0.0722  0.1357
    1W        W52447  29.747  14.138   7.645 -0.0568 -0.0958 -0.0802
    1W        W52448   8.867   6.766   0.771 -0.1311 -0.1089 -0.0608
    1W        W52449  27.642  26.294   7.968  0.0700  0.2111  0.0624
    1W        W52450   6.859  19.220   2.396 -0.0851 -0.0407 -0.2764
    1W        W52451  18.714  19.950   1.350  0.2388 -0.0097 -0.1519
    1W        W52452  28.403  12.109   6.936 -0.0815  0.0324  0.0767
    1W        W52453   1.381   0.115   7.132 -0.2354 -0.0586  0.0850
    1W        W52454   2.559  10.161   9.417 -0.0858 -0.0778  0.0002
    1W        W52455  28.002  29.004   1.277 -0.2128 -0.1972 -0.1783
    1W        W52456   4.174   8.966   2.081 -0.0490 -0.0016 -0.1353
    1W        W52457   4.581  11.055   8.633 -0.2400 -0.0285 -0.2388
    1W        W52458   8.320  15.958   2.498  0.0260 -0.1367 -0.0004
    1W        W52459  13.862  12.285   8.327 -0.2241 -0.3982 -0.0751
    1W        W52460   3.544  13.150   8.569 -0.2662  0.3696 -0.0279
    1W        W52461   2.849  25.710   2.455  0.3131  0.2489 -0.0428
    1W        W52462   2.589   4.240   6.482 -0.1874 -0.0341  0.1361
    1W        W52463   3.565  10.663   1.285  0.2276 -0.2766 -0.1021
    1W        W52464  22.964  11.078   0.713  0.3706  0.0251 -0.0939
    1W        W52465  24.879  21.298   8.467 -0.0035  0.1659  0.1729
    1W        W52466   3.512   4.619   7.321  0.0531  0.0931  0.0237
    1W        W52467   6.630  15.362   0.476 -0.1312 -0.2087 -0.1697
    1W        W52468  26.893  29.580   7.381  0.1203 -0.0334  0.0080
    1W        W52469   9.690  25.409   9.042  0.1395  0.1411 -0.0082
    1W        W52470   7.171  20.630   7.080  0.2054  0.2368  0.1102
    1W        W52471  20.495  18.312   0.989 -0.0475 -0.3039  0.0438
    1W        W52472  20.822  20.121   7.170 -0.0172 -0.0820  0.0220
    1W        W52473   9.575  15.636   2.866 -0.1320  0.0464  0.2529
    1W        W52474   1.708   4.996   7.118  0.0231  0.1413 -0.1494
    1W        W52475  25.651  16.083   8.549  0.0224 -0.3048 -0.0588
    1W        W52476   9.877  27.167   2.187  0.0695 -0.1943 -0.1419
    1W        W52477   2.338   2.764   7.053  0.3011  0.0936  0.1586
    1W        W52478  19.472   5.598   7.067 -0.0010 -0.1111  0.1482
    1W        W52479  15.123  25.127   6.517 -0.2844 -0.1952  0.1333
    1W        W52480   4.917  27.961   8.764  0.0975 -0.2555 -0.1248
    1W        W52481  11.461  25.715   1.929  0.2265 -0.0084 -0.1197
    1W        W52482  28.364   4.890   1.423 -0.3060 -0.0908 -0.0320
    1W        W52483   8.193   7.181   9.229  0.0845 -0.0560 -0.0175
    1W        W52484  21.693  22.965   8.103  0.1256 -0.1342 -0.1413
    1W        W52485  26.954  19.306   7.675  0.1409 -0.1924  0.0418
    1W        W52486  27.156  28.498   8.108  0.3175  0.0843 -0.0010
    1W        W52487  18.629   3.517   1.635  0.1883  0.3144  0.2858
    1W        W52488   0.936  18.186   1.857  0.0778 -0.3081 -0.1398
    1W        W52489  22.248   7.688   6.335 -0.0581 -0.1000 -0.1885
    1W        W52490   0.083  17.270   0.178  0.0494 -0.1646  0.1628
    1W        W52491   1.278  24.655   9.339  0.2300  0.1948 -0.0463
    1W        W52492  22.059   8.018   9.014 -0.1583 -0.2031  0.1868
    1W        W52493   5.733   7.161   0.778 -0.0746  0.2158  0.0267
    1W        W52494   0.889  10.513   8.287  0.0869  0.1368  0.0893
    1W        W52495  25.243  21.992   0.292  0.1684 -0.0516  0.4128
    1W        W52496  19.024  15.150   2.552 -0.0742  0.1600 -0.0653
    1W        W52497   4.178  12.202   6.476 -0.3309 -0.1132  0.2443
    1W        W52498  27.736   5.168   6.871 -0.0967 -0.0973  0.3032
    1W        W52499  15.231   7.158   6.365  0.0709 -0.1266 -0.0085
    1W        W52500   1.454  28.245   6.532  0.2343  0.2919  0.1224
    1W        W52501   4.677  17.566   8.514  0.1261 -0.1416  0.0309
    1W        W52502   1.695  16.568   1.435 -0.1190  0.1285 -0.0007
    1W        W52503  17.107  24.610   6.201  0.0610  0.1106  0.0504
    1W        W52504   7.797  16.673   2.187 -0.2845 -0.0196  0.0867
    1W        W52505   5.554   7.353   0.328 -0.0694 -0.1287  0.0016
    1W        W52506  23.690   1.344   9.200 -0.0531  0.0419 -0.1777
    1W        W52507  29.421  20.517   7.357  0.3021 -0.1038  0.0819
    1W        W52508  20.654  23.238   2.387  0.0723  0.1744 -0.0228
    1W        W52509   3.923  24.312   7.672  0.1836 -0.1795  0.0126
    1W        W52510  22.358  25.533   0.414 -0.0455 -0.6285 -0.0320
    1W        W52511  15.059  19.747   2.707 -0.1091 -0.1751  0.2889
    1W        W52512  19.433  23.210   8.473 -0.1432  0.2042 -0.1559
    1W        W52513   6.419   0.434   2.826  0.2946  0.1666  0.2408
    1W        W52514   4.468  23.339   8.712  0.0123  0.2752  0.0827
    1W        W52515  21.422   4.725   0.068  0.0571  0.1839  0.1317
    1W        W52516  14.822  16.813   1.962 -0.1354 -0.0018  0.0288
    1W        W52517  20.639  15.865   8.905 -0.0893 -0.0265  0.0183
    1W        W52518  21.940   5.650   8.025  0.0345 -0.1461  0.0343
    1W        W52519   0.123  27.930   8.544 -0.0991  0.0909  0.2696
    1W        W52520  19.076  24.228   7.677 -0.2865  0.0905  0.2659
    1W        W52521  15.783  28.076   6.130 -0.0365 -0.0241  0.3446
    1W        W52522   2.806   9.021   1.584 -0.1464 -0.3269  0.0888
    1W        W52523  14.024  25.812   7.400  0.3560 -0.1995  0.1874
    1W        W52524  24.086  20.373   6.378 -0.0787 -0.0544 -0.1461
    1W        W52525   5.889  20.369   8.653  0.1705 -0.2451  0.0621
    1W        W52526  25.837  18.406   8.102  0.1760  0.0300  0.4810
    1W        W52527  19.774  12.009   2.078 -0.1245  0.3010  0.0851
    1W        W52528  21.575  18.119   8.235  0.0342 -0.3428  0.0173
    1W        W52529   0.818   0.044   8.600  0.1986  0.2219 -0.1788
    1W        W52530   0.105  20.022   0.677 -0.2164 -0.1439 -0.1181
    1W        W52531  19.228  28.073   6.830 -0.4943  0.1268  0.0036
    1W        W52532   9.146   1.195   3.047  0.0799  0.1105  0.0836
    1W        W52533  21.749  10.107   8.230  0.2599  0.1852 -0.2629
    1W        W52534   5.950  26.869   8.751  0.1824  0.0898 -0.1685
    1W        W52535   7.845  17.457   8.481 -0.0517 -0.3650 -0.0912
    1W        W52536  25.482  16.337   8.969  0.3120 -0.0309  0.1412
    1W        W52537  27.506  11.079   1.801  0.1366 -0.1117 -0.1018
    1W        W52538   1.870  24.393   0.416 -0.1231 -0.0117 -0.0773
    1W        W52539  15.470   8.566   7.672 -0.1700  0.0974 -0.1765
    1W        W52540  21.006  15.274   6.830  0.0205  0.2542 -0.0044
    1W        W52541  18.314   3.296   0.895  0.0256  0.0046  0.0234
    1W        W52542  17.804  24.057   1.309  0.4664 -0.1620  0.0044
    1W        W52543  26.028  12.667   0.093  0.1289 -0.0132  0.2917
    1W        W52544  26.724  28.760   7.998 -0.0150  0.0732 -0.2149
    1W        W52545  24.992  24.609   7.150  0.1150  0.0831  0.3378
    1W        W52546  21.160   0.584   1.376  0.1080  0.0826  0.1287
    1W        W52547   9.486  13.990   0.630  0.2265  0.0345  0.0839
    1W        W52548  28.226   8.897   8.173 -0.3774  0.0397 -0.0581
    1W        W52549   4.710   3.240   7.844 -0.2584  0.0271  0.1690
    1W        W52550   3.060  27.872   7.660 -0.1241 -0.0234  0.0646
    1W        W52551   3.444  18.432   2.122 -0.0877 -0.1398  0.1016
    1W        W52552  15.336  10.101   8.276  0.0008 -0.1755  0.1100
    1W        W52553  27.620   0.664   8.756 -0.1773  0.3762  0.0714
    1W        W52554   1.032  26.970   0.194 -0.1350 -0.2489  0.1567
    1W        W52555   4.575  16.731   1.300 -0.3590  0.0614 -0.1083
    1W        W52556  16.792  16.960   7.008 -0.1961  0.0263  0.2533
    1W        W52557  26.988   8.027   0.257 -0.1742  0.0214 -0.1105
    1W        W52558   2.411   3.043   0.113  0.0686  0.1394 -0.0390
    1W        W52559   8.374  14.920   7.319 -0.0588 -0.0234  0.2240
    1W        W52560  20.616  20.262   8.374 -0.1937 -0.0387 -0.0132
    1W        W52561  23.126  28.776   9.238  0.0426  0.2676 -0.1242
    1W        W52562  19.784  14.007   1.975  0.1798 -0.2164 -0.0235
    1W        W52563  23.770  28.016   2.145  0.0913 -0.2197 -0.0972
    1W        W52564   1.546  28.166   1.785 -0.0417  0.0007 -0.0763
    1W        W52565  24.952  18.260   9.266 -0.2100  0.1538  0.1124
    1W        W52566   4.486  23.011   0.609 -0.0534  0.0933 -0.2934
    1W        W52567  15.308  21.334   9.286 -0.0368 -0.0085 -0.2381
    1W        W52568  19.549  12.653   0.839  0.1660 -0.1040  0.2663
    1W        W52569  21.273  21.388   0.481  0.0069  0.1551  0.2289
    1W        W52570   4.925  26.824   6.828 -0.2541 -0.3287  0.0883
    1W        W52571   8.630  23.596   8.510  0.1539 -0.1407  0.2999
    1W        W52572  27.818   5.538   1.825  0.1515  0.4181  0.0938
    1W        W52573  16.536  24.215   9.293 -0.1108 -0.2283  0.1705
    1W        W52574   8.622  18.537   1.337  0.0748  0.0105  0.3005
    1W        W52575  21.877  22.080   1.652  0.1671  0.0021 -0.1905
    1W        W52576   7.788  29.190   1.780  0.1236 -0.0951  0.2313
    1W        W52577   2.319  25.819   7.432 -0.2795 -0.1989 -0.0192
    1W        W52578  17.271  10.232   0.276  0.0158 -0.2825  0.1837
    1W        W52579  26.631  28.656   0.636  0.1930 -0.4052 -0.1014
    1W        W52580  27.083  11.682   1.298 -0.0725 -0.1452  0.0369
    1W        W52581  16.431  17.781   0.888  0.1121 -0.0964  0.2499
    1W        W52582  10.592   6.381   3.056 -0.0001  0.1328  0.1668
    1W        W52583  12.745  29.497   0.828  0.0085  0.4796  0.0394
    1W        W52584  10.605  12.426   0.543  0.0995  0.1412  0.2308
    1W        W52585  19.241  28.725   0.113 -0.1322 -0.0657 -0.2621
    1W        W52586  19.302  10.025   7.314 -0.0516 -0.4484 -0.1874
    1W        W52587   4.160  21.660   6.739 -0.3188 -0.1318 -0.0379
    1W        W52588  23.936  11.606   7.226 -0.1375  0.1081  0.1299
    1W        W52589  22.441   4.114   3.662 -0.4005  0.2748  0.0084
    1W        W52590  16.074   1.924   1.265  0.1736  0.4949  0.0501
    1W        W52591  22.433   0.119   1.748 -0.2318 -0.0515  0.1567
    1W        W52592   1.046  29.074   7.758  0.0856 -0.0159  0.1541
    1W        W52593  25.208   9.754   0.937  0.2837  0.0346 -0.0314
    1W        W52594  26.001   2.215   1.755  0.1010  0.2562  0.0981
    1W        W52595   8.008  12.110   1.282  0.0717  0.2437 -0.0732
    1W        W52596   4.301  18.213   1.897 -0.1209  0.1890 -0.0596
    1W        W52597  17.082  28.594   2.766  0.1289  0.0741  0.0836
    1W        W52598  18.886  27.514   8.886  0.2702 -0.1831  0.1068
    1W        W52599  29.454  11.055   0.905 -0.0056 -0.0732  0.0702
    1W        W52600  27.722  20.120   8.386 -0.0096  0.0255  0.3048
    1W        W52601  16.789  17.906   9.179  0.0277  0.2890  0.1616
    1W        W52602  25.296   2.193   0.899  0.0442  0.2931  0.0615
    1W        W52603  29.187  11.472   0.827  0.1487  0.2986 -0.3522
    1W        W52604  28.021  12.669   0.976  0.0227  0.1673 -0.3277
    1W        W52605  17.836  12.145   9.380  0.0648 -0.3232  0.2043
    1W        W52606  29.177   3.938   1.816 -0.0748  0.0418 -0.1894
    1W        W52607  29.428   5.647   3.101  0.1094 -0.0370 -0.2740
    1W        W52608   6.946  15.550   1.777  0.0448  0.2144 -0.2668
    1W        W52609   8.701   6.687   2.204 -0.4218  0.2164  0.1789
    1W        W52610  21.771  10.523   2.389  0.0366 -0.0523  0.1579
    1W        W52611  22.118   2.903   7.995  0.0179 -0.0682 -0.1697
    1W        W52612   9.101  25.535   2.354 -0.2718  0.0929 -0.0813
    1W        W52613  26.341  25.824   6.573 -0.2854  0.2238  0.1309
    1W        W52614   4.262  22.451   7.479 -0.0020  0.0151  0.0359
    1W        W52615  27.038   2.263   8.880  0.4515 -0.3224 -0.0916
    1W        W52616  22.065  16.979   6.939  0.1068 -0.0579  0.0869
    1W        W52617  26.592  29.170   7.556  0.1486  0.2709 -0.0528
    1W        W52618  29.534  19.117   7.143  0.1582 -0.1383 -0.2444
    1W        W52619  27.824   9.223   0.032 -0.1117 -0.2822  0.0445
    1W        W52620   4.112  20.326   1.649 -0.1986 -0.4162  0.0344
    1W        W52621  21.151  18.528   8.941  0.1781  0.0258  0.0116
    1W        W52622   0.749  21.522   2.933  0.0212 -0.0415 -0.1320
    1W        W52623  26.748  16.460   7.605  0.1946  0.0590  0.0581
    1W        W52624   1.474   9.856   0.041 -0.3052 -0.1695 -0.0060
    1W        W52625   5.161  22.930   7.414  0.0233  0.0586  0.1624
    1W        W52626  12.423  28.884   1.634 -0.1369 -0.0697  0.1203
    1W        W52627  14.930  27.206   3.288  0.0389  0.3282  0.0454
    1W        W52628   1.727   7.557   1.283 -0.1097 -0.0766 -0.6010
    1W        W52629  24.454  19.726   6.871 -0.2407 -0.1517  0.0588
    1W        W52630  13.790   9.413   7.850 -0.2170  0.1162  0.1475
    1W        W52631   5.998  25.169   2.193  0.0666 -0.1400 -0.5967
    1W        W52632   8.032  26.507   1.844 -0.1712 -0.1469 -0.1215
    1W        W52633  10.166   4.667   2.106 -0.1055 -0.1983 -0.3078
    1W        W52634  15.827  20.162   7.391  0.1718  0.0756 -0.0130
    1W        W52635  25.246   9.418   1.749 -0.1501 -0.0014 -0.2236
    1W        W52636  23.979   7.263   8.365  0.0293 -0.0667 -0.1975
    1W        W52637  21.243  24.282   9.200 -0.2217  0.0666  0.2550
    1W        W52638  27.720  14.418   0.692 -0.0938 -0.4437 -0.2982
    1W        W52639  26.090  19.611   8.045  0.0395  0.0890 -0.0534
    1W        W52640   8.375  24.328   7.404  0.0715  0.1358 -0.0673
    1W        W52641  21.208  11.194   1.209 -0.0731  0.2578 -0.2907
    1W        W52642  11.652   7.901   7.175  0.2339 -0.3006 -0.1286
    1W        W52643   0.670  11.909   8.509  0.0910 -0.1865 -0.2409
    1W        W52644  25.552  16.087   7.112  0.3210 -0.0102  0.1642
    1W        W52645  20.887   2.558   7.299 -0.0322  0.1207 -0.3431
    1W        W52646  11.611  24.945   8.563  0.0015 -0.0954 -0.1952
    1W        W52647  16.725  17.489   9.551  0.0425 -0.2797  0.1747
    1W        W52648  27.316  11.379   9.411 -0.1967  0.1698  0.3102
    1W        W52649  14.777  14.982   1.972  0.1219  0.2679  0.1067
    1W        W52650  16.506   5.604   0.862  0.1034 -0.2288 -0.1436
    1W        W52651   5.184   8.272   2.246 -0.0490  0.1444 -0.1116
    1W        W52652  28.093  16.785   8.580 -0.2794 -0.0870 -0.2459
    1W        W52653  19.634   5.278   1.805  0.1318  0.1323  0.3170
    1W        W52654  22.445  27.193   9.324  0.2895  0.0939 -0.1272
    1W        W52655  10.982  12.772   1.771 -0.0427  0.0119  0.0876
    1W        W52656  19.281  21.626   8.424 -0.0326  0.0951  0.3058
    1W        W52657  26.041  29.745   1.588  0.0400 -0.2602 -0.0841
    1W        W52658  14.782   0.816   3.071 -0.1816 -0.1706 -0.0050
    1W        W52659  24.890  19.114   8.236  0.2055  0.3134 -0.0883
    1W        W52660  28.639   8.598   8.234 -0.1608  0.2484 -0.1644
    1W        W52661  10.600  17.470   0.373  0.1455 -0.1614  0.2234
    1W        W52662  15.830  15.686   9.013  0.1447 -0.2251  0.3084
    1W        W52663   9.165  14.191   1.522 -0.1389 -0.0074 -0.0208
    1W        W52664  23.280  18.011   8.210 -0.3977 -0.3124  0.3291
    1W        W52665  12.002   5.362   1.744  0.3447  0.1429 -0.2780
    1W        W52666  18.443   4.818   7.651  0.1081 -0.0736  0.1171
    1W        W52667   8.456  29.728   6.988 -0.3666  0.3015  0.2780
    1W        W52668  11.335   8.257   7.295 -0.0247  0.0843 -0.1886
    1W        W52669  10.972  15.465   8.502 -0.0760  0.1731 -0.0231
    1W        W52670  15.987   0.784   9.461  0.2888  0.3376  0.1339
    1W        W52671   7.363  18.160   1.731  0.1223  0.0858 -0.2641
    1W        W52672  28.890  22.074   0.988  0.1157  0.0899  0.1799
    1W        W52673  28.342   0.011   2.320 -0.1628  0.1755  0.2021
    1W        W52674   1.595  24.342   1.349  0.0069 -0.1672  0.2167
    1W        W52675  21.217   8.871   0.912  0.0409 -0.2718 -0.1229
    1W        W52676  10.180  14.019   8.039  0.1460  0.0061  0.0392
    1W        W52677  18.042  10.162   0.976 -0.3537 -0.0353 -0.2718
    1W        W52678   1.915  13.624   7.018  0.1323  0.0038 -0.2510
    1W        W52679  22.573  20.938   8.290  0.0851  0.0481 -0.0399
    1W        W52680  22.840  16.392   8.820 -0.0811  0.0196  0.1300
    1W        W52681   4.902  20.409   8.583 -0.0435 -0.2075  0.1706
    1W        W52682  12.934  23.441   6.616 -0.0082 -0.1505 -0.0975
    1W        W52683  21.433   4.377   0.468  0.0741 -0.0627 -0.0941
    1W        W52684  10.421   4.705   3.435 -0.4624 -0.1062 -0.1755
    1W        W52685  17.055  10.975   9.108  0.0960  0.1097  0.3319
    1W        W52686  15.074  21.790   1.168  0.0006  0.0103  0.0151
    1W        W52687  17.571  28.053   2.234  0.0046  0.2784 -0.1760
    1W        W52688  20.574  20.872   1.757 -0.0469  0.1115  0.1842
    1W        W52689   5.015  26.824   0.500 -0.1149 -0.2077 -0.0075
    1W        W52690  21.233  17.036   1.193  0.0459  0.2152 -0.2519
    1W        W52691  20.274  21.424   0.721  0.1149 -0.1567  0.1021
    1W        W52692  14.291  12.362   0.372  0.0228  0.0356  0.1435
    1W        W52693  11.939   2.484   1.060  0.1073 -0.1862 -0.2544
    1W        W52694  23.732  12.018   0.037 -0.1384 -0.4110 -0.1615
    1W        W52695  16.547  18.576   0.768  0.2085 -0.3639  0.1792
    1W        W52696   8.569  28.263   3.031 -0.1509 -0.2163 -0.2217
    1W        W52697   4.540   7.249   1.299 -0.1020 -0.1475 -0.0361
    1W        W52698  11.869   9.120   1.981  0.0981  0.1917  0.0162
    1W        W52699  21.626   4.854   7.695  0.1458 -0.0099 -0.0761
    1W        W52700  23.345  29.311   9.248  0.1682 -0.3860 -0.0824
    1W        W52701   0.323   3.312   8.397 -0.0725 -0.2740  0.2244
    1W        W52702  18.501   1.989   6.464 -0.1676 -0.0407 -0.2149
    1W        W52703   9.537  22.535   2.015 -0.0595 -0.1104 -0.0174
    1W        W52704   8.931   5.947   8.986  0.3396 -0.1193 -0.0823
    1W        W52705  27.740  23.346   2.603 -0.2882 -0.1476  0.2567
    1W        W52706  18.663  22.524   3.356 -0.1682  0.0254  0.1104
    1W        W52707  17.537  29.328   3.028 -0.1235 -0.1982  0.0784
    1W        W52708  22.076  25.461   0.845  0.0898  0.3502  0.1150
    1W        W52709  14.409   2.714   8.581  0.0829  0.0136 -0.0443
    1W        W52710  23.564  12.892   7.311  0.0377  0.1230  0.1855
    1W        W52711  29.325   2.254   9.325 -0.0521 -0.0268  0.0450
    1W        W52712  14.065  17.601   0.868 -0.0236 -0.0113  0.1213
    1W        W52713   6.737  13.194   1.411 -0.1563 -0.2006 -0.2683
    1W        W52714  16.464   9.372   2.656 -0.1104  0.3519  0.0749
    1W        W52715  23.750  15.521   6.550 -0.0721  0.0094  0.1610
    1W        W52716  23.466  10.039   0.583  0.4297  0.0097 -0.1649
    1W        W52717  27.878   4.987   7.355  0.0183 -0.1624  0.1263
    1W        W52718   0.406  26.369   7.234 -0.0192  0.2803 -0.0900
    1W        W52719  15.582  29.707   1.347 -0.2092 -0.1755  0.3522
    1W        W52720  13.167  22.037   7.463 -0.2709 -0.2911  0.1014
    1W        W52721  16.095  16.784   7.828  0.1746  0.0087  0.0523
    1W        W52722   7.198  12.468   9.089  0.0732  0.4251 -0.2195
    1W        W52723  23.452  22.573   1.851 -0.2457 -0.0502 -0.2016
    1W        W52724   3.102  20.966   2.012  0.4021  0.1864 -0.1964
    1W        W52725   9.815   9.662   7.253 -0.1503  0.1055  0.0039
    1W        W52726   7.590   0.909   8.932  0.0735  0.1749  0.1863
    1W        W52727  13.169  28.652   3.156 -0.1187  0.0779  0.0942
    1W        W52728  27.157  21.793   1.788 -0.0496  0.0385 -0.1621
    1W        W52729  22.155  27.765   3.052 -0.0123  0.1705 -0.0042
    1W        W52730  22.603  24.911   1.690  0.1009 -0.1590  0.1114
    1W        W52731  13.600  23.696   0.403 -0.0946 -0.2229  0.3477
    1W        W52732  14.415   7.912   1.018 -0.1534 -0.2287  0.0337
    1W        W52733  20.189  19.044   7.519  0.3390 -0.1313 -0.1410
    1W        W52734  10.987  21.065   1.845 -0.2266  0.0439 -0.1024
    1W        W52735   5.351  16.558   7.755  0.0140 -0.3180 -0.1268
    1W        W52736   5.677  29.192   7.950  0.4049 -0.4091 -0.0142
    1W        W52737  15.634  13.175   6.349  0.0621  0.3089  0.0554
    1W        W52738  27.154  25.406   6.683  0.0057 -0.2941  0.1610
    1W        W52739   1.021  15.735   7.938 -0.2691  0.1569  0.2789
    1W        W52740  23.914  16.047   9.050  0.0070  0.2651 -0.2736
    1W        W52741  22.838  23.196   6.357  0.0986 -0.0642  0.0345
    1W        W52742   0.447  13.406   1.428 -0.2573  0.1104  0.0355
    1W        W52743   2.682   5.563   8.701  0.0303  0.0974 -0.2147
    1W        W52744   8.890  21.809   0.402 -0.0164 -0.0021 -0.2329
    1W        W52745  21.266  24.405   1.377  0.1960 -0.2706 -0.0632
    1W        W52746   7.849  25.870   2.229 -0.1117  0.0551  0.1494
    1W        W52747   7.547   9.794   0.978  0.1055  0.1350  0.1401
    1W        W52748   0.021  19.327   0.195  0.3807 -0.1984  0.1140
    1W        W52749  15.587  14.276   7.204 -0.3174  0.1922  0.2554
    1W        W52750   8.812  20.710   7.802  0.4746  0.0439 -0.1216
    1W        W52751   8.007  11.055   7.553  0.0337 -0.0586  0.0026
    1W        W52752   1.584   7.052   1.846  0.1070 -0.0094  0.1672
    1W        W52753   6.829   7.082   7.287  0.1830  0.1089  0.0575
    1W        W52754  17.476  14.047   2.004  0.3062  0.1844 -0.0443
    1W        W52755  17.291   6.661   2.235  0.0013  0.1881  0.0353
    1W        W52756  21.980  26.134   7.402 -0.0371 -0.0634  0.2453
    1W        W52757   2.366  23.238   0.787  0.0706  0.0243  0.0616
    1W        W52758  16.301  20.706   2.842  0.0743  0.0960 -0.1426
    1W        W52759   0.404  12.961   0.013  0.0599  0.0771 -0.1695
    1W        W52760   4.996  23.381   2.261  0.1477 -0.0497  0.1730
    1W        W52761  20.894   9.176   9.068 -0.4557 -0.1358 -0.1770
    1W        W52762  21.318   9.064   0.014  0.0009  0.1252 -0.1568
    1W        W52763  22.026  27.665   8.174 -0.1865 -0.0977 -0.0248
    1W        W52764  20.861   1.073   8.288 -0.0562  0.0584 -0.1755
    1W        W52765  27.705  19.064   8.358  0.0728 -0.3169 -0.0922
    1W        W52766   5.457  26.895   6.681  0.0156 -0.1282  0.1895
    1W        W52767  12.943  26.613   7.750  0.0533 -0.3034 -0.1839
    1W        W52768   9.252  25.565   8.043 -0.0809 -0.1151 -0.0503
    1W        W52769   9.522   7.640   0.957  0.1164  0.0739 -0.1612
    1W        W52770  13.538   4.571   7.782  0.2282  0.2779  0.2137
    1W        W52771  18.435  21.371   7.250  0.1821 -0.2990  0.1826
    1W        W52772  22.353  19.163   5.942 -0.3198  0.2674  0.1364
    1W        W52773  28.321  17.060   9.285 -0.0495  0.0155 -0.0269
    1W        W52774   2.313   4.082   7.645 -0.3511  0.1983  0.0662
    1W        W52775  15.580   0.177   7.958 -0.0466 -0.0119  0.1409
    1W        W52776  26.850  20.095   6.712  0.1243 -0.0430 -0.0450
    1W        W52777  11.857   1.203   9.131 -0.1424  0.2110  0.0816
    1W        W52778   4.357  28.811   0.391  0.0129 -0.0910 -0.1014
    1W        W52779   7.342   2.605   0.016  0.2559  0.4443  0.2035
    1W        W52780   2.038  11.748   1.393  0.0956 -0.0499 -0.1780
    1W        W52781  12.818  18.555   3.204  0.0137 -0.1053  0.0247
    1W        W52782   2.392  19.539   8.317  0.1212  0.2772 -0.1997
    1W        W52783  15.135   4.526   0.473  0.0860 -0.1524  0.1766
    1W        W52784  16.543  27.148   1.139  0.0049  0.1211 -0.1687
    1W        W52785  22.269   7.817   2.347 -0.3227  0.0010 -0.1932
    1W        W52786  18.699  22.484   0.561 -0.2666 -0.1128  0.2820
    1W        W52787  16.685  10.041   1.996  0.2089 -0.0653 -0.0085
    1W        W52788   3.353  11.698   6.760 -0.1578 -0.0410 -0.0893
    1W        W52789   5.207   9.476   9.192 -0.0012  0.1829 -0.0286
    1W        W52790   6.647  21.761   8.237 -0.1658  0.2273  0.1662
    1W        W52791   4.004  20.218   8.928  0.2256 -0.2120 -0.0959
    1W        W52792  23.150  22.515   2.464 -0.1381 -0.4324 -0.1717
    1W        W52793  21.844  18.573   8.957  0.1552 -0.1364  0.2781
    1W        W52794  25.204  18.003   8.859 -0.3206 -0.0051 -0.0232
    1W        W52795  11.665  12.766   7.569  0.0354 -0.0909  0.0234
    1W        W52796   2.424   3.449   6.668 -0.2073 -0.0833  0.0600
    1W        W52797  11.060  14.262   1.524 -0.0703 -0.1916 -0.1253
    1W        W52798  12.810   8.787   8.396 -0.1915 -0.1662 -0.0984
    1W        W52799   9.939   7.665   1.879 -0.0220  0.2817  0.1764
    1W        W52800   6.064   1.394   1.672  0.1696 -0.2520 -0.0185
    1W        W52801  15.037  16.249   1.781  0.2312  0.2583 -0.1078
    1W        W52802  22.251  18.353   0.487 -0.5453 -0.1293  0.4176
    1W        W52803   3.017   3.470   0.724  0.0975 -0.2330  0.1917
    1W        W52804  22.947   0.094   1.835  0.1818  0.2032 -0.2013
    1W        W52805  23.038  22.930   6.003 -0.3858 -0.0680 -0.0747
    1W        W52806   8.149  11.131   0.958 -0.0986  0.0766  0.0539
    1W        W52807  15.507   8.091   6.178  0.1835 -0.0249  0.0588
    1W        W52808  25.044  22.804   7.663 -0.0017 -0.2008 -0.2018
    1W        W52809  16.209  21.919   2.164 -0.0082  0.1160  0.0054
    1W        W52810  21.192  25.004   7.423  0.2033 -0.0819 -0.0717
    1W        W52811  14.455  19.695   1.283  0.1978  0.1455 -0.2019
    1W        W52812  16.294   8.291   3.458 -0.1658 -0.0230  0.0973
    1W        W52813  10.274  20.553   7.803 -0.2453  0.1523  0.1408
    1W        W52814  13.939  24.131   2.991 -0.3223 -0.1379  0.0049
    1W        W52815   0.310   1.503   6.781 -0.3763  0.0158 -0.2583
    1W        W52816   5.497   6.846   1.629 -0.0501  0.5477  0.0440
    1W        W52817  17.060  20.089   1.689  0.1126  0.4910  0.0740
    1W        W52818  26.963   7.080   9.417  0.2572  0.0949 -0.0819
    1W        W52819  18.406  26.537   2.450 -0.1764  0.1209 -0.2937
    1W        W52820  17.818  26.783   9.144 -0.2081 -0.3227  0.1815
    1W        W52821  10.339   0.806   3.444 -0.1896  0.4423  0.1748
    1W        W52822  11.122   4.746   8.409  0.0673  0.0406  0.1599
    1W        W52823   1.552  28.681   6.553 -0.1534 -0.3997 -0.1833
    1W        W52824   4.810  21.942   0.515  0.2597 -0.1152  0.0872
    1W        W52825  20.513  24.310   6.899 -0.2010 -0.1703 -0.0033
    1W        W52826  26.775  14.074   6.853 -0.0576  0.3461 -0.1927
    1W        W52827  19.449  17.052   2.643 -0.0770 -0.1698  0.2640
    1W        W52828  18.365   2.665   1.172 -0.3161 -0.1610 -0.0666
    1W        W52829  18.743  18.053   2.254  0.5029 -0.1699  0.1593
    1W        W52830   3.194   9.276   2.240 -0.1354  0.2000  0.2096
    1W        W52831  15.586   9.869   2.134 -0.0389  0.0477  0.3001
    1W        W52832  24.217   1.196   0.337  0.1171 -0.0116  0.0861
    1W        W52833   0.424   3.802   0.330  0.1635  0.1381  0.5855
    1W        W52834  25.488  20.544   6.896 -0.4270  0.2371 -0.0900
    1W        W52835  21.162  10.485   2.150 -0.1309  0.1903 -0.0748
    1W        W52836  20.377  16.786   6.992  0.0641 -0.2370  0.1402
    1W        W52837  26.535   5.414   1.338 -0.0438  0.1767 -0.0708
    1W        W52838   2.436  13.489   0.270 -0.0329  0.2834  0.1701
    1W        W52839  17.271   0.441   7.614 -0.2326 -0.0510  0.0109
    1W        W52840  27.042  15.712   9.222  0.1178  0.2108 -0.2389
    1W        W52841  28.810  18.722   8.492  0.1452 -0.0573  0.1243
    1W        W52842  13.790   3.728   9.161 -0.1480  0.3261  0.0011
    1W        W52843   7.687   1.884   2.587 -0.2336 -0.0011 -0.1403
    1W        W52844  10.598  17.444   7.703 -0.0170 -0.0748  0.1232
    1W        W52845   7.546  10.922   8.176  0.1648  0.2726  0.0230
    1W        W52846  23.627   7.610   0.517 -0.2129 -0.1509 -0.0375
    1W        W52847   2.560  25.074   2.361  0.0391  0.2448 -0.2514
    1W        W52848  21.885  17.914   6.735 -0.0825 -0.1179 -0.3661
    1W        W52849  28.499  28.255   7.386 -0.0575 -0.1933  0.0632
    1W        W52850  26.102   6.256   7.111 -0.0563  0.1557 -0.1022
    1W        W52851  26.251   2.426   8.307  0.0391  0.1614  0.1009
    1W        W52852  12.667  13.593   8.851 -0.0988  0.0848  0.1096
    1W        W52853  15.733  18.594   1.402  0.0233 -0.0659  0.1467
    1W        W52854  14.083   9.820   0.226 -0.3757 -0.0014  0.2408
    1W        W52855  18.610  26.966   1.340 -0.2388 -0.0087 -0.0773
    1W        W52856  21.014  19.273   6.616  0.0652  0.0953 -0.1033
    1W        W52857   9.654  21.124   0.876 -0.0627 -0.1306 -0.2018
    1W        W52858   5.224  27.342   6.579  0.0189  0.2098  0.0552
    1W        W52859  27.020   0.450   3.671  0.1961 -0.0101 -0.1564
    1W        W52860  19.362  14.864   0.511  0.0050 -0.1873  0.2962
    1W        W52861  27.270   0.491   8.090  0.3795  0.2343  0.1468
    1W        W52862  11.854   0.661   7.988 -0.1892  0.0279  0.0458
    1W        W52863  18.366  22.436   6.577  0.3032 -0.0530 -0.0867
    1W        W52864  27.171  21.972   7.191  0.2114  0.1064 -0.0035
    1W        W52865  17.278  12.759   1.440 -0.0093  0.0660 -0.3632
    1W        W52866  18.534  29.267   0.180 -0.1015 -0.1433  0.1806
    1W        W52867   0.652  16.615   0.754 -0.2913  0.1350 -0.1934
    1W        W52868   6.092  19.418   9.516 -0.0647 -0.1688 -0.0838
    1W        W52869  27.080   3.577   8.274 -0.4171  0.2362  0.0827
    1W        W52870  24.641  19.236   6.042 -0.0714  0.1991  0.0960
    1W        W52871   7.737  13.206   7.981 -0.1352 -0.2948 -0.3419
    1W        W52872  17.562  24.736   6.368  0.2532  0.0852  0.1075
    1W        W52873  12.978   4.151   9.356  0.2209 -0.1701  0.4385
    1W        W52874  21.451   7.951   0.408 -0.0854 -0.1477 -0.0277
    1W        W52875  23.914   1.696   7.353  0.0222 -0.0714  0.3928
    1W        W52876   7.653   5.015   1.629  0.5776 -0.0342  0.2971
    1W        W52877   8.263  18.790   8.316  0.2181  0.1359 -0.2111
    1W        W52878   1.280  12.383   8.525  0.0697 -0.1778 -0.3426
    1W        W52879  24.362  25.369   7.561  0.2485  0.1033 -0.2322
    1W        W52880   9.427  23.695   1.207  0.3010 -0.1877 -0.3321
    1W        W52881  10.093  13.845   9.309  0.1083 -0.0139 -0.0760
    1W        W52882  20.056  28.805   1.635 -0.0773 -0.2661  0.3043
    1W        W52883   5.518  11.947   2.115  0.0802  0.0923  0.0858
    1W        W52884  20.296   2.645   2.378  0.2948  0.1666 -0.2077
    1W        W52885  16.691  15.152   8.994 -0.1001 -0.0785  0.0057
    1W        W52886  21.213   6.985   8.839 -0.1785 -0.0335 -0.3453
    1W        W52887  21.250  12.193   0.927 -0.1143 -0.0401  0.1795
    1W        W52888  21.486  24.852   7.805  0.0616 -0.0122  0.1183
    1W        W52889   3.242  11.357   0.777 -0.4044  0.0667  0.1447
    1W        W52890  23.403  26.347   2.673  0.3800 -0.3653 -0.2142
    1W        W52891   7.921  24.000   2.195  0.2358 -0.0611  0.1996
    1W        W52892  13.779   7.361   9.391  0.0681 -0.2507 -0.0323
    1W        W52893   2.931  16.613   8.792 -0.0468  0.1323  0.2257
    1W        W52894   1.812  15.312   0.739 -0.0181 -0.3659  0.0040
    1W        W52895  21.018   9.456   0.306  0.2060 -0.0121  0.1115
    1W        W52896  10.926   9.853   8.561 -0.2429  0.1573  0.0427
    1W        W52897  24.781   4.516   7.980  0.0421 -0.3502 -0.0519
    1W        W52898  22.140   3.252   1.126  0.3037 -0.1124  0.4388
    1W        W52899  15.441  14.487   1.498  0.1908  0.0038  0.1009
    1W        W52900  27.456   5.609   7.091  0.0925 -0.3447 -0.0201
    1W        W52901  28.699   8.671   2.753 -0.1915  0.1866  0.0912
    1W        W52902   1.951  13.010   8.154 -0.0495 -0.0969 -0.0544
    1W        W52903  10.031   7.866   2.590 -0.3572  0.2270  0.2577
    1W        W52904   9.673  17.194   0.047 -0.2045  0.0921 -0.0825
    1W        W52905  23.229   8.050   1.271 -0.1362 -0.1228  0.0701
    1W        W52906  20.262  29.405   2.318  0.0365  0.1708 -0.1062
    1W        W52907  18.267   1.166   6.988 -0.0106  0.1259 -0.0521
    1W        W52908   6.116   3.332   9.179 -0.1671 -0.1728 -0.3783
    1W        W52909  17.037  13.189   0.283 -0.0085 -0.2153  0.1839
    1W        W52910  10.779  18.331   0.832  0.2879 -0.0407 -0.0451
    1W        W52911   4.420   7.492   0.892  0.0595  0.0274  0.1811
    1W        W52912  10.639  11.828   9.084 -0.2886 -0.0981 -0.0354
    1W        W52913  25.249  11.855   8.507  0.1341  0.0520 -0.0586
    1W        W52914  25.852  19.389   7.334  0.1359 -0.1255 -0.0068
    1W        W52915  13.466  29.716   8.478 -0.1860 -0.2963 -0.1139
    1W        W52916  14.986   9.889   7.985  0.1040  0.0424 -0.0919
    1W        W52917  22.473  28.425   1.694 -0.1881 -0.2614 -0.0614
    1W        W52918  12.997  20.330   1.954  0.0521 -0.1188 -0.2063
    1W        W52919  17.704  27.711   9.500  0.0951 -0.1878 -0.2096
    1W        W52920  29.329  22.200   7.088 -0.0284 -0.1234 -0.1522
    1W        W52921   5.459   0.506   0.320 -0.0186 -0.0269  0.1617
    1W        W52922   2.329  29.370   0.603  0.1551 -0.1246  0.1737
    1W        W52923   2.257   5.684   7.323 -0.1276 -0.1338  0.3636
    1W        W52924  17.115   2.912   9.011  0.4705  0.2559 -0.1311
    1W        W52925  11.819  14.945   9.505  0.0649  0.0976  0.1936
    1W        W52926  19.603   8.969   1.170 -0.0946  0.0791 -0.2756
    1W        W52927   3.976  25.962   0.180  0.0406 -0.0327  0.0031
    1W        W52928   5.748  16.954   7.356  0.1348  0.2936 -0.0428
    1W        W52929  20.068  18.554   7.411 -0.0921  0.1063  0.0493
    1W        W52930  28.714  10.689   2.030 -0.1854  0.0348  0.1581
    1W        W52931  27.605  24.942   2.022  0.0297  0.1326  0.1251
    1W        W52932   8.761  13.783   6.747 -0.1340 -0.0950  0.1348
    1W        W52933   3.713   3.219   0.332  0.4814  0.0952  0.1251
    1W        W52934  25.990  28.083   7.121  0.1113  0.0801 -0.1005
    1W        W52935  10.993  13.565   7.653  0.1688  0.0066 -0.4096
    1W        W52936  10.532   4.787   7.838 -0.0620  0.2499  0.0304
    1W        W52937  20.565   6.416   0.936  0.0489 -0.2024 -0.1680
    1W        W52938  16.396   3.607   9.281  0.1848  0.0006  0.4291
    1W        W52939   0.851   5.105   6.641  0.1483 -0.0205  0.3486
    1W        W52940  13.530  14.570   2.217 -0.0714 -0.1519 -0.0204
    1W        W52941   8.866   2.511   0.988  0.1282  0.0987 -0.0508
    1W        W52942   2.373  27.599   2.550  0.1070 -0.0333  0.0381
    1W        W52943   8.616   1.451   7.111 -0.0631 -0.1418 -0.4508
    1W        W52944  25.874   4.965   8.403  0.4349 -0.2234 -0.1059
    1W        W52945   0.032  26.610   8.439  0.0689  0.0715  0.4510
    1W        W52946  20.878  24.476   1.707 -0.0431 -0.1989 -0.1794
    1W        W52947  27.559  10.640   0.199 -0.2572 -0.1220  0.0521
    1W        W52948   6.657  15.385   9.393  0.1797 -0.0023 -0.3128
    1W        W52949  13.810   6.949   0.147 -0.1800 -0.3326 -0.1125
    1W        W52950  12.781  14.933   2.249  0.1337  0.1899 -0.1948
    1W        W52951  29.318   6.532   8.183 -0.0977 -0.0818  0.0369
    1W        W52952  29.489  29.206   2.019  0.0749  0.3650 -0.1532
    1W        W52953  22.351   5.208   7.500 -0.2801  0.3155 -0.0961
    1W        W52954  13.263  24.814   1.294 -0.3683 -0.3419 -0.0554
    1W        W52955   2.186  22.980   7.157  0.0593  0.2455  0.0434
    1W        W52956  25.717   7.255   7.914 -0.2132 -0.1077  0.1343
    1W        W52957  22.385  18.544   1.859 -0.2843 -0.1910  0.1114
    1W        W52958   2.965  26.409   7.354 -0.2084  0.1168 -0.1479
    1W        W52959   4.244   2.601   0.698  0.1624 -0.0116 -0.2791
    1W        W52960  28.394  29.153   0.099  0.0672 -0.1637 -0.1478
    1W        W52961   8.615  15.810   0.959  0.1365  0.2524  0.3318
    1W        W52962   8.342   0.085   1.453 -0.2388 -0.0813 -0.0294
    1W        W52963   5.871  25.897   3.285  0.4584 -0.1541 -0.0631
    1W        W52964   7.350  24.980   6.189 -0.3706  0.1596  0.0193
    1W        W52965  11.530   5.991   0.428  0.2150  0.0754 -0.0860
    1W        W52966  20.901   6.807   6.992  0.1559  0.0921 -0.3602
    1W        W52967  11.081  16.666   1.034 -0.2093 -0.2698 -0.0680
    1W        W52968  10.989   3.795   2.974 -0.2188 -0.1119 -0.3354
    1W        W52969  28.874  15.480   9.516 -0.0907 -0.0434 -0.1615
    1W        W52970  25.026  29.015   3.022 -0.0138  0.0329  0.2147
    1W        W52971  25.729   2.213   8.427  0.0646 -0.2111  0.1896
    1W        W52972   8.495   0.427   8.056  0.2303  0.1340  0.2288
    1W        W52973  29.509  28.375   9.480 -0.1534 -0.0180  0.0583
    1W        W52974  18.281  29.627   3.455 -0.0404  0.2694 -0.0083
    1W        W52975  23.704   0.221   1.486 -0.1203  0.1470 -0.1226
    1W        W52976   6.518  16.894   7.223  0.1664 -0.0567  0.0952
    1W        W52977  26.511   3.792   7.305 -0.3107 -0.0794 -0.1332
    1W        W52978  17.434  26.571   7.925  0.2817  0.4442  0.1866
    1W        W52979   9.613  12.932   6.957 -0.0813 -0.2658  0.2195
    1W        W52980  12.920  24.310   2.987 -0.3982  0.3130 -0.0184
    1W        W52981  10.031  17.365   7.664 -0.2082  0.2058  0.2549
    1W        W52982  28.077   4.970   0.513 -0.2320 -0.0916  0.1197
    1W        W52983  10.603   8.552   1.859  0.0016  0.3552  0.1826
    1W        W52984  23.373   3.711   0.925 -0.1507 -0.0361  0.0669
    1W        W52985  18.994   6.865   0.969  0.0851 -0.0979 -0.0110
    1W        W52986   8.280  22.308   8.774 -0.2868  0.0747  0.0414
    1W        W52987  24.664  26.306   9.025  0.0249 -0.0377  0.2280
    1W        W52988  24.936  25.258   0.589 -0.2895  0.2090  0.0217
    1W        W52989  25.894  13.653   6.849  0.0042  0.0844 -0.1128
    1W        W52990  12.946  25.511   8.818  0.2606  0.1902 -0.1669
    1W        W52991  15.971  11.663   2.652 -0.0419  0.2353  0.0790
    1W        W52992   1.506   2.360   1.315 -0.1681  0.1317 -0.2182
    1W        W52993  26.471  12.480   1.248 -0.0723  0.0198  0.1048
    1W        W52994  19.749   4.108   2.937 -0.0249 -0.2333 -0.0111
    1W        W52995  29.342  24.366   6.758 -0.0575  0.1393  0.1777
    1W        W52996  11.719   2.745   8.581  0.0624  0.3660  0.1358
    1W        W52997  28.982  16.707   8.210 -0.0226 -0.1513  0.4817
    1W        W52998  22.796  20.408   6.031 -0.0556 -0.0874 -0.3150
    1W        W52999  13.961  16.895   8.344 -0.0508 -0.1905 -0.1979
    1W        W53000  15.246  22.024   8.440 -0.0579  0.3572  0.0930
    1W        W53001  25.376  21.420   8.468  0.2567 -0.0764 -0.2280
    1W        W53002  28.650   1.612   3.095 -0.2839  0.1098 -0.0283
    1W        W53003  18.881   5.294   7.638 -0.0608 -0.0210 -0.2705
    1W        W53004  12.062  15.797   1.613 -0.1096  0.0433  0.0475
    1W        W53005   6.425   1.771   3.627 -0.1861  0.4497 -0.0225
    1W        W53006  19.350  12.453   9.534 -0.0224 -0.2724 -0.0211
    1W        W53007   0.329  22.255   8.340 -0.0059  0.0737 -0.0800
    1W        W53008  17.862   0.310   8.800 -0.1320 -0.3029  0.0809
    1W        W53009  22.532   5.404   0.760 -0.2671 -0.0840 -0.0356
    1W        W53010  13.139  18.051   6.314 -0.1611  0.0992  0.2115
    1W        W53011  10.750   1.970   0.732 -0.2212 -0.3637  0.2578
    1W        W53012  29.234  26.478   7.830 -0.0368  0.0511 -0.0530
    1W        W53013  13.277  27.229   1.035 -0.0745 -0.0550  0.1527
    1W        W53014   7.703   7.340   1.275  0.2135  0.2803  0.0214
    1W        W53015   5.523   8.491   7.103  0.2128 -0.0759 -0.1688
    1W        W53016  14.225  17.814   9.384  0.0516 -0.0045  0.2423
    1W        W53017   5.316  29.432   1.593  0.2253 -0.2509  0.3133
    1W        W53018  13.941  10.639   8.614 -0.0660  0.3177 -0.0485
    1W        W53019  23.346  13.395   8.327 -0.0186 -0.1642 -0.2379
    1W        W53020  26.302   2.749   9.199  0.2161 -0.0024  0.3285
    1W        W53021  18.433  21.038   8.999 -0.0903 -0.0500 -0.1411
    1W        W53022  21.709   4.811   0.576  0.0821  0.0264 -0.1189
    1W        W53023   3.883  27.200   1.739 -0.4917 -0.0118  0.1575
    1W        W53024  16.957   9.473   2.594 -0.3047 -0.1996  0.0141
    1W        W53025  11.185  19.565   1.904  0.3383  0.4198 -0.3222
    1W        W53026   6.770   8.349   0.173  0.1871 -0.2446 -0.2425
    1W        W53027  13.567   8.844   1.852  0.1622  0.2595  0.0169
    1W        W53028  13.451   6.695   7.666  0.1098  0.3200  0.1236
    1W        W53029  21.126   6.340   7.059 -0.0137  0.2263 -0.0733
    1W        W53030  24.167   8.464   1.133 -0.2103  0.0199 -0.1035
    1W        W53031  13.018   5.880   7.898  0.1971 -0.2371 -0.1860
    1W        W53032  28.754  29.245   9.173  0.1292  0.2707  0.0689
    1W        W53033  23.310   7.987   0.245 -0.1642 -0.1506  0.0010
    1W        W53034  15.827  29.434   0.445 -0.1301  0.1322  0.0435
    1W        W53035   9.581  29.102   8.173 -0.4883 -0.1718  0.2174
    1W        W53036  29.185   1.040   2.420 -0.0429  0.0395 -0.1847
    1W        W53037  23.030  24.291   7.670 -0.2120 -0.1802 -0.0750
    1W        W53038  29.772   3.424   1.161 -0.0093 -0.1555 -0.3310
    1W        W53039  17.863   1.608   0.274 -0.0450  0.0520  0.0195
    1W        W53040  18.719   9.720   1.435 -0.1478  0.1601  0.1017
    1W        W53041  13.797  10.729   1.083  0.2040 -0.0351 -0.0107
    1W        W53042  22.056  16.900   1.984  0.0253 -0.0319 -0.0017
    1W        W53043  11.371  29.697   1.223 -0.0540 -0.0224 -0.1104
    1W        W53044  11.182  25.152   0.202 -0.0850  0.2509  0.3229
    1W        W53045  15.749   0.972   3.311 -0.1127 -0.0607 -0.2049
    1W        W53046  12.491  14.906   1.371  0.0312  0.2921 -0.1990
    1W        W53047  19.261  19.061   6.400 -0.1522 -0.0423  0.0761
    1W        W53048  28.850  18.299   9.484  0.2733  0.1431  0.1168
    1W        W53049  26.383   5.010   7.459 -0.3626 -0.5844  0.0279
    1W        W53050  26.704  29.516   9.083 -0.0496 -0.2674 -0.0005
    1W        W53051  18.002  16.376   6.996  0.1282 -0.0335  0.0229
    1W        W53052  19.374  15.993   2.422 -0.2615 -0.1098 -0.2629
    1W        W53053   1.477   6.852   7.093  0.0883 -0.0630  0.1361
    1W        W53054  28.000  12.308   8.718 -0.2015 -0.2204 -0.3371
    1W        W53055   1.160   0.110   8.985 -0.0037  0.0827  0.0167
    1W        W53056  27.696  25.005   2.546 -0.1729  0.0533  0.3411
    1W        W53057  16.901  24.685   2.140  0.0293 -0.0214  0.0635
    1W        W53058   6.895  12.768   9.343 -0.0945 -0.1327 -0.3391
    1W        W53059  15.995  24.913   1.275 -0.1473  0.0425  0.3455
    1W        W53060  26.087  26.860   2.534 -0.1206  0.1709 -0.0430
    1W        W53061   8.602  27.645   7.361 -0.0766 -0.0060 -0.0729
    1W        W53062   2.512   6.494   6.669  0.0898 -0.0716  0.2321
    1W        W53063   1.925  20.242   6.867  0.1404  0.0434 -0.0706
    1W        W53064  23.213   0.377   1.480 -0.3930  0.1923 -0.1982
    1W        W53065   8.515  18.304   7.619 -0.1397  0.0559 -0.0486
    1W        W53066   1.726  29.050   9.119  0.2699 -0.1145 -0.0410
    1W        W53067  15.883   9.080   6.441  0.0586  0.0840 -0.1517
    1W        W53068   6.787  29.738   6.901  0.1847  0.1892  0.2087
    1W        W53069  17.792  14.724   8.214  0.2101 -0.0705  0.1556
    1W        W53070  25.735  24.293   7.596 -0.1064 -0.0594 -0.3134
    1W        W53071  24.872   1.482   7.663 -0.1580 -0.0221 -0.0043
    1W        W53072  23.315  17.479   6.268  0.0614  0.4073 -0.0255
    1W        W53073  26.809  15.252   0.938 -0.1423  0.1477  0.1582
    1W        W53074   3.693  19.010   1.448  0.0041  0.2002  0.0185
    1W        W53075   3.472  13.443   7.839 -0.1289 -0.0097 -0.1507
    1W        W53076   6.600   6.617   7.120 -0.1105  0.0170  0.0435
    1W        W53077   8.690  26.595   6.936  0.2005 -0.1542  0.0588
    1W        W53078   2.875   9.410   8.897  0.1233  0.0007  0.0296
    1W        W53079  26.520  19.259   6.636  0.1473  0.0116 -0.2826
    1W        W53080  28.013  25.603   6.322  0.0223  0.3332  0.0474
    1W        W53081  23.818  21.771   6.458  0.1133 -0.0527  0.0365
    1W        W53082  28.426  14.711   1.548  0.0439 -0.1759 -0.1730
    1W        W53083  13.720  23.896   8.252  0.0463  0.2974 -0.0406
    1W        W53084   5.455  16.078   9.458  0.1309 -0.0465  0.0143
    1W        W53085  17.204  20.667   0.616 -0.2331 -0.2205  0.0354
    1W        W53086  16.819  20.135   7.215 -0.0731 -0.0801 -0.0126
    1W        W53087   5.127   4.628   9.412 -0.1787  0.0028  0.0430
    1W        W53088   8.181   2.488   7.982 -0.0966 -0.0002  0.2458
    1W        W53089  16.942  13.807   8.634  0.2447 -0.3582 -0.0858
    1W        W53090   2.109  15.212   9.345 -0.1085  0.2464  0.2818
    1W        W53091   4.900   0.083   0.821  0.2902  0.2118  0.1122
    1W        W53092  18.460  14.140   6.652 -0.0492 -0.1087 -0.1783
    1W        W53093   5.222   8.817   2.568  0.2476 -0.0427  0.0490
    1W        W53094   1.440   7.218   8.334  0.0897  0.5254 -0.1492
    1W        W53095  12.291   1.432   1.442  0.1414  0.0841  0.1978
    1W        W53096  19.692  14.522   1.264 -0.1277  0.3081 -0.0803
    1W        W53097   8.099  13.425   1.389  0.0013 -0.1712 -0.1184
    1W        W53098  17.071  22.438   7.611  0.0370  0.1821 -0.1386
    1W        W53099   6.565  16.101   8.098 -0.1714 -0.3248 -0.1558
    1W        W53100  25.519  24.684   7.946 -0.2523 -0.2466  0.0811
    1W        W53101  22.333  17.947   9.376  0.0324  0.3067  0.1561
    1W        W53102   6.004   8.896   3.118  0.1908  0.0460 -0.0648
    1W        W53103  18.170  28.556   1.153 -0.0888  0.1454 -0.0350
    1W        W53104   5.683  24.278   6.868  0.0096  0.3920  0.0542
    1W        W53105   0.749   3.463   1.913  0.0031  0.3804  0.0444
    1W        W53106  13.372   2.425   7.402 -0.0707 -0.2014  0.2062
    1W        W53107  19.741   7.795   7.495  0.0013 -0.3696 -0.2503
    1W        W53108   0.320   7.642   7.761  0.2249  0.0084  0.0346
    1W        W53109   4.980  11.892   8.967 -0.3278  0.0558  0.4185
    1W        W53110  27.602  20.795   7.852  0.1548  0.0262 -0.2427
    1W        W53111  19.355  22.265   0.152 -0.2591  0.1255 -0.1703
    1W        W53112   8.357  27.507   6.942 -0.1343  0.0763  0.3234
    1W        W53113  17.817   7.622   8.054 -0.2037 -0.1241 -0.2566
    1W        W53114  16.643   8.487   0.012 -0.0590 -0.0643  0.1383
    1W        W53115  11.936   6.410   0.055 -0.0848  0.0235 -0.3134
    1W        W53116   8.351   2.468   2.644 -0.2818 -0.2430  0.1818
    1W        W53117   7.618  28.701   1.780 -0.1266  0.0523 -0.1443
    1W        W53118  18.561  15.006   9.083  0.0485 -0.1361 -0.0410
    1W        W53119  20.339   2.442   0.194 -0.0499 -0.0162  0.4271
    1W        W53120  14.714  14.510   7.993 -0.2361 -0.1483  0.2099
    1W        W53121  24.085  23.847   7.948 -0.0162 -0.2042 -0.1237
    1W        W53122   7.715  22.715   7.664 -0.1234  0.0808 -0.0835
    1W        W53123  22.720   5.385   3.151 -0.0122  0.1027 -0.2305
    1W        W53124   1.135  29.465   9.337 -0.0353 -0.2364  0.1228
    1W        W53125  15.639  11.429   1.322 -0.0099 -0.1747  0.1443
    1W        W53126  24.591   3.052   0.900  0.3417 -0.3826  0.0852
    1W        W53127  18.113  26.069   0.652 -0.3213  0.1810 -0.1611
    1W        W53128  20.497  22.651   1.221  0.0857 -0.0067  0.0609
    1W        W53129  13.325   9.556   7.983 -0.4105  0.0497 -0.3618
    1W        W53130  18.643  27.647   8.195  0.2120  0.1780 -0.0564
    1W        W53131   3.002  24.917   0.949  0.0694  0.0894  0.3256
    1W        W53132   9.135   1.604   0.595 -0.1255  0.1043  0.0954
    1W        W53133   8.558   1.275   0.930 -0.0815 -0.1261 -0.0920
    1W        W53134   1.883  25.067   8.701 -0.0248  0.0301 -0.1248
    1W        W53135   9.359   0.583   3.316 -0.1211 -0.0071 -0.0980
    1W        W53136  17.519   0.224   1.227 -0.4079  0.3480  0.1059
    1W        W53137   9.174  17.052   8.219 -0.1063 -0.0589  0.1070
    1W        W53138   7.760  20.481   0.475 -0.0214  0.2172 -0.3313
    1W        W53139  23.000   9.630   7.135 -0.1537 -0.1078 -0.2038
    1W        W53140  23.874   2.022   0.380  0.3011 -0.0036  0.2476
    1W        W53141  14.795   8.100   6.014 -0.0232 -0.0106 -0.2462
    1W        W53142  27.100  16.160   7.908 -0.0771 -0.0602 -0.0403
    1W        W53143  22.007   7.091   7.030 -0.0536 -0.1603 -0.0140
    1W        W53144  11.062  17.979   8.945 -0.0949 -0.2554 -0.1636
    1W        W53145   4.375   5.093   9.257 -0.0138 -0.1343 -0.0826
    1W        W53146  26.352   5.212   9.550 -0.1635  0.1401  0.0551
    1W        W53147  25.493  28.062   3.123 -0.0339  0.0128  0.0120
    1W        W53148  17.819   8.658   6.381  0.1510 -0.0587 -0.1091
    1W        W53149   5.803   4.684   3.945  0.0151 -0.1090 -0.0830
    1W        W53150  16.045   7.795   9.523  0.0845 -0.4215 -0.0574
    1W        W53151  26.095  21.442   7.439  0.0327 -0.4000 -0.0802
    1W        W53152   2.742   2.908   0.482  0.1788 -0.2099 -0.0385
    1W        W53153  22.414  27.339   8.829 -0.1940  0.0328 -0.1433
    1W        W53154  17.943  21.235   0.792 -0.2754 -0.0387  0.0506
    1W        W53155   0.685   0.390   7.308 -0.1170 -0.2087 -0.0125
    1W        W53156  14.991   5.686   8.578 -0.2376  0.5067 -0.0450
    1W        W53157  21.242   4.757   2.415  0.2381  0.0749 -0.0543
    1W        W53158   0.705   2.908   9.172  0.2521 -0.1899  0.2699
    1W        W53159   8.659  15.533   1.816  0.1106  0.1183 -0.0725
    1W        W53160   4.222  23.072   9.092 -0.0086  0.1266 -0.0041
    1W        W53161  16.279  21.770   1.669  0.2739 -0.0358 -0.0249
    1W        W53162  26.895  19.643   8.382 -0.1172  0.0014  0.1308
    1W        W53163  20.954   6.400   7.924 -0.0211 -0.2138 -0.1271
    1W        W53164   5.582   9.256   6.335 -0.1552 -0.0543  0.1449
    1W        W53165  20.540   4.137   3.192 -0.4099 -0.1442 -0.0005
    1W        W53166  16.256   1.837   0.818  0.1340  0.1704 -0.0679
    1W        W53167  25.831   7.480   6.592  0.1906  0.4064  0.2097
    1W        W53168   8.452  10.369   9.151 -0.1304  0.0471  0.2366
    1W        W53169  17.289  23.983   1.538  0.1717  0.3044 -0.0463
    1W        W53170  21.627  24.003   9.402 -0.0175  0.0203  0.2406
    1W        W53171  22.916  15.456   7.148  0.0850 -0.0884  0.1364
    1W        W53172  16.281   5.942   2.799  0.0997 -0.0053  0.0667
    1W        W53173   5.112   5.789   1.856  0.0853 -0.3457 -0.1331
    1W        W53174   8.125   8.553   0.228 -0.1382 -0.0710  0.1372
    1W        W53175   7.394  29.616   2.708 -0.2531  0.2580  0.0293
    1W        W53176  21.030   7.476   1.572 -0.1264 -0.2674  0.5768
    1W        W53177   1.724  14.308   9.335 -0.0879 -0.2781  0.1690
    1W        W53178  11.428   8.834   2.149 -0.1029  0.0222 -0.1056
    1W        W53179   1.297  26.061   8.689 -0.0087  0.1553 -0.2572
    1W        W53180  27.833   6.556   0.031  0.2683  0.1462 -0.1494
    1W        W53181   0.173   6.525   6.663 -0.1968  0.0369 -0.2093
    1W        W53182   0.766   0.453   9.042 -0.3003  0.2741 -0.6754
    1W        W53183  12.329   5.488   7.229 -0.3371 -0.0357 -0.2115
    1W        W53184  14.301  11.446   2.820 -0.1224  0.1626 -0.0095
    1W        W53185  17.513  26.796   6.756  0.1812 -0.1253 -0.1898
    1W        W53186  26.720   9.915   7.327  0.3358 -0.1998  0.1036
    1W        W53187  24.817  13.490   7.110 -0.0728 -0.1790 -0.2410
    1W        W53188  28.965  17.575   5.839 -0.0868  0.0110 -0.1021
    1W        W53189  23.966  10.563   7.708  0.0237 -0.1241 -0.2474
    1W        W53190  13.306  19.442   7.960  0.3836 -0.0070  0.0122
    1W        W53191  23.505  25.056   8.980  0.0449 -0.1257  0.3023
    1W        W53192  24.739   1.874   3.641  0.0000  0.5975  0.2256
    1W        W53193  23.980  25.575   2.030 -0.2351 -0.0925 -0.2892
    1W        W53194  13.610  28.255   3.447 -0.0183  0.2054  0.2158
    1W        W53195  18.272  29.089   7.474  0.1897  0.2581 -0.2645
    1W        W53196  12.510  16.355   0.315 -0.1459  0.0473 -0.0409
    1W        W53197  20.018  18.858   6.967 -0.2801  0.2198 -0.3036
    1W        W53198  23.715  24.877   7.139 -0.0078  0.3323  0.0487
    1W        W53199   7.102  16.143   0.147  0.4789  0.0213  0.0483
    1W        W53200  22.036  22.884   2.095  0.0908 -0.0199 -0.1307
    1W        W53201  13.672  15.051   0.970  0.1350  0.2388  0.0328
    1W        W53202  15.756  21.862   7.414  0.0718 -0.1739  0.1164
    1W        W53203   4.763  14.299   9.010  0.0841 -0.0143  0.0267
    1W        W53204  24.554  21.998   6.792 -0.2560  0.1187 -0.3577
    1W        W53205  22.556   5.985   1.224  0.1118  0.1537  0.1339
    1W        W53206   7.251   5.548   0.713 -0.2783  0.2116 -0.1680
    1W        W53207  10.758  18.648   7.752 -0.1175  0.1019  0.0320
    1W        W53208  19.701  10.108   1.187  0.0506  0.2577  0.0069
    1W        W53209  20.261  23.364   6.132  0.1885 -0.2175 -0.3285
    1W        W53210  29.415  10.073   0.499 -0.0110 -0.0182 -0.3830
    1W        W53211  20.974   7.097   7.526 -0.0462  0.0126 -0.0358
    1W        W53212  27.174  13.852   7.109 -0.0372  0.0764 -0.2147
    1W        W53213  14.824  13.626   9.099 -0.3724  0.1911  0.0848
    1W        W53214  14.381  24.044   6.356  0.0423 -0.0273  0.0055
    1W        W53215  20.872  10.156   1.057  0.1491 -0.2463 -0.2796
    1W        W53216   3.832  17.261   1.265  0.0020 -0.1405 -0.0248
    1W        W53217   5.481  18.462   1.512 -0.2165  0.0152  0.2111
    1W        W53218  15.147  16.734   9.386 -0.0855 -0.0224  0.3194
    1W        W53219  16.204   1.599   8.261 -0.0564 -0.3016 -0.0369
    1W        W53220   4.941   8.980   9.492 -0.2459  0.3486  0.0378
    1W        W53221  14.353   6.933   1.133 -0.1940 -0.2824 -0.0264
    1W        W53222  28.793  21.208   1.638  0.2533 -0.1443  0.0844
    1W        W53223  10.513  28.573   8.137  0.1442  0.2039  0.1983
    1W        W53224  20.919   5.622   1.371 -0.1762 -0.3939  0.0444
    1W        W53225  10.868  22.706   1.899 -0.1021  0.3157  0.0455
    1W        W53226  20.612  19.042   2.602  0.0109  0.0933  0.3566
    1W        W53227  24.686   8.524   1.220  0.0935 -0.1598 -0.0785
    1W        W53228   4.808  18.683   8.303  0.1043 -0.1570  0.4634
    1W        W53229  15.194  10.046   7.066  0.2485  0.0143  0.0378
    1W        W53230  14.759   8.088   2.368 -0.0531  0.0789 -0.0320
    1W        W53231  19.383  25.859   2.726 -0.4628 -0.0835  0.1532
    1W        W53232  11.282  22.310   7.745  0.0887 -0.4800 -0.0093
    1W        W53233  11.726  13.143   1.694 -0.1336  0.2069 -0.2720
    1W        W53234   5.920  11.171   8.650 -0.0286  0.0188  0.2298
    1W        W53235   4.073  28.238   7.339  0.0835  0.0198 -0.0924
    1W        W53236  17.275  20.662   8.709 -0.2422  0.1036 -0.0019
    1W        W53237  27.959  29.335   2.774 -0.1205 -0.3198  0.0017
    1W        W53238   8.988  27.689   0.063 -0.1027 -0.1375 -0.1553
    1W        W53239  26.913   9.577   1.588  0.0423  0.0790  0.2116
    1W        W53240  17.446   0.011   9.353 -0.1709  0.0214 -0.0751
    1W        W53241   2.777  14.354   7.059 -0.3335  0.0150 -0.2330
    1W        W53242  21.424   3.885   2.931 -0.0425 -0.2835  0.1584
    1W        W53243  11.717  26.762   8.451  0.1267  0.1214  0.4120
    1W        W53244  23.709   6.088   8.170 -0.1174 -0.1113  0.2168
    1W        W53245  12.027   2.323   8.430  0.3674  0.2337  0.2759
    1W        W53246  23.360  14.093   7.695 -0.0170 -0.1179  0.1038
    1W        W53247  25.123  14.307   8.106  0.0447  0.1103  0.0413
    1W        W53248  27.658  15.082   8.609  0.1762 -0.0690  0.1795
    1W        W53249  11.731   2.232   7.428  0.3240  0.1431  0.1153
    1W        W53250   2.228   2.486   2.171  0.1570 -0.0308  0.3581
    1W        W53251  22.789  21.460   7.506  0.1803 -0.0158 -0.1860
    1W        W53252   3.090  13.937   8.887  0.0278 -0.3513 -0.1822
    1W        W53253   9.208  19.469   7.636  0.1498 -0.3713 -0.3952
    1W        W53254   1.800   5.028   1.546  0.2141 -0.0548  0.1598
    1W        W53255  16.530  13.743   0.820  0.0933 -0.0847 -0.4842
    1W        W53256  19.159   9.633   7.044  0.2289 -0.0861  0.0683
    1W        W53257   0.921   7.554   9.314  0.1637 -0.2970 -0.0283
    1W        W53258  16.671  24.620   0.756  0.0493  0.3331 -0.0347
    1W        W53259  21.760  21.783   6.963 -0.1508 -0.2348  0.0756
    1W        W53260  20.981   6.019   9.049  0.1722  0.0998 -0.2712
    1W        W53261   0.456   9.393   9.168  0.0170  0.3426  0.2603
    1W        W53262   6.815   6.870   8.975 -0.0008 -0.0123 -0.1939
    1W        W53263   2.164  13.445   8.930 -0.2055  0.2264 -0.1917
    1W        W53264  28.290  19.241   0.843  0.4068  0.2020  0.2043
    1W        W53265  28.571   5.971   0.438  0.0852  0.3913  0.0449
    1W        W53266  21.358   9.742   8.637 -0.0895 -0.0376  0.4159
    1W        W53267   8.845  23.503   7.577  0.3622  0.4932 -0.2142
    1W        W53268  15.653  17.706   0.840 -0.0486  0.0084  0.2558
    1W        W53269  18.645   9.263   6.891 -0.0981  0.4681  0.2503
    1W        W53270   3.299  29.129   8.348  0.3106 -0.2796 -0.0168
    1W        W53271   8.395  10.233   0.311  0.2014  0.3441  0.2064
    1W        W53272  11.362   7.392   7.413  0.2756 -0.0774  0.5262
    1W        W53273  11.422  21.249   2.041 -0.1308 -0.4822  0.1300
    1W        W53274  14.967  29.601   2.390  0.1758  0.0562 -0.0884
    1W        W53275   7.733   2.690   9.228 -0.0731 -0.1068 -0.2585
    1W        W53276  20.193  13.965   1.758  0.1398 -0.0889 -0.1499
    1W        W53277  18.221  17.890   0.584  0.2192 -0.2052  0.2197
    1W        W53278  23.684   6.240   1.990 -0.0748  0.0360  0.2631
    1W        W53279  23.372   6.831   0.230  0.3183 -0.2353 -0.2402
    1W        W53280  23.672  13.139   6.292  0.0992  0.2367 -0.3094
    1W        W53281  16.769  14.358   0.112  0.2815  0.1336 -0.1761
    1W        W53282  12.753  21.838   7.541  0.1116 -0.0315 -0.1844
    1W        W53283  16.112   9.368   1.520  0.3940 -0.0274 -0.0974
    1W        W53284  23.254  12.882   5.706 -0.0157  0.1344  0.2036
    1W        W53285  18.262   7.172   2.208  0.0282 -0.0745 -0.2978
    1W        W53286  17.971   8.115   9.214  0.3629 -0.2798  0.3700
    1W        W53287  21.023   1.941   0.585 -0.1413  0.0531 -0.0687
    1W        W53288   7.075  17.431   7.811 -0.0675  0.0450 -0.1890
    1W        W53289  26.323   8.838   7.358 -0.0518 -0.0596  0.1057
    1W        W53290  23.248  25.054   7.512 -0.1304  0.0816 -0.1185
    1W        W53291  10.302  23.722   6.983  0.1009  0.0138  0.0891
    1W        W53292  21.522  12.174   7.160  0.3939 -0.1713  0.0110
    1W        W53293  28.253  27.392   2.149  0.0929 -0.1007 -0.0801
    1W        W53294   5.725   2.650   2.103  0.0020 -0.0778 -0.2124
    1W        W53295   0.444   7.423   9.461  0.1664  0.2742 -0.0067
    1W        W53296   1.043  13.015   0.791 -0.1199 -0.2008  0.2592
    1W        W53297   4.783   7.964   7.578  0.3284 -0.0274 -0.0676
    1W        W53298  25.033  25.639   2.027 -0.3044  0.1562  0.0724
    1W        W53299   5.520  21.833   9.241  0.2146  0.0128  0.0661
    1W        W53300   2.331  11.695   6.687  0.1791  0.0598  0.3291
    1W        W53301  18.794  26.297   0.035  0.2733  0.0398  0.2335
    1W        W53302  24.435  15.849   8.258  0.1212  0.0328 -0.1758
    1W        W53303   5.609   5.577   7.975  0.2165 -0.2163  0.2033
    1W        W53304  12.796   1.439   7.767 -0.2135 -0.1117 -0.3476
    1W        W53305  19.391   7.981   7.193  0.1089 -0.2585 -0.2523
    1W        W53306   1.325   4.801   8.635 -0.2754  0.2115  0.2092
    1W        W53307  20.408  20.064   2.482 -0.2300  0.0227  0.2391
    1W        W53308  28.550  26.140   8.016 -0.0587 -0.0292  0.1757
    1W        W53309  15.680   6.202   7.961 -0.3275 -0.1088 -0.3874
    1W        W53310  14.385  11.642   2.378  0.0917 -0.2924  0.2817
    1W        W53311   7.510  12.144   1.846 -0.0447  0.1918  0.1693
    1W        W53312   0.872  19.653   9.296  0.1430  0.0316 -0.0612
    1W        W53313  15.978  11.409   0.104  0.1954 -0.0432 -0.0988
    1W        W53314  16.343  13.657   2.868  0.0234  0.0708  0.2428
    1W        W53315  20.482  28.571   2.583 -0.4199  0.1497  0.3641
    1W        W53316  16.759  23.418   2.387  0.2153  0.2192 -0.2946
    1W        W53317   8.877  28.934   9.453 -0.1398 -0.0336 -0.0068
    1W        W53318   9.173  25.624   1.825 -0.5006  0.2994 -0.3004
    1W        W53319  19.999  16.476   0.072 -0.0338 -0.0212  0.1992
    1W        W53320  12.558  27.112   6.617 -0.1301 -0.0077  0.1750
    1W        W53321  29.224  25.592   9.113 -0.1691 -0.3489  0.2483
    1W        W53322  10.080  17.698   0.494 -0.0693 -0.1104  0.1708
    1W        W53323  11.944  18.333   9.312  0.0640 -0.1047  0.3142
    1W        W53324  25.258   8.672   1.475  0.2304 -0.1121 -0.0368
    1W        W53325  20.155  22.745   6.921 -0.0635  0.2685  0.1389
    1W        W53326  29.397  16.552   7.938  0.2520  0.0048  0.2528
    1W        W53327  13.117   0.378   7.991  0.0715  0.1556  0.2572
    1W        W53328  14.796  13.926   7.690  0.0057 -0.0528  0.1742
    1W        W53329   4.736  19.202   8.382  0.0711  0.1778 -0.3427
    1W        W53330   8.538  27.290   1.231  0.0510  0.0357 -0.1724
    1W        W53331  20.628  27.755   2.817  0.1159  0.1174 -0.0924
    1W        W53332  13.777   9.280   2.183  0.1592 -0.1112 -0.3704
    1W        W53333  14.337  29.608   0.075  0.0676 -0.1257  0.0899
    1W        W53334  22.034   7.760   8.203 -0.3153 -0.2210 -0.1766
    1W        W53335  20.371  10.554   9.206 -0.2926 -0.0535  0.1517
    1W        W53336  25.878   3.929   8.518  0.0074 -0.4209  0.1097
    1W        W53337  14.353  28.032   6.434  0.2861  0.1029 -0.1661
    1W        W53338   5.885  15.232   9.148 -0.2400 -0.1378 -0.0903
    1W        W53339  29.352  10.705   8.251 -0.0684  0.2697 -0.1198
    1W        W53340  25.665  22.852   6.792  0.2837 -0.2528  0.0087
    1W        W53341   3.922  24.111   8.221  0.1826 -0.0547  0.0273
    1W        W53342  23.016  13.156   7.321  0.0949 -0.1710  0.0003
    1W        W53343  17.042  27.968   1.054 -0.0460  0.1357  0.3720
    1W        W53344   2.766  28.592   7.463  0.1583 -0.0315  0.2048
    1W        W53345  25.538  13.484   9.149 -0.1067  0.2006  0.1534
    1W        W53346  17.856  24.847   8.427 -0.3184 -0.1047  0.2188
    1W        W53347   8.914   0.371   7.718 -0.2418  0.1465  0.0534
    1W        W53348  19.064  15.166   8.911  0.1758  0.0392  0.3847
    1W        W53349   3.158   0.259   2.475 -0.1938  0.2365 -0.1036
    1W        W53350   3.692  25.519   6.702  0.0857  0.0246 -0.0207
    1W        W53351  15.281   9.630   1.399  0.0621 -0.2607  0.0655
    1W        W53352   2.702   7.038   8.463 -0.2073 -0.4315 -0.0026
    1W        W53353   3.788   5.044   9.295 -0.1812 -0.2252  0.1315
    1W        W53354   0.990  29.662   1.072 -0.0471  0.0402 -0.1321
    1W        W53355   0.532  22.802   2.532  0.0848 -0.0405 -0.2594
    1W        W53356   7.828   3.357   0.293  0.2643 -0.1994 -0.0994
    1W        W53357  22.983   9.627   9.081  0.1727 -0.0054  0.3449
    1W        W53358   8.426   3.343   7.780  0.1883  0.1389 -0.0764
    1W        W53359  20.236  27.706   3.111  0.0831  0.0167  0.0118
    1W        W53360  26.783   2.042   2.756 -0.0905  0.1403  0.1531
    1W        W53361  19.574  17.757   1.011  0.0660 -0.0580  0.0286
    1W        W53362   0.156  15.495   8.544 -0.0259 -0.0046 -0.2438
    1W        W53363  20.225   5.467   0.493  0.0282 -0.0282  0.0160
    1W        W53364   8.846  27.944   0.479 -0.3487 -0.1198  0.2142
    1W        W53365  16.368   9.196   9.115 -0.0424  0.0703 -0.0026
    1W        W53366  23.651  28.954   2.038 -0.0597  0.3305 -0.1197
    1W        W53367   1.592  21.101   8.497  0.3253 -0.0058  0.2938
    1W        W53368   6.862   3.312   8.038 -0.0860 -0.2087  0.0666
    1W        W53369  12.035  20.985   7.760  0.0145  0.0960  0.0419
    1W        W53370  17.005   6.313   1.421  0.0990 -0.0406  0.2497
    1W        W53371   3.261  16.947   8.960 -0.2481 -0.0408  0.0983
    1W        W53372   6.425  20.582   8.592  0.0669  0.0686  0.1787
    1W        W53373  22.662  28.605   3.171  0.3717 -0.0163  0.0885
    1W        W53374  29.359  20.189   9.521  0.0136  0.0584 -0.3401
    1W        W53375  17.473  17.204   7.966  0.0149  0.3927  0.0885
    1W        W53376  23.724   0.145   7.985 -0.1021  0.0177  0.2438
    1W        W53377   7.489  26.127   8.033 -0.1450  0.0551 -0.0145
    1W        W53378  26.635  25.174   0.618 -0.1212  0.1850 -0.2769
    1W        W53379  11.385  11.703   7.341 -0.4283 -0.2290  0.1457
    1W        W53380   2.272  23.333   9.175  0.2930  0.0624  0.2341
    1W        W53381  10.986   1.189   1.248  0.1771  0.1547 -0.3192
    1W        W53382   1.297  19.553   8.875 -0.2297 -0.1440 -0.0027
    1W        W53383  28.909  24.570   2.635 -0.2034  0.1129 -0.0120
    1W        W53384  17.985  15.438   9.542 -0.5406  0.0113 -0.2095
    1W        W53385   7.587  10.320   0.883 -0.3345 -0.1080  0.1793
    1W        W53386  11.704  29.074   7.350 -0.0613 -0.0456  0.1044
    1W        W53387   5.868  10.233   1.754  0.2786 -0.1366  0.2110
    1W        W53388  11.628  26.816   0.206 -0.2155 -0.1337  0.1065
    1W        W53389  22.918  21.305   2.029  0.0151  0.0114  0.1747
    1W        W53390   3.014  22.366   1.323 -0.0878 -0.0766  0.1882
    1W        W53391  10.109   7.991   7.891  0.1859 -0.0552  0.0626
    1W        W53392   5.507  22.007   2.176 -0.2488 -0.2226 -0.1265
    1W        W53393   0.239   2.456   2.932 -0.0991  0.3563 -0.0236
    1W        W53394  12.281  20.135   6.709 -0.1417 -0.0425 -0.3366
    1W        W53395  24.371  13.585   5.582  0.1334  0.2410 -0.2124
    1W        W53396  27.854  24.471   2.006 -0.3337 -0.0604 -0.0392
    1W        W53397  16.231   6.446   2.927  0.0955 -0.1777  0.3324
    1W        W53398  17.166   6.676   3.129  0.1925 -0.1970  0.1017
    1W        W53399  15.097  26.989   0.366 -0.0124 -0.0897  0.2448
    1W        W53400  12.248  22.559   2.424 -0.2356 -0.2692 -0.1692
    1W        W53401  16.013   8.578   7.408  0.2220 -0.0050  0.1540
    1W        W53402  13.565   1.625   1.492 -0.1039 -0.2201 -0.0412
    1W        W53403  13.710  16.488   1.987 -0.2429  0.0007 -0.0747
    1W        W53404   2.283  25.419   0.415 -0.3005 -0.0630  0.0015
    1W        W53405   7.498  13.170   1.504  0.1048  0.1034 -0.2531
    1W        W53406   9.142  15.827   0.852  0.2778  0.1316 -0.2767
    1W        W53407  13.293  21.479   2.630  0.0407 -0.1417 -0.0744
    1W        W53408   3.786  26.493   2.443 -0.0699  0.0861 -0.2652
    1W        W53409  16.972  26.288   8.005 -0.2215 -0.1080 -0.0673
    1W        W53410  17.660   5.478   7.639 -0.3399  0.2593  0.1820
    1W        W53411  12.769  16.147   7.741  0.4551  0.0987 -0.2036
    1W        W53412  27.088  25.035   0.287  0.0001  0.0862  0.1606
    1W        W53413  17.596  18.504   6.668 -0.2275 -0.0423 -0.2122
    1W        W53414  20.252   5.605   8.690 -0.2190  0.2694 -0.0992
    1W        W53415  26.762   3.220   1.203  0.0248 -0.1750  0.0753
    1W        W53416  19.360   4.788   8.684 -0.1566 -0.1802  0.2350
    1W        W53417  23.117  11.567   8.858 -0.1298 -0.0444 -0.2075
    1W        W53418  22.478  25.330   7.591  0.1016  0.0150  0.1122
    1W        W53419  19.976   8.760   7.465 -0.3639  0.1202 -0.2459
    1W        W53420  21.010  14.153   0.928  0.2382 -0.1920 -0.0451
    1W        W53421   3.522  15.670   1.372  0.4400  0.0094  0.1085
    1W        W53422  15.095  26.676   9.501  0.0418  0.0621  0.0439
    1W        W53423  26.617  18.190   9.026 -0.1608  0.2053 -0.3266
    1W        W53424  17.506   9.798   8.524  0.3095  0.0352  0.0846
    1W        W53425  11.362  18.932   7.115 -0.1195  0.1783  0.2861
    1W        W53426  13.882   2.297   1.000  0.3156  0.0580  0.1033
    1W        W53427  11.779  22.718   8.778 -0.1108  0.1509  0.0596
    1W        W53428  20.973   4.172   7.838  0.3756  0.0244 -0.0499
    1W        W53429   6.133  17.615   0.302 -0.0117 -0.0507  0.0281
    1W        W53430  12.097  17.854   0.992 -0.0741 -0.0285 -0.1472
    1W        W53431  12.504   8.875   7.116 -0.1455  0.2572  0.2415
    1W        W53432  15.663  11.278   0.450 -0.0607  0.0194  0.0315
    1W        W53433  14.911  20.816   8.585 -0.0593 -0.1017  0.0336
    1W        W53434   4.285   3.787   2.596 -0.1849  0.1426 -0.0961
    1W        W53435   0.876   9.868   8.211  0.0350 -0.0106 -0.0979
    1W        W53436   3.381  14.479   0.187 -0.2351 -0.1910 -0.1624
    1W        W53437   7.691  13.188   2.575  0.1142  0.0098 -0.3744
    1W        W53438   7.340   3.480   8.330  0.0093 -0.0443  0.0397
    1W        W53439  29.062   1.883   3.113  0.0348  0.1788  0.2200
    1W        W53440  17.059  22.469   6.412  0.2460  0.2508  0.0028
    1W        W53441   8.393  25.796   8.624 -0.2890  0.0979  0.4886
    1W        W53442  20.870   2.031   8.567  0.0392 -0.0217 -0.0576
    1W        W53443  27.094  11.747   0.742  0.2873 -0.4072  0.1375
    1W        W53444  25.356   4.101   7.305  0.0890 -0.1029  0.3755
    1W        W53445  21.830   7.388   7.484  0.1654 -0.0966  0.0200
    1W        W53446  15.119   9.464   6.886  0.2420  0.1229  0.0199
    1W        W53447  17.244  20.387   7.399  0.2798 -0.0851 -0.2994
    1W        W53448  20.374  24.309   1.528  0.0995  0.3324 -0.0715
    1W        W53449  26.233  28.997   9.185 -0.1496 -0.1166  0.2671
    1W        W53450  24.709   5.104   9.207 -0.0643 -0.2741 -0.0481
    1W        W53451  17.382  14.601   6.906 -0.2017 -0.0882 -0.0084
    1W        W53452   5.970   3.832   7.126  0.2000  0.1298 -0.0974
    1W        W53453   7.386   0.554   2.930 -0.3193  0.2884  0.0926
    1W        W53454   4.741  16.281   1.334 -0.0283  0.2346 -0.1023
    1W        W53455  19.268  29.177   1.999  0.0102  0.0532  0.0865
    1W        W53456  20.158  24.406   0.929 -0.3005 -0.2750 -0.1423
    1W        W53457  20.829   0.434   1.052  0.0135  0.2041 -0.0823
    1W        W53458  20.370  15.331   6.060  0.1286  0.0010 -0.2004
    1W        W53459  29.548   1.968   2.867  0.1731  0.0958  0.0092
    1W        W53460   5.445  13.808   0.030  0.3748 -0.0126  0.1134
    1W        W53461   0.782   3.496   8.626 -0.2158 -0.0763  0.0872
    1W        W53462  20.964  13.374   2.209  0.0642 -0.3045 -0.1055
    1W        W53463  29.363  14.988   8.956  0.1356 -0.2998 -0.2522
    1W        W53464  15.670   3.363   1.468  0.1286 -0.2169 -0.0214
    1W        W53465  12.330  13.562   8.015 -0.0648  0.2430  0.1034
    1W        W53466   1.491  14.829   7.716  0.1375 -0.0775  0.0927
    1W        W53467  23.184  20.291   7.742 -0.1248  0.1124 -0.0758
    1W        W53468  10.325  13.202   1.392 -0.0332 -0.0455  0.0525
    1W        W53469  18.207  14.986   1.943  0.0408 -0.1911  0.0487
    1W        W53470   2.114  16.040   6.822 -0.2361  0.0441 -0.0675
    1W        W53471  24.183   0.105   0.821  0.0442  0.1414  0.0394
    1W        W53472   9.141  24.513   7.546 -0.0942  0.0859 -0.1038
    1W        W53473   3.651   8.783   8.821  0.0014 -0.0793  0.3428
    1W        W53474   6.986  17.978   0.160  0.3119  0.0840 -0.0571
    1W        W53475  24.232   3.605   8.412 -0.2333  0.1169 -0.3602
    1W        W53476   5.004   6.467   3.592  0.1569  0.1306 -0.1207
    1W        W53477   0.242  13.017   1.193  0.2303  0.2080  0.0188
    1W        W53478  17.685  20.065   9.497 -0.2112  0.1105  0.0136
    1W        W53479  21.306  25.228   8.946 -0.1431  0.3232  0.3286
    1W        W53480   6.030  25.180   7.983  0.2036  0.0423 -0.1694
    1W        W53481   0.559   5.833   2.914  0.0289 -0.0248  0.1219
    1W        W53482  23.392  17.952   6.923  0.0510  0.2611  0.1979
    1W        W53483  14.820  29.693   6.969 -0.2309 -0.2478  0.0138
    1W        W53484   4.667  17.445   1.912 -0.2811  0.0607 -0.1024
    1W        W53485  29.151  10.397   8.909 -0.3797  0.2463  0.0883
    1W        W53486  19.629  26.640   0.095 -0.0666  0.2125 -0.0555
    1W        W53487   1.855  27.049   6.724 -0.1104 -0.0411  0.0194
    1W        W53488  14.021  16.673   1.220  0.2183 -0.0556  0.0997
    1W        W53489   6.608   5.492   8.008  0.1713 -0.2259  0.3253
    1W        W53490  16.542  27.787   7.915 -0.1543  0.1870  0.0418
    1W        W53491   2.538   1.704   2.181 -0.2024 -0.5885 -0.2337
    1W        W53492   9.620  19.529   6.647 -0.0633 -0.2396  0.2682
    1W        W53493  19.339   6.089   0.608 -0.1286 -0.1474  0.1201
    1W        W53494  25.052   8.273   1.022 -0.0871  0.0376 -0.1656
    1W        W53495   6.524  12.042   8.865 -0.3204 -0.0275 -0.0063
    1W        W53496   5.253  11.578   8.576  0.0067  0.0167  0.1160
    1W        W53497  23.870   7.514   2.488  0.2082  0.0817 -0.1018
    1W        W53498  20.723   5.483   7.818 -0.0584  0.0344 -0.0373
    1W        W53499  15.613  15.877   7.791  0.0967  0.0979  0.0785
    1W        W53500   6.831  16.301   8.944  0.1012  0.0502 -0.3140
    1W        W53501   5.132  20.081   8.209 -0.4095  0.0397  0.0778
    1W        W53502   6.955  29.628   7.594 -0.1240 -0.0559  0.2402
    1W        W53503   6.204   4.547   7.802 -0.0478 -0.2789 -0.0462
    1W        W53504  26.768   7.883   2.180  0.1038 -0.3702  0.1796
    1W        W53505   6.701   7.776   2.661  0.1866 -0.0511  0.3328
    1W        W53506  16.336  26.858   6.708 -0.0528 -0.0103 -0.0307
    1W        W53507  25.661  28.445   3.373 -0.0803  0.1496 -0.3344
    1W        W53508  29.179  18.698   0.180 -0.1371 -0.0928 -0.1891
    1W        W53509  25.986   6.915   7.248 -0.0416  0.4718  0.2685
    1W        W53510   3.536   4.881   1.126  0.1782 -0.0344  0.4276
    1W        W53511  28.896   1.689   1.600 -0.1116  0.1156 -0.1994
    1W        W53512   5.909   6.485   1.649  0.4398  0.0335  0.2218
    1W        W53513   4.080  25.101   7.455 -0.2075 -0.2713 -0.0021
    1W        W53514   6.121   3.695   8.380  0.0074 -0.1511  0.1392
    1W        W53515   0.424   6.206   2.156 -0.1078  0.1552 -0.2399
    1W        W53516  28.966  12.183   2.740  0.0551  0.0901 -0.1724
    1W        W53517   3.685  13.700   7.428  0.2113  0.1302 -0.0562
    1W        W53518  25.737  14.747   6.041  0.0985  0.0348 -0.2179
    1W        W53519  25.405   1.737   1.657  0.0672  0.1554 -0.0974
    1W        W53520  13.548  14.443   0.771 -0.0433 -0.4665  0.0636
    1W        W53521   1.626  15.177   9.151 -0.2500  0.0925  0.1502
    1W        W53522  23.862  19.040   6.319  0.1551 -0.2396  0.1317
    1W        W53523   6.367  28.452   9.322 -0.1740 -0.2085 -0.1184
    1W        W53524  11.500  29.417   6.886 -0.1972 -0.1842  0.3355
    1W        W53525  17.716   6.333   6.964 -0.3137 -0.0664  0.0932
    1W        W53526  18.566  16.776   0.565 -0.3430 -0.3352  0.1140
    1W        W53527  17.314   5.008   0.198 -0.1544 -0.0108 -0.4582
    1W        W53528  14.603  14.102   1.363 -0.0142  0.3562  0.1533
    1W        W53529  21.664   0.560   1.335  0.0407 -0.0421 -0.2597
    1W        W53530   3.900  27.017   3.150  0.3942 -0.0775 -0.3026
    1W        W53531   4.825   2.768   6.971 -0.0237  0.1139 -0.1989
    1W        W53532  10.575  17.334   9.485 -0.1296 -0.2318  0.2637
    1W        W53533  23.803  18.064   0.782  0.2915  0.1554  0.1155
    1W        W53534  25.245  16.929   5.310  0.0003  0.1226  0.4229
    1W        W53535   7.450  20.650   1.679 -0.3055 -0.0275  0.2739
    1W        W53536  23.888   1.063   2.815 -0.4114  0.0435  0.0799
    1W        W53537  17.464   9.922   2.443  0.1867 -0.1162  0.1920
    1W        W53538  28.452  13.476   1.189  0.0115 -0.0187  0.0891
    1W        W53539   8.903  22.790   7.581 -0.0962  0.1571 -0.3369
    1W        W53540  26.404   2.180   6.038  0.0506  0.1007 -0.0668
    1W        W53541   9.017   5.111   8.279  0.4465  0.2898 -0.0980
    1W        W53542   5.374  28.420   2.700 -0.0242 -0.1859 -0.3207
    1W        W53543  10.152  18.575   7.335  0.0325 -0.1856 -0.0798
    1W        W53544  24.007  29.703   2.671 -0.0094  0.2003 -0.0452
    1W        W53545  16.504  25.562   9.220 -0.0756 -0.0795 -0.2581
    1W        W53546   9.002   6.970   8.523 -0.1104  0.4008 -0.2917
    1W        W53547   3.966  16.581   6.585  0.0190  0.1915 -0.0654
    1W        W53548  28.530   2.297   1.920  0.1353  0.1800 -0.1924
    1W        W53549  14.995   2.131   0.371  0.1429 -0.0336 -0.3241
    1W        W53550   6.422  22.536   7.114 -0.1855 -0.0571  0.2837
    1W        W53551   5.262  14.296   8.748 -0.1532 -0.0002 -0.1008
    1W        W53552  17.816   9.255   9.104 -0.0797 -0.3704  0.2261
    1W        W53553  27.017  25.525   0.829 -0.0085  0.0008  0.0255
    1W        W53554  11.360  15.776   8.458 -0.1385  0.1787 -0.4306
    1W        W53555  23.928   3.656   1.311  0.1180  0.0831  0.0859
    1W        W53556  14.215  13.668   6.661  0.0480 -0.2680 -0.1546
    1W        W53557  11.164   2.866   7.353 -0.0772  0.1543 -0.1518
    1W        W53558  22.620   2.714   7.097 -0.2314  0.0709 -0.1460
    1W        W53559  15.215  20.361   2.591 -0.0438  0.2498 -0.0018
    1W        W53560  10.779  29.226   2.423  0.0306 -0.1426  0.1111
    1W        W53561  29.653   1.588   8.995 -0.0063 -0.0809 -0.1697
    1W        W53562  27.669  28.147   2.629 -0.0223 -0.2641 -0.0455
    1W        W53563   6.175  17.607   0.780  0.0677 -0.2048 -0.1372
    1W        W53564  27.728  23.004   7.578 -0.1295 -0.0273 -0.0629
    1W        W53565  25.812  13.093   9.485 -0.3294 -0.1523 -0.2998
    1W        W53566  27.426  25.210   9.425  0.0345 -0.0479 -0.2182
    1W        W53567   5.869   7.650   0.594  0.2497  0.0871 -0.2142
    1W        W53568  16.493  28.780   0.142 -0.1121  0.0138 -0.0886
    1W        W53569  21.252  15.758   6.024 -0.0470 -0.1520  0.0003
    1W        W53570   3.247   2.549   8.848 -0.3239  0.0704  0.3536
    1W        W53571  25.167  27.077   3.115  0.2424 -0.0250  0.2134
    1W        W53572   0.865  19.532   1.718  0.1916 -0.1436 -0.0786
    1W        W53573  15.709  16.056   2.427 -0.1699  0.2447 -0.0272
    1W        W53574  18.283   9.953   1.367 -0.1059 -0.0141 -0.1889
    1W        W53575  23.102  11.280   7.693 -0.3350 -0.1373 -0.2170
    1W        W53576  10.384   4.788   9.335  0.0071  0.2022 -0.1817
    1W        W53577  28.145  20.970   9.193  0.2580  0.0935 -0.0621
    1W        W53578   0.791   1.465   0.533  0.0966 -0.0866 -0.2298
    1W        W53579  27.484  12.496   8.282  0.0254 -0.0588  0.3360
    1W        W53580  28.614   1.762   8.161  0.1514 -0.1410 -0.0321
    1W        W53581   1.803  13.805   9.302 -0.2189  0.0982 -0.2027
    1W        W53582  18.784  23.980   7.302  0.0113  0.0971 -0.3388
    1W        W53583  13.038  11.648   8.259  0.0729 -0.0948  0.4329
    1W        W53584   5.963   0.927   2.068  0.2042 -0.0435 -0.0816
    1W        W53585  13.032  18.502   8.088 -0.0984  0.2138 -0.5381
    1W        W53586   7.093  12.523   8.629 -0.2169  0.1514  0.3322
    1W        W53587   8.351  23.441   9.357 -0.1033  0.0186  0.1028
    1W        W53588   0.032  26.805   2.653 -0.3013 -0.1236  0.0640
    1W        W53589  25.961  19.240   8.385 -0.0250  0.0368  0.1611
    1W        W53590  16.028   1.801   7.343  0.0912  0.0381  0.2535
    1W        W53591   8.443  21.853   8.533 -0.0677 -0.1079  0.2030
    1W        W53592  23.967  14.499   6.013 -0.1376  0.0440  0.0377
    1W        W53593  18.857   2.063   7.347  0.2996  0.0856 -0.0771
    1W        W53594  28.491  13.051   1.643  0.1104 -0.0042 -0.3214
    1W        W53595   4.700  12.480   2.919 -0.0061 -0.1435 -0.3147
    1W        W53596  25.515  13.272   8.699 -0.0588  0.1076 -0.0952
    1W        W53597  27.458  21.529   6.757 -0.2869 -0.2037  0.1606
    1W        W53598  14.418  22.444   0.121 -0.2123 -0.1721  0.0130
    1W        W53599   1.188   6.536   9.159  0.1993 -0.0115  0.1247
    1W        W53600   7.003   4.245   3.227  0.3768 -0.0105 -0.0153
    1W        W53601  18.858  19.652   7.848  0.0177  0.3467 -0.0775
    1W        W53602  11.545  19.515   1.306 -0.0343  0.0918 -0.0943
    1W        W53603  28.117   5.806   7.805 -0.0430 -0.1178  0.2344
    1W        W53604  26.750  13.171   7.255  0.1526  0.1373  0.1186
    1W        W53605  13.060   9.191   8.160 -0.1641 -0.3073  0.0371
    1W        W53606   7.536  28.463   9.256  0.0093 -0.0278 -0.0728
    1W        W53607   5.309  25.452   0.941 -0.1997  0.1054 -0.0060
    1W        W53608  23.228   2.767   3.557  0.1277 -0.0516  0.1964
    1W        W53609   6.289   1.818   7.500  0.0629  0.1924  0.1105
    1W        W53610  15.973   8.436   1.957 -0.1926  0.1376 -0.2350
    1W        W53611  17.614   8.563   2.834  0.0168  0.3364  0.1347
    1W        W53612  28.581   1.846   7.159  0.2715 -0.1422  0.0541
    1W        W53613  23.318  20.003   9.272  0.1349 -0.0625  0.0325
    1W        W53614   1.861   1.308   8.152  0.0364 -0.0094  0.0305
    1W        W53615  19.145   3.800   1.037  0.1320 -0.1009  0.1659
    1W        W53616  17.562  19.276   0.414 -0.0572 -0.0275 -0.4360
    1W        W53617  15.887  24.795   9.277 -0.1373 -0.1300 -0.0186
    1W        W53618   1.293  25.849   3.172 -0.1578  0.2363  0.0082
    1W        W53619   9.681  19.052   2.096 -0.0661 -0.0076 -0.0445
    1W        W53620  15.574   9.196   6.965  0.1376  0.0190 -0.0163
    1W        W53621   2.688   5.768   8.224 -0.1034  0.1444  0.0975
    1W        W53622   7.548  11.177   7.222  0.1111 -0.1622 -0.0403
    1W        W53623  14.815   9.538   1.273  0.3372  0.2097 -0.0523
    1W        W53624  24.076  12.766   7.083 -0.0156 -0.0818  0.0475
    1W        W53625  13.409  22.147   1.084 -0.1573  0.1039 -0.1057
    1W        W53626   5.207  23.229   0.128  0.1539  0.1006  0.0138
    1W        W53627   8.844  21.381   1.171 -0.2274  0.1430 -0.1725
    1W        W53628   7.586  25.338   1.435 -0.1176  0.1196  0.1344
    1W        W53629  24.297   2.333   8.873 -0.1743  0.1028 -0.1586
    1W        W53630   9.934   4.671   0.201  0.1544  0.2678 -0.4055
    1W        W53631  14.621   5.479   0.888  0.2632  0.0546  0.0536
    1W        W53632   6.919   3.751   0.828 -0.1490 -0.0336  0.0158
    1W        W53633  29.530  18.825   8.143  0.1009  0.3402 -0.0720
    1W        W53634  23.223  21.682   1.946 -0.0105  0.0031  0.1024
    1W        W53635  13.409  23.196   1.536 -0.1714  0.0548  0.3637
    1W        W53636  22.839  21.791   7.987 -0.0899 -0.2520  0.1715
    1W        W53637  23.208  29.297   1.191 -0.2615  0.1560  0.2880
    1W        W53638   9.002   7.725   1.155 -0.0005 -0.0349  0.0320
    1W        W53639  27.465  13.348   7.986  0.1181  0.0168 -0.1446
    1W        W53640   9.820  12.120   7.550 -0.4582 -0.0909 -0.2035
    1W        W53641  13.399  18.418   0.541 -0.1843  0.1499  0.0060
    1W        W53642   4.439   8.956   9.496 -0.0783  0.0805 -0.3979
    1W        W53643   8.742  10.467   8.616 -0.1841 -0.1548  0.2190
    1W        W53644  10.371   2.215   9.484 -0.0361 -0.3181 -0.0774
    1W        W53645  29.616   5.566   7.341 -0.0860  0.1404 -0.0675
    1W        W53646  11.688   0.490   1.955  0.0483  0.0046  0.0033
    1W        W53647   4.440  10.377   1.886 -0.3647 -0.0947 -0.1882
    1W        W53648  18.989   8.330   7.224  0.0538  0.0489  0.0235
    1W        W53649  14.198   4.519   9.056  0.0162 -0.0062 -0.0307
    1W        W53650  20.781   7.994   0.995 -0.2070  0.0653  0.3085
    1W        W53651  21.604  11.658   7.288  0.2279 -0.0159  0.0860
    1W        W53652  25.043  29.767   1.320  0.0761  0.0695  0.0399
    1W        W53653  24.661  24.033   0.798 -0.1999  0.3313 -0.0623
    1W        W53654   5.995  24.077   8.739  0.1852 -0.0350 -0.2435
    1W        W53655  20.770  18.930   7.729  0.1955 -0.0003 -0.0227
    1W        W53656   0.614   2.701   3.067 -0.0581  0.1121  0.1768
    1W        W53657  26.766   0.326   7.368 -0.0550  0.1914  0.2638
    1W        W53658   6.381  27.831   6.993 -0.3356 -0.0465  0.1079
    1W        W53659   4.095   9.699   0.661 -0.1300 -0.0902  0.2232
    1W        W53660  29.332  22.561   0.817 -0.2327 -0.2177 -0.4208
    1W        W53661  11.508   1.563   8.901 -0.1209  0.2046  0.1759
    1W        W53662   1.588   7.675   8.448  0.0272  0.2782  0.0772
    1W        W53663  27.253   9.471   1.152 -0.1457 -0.1104  0.0524
    1W        W53664  15.308  26.677   9.029 -0.0946 -0.0182  0.0239
    1W        W53665   8.230   0.438   0.705  0.1486  0.1716  0.0022
    1W        W53666   4.583   6.209   8.374  0.3787  0.2153  0.0820
    1W        W53667   3.379   4.653   0.397  0.0647 -0.2114  0.0063
    1W        W53668  18.292  13.281   6.751  0.1625  0.2647  0.0697
    1W        W53669   2.414  26.515   8.271 -0.2265 -0.1456 -0.5129
    1W        W53670  10.096   9.390   0.520 -0.1934 -0.0042  0.1377
    1W        W53671  11.402   6.726   2.855  0.2679  0.1392  0.5420
    1W        W53672   8.587  10.835   9.332  0.2441  0.1805 -0.1711
    1W        W53673   5.450   9.950   1.923  0.0134 -0.3782  0.0383
    1W        W53674   6.480  22.057   1.509 -0.0251 -0.0473  0.3804
    1W        W53675  24.400  16.145   0.296  0.0791 -0.1362  0.2063
    1W        W53676  13.490   8.666   1.224 -0.0789  0.0568 -0.0664
    1W        W53677  24.164  26.173   6.833  0.1150 -0.2467  0.1592
    1W        W53678  20.793  26.355   0.150  0.0741  0.2712  0.0704
    1W        W53679   7.618  10.611   9.506  0.1446  0.1020 -0.0309
    1W        W53680  19.854   2.774   9.098 -0.0832 -0.4321  0.3218
    1W        W53681  24.425   7.188   2.002  0.2624  0.1311  0.1161
    1W        W53682  21.936  29.638   0.911  0.3905 -0.3598 -0.2788
    1W        W53683  14.020  11.721   8.338  0.0522 -0.0349  0.0756
    1W        W53684  11.860   5.412   0.153 -0.1212  0.3563 -0.1681
    1W        W53685  14.450   5.909   7.958  0.2495 -0.0046  0.0680
    1W        W53686  26.635  26.471   2.501 -0.2638  0.1672 -0.3428
    1W        W53687  13.516  21.271   5.643  0.4459  0.1457  0.0036
    1W        W53688  20.917  12.574   0.648  0.2253 -0.2363 -0.1301
    1W        W53689  18.410   6.086   3.678 -0.0215  0.0450  0.0087
    1W        W53690  13.188  19.124   1.593 -0.0483 -0.3633  0.0501
    1W        W53691  26.714  29.451   0.947  0.0919  0.4348  0.4786
    1W        W53692   0.892   4.032   1.259 -0.2287  0.1597 -0.0421
    1W        W53693  23.211  20.827   6.669  0.0887  0.1123  0.0780
    1W        W53694  25.830  16.634   9.177 -0.0973 -0.2348 -0.2134
    1W        W53695   9.477   4.166   9.282 -0.1440  0.2091 -0.1237
    1W        W53696   5.291   1.596   7.199  0.0982  0.0624 -0.1333
    1W        W53697  27.598  16.769   8.204 -0.2093 -0.0120 -0.2835
    1W        W53698  24.839  18.399   8.767 -0.0263 -0.1873  0.0829
    1W        W53699  11.486  13.322   2.424 -0.1801  0.2459 -0.0734
    1W        W53700  28.785  16.520   0.536  0.0854  0.0165  0.2977
    1W        W53701  16.073  16.061   9.346  0.4535  0.0686 -0.2923
    1W        W53702  20.568  29.543   4.238 -0.1804 -0.1646  0.1206
    1W        W53703  29.689   2.568   1.405 -0.2749  0.1184 -0.0752
    1W        W53704   8.716  13.181   6.943 -0.4068  0.0717 -0.0010
    1W        W53705   8.893   3.381   9.089  0.0081  0.0520 -0.3378
    1W        W53706  21.786   8.957   6.856  0.1348  0.0123  0.3688
    1W        W53707  25.650   1.825   8.698  0.1704  0.2429  0.1939
    1W        W53708  21.143  16.816   5.472 -0.1358 -0.3067  0.1022
    1W        W53709  17.232  27.078   8.251  0.0732 -0.1505 -0.0953
    1W        W53710   5.851  28.852   7.599 -0.1127  0.0679 -0.1407
    1W        W53711  20.137  12.480   6.179 -0.0677 -0.1310 -0.0833
    1W        W53712   9.794  29.026   2.277 -0.1052 -0.2227 -0.0235
    1W        W53713   0.499  17.950   9.184 -0.0509 -0.3121  0.0135
    1W        W53714  17.974  29.051   8.480  0.1109 -0.0250  0.0936
    1W        W53715  11.617  18.661   7.497  0.1436  0.0718 -0.1750
    1W        W53716  26.226   5.913   8.869  0.2449  0.3245 -0.0437
    1W        W53717  18.081   0.778   1.745  0.0628 -0.3748  0.2787
    1W        W53718   4.768  11.810   0.589 -0.0152 -0.1281  0.2333
    1W        W53719  25.222  27.069   0.229  0.0031 -0.0200  0.1821
    1W        W53720   7.404  27.185   0.259  0.0026 -0.1019  0.3295
    1W        W53721   0.128  19.129   1.598  0.1725 -0.3038 -0.2105
    1W        W53722   8.222  10.213   7.056  0.1439 -0.0165  0.2584
    1W        W53723  23.089  16.634   5.837  0.2993  0.0283 -0.2921
    1W        W53724  23.465   3.428   8.010 -0.1023 -0.0737 -0.0591
    1W        W53725  20.152  13.039   0.569  0.0031  0.0416 -0.0954
    1W        W53726  11.856  21.212   1.173 -0.0579  0.0855 -0.3059
    1W        W53727  20.304  24.496   0.365 -0.0830  0.2089  0.2408
    1W        W53728  10.579  27.444   0.890  0.2422 -0.1665 -0.1356
    1W        W53729  29.786   5.977   2.142  0.1678  0.0202  0.0106
    1W        W53730  27.442  24.070   6.242  0.2735 -0.0759  0.3602
    1W        W53731  20.309  28.051   6.768  0.0351 -0.0275 -0.2879
    1W        W53732  11.535  25.007   1.304 -0.1272 -0.4849 -0.0726
    1W        W53733  27.887  12.095   8.236  0.0232 -0.3802 -0.2332
    1W        W53734   8.662  29.213   1.212  0.0223  0.1632  0.3370
    1W        W53735  12.225   5.716   0.466 -0.0973 -0.1448  0.0269
    1W        W53736  17.279  17.034   8.502 -0.0541 -0.2037  0.1148
    1W        W53737  20.524  18.064   5.516 -0.0824 -0.2459 -0.0586
    1W        W53738  23.623   1.680   3.785  0.1562  0.0535  0.2329
    1W        W53739  12.820   7.574   9.242 -0.1730  0.1875 -0.0515
    1W        W53740   4.251  17.091   9.410 -0.0446  0.0119  0.1114
    1W        W53741   5.984   9.025   7.662 -0.1784  0.0011  0.2896
    1W        W53742  25.648  13.994   9.248  0.2248  0.1094  0.2705
    1W        W53743   4.326  10.033   7.698 -0.0114 -0.0496  0.0640
    1W        W53744  11.892   8.967   8.609 -0.0744  0.0523 -0.0472
    1W        W53745   1.001  11.228   7.281 -0.0816  0.0639  0.0076
    1W        W53746  11.092   6.265   3.026 -0.1509 -0.0332  0.2928
    1W        W53747  15.147  19.458   0.127 -0.0332  0.1194  0.4162
    1W        W53748  11.689  22.989   7.117  0.0082 -0.0212  0.0695
    1W        W53749   0.022   1.689   8.180 -0.1512  0.1057  0.1216
    1W        W53750  24.519  23.102   0.500  0.0972  0.1366 -0.0282
    1W        W53751   3.790   8.046   8.293 -0.3058  0.2685 -0.0935
    1W        W53752  17.899  11.731   1.107  0.0673 -0.1320  0.1643
    1W        W53753  21.766   0.478   9.123  0.1050  0.0251 -0.0290
    1W        W53754  27.640   4.289   8.870 -0.0040  0.0256 -0.0779
    1W        W53755  23.698  22.807   8.969 -0.0574 -0.1589 -0.2479
    1W        W53756  29.131   4.915   8.604  0.1719 -0.2241  0.0720
    1W        W53757   0.029   1.428   1.396  0.1225  0.2061 -0.1025
    1W        W53758   9.404  26.180   1.640  0.1206 -0.1489 -0.2315
    1W        W53759  19.704  13.592   1.692 -0.1937  0.0725 -0.1926
    1W        W53760   1.065   3.946   3.660 -0.0733 -0.2895 -0.1720
    1W        W53761   3.416   5.474   6.811  0.0587  0.0868 -0.0907
    1W        W53762  19.699  22.502   7.923 -0.1521  0.1300  0.5162
    1W        W53763  18.017  17.789   8.131 -0.0958  0.1181 -0.1803
    1W        W53764  25.909  28.134   7.997 -0.4291  0.0948  0.1007
    1W        W53765  16.784   9.587   1.768 -0.2343 -0.0169  0.3020
    1W        W53766   4.307  22.887   7.232 -0.2129  0.0487  0.0198
    1W        W53767   7.525  16.112   7.728 -0.0538 -0.0895  0.1961
    1W        W53768  11.408  10.252   7.228 -0.3076 -0.0609 -0.1873
    1W        W53769  26.584   3.014   9.523  0.4648  0.2462 -0.2558
    1W        W53770   7.560  26.252   2.689  0.0650 -0.0110 -0.1583
    1W        W53771  26.218  11.666   6.724  0.0516 -0.1589 -0.1613
    1W        W53772  14.177  18.958   0.544 -0.1482  0.3657  0.2535
    1W        W53773  11.879  17.926   2.327 -0.2114 -0.0434  0.0065
    1W        W53774   3.487   4.971   7.664 -0.0762  0.2527  0.0911
    1W        W53775   6.471   8.729   8.730  0.0451 -0.2634 -0.1265
    1W        W53776  13.900   8.375   9.312  0.0251  0.0541  0.0884
    1W        W53777  15.015   0.804   9.350 -0.1968  0.1536  0.1637
    1W        W53778   4.436  15.520   8.800  0.0938 -0.2106  0.1442
    1W        W53779  10.993  26.150   7.003  0.1148  0.1443  0.1158
    1W        W53780  28.276  23.807   8.113  0.0845  0.1551  0.0855
    1W        W53781  18.711   1.787   6.897 -0.4128  0.4015  0.0170
    1W        W53782  12.899  28.498   3.727  0.2035 -0.2414 -0.0398
    1W        W53783  26.578  26.961   2.705 -0.1747 -0.2133 -0.0285
    1W        W53784  18.808  17.808   0.479  0.1666  0.0757 -0.0461
    1W        W53785  27.510  22.602   9.456  0.0082 -0.0093  0.1100
    1W        W53786   8.066  22.196   8.298  0.0098 -0.2009  0.1961
    1W        W53787  25.986  13.802   1.575 -0.1509  0.0264 -0.1456
    1W        W53788   7.098  14.680   1.991  0.0247 -0.0334  0.2002
    1W        W53789  19.382  23.768   8.344  0.3641 -0.2955 -0.1607
    1W        W53790   1.597   0.869   3.030  0.0822 -0.1764 -0.0670
    1W        W53791  10.654   0.464   1.692  0.2525  0.4520 -0.1531
    1W        W53792  12.803  15.105   0.803  0.0999 -0.0845 -0.0865
    1W        W53793  22.572  26.316   3.196  0.1472  0.3362  0.1608
    1W        W53794  11.975  17.723   0.471 -0.0867  0.3624 -0.0269
    1W        W53795  26.570  27.908   1.643 -0.3519 -0.0118 -0.0555
    1W        W53796  29.624  14.509   8.626  0.0158 -0.2183  0.1691
    1W        W53797  22.050   3.413   1.899  0.0435  0.1951 -0.1163
    1W        W53798  25.503  18.536   6.926  0.0314  0.0164  0.2279
    1W        W53799  17.268   3.221   8.095  0.1423 -0.3028  0.1858
    1W        W53800  19.288  13.450   8.186 -0.1301 -0.0181  0.2434
    1W        W53801  27.913  14.072   0.978  0.1103  0.1380  0.1054
    1W        W53802   6.350   3.163   3.025  0.2562  0.0174  0.2591
    1W        W53803  22.924   1.979   0.767  0.0306  0.1388 -0.0969
    1W        W53804   0.706   4.808   3.631  0.0647  0.0295 -0.2004
    1W        W53805   5.331  12.242   7.616  0.3673 -0.0268 -0.0362
    1W        W53806   9.156   1.834   0.143 -0.2900 -0.4116  0.3422
    1W        W53807   2.212  10.740   1.577  0.3041 -0.1097 -0.0409
    1W        W53808  23.790  24.791   9.378  0.1035  0.0043 -0.1704
    1W        W53809  15.259   6.949   2.369 -0.3422 -0.4613 -0.1835
    1W        W53810   6.171  18.823   8.864  0.0233 -0.2726 -0.0075
    1W        W53811   0.650  11.502   1.227 -0.0154  0.1052 -0.1048
    1W        W53812  27.410  21.605   1.415 -0.0584 -0.0345 -0.0447
    1W        W53813   0.130   7.001   7.402  0.1151  0.1491  0.2396
    1W        W53814  20.845  18.067   5.977  0.1492  0.0563 -0.2615
    1W        W53815   5.968  21.102   1.355 -0.0701 -0.3219 -0.1612
    1W        W53816   3.334  22.441   1.686  0.2425  0.2164 -0.1430
    1W        W53817   8.916  11.183   7.638  0.0310  0.1283 -0.0700
    1W        W53818  10.530   0.818   2.916  0.3278 -0.1445  0.2819
    1W        W53819  10.452  18.592   8.721  0.2138 -0.1196 -0.0553
    1W        W53820   7.766  25.674   8.063  0.0185  0.0717 -0.1492
    1W        W53821  10.778   6.871   0.044  0.0346 -0.1192  0.1177
    1W        W53822  26.744  24.481   2.002  0.1241  0.2595  0.0220
    1W        W53823  17.032  21.552   7.107  0.3855  0.0014  0.0357
    1W        W53824  16.082   6.554   8.816  0.2846 -0.3290 -0.0671
    1W        W53825   5.280  20.815   1.752 -0.2046 -0.0086  0.0491
    1W        W53826  14.401  15.389   1.961 -0.1830  0.1378 -0.2088
    1W        W53827  29.174  27.850   1.027 -0.2316  0.0124  0.1485
    1W        W53828  17.800  12.723   5.817 -0.0833 -0.0448  0.2006
    1W        W53829  17.791   9.388   6.539 -0.0580 -0.3942  0.1321
    1W        W53830  13.715  25.791   2.531  0.0316 -0.1436  0.1561
    1W        W53831  21.568   2.141   2.496  0.2720  0.1550 -0.0653
    1W        W53832  10.936   7.314   0.409  0.6063  0.1899 -0.1599
    1W        W53833  21.757  11.271   0.024 -0.0115 -0.1180 -0.0164
    1W        W53834   9.913  17.112   2.361  0.1755 -0.0805 -0.0115
    1W        W53835  21.339   5.740   6.512  0.1000 -0.0066  0.0406
    1W        W53836  21.067  15.526   7.807 -0.0477  0.0228  0.0710
    1W        W53837  21.838  16.014   8.679  0.1047 -0.1748 -0.1363
    1W        W53838  18.577  16.999   6.884  0.1923 -0.1482 -0.0744
    1W        W53839  20.805  26.078   6.811  0.1237 -0.0106 -0.1112
    1W        W53840  12.046   8.375   0.868 -0.2955  0.2832 -0.0195
    1W        W53841   0.946  13.599   1.127 -0.0982  0.0168 -0.1532
    1W        W53842   0.264   1.143   2.728  0.2324 -0.1220  0.0463
    1W        W53843  16.109  26.752   2.333 -0.3437 -0.0741 -0.4457
    1W        W53844   6.905  16.012   8.511  0.0278  0.0945  0.0250
    1W        W53845  24.962   2.759   8.526  0.1648  0.2559 -0.2322
    1W        W53846  10.771  18.676   9.132  0.0293  0.4152 -0.2760
    1W        W53847  24.925  28.521   1.629 -0.0871  0.1699 -0.1124
    1W        W53848   5.054   2.170   3.193 -0.2747 -0.2059  0.0588
    1W        W53849  20.107   7.487   3.146  0.1217 -0.1515  0.0164
    1W        W53850  29.227   9.539   9.464 -0.2146  0.1845  0.0182
    1W        W53851   7.421  17.948   1.172  0.0425 -0.1231 -0.0217
    1W        W53852  13.166  16.927   8.225  0.2072 -0.0811  0.0673
    1W        W53853  16.306  18.207   0.598 -0.3897  0.1431 -0.3759
    1W        W53854   5.891   5.338   8.431  0.0248  0.1098  0.0105
    1W        W53855  17.368  19.944   1.326  0.0417  0.2131  0.1822
    1W        W53856  18.533   3.047   0.233  0.0031 -0.2529  0.2119
    1W        W53857  25.109  23.805   9.282 -0.0555  0.2608 -0.0776
    1W        W53858  23.893  22.336   1.818 -0.2427 -0.0600  0.0883
    1W        W53859   4.022   2.817   0.312  0.0103  0.3505  0.0762
    1W        W53860   6.612  27.372   9.151  0.2665  0.1447 -0.0146
    1W        W53861   7.719  19.096   2.391 -0.3156  0.0680 -0.3386
    1W        W53862  17.921  13.345   2.442  0.0954 -0.2028 -0.3300
    1W        W53863  12.949   0.197   0.041  0.0480  0.0199  0.4393
    1W        W53864   1.341  26.146   9.284 -0.1828  0.1343  0.0222
    1W        W53865  14.758  19.341   7.320  0.3163  0.0150  0.1045
    1W        W53866   8.949   0.808   0.068 -0.1257 -0.3710  0.0598
    1W        W53867   6.783   5.337   0.551 -0.0317 -0.1065  0.0410
    1W        W53868   4.079  23.138   0.912  0.1165  0.1079  0.0932
    1W        W53869  13.579   7.400   2.027  0.0506  0.2195  0.0103
    1W        W53870   7.689   2.819   1.128  0.1270  0.0159 -0.1182
    1W        W53871  28.965   5.133   7.818  0.3935 -0.1705 -0.1287
    1W        W53872   4.006   9.966   1.073  0.1211  0.0689 -0.0314
    1W        W53873  17.145  14.637   0.598 -0.3230 -0.0245  0.1872
    1W        W53874  12.491  27.976   2.119 -0.3903  0.0767  0.1076
    1W        W53875  20.076  17.684   7.658  0.0901  0.1891 -0.0177
    1W        W53876  27.177   3.329   0.500 -0.1215 -0.0416 -0.0259
    1W        W53877   0.092  25.909   7.983 -0.1398  0.0829  0.0800
    1W        W53878  15.229  18.606   7.608  0.0931  0.1663  0.0184
    1W        W53879  15.694  20.133   9.105  0.1770 -0.0012  0.0009
    1W        W53880  19.761  25.111   8.018 -0.1340 -0.0942 -0.1236
    1W        W53881  14.815  18.473   2.224  0.1415 -0.1681 -0.0030
    1W        W53882  19.349   5.805   3.224 -0.1694  0.2591 -0.0934
    1W        W53883  28.960  13.103   1.849  0.2585  0.1159  0.0342
    1W        W53884  14.729  26.593   1.995  0.0451  0.0535 -0.2185
    1W        W53885  27.255  10.920   2.331 -0.2368 -0.1221  0.0484
    1W        W53886  13.176  21.318   2.151  0.3116 -0.0711 -0.1717
    1W        W53887  24.567  28.325   2.617  0.0942  0.2324  0.0032
    1W        W53888  19.585   0.982   1.488 -0.1107 -0.0162  0.1526
    1W        W53889  26.075   8.923   8.015  0.0686 -0.1949  0.0719
    1W        W53890  26.808  25.907   7.376  0.0088  0.3934  0.2134
    1W        W53891   6.696   2.458   2.573  0.2459  0.0278 -0.0555
    1W        W53892  15.257  27.063   7.541 -0.0621  0.4747 -0.1516
    1W        W53893  10.891   3.081   7.707 -0.2593 -0.1491 -0.2488
    1W        W53894  10.143  20.281   7.344 -0.1104 -0.0864 -0.0009
    1W        W53895  25.471  22.671   1.188 -0.1892 -0.0240  0.1386
    1W        W53896   2.204  13.066   1.924  0.0228  0.1855  0.0648
    1W        W53897   7.586  11.911   8.193  0.0922  0.1359  0.0665
    1W        W53898   3.139  29.093   7.815  0.0933  0.2476  0.4020
    1W        W53899  24.255  20.018   1.246  0.0219 -0.0094  0.4386
    1W        W53900  20.492  14.869   0.667  0.3355  0.1469  0.0785
    1W        W53901   1.254  23.377   2.464  0.0938 -0.0568 -0.0339
    1W        W53902   0.504  27.056   9.509  0.2742  0.1493 -0.2985
    1W        W53903  20.193  21.407   9.140  0.2318 -0.1418 -0.2167
    1W        W53904   0.426  12.916   1.711  0.0320 -0.0172 -0.2568
    1W        W53905   8.739   2.775   2.680  0.0922  0.1294 -0.1814
    1W        W53906  20.740  22.334   8.958 -0.2913 -0.1395 -0.0394
    1W        W53907  11.629  15.000   8.100 -0.0382 -0.0288 -0.1588
    1W        W53908  19.790  28.672   0.098 -0.4777  0.0869  0.0148
    1W        W53909  29.091   3.509   1.146  0.0008  0.2498  0.0215
    1W        W53910  11.250  26.545   6.833 -0.0367  0.1076  0.0621
    1W        W53911  24.942  15.157   8.118 -0.0184  0.0601  0.0174
    1W        W53912  18.908   5.942   7.684 -0.1290 -0.0843  0.4729
    1W        W53913  26.036  21.007   8.981  0.1534 -0.2934 -0.0948
    1W        W53914   2.434   0.909   2.612  0.0685  0.1029  0.1271
    1W        W53915   2.697   6.675   8.008 -0.1801 -0.1440 -0.1284
    1W        W53916   8.781  17.637   1.048  0.0868  0.0721 -0.0268
    1W        W53917  18.162  28.580   8.561 -0.1188 -0.4468 -0.1459
    1W        W53918  29.669  21.233   0.332 -0.0601 -0.2207 -0.1187
    1W        W53919  15.384  25.061   8.780 -0.0156 -0.1502 -0.3125
    1W        W53920  19.696   8.498   1.694 -0.1394 -0.0653 -0.1728
    1W        W53921  10.322  28.194   2.976 -0.0271 -0.2875  0.1495
    1W        W53922  16.183  27.168   9.252 -0.1196  0.1274  0.0141
    1W        W53923  23.358   1.624   8.264  0.1571 -0.0573 -0.2705
    1W        W53924  17.097  19.125   2.484  0.1363 -0.0406 -0.2064
    1W        W53925  21.941  22.639   7.383 -0.1839  0.0514 -0.2152
    1W        W53926  20.377   8.329   1.005 -0.2692  0.0562  0.2115
    1W        W53927  24.479  22.684   0.765 -0.2602  0.0374 -0.0552
    1W        W53928  25.207  13.172   0.811 -0.0035 -0.1383  0.0743
    1W        W53929  21.119  10.834   2.678  0.4209  0.0728  0.1030
    1W        W53930  26.356   1.482   1.474  0.2143  0.0147 -0.2795
    1W        W53931  11.131   2.181   8.172 -0.2441  0.1194 -0.1894
    1W        W53932  29.152  28.575   1.501  0.1905  0.1918 -0.4834
    1W        W53933  26.153  12.447   7.804 -0.1724 -0.0465 -0.0692
    1W        W53934  18.772  17.514   9.223 -0.2574  0.1094 -0.0633
    1W        W53935  21.303  20.284   1.114 -0.1076 -0.0370  0.1236
    1W        W53936  28.116  20.055   8.783  0.0759 -0.0751  0.1406
    1W        W53937  11.650  29.041   1.962 -0.0045  0.1474  0.1305
    1W        W53938  25.336  15.559   6.369 -0.3227  0.3945 -0.0139
    1W        W53939  17.639  23.265   1.048  0.2378  0.0407  0.0707
    1W        W53940   5.468  15.121   1.885 -0.0284 -0.3101  0.2849
    1W        W53941  13.467   9.794   1.982  0.3604 -0.1158  0.2787
    1W        W53942  25.616  22.551   0.735  0.1081 -0.1345 -0.1971
    1W        W53943  13.243  14.257   0.390  0.2454 -0.1477 -0.2091
    1W        W53944   0.382  22.684   7.452  0.0948 -0.3340  0.3719
    1W        W53945  17.093   5.322   8.371  0.2081 -0.1307 -0.1420
    1W        W53946  15.187   6.738   2.852  0.3290  0.0059 -0.0135
    1W        W53947   4.623  24.319   8.907  0.1384  0.1649 -0.1719
    1W        W53948  19.890  20.418   6.052  0.1002 -0.0155  0.0898
    1W        W53949  26.411  23.712   7.336 -0.0915 -0.0916 -0.0014
    1W        W53950  16.203  18.580   1.552 -0.0569  0.2678 -0.5463
    1W        W53951   4.737  22.381   6.848 -0.0610  0.0929 -0.0313
    1W        W53952  10.566  27.982   0.926 -0.0690 -0.1252 -0.1336
    1W        W53953   8.866   5.597   3.656  0.1969  0.0973 -0.2109
    1W        W53954  11.409  13.839   7.773 -0.1710  0.1037 -0.2355
    1W        W53955  25.956  26.522   9.148  0.0804  0.1281  0.2198
    1W        W53956  27.153   6.014   2.255  0.1275  0.1867  0.1556
    1W        W53957   3.822  26.998   1.167 -0.1255  0.1225 -0.4824
    1W        W53958   2.623   5.211   0.087  0.0341 -0.1908 -0.2039
    1W        W53959  11.721  13.810   2.455 -0.0085 -0.0215  0.0808
    1W        W53960   9.374   7.810   2.452 -0.0964  0.0251  0.3014
    1W        W53961  26.050  25.954   7.892  0.1653  0.2019  0.1506
    1W        W53962   0.237  13.774   6.924 -0.0547 -0.1774 -0.0321
    1W        W53963   7.033   8.481   6.835 -0.1190 -0.0438 -0.0662
    1W        W53964  26.835   2.262   8.362 -0.2495  0.0740  0.3529
    1W        W53965  14.351  25.822   6.368 -0.1929 -0.2418 -0.1474
    1W        W53966   6.789  21.587   0.618 -0.1063  0.1622 -0.0542
    1W        W53967  23.958  15.286   0.770 -0.2244  0.1582  0.1469
    1W        W53968  17.357  24.922   1.431 -0.1473 -0.0136 -0.2230
    1W        W53969  20.058   3.710   0.094  0.3233  0.1008 -0.0024
    1W        W53970  10.725  15.728   9.007 -0.0855  0.0903  0.0808
    1W        W53971  29.510  25.270   8.816 -0.0321  0.0305  0.2268
    1W        W53972  13.353  11.718   8.860 -0.0645  0.3191 -0.2942
    1W        W53973  19.285  18.236   8.183 -0.1800 -0.2057 -0.1986
    1W        W53974  28.266  19.010   7.744  0.1939  0.1517  0.0938
    1W        W53975  25.713  24.693   1.534  0.0708 -0.0466 -0.1981
    1W        W53976  17.542   9.961   0.898 -0.0169 -0.1322  0.4431
    1W        W53977   8.743  29.039   7.012 -0.2379 -0.2913  0.1182
    1W        W53978  23.220   2.372   1.048  0.0855 -0.1491 -0.0929
    1W        W53979  26.779  27.338   2.374  0.1184  0.0530  0.0969
    1W        W53980   6.294  26.460   1.456 -0.2677 -0.1522 -0.1667
    1W        W53981  20.535  17.688   5.902  0.1562  0.0074  0.0559
    1W        W53982  19.371  20.539   1.735 -0.0027 -0.2635 -0.2475
    1W        W53983  15.851  27.819   1.260 -0.3398  0.3324  0.1287
    1W        W53984  11.251  28.734   3.130 -0.0808 -0.0356 -0.3304
    1W        W53985   2.024  24.106   6.933  0.1977 -0.2869  0.0189
    1W        W53986   3.687   2.346   2.557  0.3360 -0.0926  0.1453
    1W        W53987  16.117  10.616   2.386  0.1153  0.0673 -0.1825
    1W        W53988  24.474  17.413   6.001 -0.2331 -0.1562 -0.0066
    1W        W53989  10.125  14.534   9.248  0.0993  0.0538 -0.1446
    1W        W53990   4.720   1.946   8.561 -0.1313 -0.0701 -0.0660
    1W        W53991  15.508  23.887   8.200 -0.3049  0.1808  0.0956
    1W        W53992  18.695   5.656   1.175 -0.3407  0.2604 -0.3325
    1W        W53993  17.435   8.408   7.578  0.0726  0.0090  0.2482
    1W        W53994  12.194  27.947   0.666 -0.4118  0.3496 -0.0223
    1W        W53995  27.815  18.949   0.528 -0.1885  0.3605  0.0627
    1W        W53996  21.451  25.948   2.973 -0.4019  0.2702  0.1386
    1W        W53997  11.851  14.798   1.233  0.3203 -0.0752 -0.0213
    1W        W53998  26.250   7.436   2.179 -0.2506 -0.0492  0.1810
    1W        W53999  10.153   0.420   1.708  0.1702  0.0352  0.0874
    1W        W54000   7.482   0.063   1.242 -0.1365  0.4259 -0.1584
    1W        W54001  10.150  17.259   0.303 -0.0489  0.0108 -0.1911
    1W        W54002   2.499  19.241   7.324  0.1147 -0.0219 -0.0558
    1W        W54003  25.788  18.579   7.646  0.1249  0.1707  0.1661
    1W        W54004  28.252   6.988   1.105 -0.1047 -0.2368  0.2780
    1W        W54005  13.636   5.580   2.086 -0.0667 -0.0493  0.4505
    1W        W54006  16.781  24.787   8.342  0.2133  0.0248  0.1469
    1W        W54007  23.408   5.596   3.748 -0.4480 -0.1006  0.0248
    1W        W54008   0.040  23.821   8.323 -0.2775  0.1806  0.1466
    1W        W54009  21.918  18.662   7.193 -0.0341  0.1501  0.0392
    1W        W54010  15.211  24.627   1.028 -0.2035  0.1015 -0.1092
    1W        W54011   6.778  28.007   8.695  0.1040 -0.0243  0.3918
    1W        W54012  23.001  19.561   9.166 -0.3953 -0.0739 -0.0707
    1W        W54013  20.093   5.928   1.508  0.0624 -0.0757  0.0551
    1W        W54014  15.590   3.534   0.943  0.1289  0.0657  0.0094
    1W        W54015   9.876  13.223   1.099  0.3464  0.2611 -0.3042
    1W        W54016   8.691   7.272   2.691 -0.0640 -0.0646  0.1236
    1W        W54017  11.490  25.901   0.952 -0.2283 -0.1653  0.1434
    1W        W54018   3.280  25.540   2.241 -0.0489 -0.0074 -0.2923
    1W        W54019  27.857  16.632   0.025  0.0207  0.2061 -0.1014
    1W        W54020   3.329  13.116   0.664  0.0775 -0.1315  0.0595
    1W        W54021  26.035   2.004   9.105  0.3620  0.2095  0.0037
    1W        W54022   0.018   4.642   0.501 -0.1907 -0.1920 -0.0180
    1W        W54023   1.266  13.896   8.894 -0.1931  0.0557  0.0599
    1W        W54024   5.861  24.228   0.823  0.1140 -0.4063 -0.1803
    1W        W54025   8.663  21.599   0.793 -0.1954  0.2090  0.4097
    1W        W54026   7.749  14.707   8.701 -0.0159  0.2866 -0.1433
    1W        W54027   9.291  21.066   0.504 -0.1842 -0.1297  0.0669
    1W        W54028   9.463  19.076   6.591  0.1675 -0.3993  0.3047
    1W        W54029  15.773  23.116   8.134 -0.2824  0.1098  0.2211
    1W        W54030   1.185   3.343   2.687 -0.3513 -0.0168 -0.0330
    1W        W54031  26.791   4.627   2.526  0.1381  0.1922  0.2225
    1W        W54032  17.648  26.896   7.251  0.2153  0.0800 -0.3545
    1W        W54033  27.815  10.712   1.606 -0.3560 -0.1619 -0.1144
    1W        W54034   6.926  23.086   7.956  0.1327  0.1184 -0.1264
    1W        W54035   4.288  26.624   1.803  0.0277 -0.2803 -0.0339
    1W        W54036   3.233   2.605   7.025  0.2212  0.0916 -0.0577
    1W        W54037  23.913  24.316   1.452 -0.0518  0.4427  0.1481
    1W        W54038   7.595   8.620   8.109 -0.0073 -0.0214  0.0119
    1W        W54039   2.319  17.937   1.111 -0.3085 -0.0636 -0.0979
    1W        W54040  10.055  24.733   3.217  0.0117  0.0606 -0.2222
    1W        W54041  20.060   5.429   9.522  0.1429  0.1085 -0.1556
    1W        W54042   1.416   0.050   8.064 -0.0853  0.0863 -0.0444
    1W        W54043  16.872   9.954   6.588 -0.0591 -0.0653 -0.2386
    1W        W54044  28.431  16.753   1.295 -0.3115  0.0477  0.1304
    1W        W54045  28.066  26.000   8.106 -0.0298 -0.1711  0.1276
    1W        W54046  18.682   5.885   2.900 -0.0742 -0.0957 -0.2202
    1W        W54047   5.698  21.928   8.368  0.2371  0.1249 -0.0312
    1W        W54048  25.330  11.479   7.153 -0.0325  0.1182 -0.0992
    1W        W54049   9.706  16.871   1.638 -0.3109  0.0807  0.1657
    1W        W54050  18.993   2.194   2.450  0.1011  0.3161  0.2147
    1W        W54051  20.596   5.260   8.585  0.1260 -0.0321 -0.0786
    1W        W54052  10.973   6.894   7.225 -0.2719 -0.0207 -0.1222
    1W        W54053   9.231  29.770   9.428 -0.1196  0.0396  0.1292
    1W        W54054  16.263   2.310   1.034 -0.1185  0.3757  0.0915
    1W        W54055   5.842   1.732   0.661  0.0912 -0.0674 -0.1791
    1W        W54056   3.478   8.322   8.745 -0.2569 -0.0568  0.0513
    1W        W54057  28.897   2.041   6.817 -0.0186 -0.0894 -0.0585
    1W        W54058  13.366  13.142   2.865 -0.0214 -0.0998  0.1064
    1W        W54059  15.957  12.271   8.558 -0.1007 -0.1300  0.1811
    1W        W54060  12.797   4.981   7.945  0.0988  0.0669 -0.3147
    1W        W54061  29.789  26.798   8.956 -0.2067  0.1115  0.3314
    1W        W54062  12.985  24.355   7.059  0.3359 -0.1498 -0.3799
    1W        W54063   0.652  19.240   0.345 -0.2166  0.1489 -0.1925
    1W        W54064  13.507  29.774   2.294 -0.2518 -0.0008  0.0425
    1W        W54065  21.218  25.505   1.259 -0.1475 -0.1643  0.0744
    1W        W54066  10.521  17.943   0.613 -0.3263  0.3627 -0.1898
    1W        W54067   6.187  17.201   7.539 -0.2035  0.2423  0.2883
    1W        W54068  16.098   9.648   2.253  0.0600 -0.0822  0.2610
    1W        W54069  10.625   8.913   0.058 -0.2522  0.1357  0.0475
    1W        W54070  16.300  20.125   6.450 -0.1525  0.0903 -0.0121
    1W        W54071   5.989  27.504   7.230 -0.1183  0.2947 -0.2007
    1W        W54072   9.054  25.001   2.430 -0.3420  0.0148  0.0284
    1W        W54073   9.595  28.770   1.916 -0.1624  0.1283  0.4311
    1W        W54074  10.756   4.152   0.445 -0.2430  0.0849 -0.2424
    1W        W54075  26.301  15.354   7.351 -0.0460 -0.1052 -0.1580
    1W        W54076  17.489  23.047   9.551 -0.3067  0.1403 -0.0846
    1W        W54077   2.056   0.278   7.476 -0.2405  0.2127  0.1378
    1W        W54078  18.273  10.671   9.227  0.1974  0.1199  0.3581
    1W        W54079  28.684  21.465   1.116 -0.2268  0.0914  0.2815
    1W        W54080  24.826   1.382   1.258  0.5572  0.0417  0.3780
    1W        W54081   0.048  24.728   2.233  0.0686 -0.0357  0.1952
    1W        W54082   8.538  24.645   1.783  0.3127  0.2811 -0.2668
    1W        W54083  21.529  12.350   6.452  0.0519 -0.0829 -0.0691
    1W        W54084  11.569  20.323   2.384  0.1762 -0.0492 -0.1382
    1W        W54085  15.702  11.755   6.030 -0.2131  0.0913 -0.1603
    1W        W54086  11.013  10.209   2.537 -0.0360 -0.5899 -0.1458
    1W        W54087   1.556  27.797   2.148  0.2724  0.1208 -0.0330
    1W        W54088   7.081  21.790   7.954  0.0859  0.1112  0.3053
    1W        W54089  19.541  15.742   1.616 -0.1072  0.0905  0.0425
    1W        W54090   3.560   4.891   2.247 -0.0728 -0.1832  0.0489
    1W        W54091  15.909  28.361   1.325 -0.0760 -0.0037 -0.1116
    1W        W54092  26.115   7.223   1.681  0.1520  0.1886 -0.0169
    1W        W54093   4.266  17.738   2.054 -0.1405 -0.1779 -0.0217
    1W        W54094  22.736  25.859   8.189 -0.0775  0.1308 -0.1446
    1W        W54095   4.312  22.148   0.711  0.0393 -0.0157 -0.1174
    1W        W54096   6.721   5.764   8.431 -0.0949 -0.0545  0.0276
    1W        W54097  13.218  28.099   7.064 -0.2009  0.2520  0.1744
    1W        W54098  12.287   3.959   2.382 -0.1011 -0.0094  0.0342
    1W        W54099   8.958  24.146   8.952 -0.1100 -0.0407 -0.0332
    1W        W54100  18.856  22.733   7.761  0.0483 -0.3656 -0.0989
    1W        W54101  23.338  19.106   0.262 -0.1011  0.2701  0.0777
    1W        W54102  16.218  23.665   8.804  0.2089  0.1251  0.0107
    1W        W54103   7.360  19.988   9.458  0.3386  0.1077  0.3201
    1W        W54104  15.686  24.059   1.475 -0.2134  0.1471 -0.3316
    1W        W54105  24.118   0.830   7.534  0.0055 -0.1268  0.0164
    1W        W54106  21.179  25.186   1.658 -0.0361 -0.2339  0.1097
    1W        W54107  10.820  20.991   2.448 -0.0155 -0.0763  0.0995
    1W        W54108  14.207   8.708   8.479 -0.0618  0.0741  0.1887
    1W        W54109   5.310   0.339   1.760  0.2306  0.1686  0.3144
    1W        W54110   1.322  15.233   0.430  0.1984  0.0682  0.0700
    1W        W54111  19.774   9.934   3.109  0.0665  0.1927 -0.0658
    1W        W54112  20.299  20.168   7.352  0.2236 -0.3339 -0.0171
    1W        W54113  27.999  28.476   3.488 -0.4767 -0.2130 -0.1715
    1W        W54114  24.179  19.523   7.579 -0.1658 -0.0205 -0.0370
    1W        W54115  27.230   7.097   2.589  0.4301  0.3494 -0.1727
    1W        W54116  28.603  24.063   8.424 -0.1686  0.0426 -0.2829
    1W        W54117   4.416  18.991   6.957 -0.1236  0.0442 -0.2037
    1W        W54118   3.630   6.055   2.904  0.2848 -0.1933  0.0279
    1W        W54119  19.936  24.296   9.520 -0.0975 -0.1251  0.1013
    1W        W54120  27.335  28.350   8.541  0.3111 -0.0928  0.3642
    1W        W54121   6.299  18.435   9.235 -0.1510 -0.0468  0.1208
    1W        W54122  12.872  20.702   8.245  0.3308 -0.1027 -0.1860
    1W        W54123  19.033   7.742   8.575 -0.1152 -0.0184 -0.0494
    1W        W54124  14.019   9.007   2.637 -0.1947 -0.0723  0.1172
    1W        W54125   8.852   7.212   7.737  0.1415 -0.0211  0.1075
    1W        W54126  21.661   3.881   2.376  0.4007 -0.1608  0.1350
    1W        W54127   4.949   2.299   7.274  0.1331 -0.0005  0.0755
    1W        W54128   6.219   4.161   8.140  0.1716 -0.0048  0.2236
    1W        W54129  18.649   1.012   7.846 -0.0593 -0.1982  0.0490
    1W        W54130  20.954  14.715   2.546  0.1428 -0.0134 -0.0013
    1W        W54131   9.081   2.374   2.706  0.3378  0.0773 -0.1347
    1W        W54132  21.486  21.194   6.348  0.0027 -0.1219  0.1069
    1W        W54133  13.171  15.326   6.845 -0.0638  0.2182 -0.0453
    1W        W54134   5.542   9.264   3.321  0.0514 -0.0235 -0.1696
    1W        W54135  10.109   5.323   7.204  0.2644 -0.1579 -0.1172
    1W        W54136  29.253  18.891   7.522 -0.2303 -0.1672  0.1757
    1W        W54137   8.607   3.761   8.223  0.0421  0.2213 -0.1719
    1W        W54138   2.522  11.083   9.365 -0.0643  0.0908  0.1803
    1W        W54139  17.695  27.292   2.874 -0.0109 -0.0475 -0.2423
    1W        W54140   0.015  22.813   7.871 -0.1361 -0.1017 -0.0284
    1W        W54141   0.039  29.749   1.302 -0.1389 -0.1229 -0.2536
    1W        W54142  24.689  26.761   8.101  0.1571 -0.3445 -0.3106
    1W        W54143   3.723  25.408   0.622 -0.0809 -0.0949  0.1443
    1W        W54144  13.813   1.323   7.030  0.0473  0.2737  0.1054
    1W        W54145  29.641  25.748   6.487 -0.0957  0.0385 -0.0989
    1W        W54146  18.301   8.680   0.594  0.0601  0.1732 -0.1836
    1W        W54147   6.942   6.565   0.180  0.1462 -0.0478  0.4301
    1W        W54148  29.723  10.775   1.220 -0.0058  0.0370  0.1270
    1W        W54149   9.255  29.448   8.583  0.2150  0.1029 -0.4149
    1W        W54150  14.361   4.040   1.532 -0.0011 -0.0927 -0.1402
    1W        W54151   1.628  17.192   7.854  0.1113 -0.1600 -0.0420
    1W        W54152  17.073  21.653   7.616  0.1863 -0.0072  0.0598
    1W        W54153   2.433   1.182   2.112  0.0315  0.2868 -0.0358
    1W        W54154   3.478   1.009   1.020  0.0065  0.2015 -0.1154
    1W        W54155  26.892  12.942   7.711 -0.1667  0.1388  0.0634
    1W        W54156   0.166  15.122   7.996 -0.0790 -0.2978 -0.1445
    1W        W54157  23.489   9.717   6.883 -0.3108 -0.0868  0.1192
    1W        W54158  12.381  11.747   7.019  0.0413  0.1942 -0.0562
    1W        W54159   3.422  19.310   0.988  0.0543 -0.1839 -0.1949
    1W        W54160   1.763   5.475   7.214  0.1371  0.1281  0.1982
    1W        W54161  21.090  12.678   7.244 -0.0960 -0.0061 -0.0847
    1W        W54162  24.785  13.214   7.615 -0.0384  0.0666 -0.0142
    1W        W54163  24.624   9.943   1.980  0.3101 -0.0134  0.0113
    1W        W54164   7.355  29.039   8.298  0.1047  0.1476 -0.1524
    1W        W54165  13.777   6.629   0.589 -0.2996  0.0369 -0.1400
    1W        W54166  13.161  11.631   2.398 -0.2422  0.0300  0.0371
    1W        W54167  13.014   7.345   8.401 -0.0256  0.2198  0.1063
    1W        W54168   1.966  20.178   8.034  0.2379 -0.0594 -0.0778
    1W        W54169  15.593  24.203   0.978 -0.1236 -0.0589 -0.0267
    1W        W54170  25.690  15.865   6.187 -0.1322 -0.0910 -0.4712
    1W        W54171   5.504   2.280   0.765  0.0801 -0.2743  0.0589
    1W        W54172  20.293  11.425   1.229  0.1431 -0.0218 -0.1301
    1W        W54173  27.903   8.031   0.685  0.1118 -0.0662  0.0697
    1W        W54174  13.989  20.835   8.364 -0.3489 -0.1150  0.0226
    1W        W54175  20.829  12.279   8.159  0.0577  0.2524 -0.2579
    1W        W54176  18.024  29.166   3.306  0.2630 -0.0318  0.0970
    1W        W54177  19.269  14.887   1.287  0.0807 -0.0689 -0.4139
    1W        W54178  16.120  29.583   8.779 -0.2564  0.0721  0.1129
    1W        W54179   0.540  15.205   0.718 -0.0000  0.3150 -0.1560
    1W        W54180  18.766  26.501   9.082  0.1599  0.1426 -0.0929
    1W        W54181   2.703  14.855   7.124 -0.1998  0.3467  0.0543
    1W        W54182  10.594   4.959   2.212  0.3124 -0.1252 -0.0698
    1W        W54183   2.508  27.478   3.071 -0.0638 -0.0408 -0.2186
    1W        W54184  21.235  23.221   2.397  0.4446 -0.0977  0.2658
    1W        W54185  28.559  18.299   0.748  0.1914 -0.0980  0.1304
    1W        W54186  15.937  20.600   2.104  0.1138  0.3184 -0.2801
    1W        W54187   5.100  23.282   0.644  0.0590  0.2132 -0.1299
    1W        W54188   5.031   4.575   1.186 -0.0004 -0.0991 -0.2286
    1W        W54189  25.124   2.079   1.917 -0.0839 -0.1103  0.3882
    1W        W54190  16.994  21.567   2.486 -0.1606 -0.2046  0.0291
    1W        W54191  12.163   1.818   8.267 -0.1216  0.2300  0.2332
    1W        W54192   7.972  19.972   0.503  0.1291  0.1588 -0.0001
    1W        W54193  27.343  11.136   0.791 -0.2144 -0.2016  0.1606
    1W        W54194  20.814  13.765   7.067  0.0343 -0.2163 -0.2204
    1W        W54195  13.779  20.326   7.104  0.3053 -0.2161  0.1193
    1W        W54196  25.638   4.216   1.527  0.0046  0.1375  0.3778
    1W        W54197  28.846   4.729   1.379  0.1241 -0.2283 -0.0140
    1W        W54198  21.496   0.517   7.691 -0.0408  0.0180  0.1669
    1W        W54199   2.638  28.442   6.854  0.0471 -0.2164 -0.2305
    1W        W54200   1.462   6.285   0.842  0.0826  0.0017  0.0453
    1W        W54201   3.202   0.972   0.373  0.1429  0.2319 -0.1045
    1W        W54202  19.027  10.107   1.934  0.1284 -0.0318  0.1941
    1W        W54203  22.529  19.855   7.760  0.0131 -0.1879  0.3400
    1W        W54204  23.256  29.268   2.883 -0.1684  0.1602  0.0978
    1W        W54205  15.644  25.591   8.876  0.1137  0.1064  0.0918
    1W        W54206  12.793  18.384   1.739 -0.2173  0.0290 -0.0925
    1W        W54207   9.214  13.251   9.251  0.0683  0.0831 -0.0899
    1W        W54208   9.231  24.170   2.126 -0.3841 -0.1358  0.0011
    1W        W54209  15.023  11.562   0.560  0.1764 -0.1462 -0.1481
    1W        W54210  17.350   9.749   0.155 -0.0099  0.3511  0.0640
    1W        W54211   9.358  15.380   0.872 -0.4060 -0.0463 -0.0457
    1W        W54212  18.118  14.028   9.088  0.2873  0.0659 -0.3763
    1W        W54213  21.451  15.883   7.779 -0.0635  0.2411  0.1884
    1W        W54214  27.846  18.892   1.424 -0.1465  0.0075  0.1312
    1W        W54215  15.762   0.379   2.133  0.0818  0.1305 -0.1313
    1W        W54216   7.819  25.667   9.390  0.3523 -0.0970  0.3171
    1W        W54217  12.749   7.849   3.412 -0.0735  0.4189 -0.0331
    1W        W54218  23.451  14.006   8.510 -0.0957  0.0257 -0.0945
    1W        W54219   3.137   2.158   9.105 -0.0763  0.0419 -0.1111
    1W        W54220   6.528   1.334   6.715  0.3647  0.1857 -0.1837
    1W        W54221  17.192  29.191   2.045  0.0333 -0.3429  0.0261
    1W        W54222  12.925   8.184   1.701  0.0527 -0.2053  0.1116
    1W        W54223   7.704  11.218   2.979 -0.0735 -0.0694  0.2418
    1W        W54224   8.648  17.125   9.167  0.4689 -0.2095 -0.3350
    1W        W54225  10.066  13.075   0.645  0.0322  0.0047  0.0189
    1W        W54226   8.010  28.756   0.544  0.0576  0.6152 -0.4464
    1W        W54227  19.769  16.511   0.555 -0.2123 -0.0395  0.0928
    1W        W54228  10.565   6.200   0.500 -0.0495 -0.1636 -0.1532
    1W        W54229   5.645  22.392   1.888 -0.1961  0.1869  0.4148
    1W        W54230   0.881   3.953   8.823  0.2347 -0.1734  0.1002
    1W        W54231  21.703  13.415   8.027 -0.1771  0.2881 -0.0167
    1W        W54232   4.787  25.671   1.635 -0.1523  0.0827 -0.6083
    1W        W54233  27.071  13.393   7.625  0.0337 -0.0318  0.1114
    1W        W54234   2.593  12.278   7.017  0.1001  0.0844 -0.1457
    1W        W54235   6.529   0.972   1.950 -0.2951  0.1817 -0.0899
    1W        W54236  15.740  15.629   6.878  0.4581  0.0137 -0.1622
    1W        W54237  11.451   7.912   0.147  0.0775  0.3655 -0.1591
    1W        W54238  14.407  21.772   9.315 -0.0294 -0.0551 -0.1632
    1W        W54239  14.485   3.073   8.977 -0.1753  0.2696 -0.0620
    1W        W54240   2.839   7.743   2.347  0.0868  0.3294  0.0376
    1W        W54241   2.635   2.558   1.783  0.2084 -0.0370 -0.1425
    1W        W54242  29.510  17.830   7.262 -0.0595  0.0428 -0.5617
    1W        W54243  21.070  16.526   7.510  0.2180 -0.1710 -0.0191
    1W        W54244  20.330   4.776   8.465  0.4060 -0.2317  0.0486
    1W        W54245  16.455   6.186   9.399  0.2218 -0.0915  0.1304
    1W        W54246  18.950  26.661   1.122  0.0515  0.1351  0.2213
    1W        W54247   7.210  15.836   0.541 -0.1549 -0.2217 -0.1675
    1W        W54248  17.535  13.408   2.075 -0.3003  0.1596  0.2420
    1W        W54249   5.332  19.840   1.953  0.2106  0.0168  0.2326
    1W        W54250   4.394  18.392   0.009 -0.0355 -0.0626 -0.1809
    1W        W54251   2.883  20.513   1.892 -0.2742 -0.1285  0.1082
    1W        W54252  12.581   9.848   8.121 -0.2195 -0.0658 -0.0933
    1W        W54253  28.995   2.963   7.023 -0.2118  0.0981  0.1044
    1W        W54254  15.009   5.911   8.133 -0.0743 -0.1484 -0.2131
    1W        W54255   4.480  12.634   1.348  0.0930  0.0109 -0.1455
    1W        W54256  18.554  14.450   0.332 -0.0167  0.1609  0.0985
    1W        W54257  19.553  14.822   7.353  0.1132 -0.0466 -0.3530
    1W        W54258  10.498   1.294   3.276 -0.1538 -0.2074 -0.1002
    1W        W54259  28.782   2.252   9.473 -0.1352  0.3697  0.1488
    1W        W54260  20.766  26.564   1.068  0.3047  0.1900 -0.2955
    1W        W54261  25.434  25.722   1.686 -0.0815  0.2586  0.2359
    1W        W54262   3.216  15.802   8.517  0.3976  0.2274  0.1244
    1W        W54263   9.562   9.471   6.239 -0.0195 -0.3085 -0.0688
    1W        W54264   2.823  27.250   1.208 -0.3704  0.4546  0.1753
    1W        W54265   3.887  26.635   0.804 -0.1785  0.2237 -0.2241
    1W        W54266  16.534   4.259   9.048  0.4148  0.1920  0.0782
    1W        W54267  29.078   5.698   1.143 -0.3768 -0.1304  0.0861
    1W        W54268  21.245  24.776   8.513  0.0002 -0.1407  0.1738
    1W        W54269  28.833  28.279   6.931 -0.3790 -0.0176  0.1626
    1W        W54270  27.437  27.551   3.310 -0.0813  0.3414 -0.0069
    1W        W54271  10.006  20.989   1.637  0.1482 -0.0671  0.1382
    1W        W54272   6.686   0.499   0.654  0.2456  0.0848 -0.0617
    1W        W54273   3.161   2.250   1.184 -0.2940  0.1779 -0.0456
    1W        W54274  28.385  29.586   0.417 -0.1330  0.0575 -0.0419
    1W        W54275  18.128  17.827   6.552 -0.0764  0.0130  0.0545
    1W        W54276  15.395  28.852   3.303  0.1310 -0.0303  0.1880
    1W        W54277  13.019  26.049   8.851 -0.0495  0.2530  0.0073
    1W        W54278  14.008  23.355   2.396  0.2175  0.0134  0.2981
    1W        W54279   8.193  18.253   1.079  0.3058 -0.0560  0.0428
    1W        W54280   7.098  29.341   0.613  0.1704 -0.1103  0.0004
    1W        W54281  10.416  19.666   2.102 -0.0319 -0.2392 -0.0228
    1W        W54282  10.217  22.312   1.254 -0.2634  0.0902 -0.0568
    1W        W54283   4.314   8.082   7.759 -0.2384  0.0489  0.0813
    1W        W54284  25.493   2.698   8.623  0.0666  0.1192  0.0921
    1W        W54285  28.720  27.702   7.970 -0.4059  0.1287  0.0624
    1W        W54286  22.423  28.449   2.235 -0.0197  0.0755  0.1366
    1W        W54287   1.701  20.209   9.529  0.1691  0.2866  0.1597
    1W        W54288  23.193   8.367   7.093 -0.0617 -0.0470 -0.0138
    1W        W54289  10.523   2.499   3.612 -0.0858  0.2173  0.0888
    1W        W54290  13.773  18.510   7.092 -0.1848 -0.1270 -0.0381
    1W        W54291  19.368  25.761   0.224 -0.0743  0.2505 -0.0017
    1W        W54292  19.937   7.309   8.974 -0.0011  0.0339  0.2390
    1W        W54293   3.312   9.332   0.813 -0.3061 -0.0780 -0.0654
    1W        W54294  14.601  14.471   0.354  0.0774 -0.0967 -0.0026
    1W        W54295  22.365  12.677   1.669  0.2065 -0.1819  0.0775
    1W        W54296  11.404   3.123   7.776 -0.0168 -0.0932  0.1069
    1W        W54297  19.187  10.770   0.349 -0.1119  0.0275 -0.0496
    1W        W54298   9.659  12.395   0.552  0.0453 -0.0374 -0.1159
    1W        W54299  24.527  27.644   2.147 -0.0146 -0.1529 -0.1393
    1W        W54300  17.069  13.707   1.994  0.0330  0.0809 -0.1053
    1W        W54301  27.715   4.737   8.021 -0.4765 -0.1669  0.1329
    1W        W54302  12.264  28.443   0.457  0.1736 -0.1886  0.0379
    1W        W54303   4.149  21.429   0.182  0.2519 -0.0783 -0.1097
    1W        W54304  16.087  13.926   8.051 -0.1250  0.0197 -0.2073
    1W        W54305  19.397   2.797   9.550 -0.2628  0.1856  0.0886
    1W        W54306  20.876  14.457   7.769 -0.0099  0.0480 -0.0346
    1W        W54307   9.812   2.920   8.942  0.1565  0.1077 -0.0318
    1W        W54308   6.418   8.252   0.528  0.1892 -0.3544 -0.1009
    1W        W54309  10.968  27.647   7.313 -0.3846  0.0639 -0.0188
    1W        W54310  13.871   3.290   0.437 -0.4528  0.1539 -0.0721
    1W        W54311  22.358  19.932   0.706 -0.1727 -0.1159  0.1986
    1W        W54312  13.693  13.585   8.101 -0.1273 -0.1986 -0.4201
    1W        W54313  13.765  18.783   0.289 -0.0099 -0.2722 -0.2510
    1W        W54314   3.342  17.945   2.193 -0.0656 -0.0557  0.1310
    1W        W54315  28.173   1.918   8.367  0.0800  0.0760  0.2144
    1W        W54316   5.255  17.733   9.287 -0.0450  0.2584  0.4511
    1W        W54317  17.058  12.709   9.331 -0.0852 -0.0608  0.4175
    1W        W54318  10.265  20.548   9.504 -0.0086  0.1401 -0.2260
    1W        W54319  10.994   0.123   1.509  0.1492  0.0399 -0.1886
    1W        W54320  17.689  29.260   2.220 -0.5547 -0.0122 -0.0699
    1W        W54321   3.308  17.048   9.538 -0.1743 -0.0962 -0.1336
    1W        W54322   1.285  10.872   7.527 -0.1201 -0.3943 -0.0931
    1W        W54323   5.022  26.390   2.167 -0.1020  0.1743  0.3026
    1W        W54324  16.442  19.122   7.250  0.0524  0.1446 -0.2186
    1W        W54325  10.775   0.619   1.254 -0.3079 -0.0679  0.0863
    1W        W54326  29.638  23.605   0.344 -0.0384  0.0147 -0.0042
    1W        W54327  10.512   3.317   8.800  0.0313 -0.2185  0.0765
    1W        W54328  16.425  23.221   8.970 -0.2300 -0.3263  0.0880
    1W        W54329   1.422  12.927   1.783  0.0607  0.1425 -0.0098
    1W        W54330  28.403   7.512   9.492 -0.0239 -0.2273  0.0808
    1W        W54331  12.655  28.773   0.433 -0.2261 -0.2552  0.1084
    1W        W54332  23.072  15.959   6.975 -0.0253 -0.1424  0.0294
    1W        W54333  29.785  29.262   1.197  0.1931  0.0430 -0.0380
    1W        W54334  28.139  26.929   1.283 -0.0241  0.0323  0.0062
    1W        W54335   8.313  20.676   9.207  0.1838 -0.0305  0.0884
    1W        W54336  12.776  24.591   1.362  0.1453  0.1701 -0.1254
    1W        W54337  24.832   1.465   3.067 -0.2115  0.2539 -0.0144
    1W        W54338   0.235  23.914   8.777 -0.1438  0.2231  0.1932
    1W        W54339   5.894  26.487   1.712 -0.0218  0.2459 -0.1986
    1W        W54340   8.714   5.340   0.357 -0.2009  0.4475  0.2150
    1W        W54341   8.144  23.166   0.165 -0.3306  0.2453 -0.0390
    1W        W54342  20.084  14.679   0.981  0.0012 -0.2038  0.1546
    1W        W54343  20.553  20.947   5.418 -0.0611  0.2254  0.0863
    1W        W54344  19.322  23.832   7.318  0.3206 -0.0960  0.0525
    1W        W54345  14.901   2.747   2.831  0.1556  0.0965 -0.1565
    1W        W54346  22.000   2.273   2.777 -0.0224 -0.0408  0.1358
    1W        W54347  20.849  22.054   2.110  0.0295 -0.0257  0.3460
    1W        W54348   0.464   8.526   1.648  0.0028 -0.0653  0.1626
    1W        W54349  22.877  28.053   0.847 -0.2380  0.2073  0.0830
    1W        W54350  20.105  13.761   1.220  0.2727 -0.1656  0.0765
    1W        W54351  17.242  13.095   6.854  0.0546 -0.0158 -0.0153
    1W        W54352  17.192   4.224   3.928  0.1009  0.0364  0.3391
    1W        W54353   4.803   6.581   9.172 -0.1692  0.0459 -0.1364
    1W        W54354  17.159  10.248   6.315  0.2719  0.1460 -0.1725
    1W        W54355  12.943  22.311   8.925  0.5269  0.1671  0.1898
    1W        W54356  17.229  19.579   1.662  0.0253  0.0247  0.2707
    1W        W54357   8.072  28.629   9.072 -0.0547  0.2125  0.0948
    1W        W54358   4.105  20.929   0.228  0.0538 -0.0358 -0.1190
    1W        W54359  11.073   7.363   8.723 -0.1557 -0.0211  0.0260
    1W        W54360   2.549  13.423   1.705  0.1266 -0.1397  0.4344
    1W        W54361  23.708   5.798   7.651  0.0094  0.1132  0.3019
    1W        W54362   9.742  12.697   0.989 -0.0367 -0.0851  0.0491
    1W        W54363  19.174   1.395   4.018 -0.0198 -0.2285  0.1773
    1W        W54364   9.595   6.482   1.071 -0.0886  0.1140 -0.2078
    1W        W54365   9.596  23.471   0.273  0.0041 -0.2931  0.1986
    1W        W54366   8.112  14.290   2.360 -0.0432 -0.1327 -0.2614
    1W        W54367  25.555   6.358   7.353  0.1624  0.1131  0.2143
    1W        W54368   3.165  27.087   8.557 -0.0289  0.2919 -0.1553
    1W        W54369  19.318  15.525   1.166 -0.3576  0.1833  0.0348
    1W        W54370  23.424  18.861   7.111 -0.0992  0.0157 -0.0481
    1W        W54371   3.203  17.665   0.826  0.0543  0.0186 -0.1668
    1W        W54372   6.096   5.402   7.972 -0.2785  0.0104 -0.0154
    1W        W54373   1.610  24.898   0.927 -0.1301  0.2649 -0.1206
    1W        W54374   7.484  10.065   9.536 -0.2914 -0.2056  0.0415
    1W        W54375  11.121  20.478   8.266  0.1175 -0.1718 -0.0906
    1W        W54376  15.512  11.511   0.844  0.2209 -0.2040  0.1445
    1W        W54377  26.696  24.037   2.179  0.0471 -0.2221  0.1758
    1W        W54378   8.343  14.349   1.827 -0.2070  0.1233 -0.0637
    1W        W54379  14.227   0.700   1.534 -0.1187 -0.3017 -0.0170
    1W        W54380  29.580   1.519   0.826 -0.0528  0.2735  0.1336
    1W        W54381  25.141  16.238   0.610  0.0107  0.0158  0.0471
    1W        W54382  18.185   8.184   8.625 -0.0760 -0.1478 -0.0258
    1W        W54383   8.180  21.466   8.792 -0.0597 -0.3945  0.2561
    1W        W54384  20.026  14.624   8.133 -0.0349  0.0477 -0.3474
    1W        W54385   0.568   8.834   3.187 -0.0018  0.1629 -0.0278
    1W        W54386  11.654  19.382   2.001 -0.0666 -0.1763 -0.0077
    1W        W54387   0.320   8.067   2.000  0.1038  0.0139  0.5434
    1W        W54388   6.873  27.521   1.231 -0.2550  0.0935  0.2115
    1W        W54389  12.737   5.410   1.971  0.1228 -0.0707  0.1925
    1W        W54390  10.242  24.785   8.519 -0.0736 -0.0718 -0.1547
    1W        W54391   5.116  16.961   7.405 -0.1066  0.0373 -0.1423
    1W        W54392  26.351  27.326   8.674 -0.2048  0.4544 -0.1629
    1W        W54393  22.761  16.046   8.345 -0.0689 -0.1074 -0.2644
    1W        W54394  19.358  12.671   1.776  0.2693  0.0578 -0.1639
    1W        W54395   0.059  19.913   1.369 -0.2272 -0.0850  0.0615
    1W        W54396   8.039  19.166   1.696  0.0716 -0.0305 -0.0245
    1W        W54397  10.988  21.430   2.242 -0.4064 -0.0861  0.0689
    1W        W54398   1.949  19.146   2.434  0.2044  0.1139 -0.0416
    1W        W54399   0.054  18.614   1.385 -0.0713 -0.2047 -0.0804
    1W        W54400   5.771   4.136   9.056 -0.4169 -0.2029 -0.1014
    1W        W54401   2.671  13.439   1.183 -0.0655 -0.1018  0.2671
    1W        W54402   4.054  29.537   8.779 -0.2137 -0.1714 -0.4538
    1W        W54403   8.977  26.184   2.005  0.0750 -0.0692  0.2618
    1W        W54404  19.310   8.983   3.246  0.0325  0.2647 -0.2766
    1W        W54405  15.631  18.109   8.991  0.2696 -0.3275  0.3606
    1W        W54406  26.174   3.905   7.593 -0.1647 -0.0087  0.1462
    1W        W54407  15.490  29.000   8.213 -0.1763  0.1344  0.1756
    1W        W54408  19.321  14.808   9.489  0.1442 -0.1599  0.0268
    1W        W54409   9.417   8.901   0.284  0.0241 -0.0599  0.0717
    1W        W54410  20.666  19.715   2.248 -0.1424 -0.0040  0.0004
    1W        W54411   6.530  27.728   2.585  0.0401  0.0918  0.1993
    1W        W54412  14.942   8.725   1.046 -0.3141  0.0036 -0.1282
    1W        W54413   3.251  21.043   0.390 -0.1898  0.2293 -0.1371
    1W        W54414  22.059  19.186   0.077  0.2013 -0.3568 -0.0537
    1W        W54415  24.776  18.348   8.011  0.1494 -0.0639 -0.1198
    1W        W54416  12.952  29.104   0.602 -0.3412  0.0866  0.2967
    1W        W54417  18.335  29.304   9.253  0.0737 -0.2096 -0.2401
    1W        W54418  18.029   5.812   2.142 -0.0904 -0.0823 -0.0340
    1W        W54419   0.465  26.795   7.653  0.0591  0.2912 -0.0958
    1W        W54420   8.157  20.936   1.047 -0.0429 -0.1751 -0.0194
    1W        W54421  15.962  13.999   9.233 -0.1166 -0.0965 -0.2355
    1W        W54422   4.329  13.404   1.161  0.0367 -0.0498  0.1025
    1W        W54423  17.603  22.512   7.638 -0.1185  0.1292 -0.0241
    1W        W54424  28.734  14.049   7.505 -0.1547 -0.0231 -0.3528
    1W        W54425   3.166  25.860   8.339  0.1204 -0.1122  0.1912
    1W        W54426  11.478   3.295   0.833 -0.0322  0.2067 -0.0552
    1W        W54427  26.153   9.607   6.599 -0.1877  0.1284 -0.1009
    1W        W54428  27.564   5.140   7.776  0.3960 -0.2062 -0.0137
    1W        W54429   7.973   0.413   8.190  0.1746 -0.0319  0.0031
    1W        W54430  17.646   2.184   9.077 -0.1365  0.1964 -0.2944
    1W        W54431   8.910  18.807   1.708  0.0084  0.1655 -0.0033
    1W        W54432   5.220  25.766   1.279  0.3479 -0.1775 -0.2396
    1W        W54433   6.512  23.084   8.279 -0.1889 -0.2938 -0.1169
    1W        W54434   6.025   8.201   1.126  0.1517  0.2007 -0.0052
    1W        W54435  19.813   0.874   4.280 -0.0764  0.1254  0.1603
    1W        W54436  29.221   5.157   7.302 -0.0560  0.1164 -0.1679
    1W        W54437  14.802   1.690   6.828  0.2107 -0.0316 -0.1152
    1W        W54438   5.948  24.386   6.425  0.1699  0.0538 -0.0037
    1W        W54439  19.528  11.194   2.552 -0.4354 -0.2697  0.1289
    1W        W54440  22.648  27.601   3.344 -0.2017  0.0148 -0.1115
    1W        W54441  28.068  28.331   0.231  0.2638 -0.0347  0.1810
    1W        W54442  23.709   5.097   0.733 -0.0452 -0.2114  0.0256
    1W        W54443  13.208   5.571   9.381 -0.3497  0.3359 -0.1783
    1W        W54444  10.753  15.699   0.782 -0.2276  0.0628 -0.0018
    1W        W54445  11.317   7.070   1.765  0.0876 -0.0016 -0.1855
    1W        W54446   0.394  29.686   8.360 -0.3187  0.2219  0.0490
    1W        W54447   5.513   8.597   7.638  0.1113 -0.0628  0.2111
    1W        W54448   9.617  19.578   7.423 -0.2243  0.1100  0.0336
    1W        W54449  22.718  17.649   7.252  0.3502 -0.1667  0.2454
    1W        W54450  27.577  28.478   7.453 -0.0154  0.0801  0.1722
    1W        W54451  16.896  18.045   0.680 -0.0918  0.0531  0.0024
    1W        W54452  22.675  10.719   9.112  0.0451 -0.3109  0.0579
    1W        W54453   0.041  24.689   1.070  0.0626  0.0748  0.1726
    1W        W54454  24.460   9.062   1.924 -0.1416 -0.2069 -0.2182
    1W        W54455  14.622   8.426   6.864  0.1719  0.2725 -0.0173
    1W        W54456  28.468   0.484   2.249 -0.1190  0.0615  0.1246
    1W        W54457   1.455   0.624   2.535  0.0410  0.0390 -0.0420
    1W        W54458  14.414   9.131   8.690  0.1814 -0.0317  0.3403
    1W        W54459   0.347  12.796   7.137 -0.2003 -0.1740 -0.1384
    1W        W54460   3.521   7.263   6.112  0.2700  0.1412  0.2140
    1W        W54461   7.710  17.542   0.780 -0.2266  0.2189  0.0518
    1W        W54462  27.793  24.760   8.923  0.1618 -0.1886 -0.1349
    1W        W54463  14.841   6.843   8.133 -0.0666  0.0848  0.2423
    1W        W54464  26.151   4.995   6.545 -0.0130 -0.1518  0.0434
    1W        W54465   5.840   1.516   0.202  0.0544  0.2411  0.1119
    1W        W54466  12.306  15.030   2.334  0.0517 -0.2216  0.0483
    1W        W54467   0.911  25.837   7.799  0.0700  0.0605  0.2020
    1W        W54468  10.024  26.529   3.456 -0.2416  0.2630 -0.1848
    1W        W54469  18.803  11.887   1.168  0.0591  0.0022 -0.1802
    1W        W54470  28.724  10.680   2.523 -0.2402  0.1975 -0.2078
    1W        W54471  14.622   5.532   2.668 -0.2428 -0.5116  0.6567
    1W        W54472   8.940  13.698   1.279  0.0996  0.0179  0.0337
    1W        W54473  16.048  12.395   2.452  0.0997 -0.0119  0.1201
    1W        W54474   8.137  16.637   7.368  0.0459  0.1590  0.1875
    1W        W54475   2.552  15.825   0.771  0.2258 -0.0564  0.0851
    1W        W54476  26.087  14.626   6.872 -0.1453  0.0632  0.0458
    1W        W54477  27.805  25.751   0.491  0.2909  0.2218  0.2244
    1W        W54478  20.184   3.337   0.390  0.0840 -0.1293  0.1054
    1W        W54479  15.841   0.958   7.262 -0.0596  0.0843  0.2153
    1W        W54480  25.235  18.736   1.533 -0.0732 -0.0147  0.1516
    1W        W54481   4.849   9.141   1.840 -0.1780 -0.1311 -0.1418
    1W        W54482  17.599  15.897   8.513 -0.2277  0.1596 -0.0755
    1W        W54483  22.816  11.006   5.796 -0.2026 -0.1129 -0.1577
    1W        W54484  15.775  12.096   6.915  0.1253  0.0975 -0.3100
    1W        W54485  20.716   1.856   1.427  0.1511 -0.2330  0.0544
    1W        W54486  24.068  18.237   7.435 -0.0022  0.2854 -0.1020
    1W        W54487   3.109  19.698   0.811 -0.0829  0.0720 -0.2310
    1W        W54488  20.551  22.552   1.674 -0.0174  0.1523 -0.2693
    1W        W54489  15.598  13.247   8.644  0.0431  0.0401  0.2761
    1W        W54490  20.322  19.022   8.508 -0.2109  0.0593 -0.0098
    1W        W54491  13.039  11.775   9.264 -0.2205 -0.1245 -0.0286
    1W        W54492  12.672  10.327   7.619  0.1478  0.0464  0.0786
    1W        W54493   8.313  18.715   7.794  0.1465 -0.1388 -0.6109
    1W        W54494  20.905   9.216   6.648 -0.0130  0.0794  0.3805
    1W        W54495  27.720  11.529   7.150 -0.1914  0.0188 -0.2652
    1W        W54496  25.134   8.639   8.921  0.0555 -0.3088 -0.2649
    1W        W54497   9.943  20.179   9.339 -0.1396 -0.0705 -0.0177
    1W        W54498  23.279  25.943   2.937  0.0435  0.1040 -0.0521
    1W        W54499  17.215  28.090   9.266 -0.0642  0.1899 -0.1581
    1W        W54500  21.226   5.177   1.395 -0.2028 -0.2580  0.2920
    1W        W54501  14.627  18.810   8.715  0.0674 -0.0914 -0.0785
    1W        W54502  11.616   6.371   3.048  0.1624 -0.0967 -0.2393
    1W        W54503  10.389  16.532   9.456  0.0910  0.1507  0.2056
    1W        W54504  13.562  28.143   2.537 -0.0902 -0.2700 -0.1736
    1W        W54505  21.844  17.254   8.691  0.1382 -0.0859 -0.0571
    1W        W54506  22.999  11.163   7.179 -0.0098  0.0708  0.0239
    1W        W54507  18.322  20.240   9.191 -0.1339 -0.0716 -0.2067
    1W        W54508  17.564  25.335   1.834  0.2081  0.1709 -0.0342
    1W        W54509  17.885   4.735   8.356 -0.0114 -0.0951  0.0107
    1W        W54510  15.547  17.846   8.142  0.2922  0.3248  0.1664
    1W        W54511   0.912  17.162   6.984 -0.0433  0.0550  0.0668
    1W        W54512  11.546   0.036   7.770 -0.2929  0.0557 -0.0795
    1W        W54513   0.818  28.876   2.003 -0.1371  0.0209  0.0838
    1W        W54514  25.306   7.956   0.144 -0.0329 -0.1479  0.3342
    1W        W54515   3.910  21.391   8.548  0.0658  0.1692  0.0946
    1W        W54516  25.375   1.841   8.213  0.0867 -0.0354 -0.1313
    1W        W54517  23.657   1.729   9.531  0.0098 -0.3125  0.0813
    1W        W54518  15.945  24.514   0.355  0.1059 -0.0440  0.3335
    1W        W54519  13.313   6.077   6.347 -0.0300 -0.1648 -0.0792
    1W        W54520   0.247  23.890   0.246 -0.0137 -0.1254  0.0421
    1W        W54521  12.408  13.881   0.793  0.0298  0.0090 -0.0798
    1W        W54522  14.147   6.946   9.281  0.0063  0.1837  0.3547
    1W        W54523  10.657  28.358   2.548 -0.0485 -0.2235  0.0336
    1W        W54524  21.101  15.751   1.596  0.0790 -0.0305  0.1755
    1W        W54525  10.423  11.210   7.976  0.1288 -0.0843 -0.1326
    1W        W54526  19.549   1.218   8.424  0.0246  0.1056 -0.0600
    1W        W54527   7.676  14.619   9.209  0.0952  0.0890 -0.2529
    1W        W54528  16.426   0.696   0.520  0.0508 -0.0389  0.1742
    1W        W54529  27.099  18.045   8.249  0.0356  0.0491  0.1329
    1W        W54530  24.326  23.586   0.912 -0.1726  0.5164  0.0133
    1W        W54531   6.916   2.985   2.717  0.0741 -0.2648  0.1260
    1W        W54532  28.937  24.583   2.111 -0.1655  0.0265  0.0584
    1W        W54533  24.303   2.290   0.589  0.1417  0.3500  0.3867
    1W        W54534  25.579  18.172   7.290 -0.0202  0.0091 -0.2948
    1W        W54535  19.961  19.421   7.733  0.2305 -0.0529 -0.1033
    1W        W54536  11.171  12.037   9.121  0.0639  0.2837  0.0486
    1W        W54537   3.089  22.850   1.409  0.2750 -0.1164  0.0209
    1W        W54538  26.618  27.433   2.957  0.0313 -0.0681  0.4388
    1W        W54539   2.116   9.191   8.235 -0.0522  0.3183 -0.0496
    1W        W54540   6.437  27.584   8.133 -0.2850  0.2379  0.0395
    1W        W54541   2.923  11.053   8.961  0.1072 -0.1465  0.0845
    1W        W54542  17.234  29.336   7.945 -0.2485 -0.0516  0.1144
    1W        W54543  26.899   1.665   0.013  0.3987 -0.3168 -0.0778
    1W        W54544  19.734   9.322   9.055  0.1862  0.2912 -0.1015
    1W        W54545  10.940  19.977   0.159 -0.0848 -0.0957 -0.0981
    1W        W54546  15.776  23.099   0.983 -0.4176 -0.0515 -0.0465
    1W        W54547  22.677  29.166   2.176 -0.4042 -0.3019 -0.2275
    1W        W54548  13.520  19.237   0.368 -0.0621 -0.1917  0.3484
    1W        W54549   4.517   7.262   8.311 -0.1758 -0.2095  0.3959
    1W        W54550  15.795   8.685   2.451  0.2400 -0.1508 -0.0772
    1W        W54551  24.169   5.570   2.263  0.0310 -0.1806  0.0220
    1W        W54552  25.388  17.050   9.334  0.0503  0.1016 -0.0518
    1W        W54553   3.165  12.822   8.142 -0.2256  0.2052 -0.0772
    1W        W54554  18.254  14.608   1.672  0.1687  0.0428  0.0852
    1W        W54555  12.546  19.733   1.116 -0.1928 -0.1661 -0.1100
    1W        W54556   4.713   1.404   9.305  0.2772  0.4257  0.3585
    1W        W54557  10.176   5.254   9.250 -0.0987 -0.0350 -0.0690
    1W        W54558  17.405   7.269   8.143  0.1157 -0.1612 -0.4492
    1W        W54559  17.962  18.479   8.387  0.0913  0.2811 -0.0628
    1W        W54560  19.721  20.650   1.451  0.2398 -0.2920  0.1836
    1W        W54561   8.483  21.046   1.510 -0.3522 -0.1566  0.0032
    1W        W54562  19.025   7.317   1.508  0.3793 -0.0210 -0.2460
    1W        W54563  16.495  14.382   7.286 -0.4053  0.0589 -0.1985
    1W        W54564  16.153  13.067   8.093 -0.1017  0.1364  0.0476
    1W        W54565   8.665  19.654   1.365 -0.1454  0.1410  0.1037
    1W        W54566   5.493  10.262   8.587 -0.0927 -0.1886 -0.0397
    1W        W54567  28.117  22.628   0.383  0.0014  0.5355 -0.2152
    1W        W54568  25.048  12.919   0.411 -0.1166 -0.1075  0.0849
    1W        W54569  15.274  22.081   7.489 -0.0878 -0.0131  0.4064
    1W        W54570  16.105   6.682   7.295 -0.1690  0.1197  0.0745
    1W        W54571  21.802  15.046   0.098 -0.1431  0.1731  0.0056
    1W        W54572  24.188  27.183   0.134 -0.1877  0.1782  0.2330
    1W        W54573  12.075  22.821   8.340  0.1608 -0.2976 -0.1846
    1W        W54574  13.081  27.187   8.700 -0.1871  0.1570 -0.0805
    1W        W54575   5.220  16.252   1.369  0.1592  0.2981 -0.0935
    1W        W54576   4.366  27.203   9.329 -0.3964 -0.2309  0.1125
    1W        W54577   7.511  20.975   7.977  0.1738 -0.1947 -0.0592
    1W        W54578   7.978   8.277   7.995 -0.1956  0.3993 -0.0311
    1W        W54579   0.813  29.350   8.477  0.1106  0.1411  0.0923
    1W        W54580   8.909   9.723   0.360  0.0704 -0.2132  0.0786
    1W        W54581  16.750  26.637   2.996  0.0281  0.0342 -0.1507
    1W        W54582  20.453   7.963   2.479  0.0922  0.3368 -0.1315
    1W        W54583  17.804  10.667   2.022 -0.3096 -0.0724  0.3310
    1W        W54584   3.054  25.205   7.994 -0.0665 -0.0771 -0.1837
    1W        W54585   1.944   9.832   8.692  0.3422 -0.1461  0.1526
    1W        W54586  17.607  28.015   3.565  0.1323  0.2824 -0.1263
    1W        W54587   9.139   8.460   0.403  0.0226 -0.2623  0.1219
    1W        W54588  18.584   3.953   7.262  0.0926 -0.2234  0.1903
    1W        W54589  20.755  17.246   0.056  0.0797 -0.0203  0.0297
    1W        W54590  26.416  26.122   1.208  0.1702  0.1206  0.1965
    1W        W54591   7.264  29.537   7.150  0.1568 -0.0780 -0.1865
    1W        W54592  16.024   0.490   7.097  0.1164  0.0850  0.1902
    1W        W54593  10.443  25.128   2.965 -0.3633 -0.1336  0.1351
    1W        W54594   5.101  20.093   7.375  0.0639  0.2945 -0.0317
    1W        W54595  20.262  29.263   1.814 -0.2011 -0.0046  0.1296
    1W        W54596  12.958  15.763   7.002 -0.0033  0.2207  0.0683
    1W        W54597  23.000  21.187   7.989 -0.1065 -0.3372  0.0005
    1W        W54598  26.531  17.248   7.642 -0.1707 -0.0302  0.1402
    1W        W54599   7.006  23.059   2.630 -0.1526  0.2438  0.4207
    1W        W54600  17.472   8.194   7.148 -0.4558 -0.3494  0.1162
    1W        W54601   2.271  12.273   6.621  0.0610  0.1197  0.4838
    1W        W54602  10.015  21.872   1.528  0.0435  0.4365 -0.1033
    1W        W54603  25.124  24.749   0.973 -0.2271  0.1337 -0.1227
    1W        W54604  28.041  24.340   8.977  0.1044  0.1445 -0.1034
    1W        W54605  25.917   5.051   1.794 -0.0131  0.1589 -0.2248
    1W        W54606   9.027   3.007   3.838 -0.1302 -0.3057 -0.3472
    1W        W54607  16.027  21.013   7.261  0.0117  0.0455 -0.1402
    1W        W54608  28.321  16.981   6.439  0.1388  0.1892  0.1724
    1W        W54609  15.168  23.333   7.301 -0.1844  0.0751  0.2315
    1W        W54610  16.865   5.968   8.121  0.0403  0.2789 -0.1255
    1W        W54611  17.776   9.901   1.410  0.2616 -0.3068  0.1713
    1W        W54612  10.435   3.412   7.782  0.0955 -0.0729 -0.0463
    1W        W54613   4.618  28.957   1.243  0.0911 -0.1526 -0.2902
    1W        W54614   7.773  22.380   9.051 -0.0420 -0.3024 -0.5077
    1W        W54615  15.610  24.289   2.529 -0.0142  0.0889  0.1002
    1W        W54616  25.168  26.290   1.107  0.3079  0.1792 -0.2302
    1W        W54617  29.067   2.344   2.824 -0.0451  0.0099  0.1762
    1W        W54618   8.934  28.191   1.588  0.0054 -0.0408 -0.0923
    1W        W54619  14.403   8.688   9.035 -0.1567 -0.0559  0.1675
    1W        W54620   8.793  16.275   1.146  0.0269  0.2242  0.0071
    1W        W54621  29.408  27.349   8.804 -0.1781 -0.0153  0.0390
    1W        W54622   4.647   8.859   7.021  0.0696 -0.0230 -0.0426
    1W        W54623   6.223  23.120   2.430 -0.2228 -0.0132 -0.1785
    1W        W54624  17.330   1.881   2.465  0.1596  0.2069  0.0278
    1W        W54625  21.307  19.068   1.936  0.1490 -0.2408  0.1857
    1W        W54626  14.001  10.734   2.076 -0.0012 -0.0294 -0.2387
    1W        W54627   0.836  28.292   0.442  0.0573  0.2178  0.0637
    1W        W54628  20.344  20.958   9.087 -0.1639 -0.1346 -0.2332
    1W        W54629   8.389   5.028   7.039  0.0582 -0.0459  0.1524
    1W        W54630  28.375  25.453   1.018  0.0203  0.5479  0.2913
    1W        W54631   2.976   9.018   0.559 -0.2013  0.1049  0.2253
    1W        W54632   3.805   6.888   0.468  0.0068 -0.0115  0.1441
    1W        W54633  10.695  20.233   2.762  0.1945  0.0140  0.0409
    1W        W54634  25.474   6.234   0.007 -0.0189 -0.0345  0.0883
    1W        W54635  11.646   3.850   7.664  0.2474 -0.0361  0.3096
    1W        W54636  27.480   6.951   9.484  0.0195  0.2297  0.2170
    1W        W54637   6.242  17.146   8.050  0.0296 -0.1458 -0.2964
    1W        W54638   1.511  14.502   8.169 -0.0180  0.0250 -0.2066
    1W        W54639  13.676   3.404   9.536 -0.0266 -0.0477  0.0952
    1W        W54640  11.596  29.456   9.199 -0.1007 -0.1680  0.0093
    1W        W54641   3.931  20.509   8.395  0.0195  0.0319 -0.2161
    1W        W54642  25.122  25.965   9.042  0.4444 -0.2974 -0.1914
    1W        W54643  27.204  25.150   7.631 -0.4519 -0.2841  0.4252
    1W        W54644  18.485  19.899   1.799 -0.0480  0.0201 -0.1906
    1W        W54645  15.875   8.890   1.239 -0.0928  0.0423  0.1775
    1W        W54646  10.927   8.355   3.530 -0.0004  0.1643 -0.1192
    1W        W54647  15.388  19.886   1.723 -0.0944 -0.1327  0.0237
    1W        W54648  12.411   1.931   1.357  0.1181 -0.2047  0.0408
    1W        W54649  16.899  20.482   0.133 -0.1868 -0.1346  0.3238
    1W        W54650   1.745  13.752   7.527 -0.0680  0.0102  0.2556
    1W        W54651  13.784   3.374   7.197  0.3184 -0.1564  0.0303
    1W        W54652   3.444   1.801   7.258  0.2595 -0.0293 -0.0200
    1W        W54653   9.435   3.722   0.191  0.0760  0.1521  0.4593
    1W        W54654   9.462   6.824   2.808 -0.0096 -0.1795  0.0465
    1W        W54655  17.336  14.205   1.491  0.0015 -0.1302  0.1517
    1W        W54656  28.943  29.383   1.110  0.0238  0.1355 -0.0772
    1W        W54657   1.219  25.197   1.522 -0.2211  0.2647  0.0342
    1W        W54658   7.995  26.218   8.088 -0.0552 -0.2237 -0.0544
    1W        W54659  20.245  15.608   6.490  0.1483  0.0418  0.1840
    1W        W54660   7.552  26.829   1.194 -0.2284  0.0342 -0.3393
    1W        W54661  20.597   4.919   7.559 -0.1172  0.2622 -0.0993
    1W        W54662   4.470  15.762   2.496  0.2099  0.1857 -0.1990
    1W        W54663  28.368  10.997   2.297 -0.2414 -0.1244  0.2094
    1W        W54664   5.304   7.793   1.254  0.0183 -0.2432 -0.1976
    1W        W54665  27.455   1.052   9.122  0.0207 -0.1268 -0.1608
    1W        W54666  27.202   7.347   8.579 -0.1366  0.0901  0.3097
    1W        W54667   4.062  17.650   0.979  0.0630 -0.1921  0.1079
    1W        W54668   6.379  22.046   8.917  0.1727 -0.0411 -0.1893
    1W        W54669  23.959  11.162   9.132 -0.4937  0.0439 -0.2034
    1W        W54670  10.219   8.794   9.200 -0.1312  0.0687 -0.1094
    1W        W54671  19.508   8.691   2.530 -0.1277 -0.0106 -0.1397
    1W        W54672  25.241  22.180   0.968  0.3908  0.0699  0.1930
    1W        W54673  14.376   8.527   2.696 -0.0096  0.1417  0.1118
    1W        W54674  26.233  17.453   0.990  0.2083 -0.3069  0.0850
    1W        W54675  21.729   4.726   2.468  0.0338  0.2428 -0.1877
    1W        W54676  19.781   7.523   7.999 -0.0927  0.0404  0.1772
    1W        W54677   5.218   2.270   9.218  0.1681  0.0467  0.2072
    1W        W54678   6.445  20.804   8.150  0.1723  0.0653  0.0904
    1W        W54679  17.941  23.189   2.711 -0.1436  0.0435  0.0303
    1W        W54680  12.328  18.313   2.005  0.4131 -0.0905  0.0535
    1W        W54681  22.729  13.238   7.779  0.0843  0.0586  0.0861
    1W        W54682  24.077   0.037   9.295  0.1412 -0.1822 -0.0814
    1W        W54683   7.678   6.751   9.123 -0.2229 -0.2584  0.0179
    1W        W54684  12.844   2.659   2.136  0.1488 -0.2425  0.3689
    1W        W54685   7.154  14.293   7.070 -0.0379 -0.0029 -0.1986
    1W        W54686  23.643  12.465   1.498 -0.0629 -0.0765  0.1029
    1W        W54687   3.094  13.105   7.728 -0.2831  0.3377 -0.1730
    1W        W54688  18.042  25.518   0.417 -0.1825 -0.0674  0.1651
    1W        W54689  21.491  22.814   2.021 -0.1081  0.0656 -0.2572
    1W        W54690   4.253  14.178   7.295  0.2003  0.2604 -0.0291
    1W        W54691  18.403  16.468   1.460  0.1962  0.0115  0.5532
    1W        W54692  20.017   0.289   0.040 -0.1260 -0.1828  0.1759
    1W        W54693  17.235  14.257   0.980 -0.1141 -0.0855  0.1095
    1W        W54694  17.862   8.949   0.621 -0.0048 -0.1411  0.2964
    1W        W54695  23.288  23.967   2.140  0.0271  0.1301  0.0809
    1W        W54696  24.141  19.539   8.147  0.0842  0.2566  0.0319
    1W        W54697  24.263  15.457   7.696 -0.1873  0.3120  0.1164
    1W        W54698   0.147  14.406   9.133 -0.1101  0.2379  0.2873
    1W        W54699   8.748   1.791   8.778 -0.2041 -0.0445 -0.0078
    1W        W54700  17.862   7.809   8.792  0.1652  0.0493 -0.0007
    1W        W54701   5.932  26.204   7.094  0.1180 -0.1498  0.2006
    1W        W54702  28.043   2.929   8.250 -0.0724  0.2495 -0.2468
    1W        W54703   0.055   9.710   1.370  0.0639 -0.1285  0.0403
    1W        W54704  28.056  18.653   6.047  0.0527  0.3245  0.2559
    1W        W54705  19.119  20.167   0.876 -0.0188 -0.0869 -0.3579
    1W        W54706  22.583  29.107   8.054 -0.3701 -0.3005 -0.0816
    1W        W54707   6.954   4.629   2.926 -0.0478  0.2832  0.1127
    1W        W54708  10.398  14.586   0.954  0.0900 -0.1914 -0.1284
    1W        W54709  23.370   4.966   2.201 -0.0163  0.2483 -0.0860
    1W        W54710  21.211  27.756   1.869 -0.0854 -0.1459  0.3655
    1W        W54711  22.764   1.739   9.086  0.1965  0.2118  0.2717
    1W        W54712  26.225  21.357   8.729 -0.0684 -0.1430 -0.0215
    1W        W54713   4.370   1.881   9.413 -0.0949 -0.0178  0.1215
    1W        W54714  12.560  29.084   3.060  0.0429  0.2295  0.2262
    1W        W54715   1.793   1.721   8.431  0.2661 -0.1720  0.1768
    1W        W54716   2.662  16.923   7.134  0.0116  0.1774 -0.2297
    1W        W54717  26.011  19.500   5.697 -0.0125 -0.2114  0.0318
    1W        W54718   5.700  29.312   8.480  0.0104  0.1538 -0.7388
    1W        W54719  27.748  20.445   8.737  0.2178  0.3058 -0.0579
    1W        W54720  24.498  27.245   8.718  0.2218  0.0697  0.1712
    1W        W54721  27.566   8.234   0.383  0.0210 -0.3325 -0.3242
    1W        W54722  21.583  10.982   1.575 -0.1266  0.1563 -0.0320
    1W        W54723  13.872  27.294   6.195 -0.0750 -0.2357 -0.2914
    1W        W54724  15.330   8.887   0.628 -0.1356 -0.1148 -0.0399
    1W        W54725  29.184  29.614   8.466  0.1102 -0.2383 -0.0085
    1W        W54726  14.489   1.938   0.322  0.0865  0.1806  0.1027
    1W        W54727  22.459  28.120   7.205  0.2489 -0.1167 -0.1375
    1W        W54728  17.266   3.934   9.431 -0.2210  0.2968  0.0081
    1W        W54729  18.616  24.820   1.940  0.0020  0.0057 -0.3105
    1W        W54730  20.349  12.088   0.509  0.1430  0.2525  0.0411
    1W        W54731  13.101  22.950   2.369 -0.2586  0.0027  0.2072
    1W        W54732  17.710   6.813   9.147  0.3224  0.0226 -0.0612
    1W        W54733  29.195  14.020   0.865 -0.2916  0.1456  0.0999
    1W        W54734   4.657  24.157   6.536 -0.0179 -0.2155 -0.2789
    1W        W54735  22.967  20.659   8.079  0.2195  0.0537 -0.1257
    1W        W54736  20.037   4.906   8.083  0.1276 -0.2348 -0.1548
    1W        W54737  23.850   9.800   0.700 -0.3331 -0.2461  0.1013
    1W        W54738   5.297   1.452   9.203  0.0018 -0.0524  0.3153
    1W        W54739  15.737  22.209   8.500  0.0998  0.1355  0.1946
    1W        W54740  21.028  23.442   0.852 -0.1854  0.2528 -0.1273
    1W        W54741   3.707  26.237   1.064  0.0325  0.1144 -0.2834
    1W        W54742  21.096  15.143   1.233  0.0344  0.1235 -0.1756
    1W        W54743  24.991  12.741   1.484 -0.0111  0.0699 -0.1179
    1W        W54744  26.044  27.252   7.057  0.0432  0.0657 -0.1147
    1W        W54745  15.318  10.094   7.709 -0.2630 -0.3261 -0.1703
    1W        W54746  12.937   7.856   8.365 -0.3621  0.1162  0.0845
    1W        W54747  23.423  21.430   0.757  0.1106 -0.1947 -0.2146
    1W        W54748  12.394   2.715   0.379  0.1553 -0.1827  0.1295
    1W        W54749   7.265  12.351   2.949  0.1092  0.0100  0.1066
    1W        W54750   0.734  20.732   8.388 -0.0823  0.3691  0.0135
    1W        W54751  22.369   7.083   2.760 -0.1287 -0.0105  0.3338
    1W        W54752   1.155   4.710   6.911 -0.0232 -0.0564  0.1782
    1W        W54753  16.162   3.310   8.371 -0.1694  0.3473 -0.1056
    1W        W54754  29.217   7.021   1.909 -0.0195  0.0292 -0.2460
    1W        W54755   5.346  12.312   2.407  0.0862  0.2502  0.0383
    1W        W54756   2.032   6.401   1.174 -0.1364  0.0693 -0.1387
    1W        W54757  24.859   2.971   1.400  0.1369  0.1260 -0.1481
    1W        W54758   8.589  10.009   0.743 -0.0341 -0.0296 -0.1591
    1W        W54759  27.654   3.497   9.260  0.2752 -0.1471  0.1558
    1W        W54760  15.492  15.130   7.757  0.0621 -0.0022 -0.3898
    1W        W54761  26.303   6.575   7.455  0.0160 -0.0865  0.3360
    1W        W54762   7.557   0.094   3.646  0.2879  0.0863 -0.2314
    1W        W54763  14.435  12.301   7.446  0.0876  0.0896 -0.0849
    1W        W54764  17.470  19.241   7.197  0.0447  0.4394 -0.0426
    1W        W54765   8.658   8.126   2.468 -0.0403  0.0220  0.0495
    1W        W54766  22.896  16.926   7.961  0.0254  0.0901  0.0216
    1W        W54767  24.278  21.428   5.623  0.1935 -0.1282 -0.0140
    1W        W54768  26.148  27.262   2.899  0.3253 -0.0547  0.0328
    1W        W54769   6.166  23.603   8.905 -0.1850  0.1150 -0.0597
    1W        W54770   9.617  24.372   7.364  0.3368 -0.0933  0.1304
    1W        W54771  25.093  28.364   2.677 -0.0128  0.0077  0.3593
    1W        W54772  14.034  17.607   3.138  0.1038 -0.0962  0.2825
    1W        W54773  27.454  26.160   7.505 -0.0934  0.0218 -0.0046
    1W        W54774  27.816   6.689   7.358 -0.3799 -0.2393  0.0444
    1W        W54775   4.689   9.141   8.005 -0.1237 -0.1543  0.0880
    1W        W54776   4.907   8.592   0.434  0.2564 -0.2559 -0.0835
    1W        W54777  22.114  15.521   0.459 -0.2885  0.2559  0.0232
    1W        W54778  21.180  15.502   0.559 -0.0347  0.0952 -0.0678
    1W        W54779  13.206  10.414   8.817  0.1722  0.1663 -0.1065
    1W        W54780   2.108  17.545   1.891  0.0947 -0.0168 -0.0139
    1W        W54781  15.739   2.267   2.367 -0.0381  0.0254  0.1692
    1W        W54782  21.885   4.746   8.341  0.0244 -0.3674 -0.0754
    1W        W54783   3.727  27.341   2.247  0.1840  0.0262 -0.1554
    1W        W54784   6.511   9.241   2.151 -0.1175  0.0229  0.0800
    1W        W54785   8.216   5.748   0.944  0.0769 -0.2952 -0.1257
    1W        W54786   7.305  27.545   7.754  0.3293 -0.2577  0.1285
    1W        W54787  19.982  13.458   5.964 -0.0834 -0.5798 -0.2463
    1W        W54788   3.792  11.202   8.786 -0.3488 -0.2701 -0.0009
    1W        W54789   6.234  15.333   7.678  0.2044  0.2878  0.2439
    1W        W54790  16.458  12.529   6.671  0.0655 -0.1825 -0.1473
    1W        W54791   3.721  21.932   7.256 -0.1119 -0.1142  0.2083
    1W        W54792  10.764   2.565   8.210 -0.2227 -0.2058  0.3131
    1W        W54793  12.847  27.617   7.794 -0.0284  0.0553  0.0779
    1W        W54794   2.465   7.853   2.068  0.2336  0.1472 -0.0699
    1W        W54795  15.316  16.192   2.220  0.0536  0.1304 -0.1364
    1W        W54796   8.575  10.131   2.470 -0.1242 -0.2376 -0.0248
    1W        W54797   7.982   4.338   7.808  0.2324 -0.0467 -0.3474
    1W        W54798   4.920  27.752   8.029  0.3428  0.2557  0.1502
    1W        W54799  12.714  10.676   2.678 -0.0075 -0.0272  0.1419
    1W        W54800  11.508  23.297   1.917  0.2673  0.2484 -0.1000
    1W        W54801  17.196  23.568   1.946  0.0103  0.0421  0.0013
    1W        W54802  14.850  29.291   9.004  0.3683 -0.1524 -0.2277
    1W        W54803   8.282   6.827   1.898 -0.0449 -0.2888  0.0581
    1W        W54804   1.111   2.808   0.515 -0.1608 -0.0332 -0.1487
    1W        W54805  11.617   1.555   2.577  0.0789 -0.2121 -0.1128
    1W        W54806   1.970   3.468   8.272 -0.2542 -0.0115  0.1787
    1W        W54807   6.515  22.774   7.896 -0.0374  0.0653 -0.0432
    1W        W54808  11.510   7.722   8.565 -0.0662 -0.1760 -0.1114
    1W        W54809  12.774   2.269   7.259 -0.0536 -0.1495  0.1660
    1W        W54810  13.798  12.411   2.373 -0.0409 -0.0165  0.0585
    1W        W54811  14.610  23.302   7.457  0.1090  0.0015  0.0100
    1W        W54812  19.049  18.204   8.651  0.1474 -0.0362 -0.1025
    1W        W54813  25.692   5.726   0.747  0.0533 -0.0698 -0.2344
    1W        W54814  10.235  18.038   7.158 -0.1558  0.1233 -0.2433
    1W        W54815  21.228   6.866   9.317  0.2622  0.1219  0.2053
    1W        W54816   2.711   7.293   9.226 -0.1890  0.5528  0.0558
    1W        W54817  23.563  20.367   6.751  0.2124  0.0483  0.2833
    1W        W54818  14.766  11.285   1.619  0.0924  0.4481 -0.1461
    1W        W54819  14.539  27.091   1.858  0.1199  0.2307 -0.1715
    1W        W54820  17.684  16.800   7.183  0.1810 -0.1145  0.0847
    1W        W54821  16.843   7.388   8.092 -0.4066 -0.0254  0.0010
    1W        W54822  28.198   2.418   7.806  0.2417  0.0409  0.0658
    1W        W54823   5.186   6.492   2.921 -0.0594  0.1754 -0.0810
    1W        W54824   4.324  11.112   6.697  0.0159 -0.0989 -0.1252
    1W        W54825  19.852  29.736   0.413  0.0266  0.2649 -0.1045
    1W        W54826  28.225  28.091   0.812  0.0577 -0.1693  0.1132
    1W        W54827  27.967  28.432   9.315 -0.3664 -0.0961 -0.1500
    1W        W54828   3.676  10.147   1.317 -0.0747 -0.2189  0.1111
    1W        W54829  13.878   0.363   8.557 -0.1944 -0.0223 -0.1525
    1W        W54830  28.836   7.545   2.259 -0.1220 -0.0067 -0.1270
    1W        W54831  13.549  22.754   0.360  0.0435  0.1190 -0.0322
    1W        W54832  13.743  10.752   1.664 -0.1601 -0.2075 -0.1663
    1W        W54833  21.616   0.361   0.092  0.0760 -0.0501  0.0970
    1W        W54834  25.357  15.586   7.153  0.0037  0.0244  0.1954
    1W        W54835  29.557  14.512   7.320  0.0424 -0.0410  0.0189
    1W        W54836  14.387  10.601   6.540  0.0201  0.0072 -0.1594
    1W        W54837  29.502  19.646   7.338  0.1775  0.1925  0.0171
    1W        W54838   8.076   8.153   1.200 -0.0870 -0.3920  0.1630
    1W        W54839  16.301  20.608   7.323  0.2872  0.1754  0.0173
    1W        W54840  17.841  10.093   2.762  0.1541  0.0751 -0.3303
    1W        W54841   9.312  13.995   0.134 -0.3631  0.1168 -0.1620
    1W        W54842  20.815  24.543   0.143 -0.2209  0.0106  0.0015
    1W        W54843   9.413  14.208   8.396  0.0477 -0.1630 -0.0386
    1W        W54844  16.408  22.161   2.623  0.0738 -0.0120 -0.1478
    1W        W54845   2.713  10.169   1.036  0.1676  0.0441  0.0642
    1W        W54846  19.868  11.058   7.195  0.3545 -0.2044  0.0506
    1W        W54847  12.923   3.600   7.766  0.3249 -0.3516 -0.0112
    1W        W54848  28.256  20.462   9.032 -0.0939  0.0101  0.0611
    1W        W54849  28.224  27.209   0.858 -0.2597 -0.1708  0.1191
    1W        W54850   3.634  16.074   8.632 -0.4179 -0.2688 -0.1861
    1W        W54851  21.522   6.032   9.037 -0.1984 -0.1234  0.0092
    1W        W54852   5.506  14.687   7.391 -0.1556 -0.0295 -0.2947
    1W        W54853   8.196   8.508   6.587  0.0517  0.1225 -0.2577
    1W        W54854  17.946   2.848   2.997 -0.0557  0.0001 -0.0276
    1W        W54855  15.445  11.659   6.953 -0.2660 -0.0960 -0.1238
    1W        W54856   7.502  29.424   0.316 -0.2705  0.0144  0.0744
    1W        W54857  10.004  17.019   8.123  0.1431 -0.2913 -0.3790
    1W        W54858  23.823   1.843   2.423 -0.1564 -0.3443 -0.0407
    1W        W54859  20.611  14.084   1.360  0.0944 -0.0207  0.1237
    1W        W54860   6.453  14.067   0.431 -0.0335 -0.1560 -0.3276
    1W        W54861  18.648   3.625   1.022 -0.1386 -0.1987  0.0551
    1W        W54862  10.551  13.687   9.425 -0.0724 -0.0704 -0.1312
    1W        W54863  22.562  27.879   9.282  0.3226 -0.0250 -0.1652
    1W        W54864   6.465  19.216   0.296 -0.0461  0.0110  0.0368
    1W        W54865  14.416  21.982   0.224  0.0129  0.0670  0.3310
    1W        W54866  16.643   5.913   1.667  0.0899  0.0493  0.2572
    1W        W54867   9.433  11.515   9.223  0.1137  0.2124  0.0720
    1W        W54868  27.758  11.071   0.235 -0.1222 -0.0709 -0.1470
    1W        W54869   6.757  28.367   0.730 -0.1094 -0.0945  0.3157
    1W        W54870   5.557  19.370   1.148  0.3495 -0.0560 -0.0482
    1W        W54871  10.653   2.921   0.440 -0.0443  0.0139  0.1313
    1W        W54872  27.177   9.821   6.549  0.2443 -0.1858  0.0590
    1W        W54873  19.340   4.358   0.398 -0.0186 -0.1981  0.2667
    1W        W54874   0.533  14.906   7.572  0.1725 -0.1938  0.2267
    1W        W54875  27.407   0.941   7.948  0.0321 -0.0516  0.3117
    1W        W54876  27.997  19.319   8.079  0.1502  0.0439  0.0354
    1W        W54877  23.552  25.821   7.059  0.0032  0.0764  0.2039
    1W        W54878  16.172  18.817   1.045 -0.0496 -0.1103 -0.1390
    1W        W54879  22.701   0.754   6.990 -0.1562 -0.1157 -0.3095
    1W        W54880   9.543  28.925   0.393 -0.0067 -0.2209  0.3028
    1W        W54881  17.721   3.810   7.394  0.1620 -0.1750 -0.1296
    1W        W54882  12.148  12.591   7.760  0.4169 -0.1361  0.2961
    1W        W54883   9.142  18.926   6.956  0.1099  0.1406 -0.0388
    1W        W54884   3.593  28.167   0.917  0.0949  0.0347 -0.0695
    1W        W54885  15.324  14.891   6.524  0.0031  0.1344  0.2006
    1W        W54886  26.323   1.138   1.024 -0.1328  0.1767 -0.0750
    1W        W54887  11.159  29.038   2.739 -0.0679  0.3609 -0.4784
    1W        W54888  18.874  22.505   8.851 -0.0439 -0.3081  0.0272
    1W        W54889  27.128  15.747   6.517 -0.2252  0.0386 -0.0986
    1W        W54890  18.490  25.562   7.261 -0.3058 -0.1632  0.0317
    1W        W54891  26.094   8.375   6.751  0.2371  0.0499 -0.0796
    1W        W54892  29.473   3.845   7.857  0.1605  0.0667 -0.1595
    1W        W54893  15.078  18.220   2.639 -0.1506  0.2305  0.3199
    1W        W54894  20.258  12.935   2.121  0.2558 -0.1751  0.0231
    1W        W54895   4.242   1.112   0.565  0.1054 -0.4250  0.2052
    1W        W54896  11.399  20.378   1.537  0.0044  0.1190 -0.3184
    1W        W54897  10.669   2.753   8.689 -0.0553 -0.1059  0.1118
    1W        W54898   2.302  27.477   8.147  0.1557 -0.1809 -0.0544
    1W        W54899  23.531  20.649   6.301 -0.0274 -0.0317 -0.3847
    1W        W54900  21.833  14.528   8.804 -0.1015  0.1582  0.0205
    1W        W54901  28.920  25.989   9.060 -0.2701 -0.0268  0.0574
    1W        W54902  26.376  27.801   8.926  0.2618  0.2955 -0.2840
    1W        W54903  10.341  26.642   3.002  0.0902 -0.0923  0.1685
    1W        W54904  21.057   8.027   1.573  0.1455  0.0000  0.0553
    1W        W54905   6.174   0.559   9.491  0.0162 -0.2151 -0.1747
    1W        W54906  28.698  17.827   1.330  0.0800  0.1037 -0.2809
    1W        W54907   3.186   6.006   2.644 -0.0056 -0.2031 -0.0851
    1W        W54908   5.997   9.006   8.633  0.1540 -0.2443 -0.0184
    1W        W54909   2.337  20.644   9.162  0.0120 -0.1111 -0.0603
    1W        W54910   8.941   0.312   1.736  0.1021  0.2317  0.2467
    1W        W54911  22.997   7.735   2.357  0.1411 -0.3327 -0.1433
    1W        W54912  17.564   9.264   6.985  0.0479  0.0144 -0.1590
    1W        W54913  23.747   8.438   2.532 -0.0256 -0.5826  0.0308
    1W        W54914   2.290   6.647   7.733  0.2003 -0.0711  0.2485
    1W        W54915   1.524   7.300   7.051 -0.0924  0.0615  0.1377
    1W        W54916  21.238  21.745   7.035 -0.0504  0.3782  0.0774
    1W        W54917   5.922  21.929   1.822  0.2067  0.3204 -0.0080
    1W        W54918   1.894   5.530   2.268 -0.0827  0.1329  0.0631
    1W        W54919  20.732   9.574   9.407 -0.0558 -0.1328 -0.2326
    1W        W54920  11.792   8.833   7.800  0.0994  0.0572 -0.2739
    1W        W54921  22.868  14.966   1.022 -0.0787 -0.1101 -0.1873
    1W        W54922  19.289  16.519   1.141  0.2542  0.1768  0.1561
    1W        W54923  14.602   0.966   0.254 -0.0662 -0.0743 -0.0931
    1W        W54924  22.660   1.463   8.138  0.3093 -0.2168  0.0967
    1W        W54925  12.156  24.899   8.416  0.0523 -0.3215 -0.1960
    1W        W54926  22.258  16.913   5.934  0.1555 -0.2029  0.0508
    1W        W54927  21.478   1.565   3.276  0.0329 -0.1795  0.1200
    1W        W54928   0.400   8.966   1.170  0.1811  0.0196  0.0225
    1W        W54929  12.823   4.110   7.975  0.0114  0.3115  0.0026
    1W        W54930  18.059  19.163   0.585  0.0172  0.1380  0.1792
    1W        W54931  28.567   1.363   1.827 -0.2749  0.1328  0.1515
    1W        W54932  21.726  21.726   7.811 -0.1862 -0.1177 -0.1923
    1W        W54933  23.792  15.632   5.267  0.2326 -0.0550 -0.0553
    1W        W54934  20.060  10.958   6.347  0.2046 -0.1896 -0.0155
    1W        W54935   5.776  10.997   9.101 -0.2741 -0.3139  0.0107
    1W        W54936  13.197  24.554   0.040  0.3888 -0.3013  0.3641
    1W        W54937  23.495  20.559   8.147  0.1555 -0.1761 -0.0063
    1W        W54938  23.802  29.311   3.020  0.0039  0.1905  0.0544
    1W        W54939  13.812   1.068   2.721 -0.1989  0.3054  0.2015
    1W        W54940   2.052  13.446   8.450  0.2894 -0.1066 -0.0073
    1W        W54941  12.896   3.810   3.115  0.0492  0.0021 -0.0874
    1W        W54942  20.952  12.258   8.818  0.0742  0.0570  0.0265
    1W        W54943  21.943   3.916   2.836 -0.0133  0.0801 -0.0101
    1W        W54944   4.631   1.112   1.999 -0.4061  0.0391 -0.2734
    1W        W54945   9.477  21.019   8.632  0.1016 -0.1013 -0.1574
    1W        W54946  26.947   7.758   8.518  0.2431 -0.1287  0.0218
    1W        W54947  13.668  18.881   0.763  0.3053  0.0909  0.0089
    1W        W54948  20.129  11.634   1.664  0.2307  0.2230  0.1144
    1W        W54949   0.579  15.581   8.159  0.2637 -0.1311 -0.1206
    1W        W54950  17.598  16.351   0.634  0.0051  0.1440  0.1037
    1W        W54951  25.427  20.000   6.159 -0.3266 -0.1798 -0.2043
    1W        W54952  10.939  19.934   0.659  0.1195  0.0409 -0.0605
    1W        W54953  26.068  23.839   6.812 -0.1605  0.1259  0.0742
    1W        W54954  10.699   8.839   7.095  0.0437 -0.3820  0.1850
    1W        W54955  27.509  15.002   7.807  0.0583 -0.0090  0.2087
    1W        W54956   5.327   5.052   2.464 -0.1204  0.2249 -0.2378
    1W        W54957   2.375   7.562   8.128  0.1492 -0.0269 -0.0663
    1W        W54958  19.159  14.861   2.081 -0.2772  0.0859 -0.0542
    1W        W54959  19.016   1.868   8.194  0.1848  0.0673 -0.0852
    1W        W54960  11.640  23.251   0.244 -0.2214  0.0157 -0.2497
    1W        W54961  18.347   1.931   3.226  0.0110  0.0832  0.0949
    1W        W54962  28.715  21.898   1.852  0.0222  0.1512 -0.0143
    1W        W54963  22.197   8.878   9.268  0.0753 -0.0903  0.2977
    1W        W54964   7.401  18.812   8.134  0.0875 -0.2867  0.0834
    1W        W54965  12.597  14.260   0.431  0.2448 -0.0190  0.0768
    1W        W54966  20.040  27.212   7.630 -0.0963 -0.0048 -0.1961
    1W        W54967  16.980  25.114   7.735 -0.3391  0.3485 -0.0792
    1W        W54968  28.627   1.048   1.002  0.2213  0.0394  0.4921
    1W        W54969  17.019  11.771   7.952  0.0285  0.2918 -0.3858
    1W        W54970  12.605  13.797   2.717 -0.0162  0.1077  0.0894
    1W        W54971  18.569  27.815   9.259 -0.2509  0.2429  0.1865
    1W        W54972  18.803  28.032   3.433  0.0221  0.1182 -0.0832
    1W        W54973  22.300  24.342   0.917  0.1558  0.0504  0.2130
    1W        W54974   6.251  21.720   2.504  0.1737 -0.1786  0.0386
    1W        W54975   6.817  22.648   8.262  0.2032 -0.2176  0.0930
    1W        W54976   1.265  23.175   7.577 -0.2851  0.1199  0.0253
    1W        W54977  13.283   5.050   8.357 -0.0473  0.1229  0.2785
    1W        W54978   1.754  12.514   2.471 -0.1247  0.0608 -0.0825
    1W        W54979   7.647   7.022   7.937 -0.0252 -0.1047  0.1940
    1W        W54980   0.588  28.202   0.917 -0.0891  0.1267 -0.0914
    1W        W54981   5.923  11.164   1.886 -0.0927 -0.0346  0.1078
    1W        W54982  15.015   7.727   2.646  0.1258 -0.4504 -0.2986
    1W        W54983   1.259  26.682   7.980 -0.2149  0.0905  0.1387
    1W        W54984  16.236  12.288   7.161 -0.0406 -0.2525 -0.1871
    1W        W54985   8.455   8.387   7.640 -0.1388  0.2172  0.0973
    1W        W54986   3.266   9.631   6.985 -0.0281  0.1366  0.0123
    1W        W54987  13.367  21.471   8.804 -0.1711  0.1155 -0.1367
    1W        W54988   8.358   1.483   1.355  0.0031 -0.3469  0.0144
    1W        W54989  25.444  19.677   0.975 -0.0331  0.1008  0.0768
    1W        W54990  18.204  14.058   7.136  0.2808  0.0302 -0.1253
    1W        W54991   1.524   3.053   8.403  0.1843  0.0465  0.0711
    1W        W54992  15.535  19.121   8.151 -0.1654  0.2847 -0.1885
    1W        W54993   2.121  20.063   1.683 -0.0701  0.0100  0.3660
    1W        W54994  16.945   0.870   7.469 -0.0147 -0.1015  0.0165
    1W        W54995  12.045  14.320   1.554  0.4438 -0.0663  0.0461
    1W        W54996  25.473  18.909   8.514  0.0854  0.1297 -0.1812
    1W        W54997   4.564  14.978   8.946 -0.2321 -0.0675 -0.2528
    1W        W54998  11.527  29.153   3.007  0.1810 -0.1133  0.2191
    1W        W54999   9.314  10.623   1.241 -0.3255  0.2565  0.2663
    1W        W55000  17.570   7.684   7.035 -0.0317 -0.0456  0.0486
    1W        W55001   0.080  10.552   0.057  0.0017  0.1714  0.2229
    1W        W55002  21.536  28.836   8.022  0.0799  0.5162  0.1543
    1W        W55003  22.787   6.362   1.104  0.1670  0.0071 -0.0301
    1W        W55004  19.233  20.158   7.104 -0.2761 -0.2771 -0.2466
    1W        W55005   3.056  22.250   9.008 -0.0305 -0.1521 -0.1022
    1W        W55006  20.576   9.010   8.188  0.0869 -0.0512  0.1975
    1W        W55007  16.170  12.665   7.745  0.0539 -0.0658 -0.0771
    1W        W55008  14.361  20.137   8.707  0.0019  0.0394 -0.0129
    1W        W55009  28.040  22.864   1.797  0.2721  0.3032  0.0686
    1W        W55010  26.679   5.909   2.416 -0.1127 -0.0629 -0.3112
    1W        W55011  24.159   9.382   0.201 -0.0900  0.1130 -0.1708
    1W        W55012  22.385  26.899   1.194 -0.1302  0.1100 -0.2612
    1W        W55013   9.680   3.446   8.641  0.2409 -0.0309 -0.0611
    1W        W55014  12.477  29.255   0.183 -0.2389 -0.0074 -0.4221
    1W        W55015   8.581   0.216   0.893 -0.0989  0.1119 -0.1175
    1W        W55016  28.500   6.142   7.802 -0.0421  0.2639 -0.1863
    1W        W55017  25.226   7.239   7.694 -0.1021 -0.0881  0.2082
    1W        W55018  26.593  13.189   6.563  0.1551  0.0226 -0.2199
    1W        W55019   0.895  23.334   8.739 -0.0123 -0.0837 -0.1782
    1W        W55020  20.567  22.216   8.111  0.0965  0.0975  0.1315
    1W        W55021  24.540   2.448   8.355  0.1670  0.0183 -0.0811
    1W        W55022   0.585  16.001   9.428 -0.0220  0.2980 -0.2856
    1W        W55023  15.060  23.166   0.835  0.2105 -0.0892  0.0015
    1W        W55024  21.818   2.439   9.330  0.0987 -0.0957  0.3660
    1W        W55025   0.649  22.551   0.584 -0.1643 -0.0770  0.1717
    1W        W55026  17.413  13.443   9.357 -0.0119 -0.0166  0.0756
    1W        W55027  19.573  23.908   2.852 -0.0965 -0.0183  0.2113
    1W        W55028  25.831   3.656   9.041  0.1210  0.2612  0.0674
    1W        W55029  19.017   5.087   9.274  0.1370  0.0387  0.0429
    1W        W55030   5.969   9.446   0.960  0.1289 -0.0261  0.0343
    1W        W55031  16.187   6.094   1.903  0.0523 -0.1314 -0.2329
    1W        W55032  13.227  15.683   0.168 -0.0679  0.0655  0.0606
    1W        W55033  17.487   0.929   2.772  0.3149  0.1569 -0.1418
    1W        W55034  22.675  14.330   6.120  0.2844  0.3366  0.2658
    1W        W55035   3.798   3.725   7.489  0.0515 -0.1154  0.2859
    1W        W55036   0.202  22.308   1.150  0.2125 -0.0805 -0.0037
    1W        W55037   4.778   0.773   6.700  0.3690  0.1363 -0.1262
    1W        W55038  14.453  15.799   8.714  0.0308 -0.1855 -0.2606
    1W        W55039  27.459  29.309   2.748  0.1798 -0.0607  0.0473
    1W        W55040  11.344  25.175   7.181  0.1072  0.1025 -0.2529
    1W        W55041   9.887  27.469   3.249  0.0074  0.1368 -0.0563
    1W        W55042  13.825  24.992   6.301 -0.3329 -0.0196 -0.1451
    1W        W55043  23.321  19.347   1.123 -0.0005  0.2402  0.3769
    1W        W55044   4.102  18.859   9.470  0.1515 -0.0636 -0.1229
    1W        W55045  26.626  28.544   1.177  0.2071  0.0115 -0.0336
    1W        W55046  11.524   6.479   8.913  0.1992 -0.0429 -0.0402
    1W        W55047  22.837  13.348   1.250  0.1407  0.0807  0.4385
    1W        W55048  15.578  27.368   0.999 -0.1386  0.0214 -0.4146
    1W        W55049  26.038  21.481   9.178  0.2631 -0.4461 -0.0482
    1W        W55050  23.890  23.101   9.381  0.0900 -0.3306 -0.0014
    1W        W55051   7.984  21.536   7.299 -0.1725 -0.1198 -0.0995
    1W        W55052  21.771  16.845   9.155 -0.0564 -0.0191  0.3869
    1W        W55053  10.254  18.588   1.488  0.3990  0.2572  0.1393
    1W        W55054  19.866   5.174   8.875  0.1069  0.2330 -0.2627
    1W        W55055   3.086  26.542   2.112  0.0073  0.0764 -0.1781
    1W        W55056   0.930  12.283   9.465 -0.3690 -0.0497 -0.3194
    1W        W55057  19.007  21.990   9.016 -0.0176  0.1941  0.0953
    1W        W55058   2.503   2.063   1.870  0.0144  0.0682  0.0758
    1W        W55059  10.762  17.081   0.671 -0.1610 -0.2750  0.4408
    1W        W55060   5.748  17.401   1.008  0.3200 -0.1399  0.0624
    1W        W55061  26.729  24.778   6.367  0.0055  0.2251  0.2420
    1W        W55062   2.093   7.427   8.499  0.1125  0.1442  0.2778
    1W        W55063  17.582  22.202   8.835 -0.1328  0.0899 -0.1794
    1W        W55064   6.161   3.609   0.075  0.3406 -0.3336  0.1469
    1W        W55065   1.297   2.468   2.514  0.0428 -0.0950  0.2110
    1W        W55066   5.662  22.505   0.426 -0.0473  0.0758 -0.0072
    1W        W55067  25.759  13.134   0.965  0.0844 -0.1229 -0.2254
    1W        W55068   6.536  10.749   2.217 -0.2212  0.1263 -0.1139
    1W        W55069  25.213  25.010   8.127 -0.3968 -0.2437  0.1147
    1W        W55070  22.458   6.434   8.174 -0.0808  0.1935 -0.1504
    1W        W55071  13.233  29.272   6.811 -0.0946 -0.1933  0.3452
    1W        W55072   5.254   1.568   6.627  0.0372  0.3567 -0.0253
    1W        W55073  18.559   6.822   0.769 -0.1347 -0.4629 -0.1108
    1W        W55074  19.831   1.653   1.391  0.2940 -0.0960  0.2994
    1W        W55075   9.926  11.965   0.699 -0.1089  0.1242  0.0189
    1W        W55076   6.872  19.170   7.212  0.1696 -0.3208  0.0882
    1W        W55077   9.771  18.885   7.423  0.1532 -0.0065 -0.1614
    1W        W55078   4.277  12.150   9.375 -0.0807 -0.1237 -0.0336
    1W        W55079  12.549  23.324   1.154 -0.5195  0.0421 -0.0663
    1W        W55080   9.489  20.784   2.314 -0.1064  0.0506 -0.0609
    1W        W55081  17.063   7.295   9.112  0.5154 -0.0959 -0.1438
    1W        W55082  24.084  10.181   8.445  0.0217  0.0806  0.1363
    1W        W55083   0.387   4.218   1.189 -0.0761 -0.1560  0.0822
    1W        W55084  13.870   1.667   1.054 -0.0414  0.2130 -0.4295
    1W        W55085   3.976  26.681   8.951  0.1291 -0.3358  0.3142
    1W        W55086   5.102   5.067   2.883 -0.2066 -0.4533 -0.1843
    1W        W55087   5.888   7.631   7.796  0.2594 -0.0906  0.2262
    1W        W55088  13.096   2.629   7.020  0.2176 -0.0510 -0.1674
    1W        W55089   8.337  23.785   7.514 -0.2838  0.0838 -0.0606
    1W        W55090  15.434  17.861   1.762  0.3340  0.1063  0.0159
    1W        W55091  25.675  29.070   7.121 -0.1302 -0.0541  0.4685
    1W        W55092   0.065   2.917   6.769 -0.1559  0.2325  0.0940
    1W        W55093   4.488  17.010   7.405  0.2257  0.0797 -0.3521
    1W        W55094  11.907  13.839   7.961 -0.0142  0.1902 -0.2212
    1W        W55095  18.507  16.549   7.243  0.0963  0.0282  0.1878
    1W        W55096  17.564  26.816   2.207 -0.0070 -0.2536  0.0247
    1W        W55097  27.498  17.255   8.908  0.0503 -0.1289  0.2798
    1W        W55098   1.248   7.206   0.167  0.0408  0.1785  0.0026
    1W        W55099  18.554   8.237   1.454  0.1561  0.1390  0.1852
    1W        W55100  20.094  27.987   7.865  0.0435  0.0313  0.1109
    1W        W55101  17.913  26.472   1.969 -0.2087 -0.0256 -0.2661
    1W        W55102  14.695  15.379   2.359  0.0054 -0.3745  0.1464
    1W        W55103   3.927  22.351   8.593  0.2777  0.0039  0.0837
    1W        W55104   3.703  18.659   0.105 -0.2150  0.2318 -0.1126
    1W        W55105   3.219  14.713   9.317  0.0582  0.1237 -0.2079
    1W        W55106   0.260  27.454   3.350  0.1322  0.1117  0.2946
    1W        W55107   6.452  18.510   7.045  0.0867  0.3776 -0.0193
    1W        W55108  28.785  29.467   0.094  0.1005  0.1531  0.3908
    1W        W55109  26.641  10.755   8.137  0.0828  0.1319 -0.1386
    1W        W55110  14.166   3.631   8.730  0.0261  0.1414 -0.1895
    1W        W55111   6.511  11.805   2.330 -0.0778  0.0341 -0.0650
    1W        W55112  26.110  19.807   7.237 -0.1602 -0.2035 -0.1354
    1W        W55113  18.233   9.309   8.297  0.4361 -0.0749  0.2283
    1W        W55114  23.503  13.134   5.294 -0.0034 -0.1641 -0.1406
    1W        W55115  27.077  19.972   8.777 -0.1042  0.0570 -0.7559
    1W        W55116  14.932  22.268   8.156  0.2467  0.0829  0.1157
    1W        W55117  17.223   9.351   8.593 -0.2640 -0.1659 -0.0017
    1W        W55118   4.438  23.904   1.708 -0.0865 -0.1121 -0.2019
    1W        W55119   1.675   8.128   9.171  0.1193  0.0857  0.3004
    1W        W55120  19.934   5.690   6.903  0.0417  0.1351  0.1200
    1W        W55121   3.073   7.283   8.738  0.1698  0.1438  0.0183
    1W        W55122  11.422  26.223   7.219 -0.2478  0.0330 -0.0417
    1W        W55123  14.643  19.229   7.825 -0.0186  0.0483 -0.1884
    1W        W55124  22.604   2.339   7.562 -0.0101  0.0862  0.1646
    1W        W55125  29.440  15.818   8.251  0.2029 -0.1207 -0.4360
    1W        W55126  11.308  15.114   6.594  0.0235 -0.1157  0.1380
    1W        W55127   6.569   8.215   1.503 -0.2999 -0.0358  0.0945
    1W        W55128  17.663   0.420   6.857  0.2108  0.0501  0.2559
    1W        W55129   6.453   7.964   3.321  0.1731 -0.1106  0.0518
    1W        W55130   8.137  18.219   2.153 -0.0662 -0.1110 -0.1043
    1W        W55131  29.171   3.499   7.149 -0.2655 -0.1114  0.0359
    1W        W55132  27.152   1.679   2.541  0.0457 -0.0498  0.4425
    1W        W55133  15.714  10.553   1.557 -0.1224  0.1023 -0.1966
    1W        W55134  13.737   2.499   1.844  0.1890  0.3599  0.2851
    1W        W55135  17.638  21.662   7.891  0.1880  0.1517 -0.0402
    1W        W55136  13.725  18.886   8.728 -0.0283  0.0686  0.3639
    1W        W55137  14.136   1.016   7.327  0.0240  0.2945  0.0901
    1W        W55138   0.573  13.341   8.360  0.0372 -0.2037 -0.1008
    1W        W55139   8.095  21.671   8.284  0.4357 -0.3244 -0.1184
    1W        W55140  13.887   6.511   2.401 -0.0728  0.1142  0.0315
    1W        W55141   1.415  13.326   7.709 -0.1938 -0.1538  0.2991
    1W        W55142   5.059  13.941   9.220 -0.1385  0.2110  0.0962
    1W        W55143   8.705  21.821   6.161  0.1498 -0.1968 -0.0111
    1W        W55144  12.963  27.825   0.737  0.0005 -0.2085 -0.1476
    1W        W55145  15.702   9.766   1.200  0.4748 -0.1400  0.0927
    1W        W55146  14.955  18.440   0.445 -0.1495 -0.1728 -0.1930
    1W        W55147   3.649  17.826   6.863 -0.2073  0.0782  0.0367
    1W        W55148  26.145  18.271   9.168  0.1484  0.2539 -0.2416
    1W        W55149  10.844   9.625   3.240  0.0172  0.2987  0.2534
    1W        W55150   7.278   9.552   1.553  0.0135 -0.1356 -0.3344
    1W        W55151   3.103  17.912   1.243 -0.4317 -0.1171  0.0374
    1W        W55152   8.031  19.696   7.531 -0.1667  0.0418  0.0008
    1W        W55153  27.698  24.621   1.209 -0.0190 -0.0200 -0.0876
    1W        W55154   6.552   3.468   2.652 -0.1463 -0.0029  0.1251
    1W        W55155   0.868  29.693   7.121 -0.0456 -0.2154 -0.0053
    1W        W55156  10.381   0.601   2.092  0.2751  0.0777 -0.3900
    1W        W55157  18.329  27.465   0.592 -0.2587 -0.0160  0.3466
    1W        W55158  12.035   6.760   9.045 -0.2434  0.2162  0.1703
    1W        W55159   8.411  19.289   9.533  0.3123 -0.3952 -0.1733
    1W        W55160  29.655   4.763   8.397 -0.1372  0.1517 -0.1908
    1W        W55161  23.889   7.531   7.710 -0.3313  0.2506 -0.0660
    1W        W55162   4.150  27.808   6.974 -0.0227  0.3030  0.4990
    1W        W55163   5.291  18.588   7.860  0.0002  0.0866  0.1346
    1W        W55164  13.199   1.688   1.152  0.0353  0.1425 -0.1697
    1W        W55165  26.369   4.872   1.708 -0.2170  0.0895 -0.0176
    1W        W55166  16.149  11.056   9.257  0.0737  0.1123 -0.0379
    1W        W55167  20.178   8.667   8.453  0.2232 -0.1011  0.1121
    1W        W55168   0.761   4.535   1.460 -0.0598  0.0743  0.0137
    1W        W55169   4.940  24.000   7.407 -0.0208 -0.3589  0.1908
    1W        W55170  24.774  24.143   1.978  0.0586  0.1410  0.0662
    1W        W55171  14.979  24.081   1.778 -0.0792 -0.2961 -0.0166
    1W        W55172   1.295   1.649   1.297 -0.0855  0.2355  0.2810
    1W        W55173   8.616  23.115   8.859 -0.1604  0.0281 -0.0290
    1W        W55174   9.931  24.226   1.630  0.0023 -0.0822  0.0356
    1W        W55175  18.132  19.412   8.286 -0.1522  0.1021 -0.1276
    1W        W55176  27.036  16.951   1.696  0.2668 -0.2132 -0.0921
    1W        W55177  26.393   6.039   2.875  0.1478  0.1026 -0.2049
    1W        W55178   1.102  15.989   9.111  0.0308  0.3085 -0.0488
    1W        W55179   3.747  16.204   6.870 -0.1421  0.2280  0.0186
    1W        W55180  24.813  28.047   0.870  0.1218 -0.0274  0.2071
    1W        W55181  10.394  16.584   7.173 -0.0932 -0.0114  0.1895
    1W        W55182   5.636  16.961   1.269 -0.2147 -0.1764  0.3839
    1W        W55183   0.203  10.896   6.540 -0.2166 -0.2072  0.1501
    1W        W55184  27.618   6.657   6.459  0.0040 -0.0600  0.0113
    1W        W55185  19.064  25.293   0.647  0.0367 -0.1807 -0.2110
    1W        W55186  22.252   7.222   9.043 -0.1640 -0.2178  0.2032
    1W        W55187  23.216  29.292   0.215 -0.3456  0.0780 -0.1119
    1W        W55188  19.540   1.744   8.415  0.4359 -0.1027  0.2634
    1W        W55189   2.762  25.995   7.514  0.0312 -0.0171  0.0607
    1W        W55190  29.211  16.929   9.220 -0.0199  0.1408 -0.1609
    1W        W55191  12.658  10.854   0.158  0.1758  0.0577  0.1251
    1W        W55192   4.680  26.791   2.694 -0.0516 -0.1496  0.0621
    1W        W55193  29.087  12.604   9.291  0.1912  0.3847  0.2724
    1W        W55194   1.205  19.636   7.556 -0.2475  0.1686  0.1014
    1W        W55195  29.087  11.465   7.292  0.2707 -0.1172  0.0766
    1W        W55196  17.816   9.684   9.361  0.3086  0.1035  0.1784
    1W        W55197   4.541  21.383   9.295 -0.3583 -0.1540  0.3926
    1W        W55198   0.857  19.083   6.835 -0.0160 -0.1031  0.0682
    1W        W55199  19.895  21.179   6.925  0.0406  0.2950  0.1530
    1W        W55200  13.217  19.769   0.081  0.2350  0.1134 -0.1328
    1W        W55201  26.539   6.036   8.463 -0.1860  0.1549  0.0879
    1W        W55202  10.157  15.781   7.502  0.0793  0.0107 -0.3068
    1W        W55203  21.126   4.346   8.311  0.0327  0.2556 -0.0923
    1W        W55204  21.988   9.968   1.150 -0.1858 -0.1905  0.0927
    1W        W55205   6.213  22.036   8.122  0.1600 -0.0702 -0.0324
    1W        W55206  11.893  13.381   8.168 -0.2010 -0.1122 -0.0112
    1W        W55207  28.379  25.720   2.169  0.0367  0.3125  0.3779
    1W        W55208  15.104   1.621   2.258  0.0948 -0.0965 -0.2850
    1W        W55209   8.306   5.354   0.570  0.3724  0.1873  0.0704
    1W        W55210   9.712  28.164   0.668 -0.2133 -0.2161  0.0171
    1W        W55211   1.348  25.446   6.699  0.0550 -0.0204 -0.3087
    1W        W55212   2.714   9.010   6.595 -0.0731  0.0019  0.1193
    1W        W55213   1.646  27.389   0.749  0.2544  0.0475  0.0516
    1W        W55214   1.445   2.316   6.558 -0.2608  0.0013 -0.3025
    1W        W55215   5.478   7.225   7.512 -0.0541 -0.1625  0.2472
    1W        W55216  15.984   1.294   9.445  0.1612 -0.0006  0.1420
    1W        W55217  18.939   3.474   7.188  0.1059 -0.3939  0.3756
    1W        W55218  12.706   7.148   2.136 -0.1016  0.0677 -0.2444
    1W        W55219  23.379  29.611   1.555  0.0464  0.0353  0.0079
    1W        W55220   1.026  17.403   7.841 -0.4592  0.0540 -0.0725
    1W        W55221  28.373   6.457   1.775 -0.1492  0.1191 -0.1674
    1W        W55222  15.758   5.116   6.709 -0.2811 -0.1640 -0.0035
    1W        W55223  28.558  17.540   6.818  0.2385 -0.2801 -0.1701
    1W        W55224  26.100  22.395   6.085 -0.1990  0.2878  0.0790
    1W        W55225   5.759  21.189   0.450  0.1558 -0.0173  0.0578
    1W        W55226  11.414  23.333   9.390  0.0707  0.1338 -0.0177
    1W        W55227   5.603  11.600   0.208  0.4296  0.0225  0.1885
    1W        W55228  25.674  11.747   9.168 -0.2044  0.0392 -0.1739
    1W        W55229  11.054  20.512   0.152  0.0442 -0.0047 -0.3385
    1W        W55230   2.749   2.535   7.511 -0.0695  0.1296  0.4072
    1W        W55231   3.227  25.916   9.073 -0.0401 -0.0412 -0.0547
    1W        W55232   9.456  23.577   2.813 -0.2769  0.2383 -0.1543
    1W        W55233  17.902  28.977   9.302 -0.2440 -0.0468  0.0043
    1W        W55234  20.640  25.330   2.024 -0.2014 -0.0308 -0.0510
    1W        W55235   8.737   8.584   6.808 -0.1890  0.1302 -0.0233
    1W        W55236   0.621  24.242   8.897  0.1575  0.0727  0.1864
    1W        W55237   8.247   7.665   0.480 -0.4142 -0.0141 -0.3463
    1W        W55238  24.569  15.271   7.181  0.0238  0.2233 -0.0717
    1W        W55239  19.605   1.167   2.891  0.2975 -0.1323  0.0244
    1W        W55240   1.364   2.006   2.196  0.2434  0.1862 -0.2038
    1W        W55241  17.305  18.215   0.385 -0.3626  0.1721 -0.1630
    1W        W55242  12.141  14.844   7.325 -0.3140  0.0484  0.0039
    1W        W55243  14.712  28.979   9.330 -0.2690 -0.1969  0.1703
    1W        W55244  24.753  19.756   9.503 -0.1533 -0.0184 -0.0268
    1W        W55245  19.360  18.162   1.300  0.2959  0.1378  0.0250
    1W        W55246  29.522   4.684   3.464  0.4260  0.1952  0.2069
    1W        W55247  20.572   6.305   1.739  0.2474 -0.0797 -0.3069
    1W        W55248   2.268  15.573   0.439 -0.1118  0.1292  0.1218
    1W        W55249  12.005   9.489   0.957 -0.2388 -0.4985 -0.3610
    1W        W55250  17.805  19.473   1.949 -0.0005 -0.0191  0.0178
    1W        W55251  16.878   4.351   9.477 -0.0105  0.1757  0.3423
    1W        W55252  24.237   6.382   0.283  0.1433  0.0292  0.4181
    1W        W55253  13.176  29.082   8.736 -0.0618  0.1744 -0.2826
    1W        W55254   4.089  10.022   1.575  0.3739  0.0134 -0.2734
    1W        W55255  17.102  10.942   2.061  0.1494  0.1665  0.0107
    1W        W55256   9.960   0.294   1.195 -0.0254  0.1731 -0.0766
    1W        W55257  18.794  27.537   0.267  0.1197 -0.4562  0.2481
    1W        W55258   0.855   7.723   8.824  0.0649 -0.3277 -0.0735
    1W        W55259   7.312   5.535   2.226 -0.0327 -0.1026 -0.0240
    1W        W55260  15.140  18.687   8.457 -0.1570 -0.0932  0.0210
    1W        W55261  10.914   1.633   7.349  0.1171  0.0609  0.0095
    1W        W55262   6.099   0.043   3.281  0.2059  0.0491 -0.2468
    1W        W55263   0.268  17.380   0.713 -0.1812  0.2133 -0.0230
    1W        W55264  17.936  29.407   7.175 -0.1496  0.3578  0.0427
    1W        W55265  10.575  12.316   8.189  0.0370  0.1237 -0.0639
    1W        W55266  15.191  15.798   1.562  0.0379  0.3774  0.2428
    1W        W55267   6.331  25.202   9.064  0.0515  0.0058  0.0639
    1W        W55268  17.136  22.236   8.525  0.0696 -0.2558  0.0165
    1W        W55269  15.674   8.632   9.329 -0.3377  0.4374  0.3720
    1W        W55270   8.830  18.721   7.466  0.0456 -0.1930 -0.0074
    1W        W55271  24.054  11.467   1.290  0.0548  0.0119  0.0968
    1W        W55272  15.510  20.045   7.041  0.1836  0.0185 -0.0484
    1W        W55273  17.850   6.294   8.957  0.3325  0.2421 -0.0855
    1W        W55274  21.051  22.710   7.446 -0.1750 -0.2508  0.1251
    1W        W55275  16.677  16.365   7.266  0.1683  0.0900  0.1307
    1W        W55276  24.664  19.141   0.553  0.1736  0.1331  0.0443
    1W        W55277  27.421  28.813   0.418 -0.0531 -0.2470  0.2004
    1W        W55278  13.554  12.840   0.213  0.1299  0.0256  0.1084
    1W        W55279  28.141  12.225   1.641 -0.1447 -0.3735 -0.0581
    1W        W55280   5.605   6.246   7.260  0.1880 -0.0810  0.0223
    1W        W55281  14.426   2.077   9.386 -0.1247  0.1728  0.2342
    1W        W55282  26.222  16.032   6.529 -0.1594 -0.0975  0.1732
    1W        W55283  17.108  23.568   8.724  0.5146 -0.0938  0.0633
    1W        W55284   0.853   2.881   6.882  0.3501  0.0525  0.3352
    1W        W55285  18.539   2.609   7.334  0.0603  0.2134 -0.3416
    1W        W55286   9.211  11.905   1.371  0.1604  0.2459  0.1014
    1W        W55287   6.485   6.319   3.702 -0.0355  0.1751 -0.2173
    1W        W55288  22.617   7.142   7.121  0.0679 -0.0874 -0.0288
    1W        W55289  16.758  12.263   7.017  0.0294 -0.0630  0.0073
    1W        W55290   2.870  23.410   2.682  0.0612 -0.0483 -0.0334
    1W        W55291  22.994   1.687   3.210 -0.0494 -0.0962  0.2041
    1W        W55292  13.839  23.963   9.237 -0.4027  0.0375  0.0599
    1W        W55293  24.104  28.898   0.167  0.0053  0.4402 -0.0478
    1W        W55294   5.760  15.310   0.408 -0.3449  0.1038  0.0904
    1W        W55295   2.190   6.642   9.399  0.3910  0.1311 -0.0533
    1W        W55296   4.252  14.568   1.674  0.0783  0.0109 -0.0911
    1W        W55297  26.433  15.867   7.242 -0.1066  0.0482 -0.1827
    1W        W55298  12.914  16.180   7.288 -0.2539  0.2772 -0.1303
    1W        W55299  21.868   7.381   6.528  0.2175 -0.0537 -0.1300
    1W        W55300  11.894  10.147   7.673 -0.0200 -0.0906 -0.2200
    1W        W55301   0.719  25.483   7.403 -0.1082 -0.0227 -0.2986
    1W        W55302   8.266   9.704   6.958  0.2276  0.1134  0.1284
    1W        W55303  10.128  21.252   0.752 -0.0855  0.1357 -0.0286
    1W        W55304  28.675   0.522   1.340  0.0633 -0.1277 -0.0768
    1W        W55305  22.841  15.346   8.803 -0.0600  0.0965 -0.4335
    1W        W55306  27.408   2.469   0.818  0.0406 -0.2001  0.2137
    1W        W55307   9.153  10.650   1.746  0.1581  0.2695  0.0573
    1W        W55308  17.851  12.257   1.217 -0.0020 -0.0685  0.0835
    1W        W55309  27.141   2.259   7.000 -0.0246  0.0591  0.0332
    1W        W55310  25.592  25.797   0.613  0.0323 -0.0665 -0.0895
    1W        W55311  15.961  11.843   1.194  0.1773  0.1748 -0.0774
    1W        W55312  16.739  29.020   1.909  0.3661 -0.0318 -0.0293
    1W        W55313   2.386   5.582   2.495  0.0590 -0.0298 -0.1619
    1W        W55314  12.816  29.512   2.986  0.1215 -0.0465 -0.2671
    1W        W55315  10.343   2.844   2.831 -0.1318 -0.2245  0.5464
    1W        W55316  15.118  11.842   7.717  0.0886 -0.0540 -0.2690
    1W        W55317   5.463  27.692   6.758 -0.3649 -0.0459 -0.1382
    1W        W55318   8.331   4.362   8.195  0.2925  0.1286  0.2214
    1W        W55319  26.423   9.114   0.885 -0.0915  0.0264 -0.0463
    1W        W55320  28.040   1.099   8.846 -0.1930  0.0302  0.0709
    1W        W55321  20.731  28.234   7.005  0.1357  0.0971 -0.0837
    1W        W55322   6.409  10.101   1.649 -0.2121  0.0905 -0.0643
    1W        W55323   3.054  29.079   0.937  0.1730 -0.0472  0.1354
    1W        W55324  19.343  27.570   0.342  0.4118  0.0500 -0.0531
    1W        W55325  21.536   4.457   1.129  0.1525 -0.0410  0.0410
    1W        W55326   7.012  14.963   7.298  0.0413  0.1022  0.0544
    1W        W55327  17.399  20.981   9.066 -0.0506  0.0480 -0.1597
    1W        W55328   0.045  14.679   8.150  0.3397 -0.0571 -0.0184
    1W        W55329  13.976  22.548   8.071  0.1421  0.1618  0.0572
    1W        W55330  27.769   8.754   1.189  0.0027  0.2687 -0.0484
    1W        W55331  11.447  28.196   2.859 -0.1304  0.0012 -0.1740
    1W        W55332  18.146   7.223   3.130  0.2248  0.0789  0.1356
    1W        W55333   3.002  25.125   3.113 -0.2068  0.2528 -0.0903
    1W        W55334  17.866   9.397   7.915 -0.0797  0.1005  0.0899
    1W        W55335   4.555  14.305   8.090  0.0368 -0.0091 -0.1001
    1W        W55336  14.726  23.621   1.523  0.0331  0.2536 -0.1093
    1W        W55337  25.102  17.195   5.736 -0.1297  0.0016 -0.0531
    1W        W55338   6.362   2.345   7.740 -0.1310 -0.1550 -0.1742
    1W        W55339   4.428   6.907   7.241  0.2254 -0.1028  0.2933
    1W        W55340   5.379  23.623   1.408 -0.0505 -0.2765 -0.2372
    1W        W55341   6.617  10.019   0.154  0.4116  0.1403 -0.1341
    1W        W55342  21.961  27.467   0.764 -0.0331  0.4199  0.0280
    1W        W55343  28.017  18.546   0.215  0.1403  0.2601 -0.1237
    1W        W55344   4.510  25.362   7.215 -0.4704 -0.1151 -0.0518
    1W        W55345   0.139   0.375   2.151 -0.1184 -0.0154  0.0571
    1W        W55346   2.140  11.285   1.517  0.2753 -0.0712 -0.3452
    1W        W55347  29.745   7.952   7.942 -0.0642  0.0623 -0.3534
    1W        W55348  12.790   2.194   2.380 -0.0176  0.1972 -0.3232
    1W        W55349  15.003   4.620   0.959  0.2577 -0.0117 -0.1733
    1W        W55350  12.917   6.648   7.708  0.1288  0.1195  0.0633
    1W        W55351   4.795  19.296   0.326 -0.2188 -0.2399  0.2273
    1W        W55352  23.406  15.745   1.920  0.1946  0.0753  0.0060
    1W        W55353  12.818  13.151   2.682 -0.1037  0.1575 -0.0596
    1W        W55354   0.155   1.482   7.673  0.1161 -0.3056  0.0444
    1W        W55355  17.132  29.168   7.405 -0.2765 -0.0788  0.2065
    1W        W55356   6.394  14.898   1.336  0.0633  0.0721  0.1643
    1W        W55357  19.485  26.162   3.390 -0.2008  0.0975 -0.3091
    1W        W55358  21.716  19.475   8.919 -0.0981 -0.1911  0.2601
    1W        W55359  18.947  20.641   6.258  0.2869 -0.1404 -0.0285
    1W        W55360   8.889  12.110   8.047  0.2834 -0.2597 -0.0217
    1W        W55361  24.360   7.513   0.076 -0.0380 -0.0889 -0.2300
    1W        W55362  26.314  19.425   7.534 -0.2420 -0.0974 -0.0803
    1W        W55363  28.739  22.474   9.251 -0.0575 -0.1505 -0.1844
    1W        W55364  14.890   2.922   8.087  0.2308  0.1846  0.0467
    1W        W55365  25.181  14.106   0.395  0.2384  0.1185 -0.0849
    1W        W55366  18.552   5.985   9.355  0.1965  0.1690 -0.0525
    1W        W55367  28.702  28.528   1.231  0.2697 -0.1954 -0.1875
    1W        W55368  13.259   9.554   0.989  0.0784 -0.2143  0.0402
    1W        W55369   8.137  13.354   7.727  0.0525  0.0136 -0.1940
    1W        W55370  14.911  17.134   9.179  0.2050  0.2406  0.2716
    1W        W55371  21.504  25.314   6.912  0.1231 -0.0667  0.2411
    1W        W55372  10.711   8.578   2.757  0.2056  0.1425 -0.1287
    1W        W55373   4.517  11.909   0.187 -0.2309  0.1875  0.0187
    1W        W55374   2.810  21.077   0.148 -0.1115  0.2924 -0.1166
    1W        W55375  24.910  14.302   5.968  0.1211  0.0536  0.1896
    1W        W55376  24.668  18.568   0.592 -0.0429 -0.1239 -0.0753
    1W        W55377  16.940   9.026   3.473  0.1580  0.2191 -0.0653
    1W        W55378   3.268   4.632   1.505  0.0326 -0.0489 -0.0671
    1W        W55379   3.809  13.839   1.596 -0.2068  0.2240 -0.0646
    1W        W55380  10.783   7.602   9.084  0.0419 -0.0256  0.1098
    1W        W55381  17.314  15.617   1.877 -0.2737 -0.3454  0.0213
    1W        W55382  27.701  16.324   1.861 -0.0622  0.2824 -0.1093
    1W        W55383  20.167  25.092   7.736  0.1277 -0.2235  0.0787
    1W        W55384  28.005  14.822   0.606 -0.1202  0.2932  0.1333
    1W        W55385   0.350  15.335   1.212  0.0771  0.1165 -0.1422
    1W        W55386  23.835  13.054   1.453 -0.0149  0.4984 -0.1652
    1W        W55387   2.292  26.486   2.607  0.2200 -0.0358  0.4971
    1W        W55388  19.989  19.031   1.937  0.1008 -0.4229 -0.0889
    1W        W55389   8.162  24.648   3.011 -0.1243 -0.3395  0.1139
    1W        W55390  17.145  18.293   9.314 -0.0399  0.0707 -0.0851
    1W        W55391  27.483  24.601   1.618  0.0717  0.1138  0.0133
    1W        W55392  24.421  25.343   3.165 -0.1222 -0.1270 -0.0482
    1W        W55393  19.913   3.400   3.900 -0.1780 -0.0330  0.1031
    1W        W55394  27.977   5.386   2.270 -0.2455  0.0927  0.1484
    1W        W55395  10.827  27.185   7.228  0.0798 -0.0064  0.2445
    1W        W55396   0.666   9.247   2.839 -0.2923 -0.0450  0.1509
    1W        W55397  17.176  17.591   9.295 -0.0923  0.2480  0.1612
    1W        W55398   5.560  16.521   1.131  0.0721  0.0012 -0.0177
    1W        W55399  10.989   8.791   9.226 -0.2293  0.0948 -0.3012
    1W        W55400  27.786   6.050   7.221  0.4242  0.0494  0.1828
    1W        W55401   7.208   5.383   1.306 -0.1123  0.0368 -0.0585
    1W        W55402  12.302   1.751   0.328  0.0085 -0.1370 -0.0705
    1W        W55403   0.807   8.064   0.045 -0.1069  0.2297 -0.1133
    1W        W55404   9.490  22.807   1.581 -0.3873  0.1954 -0.2518
    1W        W55405   2.808  23.764   1.281  0.0399 -0.0883 -0.2383
    1W        W55406  16.400   4.525   8.177 -0.4029  0.1748  0.1965
    1W        W55407  13.257  28.378   8.317 -0.1406 -0.0438  0.1321
    1W        W55408   6.129   2.839   7.692  0.1588 -0.0506  0.0037
    1W        W55409  28.388  28.032   7.808 -0.0124 -0.1985 -0.1608
    1W        W55410  25.924   7.583   1.267  0.2006  0.1742 -0.0446
    1W        W55411  28.145  19.878   8.278  0.1088 -0.0888  0.2308
    1W        W55412  13.768   0.910   0.409  0.2025  0.1592  0.4251
    1W        W55413  27.168   1.052   0.927  0.0330  0.2920 -0.1087
    1W        W55414  16.695   8.105   7.421  0.0231 -0.1260 -0.1384
    1W        W55415  16.026  15.327   0.947  0.1577 -0.0142  0.1604
    1W        W55416   3.582  11.798   7.620  0.1306  0.0635 -0.1187
    1W        W55417  15.069  27.810   6.981  0.3018 -0.0290 -0.0705
    1W        W55418  15.536  24.760   2.332  0.0228  0.3029  0.0232
    1W        W55419  13.430  27.887   8.331 -0.0684  0.1582  0.0051
    1W        W55420  18.506  22.789   7.402  0.2014  0.2581  0.3019
    1W        W55421   0.960   7.135   1.151  0.1363 -0.0570 -0.2617
    1W        W55422  28.444   1.858   1.497  0.1218  0.0197 -0.0338
    1W        W55423  14.248  27.402   0.140 -0.3184 -0.0279 -0.4510
    1W        W55424  10.238  16.168   8.706 -0.0154  0.2324  0.2666
    1W        W55425  11.851  13.405   2.123  0.1928 -0.2786  0.0943
    1W        W55426   1.603   4.410   8.829 -0.0428 -0.2331 -0.0909
    1W        W55427  12.203  18.615   0.092  0.0077  0.1317  0.1421
    1W        W55428  15.826  27.282   1.433 -0.0824 -0.0412  0.1796
    1W        W55429  28.970  22.924   2.064 -0.0382 -0.3023 -0.1137
    1W        W55430  17.788  23.650   1.835  0.2984 -0.0771 -0.1425
    1W        W55431   6.165   9.327   8.255 -0.3379 -0.0905  0.2537
    1W        W55432  11.860  17.174   8.708  0.3269 -0.2867 -0.2045
    1W        W55433  27.237   0.958   7.070 -0.2203  0.0249  0.0540
    1W        W55434  17.056  27.982   8.739 -0.0428 -0.1164 -0.1074
    1W        W55435  20.613   5.876   3.149 -0.1780  0.3587  0.1144
    1W        W55436  17.155  19.529   1.069  0.2824  0.2124 -0.0349
    1W        W55437   8.390  19.450   7.219 -0.2416  0.2096 -0.2307
    1W        W55438  28.406  22.263   8.447 -0.1952  0.0624 -0.2265
    1W        W55439   7.993   0.312   7.727  0.1831  0.1477 -0.1435
    1W        W55440  27.467  26.289   1.729  0.1479 -0.4839 -0.2075
    1W        W55441   0.577   6.803   7.516  0.2650 -0.3618  0.3064
    1W        W55442  22.498  24.209   0.468  0.2529 -0.1717  0.0576
    1W        W55443  16.025  23.794   7.017  0.2850 -0.1756  0.0557
    1W        W55444   1.168  19.996   1.705  0.1132  0.2300 -0.0261
    1W        W55445  16.247  24.556   9.033 -0.0503  0.1753 -0.0395
    1W        W55446  26.897  13.709   8.056 -0.0068  0.1976 -0.2397
    1W        W55447   0.938   4.878   9.155  0.0112 -0.2542  0.1389
    1W        W55448  22.768   5.502   2.629  0.1647  0.1446 -0.2045
    1W        W55449   9.620   2.972   8.363  0.0786 -0.0090 -0.2300
    1W        W55450  13.181  13.710   1.269  0.0596 -0.1726 -0.0411
    1W        W55451  23.091  22.285   7.831 -0.0651 -0.0228 -0.0993
    1W        W55452  21.411  10.123   6.672  0.0586 -0.0895  0.0133
    1W        W55453  15.507  14.506   0.498  0.2513  0.0907  0.0795
    1W        W55454  28.223  19.691   7.841  0.0401  0.1624 -0.1461
    1W        W55455  23.476  16.679   8.197  0.2094  0.0243 -0.2448
    1W        W55456  13.142  22.421   6.640 -0.1105  0.2006  0.2004
    1W        W55457  26.277  16.381   5.633 -0.2458  0.1205 -0.2151
    1W        W55458   7.652  29.121   0.763  0.1446 -0.0620  0.1914
    1W        W55459   8.511   7.208   0.776 -0.0030  0.1230 -0.0527
    1W        W55460   5.737  10.671   7.732 -0.2556 -0.5084 -0.1372
    1W        W55461  21.621  29.755   2.193  0.2208 -0.2273 -0.2620
    1W        W55462  17.931  11.154   7.641 -0.0336 -0.0317  0.1045
    1W        W55463  26.287  22.640   8.329 -0.0858 -0.4856  0.0026
    1W        W55464  15.580  14.125   8.097 -0.1159 -0.0345  0.0961
    1W        W55465   3.937  13.111   9.385  0.2243  0.1542  0.2825
    1W        W55466   2.835   6.394   7.065 -0.1557 -0.1762 -0.0310
    1W        W55467  26.078  19.114   0.250  0.0485  0.0534  0.1268
    1W        W55468   8.862  15.614   8.780  0.3584 -0.0891 -0.2055
    1W        W55469  27.586  28.752   1.991  0.0657 -0.0037  0.0302
    1W        W55470   6.798  18.329   7.783  0.0222  0.4580 -0.0725
    1W        W55471  20.460  20.583   9.346  0.1991 -0.1876  0.0098
    1W        W55472   5.676  29.637   0.299  0.2070  0.2014 -0.1080
    1W        W55473   2.660   9.854   7.881  0.1977 -0.0514  0.0163
    1W        W55474  27.055  17.040   6.303 -0.0979 -0.0072  0.0092
    1W        W55475  29.705  20.890   1.171  0.1668 -0.0388  0.2445
    1W        W55476   8.046  15.152   1.363 -0.2537  0.0680  0.0262
    1W        W55477  19.953   0.505   0.536  0.0192  0.3854 -0.3941
    1W        W55478  22.235  25.818   7.874  0.0041  0.0920  0.0238
    1W        W55479  19.096  17.006   1.264 -0.1287 -0.0153  0.0002
    1W        W55480   0.439  19.535   9.500 -0.1219 -0.3209  0.0800
    1W        W55481  27.303  28.490   2.658  0.1457 -0.1401  0.2601
    1W        W55482  18.452  26.590   0.274  0.1845 -0.0541  0.0082
    1W        W55483   5.786  26.744   0.083 -0.0255 -0.2111 -0.0069
    1W        W55484  15.766  10.716   9.292  0.0244  0.1536 -0.1944
    1W        W55485  11.051  18.606   7.353 -0.0285  0.0027  0.2614
    1W        W55486  11.511  29.799   0.699  0.1644  0.1695  0.3011
    1W        W55487  21.246   6.885   3.215 -0.1988 -0.2799 -0.0216
    1W        W55488  10.024  12.687   2.993 -0.0727  0.3388 -0.2061
    1W        W55489   4.870   2.536   2.248  0.2630  0.2604 -0.0608
    1W        W55490   0.345  10.046   8.458  0.1897  0.2935 -0.0871
    1W        W55491   2.918  17.443   1.547 -0.3172  0.0828  0.0598
    1W        W55492  22.782  15.870   9.350 -0.3412 -0.1804 -0.2865
    1W        W55493  14.713  19.832   7.166  0.1093  0.2274  0.0115
    1W        W55494  26.773   6.992   1.548 -0.1933  0.2299 -0.1204
    1W        W55495  17.807   4.099   7.803  0.0519  0.1585 -0.3527
    1W        W55496  14.847  12.559   6.203  0.1524  0.0763  0.1591
    1W        W55497  10.610  25.376   8.417  0.0351 -0.1872 -0.0260
    1W        W55498   1.207  16.892   7.989 -0.0259  0.1150  0.0029
    1W        W55499   9.361   8.140   1.326 -0.2052 -0.0931 -0.1878
    1W        W55500   9.515   0.901   3.008 -0.0757 -0.1388  0.3038
    1W        W55501   3.181  13.995   0.341 -0.2270  0.1676  0.4880
    1W        W55502   4.713   7.230   1.841 -0.1891 -0.1992  0.0855
    1W        W55503   2.186   2.882   9.175  0.1610 -0.1483 -0.2586
    1W        W55504  11.135  25.180   2.503  0.1435 -0.0117 -0.1281
    1W        W55505  25.105   7.345   0.629 -0.1755 -0.0556  0.3771
    1W        W55506   9.105  10.304   6.976  0.0866  0.1321  0.2487
    1W        W55507  19.975  18.038   1.208  0.0780 -0.1959 -0.0119
    1W        W55508  19.544  29.036   0.408 -0.2114  0.2590 -0.0256
    1W        W55509   5.801  24.523   9.018 -0.0071 -0.0369  0.2877
    1W        W55510  10.705  24.869   8.400  0.1211 -0.0442 -0.0752
    1W        W55511  25.917  27.505   9.465  0.2057  0.0987 -0.0481
    1W        W55512  11.535  28.340   2.394  0.1443 -0.0694 -0.3805
    1W        W55513  19.364   3.412   3.626 -0.1608  0.1747 -0.0765
    1W        W55514   4.927  15.058   0.232 -0.3064  0.1354  0.2460
    1W        W55515  25.274   6.349   2.725  0.0852 -0.1291 -0.0631
    1W        W55516  26.065   3.926   1.492 -0.2095 -0.0195 -0.2324
    1W        W55517  13.709  25.406   8.986  0.2581  0.2097  0.1176
    1W        W55518   8.828  29.254   2.919  0.0309 -0.1403 -0.1273
    1W        W55519  15.034   6.670   6.444  0.1081  0.0913 -0.0765
    1W        W55520   4.780  20.150   0.027 -0.0442 -0.0042  0.0162
    1W        W55521   0.896  13.878   1.958 -0.0524 -0.1175 -0.0711
    1W        W55522  23.626   8.680   8.337  0.0543  0.0511 -0.3008
    1W        W55523  12.019  13.819   1.145 -0.0426  0.1307 -0.0161
    1W        W55524   5.794  28.934   0.966  0.3503  0.1517 -0.1223
    1W        W55525  26.563   7.559   7.779  0.0631 -0.0509  0.0041
    1W        W55526  13.399  13.764   2.325  0.1533 -0.0312 -0.3273
    1W        W55527  18.355  24.936   0.493 -0.3594  0.1422 -0.0635
    1W        W55528  11.158  25.932   7.572 -0.0191  0.0012  0.3692
    1W        W55529  12.496  12.221   9.516  0.2386  0.3947  0.1121
    1W        W55530  27.845   2.857   8.727  0.2296  0.1212  0.0728
    1W        W55531  25.675  23.930   0.812  0.1475 -0.1235 -0.1308
    1W        W55532  14.174  17.415   2.414 -0.2321 -0.0191  0.0754
    1W        W55533  10.777  10.077   0.651  0.0598 -0.2660 -0.2276
    1W        W55534   7.497  24.435   1.534 -0.2893 -0.2418 -0.2044
    1W        W55535  20.148   2.150   7.846 -0.0564  0.1670 -0.1861
    1W        W55536  22.169  14.362   8.489  0.1974 -0.1624 -0.0517
    1W        W55537   1.481   5.952   0.278 -0.0397 -0.0288  0.2352
    1W        W55538  23.932   1.216   7.193 -0.1261  0.0152 -0.0630
    1W        W55539   0.115   6.987   6.891  0.0423 -0.0712 -0.0634
    1W        W55540   5.871  24.523   7.296  0.0549 -0.2000 -0.1484
    1W        W55541  26.708   9.224   6.118  0.2559 -0.3718  0.1472
    1W        W55542   6.855   5.557   3.204 -0.0520 -0.1653 -0.2084
    1W        W55543   6.294  16.710   8.792 -0.1277  0.0739 -0.1659
    1W        W55544  27.934  14.912   8.176  0.1344 -0.1967  0.0976
    1W        W55545   4.569  21.347   1.796 -0.0767  0.0772  0.0342
    1W        W55546   6.668   4.994   7.168 -0.0572  0.0797  0.3861
    1W        W55547  29.762  18.759   0.899 -0.0975  0.0840  0.1239
    1W        W55548  17.955  23.325   8.670  0.0228 -0.1290  0.0064
    1W        W55549   8.367  16.129   8.166  0.2628 -0.1193  0.1965
    1W        W55550  26.506  22.550   2.730  0.1212  0.3373  0.1667
    1W        W55551  15.498  29.004   7.302 -0.0669 -0.4065  0.1176
    1W        W55552   7.093  24.867   9.313 -0.3996  0.0556 -0.0573
    1W        W55553  14.848  20.147   8.956 -0.2370 -0.1125 -0.1403
    1W        W55554   8.183   3.968   8.498 -0.2344  0.1441 -0.0983
    1W        W55555  22.189  18.328   7.743 -0.0260  0.1677 -0.2656
    1W        W55556  26.830  29.170   3.402 -0.1521  0.0191  0.4391
    1W        W55557   9.787  19.209   8.787 -0.0728 -0.2575  0.1085
    1W        W55558  22.470  24.390   9.204 -0.0395 -0.0558 -0.2951
    1W        W55559  12.173  17.287   0.204 -0.0206 -0.2754 -0.2030
    1W        W55560  13.541  28.651   7.927  0.1008 -0.2320 -0.0257
    1W        W55561  20.396   5.304   2.945  0.0904  0.2513 -0.0514
    1W        W55562   9.093   5.935   2.935  0.1773  0.0858  0.0059
    1W        W55563  21.496  16.290   7.367  0.1773 -0.2360 -0.0939
    1W        W55564   7.693   8.720   7.630  0.2159 -0.0370 -0.0019
    1W        W55565  18.002  12.866   0.501  0.0265  0.2279 -0.0564
    1W        W55566  12.529  15.897   0.530 -0.1610  0.2198  0.0132
    1W        W55567   6.298   5.824   2.110 -0.0288  0.3298  0.1566
    1W        W55568   8.254  28.723   2.411  0.0958  0.1457  0.2948
    1W        W55569   5.237  28.319   8.550  0.1527 -0.0771  0.1581
    1W        W55570  14.625  24.428   8.138  0.0438  0.2031  0.2322
    1W        W55571  11.905   4.413   0.890 -0.0283  0.0597  0.0718
    1W        W55572   1.364  11.398   1.887  0.0132  0.0785  0.0518
    1W        W55573   2.693  28.459   2.582  0.1285 -0.1075  0.3878
    1W        W55574  10.343   9.624   9.164  0.1973  0.0124  0.3444
    1W        W55575  13.751  23.924   8.745 -0.1865  0.1340  0.2467
    1W        W55576   0.963  21.917   0.712 -0.2291 -0.2467  0.1515
    1W        W55577   8.108  17.149   0.666 -0.0318 -0.2480  0.0129
    1W        W55578  27.578  14.949   6.467 -0.1037 -0.0660  0.0172
    1W        W55579   0.671   3.192   2.890  0.4119  0.2039 -0.0424
    1W        W55580  11.649  24.478   2.140 -0.0518  0.0106 -0.2042
    1W        W55581  19.037  25.883   3.137 -0.0089 -0.0323 -0.0947
    1W        W55582  11.701  16.741   3.215 -0.1497 -0.0216 -0.0218
    1W        W55583  12.515   1.434   2.845  0.2604  0.0049 -0.0290
    1W        W55584  25.522   3.214   9.016 -0.1637 -0.0166  0.0525
    1W        W55585   1.446  14.376   7.460 -0.0508 -0.0281 -0.3573
    1W        W55586  16.721  26.802   2.351 -0.1580 -0.1734  0.1813
    1W        W55587   2.548  29.630   1.177 -0.1441  0.2815 -0.1015
    1W        W55588  22.355   5.614   7.719  0.0558 -0.0793 -0.3215
    1W        W55589  20.747  28.757   1.807 -0.0538 -0.0941 -0.1158
    1W        W55590  14.919   3.673   9.211 -0.1129 -0.2712  0.2060
    1W        W55591  20.060  18.993   0.198  0.0961 -0.1560 -0.1902
    1W        W55592   0.460   3.561   7.947 -0.1417 -0.1013 -0.3253
    1W        W55593  18.931  26.474   2.529 -0.1630 -0.1838  0.2156
    1W        W55594  23.459  20.825   7.124 -0.1249  0.1518  0.1614
    1W        W55595   0.224  13.451   0.023 -0.2131 -0.0256  0.0103
    1W        W55596   6.728   3.701   2.137 -0.1034 -0.1687 -0.4295
    1W        W55597  24.275  13.346   1.371 -0.0425  0.3013  0.2519
    1W        W55598  16.441   7.061   3.183 -0.0459  0.1326 -0.0338
    1W        W55599  15.385  15.619   8.137 -0.3098  0.1081 -0.1492
    1W        W55600  26.861  23.243   2.080 -0.0007  0.4311 -0.0816
    1W        W55601  11.660   5.095   0.483 -0.3144  0.1333 -0.2462
    1W        W55602   1.429   7.462   9.303  0.0911  0.1084 -0.0269
    1W        W55603   7.238   1.448   7.534  0.2401  0.0932  0.0784
    1W        W55604   0.152  10.229   9.119  0.1265 -0.3264 -0.1246
    1W        W55605  13.974  13.705   7.361 -0.0611  0.2805  0.2249
    1W        W55606   2.060  20.776   7.745  0.1484  0.3139  0.2931
    1W        W55607  10.207  14.359   8.445 -0.2455  0.0699 -0.1707
    1W        W55608   0.881  27.187   2.536 -0.3030 -0.1556  0.0692
    1W        W55609  24.687   1.654   0.783  0.2234  0.3662  0.1139
    1W        W55610   0.904  20.371   1.831 -0.0380  0.1020 -0.0260
    1W        W55611  26.071   2.462   8.800 -0.3068  0.0199 -0.0339
    1W        W55612  19.630   4.109   7.931 -0.2958  0.3831 -0.0376
    1W        W55613  24.129  24.819   7.415  0.1307  0.3582 -0.0311
    1W        W55614  27.770  28.160   8.745 -0.1596 -0.1623 -0.1431
    1W        W55615  23.106   6.728   2.378  0.2307  0.1143 -0.1623
    1W        W55616  29.380  14.864   1.134 -0.0266 -0.2905  0.1657
    1W        W55617  23.003  12.889   8.557 -0.1124 -0.1982  0.0627
    1W        W55618   4.295  19.233   0.172  0.1597  0.1488 -0.1641
    1W        W55619   0.271  15.740   8.940 -0.0557 -0.1129 -0.1694
    1W        W55620  24.587  22.302   6.362 -0.1322  0.0583 -0.1703
    1W        W55621  29.040  17.811   7.597 -0.0316 -0.1895  0.0940
    1W        W55622   1.334   1.656   0.782 -0.0499  0.0438 -0.0503
    1W        W55623   5.684   4.716   3.462 -0.1694  0.0555 -0.1523
    1W        W55624  10.179   4.753   1.112  0.0443  0.3002 -0.0016
    1W        W55625   0.334  22.758   1.086  0.1137 -0.0772  0.1583
    1W        W55626   1.392  29.537   1.592 -0.1577 -0.0805 -0.4191
    1W        W55627  20.017  24.160   2.398 -0.1734  0.0199 -0.0037
    1W        W55628  19.854   9.183   8.345  0.0933  0.0996  0.2617
    1W        W55629   7.796  26.763   7.334  0.0154 -0.0895 -0.0484
    1W        W55630   6.239   7.909   0.804 -0.1926  0.1225  0.1185
    1W        W55631  29.749   0.256   0.899  0.0357 -0.0392  0.4502
    1W        W55632  20.807  20.439   0.714  0.2268 -0.1176  0.1685
    1W        W55633  21.146   3.252   2.122  0.1141 -0.1791 -0.0256
    1W        W55634  26.114  16.079   8.051 -0.0406  0.1758  0.1519
    1W        W55635  11.348  18.583   0.653 -0.1361 -0.4969 -0.0456
    1W        W55636  27.080  27.858   1.030  0.0439  0.2396  0.0297
    1W        W55637  10.255   5.136   3.282  0.1498  0.1478 -0.3772
    1W        W55638  25.058  22.832   8.149 -0.0252 -0.2636 -0.4121
    1W        W55639  14.686  28.164   6.839  0.1466 -0.0310  0.1681
    1W        W55640  23.846  11.072   1.509  0.1024  0.1002  0.0708
    1W        W55641  20.438  29.649   1.595 -0.0599 -0.0272  0.2947
    1W        W55642  16.203  19.669   0.468  0.1014 -0.0495 -0.0433
    1W        W55643  25.808  19.788   7.597  0.2489 -0.0856  0.1569
    1W        W55644   5.858  18.731   0.735 -0.3702  0.0276  0.0438
    1W        W55645   7.801   1.279   2.079  0.0248  0.1989 -0.2547
    1W        W55646  13.779  26.632   2.322  0.0775 -0.2645  0.1852
    1W        W55647   1.980   6.202   7.721 -0.2129 -0.0175  0.0720
    1W        W55648  21.071   3.165   0.003  0.6199  0.0863 -0.2466
    1W        W55649  14.235   3.155   8.377  0.1860 -0.1704  0.1616
    1W        W55650   4.390  21.390   8.792 -0.3500  0.0042  0.0452
    1W        W55651  18.976   3.075   2.798  0.4614  0.0496 -0.0431
    1W        W55652  27.802  22.330   9.124 -0.0504  0.0093  0.0659
    1W        W55653  14.455  10.809   2.251 -0.1165 -0.1434  0.0111
    1W        W55654   4.019  25.425   7.082  0.1715 -0.2169 -0.1929
    1W        W55655   8.326  21.461   1.201  0.1941 -0.0581 -0.2707
    1W        W55656  19.261  13.185   6.935  0.1646 -0.2456 -0.3692
    1W        W55657  28.586   6.613   1.142  0.2662  0.1730 -0.1446
    1W        W55658  12.881  13.789   7.924  0.0625  0.1793 -0.0541
    1W        W55659  15.344  26.536   2.792  0.2750  0.0586 -0.2285
    1W        W55660  13.019  19.015   6.631 -0.0454  0.0208 -0.1808
    1W        W55661  28.314  12.673   0.568 -0.0349 -0.4178  0.1173
    1W        W55662   1.171   4.597   2.939  0.0021 -0.1018 -0.0836
    1W        W55663  23.890  29.289   8.637 -0.1442 -0.0780  0.0612
    1W        W55664  21.160  26.029   0.420 -0.1799 -0.0779 -0.1651
    1W        W55665  27.233   0.776   0.222  0.1179  0.0891 -0.3433
    1W        W55666  18.603   7.414   6.841 -0.0254 -0.2880 -0.0330
    1W        W55667  18.193  20.230   0.748 -0.1198 -0.0038  0.3845
    1W        W55668  26.574  18.537   0.820  0.2706 -0.0201  0.0140
    1W        W55669  16.720  24.945   2.570 -0.0366 -0.2691  0.2200
    1W        W55670  24.808  10.865   1.279  0.3151  0.3925  0.0542
    1W        W55671   5.729  29.045   2.165  0.1691  0.1207 -0.2035
    1W        W55672  16.171   1.320   7.650 -0.3225 -0.0824  0.0536
    1W        W55673  29.402   6.898   6.832 -0.0824 -0.0874 -0.2209
    1W        W55674  25.875  24.943   8.168 -0.1496  0.2031  0.0152
    1W        W55675   0.038  23.664   7.845 -0.2073 -0.1318 -0.0583
    1W        W55676  17.709  15.436   2.278  0.2574 -0.0664  0.1092
    1W        W55677  12.024  13.274   1.290  0.3019  0.0207  0.2400
    1W        W55678   9.420  11.073   0.486 -0.4485  0.2621 -0.0008
    1W        W55679   0.009  20.397   0.901 -0.2483 -0.4834 -0.0179
    1W        W55680   3.156   3.658   2.037  0.1553  0.1178 -0.3601
    1W        W55681   2.783  24.622   3.310  0.2865 -0.0547  0.1436
    1W        W55682  16.074   0.343   7.953 -0.1885 -0.0808 -0.0421
    1W        W55683  23.774  18.504   5.579  0.3654  0.0776  0.2099
    1W        W55684   9.901  13.487   8.248  0.2629 -0.1727 -0.0075
    1W        W55685  27.611  25.862   9.505  0.1642 -0.0047  0.0795
    1W        W55686   1.187  21.862   0.163  0.0304 -0.0707  0.1615
    1W        W55687  29.262  27.585   7.913  0.2779 -0.0348 -0.0698
    1W        W55688   2.668  14.221   1.204 -0.0119 -0.0541  0.1024
    1W        W55689   9.105  22.091   8.544  0.0227  0.1499 -0.0604
    1W        W55690  10.275  22.187   0.657  0.2118 -0.2284  0.1992
    1W        W55691  10.506   7.631   0.442 -0.1732  0.1059 -0.2324
    1W        W55692   7.334   7.844   2.030 -0.1467  0.1211 -0.2677
    1W        W55693   8.396  17.014   0.240  0.0101  0.0486 -0.0834
    1W        W55694   4.441  24.341   1.975 -0.2674  0.1346 -0.0229
    1W        W55695   9.806  17.783   7.826 -0.2476 -0.3178 -0.2456
    1W        W55696  15.403  10.951   3.620 -0.0713  0.5664  0.1010
    1W        W55697  19.157   0.052   3.191  0.1769  0.2242 -0.1767
    1W        W55698  19.456  21.823   0.507  0.3110 -0.0788  0.0497
    1W        W55699  14.950   7.104   0.937 -0.2001  0.1507 -0.2611
    1W        W55700   5.828  26.709   2.344  0.2554 -0.3359  0.0981
    1W        W55701  21.595   5.303   8.302 -0.0227 -0.1258 -0.2508
    1W        W55702   5.529  16.040   1.017  0.0647 -0.2994 -0.1104
    1W        W55703   3.001  28.753   2.835 -0.0639  0.0215 -0.2176
    1W        W55704  13.024   6.925   8.113  0.1444 -0.0626 -0.1911
    1W        W55705   0.100   3.609   7.643  0.0231 -0.1106  0.3208
    1W        W55706  13.342  25.428   9.325  0.4933 -0.1299 -0.6159
    1W        W55707  24.739   3.563   2.534  0.1448 -0.0681  0.1561
    1W        W55708  13.470  26.415   8.045 -0.2715 -0.1245 -0.0239
    1W        W55709  20.911  17.776   7.004  0.4530  0.0894 -0.2698
    1W        W55710   5.995  10.014   8.950 -0.0985  0.3840  0.3191
    1W        W55711   2.124   9.624   0.690  0.2485  0.1226  0.0599
    1W        W55712  27.605  12.389   7.180 -0.1224 -0.0436  0.2568
    1W        W55713  14.585   0.049   7.869 -0.2786 -0.1901  0.4020
    1W        W55714  26.634  17.851   5.693  0.2199  0.2173  0.0868
    1W        W55715   8.825   2.963   8.799 -0.1469  0.1385  0.1600
    1W        W55716   3.430   7.069   7.379 -0.0615 -0.0010  0.4722
    1W        W55717   6.852  21.285   9.074  0.0257  0.2024 -0.0280
    1W        W55718  24.112  19.836   0.731 -0.1971  0.1044 -0.2487
    1W        W55719  25.388   0.808   7.738 -0.0566 -0.1302  0.0002
    1W        W55720  17.756  20.474   0.308  0.1583 -0.2291  0.1620
    1W        W55721  20.994  26.616   3.594 -0.0044 -0.1978 -0.0609
    1W        W55722  17.754   3.602   0.563 -0.0586 -0.0818 -0.2571
    1W        W55723  14.032  27.498   1.288 -0.1946  0.2329 -0.2442
    1W        W55724  13.452   2.757   0.867  0.2096  0.3310 -0.3670
    1W        W55725  21.465  23.099   8.955 -0.0331 -0.0702 -0.0761
    1W        W55726  12.587   9.266   9.106 -0.1164  0.1028  0.0491
    1W        W55727   4.566  10.952   7.456  0.1654 -0.0726  0.6000
    1W        W55728  22.034  18.074   8.726  0.1554 -0.0168  0.3988
    1W        W55729  14.005  12.405   7.298  0.0520 -0.0585  0.2838
    1W        W55730   9.679   9.833   1.626  0.2070 -0.1445 -0.1080
    1W        W55731   7.785  12.771   0.166 -0.0791  0.0292  0.1017
    1W        W55732  16.402  29.139   8.509  0.2879  0.2299 -0.0147
    1W        W55733   5.013  13.025   7.452  0.1440 -0.3313  0.1942
    1W        W55734  28.292  17.412   8.421  0.0580 -0.0989 -0.2147
    1W        W55735   1.767  27.672   8.092  0.0984 -0.2202  0.0227
    1W        W55736   9.679  14.271   2.348  0.0555 -0.3862 -0.1011
    1W        W55737   1.277  16.938   9.090  0.2754 -0.3149  0.1075
    1W        W55738  11.433  10.867   3.052  0.0544 -0.2096 -0.0610
    1W        W55739  23.953   0.206   6.390  0.1232  0.0722  0.2660
    1W        W55740   1.429   4.164   1.553 -0.1489  0.1019 -0.3718
    1W        W55741  12.326   1.359   9.017  0.0401  0.2300  0.1163
    1W        W55742  28.079  12.003   6.544  0.0855  0.0600  0.1066
    1W        W55743  13.022  12.837   1.374 -0.1018 -0.1089  0.4367
    1W        W55744  16.768  11.322   7.819  0.3268  0.0294 -0.0318
    1W        W55745  11.943  21.553   7.261 -0.1604  0.1791 -0.2248
    1W        W55746  24.840   0.625   0.258 -0.1868 -0.0208  0.1584
    1W        W55747  11.978   6.262   9.112  0.3018 -0.0115 -0.1291
    1W        W55748  27.423  19.584   6.847 -0.1007  0.0746 -0.2184
    1W        W55749   3.384   9.852   8.254  0.3878 -0.0284  0.2260
    1W        W55750  12.650  17.706   9.252  0.1022 -0.1189 -0.1297
    1W        W55751  24.640  16.368   8.497  0.2083  0.1420  0.0449
    1W        W55752  17.482   1.412   9.489  0.1523 -0.2450 -0.1509
    1W        W55753  23.999   0.683   7.028 -0.4637 -0.1161 -0.1888
    1W        W55754   2.073  22.442   8.711  0.2530 -0.2210  0.1126
    1W        W55755  10.619   6.993   8.615 -0.0592 -0.2006 -0.3828
    1W        W55756  12.583  27.412   8.606  0.1779  0.4373 -0.3621
    1W        W55757  29.340  29.724   0.969 -0.0819  0.0199 -0.0398
    1W        W55758  11.261  26.548   8.919 -0.0918  0.0046  0.0934
    1W        W55759  24.393   7.520   2.373  0.0824  0.0718  0.1434
    1W        W55760   5.510  18.824   1.174 -0.0364  0.0650  0.1061
    1W        W55761   4.582   8.758   1.752 -0.0185 -0.0962  0.0913
    1W        W55762  17.911   4.931   7.513  0.1997 -0.0076 -0.0961
    1W        W55763   5.359   4.480   2.584  0.1008  0.1275  0.2341
    1W        W55764  27.835   9.318   8.121  0.0449  0.2607 -0.0564
    1W        W55765   2.587  27.858   7.475  0.0769 -0.1328  0.0484
    1W        W55766   9.580   0.361   3.680 -0.0909  0.1065 -0.0799
    1W        W55767  22.041  16.423   9.045  0.0289  0.2481 -0.1997
    1W        W55768  20.887  23.151   1.903 -0.0668 -0.1379  0.3332
    1W        W55769  15.374   7.614   3.541 -0.0067  0.1069 -0.0927
    1W        W55770   7.981   7.168   2.158  0.2315 -0.1903  0.1184
    1W        W55771  14.483  18.489   8.333 -0.3712 -0.6426  0.1367
    1W        W55772  15.193   6.390   7.977  0.1695  0.1734 -0.0666
    1W        W55773  26.199  15.576   6.828  0.0801  0.1666  0.0368
    1W        W55774   7.919  28.172   9.309 -0.1067 -0.1753 -0.0542
    1W        W55775  21.092  21.171   0.040  0.2082  0.3631  0.0356
    1W        W55776   1.498  27.394   6.798 -0.3164 -0.1449 -0.0945
    1W        W55777  24.124  25.778   3.388  0.0406 -0.0202  0.1603
    1W        W55778  15.136   1.890   1.823  0.2069 -0.0771 -0.2223
    1W        W55779   5.681  23.391   0.008 -0.1746 -0.2977  0.0948
    1W        W55780  29.512  27.976   0.674  0.1061 -0.2077  0.0948
    1W        W55781  17.585  19.472   8.335 -0.0592  0.0062 -0.0146
    1W        W55782  28.523  28.728   2.478 -0.1630 -0.3322 -0.1565
    1W        W55783   8.257  24.678   7.795  0.2962 -0.1512 -0.0135
    1W        W55784  29.332  27.416   2.199  0.1912  0.1259  0.2404
    1W        W55785  20.640  14.274   1.922  0.0617  0.0894 -0.2526
    1W        W55786  19.538  28.491   0.493 -0.1831  0.0978  0.0352
    1W        W55787  23.064   2.916   1.099  0.0470  0.2048  0.4966
    1W        W55788  20.537  25.705   2.920 -0.2228 -0.1657 -0.0065
    1W        W55789  14.008  18.795   7.642 -0.1419  0.1091 -0.0449
    1W        W55790   7.048  19.558   8.159  0.3294 -0.0822 -0.0402
    1W        W55791  22.966  13.743   8.557  0.0339  0.1700  0.0610
    1W        W55792  11.075   1.635   7.988 -0.2604 -0.3063 -0.1247
    1W        W55793  22.081  10.877   6.856 -0.2326  0.1944 -0.6136
    1W        W55794   7.259  12.442   0.040 -0.1502 -0.1169 -0.0422
    1W        W55795  15.699   3.002   8.417  0.0694 -0.0838 -0.4902
    1W        W55796  20.399  28.101   0.025 -0.1312 -0.1087 -0.0371
    1W        W55797   4.843  26.362   7.014 -0.0660 -0.1617  0.1196
    1W        W55798  29.734  26.070   2.156  0.1882 -0.2939 -0.2932
    1W        W55799  23.606   7.766   7.340 -0.0232  0.2036 -0.1947
    1W        W55800  13.198   0.319   2.642  0.2905  0.1517 -0.0423
    1W        W55801  18.634  28.896   8.558  0.2217  0.1685  0.0457
    1W        W55802   0.282   6.366   8.531  0.1157 -0.0212  0.2180
    1W        W55803  24.962   0.463   8.407  0.1519  0.0831 -0.2279
    1W        W55804  28.516   8.596   6.832 -0.1557  0.0940  0.1632
    1W        W55805  27.417   0.265   8.470 -0.2609 -0.3315  0.3641
    1W        W55806  16.787  17.466   2.902  0.4724 -0.2586 -0.2694
    1W        W55807   6.240  14.061   1.204  0.0655 -0.0993  0.1103
    1W        W55808  24.200   5.914   8.653  0.3586 -0.1754 -0.0814
    1W        W55809   9.942  19.989   1.593 -0.0412 -0.4500  0.1565
    1W        W55810  24.981   7.849   0.477 -0.0527  0.3566  0.0806
    1W        W55811  14.883  24.933   2.370  0.1168 -0.0862  0.2038
    1W        W55812  28.937  16.335   8.946  0.0850 -0.1329  0.0600
    1W        W55813  27.756  15.802   7.786  0.0959  0.1360  0.2132
    1W        W55814   3.164   6.914   6.002  0.5553 -0.0990  0.0482
    1W        W55815  11.756   5.529   0.890 -0.0921  0.1603  0.2454
    1W        W55816   8.273  29.077   2.069 -0.2742 -0.0923  0.2120
    1W        W55817   5.472  11.713   8.984 -0.0275 -0.1580  0.1463
    1W        W55818   8.659  22.831   1.921  0.0108 -0.3709 -0.2173
    1W        W55819   7.790   8.819   6.623 -0.3008  0.0753  0.0541
    1W        W55820  21.436   4.672   8.116  0.1076 -0.3740 -0.5548
    1W        W55821  18.982   0.188   9.214 -0.1664  0.3826  0.1776
    1W        W55822  24.599   0.172   8.260 -0.1306 -0.4634  0.1742
    1W        W55823  29.461  16.012   0.177 -0.0585  0.0146  0.3061
    1W        W55824  28.057   1.444   8.092 -0.0873 -0.0576 -0.0253
    1W        W55825   7.846   7.536   0.203  0.0168  0.0791  0.2972
    1W        W55826  29.564  19.311   8.302 -0.0777 -0.2609 -0.1275
    1W        W55827  20.528  25.653   7.895 -0.2897  0.1502  0.2050
    1W        W55828  15.894  28.538   0.864 -0.0055  0.0067 -0.0243
    1W        W55829   8.497  16.678   0.869  0.0785 -0.3771 -0.1024
    1W        W55830  28.554  10.577   9.167 -0.3555  0.0772  0.3225
    1W        W55831   0.334  18.316   6.556 -0.0521 -0.0589  0.2196
    1W        W55832   2.681  11.754   7.216  0.2522 -0.0699  0.0767
    1W        W55833   5.512  19.691   9.164  0.3795 -0.0958 -0.1037
    1W        W55834  16.585  24.644   7.070  0.0545 -0.0672 -0.0629
    1W        W55835  23.272  25.588   8.179 -0.1879 -0.0665  0.3522
    1W        W55836  14.922  14.616   0.001 -0.2476 -0.1094 -0.1046
    1W        W55837  12.257   1.553   3.384 -0.2601 -0.3792 -0.1437
    1W        W55838  27.103   9.129   7.475 -0.2204  0.0921  0.0855
    1W        W55839  18.466  28.661   2.047  0.1291  0.1407  0.1797
    1W        W55840   7.937   4.784   1.360 -0.1398 -0.0926 -0.1126
    1W        W55841   8.219  14.554   8.988 -0.0286  0.0447 -0.2140
    1W        W55842   9.941   9.098   2.145  0.1657 -0.1258 -0.1712
    1W        W55843  28.205  16.268   9.354  0.1521 -0.2350 -0.1012
    1W        W55844  24.647  17.726   8.223  0.0149  0.1711 -0.1234
    1W        W55845  21.857   1.785   2.295 -0.2547  0.0997 -0.1154
    1W        W55846   5.258  22.541   1.516  0.0364 -0.1541 -0.0331
    1W        W55847   2.881   5.039   1.325 -0.0169 -0.0610  0.2000
    1W        W55848   9.748   6.462   3.068 -0.0934  0.3714 -0.1418
    1W        W55849   3.375  15.292   9.249 -0.0584  0.2865  0.3046
    1W        W55850  17.298  28.364   1.274  0.1317  0.0293  0.0265
    1W        W55851  11.591   3.525   9.009  0.1345 -0.0657 -0.1117
    1W        W55852   6.217  14.245   7.149 -0.2984  0.0955 -0.0098
    1W        W55853  20.844  23.888   6.977 -0.1028  0.2848 -0.0743
    1W        W55854  16.208  21.941   8.590 -0.1976 -0.0684 -0.4628
    1W        W55855   9.932   0.374   8.022 -0.0745  0.0508 -0.0145
    1W        W55856   1.619  28.228   9.044 -0.0242 -0.0374  0.0672
    1W        W55857  24.213   9.667   2.074  0.2759  0.1899 -0.0851
    1W        W55858  26.022  12.394   1.039  0.1038  0.3241 -0.2320
    1W        W55859  14.348  20.145   2.893 -0.1002  0.1640  0.3103
    1W        W55860  17.602   7.993   0.929  0.3093 -0.2567  0.0799
    1W        W55861   3.460   3.465   3.347  0.2619  0.1803  0.0475
    1W        W55862   5.464  17.261   8.500 -0.3329 -0.1598 -0.1639
    1W        W55863  10.958  22.054   8.778  0.1018  0.2411 -0.0321
    1W        W55864  17.408  19.620   7.759 -0.0641 -0.2095 -0.0862
    1W        W55865   6.208  26.411   8.600  0.2451 -0.0231 -0.1200
    1W        W55866  24.131   2.110   9.477  0.0164  0.1752  0.1633
    1W        W55867  11.931  20.386   0.340  0.3263 -0.1497 -0.0201
    1W        W55868   4.599  26.280   9.388  0.0475  0.0567 -0.0042
    1W        W55869   8.919  18.760   8.557 -0.0787  0.0513  0.2581
    1W        W55870  23.794  13.331   0.582  0.1223 -0.1080 -0.0205
    1W        W55871  17.004  24.455   9.461 -0.0272  0.0224 -0.3350
    1W        W55872   3.436   6.569   9.139 -0.0669  0.0815  0.0294
    1W        W55873   9.067  10.643   3.272 -0.1124  0.1364  0.0037
    1W        W55874  19.227  19.155   7.254  0.1271 -0.0950  0.3893
    1W        W55875  29.072   9.135   0.176 -0.1133  0.1229  0.0793
    1W        W55876  25.488   4.709   0.700 -0.3098  0.1947 -0.0384
    1W        W55877   3.209  27.976   6.962  0.2511  0.1401  0.0285
    1W        W55878   1.590  12.415   7.825 -0.1128  0.4317  0.0101
    1W        W55879  18.124  27.811   8.969  0.2079 -0.0260 -0.0702
    1W        W55880  23.594  18.230   7.382  0.2664 -0.0502  0.3513
    1W        W55881  27.094  29.482   1.666  0.1149 -0.1113 -0.1090
    1W        W55882   7.843  29.114   0.235 -0.4171  0.4106 -0.0398
    1W        W55883   0.646   4.345   8.603 -0.1677  0.1724  0.3416
    1W        W55884   5.342   4.358   1.498 -0.0802 -0.0315 -0.0306
    1W        W55885  20.688   5.643   0.881  0.1585  0.1808 -0.3034
    1W        W55886  25.072  17.382   0.023  0.0241 -0.2150 -0.3892
    1W        W55887  26.337  23.163   8.432  0.0413 -0.4378 -0.0855
    1W        W55888  28.278   5.028   2.961  0.1977  0.3891 -0.1390
    1W        W55889   7.889  21.537   9.201  0.1311 -0.1259 -0.1562
    1W        W55890   2.015  26.054   2.638 -0.0540 -0.1413  0.0399
    1W        W55891   1.850  11.106   7.520 -0.1936 -0.1406 -0.1604
    1W        W55892   7.628  22.083   8.568  0.0414 -0.2087 -0.0432
    1W        W55893  20.946  19.661   6.341  0.1475 -0.3816 -0.1501
    1W        W55894  26.810  18.871   6.772  0.0968 -0.0555  0.3505
    1W        W55895  10.889  23.088   1.265  0.0990  0.0246  0.0652
    1W        W55896  22.678  26.035   7.258  0.0442  0.0322  0.2011
    1W        W55897  13.003   5.024   1.237  0.1330 -0.0492 -0.0405
    1W        W55898   3.919  29.389   1.086 -0.1154  0.3847  0.1418
    1W        W55899   5.684   9.491   6.981  0.2458 -0.1206 -0.0482
    1W        W55900   7.006  28.707   6.893 -0.2057 -0.1283  0.1088
    1W        W55901  19.670  28.090   7.738  0.0431 -0.0452 -0.1012
    1W        W55902  24.137  22.900   8.359 -0.1247  0.1525 -0.1051
    1W        W55903  25.992  12.241   6.388  0.3307  0.1101  0.1044
    1W        W55904  19.436  10.849   1.488  0.0874  0.0110  0.3150
    1W        W55905  25.187  11.992   9.123  0.2029 -0.1602  0.0520
    1W        W55906  16.611  21.660   7.354 -0.0382 -0.3053 -0.2715
    1W        W55907  11.224  29.384   2.284  0.1207 -0.1026 -0.0133
    1W        W55908  20.885   0.060   8.991 -0.0115  0.1238 -0.0728
    1W        W55909  29.639   8.817   0.325  0.0158 -0.1972 -0.2576
    1W        W55910   8.250  14.810   7.801  0.0582 -0.2501 -0.1799
    1W        W55911  19.995  25.510   8.758  0.0863 -0.0320  0.2257
    1W        W55912  19.668  19.847   8.043  0.2142  0.2728  0.1454
    1W        W55913  14.526   0.514   2.820  0.0805 -0.0003  0.1406
    1W        W55914  20.250  24.022   8.804 -0.0145 -0.0238  0.2523
    1W        W55915   4.972  19.588   8.164  0.3770 -0.0638 -0.2051
    1W        W55916   9.016  12.242   0.850 -0.1385  0.0038 -0.0090
    1W        W55917  15.554  25.410   7.723  0.1944 -0.2711  0.0496
    1W        W55918  11.002  12.194   0.983  0.1670  0.1696  0.0121
    1W        W55919  13.651  18.734   1.497 -0.1466 -0.3354 -0.1249
    1W        W55920  10.219   0.543   7.624 -0.0670 -0.0369 -0.2686
    1W        W55921   8.565   8.503   8.284  0.1466  0.0870  0.1394
    1W        W55922  27.542   4.449   0.295 -0.1958 -0.0371  0.0336
    1W        W55923  21.142  26.919   9.124 -0.1429  0.0576  0.1070
    1W        W55924   5.998  18.618   1.532  0.1330 -0.5595 -0.1282
    1W        W55925   0.792  14.571   0.349 -0.0630 -0.2303 -0.0424
    1W        W55926  17.012  17.086   9.398 -0.1238  0.0898  0.1723
    1W        W55927  27.350   7.898   8.734  0.2101  0.1106 -0.1732
    1W        W55928  23.902  19.956   8.967 -0.4843 -0.0828  0.2766
    1W        W55929  26.031   1.037   9.182  0.1571 -0.1261 -0.2020
    1W        W55930   1.067   2.668   2.084 -0.2387 -0.0090 -0.1568
    1W        W55931  15.512   7.094   9.210 -0.3148  0.0574 -0.1712
    1W        W55932  17.479   7.147   2.252 -0.0227 -0.0005 -0.1415
    1W        W55933  26.353  27.826   3.050 -0.5128  0.6965 -0.0354
    1W        W55934  14.856  22.757   8.314  0.0795 -0.0445  0.4299
    1W        W55935  10.589  29.359   0.687  0.3905 -0.0786  0.0128
    1W        W55936  23.168  14.458   7.383  0.0956 -0.1293  0.3647
    1W        W55937  27.969  26.123   7.634 -0.0763 -0.2153  0.2422
    1W        W55938  28.324  11.508   1.581 -0.0383  0.1025  0.1164
    1W        W55939  19.418  10.321   1.542 -0.1061 -0.0690 -0.1925
    1W        W55940  23.570  28.980   8.426  0.1812 -0.1146 -0.0716
    1W        W55941  18.688  16.411   2.978  0.2351 -0.2051 -0.1281
    1W        W55942   4.939   4.153   9.187 -0.2145  0.4239  0.2573
    1W        W55943  15.680  28.125   2.198 -0.0705  0.3204 -0.1493
    1W        W55944  26.125  29.201   1.693  0.0997  0.1061  0.1835
    1W        W55945   0.442   3.344   9.502 -0.2671 -0.1506  0.1957
    1W        W55946  29.057   7.663   1.809 -0.1534  0.1444  0.1387
    1W        W55947   6.233  11.608   8.630  0.0515 -0.1328  0.1391
    1W        W55948  10.300  19.593   9.551  0.1458  0.2076 -0.1449
    1W        W55949  26.545  27.966   1.127  0.3619  0.1761 -0.0221
    1W        W55950  15.064  22.049   6.629 -0.2317  0.0606  0.0159
    1W        W55951   9.524  24.307   1.321 -0.1327  0.3395 -0.2402
    1W        W55952  10.589   4.142   2.723  0.1036  0.3468 -0.1998
    1W        W55953  26.649   9.044   7.094 -0.1242  0.0167  0.1729
    1W        W55954   4.891  12.810   9.026  0.1554 -0.2650  0.0878
    1W        W55955  11.482  20.613   0.478  0.0737 -0.1352  0.0373
    1W        W55956  18.877  28.825   7.771 -0.1388 -0.0576 -0.0962
    1W        W55957  15.893  28.620   2.301  0.0589 -0.0841 -0.2815
    1W        W55958  13.594  19.385   9.459 -0.0271 -0.1283  0.2728
    1W        W55959   2.289  27.089   7.069  0.0240  0.2220  0.1197
    1W        W55960  18.013   6.917   8.738  0.0923 -0.1561  0.2450
    1W        W55961  25.258   4.365   1.896  0.1065  0.2873 -0.0976
    1W        W55962  19.203  13.737   9.066  0.1601  0.1734 -0.0106
    1W        W55963  12.746  29.313   7.590 -0.0423 -0.5469 -0.0218
    1W        W55964  18.448  12.659   0.424  0.0311 -0.1329  0.3071
    1W        W55965  11.360  22.455   7.198 -0.0595  0.2698  0.2312
    1W        W55966   8.903  28.795   1.287  0.1678 -0.1037 -0.2383
    1W        W55967  12.883  24.255   8.413  0.1235  0.3211 -0.1310
    1W        W55968  24.148  13.492   8.880  0.0479 -0.2027 -0.2081
    1W        W55969  11.443  10.847   0.564  0.1276 -0.1609  0.1015
    1W        W55970  29.146  14.383   1.213  0.2161 -0.0476  0.0358
    1W        W55971  10.515  11.467   3.278  0.1165 -0.2162  0.0770
    1W        W55972   9.643   8.142   7.095  0.0189 -0.2755  0.0179
    1W        W55973   5.144   0.481   7.474 -0.2842 -0.0106 -0.3996
    1W        W55974   8.727   3.109   2.265  0.4107  0.1284  0.3424
    1W        W55975   6.690  20.517   7.511  0.0813 -0.0887  0.1813
    1W        W55976  20.264  15.775   2.227 -0.2163  0.0224  0.0697
    1W        W55977   0.185  26.545   0.477  0.0731 -0.2230 -0.0194
    1W        W55978  21.314  20.877   7.145  0.0567 -0.1197  0.0808
    1W        W55979  10.911  28.038   2.881  0.0892  0.0620 -0.0405
    1W        W55980  21.424   3.617   0.642 -0.1910 -0.0992  0.1113
    1W        W55981  13.711   8.517   7.299 -0.1043 -0.0243  0.0408
    1W        W55982   5.918  24.957   8.839  0.2044  0.1012  0.2002
    1W        W55983  24.803  25.474   7.360  0.1659  0.3342  0.2092
    1W        W55984   3.861   9.030   6.686 -0.1154 -0.1271 -0.3598
    1W        W55985  10.683  11.961   9.540  0.0944 -0.3028 -0.3941
    1W        W55986   5.608   9.455   7.489 -0.0485  0.2367  0.1572
    1W        W55987  11.127   0.847   0.346 -0.0937 -0.0774 -0.1112
    1W        W55988   5.310   6.853   3.705  0.0839  0.2757  0.0457
    1W        W55989   7.113   8.000   6.862 -0.1726 -0.0260 -0.1081
    1W        W55990  10.485   7.897   9.508 -0.2593  0.0896  0.0273
    1W        W55991  10.991   8.284   0.179  0.0005 -0.1585 -0.0563
    1W        W55992  21.032   1.800   3.212  0.2470 -0.1699 -0.2172
    1W        W55993  10.955  29.623   7.188  0.1716  0.0992  0.0632
    1W        W55994  16.912  29.348   8.305  0.4090 -0.1332  0.2861
    1W        W55995   5.890   2.760   7.207 -0.0016 -0.0582  0.2166
    1W        W55996   3.535   7.938   1.932  0.1309  0.1467 -0.0099
    1W        W55997  14.992   8.693   8.777  0.1976  0.2714 -0.2257
    1W        W55998   3.769  25.432   2.290  0.0158 -0.1294  0.1743
    1W        W55999  17.992   8.923   2.024  0.0937  0.0176 -0.2079
    1W        W56000   9.173  23.489   1.617  0.2215 -0.3670 -0.3616
    1W        W56001  11.010  28.709   8.082  0.1685  0.1537 -0.1125
    1W        W56002  26.841   5.464   1.744 -0.1254  0.2079 -0.1913
    1W        W56003   3.435   6.528   0.645 -0.0008  0.1398  0.0297
    1W        W56004  12.886   2.283   8.269  0.3608 -0.0675  0.0241
    1W        W56005  25.802   9.741   8.856  0.1328 -0.0368  0.1663
    1W        W56006   9.674   5.542   0.072 -0.0877 -0.5080 -0.0654
    1W        W56007  18.892   8.902   7.078 -0.2090  0.1604 -0.4493
    1W        W56008  10.210  24.009   2.013  0.1370  0.1588 -0.1619
    1W        W56009  22.199   0.479   2.617 -0.2490  0.0068  0.0410
    1W        W56010  25.905  16.521   7.683  0.1714 -0.1870 -0.1094
    1W        W56011  17.095   2.606   7.466 -0.3246 -0.1381 -0.2951
    1W        W56012  28.076   3.052   2.113 -0.0868  0.0298  0.1039
    1W        W56013   3.963   5.192   6.651 -0.0874  0.1385  0.0314
    1W        W56014  29.560  25.812   0.154  0.0013  0.0208 -0.0178
    1W        W56015  12.978  29.098   3.349 -0.0823  0.1792 -0.4575
    1W        W56016   3.143   0.624   7.992 -0.0386 -0.3008  0.1088
    1W        W56017   1.491   9.600   0.478 -0.0161 -0.0269  0.1328
    1W        W56018  15.499   5.902   2.842 -0.0022 -0.2403  0.3726
    1W        W56019  15.646  14.149   1.821  0.2238  0.1520 -0.4088
    1W        W56020  14.479   4.562   1.125 -0.1846  0.0565  0.0193
    1W        W56021   5.335  13.673   2.308 -0.2031 -0.0565 -0.3628
    1W        W56022  23.683   7.201   2.912  0.2241  0.2195  0.4757
    1W        W56023  26.992  11.822   8.379 -0.3000 -0.3376  0.3217
    1W        W56024  19.030  15.918   8.316  0.1817  0.3140 -0.1078
    1W        W56025  24.255   0.391   1.225 -0.1714  0.0597 -0.0995
    1W        W56026   5.089  18.863   8.688  0.1013 -0.2313  0.0789
    1W        W56027   2.820  18.371   0.469  0.0938 -0.2660  0.0421
    1W        W56028  11.041  26.939   0.467  0.0067  0.0472  0.4153
    1W        W56029  20.659   5.724   0.373  0.0851  0.5019 -0.0521
    1W        W56030   7.302   7.633   9.534 -0.0255 -0.0523 -0.1114
    1W        W56031  15.430  29.280   1.852 -0.1132 -0.0056 -0.0703
    1W        W56032  16.774  22.745   7.295  0.1738  0.4461  0.1536
    1W        W56033  13.994  27.017   6.575  0.0885 -0.0448 -0.1429
    1W        W56034   6.837  24.934   0.204  0.1005 -0.2087 -0.4583
    1W        W56035  23.006  14.681   0.325  0.1986 -0.1905 -0.1012
    1W        W56036  15.578  20.188   7.948  0.3540  0.1777  0.0861
    1W        W56037  14.419  23.820   0.325  0.1155  0.0615 -0.0537
    1W        W56038   2.917  28.472   8.403 -0.0499 -0.2620  0.0812
    1W        W56039  21.306  14.957   1.811 -0.1998 -0.3387 -0.0716
    1W        W56040   7.027   1.176   1.323  0.1527  0.3719  0.2322
    1W        W56041  15.250  22.719   1.751  0.2525 -0.0523 -0.1188
    1W        W56042  20.869  19.061   0.925  0.0468  0.0909  0.2600
    1W        W56043  12.847   4.851   2.889 -0.3468 -0.2270 -0.0935
    1W        W56044  10.754   6.390   0.039  0.0014 -0.1954  0.0717
    1W        W56045  17.344  13.576   1.624 -0.1635  0.0132  0.2262
    1W        W56046  25.556  26.300   0.766  0.0791  0.0768 -0.1291
    1W        W56047  24.192   7.684   8.580 -0.0404 -0.1692 -0.3695
    1W        W56048   4.707  23.794   7.951 -0.2153 -0.0716 -0.0266
    1W        W56049   1.098   8.063   6.370 -0.0985 -0.1879 -0.1933
    1W        W56050  27.490  12.832   6.353 -0.2161 -0.0420 -0.1044
    1W        W56051  29.402   8.343   6.368  0.1281 -0.3854 -0.0630
    1W        W56052   6.039   8.276   2.381  0.1478 -0.0508  0.1145
    1W        W56053  12.681   7.590   7.528  0.1213  0.1696  0.0678
    1W        W56054  27.069   1.513   1.630  0.1570  0.2726  0.1751
    1W        W56055  10.427  26.017   8.941 -0.0728 -0.1383  0.0177
    1W        W56056   2.549   9.069   9.259 -0.2819 -0.2056 -0.1096
    1W        W56057   6.730  15.017   2.131 -0.1553  0.2709 -0.0957
    1W        W56058   7.453   6.764   0.307  0.1714 -0.0836  0.0206
    1W        W56059  20.083  21.640   3.123  0.5102 -0.2051 -0.2195
    1W        W56060   5.746  28.159   6.735 -0.1157  0.1757 -0.1993
    1W        W56061   4.484  28.498   2.179  0.1283 -0.0314 -0.2539
    1W        W56062   9.132  24.460   9.408 -0.3871 -0.0708  0.0386
    1W        W56063  16.791  28.492   0.467  0.0012 -0.1492  0.4980
    1W        W56064  28.985  17.368   7.029 -0.1344  0.1338  0.0928
    1W        W56065  14.118  20.136   2.040  0.1811  0.1048  0.0602
    1W        W56066   0.161  15.700   9.474  0.1382  0.1688 -0.0299
    1W        W56067  20.037   3.296   2.906 -0.0046  0.0120  0.0837
    1W        W56068   0.337  14.766   0.434 -0.1750 -0.0913  0.3550
    1W        W56069   4.965  24.893   3.089 -0.0452  0.0894  0.2196
    1W        W56070  28.186  11.674   7.831  0.1663 -0.1421  0.0505
    1W        W56071   1.761   7.576   6.736  0.0311  0.2202  0.2317
    1W        W56072  21.109  21.730   7.544 -0.0134 -0.2407  0.0015
    1W        W56073  29.613  26.418   2.529 -0.1182 -0.2619 -0.3075
    1W        W56074  16.734  13.718   5.903  0.1372  0.0652  0.2526
    1W        W56075  26.573   0.937   0.619 -0.2447 -0.0996  0.0060
    1W        W56076   5.779  15.516   1.707  0.2370  0.0687  0.0507
    1W        W56077   1.052   9.662   0.851 -0.1441  0.2310  0.4191
    1W        W56078   2.691  21.260   8.229 -0.0147 -0.0860 -0.3074
    1W        W56079  28.540  20.993   1.261 -0.0079 -0.0155 -0.0873
    1W        W56080  12.962   5.914   2.775 -0.1577 -0.3660 -0.1119
    1W        W56081   4.552  22.196   0.145 -0.3075 -0.0446  0.0366
    1W        W56082  18.029  11.018   1.627 -0.2997  0.0344 -0.0567
    1W        W56083  24.025   3.306   0.518  0.0511 -0.0559  0.0901
    1W        W56084  27.116  27.296   9.064  0.1771  0.1871 -0.0354
    1W        W56085   9.486  22.656   6.864 -0.0009 -0.2988 -0.1695
    1W        W56086   5.371   3.997   2.529  0.1191  0.0541  0.0290
    1W        W56087  10.525  15.175   1.968 -0.0805  0.1195  0.0524
    1W        W56088   1.367   4.716   2.448 -0.0622 -0.2805  0.2546
    1W        W56089  28.551   8.840   7.842 -0.0630 -0.1428 -0.0182
    1W        W56090  28.245  15.270   7.191 -0.0369  0.0376 -0.3076
    1W        W56091  16.794   1.827   9.253 -0.1858 -0.0214 -0.1959
    1W        W56092  13.091   6.498   8.558  0.0935  0.1193  0.1502
    1W        W56093   3.380  11.169   9.164  0.0905  0.0322  0.0611
    1W        W56094  10.770  19.982   8.179 -0.2332  0.1696 -0.0799
    1W        W56095  20.950   4.303   3.574  0.2326 -0.0925  0.2265
    1W        W56096  17.746  10.117   7.246  0.0651  0.2067  0.0503
    1W        W56097   8.925  16.803   2.434  0.3247  0.2623  0.1447
    1W        W56098  19.556   2.961   8.609  0.1462  0.2710 -0.0955
    1W        W56099  13.773  14.682   1.338 -0.0893 -0.0846  0.2167
    1W        W56100  15.991   2.999   1.656 -0.3312  0.0040 -0.0588
    1W        W56101  22.475  27.554   8.320  0.0919 -0.4635 -0.0114
    1W        W56102  14.603   9.477   0.761  0.0791  0.1203  0.1347
    1W        W56103  26.608  14.572   6.728  0.1518  0.0358 -0.1015
    1W        W56104   3.922  19.048   1.930  0.0229  0.2444 -0.0339
    1W        W56105   0.558  28.469   1.389  0.6416 -0.2427 -0.0434
    1W        W56106  17.246  23.383   2.515  0.0130 -0.2300  0.0183
    1W        W56107  15.943  28.005   0.810  0.0897 -0.0869  0.1091
    1W        W56108  18.167   4.883   0.770  0.3269  0.3193 -0.3234
    1W        W56109  29.460  11.897   0.977 -0.1845 -0.0778 -0.0048
    1W        W56110   6.762  11.116   9.245  0.1439  0.2761 -0.2464
    1W        W56111   9.600  28.339   0.154  0.2769  0.2823  0.0418
    1W        W56112  29.347  21.485   6.477  0.1504  0.2376 -0.1311
    1W        W56113   3.350   3.448   2.606 -0.0100  0.2304 -0.0805
    1W        W56114  29.701   6.639   9.207  0.0544  0.1081  0.1437
    1W        W56115  27.158  21.086   6.851  0.2270  0.2402 -0.0355
    1W        W56116  10.656   2.232   1.632 -0.0542 -0.2141 -0.0916
    1W        W56117  11.710  13.017   0.047  0.0578 -0.1339  0.2825
    1W        W56118   1.019   7.613   0.294 -0.0219 -0.1647  0.2251
    1W        W56119  24.555   6.493   1.422 -0.1724  0.1553  0.0948
    1W        W56120  23.803  10.204   7.455  0.0127 -0.0983  0.1699
    1W        W56121  11.703  20.019   1.259  0.1813  0.2710  0.1591
    1W        W56122  28.440  22.483   1.845 -0.1904 -0.1775 -0.0745
    1W        W56123  16.678   3.120   9.080  0.0287  0.0009 -0.1019
    1W        W56124   8.505   0.898   1.977  0.2589 -0.0415 -0.0549
    1W        W56125  26.733  19.636   7.362  0.0678 -0.0904  0.0683
    1W        W56126  10.368  26.386   9.283 -0.0557  0.1097  0.0124
    1W        W56127   9.391   7.592   9.511  0.0375 -0.2650 -0.1630
    1W        W56128   6.734  22.206   7.979 -0.1400 -0.0735 -0.0256
    1W        W56129   9.574  26.835   2.328  0.1363  0.2441 -0.0141
    1W        W56130   0.320  11.494   0.414  0.0077 -0.0259  0.5080
    1W        W56131  27.639  17.964   6.828 -0.0672  0.0106 -0.0309
    1W        W56132  20.454  16.510   7.443 -0.3311 -0.0323 -0.1872
    1W        W56133  20.871  11.147   7.827  0.2005  0.0330 -0.0193
    1W        W56134  21.687   7.761   7.866  0.0015  0.0864 -0.3916
    1W        W56135   8.371   7.292   3.952 -0.1978  0.2228 -0.0882
    1W        W56136  13.409  12.525   2.099 -0.2451 -0.2780 -0.0548
    1W        W56137  22.479   1.872   2.127  0.1467 -0.1089  0.3545
    1W        W56138   3.588  12.301   2.317  0.1715  0.0030  0.0822
    1W        W56139   0.570  12.019   1.306  0.1271  0.3106  0.0606
    1W        W56140  21.384   5.980   2.482 -0.0069 -0.0852  0.1285
    1W        W56141  12.311   0.581   7.743 -0.4789 -0.0121 -0.1744
    1W        W56142  10.084   9.170   7.949  0.0154  0.1057  0.1640
    1W        W56143  10.322  10.840   9.164  0.3336 -0.0684  0.6564
    1W        W56144  12.610   8.024   9.154  0.1646  0.0303  0.0555
    1W        W56145  20.956  25.111   6.975  0.2194 -0.0069  0.1333
    1W        W56146  21.579   6.131   2.876 -0.1523  0.2982  0.2174
    1W        W56147  18.608  29.673   9.060 -0.0109  0.1905  0.3624
    1W        W56148   3.583  19.444   1.718  0.0440 -0.3937  0.1846
    1W        W56149   5.442  12.024   8.107 -0.0296 -0.2565 -0.2548
    1W        W56150  27.741  23.695   8.060  0.1271 -0.0506 -0.0611
    1W        W56151  23.857   3.770   8.117  0.2109  0.0001  0.0224
    1W        W56152  20.436   9.531   1.891 -0.0812  0.1528  0.0954
    1W        W56153  26.979   7.491   6.330  0.1174  0.0864 -0.0239
    1W        W56154  22.474  17.224   7.346 -0.0600  0.2624  0.0398
    1W        W56155  19.495   7.337   9.500  0.1938  0.0004 -0.0424
    1W        W56156  19.186  10.399   7.701  0.0919 -0.3213  0.3057
    1W        W56157  16.629  12.720   8.911  0.2137  0.1335 -0.1066
    1W        W56158  12.150  27.614   8.425  0.2972  0.0454 -0.2161
    1W        W56159  27.943  18.852   7.388 -0.1707 -0.2282  0.1236
    1W        W56160   9.775   0.755   7.680  0.0790 -0.1120 -0.0475
    1W        W56161  13.749  27.148   2.617 -0.1279  0.0195 -0.3516
    1W        W56162  26.337  27.737   2.076  0.0272 -0.0270 -0.0832
    1W        W56163  20.082  18.494   0.452 -0.2419  0.0401  0.3492
    1W        W56164  16.414   6.176   8.047  0.2667 -0.0641  0.1483
    1W        W56165  23.891  26.405   1.217  0.0781  0.4321  0.3200
    1W        W56166   7.272  18.590   2.031  0.1495  0.0322 -0.1044
    1W        W56167  14.991  23.860   0.417 -0.0870  0.1409  0.1924
    1W        W56168  17.569   2.250   2.263 -0.1378  0.1060 -0.1102
    1W        W56169   4.202   1.369   9.417  0.0712 -0.0611 -0.1979
    1W        W56170  22.679   1.023   0.289 -0.2280  0.0248  0.0467
    1W        W56171  14.354  22.700   1.027 -0.3260  0.5374 -0.2589
    1W        W56172  27.964  16.825   6.138  0.2125 -0.0372  0.0989
    1W        W56173   3.295  28.377   6.592 -0.0420 -0.2442 -0.0395
    1W        W56174   0.739   7.218   0.243  0.3294  0.3799 -0.0366
    1W        W56175  18.199   9.667   6.439 -0.1383  0.2667 -0.0484
    1W        W56176  16.584  22.089   3.130 -0.0302 -0.0216 -0.2336
    1W        W56177  25.466  17.842   0.507  0.2954 -0.3849  0.0774
    1W        W56178  10.286  20.761   7.294 -0.0900 -0.2388 -0.0859
    1W        W56179  13.453   0.009   0.133 -0.2457  0.1366  0.1485
    1W        W56180  22.095  14.933   6.724  0.3920  0.1682 -0.1082
    1W        W56181  25.011   1.070   2.657 -0.1652  0.4670 -0.2387
    1W        W56182  26.375   6.614   1.434 -0.0874 -0.3426  0.2198
    1W        W56183  15.434  19.369   8.700 -0.1344  0.0546  0.0038
    1W        W56184  12.763  14.519   8.799 -0.2338  0.1542  0.0945
    1W        W56185  21.415   7.949   7.131  0.3258 -0.0157 -0.1365
    1W        W56186  10.049  21.867   7.154 -0.2902  0.4369 -0.0347
    1W        W56187   8.647  25.456   8.033  0.0948 -0.0096 -0.1579
    1W        W56188   0.405   3.790   8.442 -0.0166 -0.0234  0.0651
    1W        W56189   7.483   7.702   3.338  0.3314  0.0459 -0.2036
    1W        W56190  16.515   1.379   3.307  0.1356  0.0851  0.1364
    1W        W56191   0.414   0.163   2.832 -0.2689 -0.1229  0.0344
    1W        W56192   3.827  15.550   8.622  0.1042  0.2340 -0.1405
    1W        W56193  17.400  13.546   0.290 -0.1308  0.2321 -0.0431
    1W        W56194  23.426  24.109   8.809  0.0210 -0.0553 -0.1476
    1W        W56195  26.465  24.808   7.907 -0.1398  0.4563  0.0646
    1W        W56196  26.911   2.533   0.711  0.3116 -0.0934  0.2710
    1W        W56197  23.065  24.837   2.465  0.0277 -0.2465  0.0011
    1W        W56198   2.438   9.151   1.268 -0.1216 -0.2281  0.2961
    1W        W56199   8.913  22.247   2.533  0.1211 -0.0578  0.1300
    1W        W56200   7.033  14.276   1.651  0.1028  0.1575  0.0898
    1W        W56201  29.301   3.930   8.397  0.0610  0.1141  0.0791
    1W        W56202  14.628  15.367   7.255 -0.0102  0.0601 -0.0919
    1W        W56203  21.618   7.465   0.046  0.1419 -0.0886  0.0277
    1W        W56204  20.481  10.327   8.453  0.0258  0.1240  0.3101
    1W        W56205  15.092  24.641   7.200 -0.1305  0.1082 -0.0002
    1W        W56206  20.191   7.702   9.146  0.0443  0.0132  0.2213
    1W        W56207  20.409  14.477   6.556 -0.1141  0.2602  0.0845
    1W        W56208   8.182  19.315   2.257 -0.3256  0.1785  0.0397
    1W        W56209  27.668   7.570   8.476 -0.0918 -0.1519  0.3044
    1W        W56210   8.788  16.534   0.277 -0.1833  0.3242 -0.1077
    1W        W56211  22.378   6.164   1.650  0.3259  0.2321 -0.1797
    1W        W56212   8.485   4.843   0.389 -0.1641  0.0337  0.2694
    1W        W56213  16.153   9.653   8.923  0.0987 -0.0984  0.2280
    1W        W56214  27.056   1.496   2.098  0.1533 -0.0157  0.0165
    1W        W56215  29.696  25.412   0.448  0.0913 -0.0629 -0.1794
    1W        W56216  11.156  14.220   6.828 -0.2034 -0.0794  0.1273
    1W        W56217   5.752   6.706   1.205  0.0307  0.1971  0.0064
    1W        W56218  16.255   1.542   2.627  0.0465 -0.0597  0.0326
    1W        W56219  23.594  13.037   9.337 -0.1507 -0.1668  0.1110
    1W        W56220   8.842  17.446   8.165 -0.1593  0.0354  0.0295
    1W        W56221  14.789  13.348   5.970 -0.2254  0.2320  0.2151
    1W        W56222  19.130  17.555   0.792 -0.0233  0.1188 -0.2286
    1W        W56223  15.303  27.069   9.318 -0.2037 -0.3200  0.3155
    1W        W56224  10.733  24.860   2.592 -0.0552  0.0423  0.0342
    1W        W56225  28.342  25.589   0.535 -0.0925  0.0676 -0.0130
    1W        W56226  23.801  19.784   5.197 -0.0156 -0.3091 -0.1532
    1W        W56227   4.383  29.623   7.955  0.1318 -0.0355  0.3190
    1W        W56228  11.887  21.005   0.400 -0.1308  0.0588  0.0368
    1W        W56229   1.253  26.108   0.666 -0.0124  0.0645 -0.3115
    1W        W56230  23.455  11.010   5.889 -0.3384 -0.1439 -0.0042
    1W        W56231   5.030   9.403   7.777  0.1009 -0.0859 -0.1476
    1W        W56232  17.044  11.242   0.023  0.0037 -0.1553  0.1935
    1W        W56233   7.469   6.235   2.774  0.1321 -0.0371 -0.1101
    1W        W56234  19.096   1.710   2.643 -0.0767  0.5233  0.4518
    1W        W56235  15.561   2.117   1.620  0.1093 -0.0792  0.0839
    1W        W56236   0.370   4.037   8.899  0.1406 -0.1927 -0.2032
    1W        W56237  14.608  25.767   2.369  0.1372  0.2379  0.1451
    1W        W56238   5.088  17.649   1.989 -0.0224  0.3701 -0.1915
    1W        W56239  29.099   4.587   9.312  0.2487  0.0708 -0.0792
    1W        W56240  21.084  20.223   6.497 -0.1942 -0.0885  0.1454
    1W        W56241   1.051  14.749   8.865 -0.1484  0.2610  0.4326
    1W        W56242  18.783  16.385   8.209 -0.0644  0.1451 -0.0961
    1W        W56243   3.331  27.089   1.507 -0.1727  0.6577 -0.1683
    1W        W56244   1.990  23.443   0.051  0.0186 -0.1054 -0.0002
    1W        W56245   7.446   9.430   2.895 -0.0451 -0.1395  0.0256
    1W        W56246  10.644   6.434   7.757 -0.3410  0.1631  0.0436
    1W        W56247  29.470  11.780   1.655 -0.3286  0.3754  0.0949
    1W        W56248  24.663   2.297   1.963 -0.1957  0.2723 -0.0304
    1W        W56249  19.397   5.196   3.841 -0.0331 -0.0540 -0.1242
    1W        W56250   3.244  24.808   2.788  0.0171  0.1041  0.1936
    1W        W56251  18.631  14.647   6.483 -0.0657  0.1545 -0.1172
    1W        W56252  10.599   8.413   9.484  0.1782  0.0020  0.2922
    1W        W56253  11.297  19.815   0.964 -0.1999  0.0348  0.0421
    1W        W56254  13.693  14.011   1.620  0.2446 -0.0662 -0.1864
    1W        W56255  18.287  15.472   6.641  0.3350  0.0532  0.0972
    1W        W56256   2.870   7.492   7.598 -0.0573  0.4404 -0.0891
    1W        W56257   9.609  29.170   1.034  0.2190  0.2329  0.0472
    1W        W56258  17.991   9.727   8.868 -0.0790  0.0041 -0.1876
    1W        W56259   2.482  11.090   0.351  0.0346  0.0004  0.0987
    1W        W56260  15.222  18.082   2.161 -0.0531 -0.1426  0.0007
    1W        W56261  25.183  21.919   7.060  0.0927 -0.2021 -0.0863
    1W        W56262  25.369  19.632   7.452  0.1707  0.1496  0.0654
    1W        W56263   1.303  22.430   8.730 -0.0552 -0.2036  0.0695
    1W        W56264   6.386  14.400   7.680 -0.0834  0.0431 -0.0055
    1W        W56265  18.862   3.459   0.229  0.1311  0.1196  0.1010
    1W        W56266  17.190  24.782   9.100 -0.1198 -0.0916  0.0554
    1W        W56267   7.029   1.755   1.430  0.1726 -0.1815  0.1165
    1W        W56268   4.044  17.982   1.433  0.0912 -0.0947 -0.0496
    1W        W56269   6.279  13.803   2.273 -0.3167 -0.0140  0.0000
    1W        W56270  22.916  19.105   9.511 -0.3541 -0.0358 -0.1715
    1W        W56271  14.957  26.287   9.189 -0.1355  0.1465 -0.3088
    1W        W56272  11.115   0.633   1.609 -0.0308 -0.0456  0.0698
    1W        W56273  20.038  20.869   1.126 -0.0368  0.0644  0.1196
    1W        W56274   1.340  18.726   7.707 -0.0213 -0.2079  0.0183
    1W        W56275  20.625  21.103   7.496  0.1921 -0.2048 -0.0124
    1W        W56276  25.545  27.991   1.226  0.0246  0.2453 -0.0711
    1W        W56277  29.670  17.874   8.205 -0.2727  0.2868  0.3070
    1W        W56278  27.232  20.264   6.462  0.1491  0.2409  0.1975
    1W        W56279   1.581   2.842   1.799  0.2728  0.3993  0.0581
    1W        W56280  29.374  23.721   7.529 -0.3099 -0.0382  0.1165
    1W        W56281  17.101   7.304   7.681  0.0317 -0.0867 -0.1462
    1W        W56282  17.482   5.281   9.416  0.0476 -0.0030  0.1333
    1W        W56283   9.716   6.274   7.694 -0.1472 -0.3853  0.0001
    1W        W56284  26.611  15.311   6.647 -0.0787  0.0294  0.0565
    1W        W56285  13.795  23.809   2.168 -0.1360  0.3381 -0.4620
    1W        W56286  15.578   5.371   1.773 -0.1256 -0.1967  0.0952
    1W        W56287  24.000  24.651   7.924 -0.1147 -0.1624 -0.0337
    1W        W56288  23.353  14.258   1.010  0.2066  0.1282 -0.0007
    1W        W56289   7.555   2.443   0.471  0.0255  0.3608  0.0175
    1W        W56290  15.186  23.468   8.201  0.0611  0.0895  0.0209
    1W        W56291   7.026  19.749   7.111 -0.0559  0.1297 -0.0116
    1W        W56292   1.508   0.829   7.641  0.2563  0.1328 -0.2412
    1W        W56293  16.718   0.197   1.576  0.1295 -0.0305 -0.2417
    1W        W56294  29.678   8.000   2.302  0.3022  0.0499  0.1915
    1W        W56295  15.575  21.079   0.193 -0.1602  0.1964 -0.1547
    1W        W56296  20.094  11.951   1.217  0.2611  0.2320  0.0658
    1W        W56297   5.725  27.146   7.580  0.3150 -0.1233  0.0656
    1W        W56298  23.769   8.597   0.791 -0.3220  0.0337 -0.2350
    1W        W56299   7.271  16.092   8.154  0.2748  0.2022  0.0562
    1W        W56300   0.290  26.422   2.959 -0.1979  0.3056 -0.3457
    1W        W56301  25.883  16.367   6.083 -0.1307 -0.0840  0.0024
    1W        W56302  19.765  26.127   2.959  0.1470 -0.4773  0.2752
    1W        W56303  19.615   2.609   3.361 -0.2401 -0.0466  0.1010
    1W        W56304  17.700  23.007   7.658 -0.2541 -0.4375  0.6109
    1W        W56305  13.720  20.170   1.611 -0.1299  0.2664 -0.0037
    1W        W56306  23.039  24.266   7.035 -0.4370  0.1763  0.1513
    1W        W56307  22.541  21.969   1.146  0.0041  0.2558 -0.0180
    1W        W56308  11.453  16.336   1.191 -0.2643 -0.1008  0.1121
    1W        W56309  22.304  10.784   7.770  0.1645 -0.0119 -0.1600
    1W        W56310  25.734  14.863   6.530  0.4561 -0.2701 -0.1387
    1W        W56311  17.610  24.056   6.278 -0.0198  0.2835  0.1088
    1W        W56312   4.552  28.299   7.035  0.0835 -0.0603 -0.0988
    1W        W56313  20.803  19.611   9.008 -0.8039 -0.2123  0.0894
    1W        W56314  21.406  10.306   2.598 -0.1254 -0.0006 -0.0550
    1W        W56315  25.055  19.426   0.232  0.2105  0.1118  0.0100
    1W        W56316  21.379  10.295   0.392 -0.1744  0.0500  0.1065
    1W        W56317  12.686   0.236   3.344  0.1923  0.1437  0.0717
    1W        W56318  28.071   7.936   7.208 -0.1479  0.0835  0.0310
    1W        W56319   3.692  25.068   2.586 -0.3981  0.1241  0.0281
    1W        W56320  24.683   7.336   0.410 -0.2494  0.0775  0.0400
    1W        W56321   2.815  18.928   9.173 -0.3218  0.1150  0.0078
    1W        W56322  26.516  15.969   5.920  0.1494 -0.1033  0.2599
    1W        W56323   9.995  19.809   0.349 -0.1024  0.0340  0.1615
    1W        W56324   2.231  17.286   9.095  0.2216  0.2250 -0.0732
    1W        W56325  18.260   4.330   3.009  0.0444  0.2103 -0.0515
    1W        W56326  18.318   7.722   9.338 -0.1984 -0.3921  0.1856
    1W        W56327  24.330  19.846   9.309 -0.2287  0.0912  0.1558
    1W        W56328  11.405  11.962   8.693  0.1325 -0.1833 -0.3529
    1W        W56329   8.386  18.645   8.820  0.1689 -0.4669 -0.0697
    1W        W56330   9.139   1.842   1.875 -0.2275 -0.0519 -0.2402
    1W        W56331  11.529  20.329   7.180 -0.1275 -0.1994  0.3582
    1W        W56332   8.810  21.856   2.004 -0.0129 -0.1547  0.2072
    1W        W56333   9.878  27.115   2.749  0.1055  0.1616 -0.0610
    1W        W56334   3.207   1.367   0.785  0.0308 -0.2871  0.1087
    1W        W56335   9.469  13.159   8.068 -0.2781  0.1941 -0.1614
    1W        W56336  17.739  29.582   1.669 -0.0636 -0.1637  0.1228
    1W        W56337  26.252  10.607   8.836  0.0063  0.1028 -0.2224
    1W        W56338  13.985   7.093   3.272  0.1456  0.0230  0.2696
    1W        W56339  25.354   5.231   1.790 -0.0133  0.0131 -0.1455
    1W        W56340   5.279  22.812   0.587  0.0639  0.1201 -0.0780
    1W        W56341  24.196   8.384   2.821 -0.0367 -0.1826  0.1324
    1W        W56342   1.709  11.931   8.117 -0.0268  0.0564 -0.1779
    1W        W56343   7.642  24.293   0.422  0.0438  0.2572 -0.1227
    1W        W56344   6.177  28.738   7.188  0.0166  0.0843 -0.1009
    1W        W56345   7.590  28.389   2.129  0.1072 -0.0427  0.2364
    1W        W56346  11.394   0.058   7.076 -0.1779 -0.2001  0.1340
    1W        W56347  16.349   9.531   7.388 -0.0094  0.0691 -0.1986
    1W        W56348  28.326  27.489   7.729  0.1522 -0.3456 -0.0584
    1W        W56349  12.991  23.009   5.945 -0.2848 -0.1222  0.0450
    1W        W56350   6.655  18.064   9.121  0.5080 -0.2574  0.0852
    1W        W56351  24.534   8.720   2.368  0.2806  0.2512 -0.1035
    1W        W56352  27.654   4.249   7.805  0.2331 -0.2539 -0.2349
    1W        W56353  15.707  17.324   0.519 -0.1307  0.3995 -0.0701
    1W        W56354   1.282  24.373   7.554  0.1809  0.0360 -0.1703
    1W        W56355   9.002  26.029   1.342  0.0267  0.2066 -0.0313
    1W        W56356   8.902   9.023   9.180 -0.4132  0.0254  0.0405
    1W        W56357  20.354  24.655   9.409  0.1378  0.2797 -0.2028
    1W        W56358  18.482   6.188   7.839 -0.0200  0.0571  0.0686
    1W        W56359   5.855  19.855   1.995  0.1052 -0.0188  0.0411
    1W        W56360   8.218   3.147   0.474 -0.1401  0.0854  0.1290
    1W        W56361   6.401   2.595   3.500 -0.2549 -0.1753 -0.2475
    1W        W56362  14.684  20.980   0.492 -0.2216  0.0134 -0.1581
    1W        W56363   6.525  21.996   0.530 -0.1476  0.2314 -0.1195
    1W        W56364   2.365   3.271   7.134 -0.2650  0.1572 -0.0834
    1W        W56365  23.873   7.590   6.927  0.1304  0.2287  0.0919
    1W        W56366  12.647   3.813   0.563 -0.2264  0.1441 -0.0077
    1W        W56367  27.628  21.791   7.547  0.2388 -0.2028 -0.1857
    1W        W56368  11.317   8.040   2.240  0.2483  0.1237  0.2836
    1W        W56369  22.616  12.319   1.335 -0.0727  0.0941  0.1359
    1W        W56370  25.681  11.566   8.681 -0.2382 -0.2360  0.2233
    1W        W56371  14.451  10.010   1.570  0.3295 -0.2097 -0.2197
    1W        W56372  20.815  17.337   8.418 -0.0312  0.0686  0.1385
    1W        W56373   8.098   2.390   0.393 -0.0697  0.2863  0.0086
    1W        W56374  23.952  25.204   0.620  0.1037 -0.1396 -0.1268
    1W        W56375  18.348  11.686   5.654  0.2110 -0.1666 -0.2672
    1W        W56376  11.834   0.005   1.120  0.1911  0.2606  0.0893
    1W        W56377  12.033   1.096   7.775 -0.0764  0.2349  0.0855
    1W        W56378  21.787  14.582   6.483 -0.1640  0.0305  0.1134
    1W        W56379   9.803   5.300   6.834  0.0301 -0.2694 -0.0521
    1W        W56380  28.258  13.605   8.651  0.3842  0.1949 -0.0496
    1W        W56381  25.228   2.355   3.343 -0.2642 -0.0542 -0.0867
    1W        W56382  14.538   5.723   0.450 -0.2456  0.1276 -0.0084
    1W        W56383   8.283   6.201   0.318  0.2928  0.0876 -0.2630
    1W        W56384  17.322  25.759   7.046  0.1443  0.1387  0.2555
    1W        W56385  20.953  16.645   0.960 -0.0046  0.0241  0.2889
    1W        W56386  23.171  12.724   7.620  0.0037  0.0991 -0.0407
    1W        W56387  24.645  14.318   6.410 -0.0456  0.1579  0.2194
    1W        W56388  24.195  16.280   9.455 -0.0817  0.0217  0.0344
    1W        W56389   2.291  29.549   7.556 -0.0052  0.1125  0.3516
    1W        W56390   0.075   0.117   8.769  0.0548 -0.0121  0.4010
    1W        W56391   4.665  26.034   2.469 -0.1119 -0.0890  0.0576
    1W        W56392   1.462  17.946   7.148  0.2169 -0.0167 -0.1368
    1W        W56393  14.065   2.225   0.154 -0.2289 -0.1515  0.0377
    1W        W56394  12.514  26.368   6.035  0.0482  0.1123  0.1168
    1W        W56395  16.942   6.083   3.565 -0.0086  0.0479  0.1356
    1W        W56396  15.707   9.873   2.972 -0.0951 -0.1849 -0.0641
    1W        W56397   7.472  20.962   6.573  0.1057 -0.2579 -0.1021
    1W        W56398  25.237  23.772   8.349 -0.0958 -0.1028 -0.0555
    1W        W56399  15.307   1.472   7.834 -0.1679  0.1254  0.0761
    1W        W56400  11.395   1.065   3.396 -0.1975  0.1692  0.4571
    1W        W56401   1.439  15.533   1.981 -0.0804  0.0137 -0.3725
    1W        W56402  26.617   0.836   2.736 -0.1864  0.0759 -0.2144
    1W        W56403  20.944  19.332   7.484 -0.4876 -0.1025  0.0705
    1W        W56404  11.824   1.479   8.071 -0.1396 -0.1894 -0.1479
    1W        W56405  10.188   5.657   0.021 -0.0462 -0.2158  0.0829
    1W        W56406   3.058  27.630   8.305 -0.1656 -0.0704 -0.0856
    1W        W56407  25.443  28.938   1.907 -0.2481  0.1280 -0.1437
    1W        W56408   2.091   2.235   8.424 -0.0997  0.3508 -0.1100
    1W        W56409   3.043   2.625   2.168  0.0849  0.3921 -0.4209
    1W        W56410   0.836  12.271   8.278  0.0437  0.1001  0.0409
    1W        W56411  10.431   4.513   8.700  0.1175  0.2472 -0.0979
    1W        W56412  10.359  14.231   2.793 -0.1312 -0.4237  0.2586
    1W        W56413   5.318  22.445   7.438 -0.1228 -0.1146  0.0357
    1W        W56414  19.203  17.147   7.694 -0.2197 -0.0136  0.4358
    1W        W56415  15.205  19.348   1.927 -0.0968 -0.1101  0.0754
    1W        W56416  10.953  10.235   8.148  0.0446  0.1301  0.3888
    1W        W56417   0.586   9.692   1.041  0.1866  0.0424 -0.0352
    1W        W56418  15.403  22.891   6.610  0.0117 -0.3324  0.0032
    1W        W56419   3.318  12.038   9.330 -0.1095  0.2944  0.2919
    1W        W56420   0.026  15.814   6.920 -0.0009 -0.2784 -0.0775
    1W        W56421  19.292  18.704   7.916  0.2135 -0.0120  0.0809
    1W        W56422  21.874  21.695   6.386 -0.0328  0.0692  0.0765
    1W        W56423  27.048   3.720   0.841 -0.0228 -0.0072  0.0402
    1W        W56424  24.709   0.827   3.480  0.0142 -0.2030 -0.0807
    1W        W56425  25.170  13.419   6.521 -0.2147  0.0928 -0.0119
    1W        W56426  29.705  16.844   1.156  0.0455 -0.1154 -0.1154
    1W        W56427  10.148   3.058   8.591  0.2219 -0.0532  0.1763
    1W        W56428   2.794  23.711   7.633  0.0489  0.0314  0.0443
    1W        W56429  20.624   6.896   7.880  0.2227 -0.1132 -0.0811
    1W        W56430   6.766  25.194   7.157  0.3061  0.1045 -0.2468
    1W        W56431  13.484  26.868   8.578 -0.0562  0.2259  0.0233
    1W        W56432   3.534  27.207   0.143 -0.3172 -0.1843 -0.1523
    1W        W56433  17.061  28.403   3.218 -0.0961 -0.1981  0.5019
    1W        W56434  14.741  15.489   8.245 -0.1787  0.2017 -0.1972
    1W        W56435  23.336  21.141   0.284  0.1892 -0.1590 -0.1036
    1W        W56436   7.828   6.360   2.122  0.1551  0.1070 -0.0270
    1W        W56437  19.682  16.174   2.848  0.0376 -0.0262 -0.0414
    1W        W56438  17.384  18.721   9.185 -0.0515 -0.1946 -0.1988
    1W        W56439  11.136  23.432   0.970 -0.2972 -0.1378  0.1102
    1W        W56440   5.104  22.782   9.415 -0.0610  0.1149  0.2664
    1W        W56441   9.817   9.095   0.868  0.2297 -0.3359 -0.3668
    1W        W56442   1.797  24.758   9.480 -0.0887  0.2069 -0.1965
    1W        W56443  15.192   1.210   8.829 -0.1472 -0.2118 -0.2881
    1W        W56444   9.491   1.137   8.932  0.1120 -0.1454 -0.3484
    1W        W56445  27.876  29.684   8.342  0.0445 -0.0710  0.0046
    1W        W56446  17.434  21.312   2.268  0.4355 -0.1262 -0.0738
    1W        W56447  29.105  15.770   7.751  0.1639  0.0415 -0.0385
    1W        W56448  22.743  13.344   8.267 -0.1426 -0.1045 -0.1147
    1W        W56449  23.997  28.276   2.627  0.0097 -0.2483 -0.1781
    1W        W56450   3.329  23.710   8.797 -0.1783 -0.1618 -0.2712
    1W        W56451   0.207  19.150   8.085  0.0976  0.0809 -0.0655
    1W        W56452  21.905   9.191   2.654 -0.2853 -0.0687  0.0570
    1W        W56453   0.464  21.521   7.436  0.0143 -0.1472  0.3489
    1W        W56454  16.657   2.627   0.070 -0.0316 -0.0365  0.1281
    1W        W56455   6.080  10.761   2.447  0.1698  0.0387  0.0479
    1W        W56456  16.247   7.220   9.346  0.1346 -0.2189  0.0102
    1W        W56457  10.307  23.317   7.394  0.0266 -0.2038 -0.0250
    1W        W56458  21.804  22.584   6.369  0.1576 -0.1591 -0.2349
    1W        W56459  27.680   9.932   2.577 -0.0278  0.1331 -0.1467
    1W        W56460  13.286   5.025   9.358 -0.2629 -0.1099 -0.1203
    1W        W56461  28.729  23.088   7.350 -0.2492  0.2534  0.1064
    1W        W56462  27.090  29.493   3.061 -0.1259 -0.1807 -0.1775
    1W        W56463  21.773   1.625   1.706  0.0676 -0.1754 -0.1369
    1W        W56464  10.488  10.360   2.622  0.2468  0.2236 -0.0753
    1W        W56465  13.801   0.399   7.336  0.1948 -0.4151 -0.0571
    1W        W56466  16.255  15.242   7.674 -0.2598 -0.0592  0.2008
    1W        W56467  21.878  26.930   7.961  0.1489  0.4340 -0.1151
    1W        W56468  12.682  18.045   8.448  0.3244  0.1093 -0.1709
    1W        W56469   9.439  25.221   2.106 -0.2620  0.1364 -0.2606
    1W        W56470  28.966  23.677   7.285 -0.0603 -0.0851  0.0057
    1W        W56471  26.416  22.283   7.915 -0.1533 -0.2138  0.1737
    1W        W56472   8.529  21.561   1.637  0.0211  0.1919  0.4936
    1W        W56473  29.228  19.499   8.953  0.1132  0.1202  0.0706
    1W        W56474   5.482  25.994   0.923  0.1916 -0.0718 -0.1062
    1W        W56475  27.465  23.477   9.543  0.0581  0.0432 -0.3042
    1W        W56476  15.133   8.511   3.245 -0.1872  0.0058  0.1729
    1W        W56477  16.556  20.249   1.553  0.1415  0.1739  0.2745
    1W        W56478   2.757  27.929   2.709  0.1229 -0.0658 -0.0753
    1W        W56479  17.317   3.294   0.742 -0.3803 -0.1214 -0.1071
    1W        W56480  18.386  15.303   1.584 -0.1360  0.0465 -0.1881
    1W        W56481  13.454  18.942   1.997  0.1341 -0.0588  0.3812
    1W        W56482  14.395   0.004   1.034  0.2751 -0.1371  0.1340
    1W        W56483   8.754   0.734   2.412  0.2689 -0.1830  0.2218
    1W        W56484   3.131   3.144   7.168 -0.2254  0.1231 -0.0666
    1W        W56485  13.824   5.979   9.549  0.1095  0.0409  0.0679
    1W        W56486  22.132  23.018   8.404  0.0354 -0.0696  0.4204
    1W        W56487  28.677  23.143   0.416 -0.1556  0.3132 -0.0176
    1W        W56488  24.556  24.185   6.309  0.2948 -0.2500 -0.2943
    1W        W56489   0.697   9.397   8.200 -0.0419 -0.1983 -0.5305
    1W        W56490   5.640   6.312   3.073  0.1260  0.3083 -0.2902
    1W        W56491  13.132   7.483   1.708  0.0723 -0.4004  0.0667
    1W        W56492   5.095   8.320   1.060  0.0519 -0.2186  0.4829
    1W        W56493   5.893   3.371   3.224 -0.0895 -0.1159  0.1424
    1W        W56494   5.234   9.082   8.322 -0.2264 -0.4549  0.0050
    1W        W56495  28.206   6.423   8.101  0.0802 -0.1737 -0.0448
    1W        W56496  15.569  23.141   1.612  0.1616  0.0859  0.1454
    1W        W56497  11.703  23.588   1.598 -0.1320  0.2090  0.0990
    1W        W56498  14.257  16.041   6.680 -0.1608 -0.2689 -0.0567
    1W        W56499   9.950   4.246   7.321 -0.1998 -0.0478  0.1146
    1W        W56500  24.896  21.655   0.381  0.0243 -0.2558  0.1944
    1W        W56501   7.048  14.073   9.039 -0.3372  0.0232 -0.2488
    1W        W56502   5.256   2.022   8.659 -0.1915 -0.0011 -0.0126
    1W        W56503   3.019  17.848   9.086  0.0361 -0.1525  0.0768
    1W        W56504  10.289  21.737   0.991 -0.0524  0.1270 -0.2898
    1W        W56505   4.762  26.639   8.187  0.0592  0.2446 -0.0911
    1W        W56506  23.284   5.249   3.252 -0.2651  0.1175  0.0539
    1W        W56507  11.126  21.799   0.088 -0.2184 -0.2492 -0.1075
    1W        W56508  12.607  16.249   6.837 -0.1444 -0.0513  0.2606
    1W        W56509   5.542  16.912   2.098  0.1004  0.2269  0.0536
    1W        W56510   7.995   5.421   9.213 -0.1112 -0.2831  0.1712
    1W        W56511  29.368  17.186   1.326  0.4871  0.1117  0.0560
    1W        W56512   0.531  17.125   0.334  0.1962 -0.1148  0.3227
    1W        W56513  23.740  28.449   1.065 -0.1985 -0.1384 -0.3559
    1W        W56514  20.897  20.422   9.170  0.1192 -0.0321 -0.1979
    1W        W56515   6.931   0.397   8.254 -0.1410  0.2162 -0.1002
    1W        W56516   6.530  17.586   0.043 -0.0328  0.2306 -0.1238
    1W        W56517  18.974  28.732   1.606 -0.2269 -0.2453  0.1067
    1W        W56518  27.819  18.372   6.652  0.3059 -0.1091  0.2172
    1W        W56519  25.024  12.535   9.177 -0.0928 -0.0503  0.1659
    1W        W56520  24.046  27.473   2.185  0.1742 -0.0278 -0.2730
    1W        W56521   7.204   2.535   8.310  0.2968  0.3009 -0.1965
    1W        W56522  17.427  25.202   0.951 -0.0184  0.0881 -0.1258
    1W        W56523  14.188  26.595   2.096 -0.2049  0.2986  0.0768
    1W        W56524   7.400  20.326   0.839 -0.1767  0.0905 -0.1532
    1W        W56525  19.565   2.843   0.458 -0.2201 -0.1675  0.0357
    1W        W56526  20.353   1.973   2.264 -0.3818  0.0857  0.0574
    1W        W56527  13.858   7.918   7.170  0.0806  0.1539 -0.0546
    1W        W56528   8.530  12.265   7.422 -0.0325 -0.2408 -0.3690
    1W        W56529  23.988  11.842   8.527 -0.0226 -0.0798 -0.0745
    1W        W56530  10.830   6.284   1.430 -0.0156 -0.2761  0.1793
    1W        W56531   2.216  10.468   2.060  0.1186  0.0576  0.1553
    1W        W56532   6.184   9.912   1.047 -0.0930 -0.0719 -0.4024
    1W        W56533  16.177   3.590   7.118 -0.2404 -0.0968 -0.0650
    1W        W56534  19.842   5.246   0.816  0.2817 -0.1701 -0.0259
    1W        W56535  12.857  10.279   0.023  0.1571 -0.1524  0.0428
    1W        W56536  19.777  19.904   2.195  0.3961 -0.2081 -0.0501
    1W        W56537   6.059  17.600   7.994 -0.0191 -0.0570 -0.2162
    1W        W56538   3.842  16.302   2.362  0.0784  0.0106 -0.1174
    1W        W56539  19.610   3.523   0.997 -0.1180  0.1629  0.4584
    1W        W56540  20.014  23.724   1.990 -0.5226 -0.1857 -0.0706
    1W        W56541  23.486   4.648   8.718  0.0465  0.1551 -0.1602
    1W        W56542   2.841  15.595   6.814  0.0554 -0.1408 -0.1018
    1W        W56543  15.468  21.707   1.458  0.2118  0.0718 -0.3661
    1W        W56544   9.635   8.211   7.651  0.2193 -0.3218 -0.2264
    1W        W56545  11.376  29.262   0.436 -0.1311 -0.0849 -0.1244
    1W        W56546   3.916   9.296   2.766 -0.0135 -0.1501 -0.0323
    1W        W56547  18.298   7.711   2.201  0.2956 -0.2958 -0.0274
    1W        W56548   9.723   1.993   2.760 -0.3471  0.0013 -0.1251
    1W        W56549  10.094   8.965   7.259  0.1212 -0.0509 -0.0369
    1W        W56550  15.918  21.028   6.380 -0.0533 -0.1163 -0.0177
    1W        W56551   8.276  12.155   0.237 -0.1000  0.0375 -0.1029
    1W        W56552   6.597  11.516   6.948 -0.0873 -0.0127 -0.2523
    1W        W56553  21.240  28.870   8.888  0.2731 -0.1715 -0.1642
    1W        W56554  19.465  10.400   2.132 -0.2136  0.1148  0.1283
    1W        W56555  12.271  22.346   1.506 -0.0276  0.1779  0.0775
    1W        W56556  17.927   2.864   7.089  0.2561  0.1032  0.2021
    1W        W56557   8.764  26.015   8.908  0.0840  0.0388  0.2512
    1W        W56558   6.857  23.840   8.487  0.2622  0.0493 -0.0849
    1W        W56559   4.796   0.276   8.226  0.0132 -0.1032 -0.0266
    1W        W56560  17.157  14.540   6.447 -0.0766  0.1628 -0.0372
    1W        W56561  23.199  20.453   9.431 -0.1307  0.2166 -0.0639
    1W        W56562   1.804  17.547   7.223  0.0725 -0.0957 -0.1207
    1W        W56563  28.700  28.017   0.927 -0.0619  0.1933  0.0328
    1W        W56564   2.700  27.614   9.491 -0.1047  0.0339  0.3314
    1W        W56565  27.372   9.075   2.051 -0.0173  0.3237 -0.3809
    1W        W56566  29.339   8.396   7.233  0.3099 -0.1982  0.0326
    1W        W56567   4.845  22.886   0.306 -0.0293 -0.5005 -0.2082
    1W        W56568  21.351  21.550   8.744 -0.0728  0.3034  0.0962
    1W        W56569   6.924   8.070   1.798  0.0030 -0.0529  0.2617
    1W        W56570  14.833   5.882   9.061  0.1703 -0.0174 -0.0108
    1W        W56571  18.535  11.970   6.403  0.2400  0.0642  0.0689
    1W        W56572   4.590  26.488   6.522  0.1182  0.2522 -0.4708
    1W        W56573  12.242  25.042   0.692  0.0886 -0.1710  0.1354
    1W        W56574   8.600  16.067   0.114  0.0333  0.0030 -0.2315
    1W        W56575   5.018  25.464   0.439 -0.0325 -0.0881  0.3735
    1W        W56576   9.024  24.681   0.325  0.1103  0.2241 -0.1008
    1W        W56577  16.502   2.512   1.853 -0.1096  0.2670  0.0828
    1W        W56578   1.949   3.030   2.107  0.2534  0.1317  0.2807
    1W        W56579  24.364  27.319   3.480  0.0064  0.1321 -0.1763
    1W        W56580   1.778  21.691   7.908  0.1747 -0.1138  0.1071
    1W        W56581   8.331   8.555   7.091 -0.2588  0.0743 -0.2610
    1W        W56582  10.663  14.745   8.299  0.1334 -0.1947 -0.1465
    1W        W56583   3.082  25.735   0.017  0.0585  0.2315  0.0462
    1W        W56584   1.108  28.107   2.053 -0.3425 -0.2663 -0.0214
    1W        W56585  26.679  25.222   1.151  0.2420  0.2761  0.2508
    1W        W56586   7.810   3.042   3.207 -0.0276 -0.3249 -0.0346
    1W        W56587  19.571  19.501   6.454  0.1527 -0.2030 -0.1140
    1W        W56588  15.550  17.529   2.173  0.0303  0.3008 -0.0642
    1W        W56589   5.410  27.798   8.217 -0.0026  0.2604  0.0762
    1W        W56590  12.949  19.635   7.610 -0.0739 -0.1378  0.0193
    1W        W56591  16.849  21.786   9.418  0.0235 -0.1706  0.0797
    1W        W56592  13.526  15.502   7.780  0.2268 -0.1342  0.0004
    1W        W56593  29.275  13.268   8.126  0.0622 -0.1437 -0.1959
    1W        W56594   7.285   9.321   2.303 -0.0214 -0.1198 -0.4672
    1W        W56595  23.073  27.809   9.530  0.0305 -0.4026  0.0415
    1W        W56596   1.869  19.426   2.004  0.0224 -0.3097  0.1417
    1W        W56597   9.606   9.245   7.616 -0.2234 -0.3181  0.1307
    1W        W56598  10.903  29.257   0.275  0.0637  0.1342  0.0983
    1W        W56599  18.515   8.643   8.612 -0.2795 -0.4873  0.1184
    1W        W56600  17.131   1.147   1.749  0.2785  0.2031 -0.2787
    1W        W56601  28.523   7.849   1.082  0.0543  0.1532 -0.3921
    1W        W56602   4.336  19.545   8.139  0.1471 -0.0279 -0.1992
    1W        W56603  21.460  19.260   1.513  0.0871 -0.1697  0.0558
    1W        W56604   1.780  15.163   7.382  0.0237 -0.3077 -0.2009
    1W        W56605   0.305   4.013   7.284  0.1534 -0.1922  0.1266
    1W        W56606  25.490  24.070   7.992 -0.1595  0.1324  0.1144
    1W        W56607  24.196   2.797   8.029  0.2627  0.1720 -0.0644
    1W        W56608  19.484  26.020   0.635  0.0032  0.0924  0.3392
    1W        W56609  18.054  20.736   7.921 -0.0947 -0.0592 -0.0778
    1W        W56610   9.027  24.484   1.486 -0.1086 -0.1369 -0.1150
    1W        W56611  27.257  23.130   7.253 -0.0809  0.2705 -0.0627
    1W        W56612  16.937   4.765   2.751  0.1305  0.1627 -0.0203
    1W        W56613  29.734  15.938   8.630  0.2904  0.0594  0.2949
    1W        W56614  17.239   7.450   2.580  0.2884 -0.2396  0.0866
    1W        W56615   9.833   4.437   0.617 -0.1569  0.1651  0.2661
    1W        W56616  24.785   4.359   6.733 -0.0299 -0.1199  0.0089
    1W        W56617  14.984  26.363   1.633 -0.0413  0.0312  0.1924
    1W        W56618   1.203  13.420   1.986  0.1054 -0.0777  0.2358
    1W        W56619   0.918  17.527   8.294 -0.1548  0.2702  0.0086
    1W        W56620  26.124  10.218   7.833 -0.2565 -0.0423 -0.0630
    1W        W56621  14.349  28.587   0.569 -0.1994  0.2862  0.2293
    1W        W56622   2.709  15.298   1.689 -0.2073 -0.1780 -0.0390
    1W        W56623  28.361  13.415   9.363  0.2300 -0.0634 -0.3132
    1W        W56624  16.244  29.166   2.625 -0.0178  0.4156  0.1698
    1W        W56625   8.639  23.939   2.367  0.1336  0.0819 -0.0552
    1W        W56626   2.876   8.748   0.022  0.2228  0.0683 -0.0323
    1W        W56627  12.413   0.938   2.716 -0.0719  0.1100 -0.0196
    1W        W56628   7.121  25.104   0.586  0.1399  0.0268 -0.2214
    1W        W56629  26.099   4.194   0.144  0.1217 -0.0969  0.4324
    1W        W56630   6.539   9.496   7.476  0.1673  0.0855 -0.2755
    1W        W56631   9.122   3.963   8.355  0.1661  0.1884 -0.1229
    1W        W56632  26.406   0.855   1.415 -0.1640  0.3165 -0.0166
    1W        W56633  23.195  19.787   7.863 -0.0897  0.0926 -0.0286
    1W        W56634  27.418   6.491   9.223  0.3583  0.0622  0.2296
    1W        W56635  27.382   7.814   7.378 -0.3092  0.0392  0.0478
    1W        W56636   9.620  14.910   0.857  0.0939 -0.0890  0.0113
    1W        W56637  11.408  29.623   8.315 -0.1179  0.1855 -0.4364
    1W        W56638  23.237   7.046   3.721 -0.1566 -0.1199  0.1360
    1W        W56639  25.918  18.847   6.701 -0.3649 -0.0877 -0.0563
    1W        W56640   3.380  17.128   8.467  0.0702 -0.3329 -0.3468
    1W        W56641  29.401  26.671   0.403  0.1977 -0.1806  0.1006
    1W        W56642  11.786  21.576   9.068 -0.2733  0.1214 -0.3619
    1W        W56643   5.952  26.083   0.583  0.0280  0.0968 -0.0598
    1W        W56644  21.070  25.734   0.851  0.3595  0.0655  0.5112
    1W        W56645  25.987  24.474   8.139 -0.1134  0.0615 -0.2467
    1W        W56646  28.489   9.393   0.863 -0.2006 -0.3977  0.0908
    1W        W56647  10.091  21.208   6.634  0.2147 -0.1282  0.2088
    1W        W56648  23.297   8.547   2.268 -0.0052  0.0047 -0.1940
    1W        W56649   3.983   1.882   1.345 -0.0661 -0.0379  0.0066
    1W        W56650  13.639  22.432   7.598  0.0098  0.0648  0.0484
    1W        W56651  25.053   7.667   0.999  0.0630  0.2950  0.0073
    1W        W56652   5.941   1.673   8.212  0.3081 -0.1564 -0.0375
    1W        W56653  24.122   4.888   2.241 -0.1911 -0.1295 -0.0977
    1W        W56654  20.734  29.595   0.885 -0.2633  0.1656  0.1476
    1W        W56655  11.335  27.990   7.815 -0.1731  0.2131 -0.2367
    1W        W56656   2.772  29.154   7.539  0.2522  0.2843  0.2602
    1W        W56657  24.502   5.180   1.982 -0.1343  0.2892 -0.0382
    1W        W56658   8.548  22.678   0.659 -0.0139  0.0847 -0.0925
    1W        W56659  14.919  26.409   2.429  0.0063  0.2406  0.0044
    1W        W56660  13.421  26.771   7.611 -0.0492 -0.0560 -0.2155
    1W        W56661   2.867  26.215   1.674  0.1059  0.2068 -0.1356
    1W        W56662  24.755  10.281   8.590  0.1700  0.2893 -0.2059
    1W        W56663  26.788   4.338   9.113 -0.3456 -0.2750  0.0198
    1W        W56664  13.515   7.120   7.331  0.0952 -0.0511  0.1874
    1W        W56665   1.529   4.270   2.262 -0.0117  0.2954 -0.2960
    1W        W56666   1.898   6.953   9.134  0.1065 -0.0032  0.2210
    1W        W56667  12.033   3.102   0.274  0.2660  0.0440 -0.5112
    1W        W56668  14.516  21.217   9.003 -0.3160  0.3861 -0.1732
    1W        W56669  28.986  21.736   1.412 -0.0776  0.2002  0.0125
    1W        W56670  14.294  29.078   0.062  0.2753  0.1199  0.4134
    1W        W56671  17.846  23.733   0.937 -0.1057  0.1145  0.0267
    1W        W56672  28.957  15.901   0.947  0.1836  0.1602 -0.3133
    1W        W56673  22.929  27.204   0.499 -0.0155  0.0305  0.2500
    1W        W56674  24.758  21.045   6.525 -0.0350  0.1647 -0.1351
    1W        W56675  23.182   1.243   0.465 -0.0009 -0.0111 -0.1220
    1W        W56676  25.454  29.446   7.421  0.2644  0.2329 -0.3082
    1W        W56677  23.212  27.976   7.694 -0.1680  0.0747  0.1015
    1W        W56678   0.890  27.237   1.306 -0.0403 -0.0562  0.0371
    1W        W56679   8.817  28.436   8.768  0.0811 -0.1551  0.4480
    1W        W56680   4.038  11.673   7.339  0.1534 -0.2086  0.2128
    1W        W56681  10.287   3.810   3.276 -0.0716 -0.0356  0.2209
    1W        W56682  20.154  12.257   7.516  0.0856  0.0349  0.2353
    1W        W56683  10.112   3.674   8.691 -0.3690 -0.0140 -0.1563
    1W        W56684  20.182  23.462   9.211  0.4249 -0.1233 -0.0135
    1W        W56685  14.750  29.573   6.487 -0.1356  0.4317  0.0199
    1W        W56686  11.057  23.234   8.488 -0.0039 -0.1655  0.0517
    1W        W56687  22.383  14.735   0.790  0.2775  0.2765 -0.2645
    1W        W56688  10.989  22.096   7.399 -0.0955  0.0745 -0.1826
    1W        W56689   4.598  22.368   7.829  0.4075  0.0965 -0.3797
    1W        W56690  13.329  13.714   7.794 -0.2123 -0.1303 -0.1112
    1W        W56691   2.981   1.935   8.175  0.2095  0.0332  0.1981
    1W        W56692  11.001  18.218   7.744 -0.2761  0.0922  0.2875
    1W        W56693  17.093  13.639   7.939  0.0173  0.0137  0.0882
    1W        W56694  28.368   5.365   1.580 -0.0785 -0.0920 -0.0152
    1W        W56695  22.401   5.334   8.108 -0.2099 -0.0083  0.0650
    1W        W56696   4.167  22.109   1.693 -0.1678 -0.1344  0.2768
    1W        W56697  12.556   3.357   2.515 -0.0534  0.0262  0.0633
    1W        W56698   1.477  25.245   0.546  0.0924 -0.0066 -0.0884
    1W        W56699  27.496   4.682   7.469 -0.0627  0.1470 -0.5594
    1W        W56700   7.313  13.801   9.441 -0.0279  0.1531 -0.1682
    1W        W56701   2.064  29.537   1.036  0.1259 -0.0738 -0.0083
    1W        W56702  21.830  26.484   2.316  0.0870  0.0730 -0.1897
    1W        W56703  18.349   5.650   8.228  0.0788 -0.1204 -0.2045
    1W        W56704  13.610  16.105   0.227  0.1774 -0.1838 -0.2612
    1W        W56705   5.659  22.656   8.610 -0.1266  0.3477 -0.0841
    1W        W56706  23.194  15.436   7.591 -0.0097  0.0541 -0.0666
    1W        W56707   2.313   1.965   6.806 -0.2194  0.2101  0.2186
    1W        W56708   7.196  23.851   8.028 -0.1504  0.1674  0.1816
    1W        W56709   1.182   8.797   8.932  0.0994 -0.0793 -0.1236
    1W        W56710  10.602   0.417   2.613 -0.0348  0.2426 -0.2200
    1W        W56711  12.056  17.854   9.153  0.1435  0.2928 -0.0190
    1W        W56712  19.747   7.594   1.831 -0.0476  0.1215 -0.4209
    1W        W56713  16.088   5.194   0.668  0.3221 -0.1915  0.0686
    1W        W56714  15.349   3.937   1.237  0.1167  0.1012  0.2928
    1W        W56715   7.244  24.486   2.041  0.0296 -0.0022  0.1390
    1W        W56716  13.656  24.584   8.156 -0.2124  0.0653 -0.0270
    1W        W56717  20.948  18.516   1.036  0.1709  0.1978 -0.0620
    1W        W56718  20.145   5.634   1.039  0.0251  0.0432  0.0044
    1W        W56719  15.142  24.654   1.981  0.0660 -0.0265  0.1365
    1W        W56720   8.861  19.202   7.293 -0.2051  0.1962 -0.3000
    1W        W56721  15.489  22.771   9.001 -0.0719 -0.3552  0.1099
    1W        W56722  10.556   7.735   8.147  0.0874  0.3521  0.1922
    1W        W56723  25.459  10.619   6.227 -0.7180 -0.1765  0.0224
    1W        W56724  23.255   9.482   7.554  0.0077 -0.0544  0.4345
    1W        W56725  26.926  18.628   0.077 -0.1504 -0.1374  0.0502
    1W        W56726  25.249  29.724   1.802  0.1674  0.0885  0.2023
    1W        W56727  19.789  15.084   7.860  0.0155  0.3518 -0.1110
    1W        W56728  12.988  15.627   0.623 -0.0273  0.3919 -0.1182
    1W        W56729  14.486   0.627   0.656  0.1457  0.0402  0.2737
    1W        W56730  12.648   8.842   1.280  0.0548  0.0167  0.1973
    1W        W56731  20.469  24.018   2.067  0.3799 -0.1886 -0.1440
    1W        W56732  27.204  29.098   7.907 -0.0762 -0.2098 -0.3439
    1W        W56733  12.929  24.650   7.488  0.1082  0.2011  0.3698
    1W        W56734  27.743   6.880   1.123  0.2106  0.2399  0.2172
    1W        W56735  20.321  19.915   1.904 -0.1136 -0.0077  0.1704
    1W        W56736  14.210   1.868   2.113 -0.2428 -0.3809  0.3602
    1W        W56737  29.766   5.915   9.167 -0.3493 -0.0192 -0.0321
    1W        W56738  16.976  14.970   2.682  0.2315 -0.0326 -0.1851
    1W        W56739   7.372  17.111   9.529  0.2458  0.2626  0.1026
    1W        W56740   5.231  23.714   7.715 -0.0369 -0.5461  0.0682
    1W        W56741  26.669  13.371   1.425  0.1284  0.0340 -0.0768
    1W        W56742   9.366  16.074   2.601  0.0931 -0.2177  0.0673
    1W        W56743  20.337  11.256   2.054 -0.2013  0.2203 -0.0116
    1W        W56744   8.916  25.543   7.615  0.2689  0.0808 -0.1492
    1W        W56745  26.681  24.980   1.611  0.0592 -0.3513 -0.1044
    1W        W56746  15.876  28.222   7.553 -0.2679 -0.2627  0.1270
    1W        W56747   4.258  10.971   0.545 -0.1448  0.1782 -0.0064
    1W        W56748   6.899  13.680   7.885 -0.1852  0.0924 -0.2305
    1W        W56749  24.646   6.882   8.690  0.0310 -0.3253  0.2188
    1W        W56750  28.897  12.288   0.083  0.0364  0.1514  0.0527
    1W        W56751   6.243  29.390   9.547  0.5941  0.5047  0.3423
    1W        W56752  21.001   0.234   2.955 -0.4628 -0.2836  0.0655
    1W        W56753   7.569   4.275   3.043 -0.1138  0.2539 -0.0345
    1W        W56754  15.489  24.781   8.417 -0.1494  0.1484  0.1373
    1W        W56755  19.298   2.999   0.877  0.0991 -0.0924  0.1262
    1W        W56756  14.193   0.713   2.497  0.2402 -0.1735 -0.0362
    1W        W56757  13.116  27.910   9.324  0.1341  0.0837 -0.2200
    1W        W56758  19.082   8.267   2.609 -0.1793  0.0923 -0.2667
    1W        W56759  27.858  10.421   0.470  0.0995  0.1756  0.0784
    1W        W56760  15.186   3.484   1.350 -0.0639 -0.2926  0.1753
    1W        W56761   9.788  16.714   2.127  0.0904 -0.1206 -0.0615
    1W        W56762  10.045  19.620   8.615  0.0966 -0.1330 -0.1827
    1W        W56763  11.600  29.175   2.535  0.1136  0.1417  0.0839
    1W        W56764  27.557  27.209   2.892  0.5266  0.2219  0.0190
    1W        W56765   3.757  16.012   9.447  0.0839  0.1845 -0.0766
    1W        W56766  19.501   8.028   2.484 -0.2380 -0.1083 -0.0874
    1W        W56767   7.804  13.071   1.038 -0.3889 -0.1855 -0.0558
    1W        W56768  24.927  13.853   8.460  0.2829 -0.0497  0.3947
    1W        W56769  18.949  23.092   1.294 -0.1318  0.0572  0.0738
    1W        W56770   1.942  25.677   7.737  0.0311 -0.0177 -0.3072
    1W        W56771   0.405   2.302   1.423  0.1485  0.1354 -0.4310
    1W        W56772  22.439  11.767   7.745  0.2909  0.1382 -0.4344
    1W        W56773  20.261  21.767   8.034 -0.0736 -0.1138  0.0452
    1W        W56774  29.588   3.317   9.242 -0.1396 -0.1387 -0.3964
    1W        W56775  12.609   9.982   0.353 -0.1404  0.1044 -0.2017
    1W        W56776  21.799  29.569   3.459 -0.0304  0.0708 -0.0958
    1W        W56777  24.784  13.865   0.193 -0.2003  0.2571  0.1708
    1W        W56778  25.476  20.619   9.339 -0.2923 -0.1382 -0.0296
    1W        W56779  23.818   7.496   8.793  0.2561  0.0892  0.2135
    1W        W56780  15.641  25.353   1.063  0.1535  0.2050  0.2699
    1W        W56781  21.242  17.708   8.271 -0.1223  0.1619 -0.1973
    1W        W56782  13.124  18.954   7.809 -0.1802 -0.0371 -0.0788
    1W        W56783  26.153  14.376   0.306 -0.2675 -0.1728 -0.2080
    1W        W56784   0.578  20.132   9.228 -0.0603  0.2116  0.3050
    1W        W56785  26.536  24.463   8.844  0.1529 -0.1457 -0.3407
    1W        W56786  18.453   1.158   8.324 -0.2945 -0.0683 -0.1390
    1W        W56787   7.651  14.587   2.171 -0.0819  0.3438 -0.1314
    1W        W56788   5.356   5.759   0.569 -0.1365 -0.1637 -0.1642
    1W        W56789   6.361  24.367   8.110 -0.0969  0.1133  0.2145
    1W        W56790  20.982   7.354   8.020  0.1644  0.2391  0.3917
    1W        W56791   0.783  20.999   0.219 -0.1119  0.2252 -0.0244
    1W        W56792  21.325   0.548   2.595 -0.0265  0.2879  0.0127
    1W        W56793  25.472  28.920   7.623  0.0229  0.1963  0.0456
    1W        W56794   0.185  10.367   7.435 -0.0406  0.0087 -0.0565
    1W        W56795  27.397  18.315   9.179  0.0924  0.0490 -0.0739
    1W        W56796  16.413  27.363   6.594  0.3223 -0.4312  0.2245
    1W        W56797  16.202  28.196   9.226 -0.4734  0.2610  0.0259
    1W        W56798  14.938   1.497   1.184 -0.1573  0.0412 -0.1170
    1W        W56799  28.416  13.597   8.176 -0.2402  0.0140  0.0753
    1W        W56800  15.553  11.957   7.926 -0.1341  0.3073 -0.0529
    1W        W56801  23.061   8.993   0.220 -0.1049 -0.0619 -0.0324
    1W        W56802  24.302  29.427   8.985  0.0503  0.3837 -0.1927
    1W        W56803  25.162  25.409   1.461  0.1092  0.1492  0.0227
    1W        W56804  21.612  19.555   1.900 -0.0364  0.1137  0.1230
    1W        W56805  27.491  10.122   2.077 -0.0733 -0.1233  0.1251
    1W        W56806   8.484  26.639   7.384 -0.0574 -0.3334 -0.1768
    1W        W56807   2.341  22.653   2.132  0.4091  0.2026 -0.0688
    1W        W56808  19.395   4.486   2.615  0.2656  0.1491  0.1880
    1W        W56809   7.296  27.997   7.051  0.4537  0.2294 -0.2086
    1W        W56810  23.977   7.440   2.030  0.0205 -0.3554  0.1928
    1W        W56811   2.204   7.903   8.442  0.0879 -0.0341 -0.0725
    1W        W56812   9.178   8.443   7.706 -0.0362  0.0854 -0.2118
    1W        W56813  17.271   3.846   2.277  0.1148 -0.1085 -0.4027
    1W        W56814  23.233   0.320   2.852 -0.0364 -0.0785  0.1125
    1W        W56815  22.626   8.607   8.777  0.1812 -0.0594 -0.0490
    1W        W56816  14.044  15.373   2.442  0.0340  0.2856 -0.2199
    1W        W56817   0.595  17.941   7.455 -0.3447  0.1537  0.3339
    1W        W56818   9.018  15.229   1.608 -0.3242  0.2518  0.1632
    1W        W56819  22.022   7.845   0.127  0.0357 -0.3409  0.0446
    1W        W56820   6.916  27.223   7.887 -0.1724 -0.0482  0.0056
    1W        W56821  19.470  16.345   0.018 -0.1256 -0.1367 -0.1927
    1W        W56822  11.049  17.095   0.192  0.1331 -0.0151  0.0332
    1W        W56823   9.643  25.544   2.426  0.3090  0.1440 -0.1374
    1W        W56824   1.960   0.675   6.654  0.1962  0.1404 -0.4075
    1W        W56825   2.266  27.216   2.243 -0.1071 -0.0099 -0.0435
    1W        W56826   7.043  17.736   9.227  0.0524 -0.0924  0.0486
    1W        W56827   8.919  17.551   0.398 -0.2189  0.1810  0.0250
    1W        W56828  15.894   7.482   8.468 -0.3321  0.2501  0.1356
    1W        W56829  10.760  27.171   1.278  0.0339 -0.1660 -0.2007
    1W        W56830  25.001   4.871   1.902 -0.2233  0.0538  0.2248
    1W        W56831  21.091  23.273   1.351  0.0103  0.2029  0.1791
    1W        W56832  24.632  13.132   0.637 -0.2396  0.1531  0.0153
    1W        W56833  27.270  19.664   0.950  0.1394  0.0091 -0.1465
    1W        W56834  16.856  16.604   9.094  0.3279 -0.0158 -0.0788
    1W        W56835  26.783   2.935   1.654 -0.0334  0.0693 -0.1241
    1W        W56836  19.119   6.840   2.207  0.2869  0.2445 -0.1958
    1W        W56837  10.401  13.477   8.961  0.1477 -0.0232 -0.0038
    1W        W56838   6.998  26.991   0.965 -0.4029 -0.2459 -0.3855
    1W        W56839  11.158   0.230   7.459 -0.2199 -0.0744 -0.0525
    1W        W56840   1.668  24.054   7.647 -0.0675 -0.2012  0.0214
    1W        W56841  10.401  26.562   7.608  0.0636 -0.1398  0.1692
    1W        W56842   6.094  12.787   9.025  0.3772 -0.2444  0.1257
    1W        W56843  11.620   8.770   3.311  0.2890 -0.2898 -0.1385
    1W        W56844   6.642   9.066   9.186  0.0937 -0.1730  0.1606
    1W        W56845   7.776   7.207   2.634  0.0007 -0.0880 -0.0682
    1W        W56846   2.434  15.622   2.014 -0.0331 -0.0513 -0.1145
    1W        W56847   3.227  14.141   1.123  0.1472 -0.3147  0.2349
    1W        W56848  10.831   0.917   2.551  0.1344  0.0301  0.2237
    1W        W56849   0.946  12.763   1.967  0.0164  0.1806 -0.1921
    1W        W56850  17.452  14.579   1.874  0.1127  0.1791 -0.1702
    1W        W56851   6.052  24.784   9.344  0.2303 -0.1267 -0.1972
    1W        W56852   4.391  18.100   0.965  0.3580 -0.1652 -0.1705
    1W        W56853   6.183   5.171   8.935  0.0488  0.1591  0.0133
    1W        W56854   7.606  11.555   2.444  0.1674 -0.1597 -0.1439
    1W        W56855  18.506  24.041   8.980  0.2193 -0.0104  0.2158
    1W        W56856  23.754  17.019   5.451 -0.0677 -0.0955  0.1344
    1W        W56857  24.527  24.910   0.991  0.1880 -0.1087 -0.0609
    1W        W56858  10.695  17.231   8.218 -0.0703  0.0918 -0.0827
    1W        W56859   5.284   7.087   0.661  0.2428 -0.3425 -0.3119
    1W        W56860  13.237   2.609   1.797  0.2003 -0.2660  0.2304
    1W        W56861   5.623  18.472   7.507  0.2109  0.1459 -0.1445
    1W        W56862   3.527  14.833   7.459  0.4818 -0.1624 -0.2227
    1W        W56863   8.285  29.184   0.528  0.0805 -0.0343  0.0785
    1W        W56864   9.923  12.560   7.824  0.4661  0.0461 -0.0399
    1W        W56865   3.621   9.213   7.562 -0.2932 -0.2655 -0.1127
    1W        W56866   4.066   0.268   0.841  0.1467  0.2038  0.0174
    1W        W56867   5.705   0.015   8.576 -0.0864  0.0407 -0.0517
    1W        W56868  28.588  28.463   3.545 -0.0347 -0.1561  0.2134
    1W        W56869  26.959   1.189   0.307  0.5161 -0.0345 -0.0274
    1W        W56870  28.551  24.195   7.910  0.0491 -0.2070  0.1143
    1W        W56871   8.722   2.524   2.250  0.0263 -0.0544 -0.2171
    1W        W56872  26.461  16.554   1.014 -0.2134 -0.2152 -0.2541
    1W        W56873  25.001  14.632   0.267  0.1111  0.1551  0.3533
    1W        W56874  27.600   0.280   9.079  0.1474 -0.2959 -0.0642
    1W        W56875  14.272  26.476   0.538 -0.0891 -0.3542  0.2950
    1W        W56876   3.415  10.237   2.205 -0.1047 -0.1792 -0.2098
    1W        W56877   3.708   2.165   1.068 -0.0908 -0.4666  0.1572
    1W        W56878  20.253   4.660   1.560 -0.1509  0.0312 -0.1075
    1W        W56879  17.717   8.767   1.049 -0.1710  0.1450  0.2919
    1W        W56880  15.101   2.290   2.905 -0.0060 -0.0919 -0.3526
    1W        W56881  24.793  17.225   8.117  0.2637  0.1337 -0.1774
    1W        W56882   5.244  28.123   3.066 -0.0150 -0.0735 -0.0349
    1W        W56883  28.951  24.013   0.771 -0.0859 -0.0820 -0.1271
    1W        W56884  11.850   5.740   1.379  0.0509 -0.0813  0.1576
    1W        W56885   6.425  24.742   7.105  0.3231  0.0396 -0.1538
    1W        W56886  25.921  20.240   7.042 -0.1173  0.0983  0.0698
    1W        W56887  12.421   6.847   2.454 -0.3645  0.0897 -0.0587
    1W        W56888   2.015  24.129   8.594 -0.2283  0.0403 -0.1128
    1W        W56889   5.455  24.196   1.133  0.2649 -0.2516 -0.0056
    1W        W56890   6.721  23.589   8.047 -0.1184 -0.1675 -0.0150
    1W        W56891   3.027   4.286   0.513 -0.0009  0.0865  0.1092
    1W        W56892  25.803  17.973   7.783 -0.1470  0.1740  0.2723
    1W        W56893  18.457  13.290   7.488  0.0784  0.3321 -0.3690
    1W        W56894   7.288   2.003   7.560  0.0517 -0.2291  0.2814
    1W        W56895  26.214  29.782   2.947 -0.0111 -0.0796 -0.0063
    1W        W56896   2.245   1.902   0.750 -0.2164 -0.2439 -0.1055
    1W        W56897   7.722  21.601   8.634  0.2394  0.3089  0.0336
    1W        W56898  21.154   9.133   7.419  0.1961  0.0603 -0.0765
    1W        W56899  11.884   7.620   0.111  0.2418 -0.1838 -0.1886
    1W        W56900  26.449   1.628   7.835 -0.0312 -0.1048 -0.1250
    1W        W56901  14.474  22.719   7.432 -0.1243 -0.0485 -0.2406
    1W        W56902   5.884  10.269   1.224  0.0967  0.2024  0.1311
    1W        W56903  16.924   5.857   0.615  0.0428  0.1941 -0.2231
    1W        W56904  12.629  14.665   9.234  0.1346 -0.2561 -0.1154
    1W        W56905   9.294  24.931   9.553  0.1242 -0.1021 -0.0069
    1W        W56906   7.145  10.845   9.462 -0.2937  0.1510  0.0153
    1W        W56907  14.102   1.763   7.020 -0.3846  0.1555  0.2905
    1W        W56908  22.136  24.097   1.617 -0.0906 -0.2852 -0.0429
    1W        W56909  12.611   0.133   9.061 -0.2186 -0.2577 -0.1647
    1W        W56910  20.327  23.730   7.745 -0.2776 -0.2020  0.1046
    1W        W56911  17.947  27.878   0.358  0.0374 -0.0507 -0.0169
    1W        W56912  21.850   7.606   9.158 -0.1085  0.0061 -0.2317
    1W        W56913  15.194  27.446   2.727  0.1521  0.0155 -0.2140
    1W        W56914  21.484  25.420   7.415  0.0746 -0.3397  0.2336
    1W        W56915   6.573  25.550   8.859 -0.0427 -0.3677 -0.4536
    1W        W56916  21.378   9.243   9.007  0.0857 -0.0786 -0.5653
    1W        W56917  22.863   8.182   9.276 -0.1386 -0.2825 -0.0817
    1W        W56918  25.164  17.656   1.360  0.0659  0.2422 -0.2656
    1W        W56919   8.641  19.256   8.487  0.0043  0.0717 -0.0146
    1W        W56920   5.460  28.642   0.755 -0.3375 -0.1014  0.1085
    1W        W56921   1.866  17.843   8.231 -0.3436  0.1484  0.2545
    1W        W56922  14.732  17.422   7.393 -0.1051  0.1610 -0.0787
    1W        W56923   4.041  22.114   9.102 -0.2786 -0.0748 -0.1204
    1W        W56924   1.669   8.318   7.128  0.5073  0.0054 -0.1129
    1W        W56925  24.871  26.317   7.714  0.0101  0.2145  0.1335
    1W        W56926  20.618   9.074   1.764 -0.0464 -0.1408  0.0194
    1W        W56927   4.347  18.215   8.012  0.0312 -0.3460  0.0618
    1W        W56928   8.743  20.222   7.076 -0.3165  0.1616  0.4172
    1W        W56929   2.205   1.335   7.240  0.0772  0.1994 -0.1281
    1W        W56930  28.914  12.849   1.448  0.0002  0.0812 -0.3424
    1W        W56931  10.167  20.085   2.795  0.0950  0.0998  0.0819
    1W        W56932  22.648  19.410   1.892 -0.1323  0.2730  0.1979
    1W        W56933  25.753  28.669   8.301 -0.0937  0.2086  0.2329
    1W        W56934   6.535   8.231   2.516  0.1237  0.0950  0.3360
    1W        W56935  27.821  29.629   9.215 -0.1530 -0.0291  0.0170
    1W        W56936  16.163   9.824   9.467  0.2714 -0.0895 -0.2786
    1W        W56937  24.562  18.351   7.539 -0.1765 -0.0444 -0.3505
    1W        W56938  22.654  19.303   7.129 -0.4336  0.0533  0.0327
    1W        W56939  13.911  27.811   6.366 -0.0485  0.0319  0.0174
    1W        W56940  18.521  13.452   0.870  0.1769  0.0651  0.0845
    1W        W56941   4.071  22.060   2.672  0.1695  0.2055  0.1561
    1W        W56942   4.367  29.766   8.470 -0.0065  0.1094 -0.3043
    1W        W56943   3.230  10.783   0.804  0.2427 -0.0233  0.0205
    1W        W56944  24.175  10.365   5.762 -0.4059  0.1754 -0.0605
    1W        W56945  20.560   3.460   9.510 -0.2302 -0.0333  0.4453
    1W        W56946  17.610   4.144   9.020 -0.1395 -0.1742 -0.2582
    1W        W56947   9.354   3.665   9.258  0.1506 -0.2237 -0.0510
    1W        W56948  10.827  23.755   7.570 -0.0507 -0.2557  0.2200
    1W        W56949   4.557  26.979   8.962 -0.0118 -0.0052  0.2385
    1W        W56950   3.936   9.298   0.969 -0.0813  0.1832  0.1869
    1W        W56951  29.443  20.015   9.027 -0.2235  0.0357  0.0360
    1W        W56952  18.809  18.421   8.076 -0.1585 -0.0026  0.1397
    1W        W56953  21.469  22.692   7.162 -0.3629 -0.2636  0.1489
    1W        W56954  11.756  29.537   1.525  0.0406  0.0465  0.0051
    1W        W56955  11.776   7.830   2.347  0.0905 -0.1960 -0.2090
    1W        W56956  12.297   5.019   2.690 -0.2047  0.0703  0.1840
    1W        W56957  18.550  13.801   7.444  0.0012  0.1912  0.4092
    1W        W56958  11.825   8.579   8.257  0.1662  0.4068 -0.0598
    1W        W56959  10.193   1.810   3.011 -0.2351  0.3823  0.0183
    1W        W56960  17.274  22.754   1.779 -0.0523  0.2038  0.2667
    1W        W56961   8.508   9.028   1.923 -0.3307 -0.1261  0.0024
    1W        W56962  24.991   4.303   2.954  0.2948  0.1711 -0.2047
    1W        W56963  24.850   4.883   7.493  0.0151  0.0622  0.0599
    1W        W56964   2.397  22.823   8.625  0.4313 -0.1579  0.2338
    1W        W56965  24.303  23.872   2.305 -0.1942 -0.1238 -0.1953
    1W        W56966  20.556  28.239   0.502 -0.0567 -0.0763 -0.1371
    1W        W56967  19.219  11.924   9.076  0.2219  0.2174  0.0231
    1W        W56968  21.256  23.699   0.012 -0.1514 -0.1016  0.0832
    1W        W56969  23.623  16.760   5.883 -0.1984  0.0891  0.0335
    1W        W56970  16.012  13.110   1.604  0.0765 -0.1244  0.0404
    1W        W56971  29.587   6.854   0.171 -0.1055  0.2437 -0.0452
    1W        W56972  10.564   6.815   3.345  0.1648  0.1946 -0.0568
    1W        W56973  14.173   4.781   8.004 -0.0309 -0.0304  0.0357
    1W        W56974  17.154   3.089   7.612 -0.2503 -0.0346 -0.3053
    1W        W56975   1.838  21.650   9.167 -0.1204 -0.0289  0.2864
    1W        W56976  16.355  15.953   7.292 -0.0709  0.1092 -0.0999
    1W        W56977  26.427  10.248   1.110  0.0511  0.1547 -0.0260
    1W        W56978  21.366  17.262   8.490 -0.0731 -0.0999 -0.0873
    1W        W56979   3.031   1.178   6.150  0.1682 -0.0583  0.1022
    1W        W56980  11.631  23.277   0.813 -0.0681  0.0912 -0.0865
    1W        W56981  20.029   6.207   1.929 -0.0533  0.0386 -0.0061
    1W        W56982   8.540  25.020   8.225  0.6195  0.0102 -0.2474
    1W        W56983  24.377  12.540   6.223  0.3149  0.0996 -0.0246
    1W        W56984   3.534   1.131   8.845 -0.0250 -0.1394 -0.0404
    1W        W56985   7.511   1.705   2.157  0.1817 -0.0720 -0.1968
    1W        W56986   4.301   8.270   6.326 -0.2105  0.1497 -0.0979
    1W        W56987  20.821  11.015   9.072  0.1928 -0.0732 -0.0839
    1W        W56988   6.504   8.036   9.473 -0.0415 -0.1583 -0.0024
    1W        W56989  11.339  19.778   9.459  0.2864 -0.0587  0.1260
    1W        W56990  12.330   1.006   9.415 -0.1894  0.3539 -0.1069
    1W        W56991  20.497  25.451   3.358 -0.1852  0.0528 -0.1323
    1W        W56992   6.897  22.145   7.505  0.1751 -0.0239  0.0722
    1W        W56993  24.596  16.875   8.873 -0.1185 -0.0404  0.1588
    1W        W56994   9.185   2.514   7.977  0.1959  0.3541  0.3375
    1W        W56995   9.910   0.349   0.265  0.3710  0.0256 -0.0141
    1W        W56996   8.120  29.253   1.448 -0.0098  0.1617  0.1578
    1W        W56997   0.915   3.479   0.914 -0.2335  0.0569  0.0381
    1W        W56998  11.148  17.624   8.136  0.0279  0.0798 -0.5696
    1W        W56999   7.183   4.175   2.748  0.1259 -0.0568  0.0328
    1W        W57000   6.368   3.613   0.914  0.1143 -0.1933  0.2955
    1W        W57001  26.665   8.500   7.812  0.0253 -0.0486 -0.3290
    1W        W57002   2.918  16.474   0.435  0.0590  0.1998  0.1023
    1W        W57003   6.943  14.745   1.366 -0.4755 -0.4394 -0.0389
    1W        W57004  22.978  19.969   8.808 -0.0462 -0.1469 -0.0049
    1W        W57005   4.770   0.502   7.800  0.1779 -0.0743  0.2174
    1W        W57006   3.292   7.971   8.518  0.1917 -0.1404  0.1417
    1W        W57007  20.740  12.103   9.325 -0.0775 -0.0613  0.1463
    1W        W57008   1.455   2.940   2.320 -0.1085  0.0025 -0.1750
    1W        W57009  23.726   8.421   0.330 -0.0894  0.0600  0.2101
    1W        W57010  25.977   8.474   8.634 -0.2198  0.1543 -0.1810
    1W        W57011  23.603   3.215   0.737  0.2774  0.0558 -0.0666
    1W        W57012  16.966  11.427   2.818 -0.3320 -0.2810 -0.0547
    1W        W57013  29.689   8.758   2.450  0.1652  0.2198 -0.1100
    1W        W57014  22.694  25.238   2.543  0.1198 -0.0375 -0.0075
    1W        W57015  15.790   4.872   1.573 -0.1386  0.1022 -0.3060
    1W        W57016  16.469  15.840   6.453  0.0231 -0.0800 -0.0745
    1W        W57017  16.034  10.891   0.722  0.0099  0.2825 -0.0350
    1W        W57018  10.983   9.135   7.404 -0.1086  0.0016  0.0348
    1W        W57019  11.148  15.849   9.288  0.0905 -0.0483 -0.0288
    1W        W57020  28.380   8.167   0.705  0.0674  0.0591  0.2450
    1W        W57021   1.213  11.303   9.526 -0.0212  0.0002  0.0047
    1W        W57022  20.403  20.249   7.872 -0.4383 -0.2257 -0.0353
    1W        W57023  29.231  15.471   9.055  0.0878 -0.0475  0.2422
    1W        W57024  18.815  25.406   2.995  0.2490 -0.3952  0.3590
    1W        W57025  22.960   8.395   1.427 -0.1800  0.0069  0.0809
    1W        W57026  23.460  17.551   0.905  0.0162 -0.4345  0.3719
    1W        W57027   0.856  25.873   8.573  0.0528  0.0771 -0.1709
    1W        W57028   1.241  22.330   9.287 -0.1077  0.1874 -0.1967
    1W        W57029   4.394  20.530   9.483 -0.2521  0.1804 -0.0622
    1W        W57030   4.456  18.265   1.422 -0.3294 -0.2616 -0.1650
    1W        W57031  13.624   8.701   7.814  0.2514  0.0836  0.2763
    1W        W57032  11.183  17.027   2.004  0.1201  0.0070 -0.0472
    1W        W57033  21.095  18.488   6.022  0.0816  0.3197 -0.3354
    1W        W57034   8.612  15.935   9.175 -0.2839  0.0393  0.1138
    1W        W57035   2.528   2.034   8.473  0.0879 -0.3341  0.2352
    1W        W57036  15.221   7.454   0.728 -0.1665  0.1089  0.0734
    1W        W57037   4.088  28.039   0.658  0.2152  0.1436 -0.0344
    1W        W57038  24.954  20.186   5.957  0.0720 -0.0155  0.1242
    1W        W57039  13.822  23.449   1.804 -0.3263  0.1410  0.2261
    1W        W57040  12.597   7.415   1.748 -0.0790 -0.2378  0.0090
    1W        W57041  22.691  23.448   7.317 -0.2544 -0.0458  0.0466
    1W        W57042   3.755  19.158   0.182 -0.0579  0.1858 -0.1134
    1W        W57043  14.008   6.815   2.777  0.2497  0.0431 -0.1722
    1W        W57044  28.526  22.873   9.063  0.2599 -0.3491  0.0887
    1W        W57045  14.589  21.549   7.901  0.1501  0.0922 -0.1089
    1W        W57046   2.058  13.443   2.344 -0.4120 -0.0271 -0.0793
    1W        W57047   0.643  14.946   1.247  0.0735 -0.0959 -0.4973
    1W        W57048  12.095  14.535   2.155 -0.1613  0.0723  0.0768
    1W        W57049  22.845  18.273   6.233 -0.0044  0.0913  0.2239
    1W        W57050   0.340   2.114   0.057 -0.2114  0.0431 -0.1430
    1W        W57051  10.379  24.552   2.849 -0.3146  0.1070 -0.2134
    1W        W57052   9.709   7.720   7.709 -0.0457 -0.2115  0.1506
    1W        W57053  13.271  14.856   0.676  0.0331 -0.0522  0.1769
    1W        W57054  15.128  28.878   8.978  0.1676  0.0024  0.3070
    1W        W57055  29.034  18.945   1.114 -0.3053 -0.1502  0.0051
    1W        W57056   8.313  23.188   1.742 -0.0936  0.0165 -0.4546
    1W        W57057  19.480   1.586   8.894 -0.1334  0.3849  0.0858
    1W        W57058  21.481  25.359   7.915 -0.0146 -0.0727  0.1027
    1W        W57059  11.120  27.452   1.801  0.0816  0.4584  0.0323
    1W        W57060   6.829  25.936   8.606 -0.0463 -0.1359  0.0196
    1W        W57061   5.114  21.723   0.839  0.0025  0.0502 -0.1223
    1W        W57062  25.457  10.150   8.835  0.0389 -0.0607  0.0475
    1W        W57063  17.735   5.556   0.358  0.0651  0.2994 -0.3310
    1W        W57064   6.961  29.354   0.084  0.1986 -0.4311 -0.1647
    1W        W57065  22.988  29.412   1.750 -0.0186 -0.0873 -0.2332
    1W        W57066  14.747  24.022   2.233  0.0851 -0.0731  0.3056
    1W        W57067  25.595  24.453   0.952  0.0332  0.1829  0.0627
    1W        W57068  13.220  12.328   1.646  0.0115  0.1362  0.1128
    1W        W57069  26.763   9.764   8.212 -0.0240 -0.2790 -0.0344
    1W        W57070  26.271   8.659   0.599 -0.0724  0.2617  0.0367
    1W        W57071   2.982   3.448   9.357  0.0058 -0.0601  0.1032
    1W        W57072  10.699   8.067   1.832  0.1522  0.0323 -0.3126
    1W        W57073   6.665   1.642   1.049 -0.0750 -0.0667 -0.1869
    1W        W57074  15.963  19.127   7.418  0.0257 -0.0300 -0.0661
    1W        W57075   8.558   8.936   3.130  0.2182  0.5313 -0.2133
    1W        W57076   4.489  15.706   8.205  0.2250  0.1928 -0.0631
    1W        W57077  20.900  20.020   8.761 -0.0741  0.0817 -0.2201
    1W        W57078   4.477  19.701   0.407  0.2252  0.2364  0.2212
    1W        W57079  29.442   4.219   1.369 -0.0735  0.0897  0.1139
    1W        W57080  16.058   9.314   7.842  0.2617  0.1901  0.2200
    1W        W57081  25.119   6.201   7.625 -0.3262 -0.1849  0.0252
    1W        W57082  16.471   6.396   1.516  0.1268 -0.3450 -0.3885
    1W        W57083   7.525  17.514   7.611  0.0704 -0.0405  0.1981
    1W        W57084  28.036  18.236   0.622  0.3745  0.4302 -0.1185
    1W        W57085   4.758  22.640   3.012  0.0861  0.3187 -0.0312
    1W        W57086   4.485  24.392   3.109  0.1831 -0.1401 -0.0300
    1W        W57087   5.981  18.270   7.198 -0.0672 -0.2413 -0.0902
    1W        W57088  26.863  29.798   9.547  0.2437 -0.2360  0.0184
    1W        W57089   4.815  18.051   7.046  0.2120 -0.1578 -0.0290
    1W        W57090   0.572  27.646   7.630  0.0545  0.3728  0.0096
    1W        W57091  25.594   7.914   1.012  0.0588  0.0099 -0.0543
    1W        W57092  22.583  25.763   0.064  0.0014  0.2170  0.2808
    1W        W57093   5.455   3.949   7.675  0.2368 -0.1370 -0.1175
    1W        W57094  17.150  16.198   2.734 -0.3402  0.0815  0.1384
    1W        W57095  28.928  20.413   7.502  0.0112 -0.2938 -0.4295
    1W        W57096   8.671  10.766   1.935  0.0857 -0.1219  0.2012
    1W        W57097   1.159  12.803   8.766  0.0750  0.2232  0.0582
    1W        W57098   5.274  21.635   7.815  0.1469  0.1186  0.2410
    1W        W57099  27.296   8.668   7.366 -0.2468  0.0491  0.0960
    1W        W57100  16.426  18.592   0.223  0.2012 -0.1417 -0.2147
    1W        W57101  17.204  15.369   2.315 -0.3169 -0.3076 -0.0993
    1W        W57102  22.445  26.967   2.472 -0.1527  0.3787 -0.0481
    1W        W57103  17.513  21.214   7.538 -0.2247  0.3615  0.1014
    1W        W57104  11.592  23.190   8.725 -0.0320  0.0402 -0.1022
    1W        W57105  22.872  22.672   1.935 -0.1056  0.0277 -0.0805
    1W        W57106  14.035  19.230   0.156 -0.1271 -0.2267  0.1270
    1W        W57107  10.206  12.759   9.393  0.1581  0.1929 -0.2779
    1W        W57108  23.543  24.352   6.258 -0.1025 -0.2282  0.0814
    1W        W57109  17.093   4.807   3.216 -0.2667  0.0901 -0.3347
    1W        W57110   0.597  27.187   7.400 -0.0783  0.0140 -0.0453
    1W        W57111   5.736   2.525   9.379 -0.4702  0.1158  0.1074
    1W        W57112  18.521  26.753   1.937 -0.0371 -0.2849 -0.2814
    1W        W57113  24.738   7.011   7.976  0.0646 -0.0257  0.0663
    1W        W57114  10.030  16.711   0.234 -0.4656  0.0181  0.0198
    1W        W57115  28.186   3.364   8.604 -0.0996  0.0952  0.1024
    1W        W57116   1.268  10.505   1.837  0.0173 -0.0758  0.0822
    1W        W57117  12.068   4.714   8.171 -0.1853  0.2223 -0.1057
    1W        W57118  11.845  14.041   2.040 -0.0246 -0.1213  0.0978
    1W        W57119   3.969  29.629   0.678  0.1515 -0.0197 -0.0900
    1W        W57120  12.866  11.695   0.549 -0.0956 -0.1245  0.2133
    1W        W57121  21.233  10.160   7.220 -0.0408  0.1772  0.1128
    1W        W57122  18.393   0.528   0.586 -0.0024 -0.2675  0.1106
    1W        W57123   1.885   6.024   7.249  0.2590  0.2003  0.1751
    1W        W57124  10.453   0.342   8.078 -0.1088 -0.0220 -0.1584
    1W        W57125  11.650  12.151   2.441  0.0953 -0.0579 -0.0636
    1W        W57126   8.904  19.775   7.889  0.1074  0.0554  0.4376
    1W        W57127   6.014  13.313   8.957 -0.0769  0.0884 -0.0742
    1W        W57128   2.330  16.199   9.418 -0.1035  0.0155 -0.3236
    1W        W57129   0.987  19.965   8.886 -0.2481  0.2147  0.0917
    1W        W57130   7.433  23.408   9.451  0.5597  0.5088 -0.2965
    1W        W57131  13.092  11.255   2.954 -0.0961 -0.5844  0.0770
    1W        W57132   5.146  21.616   6.724  0.2663 -0.2488  0.3550
    1W        W57133  15.966  12.354   0.944  0.4280 -0.0969 -0.2848
    1W        W57134  10.089  19.294   7.443  0.1102 -0.0726  0.1986
    1W        W57135   1.434   5.986   9.320  0.1460 -0.1866  0.4532
    1W        W57136  27.229  23.857   0.957  0.1538  0.3404  0.4046
    1W        W57137  28.141   3.851   9.497  0.1731  0.3761 -0.2303
    1W        W57138  17.906  21.011   2.481 -0.3578 -0.1368 -0.1513
    1W        W57139  21.725   7.069   9.184  0.5085 -0.2058  0.0093
    1W        W57140  13.494  20.414   7.634  0.1488 -0.0541 -0.2471
    1W        W57141  12.442  16.641   6.442 -0.0269 -0.0127 -0.0472
    1W        W57142   9.273   4.397   2.657  0.1626  0.1357  0.1458
    1W        W57143   8.803  21.355   9.187  0.0529  0.2200 -0.0924
    1W        W57144  20.447  16.889   1.094 -0.2034  0.3769 -0.2481
    1W        W57145  22.546   9.464   2.030  0.0255 -0.0161 -0.0491
    1W        W57146   8.521   2.856   0.856 -0.1227  0.0135  0.1082
    1W        W57147   7.559  26.538   0.401  0.1778 -0.0772  0.2921
    1W        W57148  13.111  12.952   0.820  0.0785  0.0343 -0.0281
    1W        W57149   5.511  19.693   0.327  0.1394  0.0499  0.1421
    1W        W57150  17.578   3.609   2.842  0.0824 -0.1596 -0.1135
    1W        W57151  24.911  10.130   7.088 -0.0647 -0.1097  0.0010
    1W        W57152  10.573   0.993   1.010  0.2102 -0.2938 -0.1186
    1W        W57153   5.956  12.537   7.448 -0.1880 -0.1950 -0.1459
    1W        W57154   7.565  15.445   2.179 -0.2585 -0.0059 -0.2059
    1W        W57155  24.390  23.041   7.199 -0.1122  0.1687  0.1339
    1W        W57156  28.536   4.961   7.654 -0.2111  0.0763 -0.0265
    1W        W57157  27.033   5.427   1.205  0.1908 -0.0276  0.2271
    1W        W57158  24.899  12.207   5.303 -0.1139 -0.4000 -0.0915
    1W        W57159   3.703  13.576   8.369 -0.2081 -0.0370 -0.0729
    1W        W57160   8.251  18.980   9.186 -0.1913 -0.1894  0.0308
    1W        W57161  17.291   5.983   1.111  0.2949 -0.1618 -0.1158
    1W        W57162  17.406  16.186   1.926  0.1130  0.4548  0.1505
    1W        W57163   9.469   2.000   0.622  0.1742 -0.1907  0.0196
    1W        W57164  11.985  16.195   1.229 -0.3084 -0.2604 -0.0898
    1W        W57165  20.670   0.901   1.223 -0.3127  0.2762 -0.1292
    1W        W57166   3.602  17.122   2.537 -0.2163 -0.3470 -0.2894
    1W        W57167  21.870  19.044   5.992  0.1244  0.0873  0.3663
    1W        W57168  26.428  20.312   6.529  0.1080 -0.0449 -0.0855
    1W        W57169  23.241   7.102   0.616 -0.1637  0.0422 -0.3656
    1W        W57170  27.911   2.703   6.790  0.2343  0.0811  0.3198
    1W        W57171  18.069   5.838   9.054  0.2477  0.1740  0.1639
    1W        W57172  19.335   6.351   0.172  0.0094  0.2897  0.0743
    1W        W57173  14.881   3.782   1.593 -0.1051 -0.4928 -0.1555
    1W        W57174   8.345   6.758   0.748 -0.3104 -0.0955 -0.1868
    1W        W57175  26.025  26.735   3.023 -0.0233  0.3494 -0.0100
    1W        W57176  24.563  29.632   9.461  0.1510 -0.0425  0.0350
    1W        W57177  18.203  27.306   6.479 -0.0330 -0.0011 -0.0045
    1W        W57178   1.093  27.090   8.203 -0.2863 -0.0780 -0.2248
    1W        W57179   3.424  27.929   1.829 -0.0769 -0.0213  0.3564
    1W        W57180  12.798  12.564   8.577 -0.1803 -0.0218 -0.3074
    1W        W57181  17.040  24.840   7.263  0.0103  0.0809  0.0234
    1W        W57182   0.480  23.651   7.426  0.0823  0.1952  0.0958
    1W        W57183   9.537   2.548   9.194 -0.1721 -0.1175  0.0069
    1W        W57184   5.216  26.972   8.524  0.0265 -0.2933  0.0660
    1W        W57185  10.826  24.510   6.790  0.2679  0.2616 -0.0921
    1W        W57186  28.635   8.270   0.306 -0.0123 -0.1949 -0.2002
    1W        W57187  19.998   3.759   0.683 -0.0231  0.1479 -0.3414
    1W        W57188  27.986  20.247   7.060 -0.0155  0.2173 -0.0448
    1W        W57189  19.790  25.956   2.444 -0.0895  0.0131 -0.2574
    1W        W57190   9.017   8.121   0.866 -0.0395 -0.0341  0.0542
    1W        W57191  29.182   4.654   8.181  0.4683  0.0042  0.2176
    1W        W57192  10.298   5.778   2.576  0.1082 -0.3011  0.1240
    1W        W57193  23.804  14.543   0.922  0.0971 -0.0153 -0.0800
    1W        W57194  26.916  27.173   6.536 -0.1285 -0.0262  0.1169
    1W        W57195  18.087  23.060   7.234  0.1138 -0.1894 -0.0922
    1W        W57196  27.463   7.312   8.095  0.1721 -0.0034 -0.1334
    1W        W57197  10.045  27.898   1.006  0.1513 -0.0385  0.2175
    1W        W57198  29.701  16.781   6.667 -0.1115  0.0066  0.0572
    1W        W57199  15.507   5.705   8.194 -0.1046  0.0339  0.2474
    1W        W57200   5.055   5.524   7.208 -0.0865  0.0859  0.2174
    1W        W57201   6.942  18.971   0.055 -0.0221  0.0640  0.4124
    1W        W57202  27.691  19.881   6.455 -0.2462 -0.3380 -0.0337
    1W        W57203   7.780  14.924   0.975  0.0526 -0.1606 -0.0432
    1W        W57204  29.673  11.525   0.685  0.0343  0.4758 -0.4648
    1W        W57205   0.890  22.812   1.012  0.1923  0.0831 -0.2723
    1W        W57206   4.687  16.151   2.004 -0.1330  0.1981  0.3637
    1W        W57207  26.945  28.397   3.006 -0.0372  0.2487 -0.1917
    1W        W57208  25.004  24.409   6.298  0.2347 -0.1557  0.1422
    1W        W57209  28.218  18.700   0.724 -0.1071 -0.0858  0.1647
    1W        W57210  27.609  13.660   1.035  0.0018  0.0968  0.0732
    1W        W57211  26.046   5.183   7.885  0.1956 -0.1210 -0.0406
    1W        W57212  12.532  16.335   8.688 -0.1401  0.0370  0.0744
    1W        W57213  14.608   4.225   8.203  0.2733  0.1459 -0.1376
    1W        W57214  18.833  12.467   8.786 -0.0245  0.1815  0.1501
    1W        W57215  28.518  10.528   8.624 -0.0498  0.0398 -0.1439
    1W        W57216   8.037   9.995   2.503 -0.1731  0.2752  0.0534
    1W        W57217  27.207  13.088   5.952  0.2888 -0.2767  0.0625
    1W        W57218  25.515  23.334   7.248 -0.0693  0.2928 -0.1655
    1W        W57219   2.265  21.259   2.155 -0.1189 -0.5113 -0.0910
    1W        W57220  13.655   5.837   1.183 -0.0102  0.2214  0.1968
    1W        W57221  16.175  29.615   0.067 -0.0321  0.0771 -0.0637
    1W        W57222   4.999  25.328   1.328 -0.0069  0.1624 -0.0825
    1W        W57223  22.109  29.432   0.249 -0.2766  0.1200  0.0683
    1W        W57224  10.528  18.426   0.058  0.0955 -0.1825  0.1263
    1W        W57225   7.325  26.970   7.781  0.0813  0.0770 -0.0501
    1W        W57226   4.505  15.372   1.519 -0.0047 -0.0499 -0.0559
    1W        W57227  13.396  24.272   8.496 -0.1716 -0.0810  0.0802
    1W        W57228  24.953  23.268   8.483  0.0713  0.2603  0.0177
    1W        W57229   5.857  25.127   1.273  0.2124 -0.2291 -0.1806
    1W        W57230  22.950   2.119   2.011  0.0237 -0.3088 -0.1635
    1W        W57231  22.727  16.515   7.609  0.0713  0.0711  0.1337
    1W        W57232  22.816  17.142   8.979  0.1892 -0.0712 -0.0380
    1W        W57233   3.923  24.474   9.175  0.0319  0.0688 -0.3465
    1W        W57234   7.358   2.541   7.815  0.0441 -0.1389  0.1602
    1W        W57235  23.774   2.294   8.982  0.0909  0.0296  0.0351
    1W        W57236   8.546   7.646   2.303  0.2381  0.0828  0.0902
    1W        W57237  22.651  10.031   7.288  0.0622 -0.0431  0.0704
    1W        W57238   7.854  17.822   7.359  0.1555 -0.0911 -0.1325
    1W        W57239   2.925  22.708   1.868 -0.3764 -0.2035 -0.2550
    1W        W57240   2.117   8.722   9.326 -0.1832  0.0503 -0.0905
    1W        W57241   7.099   9.008   1.835  0.3152 -0.1449  0.2685
    1W        W57242  22.693   1.198   9.023 -0.0085 -0.1749 -0.5188
    1W        W57243  18.588  28.296   9.428  0.2108 -0.0307  0.1532
    1W        W57244  11.581  23.937   2.739  0.0481 -0.1702 -0.1263
    1W        W57245   4.935  24.273   7.859 -0.0830 -0.0524 -0.5285
    1W        W57246   8.093  27.928   8.030 -0.0604  0.1171 -0.1864
    1W        W57247  24.135  15.360   6.092  0.2429 -0.2640 -0.1013
    1W        W57248  19.370  29.461   8.190  0.3861 -0.1485 -0.3532
    1W        W57249  18.402  12.242   1.247 -0.0600  0.1279 -0.0994
    1W        W57250   0.786  21.989   1.892  0.0797 -0.0889  0.3055
    1W        W57251  15.875  22.813   7.034 -0.1531  0.4089  0.0643
    1W        W57252   0.101  19.804   6.912 -0.1077  0.2182 -0.2691
    1W        W57253  23.453  11.438   8.010 -0.1903 -0.1680  0.1193
    1W        W57254  25.123  17.920   0.914 -0.0495 -0.0304  0.1282
    1W        W57255  17.883  10.872   8.863  0.2194 -0.1983  0.0311
    1W        W57256   0.903   4.767   8.290 -0.1353 -0.0259 -0.0704
    1W        W57257  14.455   4.634   8.441 -0.0705 -0.1706 -0.3466
    1W        W57258  26.571  17.073   6.274 -0.1560 -0.1168 -0.0452
    1W        W57259   9.088  13.235   2.102  0.3434 -0.0892 -0.0369
    1W        W57260  15.069  13.399   8.332  0.2738  0.1192  0.1041
    1W        W57261   9.027  23.612   0.280  0.1268  0.0063 -0.1766
    1W        W57262  24.480  27.659   8.982 -0.1094 -0.1830 -0.1536
    1W        W57263  14.900  21.292   1.285  0.2522 -0.1046 -0.0886
    1W        W57264   2.523  23.269   0.048 -0.2474 -0.1278  0.1816
    1W        W57265   4.438  28.403   0.802  0.2758  0.2317  0.0483
    1W        W57266  12.681  13.203   9.167  0.5624  0.0019  0.1696
    1W        W57267  19.362  21.371   0.763 -0.0585 -0.0421 -0.4322
    1W        W57268   4.951  19.705   9.183 -0.1177  0.0019 -0.0308
    1W        W57269  26.413   0.070   0.913  0.3143  0.0184 -0.0100
    1W        W57270  20.069  28.873   2.499 -0.2923 -0.0063  0.0207
    1W        W57271  26.920  10.046   0.281 -0.0454 -0.0637  0.0436
    1W        W57272  25.051  26.488   1.578 -0.1734 -0.1897  0.2040
    1W        W57273  13.268   6.974   8.637 -0.1691 -0.1771 -0.3129
    1W        W57274  15.431  20.450   7.351  0.2324 -0.2537 -0.0479
    1W        W57275   8.451   2.888   1.955 -0.0047 -0.1430 -0.2309
    1W        W57276  29.152  18.416   8.841 -0.0216 -0.0118  0.1995
    1W        W57277  26.385  19.516   0.412 -0.0943  0.0548 -0.1688
    1W        W57278  14.848   4.165   2.929  0.1544  0.0376 -0.3659
    1W        W57279  18.806   7.784   1.468 -0.0787  0.0842 -0.1348
    1W        W57280   4.390   2.932   8.499 -0.2020  0.1329  0.0226
    1W        W57281  28.307  23.363   7.407 -0.1056 -0.1333 -0.0443
    1W        W57282  27.124  17.252   0.079 -0.0210 -0.1540 -0.1398
    1W        W57283  20.203   6.459   9.433  0.0416 -0.0648 -0.0968
    1W        W57284  13.414  12.345   0.151  0.0524 -0.1844  0.0767
    1W        W57285   5.110   9.053   0.422 -0.3005 -0.1917  0.0074
    1W        W57286  27.547  26.656   2.996  0.1652  0.0323 -0.3347
    1W        W57287   7.223  10.209   2.329  0.0144 -0.2735  0.0056
    1W        W57288  25.686   6.079   3.527 -0.2932  0.1430 -0.0376
    1W        W57289   0.041   5.137   7.155 -0.3733  0.1750  0.2216
    1W        W57290  13.328   9.818   1.396  0.0194  0.0268 -0.0915
    1W        W57291  20.981   5.557   8.319 -0.0001  0.0165 -0.0507
    1W        W57292   4.367  20.643   7.604 -0.1860  0.0454  0.1246
    1W        W57293   8.733   3.377   3.505  0.0791 -0.0703  0.3307
    1W        W57294   6.200  27.554   0.580  0.0298 -0.0666 -0.1070
    1W        W57295   5.491  26.389   0.217 -0.2971  0.2122 -0.0436
    1W        W57296   3.513   2.677   2.211  0.1673  0.1275 -0.2938
    1W        W57297  28.708   8.936   2.334 -0.2256 -0.1895  0.1838
    1W        W57298  16.770   8.734   9.091 -0.0538 -0.0234  0.1857
    1W        W57299   2.105   1.510   7.753  0.0032 -0.0830  0.1288
    1W        W57300  11.084   3.738   9.225  0.2372  0.0367  0.2135
    1W        W57301  26.532   3.827   8.172  0.1153  0.0162 -0.2362
    1W        W57302  22.617  14.318   0.472  0.0060 -0.3221  0.0969
    1W        W57303   1.060  18.265   7.245  0.0122  0.1592 -0.1314
    1W        W57304  15.223   5.674   2.084 -0.3847 -0.1497  0.0118
    1W        W57305  25.549  29.141   2.985  0.1275 -0.0895 -0.2419
    1W        W57306   6.173  26.527   9.109 -0.1465  0.4111 -0.1781
    1W        W57307  11.181  13.315   0.992 -0.0692 -0.2103 -0.1602
    1W        W57308  22.737  24.411   1.832  0.3147  0.1239  0.2502
    1W        W57309   6.545   7.173   8.270  0.1064 -0.5631  0.4598
    1W        W57310  26.235  27.464   1.636  0.1077 -0.0753  0.2162
    1W        W57311  15.735  11.958   8.963  0.1127  0.1943 -0.0742
    1W        W57312   5.250   3.546   9.260  0.0516 -0.1245  0.1205
    1W        W57313  25.065   3.992   2.542  0.1475 -0.2004  0.4519
    1W        W57314   6.517   0.249   7.220  0.2328 -0.3026 -0.1615
    1W        W57315  13.403   8.464   2.988  0.3099 -0.0283 -0.0537
    1W        W57316  17.752   1.484   7.614 -0.0779 -0.1090  0.1977
    1W        W57317  17.121   1.521   0.843  0.0025  0.0482 -0.0633
    1W        W57318   0.686  23.526   1.372 -0.0218  0.2110 -0.0374
    1W        W57319   9.026   9.202   8.430 -0.1394  0.1254 -0.5866
    1W        W57320   6.402  28.812   0.684 -0.1092  0.4942  0.3627
    1W        W57321   9.266  17.523   8.503 -0.2705  0.0658  0.1840
    1W        W57322   5.064  11.128   8.449  0.0366  0.0810 -0.0211
    1W        W57323  12.038   7.156   0.911 -0.2244 -0.0991  0.1120
    1W        W57324  15.749  20.663   1.287 -0.1714 -0.3761 -0.1086
    1W        W57325  21.627  16.866   6.730  0.2396  0.0129 -0.0454
    1W        W57326  12.372  20.365   8.215 -0.2904  0.1771 -0.0395
    1W        W57327  27.640   7.153   8.797 -0.0382  0.4623  0.2824
    1W        W57328   5.435   6.273   0.898 -0.0908  0.1582 -0.2957
    1W        W57329  23.873  26.423   9.074  0.3132  0.2804 -0.2725
    1W        W57330  23.956   6.250   2.861  0.1942  0.2012 -0.0857
    1W        W57331  19.617   3.699   2.049  0.3030  0.1131 -0.0361
    1W        W57332   4.276  20.028   0.041 -0.5201  0.0144 -0.0133
    1W        W57333  13.975   0.193   0.003 -0.0618 -0.0451 -0.0764
    1W        W57334   0.274  14.229   7.265  0.0680 -0.0530  0.1229
    1W        W57335  18.013  12.809   1.340 -0.3146 -0.0757 -0.0265
    1W        W57336  29.761  28.459   2.697 -0.2980  0.0022 -0.3541
    1W        W57337  25.343  14.556   6.184  0.1970 -0.0887  0.0069
    1W        W57338   3.975  28.240   9.075 -0.2148  0.0658  0.0788
    1W        W57339  23.833  25.907   9.030 -0.1305 -0.2640 -0.4987
    1W        W57340  16.728  16.334   1.336  0.0098 -0.1960  0.0131
    1W        W57341  17.515  29.550   1.065  0.2510 -0.1595  0.0594
    1W        W57342  18.519   5.426   9.417  0.1436 -0.0475 -0.0015
    1W        W57343  14.604  18.899   0.204 -0.0709  0.2383  0.0937
    1W        W57344  22.539  12.272   1.871  0.1000  0.2518 -0.1611
    1W        W57345  10.484   2.204   1.138 -0.1369 -0.2192  0.1182
    1W        W57346   0.614  20.531   1.420  0.4632 -0.1833  0.1062
    1W        W57347  15.583  16.316   1.682  0.2328  0.2863 -0.3520
    1W        W57348   7.252  11.081   2.256  0.0862 -0.0220 -0.1877
    1W        W57349  14.592  11.141   2.579 -0.0729 -0.1218 -0.1809
    1W        W57350  21.323  24.130   1.887  0.2789 -0.1795  0.1063
    1W        W57351   8.669  22.249   8.372 -0.0389 -0.0039 -0.0416
    1W        W57352  10.199  20.726   0.497 -0.0426 -0.1793 -0.0001
    1W        W57353  21.869  17.915   0.638  0.0875 -0.1626 -0.0546
    1W        W57354   1.887  18.530   7.566  0.1292  0.0486  0.2108
    1W        W57355  16.610  17.214   9.091 -0.1377 -0.0398  0.1412
    1W        W57356  21.084  11.396   6.984  0.0407  0.0299  0.1177
    1W        W57357  22.518  27.682   2.177 -0.1733 -0.0215 -0.2204
    1W        W57358  14.478   5.489   7.736 -0.0181  0.2638 -0.2369
    1W        W57359  16.390  27.735   0.471 -0.2949  0.1532  0.1154
    1W        W57360   1.911   9.084   1.480  0.1214 -0.3217  0.0851
    1W        W57361  18.423   8.468   1.027  0.1101  0.0221 -0.3083
    1W        W57362   7.874   9.529   7.744 -0.1050  0.0248 -0.1759
    1W        W57363   0.321  24.753   8.642 -0.0411  0.1191  0.1532
    1W        W57364  10.375  20.310   9.073  0.0069 -0.2034 -0.2373
    1W        W57365   4.709   2.557   0.361  0.1071  0.2390  0.3771
    1W        W57366  14.754  20.611   6.359  0.1683 -0.0767  0.1735
    1W        W57367  26.059   5.466   8.582 -0.0451 -0.1386 -0.0839
    1W        W57368  14.649  27.714   0.026  0.1985  0.1883 -0.0943
    1W        W57369  23.370   0.264   8.904  0.0236  0.2941 -0.1444
    1W        W57370  29.751  22.936   7.356  0.0301  0.1655  0.3666
    1W        W57371   7.336   8.124   0.866  0.1532 -0.5290  0.0091
    1W        W57372  19.890  26.122   9.007 -0.0393 -0.1093  0.2052
    1W        W57373   3.195  27.724   0.984 -0.4888  0.1127  0.0194
    1W        W57374  27.584  28.386   0.084 -0.2877 -0.0421 -0.0959
    1W        W57375   4.562   6.896   7.903  0.1672  0.1074  0.2703
    1W        W57376   0.776  27.562   7.083 -0.1602 -0.1130  0.2687
    1W        W57377  23.403   9.699   0.944  0.2381 -0.0383  0.0572
    1W        W57378   4.865  17.369   7.232  0.2728 -0.1463 -0.0571
    1W        W57379  16.412   2.211   0.380 -0.0250 -0.1056 -0.1147
    1W        W57380  11.623  20.564   8.472  0.0684  0.1052 -0.1223
    1W        W57381   2.094  28.973   8.832 -0.1862  0.1728  0.4617
    1W        W57382   2.837  14.113   7.741 -0.1935  0.1202 -0.0632
    1W        W57383  19.920  29.163   2.919  0.0306  0.1448  0.1083
    1W        W57384  10.763   7.109   0.857  0.0659  0.1518  0.0022
    1W        W57385  16.940  12.466   6.390 -0.0885 -0.3611  0.1323
    1W        W57386   6.475   6.879   2.114  0.1706  0.2098 -0.0878
    1W        W57387   2.177  27.143   1.200 -0.1657  0.1454 -0.3817
    1W        W57388  18.228  23.727   0.477 -0.1852  0.1772 -0.1080
    1W        W57389  27.562   6.000   9.125 -0.3942  0.1229  0.1034
    1W        W57390   1.682  11.136   8.089  0.1010  0.1089  0.0745
    1W        W57391  26.775   3.379   7.363  0.1335  0.1193  0.1636
    1W        W57392  19.008   2.115   1.802 -0.0330  0.0385  0.0168
    1W        W57393  19.298  22.576   7.598  0.2180  0.1176  0.2971
    1W        W57394   9.539  11.451   6.779  0.2637  0.1136 -0.4312
    1W        W57395   4.427   8.620   8.515 -0.0617 -0.2252 -0.6033
    1W        W57396  19.587  20.815   8.618  0.2763 -0.4314 -0.1039
    1W        W57397  27.363   2.197   1.446  0.0571  0.1513  0.3258
    1W        W57398   5.357  26.095   2.503 -0.3018 -0.1404 -0.0540
    1W        W57399  18.627  27.459   2.740 -0.1427 -0.1885 -0.2155
    1W        W57400  26.051  26.521   8.568 -0.0322  0.0485 -0.2528
    1W        W57401   0.746   5.558   6.850 -0.1602  0.1186  0.0525
    1W        W57402   6.568  15.289   1.589 -0.2645  0.1026 -0.0903
    1W        W57403  20.906  13.233   1.426 -0.1420 -0.1138  0.4313
    1W        W57404   6.177   4.113   8.699 -0.4271 -0.1379 -0.0394
    1W        W57405  26.707   3.875   6.340 -0.3534 -0.0461  0.0315
    1W        W57406   1.774  19.497   1.159  0.0380  0.1105  0.1210
    1W        W57407  12.977   1.224   2.037 -0.0339  0.2733  0.0004
    1W        W57408  21.413   1.022   2.693 -0.3576 -0.0217 -0.1412
    1W        W57409   1.683  23.776   2.317 -0.2061 -0.0381  0.2367
    1W        W57410  14.686  24.439   2.011  0.0954 -0.0338 -0.0774
    1W        W57411   7.319   0.904   0.096 -0.0516 -0.0245  0.1744
    1W        W57412   0.707  25.277   1.527  0.1437 -0.1542  0.0914
    1W        W57413   2.422   3.926   1.425 -0.0644  0.0291 -0.3832
    1W        W57414   7.138   1.035   0.551 -0.2290 -0.1096 -0.1578
    1W        W57415  13.369  29.773   8.046 -0.1451  0.1991  0.2879
    1W        W57416  28.546  16.462   8.131  0.1188  0.0781  0.3482
    1W        W57417  17.472  26.159   2.219  0.2718 -0.0171  0.0495
    1W        W57418  18.143   7.419   8.887 -0.2395  0.0353  0.1908
    1W        W57419  22.559  27.199   2.985 -0.2480  0.0244  0.0444
    1W        W57420  13.236   5.462   1.820  0.0740  0.5325  0.0766
    1W        W57421   8.133   5.198   1.803  0.3744 -0.1444  0.2309
    1W        W57422   0.943  27.425   3.344  0.2273 -0.1099  0.1217
    1W        W57423   9.536  17.924   8.331 -0.3597  0.0727  0.4477
    1W        W57424  14.847  16.415   0.961 -0.1826  0.1306  0.2670
    1W        W57425  23.285   6.389   1.139 -0.0481  0.1490 -0.2300
    1W        W57426   8.368  25.637   2.617  0.0420 -0.2492  0.2180
    1W        W57427   5.186   7.446   3.068  0.0403 -0.2995  0.0077
    1W        W57428  22.936  23.334   8.530  0.1942 -0.0256  0.1178
    1W        W57429  22.760   9.024   2.771 -0.0676  0.0906 -0.3785
    1W        W57430   9.314   6.217   8.858  0.0352  0.1471  0.0214
    1W        W57431  25.734  21.594   8.772  0.0851  0.1469  0.1800
    1W        W57432  21.296  24.468   7.501 -0.1336  0.0081  0.0388
    1W        W57433  10.223  12.668   7.328 -0.1091  0.0608  0.2917
    1W        W57434   4.103  17.757   8.143  0.1515 -0.1898 -0.1602
    1W        W57435  27.296   8.815   6.518 -0.1394 -0.2114 -0.0073
    1W        W57436  19.367   0.982   3.307  0.1416  0.1552 -0.1170
    1W        W57437   4.389   8.191   1.565 -0.0441 -0.3689 -0.3402
    1W        W57438   8.130  10.665   0.153  0.0969  0.1149  0.0227
    1W        W57439  20.810  15.602   2.482 -0.4275  0.6028 -0.0704
    1W        W57440  10.526  10.231   1.764 -0.0654 -0.0458 -0.0008
    1W        W57441  19.561  29.107   2.431 -0.0724 -0.2021  0.1988
    1W        W57442   2.959  24.122   8.355  0.0347  0.0480 -0.1642
    1W        W57443  18.899   6.416   1.285 -0.1929  0.2076  0.1959
    1W        W57444  15.711  10.915   8.453 -0.2076 -0.1817  0.0079
    1W        W57445   0.225  17.309   7.719 -0.3189 -0.0431 -0.3300
    1W        W57446  20.687  14.098   0.510 -0.1409 -0.2163  0.0221
    1W        W57447   4.233  24.455   0.916 -0.0829  0.1036 -0.1408
    1W        W57448  24.075   4.854   0.932 -0.0181 -0.2310  0.0679
    1W        W57449   0.848  21.568   9.440 -0.3112 -0.0170  0.2817
    1W        W57450  16.040  18.510   2.456  0.1596  0.0571 -0.2874
    1W        W57451   6.012   4.313   0.668 -0.0303  0.5345 -0.2062
    1W        W57452  21.702  24.366   1.502 -0.2586 -0.0441 -0.0885
    1W        W57453   5.762   0.072   1.139 -0.2267 -0.1161  0.2928
    1W        W57454   1.101   9.533   6.899 -0.4088  0.1882 -0.0425
    1W        W57455   9.907   1.586   1.316  0.1659 -0.0448  0.0839
    1W        W57456   5.596   9.751   2.438  0.1627  0.0874 -0.1088
    1W        W57457   3.512   0.470   7.259  0.0281 -0.2712 -0.2159
    1W        W57458   9.967  24.115   1.172  0.1102 -0.0446 -0.3192
    1W        W57459  26.548   8.082   6.803 -0.1736 -0.0109 -0.1743
    1W        W57460   1.052  14.800   8.338 -0.0514  0.0244  0.0127
    1W        W57461   4.794   1.550   1.885 -0.0984 -0.2657 -0.2610
    1W        W57462  22.553  17.724   6.702  0.1479  0.1300 -0.1554
    1W        W57463  18.256   8.823   2.894  0.1109 -0.1517  0.0585
    1W        W57464  14.820  15.480   1.752 -0.1218  0.1933  0.2434
    1W        W57465   2.352  28.933   7.378 -0.1193 -0.0884 -0.0190
    1W        W57466  13.617   5.171   2.658  0.1444  0.0603 -0.0008
    1W        W57467  24.612  19.511   8.445 -0.0458  0.1335  0.1586
    1W        W57468  21.664  16.012   0.253  0.1427 -0.1464 -0.3188
    1W        W57469   7.723  27.536   1.558 -0.0992 -0.0318  0.0813
    1W        W57470  16.910   1.256   2.980  0.0362 -0.2675 -0.0099
    1W        W57471  18.730  27.444   3.469  0.1160  0.1198 -0.0525
    1W        W57472  25.119  10.510   1.529 -0.3172  0.0779 -0.0276
    1W        W57473   6.367  17.110   9.115  0.2547  0.1323 -0.0285
    1W        W57474   9.482   3.252   0.973 -0.1723 -0.0870  0.1686
    1W        W57475   5.084   3.028   7.395 -0.2386 -0.0487  0.2521
    1W        W57476  29.704   8.382   0.704 -0.0622  0.0264  0.0476
    1W        W57477   0.881  10.163   1.743 -0.2679 -0.2948  0.2772
    1W        W57478   1.402  10.325   9.507  0.0481  0.0817  0.1064
    1W        W57479  14.199  29.480   7.805  0.1308  0.4814  0.0148
    1W        W57480   7.503   3.128   9.500 -0.1215  0.1173  0.0727
    1W        W57481  13.834   5.856   1.672  0.1269  0.0298 -0.3177
    1W        W57482  28.779   5.345   8.457 -0.2966 -0.1297  0.2019
    1W        W57483  25.052  16.643   9.326  0.4446 -0.0750  0.0569
    1W        W57484  12.580  26.375   8.772 -0.0817 -0.0270 -0.2179
    1W        W57485   7.855   5.148   8.391  0.1979 -0.0970  0.0290
    1W        W57486  28.727   1.756   1.003  0.1347  0.0731  0.0985
    1W        W57487  28.715  10.746   7.629 -0.0121 -0.2623  0.2796
    1W        W57488  23.932   8.592   6.960 -0.0634  0.1876  0.0518
    1W        W57489  18.163   1.126   2.828 -0.0795 -0.1372  0.1440
    1W        W57490  28.824   5.486   7.286 -0.0073 -0.1218 -0.1289
    1W        W57491  16.209   6.806   1.366 -0.2244 -0.1669  0.2078
    1W        W57492  21.669  26.345   7.724  0.3796  0.3114  0.2592
    1W        W57493  23.518  22.774   2.298  0.2180  0.0299 -0.0022
    1W        W57494   8.812  24.190   1.866  0.2826  0.0402 -0.0521
    1W        W57495   0.234  17.258   7.186 -0.0786 -0.1735  0.0111
    1W        W57496  14.194   2.226   1.786  0.2498 -0.1404 -0.0030
    1W        W57497  11.217   3.724   0.684 -0.0549  0.0828  0.1050
    1W        W57498   8.974  21.796   7.336  0.1896 -0.0198 -0.0120
    1W        W57499  14.325   1.010   1.161 -0.2267  0.0356 -0.1332
    1W        W57500   6.834   1.799   0.551  0.0266 -0.2813  0.1917
    1W        W57501  23.407   4.485   2.639 -0.2218  0.0312  0.0230
    1W        W57502  22.401  21.622   2.382  0.0462  0.0056  0.1442
    1W        W57503  27.894  11.555   8.753  0.1027 -0.2719  0.0529
    1W        W57504   3.701   8.859   7.950 -0.2932  0.0470  0.0458
    1W        W57505   6.534  27.424   1.771  0.3595  0.0068  0.0931
    1W        W57506   5.871  14.987   7.483  0.2653 -0.0579  0.0156
    1W        W57507  24.012  24.487   8.554 -0.1401 -0.1721 -0.0904
    1W        W57508  10.312   2.467   1.951 -0.3875 -0.3461 -0.0134
    1W        W57509  28.096   8.555   7.814 -0.1150 -0.1308 -0.2662
    1W        W57510   1.028  11.981   1.054  0.1244  0.1412 -0.0560
    1W        W57511  13.882  23.510   7.980  0.0324  0.0685 -0.0362
    1W        W57512   0.915  16.748   7.592  0.4080  0.0388  0.2145
    1W        W57513  16.072  14.510   2.266  0.0901 -0.1458 -0.2918
    1W        W57514  24.978   9.545   1.345  0.1483  0.2553  0.1763
    1W        W57515  23.092  26.242   0.028  0.2289 -0.1931 -0.0664
    1W        W57516  11.096  24.041   1.116 -0.0354  0.3467 -0.0321
    1W        W57517  21.888  10.215   7.382  0.0994 -0.2472  0.0955
    1W        W57518  13.771  12.775   8.115 -0.2856 -0.0574  0.1921
    1W        W57519   7.034   9.882   0.770 -0.0601 -0.1678 -0.1364
    1W        W57520   5.115  12.781   1.402 -0.1282  0.1895 -0.2436
    1W        W57521   3.825  15.601   0.636 -0.1063 -0.0211  0.1917
    1W        W57522   5.564  18.867   0.261  0.0145 -0.1553 -0.0199
    1W        W57523  22.931  18.072   8.627  0.0300 -0.2650  0.0187
    1W        W57524  24.692  23.613   8.162  0.0649  0.1279 -0.3152
    1W        W57525   7.778  25.046   2.665 -0.0773  0.0101 -0.1896
    1W        W57526   0.766  15.969   7.012 -0.2625  0.2523 -0.1867
    1W        W57527   0.092  20.904   9.397  0.0167 -0.5178 -0.0757
    1W        W57528  23.601  13.680   6.124  0.1938 -0.0243 -0.0269
    1W        W57529  21.154   3.773   4.161 -0.0611 -0.0047  0.0070
    1W        W57530  26.946  22.894   6.810  0.1492 -0.3536  0.0055
    1W        W57531  15.308   0.935   1.734  0.1399 -0.0844 -0.0919
    1W        W57532   3.699  14.322   1.365 -0.1511  0.0037 -0.3079
    1W        W57533   6.687  10.561   9.513 -0.1357 -0.2186  0.0552
    1W        W57534  10.444  27.350   7.897  0.0536  0.0199 -0.0882
    1W        W57535  19.587   7.388   1.353  0.1551 -0.0286  0.0234
    1W        W57536  21.672   3.996   1.390  0.4498  0.0593  0.0831
    1W        W57537   6.943  19.909   7.861  0.0117  0.3196 -0.1993
    1W        W57538  11.364  16.818   1.407  0.5456 -0.0270  0.2381
    1W        W57539  17.684   7.940   3.359  0.0169 -0.0939  0.2415
    1W        W57540  21.134   0.599   8.436  0.0554  0.1326  0.1279
    1W        W57541  19.913  22.034   7.798  0.0825  0.0600 -0.0952
    1W        W57542  26.728  11.979   1.048 -0.2182  0.1178 -0.2300
    1W        W57543  22.111  13.795   6.216 -0.0153  0.0930  0.1646
    1W        W57544   5.847  23.115   8.947  0.0995 -0.3955  0.0672
    1W        W57545  18.953  18.133   3.047 -0.1911 -0.2134  0.0163
    1W        W57546  27.727   5.873   0.622  0.0863 -0.1126 -0.2654
    1W        W57547   6.036  16.307   1.170  0.2415  0.1157 -0.1207
    1W        W57548   5.165   6.247   0.466 -0.0589 -0.1432 -0.2929
    1W        W57549  27.330  13.769   9.434  0.1102 -0.1868 -0.2219
    1W        W57550   3.668  29.257   8.021  0.1103 -0.1811 -0.2842
    1W        W57551  18.298  25.419   7.705  0.0071  0.1748 -0.1551
    1W        W57552  19.742   9.851   7.235  0.0796  0.1961 -0.1677
    1W        W57553   4.716  11.942   7.785 -0.1965 -0.0724 -0.0540
    1W        W57554  21.907  15.059   6.272  0.0099  0.0973  0.1160
    1W        W57555  27.118  24.092   7.605  0.0851  0.3179  0.2263
    1W        W57556   2.606  21.308   1.345 -0.1618  0.1460  0.1069
    1W        W57557   9.285  17.186   1.478 -0.3739  0.0813  0.1756
    1W        W57558   3.592   0.479   0.753 -0.1617  0.2901  0.0765
    1W        W57559   5.155  25.979   6.878 -0.1026 -0.3841  0.0008
    1W        W57560  25.460   5.681   0.303  0.0717  0.2469 -0.0517
    1W        W57561  23.393   0.235   6.295 -0.0060  0.3109  0.2733
    1W        W57562   8.822  29.763   1.382 -0.2764 -0.3575  0.3638
    1W        W57563   0.076  26.223   1.698  0.2319 -0.2616 -0.0703
    1W        W57564   1.332  15.366   0.917  0.1128  0.1095  0.3200
    1W        W57565   8.445   1.417   7.944  0.1616 -0.1428 -0.1085
    1W        W57566   8.181   1.004   3.764 -0.0275  0.1898 -0.1029
    1W        W57567   0.197   9.716   8.836  0.4029 -0.2433  0.2217
    1W        W57568  10.570  11.864   7.978  0.3468 -0.0388  0.2463
    1W        W57569   2.110  12.555   8.840 -0.2705 -0.0573 -0.2304
    1W        W57570  26.661  27.864   7.637 -0.1100  0.2113  0.0283
    1W        W57571  13.989   3.836   6.809 -0.2117  0.1492  0.1317
    1W        W57572  13.548  26.394   2.745 -0.2558  0.1774  0.3459
    1W        W57573  13.663   8.081   3.186  0.0800 -0.2218 -0.0827
    1W        W57574  19.038  17.577   8.633 -0.1421 -0.3702  0.3085
    1W        W57575  24.193   3.551   1.757 -0.0323  0.1300 -0.2353
    1W        W57576  21.940   6.502   1.789  0.2288 -0.1017  0.1516
    1W        W57577  20.251  26.067   2.078  0.4946  0.0278  0.1465
    1W        W57578   8.693   5.172   7.857 -0.2288 -0.3153 -0.0302
    1W        W57579  22.571  13.411   6.723  0.0988 -0.0093  0.0328
    1W        W57580  24.143  16.654   0.436 -0.2474 -0.0097  0.2048
    1W        W57581  21.276   4.377   1.622  0.3170 -0.1042 -0.1459
    1W        W57582   4.740   8.723   2.690  0.1408 -0.1824  0.1972
    1W        W57583  12.935  12.184   0.412  0.0389 -0.1238 -0.1899
    1W        W57584  20.058  22.375   1.974  0.2093  0.0305  0.1337
    1W        W57585   4.722   9.097   8.573 -0.3395  0.1486 -0.1310
    1W        W57586   6.905  12.731   1.084 -0.3058  0.0647  0.1835
    1W        W57587  26.337  22.776   9.480  0.2840  0.1283 -0.0838
    1W        W57588   2.828  17.155   8.794  0.0570 -0.2229  0.1419
    1W        W57589  20.133  25.449   8.198 -0.0810  0.1098  0.0997
    1W        W57590  17.013  13.610   9.139  0.1027  0.2271  0.2824
    1W        W57591  13.357  29.574   2.845 -0.0415  0.0123 -0.2699
    1W        W57592  23.881  10.163   7.958  0.1811  0.1616 -0.2612
    1W        W57593   9.942  15.709   9.480 -0.1894 -0.1653  0.1279
    1W        W57594  20.552   4.564   8.854  0.0418  0.1311  0.3521
    1W        W57595  23.463  25.094   8.041  0.1337 -0.2030 -0.3404
    1W        W57596  21.968   4.787   1.049 -0.3009  0.2666  0.1433
    1W        W57597  22.335  13.024   9.329 -0.0877 -0.2116  0.0663
    1W        W57598   2.466  17.248   1.646  0.0483  0.0762 -0.0850
    1W        W57599  14.266  18.320   7.503 -0.0836  0.1942  0.2076
    1W        W57600  14.570   4.583   2.216  0.2565 -0.3102 -0.2611
    1W        W57601  29.187  25.458   8.274 -0.1277  0.2319  0.1219
    1W        W57602  27.879   9.095   1.909 -0.1551  0.5490  0.1469
    1W        W57603  17.279  17.591   2.087  0.1047  0.0142 -0.4164
    1W        W57604   1.018   7.853   2.574  0.0837  0.3382 -0.0662
    1W        W57605  11.520  21.876   1.627  0.3055  0.2518 -0.0038
    1W        W57606   4.947  15.767   2.197 -0.2155 -0.2808 -0.1994
    1W        W57607  12.522   7.037   7.634  0.1945 -0.0152 -0.1167
    1W        W57608  12.135  10.310   3.357  0.2082  0.1950 -0.0219
    1W        W57609  15.516  28.574   9.439 -0.0151  0.0333 -0.1428
    1W        W57610   0.303   1.431   0.944 -0.0412 -0.1115 -0.3041
    1W        W57611  13.502  13.293   2.373  0.1392  0.4680 -0.0239
    1W        W57612  22.463   0.246   8.413 -0.1758  0.2155 -0.1567
    1W        W57613   3.423  22.083   8.690 -0.0667 -0.4328 -0.0225
    1W        W57614  24.694  16.248   1.732 -0.0341 -0.0817 -0.3195
    1W        W57615   1.892  18.061   7.350  0.0770  0.0115  0.1758
    1W        W57616  11.805  14.402   8.771 -0.2369  0.0325 -0.0724
    1W        W57617   0.599   6.763   6.632  0.1079 -0.2211 -0.1001
    1W        W57618  19.139  19.245   2.308  0.2375  0.0782  0.0866
    1W        W57619   4.579   9.476   7.636 -0.1078  0.2674  0.0914
    1W        W57620   7.543  19.476   9.313 -0.0328 -0.2090 -0.0817
    1W        W57621   3.535  18.559   1.563  0.5490  0.1183 -0.2503
    1W        W57622   4.955  12.531   7.385  0.1380 -0.0575  0.0174
    1W        W57623  12.062  13.195   6.899  0.1559  0.0950  0.0685
    1W        W57624   5.932  24.252   7.737 -0.2919 -0.3253 -0.1229
    1W        W57625  18.400  26.490   8.235  0.3140 -0.2522  0.0100
    1W        W57626  24.344  24.139   1.762 -0.0477  0.4904  0.0566
    1W        W57627  26.471  11.050   8.555  0.0685 -0.0453 -0.4352
    1W        W57628  11.341  12.328   0.645 -0.1936  0.0409 -0.0117
    1W        W57629  20.725  12.694   7.930 -0.3068 -0.1930 -0.1759
    1W        W57630  10.137  24.623   9.209 -0.1922 -0.2520  0.0126
    1W        W57631   0.994   3.634   3.093  0.0638 -0.1304 -0.3016
    1W        W57632  22.515  18.672   7.911 -0.3421 -0.0269 -0.0133
    1W        W57633  20.823  10.188   8.053 -0.0815  0.2329  0.1539
    1W        W57634   3.039   5.497   1.998 -0.3395  0.0379 -0.1738
    1W        W57635  11.726   2.844   3.389  0.1601  0.2279  0.0707
    1W        W57636  21.637  21.992   1.160 -0.0722  0.0599  0.4501
    1W        W57637   5.448  10.356   9.495  0.2110 -0.0402  0.0988
    1W        W57638   9.253  21.412   7.284  0.0569  0.1365  0.1446
    1W        W57639   6.633  20.996   7.759  0.0657 -0.2283  0.0361
    1W        W57640  18.378  17.214   9.422 -0.1469 -0.0126  0.1773
    1W        W57641  18.410  19.336   0.988  0.0819 -0.0347 -0.0130
    1W        W57642  18.219  20.177   1.291 -0.2249 -0.0133 -0.2479
    1W        W57643   4.081   4.276   8.169 -0.1497 -0.2102 -0.1928
    1W        W57644  24.335  10.789   7.202 -0.1692 -0.0476 -0.3093
    1W        W57645  29.781   5.537   0.820  0.0570  0.1900 -0.3640
    1W        W57646  15.933  26.812   3.546  0.0264  0.1175  0.2450
    1W        W57647  25.229  25.987   8.182 -0.4173  0.0790 -0.1244
    1W        W57648  24.013  12.487   2.115  0.1284 -0.0918  0.0097
    1W        W57649   0.898  26.195   0.966  0.4184 -0.2784  0.3180
    1W        W57650  22.845  25.690   1.416  0.0225  0.1154  0.0393
    1W        W57651  11.628  17.057   1.036 -0.0732 -0.0454  0.2095
    1W        W57652  18.415  19.898   6.017  0.0382  0.1027 -0.0073
    1W        W57653   3.590  23.357   1.036 -0.1579  0.0165  0.0525
    1W        W57654  26.975  20.527   9.354 -0.1240  0.0773  0.1603
    1W        W57655  23.775  10.805   9.415  0.2785 -0.0257 -0.0400
    1W        W57656   6.084  27.081   3.245  0.0388  0.0487  0.1734
    1W        W57657  15.863   3.093   6.406 -0.1675 -0.0292  0.0480
    1W        W57658  15.616  15.814   1.989 -0.1240  0.1739  0.1775
    1W        W57659  21.899  15.148   7.601  0.2497 -0.3505 -0.1929
    1W        W57660  27.740   2.538   9.507 -0.3237  0.1210  0.1496
    1W        W57661   9.436   4.652   0.031  0.2525 -0.1614  0.0351
    1W        W57662  21.445   7.573   8.211 -0.1854  0.1191 -0.0423
    1W        W57663  28.353   2.885   8.678  0.0095 -0.0118  0.1460
    1W        W57664   1.831  14.374   0.354  0.1213 -0.1737  0.2106
    1W        W57665   9.465   6.983   8.407  0.3123  0.2265  0.2751
    1W        W57666   1.772  17.363   0.066 -0.0642  0.0271  0.0339
    1W        W57667  26.217   3.446   8.777 -0.1232  0.0561  0.1463
    1W        W57668  17.807  23.553   6.372 -0.2178  0.2275 -0.0933
    1W        W57669  29.763  10.190   7.002  0.0943 -0.0801 -0.2308
    1W        W57670  19.995   4.827   9.265  0.0464 -0.0341 -0.1323
    1W        W57671  28.616  27.985   2.777  0.0101  0.0027  0.1201
    1W        W57672   9.671  28.214   1.181  0.1529 -0.1468  0.0425
    1W        W57673   1.295   4.899   7.398 -0.2089 -0.0078  0.3010
    1W        W57674   0.024   3.926   1.226  0.2474 -0.0764  0.1805
    1W        W57675  20.295  11.136   7.708  0.0122 -0.0109  0.2248
    1W        W57676   0.651  19.435   8.172  0.1078 -0.1008  0.0457
    1W        W57677  16.744  13.887   8.126  0.0535 -0.1538  0.1255
    1W        W57678   4.158  26.463   0.180 -0.2488 -0.0055 -0.1100
    1W        W57679  17.357   2.398   8.298 -0.1850 -0.1185  0.0162
    1W        W57680  10.319  25.113   1.954 -0.3974  0.4135  0.1140
    1W        W57681   6.295   4.501   6.679 -0.0050  0.0131 -0.2279
    1W        W57682   9.027  22.481   1.881 -0.3431 -0.1355  0.0880
    1W        W57683   5.857  14.877   1.375  0.0385  0.0527  0.0299
    1W        W57684   1.974  14.850   0.670 -0.0262  0.0614  0.4475
    1W        W57685  18.387  20.932   2.505 -0.1071  0.1712  0.1527
    1W        W57686  24.926  18.637   6.612 -0.1245 -0.2487 -0.4241
    1W        W57687   6.237   1.607   9.398 -0.0530 -0.1820 -0.1858
    1W        W57688   8.152  22.721   1.931 -0.3165  0.2625  0.0590
    1W        W57689   1.429  16.025   1.211  0.1960  0.0082 -0.1484
    1W        W57690   5.671  20.174   7.372 -0.1510  0.0324 -0.5770
    1W        W57691  11.584  21.711   2.104  0.0091  0.1632 -0.2691
    1W        W57692  15.719  29.611   0.890  0.2375 -0.1752  0.2488
    1W        W57693   3.573  21.589   9.388 -0.6135 -0.2699 -0.0878
    1W        W57694  28.589  20.669   0.349 -0.0654 -0.3302 -0.0022
    1W        W57695   4.919  21.762   1.846  0.3194 -0.0792 -0.0783
    1W        W57696  13.270  10.180   9.323 -0.0546 -0.1673  0.4250
    1W        W57697  24.379  27.445   0.615 -0.0158 -0.0335 -0.2090
    1W        W57698  24.379  23.180   6.642  0.1892  0.1191 -0.1151
    1W        W57699   5.380  10.267   1.057  0.1896 -0.3670 -0.0869
    1W        W57700  19.265  24.657   1.127 -0.0402  0.2646  0.2900
    1W        W57701  24.706  24.411   7.689  0.0546 -0.0242  0.1462
    1W        W57702  28.421  23.859   1.070  0.1524 -0.1252 -0.2855
    1W        W57703  12.934   9.631   8.394  0.0033 -0.0225 -0.1759
    1W        W57704  29.789   9.884   0.842 -0.2432 -0.0172  0.1848
    1W        W57705  23.814  27.060   8.281 -0.1862  0.0640  0.0248
    1W        W57706   0.376   6.909   9.440  0.1633  0.0264 -0.1005
    1W        W57707  27.801  11.519   1.894  0.0009 -0.1378 -0.2341
    1W        W57708  26.031  25.048   1.578 -0.0157 -0.0553 -0.1249
    1W        W57709  21.733   7.845   8.578  0.0695 -0.0931  0.0450
    1W        W57710   1.945  20.380   2.026  0.3831  0.0362 -0.1599
    1W        W57711  10.926   3.427   8.084 -0.1291 -0.2288 -0.0753
    1W        W57712  17.029   1.331   9.178  0.4667  0.1531  0.2220
    1W        W57713  14.071  28.825   1.922 -0.0615 -0.3123  0.0116
    1W        W57714  11.872  10.562   0.368 -0.2156  0.1862 -0.1334
    1W        W57715   5.236   3.314   1.629  0.3335  0.2278  0.0781
    1W        W57716  10.421  21.330   7.854 -0.2640 -0.1085  0.2341
    1W        W57717  22.353  13.914   6.789  0.1681  0.2685  0.0757
    1W        W57718  20.964   1.391   0.801  0.2231 -0.2852  0.1074
    1W        W57719  23.354  27.161   8.654 -0.0712 -0.1190 -0.1478
    1W        W57720   2.056   6.752   0.842 -0.0404  0.1342  0.0617
    1W        W57721  10.161   4.203   2.336 -0.0568  0.2469  0.0543
    1W        W57722  22.454   1.991   8.036 -0.1110  0.2770  0.4253
    1W        W57723  26.239  13.264   1.702 -0.2643  0.2713  0.1178
    1W        W57724   5.192  22.087   8.996  0.2479  0.0537  0.2919
    1W        W57725  19.467  21.125   1.558 -0.0038  0.1807 -0.0975
    1W        W57726   7.615  19.511   7.370 -0.1778  0.0751  0.1123
    1W        W57727  21.473  15.264   6.022 -0.0259  0.2762 -0.1574
    1W        W57728  12.064  20.177   2.359  0.1870 -0.4188  0.0298
    1W        W57729  17.590   5.630   2.472 -0.0939 -0.1836  0.3487
    1W        W57730   6.829   1.539   1.993 -0.1996 -0.0838 -0.3340
    1W        W57731   0.027  20.853   7.172 -0.0126  0.2366 -0.0284
    1W        W57732  13.331  22.197   0.581 -0.0285 -0.1782  0.1815
    1W        W57733   0.286   5.955   8.792  0.2705 -0.1351 -0.1616
    1W        W57734   8.931  17.789   9.349 -0.0333  0.1714  0.1685
    1W        W57735  28.217  21.426   9.421 -0.1331  0.1447  0.1937
    1W        W57736  19.247  25.538   3.433 -0.3674 -0.0203  0.2721
    1W        W57737  21.252  25.113   0.753  0.0377  0.1589 -0.0061
    1W        W57738  24.886  27.973   9.014 -0.0260 -0.2831  0.1633
    1W        W57739   9.687  14.095   1.464 -0.1853  0.0173 -0.1378
    1W        W57740  15.320   5.321   8.464  0.2424 -0.0706  0.2368
    1W        W57741  16.158  23.087   2.309  0.0371  0.0848  0.2973
    1W        W57742   5.585   1.901   2.503 -0.0009  0.1615 -0.2466
    1W        W57743  25.888  27.888   2.355  0.2023  0.0787  0.1369
    1W        W57744  17.034   6.138   1.897  0.0717 -0.1439 -0.0503
    1W        W57745   7.428  20.255   2.234  0.2066  0.1240 -0.0055
    1W        W57746  23.823  25.436   9.178  0.0151  0.1410 -0.0279
    1W        W57747   7.278  25.120   1.090  0.1252  0.0561  0.0143
    1W        W57748  14.904  26.581   1.219  0.0244  0.0839  0.0105
    1W        W57749   8.402   0.671   7.453  0.0343 -0.1171 -0.0436
    1W        W57750  29.603  26.619   0.838 -0.1335 -0.0854 -0.0952
    1W        W57751  13.828   0.902   1.767  0.0961 -0.2636  0.2609
    1W        W57752  24.275  23.348   1.359 -0.2166 -0.0449 -0.0203
    1W        W57753  17.782   5.827   3.254  0.0720 -0.3653 -0.1074
    1W        W57754  12.027  19.836   6.103 -0.1177 -0.0039  0.1185
    1W        W57755  13.050  28.031   7.968 -0.0659 -0.0478 -0.0896
    1W        W57756   3.779   1.629   1.956 -0.0189  0.1787 -0.2152
    1W        W57757   2.464   1.367   9.152  0.2069  0.1299  0.0060
    1W        W57758   7.961   0.144   0.944  0.0980 -0.0617 -0.0633
    1W        W57759  13.805  10.219   7.316 -0.0690  0.1508 -0.3096
    1W        W57760  22.917  14.486   0.915  0.3732  0.0821  0.1122
    1W        W57761   3.398   9.323   1.290 -0.0801 -0.1058  0.0220
    1W        W57762  14.863  27.214   8.281  0.3858  0.1726  0.1722
    1W        W57763  12.657   9.345   3.147  0.3095  0.1530  0.0625
    1W        W57764   2.751  10.602   9.342  0.0397 -0.0941  0.2696
    1W        W57765  16.862  22.170   2.287  0.2230  0.1517  0.0046
    1W        W57766  25.358  13.944   7.839 -0.1267  0.0504  0.0059
    1W        W57767   1.030  25.639   1.356 -0.4109  0.1068  0.1708
    1W        W57768  12.758  27.116   9.110  0.1651  0.1285  0.0121
    1W        W57769   2.133   9.808   9.303 -0.4391 -0.0437 -0.2004
    1W        W57770   4.680   4.678   1.541  0.3768 -0.2338 -0.1325
    1W        W57771   4.932  10.643   0.144  0.1295  0.0297 -0.2893
    1W        W57772  20.590  16.163   7.754  0.1989  0.1455 -0.0318
    1W        W57773  27.506  18.595   7.485 -0.0044  0.2975 -0.0209
    1W        W57774  28.374  21.801   8.754 -0.1023  0.2185  0.1731
    1W        W57775   1.988   4.181   2.261  0.1510 -0.2607 -0.1446
    1W        W57776  23.562  13.953   6.545 -0.1727 -0.2378  0.2451
    1W        W57777  21.779   1.983   6.889  0.0026 -0.1177  0.1542
    1W        W57778   1.381  12.063   6.947  0.0503  0.3937 -0.0329
    1W        W57779  22.134   0.027   3.059  0.2351 -0.0327  0.2956
    1W        W57780  19.172  20.296   6.591 -0.0610 -0.4570 -0.0222
    1W        W57781  25.622   4.236   0.791  0.0912  0.4190  0.0157
    1W        W57782  17.470   1.420   3.056 -0.2787 -0.1553 -0.2196
    1W        W57783  29.440   6.767   2.356 -0.2570  0.2390  0.2256
    1W        W57784   1.818  21.400   1.849  0.0601 -0.5459 -0.2818
    1W        W57785  29.074  19.401   7.423  0.4593  0.1684  0.1567
    1W        W57786  20.519  11.484   9.102  0.1360  0.1711 -0.1194
    1W        W57787  29.517  17.746   6.783 -0.1374  0.1632  0.1294
    1W        W57788  23.721  25.834   1.573 -0.1370  0.0679 -0.0409
    1W        W57789  25.976  17.937   8.323  0.0002  0.0751 -0.1885
    1W        W57790   7.299  16.730   2.209  0.1523  0.1421  0.2576
    1W        W57791   7.879  25.025   8.181 -0.0204 -0.2242 -0.0880
    1W        W57792   8.519   7.000   3.059  0.0066 -0.1447 -0.1053
    1W        W57793  10.464   4.261   3.776  0.0842 -0.0053 -0.0978
    1W        W57794   2.455   5.394   9.160 -0.1624 -0.0019 -0.1481
    1W        W57795  25.169   9.250   3.000  0.2667 -0.0857  0.0568
    1W        W57796   1.665  20.980   1.068  0.0909 -0.0424 -0.0563
    1W        W57797   1.047  27.701   2.434  0.0628  0.0818 -0.1859
    1W        W57798  15.252  13.975   7.506  0.0727 -0.2380  0.0825
    1W        W57799   9.582  22.113   8.651  0.0152 -0.0667  0.2047
    1W        W57800   2.130   7.815   1.643 -0.1138  0.0047 -0.1191
    1W        W57801  29.736  12.765   0.805 -0.0453  0.0212  0.0270
    1W        W57802  10.385  20.017   0.544 -0.2879 -0.0689  0.0437
    1W        W57803  14.036  22.968   9.154  0.0212  0.3218 -0.0365
    1W        W57804   3.270  14.091   1.863  0.1900 -0.0420  0.0064
    1W        W57805  29.156  19.410   6.040  0.0446 -0.1885  0.2147
    1W        W57806   3.225   3.224   0.324 -0.0745 -0.3300 -0.2932
    1W        W57807  24.169  25.717   9.424  0.1753  0.0992  0.3506
    1W        W57808  24.006  22.602   9.444 -0.1330 -0.0601  0.0686
    1W        W57809   9.866   5.666   2.931  0.0022  0.1787  0.0329
    1W        W57810   7.873   4.119   7.386 -0.0522 -0.0569  0.1125
    1W        W57811  27.984  10.231   2.303  0.1639  0.0449  0.0603
    1W        W57812  20.140   6.320   2.450  0.0323 -0.1852  0.0411
    1W        W57813   9.851  15.747   8.398  0.4122  0.1233  0.1779
    1W        W57814   6.336  23.102   8.906 -0.1388  0.0311  0.0581
    1W        W57815  12.108  26.710   8.174 -0.0355 -0.1028  0.3080
    1W        W57816  27.625   6.645   8.663 -0.2083  0.0831 -0.0631
    1W        W57817  12.562   1.859   7.521  0.1867  0.1712  0.0042
    1W        W57818  25.894  14.151   7.033  0.0212 -0.2106 -0.2819
    1W        W57819   2.796  21.937   0.254 -0.0008  0.1126  0.0164
    1W        W57820   6.449  13.018   1.915 -0.2849 -0.1306 -0.1245
    1W        W57821  26.498  11.235   1.666 -0.1933 -0.2394  0.0868
    1W        W57822  11.620  26.748   7.922 -0.0670 -0.2073 -0.1588
    1W        W57823  22.142  14.886   7.214 -0.1024 -0.0138 -0.0496
    1W        W57824   0.768  22.478   7.227 -0.0039 -0.0373 -0.0664
    1W        W57825  20.250  21.338   7.323  0.0893 -0.1474 -0.2342
    1W        W57826  12.643  23.048   6.760 -0.0419 -0.0491  0.3233
    1W        W57827  23.259   5.902   1.698 -0.0048 -0.1057  0.2785
    1W        W57828  26.152   4.496   8.439 -0.1202  0.1688  0.1747
    1W        W57829   5.165  12.675   7.852  0.1684 -0.1449 -0.0349
    1W        W57830  13.465   8.152   9.340  0.0327  0.1166  0.2837
    1W        W57831  13.036  28.485   7.789 -0.1133  0.3793 -0.1279
    1W        W57832   4.863  27.617   2.208 -0.2092  0.0803  0.1192
    1W        W57833  24.060  10.436   1.224 -0.0434  0.0950  0.0401
    1W        W57834   2.750  28.683   1.095 -0.3885 -0.0318 -0.0093
    1W        W57835   4.193   8.672   6.798 -0.2136  0.1295  0.4671
    1W        W57836  22.638  10.941   0.381  0.2025  0.0783 -0.3289
    1W        W57837   7.961   2.369   1.392  0.0425 -0.0028  0.1637
    1W        W57838  26.468  18.684   8.277  0.5303 -0.1700 -0.1216
    1W        W57839  23.939  22.973   7.399  0.2433  0.0320  0.0491
    1W        W57840   1.177   8.328   0.317 -0.0028  0.1318  0.0941
    1W        W57841   9.814  22.276   6.891 -0.0247  0.1388 -0.3003
    1W        W57842  16.498  11.246   0.081 -0.1124 -0.2216 -0.3730
    1W        W57843  23.850  17.974   5.720  0.3345  0.2082 -0.0553
    1W        W57844   1.280  10.698   8.536 -0.1128 -0.0553  0.0565
    1W        W57845   4.222  10.955   1.895 -0.0782  0.0630 -0.1713
    1W        W57846   9.735   0.709   1.557  0.1629  0.0568  0.1103
    1W        W57847  10.380  23.812   1.061  0.1799  0.1581 -0.1602
    1W        W57848  29.041   4.207   7.999  0.2701 -0.0152 -0.0592
    1W        W57849   7.205   4.644   0.075 -0.1253 -0.0131  0.0277
    1W        W57850  25.515  17.473   6.604 -0.2927  0.2983  0.2298
    1W        W57851  28.887  28.612   7.333 -0.1481  0.2017  0.0174
    1W        W57852  17.921  25.979   0.219 -0.0121  0.0733  0.1007
    1W        W57853  26.508   1.193   3.052  0.1992  0.2929 -0.1729
    1W        W57854  17.969  18.403   1.849 -0.1498  0.2560 -0.2555
    1W        W57855  21.281  27.340   0.657 -0.1076  0.3117  0.1532
    1W        W57856   4.532  28.791   8.427 -0.2345 -0.1256 -0.1052
    1W        W57857  12.614  16.555   7.512 -0.2384  0.0554  0.0562
    1W        W57858  11.708  21.764   8.316 -0.2674 -0.1256  0.0412
    1W        W57859  23.810  10.731   8.923  0.0273  0.0678  0.1083
    1W        W57860   2.240  27.955   8.380 -0.0633  0.0905  0.4303
    1W        W57861  16.215   9.059   7.308 -0.0390  0.0161  0.0673
    1W        W57862  18.947   4.630   8.427 -0.3631  0.2510 -0.0385
    1W        W57863  25.537   4.048   8.196  0.1150  0.0542 -0.2613
    1W        W57864  29.687  27.102   1.296 -0.0063 -0.1531 -0.1893
    1W        W57865   8.596  11.101   2.384 -0.1025  0.1384  0.1690
    1W        W57866  11.878  23.537   2.158  0.0166  0.1639 -0.0448
    1W        W57867   9.563  13.121   2.292 -0.2355 -0.0250 -0.2126
    1W        W57868  23.954  17.015   0.839 -0.2786 -0.0491 -0.1096
    1W        W57869  23.163  10.640   1.611 -0.1112  0.1342 -0.3798
    1W        W57870  19.314  28.338   1.873  0.2266 -0.2318  0.1910
    1W        W57871  19.731  12.265   5.748 -0.0178 -0.3367  0.0267
    1W        W57872   8.044  12.060   8.626 -0.0835 -0.1960  0.0656
    1W        W57873  28.224  14.170   9.425  0.0195  0.0511 -0.4637
    1W        W57874   4.738  10.988   1.809  0.2346  0.1155  0.2191
    1W        W57875  29.748   3.114   8.832  0.1972  0.1145 -0.1409
    1W        W57876   6.162  12.404   8.760 -0.2148 -0.4329 -0.1000
    1W        W57877  16.927  15.501   8.706  0.3305 -0.0762 -0.0362
    1W        W57878  22.603  29.297   8.556  0.1062 -0.0589 -0.0579
    1W        W57879  18.986  10.494   3.030  0.1132  0.0433 -0.3578
    1W        W57880  28.202   6.828   8.822 -0.3083  0.0488  0.1078
    1W        W57881  28.406  28.731   1.638 -0.0745 -0.2596  0.0979
    1W        W57882  27.866  17.221   1.995  0.1600  0.1516 -0.1591
    1W        W57883   7.166  11.427   9.132  0.3211  0.1615 -0.2046
    1W        W57884  26.662   3.940   9.331 -0.1049 -0.2328  0.1336
    1W        W57885  23.000   5.027   8.574  0.0498  0.2279 -0.4713
    1W        W57886  10.887   0.320   8.958  0.0731 -0.0195 -0.1662
    1W        W57887  19.790  28.490   8.173  0.3644 -0.1367 -0.0315
    1W        W57888  12.013  17.704   1.481 -0.0989  0.1718 -0.0682
    1W        W57889   2.589  12.930   6.848  0.0561  0.0646  0.0020
    1W        W57890  21.890  25.766   6.567 -0.2110 -0.1356  0.2690
    1W        W57891  11.097  21.607   7.565 -0.4017 -0.1655  0.1476
    1W        W57892   6.801  10.406   2.542  0.0267  0.0561 -0.1540
    1W        W57893  12.663  22.370   6.838 -0.0996  0.1669 -0.1678
    1W        W57894  16.224  17.419   0.156 -0.2547 -0.0999 -0.0585
    1W        W57895   4.674   8.253   2.472  0.0740 -0.2534 -0.0957
    1W        W57896  27.547  26.676   0.007 -0.0574 -0.2915 -0.2177
    1W        W57897  22.540  12.907   1.217 -0.1290  0.2929  0.0626
    1W        W57898   1.921   1.725   2.660 -0.0110  0.1019 -0.3098
    1W        W57899  22.524  27.928   8.781  0.0685  0.0892 -0.0521
    1W        W57900  10.540   7.783   7.586  0.3848 -0.2319  0.1231
    1W        W57901  18.055   4.505   1.626  0.0116  0.2036  0.1840
    1W        W57902   8.535  27.185   7.664 -0.1145  0.2313 -0.2062
    1W        W57903  13.212  12.057   2.085 -0.0072  0.1480 -0.0163
    1W        W57904  12.835  27.479   0.086 -0.1955 -0.1532 -0.0654
    1W        W57905  19.275   5.814   9.287  0.0275 -0.0333  0.1367
    1W        W57906   8.393  15.827   8.650 -0.1573 -0.3484 -0.0999
    1W        W57907  20.220  25.870   9.336  0.0984 -0.0583 -0.0064
    1W        W57908  10.021  26.295   8.879 -0.1063 -0.0801 -0.2636
    1W        W57909  21.414  10.065   0.964  0.0507 -0.1216  0.2589
    1W        W57910  11.855  14.732   7.727  0.0368  0.1468 -0.0080
    1W        W57911  11.636   6.492   0.444  0.4213  0.0751  0.0302
    1W        W57912  26.395  13.919   8.865 -0.3774 -0.0142 -0.1350
    1W        W57913  22.529  17.574   9.120 -0.0037 -0.4964  0.1826
    1W        W57914   4.206  29.425   1.466 -0.3049 -0.1259 -0.0952
    1W        W57915   9.291  15.648   0.323  0.0671 -0.1181 -0.1886
    1W        W57916   7.159  26.228   0.394  0.4401 -0.0753 -0.1095
    1W        W57917  23.483   4.731   0.451  0.0952  0.1971 -0.0381
    1W        W57918  17.834   4.782   7.010 -0.3142 -0.2628  0.0635
    1W        W57919  20.160  25.292   1.511  0.2775  0.2440 -0.1397
    1W        W57920  17.725   7.723   0.514 -0.1337 -0.0042 -0.0915
    1W        W57921  21.846   8.862   8.141 -0.1092  0.1823  0.1976
    1W        W57922   8.608  23.780   8.955  0.3514  0.1801  0.3884
    1W        W57923  24.426  29.772   2.167 -0.0438  0.1822  0.0320
    1W        W57924  10.960  25.148   8.050  0.2241 -0.3030  0.0745
    1W        W57925  16.171  18.538   9.328  0.2289 -0.1216  0.0517
    1W        W57926   9.068  19.816   8.963  0.2113  0.1418  0.2045
    1W        W57927  23.707  23.445   8.182 -0.1279  0.1754 -0.3415
    1W        W57928  16.047  14.206   7.525  0.3333  0.0320 -0.0486
    1W        W57929   8.534  29.427   1.689 -0.0291  0.0543  0.0052
    1W        W57930   6.942   2.302   9.519 -0.1297 -0.2579  0.1570
    1W        W57931  24.926   5.000   0.664 -0.1403  0.4135  0.0699
    1W        W57932  10.239   5.640   8.878 -0.1540 -0.1110  0.1554
    1W        W57933   6.967  20.184   6.801 -0.1161  0.4120  0.1401
    1W        W57934   7.094  10.285   7.615  0.1501  0.0997  0.0475
    1W        W57935  13.515  21.438   0.193  0.2709  0.0779  0.1701
    1W        W57936   5.617  20.310   0.362  0.0798  0.3607 -0.0416
    1W        W57937  15.412   6.363   2.505  0.0938  0.3425 -0.0994
    1W        W57938   2.030  10.006   1.947 -0.0581  0.3155 -0.2631
    1W        W57939  19.836  16.171   6.766  0.0543  0.1387  0.1210
    1W        W57940  17.941   2.780   6.571 -0.0832 -0.1602 -0.1723
    1W        W57941  22.995   9.862   0.668 -0.0825 -0.5892 -0.1339
    1W        W57942  27.471   7.775   0.290 -0.0399 -0.1792  0.0407
    1W        W57943  14.182   2.832   0.144  0.0937 -0.2325 -0.1011
    1W        W57944  10.277   8.979   0.781 -0.2518  0.0781 -0.2969
    1W        W57945  16.135  27.275   7.700  0.0500  0.0040  0.2134
    1W        W57946  29.519  21.004   7.596  0.0149  0.4532 -0.3815
    1W        W57947  23.685  18.796   0.405  0.2597 -0.0009 -0.0861
    1W        W57948  21.252  22.883   1.009  0.2477  0.0817 -0.1153
    1W        W57949  16.107  13.297   8.664 -0.1747 -0.0562  0.2199
    1W        W57950  11.163  15.030   8.307  0.0078 -0.0566  0.2157
    1W        W57951   4.044  18.993   1.038 -0.0226  0.1078  0.1744
    1W        W57952   9.638  27.042   0.424  0.2007 -0.1447  0.0883
    1W        W57953  23.747   7.889   1.776  0.1815  0.6275  0.1479
    1W        W57954  12.468  14.023   8.677 -0.0875 -0.0242  0.2690
    1W        W57955  25.914  23.297   6.837 -0.2150 -0.1855  0.1726
    1W        W57956  27.612   1.776   1.699 -0.1796  0.2877 -0.1489
    1W        W57957   4.592   7.348   8.830 -0.3165  0.2060  0.0025
    1W        W57958  14.913   6.165   9.490 -0.0754  0.2643  0.0744
    1W        W57959  18.803   3.288   3.254  0.2164  0.0305 -0.3285
    1W        W57960  26.696   8.209   0.639  0.0023  0.1232  0.1134
    1W        W57961   1.371  23.892   7.209  0.1585 -0.0965  0.2172
    1W        W57962   9.090   5.460   7.161 -0.1078  0.2508 -0.2387
    1W        W57963   7.967  27.035   8.999  0.0748  0.0569 -0.0496
    1W        W57964  22.014   0.434   8.125 -0.0540  0.4035 -0.0865
    1W        W57965  24.784   9.991   0.052 -0.1618 -0.2276 -0.0437
    1W        W57966  21.720   9.026   0.996  0.0248 -0.2205 -0.0500
    1W        W57967  13.716  12.421   3.387 -0.0545 -0.0460  0.1155
    1W        W57968   8.804  23.138   1.515  0.0009 -0.1073  0.1162
    1W        W57969  20.650  16.958   9.115 -0.0535 -0.1043 -0.0811
    1W        W57970   0.050   6.098   1.633  0.1567  0.1018  0.3584
    1W        W57971  21.650   9.895   7.061  0.0316 -0.1492  0.2192
    1W        W57972   3.795  28.263   1.752 -0.1646 -0.1664  0.3230
    1W        W57973  17.087  25.051   1.864 -0.0939 -0.0061  0.4586
    1W        W57974  11.669  11.176   8.517 -0.0396 -0.2009 -0.2621
    1W        W57975  13.783  13.995   7.780 -0.2149  0.1311 -0.2051
    1W        W57976  20.221  26.468   8.965  0.0527  0.0168  0.0115
    1W        W57977   4.263  27.539   0.849  0.3227 -0.2574 -0.1188
    1W        W57978   0.443  18.854   1.275 -0.3132  0.2869 -0.0281
    1W        W57979  14.247  14.566   6.412 -0.2509 -0.0346 -0.1955
    1W        W57980  23.433  24.591   8.745  0.0426 -0.1582  0.1636
    1W        W57981   8.191  19.216   8.715 -0.1279  0.0096  0.1132
    1W        W57982  21.626  17.871   1.138  0.0668 -0.1752  0.0662
    1W        W57983   3.249   3.853   9.092  0.2014  0.0596 -0.2687
    1W        W57984  12.697  21.624   0.290  0.1324  0.1756 -0.0720
    1W        W57985  20.809  16.083   8.487  0.0761  0.2494 -0.1427
    1W        W57986  12.662  23.730   7.591 -0.1969  0.1419  0.0365
    1W        W57987  15.208   8.642   2.780  0.0503  0.1218 -0.0780
    1W        W57988  26.515  25.447   7.594 -0.1198  0.2871  0.0056
    1W        W57989  25.373  20.296   0.818  0.0266  0.1465  0.0392
    1W        W57990   5.418  26.596   2.577 -0.1678  0.1410  0.0859
    1W        W57991  17.683  19.949   8.096 -0.1247 -0.0374  0.0191
    1W        W57992  11.909   0.585   8.506  0.0464 -0.0604  0.0245
    1W        W57993  11.486  13.293   7.710  0.0737  0.1746 -0.0527
    1W        W57994  29.472   7.645   8.301  0.0133  0.0809  0.3335
    1W        W57995  27.303  25.248   2.231  0.2306 -0.0532  0.1042
    1W        W57996  14.931  12.336   7.547 -0.2361 -0.0957  0.1637
    1W        W57997  22.963  26.689   2.579  0.1039  0.0620 -0.1279
    1W        W57998  19.556   2.060   1.914  0.0806 -0.2060 -0.0156
    1W        W57999  15.600   5.734   3.506  0.0015 -0.1857 -0.1707
    1W        W58000   2.273  12.442   0.383 -0.0619  0.1994  0.0964
    1W        W58001  29.507  13.730   0.648  0.1152  0.2294  0.1318
    1W        W58002  27.269  23.825   7.928 -0.1760  0.1197  0.1091
    1W        W58003  20.086  18.494   2.082  0.0673 -0.0265 -0.0179
    1W        W58004  27.892   6.307   9.044  0.0991 -0.2203  0.2749
    1W        W58005   9.860  17.752   1.665  0.2134  0.2013 -0.1132
    1W        W58006  14.103  27.902   0.507  0.0471  0.2165  0.4248
    1W        W58007  25.770   0.351   2.842 -0.1118  0.0009 -0.0585
    1W        W58008  20.051  23.278   7.713  0.3399  0.1667  0.0568
    1W        W58009  28.590   9.056   1.808  0.0203  0.1065 -0.2271
    1W        W58010  27.133  15.213   9.552  0.2398  0.2363 -0.0680
    1W        W58011  10.717  26.949   7.692  0.1097  0.1575  0.1045
    1W        W58012  23.942   5.482   0.298 -0.3543  0.1376  0.3048
    1W        W58013  29.197   8.718   2.476  0.0627  0.2010 -0.0497
    1W        W58014  29.372  27.927   2.343  0.3807  0.0983  0.1199
    1W        W58015  10.567   9.807   2.762 -0.1042  0.1058  0.0727
    1W        W58016  29.401  12.334   0.803  0.0291 -0.0666 -0.1945
    1W        W58017  12.271  19.596   9.502 -0.0446 -0.1292 -0.0391
    1W        W58018  29.607   7.065   0.712 -0.0596 -0.1809 -0.0932
    1W        W58019   3.693   6.115   7.111 -0.2574 -0.2566 -0.0978
    1W        W58020  28.512  14.495   7.330  0.1133 -0.1228  0.1004
    1W        W58021  27.783   3.126   2.791 -0.2402  0.1424 -0.0410
    1W        W58022  24.495  23.515   7.039 -0.3997 -0.2590  0.1840
    1W        W58023  13.382  19.436   1.940  0.4445  0.0869 -0.1857
    1W        W58024   1.214   9.181   1.559  0.5913  0.0114 -0.2706
    1W        W58025  12.042  21.799   8.710  0.0883  0.1047 -0.0009
    1W        W58026   9.029   6.928   2.468  0.0680 -0.0396  0.0139
    1W        W58027  16.140   3.293   2.799 -0.0118 -0.0927 -0.1384
    1W        W58028   4.082  22.698   8.290  0.0982  0.0972  0.1802
    1W        W58029  26.193   8.995   1.347  0.2399  0.2732 -0.0081
    1W        W58030  25.741   8.667   1.564  0.2346 -0.0963  0.3583
    1W        W58031  29.227   6.534   1.861 -0.0624  0.0626  0.2490
    1W        W58032   6.863  16.924   1.976 -0.0336  0.0702 -0.1236
    1W        W58033  23.917   2.551   0.227 -0.0165  0.0721  0.1701
    1W        W58034  22.484   4.831   8.276  0.4617  0.0654  0.0735
    1W        W58035  17.850  28.527   9.495  0.0826  0.2123  0.0856
    1W        W58036  24.172  26.145   1.501  0.2242 -0.0871 -0.0492
    1W        W58037  15.222  18.388   9.029 -0.0397  0.0809 -0.2347
    1W        W58038   0.074  14.849   8.971 -0.0997  0.0263  0.1604
    1W        W58039  28.136   4.556   6.054  0.0522  0.1940  0.0396
    1W        W58040  24.240   7.190   1.054  0.1552 -0.1799  0.1038
    1W        W58041  10.876   3.556   1.054  0.5082  0.3673  0.0802
    1W        W58042   1.442  11.699   8.990  0.0237 -0.4159  0.2509
    1W        W58043   5.102  26.128   1.721 -0.1370 -0.1267  0.1367
    1W        W58044  10.960   2.766   9.153  0.1238 -0.0115  0.1065
    1W        W58045  25.582  19.293   0.280 -0.1773  0.0006  0.0316
    1W        W58046   2.542  15.477   9.021 -0.0244  0.1071 -0.0442
    1W        W58047   8.222   5.692   3.751  0.1877 -0.1183  0.0997
    1W        W58048   3.948   7.249   1.414 -0.3021  0.1874  0.1292
    1W        W58049  21.750  18.392   0.178 -0.1990  0.2249  0.0635
    1W        W58050   8.495  12.887   9.233  0.2654 -0.1056 -0.2591
    1W        W58051   9.212  26.518   2.616  0.1900  0.2225 -0.0653
    1W        W58052   0.406  29.757   7.403 -0.0419  0.0143  0.1035
    1W        W58053  22.504  15.425   9.430  0.1309 -0.2941 -0.2940
    1W        W58054  23.496   6.928   1.019 -0.3292  0.2410  0.1272
    1W        W58055  16.350   3.087   9.452  0.2000  0.0294 -0.0945
    1W        W58056  16.617   9.999   9.003 -0.2042 -0.2878 -0.0512
    1W        W58057  26.751  18.246   1.151 -0.0104  0.4208  0.0961
    1W        W58058  19.429  23.338   1.624  0.2186  0.2458 -0.0116
    1W        W58059  22.377  13.389   1.007  0.0498 -0.0301  0.0682
    1W        W58060  17.356  27.531   7.601  0.4122 -0.0287  0.2608
    1W        W58061  12.460  13.418   2.361  0.0621  0.2047  0.0048
    1W        W58062  29.172   0.922   0.709  0.0479  0.0271 -0.0584
    1W        W58063  23.251  17.166   5.815 -0.0548 -0.0503  0.2680
    1W        W58064  28.416  20.456   7.620 -0.0368 -0.0998  0.0869
    1W        W58065   9.231   7.928   7.958 -0.1968 -0.0702  0.1756
    1W        W58066  19.580  28.223   1.043 -0.2770 -0.0012  0.0941
    1W        W58067  24.240  13.383   0.863  0.1086  0.1768  0.0578
    1W        W58068   1.640   1.080   2.391  0.2555  0.3431  0.0972
    1W        W58069  11.483   3.107   2.200  0.0825 -0.1361 -0.0225
    1W        W58070  16.977  16.914   3.123 -0.1056  0.0232  0.0302
    1W        W58071  26.651   4.364   8.263 -0.2110 -0.0823  0.0737
    1W        W58072  20.084  20.197   9.247 -0.0132  0.0971 -0.1710
    1W        W58073  10.552   3.480   2.850 -0.0548  0.0527  0.4728
    1W        W58074   1.032  11.983   1.591  0.2128 -0.2545 -0.2236
    1W        W58075  28.082   7.322   9.177 -0.1047  0.4331  0.2095
    1W        W58076  16.863  27.442   2.310 -0.1802 -0.1688 -0.1677
    1W        W58077  15.533   1.908   7.518  0.0032  0.0819 -0.0048
    1W        W58078  19.784  11.909   7.525  0.1466 -0.2974  0.0627
    1W        W58079  21.918  19.843   7.027 -0.1944 -0.1180 -0.4430
    1W        W58080   7.115   9.877   9.177 -0.1147  0.0055 -0.0875
    1W        W58081  13.746  19.938   1.158  0.0045 -0.0362  0.1632
    1W        W58082  26.416   7.574   6.560  0.1549  0.2763 -0.0850
    1W        W58083  11.910  11.029   7.549  0.1348  0.1100  0.0581
    1W        W58084  13.000   2.857   2.707  0.1497 -0.2525  0.1701
    1W        W58085   6.040  18.320   7.855  0.2767 -0.0457 -0.0711
    1W        W58086   3.311  28.218   0.111 -0.2134  0.2882 -0.0083
    1W        W58087   7.073  27.693   8.875  0.0743 -0.1099 -0.3197
    1W        W58088  27.125  13.889   8.791 -0.0308 -0.0968 -0.2729
    1W        W58089  11.870  10.895   6.937  0.1323 -0.2603  0.1095
    1W        W58090  16.082  27.806   7.797  0.2669  0.1931 -0.2657
    1W        W58091  27.103  21.267   1.690  0.2930  0.0423  0.0089
    1W        W58092  17.374   9.025   8.249  0.1623  0.2756  0.3959
    1W        W58093  12.334   1.826   8.722  0.1152 -0.0615 -0.4397
    1W        W58094  27.361  24.910   8.071  0.1668  0.0635 -0.0309
    1W        W58095  24.370  21.265   8.645  0.1800 -0.0233  0.0952
    1W        W58096  19.816  13.444   7.913 -0.0138 -0.1467 -0.0057
    1W        W58097  25.114  11.223   1.060 -0.1973 -0.2071 -0.1824
    1W        W58098  20.095  14.245   1.341 -0.3636 -0.3241  0.0872
    1W        W58099   5.315  26.593   1.606 -0.1735 -0.0997 -0.2400
    1W        W58100   9.637  15.132   7.644  0.0313  0.1909 -0.2645
    1W        W58101   5.827  28.726   0.415  0.0150 -0.2625  0.1901
    1W        W58102   8.569  24.823   2.281  0.1258  0.3796  0.1347
    1W        W58103  27.216  22.473   6.861  0.0564  0.2597  0.1509
    1W        W58104  19.556   0.198   9.447  0.1598 -0.0236  0.0046
    1W        W58105  13.766  18.342   7.560 -0.0073  0.0532  0.1757
    1W        W58106  25.797  16.458   8.185 -0.1894  0.1816 -0.2149
    1W        W58107  20.501  25.095   7.318 -0.0932  0.0399  0.1297
    1W        W58108   7.127  12.581   0.693  0.0487  0.0940 -0.1501
    1W        W58109  17.305  24.464   2.331 -0.0790  0.0400 -0.0193
    1W        W58110  24.651  19.154   6.994 -0.0602 -0.0621 -0.0350
    1W        W58111   9.906  15.792   1.983 -0.1958 -0.0926 -0.1213
    1W        W58112  17.352  12.834   1.990  0.1207 -0.1807  0.1230
    1W        W58113  25.586  25.173   7.766 -0.1484 -0.2277  0.2251
    1W        W58114   2.029  23.894   1.472  0.1287  0.1004  0.0701
    1W        W58115  19.570  17.504   7.623  0.1246  0.0273 -0.0706
    1W        W58116   9.020  10.744   6.691  0.0927  0.0604 -0.2167
    1W        W58117  23.910   6.588   7.903 -0.0989  0.0520  0.3955
    1W        W58118  10.037  24.492   7.659 -0.0601  0.0640 -0.0146
    1W        W58119  12.623   7.416   2.541 -0.5030  0.0900  0.0019
    1W        W58120  25.225  12.880   6.628  0.2455  0.0410  0.2910
    1W        W58121  12.046   5.716   6.783  0.1436 -0.1744 -0.1227
    1W        W58122  11.858  10.095   7.097 -0.3646  0.3057 -0.3138
    1W        W58123   9.498  11.997   0.934  0.0660  0.1697 -0.0955
    1W        W58124   0.305  15.563   7.245 -0.1692 -0.0622 -0.0975
    1W        W58125   8.125  14.029   0.777 -0.1509 -0.0170  0.1511
    1W        W58126   7.294   8.231   8.419  0.1132 -0.0806 -0.2323
    1W        W58127   9.783   1.674   9.024 -0.0104 -0.5979 -0.3519
    1W        W58128  23.666  28.408   8.403  0.3932 -0.1791  0.0803
    1W        W58129   9.225  18.875   1.345 -0.1195 -0.0670 -0.0663
    1W        W58130  14.835  23.045   0.152 -0.1482  0.0634 -0.1561
    1W        W58131  12.397   8.017   7.580 -0.1928 -0.0775 -0.0275
    1W        W58132   0.779  12.445   1.606  0.2159 -0.3356 -0.0966
    1W        W58133  17.171   1.600   7.873 -0.1671 -0.0153  0.1804
    1W        W58134  23.883  27.078   2.694 -0.0059 -0.1165  0.2333
    1W        W58135  18.558  13.323   6.163  0.0379  0.1256  0.0787
    1W        W58136   2.692  18.290   0.996  0.0621 -0.0403  0.2298
    1W        W58137  26.245  10.039   0.421  0.2453 -0.1471  0.0340
    1W        W58138  25.555  15.891   0.613 -0.1027  0.1105  0.0680
    1W        W58139  27.012   4.336   8.627  0.0161  0.3744  0.2205
    1W        W58140  13.763  19.269   8.398 -0.1226 -0.1242  0.2502
    1W        W58141  13.672  27.786   0.163  0.0144 -0.4283  0.1307
    1W        W58142  13.514  20.987   8.911  0.0202  0.0461  0.3048
    1W        W58143  14.253   7.990   2.550  0.0021 -0.0270 -0.1447
    1W        W58144  15.647   0.961   2.787 -0.0226 -0.0448 -0.1680
    1W        W58145   7.323  17.443   1.218 -0.1708 -0.2594 -0.0416
    1W        W58146  20.978   2.271   7.677  0.0959 -0.2688 -0.2619
    1W        W58147   8.452  20.364   7.451  0.0395 -0.2996  0.2269
    1W        W58148  18.273  17.903   1.812  0.1023 -0.2251  0.1097
    1W        W58149  20.910   8.448   1.305 -0.0200  0.1278  0.1732
    1W        W58150  26.067  16.889   8.271 -0.0386  0.1605  0.0901
    1W        W58151  21.924  16.489   0.803 -0.0328  0.2362 -0.1161
    1W        W58152  13.203  15.991   1.016 -0.0913 -0.1160  0.0610
    1W        W58153   0.263  22.491   2.778  0.1400  0.3483 -0.1582
    1W        W58154  13.990  28.614   1.368  0.0052  0.1042 -0.0993
    1W        W58155  16.223  29.633   7.243 -0.4000 -0.0281  0.0448
    1W        W58156  17.858  15.494   8.703 -0.2435  0.0238  0.2698
    1W        W58157  13.951  21.779   2.518  0.0262  0.1017  0.1307
    1W        W58158  24.451   6.141   2.745  0.0378  0.0401  0.0885
    1W        W58159   2.522  20.655   0.090  0.1316 -0.0561  0.0355
    1W        W58160  19.652   3.977   1.177  0.0523  0.1950  0.0642
    1W        W58161   8.990  23.710   1.997  0.3681 -0.1373  0.1119
    1W        W58162  12.440  25.159   8.093 -0.1421  0.1965  0.0415
    1W        W58163  24.129   1.843   2.807 -0.0721 -0.1838 -0.0242
    1W        W58164  27.849  25.422   0.120  0.0909 -0.0191  0.1791
    1W        W58165  19.881  16.101   1.744 -0.1366 -0.0458  0.2615
    1W        W58166  24.188  27.802   6.756  0.4465  0.2275  0.0581
    1W        W58167  11.908   7.966   3.205 -0.2432  0.3431  0.0990
    1W        W58168  13.033   2.068   3.203  0.1793  0.0558 -0.1091
    1W        W58169  17.383   3.467   0.222  0.1212  0.2454  0.0721
    1W        W58170  25.615  29.194   8.160 -0.1341  0.1415 -0.0542
    1W        W58171   9.075  10.143   8.858 -0.1979  0.0733  0.0033
    1W        W58172  15.103  19.389   7.967  0.1237  0.0523  0.0695
    1W        W58173  15.772   3.516   7.498  0.0027  0.0323 -0.0086
    1W        W58174  23.108  14.157   6.609 -0.2233  0.0912 -0.0588
    1W        W58175  12.870  25.194   9.464 -0.0189 -0.1088  0.1185
    1W        W58176  18.680  17.537   1.710 -0.5440 -0.2158  0.0944
    1W        W58177   1.211  26.508   8.922 -0.0830  0.1379  0.0274
    1W        W58178  14.851  18.349   1.398  0.1158 -0.0626 -0.0864
    1W        W58179  21.539  13.581   8.542 -0.0412  0.1625 -0.3287
    1W        W58180  10.757  18.980   8.516  0.2296  0.0787 -0.2403
    1W        W58181  11.782  13.003   8.590  0.0612 -0.0400  0.2387
    1W        W58182   0.175  14.772   9.457 -0.0814 -0.1157 -0.2532
    1W        W58183  21.520   8.535   7.889 -0.1903  0.3008  0.0246
    1W        W58184  18.845  29.783   2.732 -0.0157 -0.0107 -0.3752
    1W        W58185  11.870  15.043   2.122 -0.0338  0.0129  0.1382
    1W        W58186   7.000  20.686   0.774  0.0671 -0.0976 -0.0626
    1W        W58187  14.782   9.027   9.082 -0.3783  0.1565  0.0526
    1W        W58188  25.884   0.574   8.935  0.4182  0.3273  0.3227
    1W        W58189  10.303   4.554   8.213  0.1984  0.1506 -0.1049
    1W        W58190   7.796  13.810   8.569  0.1056  0.2125 -0.2691
    1W        W58191  20.631   4.355   1.286  0.1040  0.1162  0.0816
    1W        W58192  24.568  13.217   9.129 -0.0497  0.1528 -0.0672
    1W        W58193   0.806  24.908   2.461  0.0599 -0.1596 -0.1605
    1W        W58194   7.195  24.301   8.732  0.1357 -0.0144  0.3534
    1W        W58195   3.287  14.439   0.655  0.0980 -0.0914 -0.0845
    1W        W58196  16.162  23.537   0.216 -0.1339 -0.1804 -0.2099
    1W        W58197   6.517  22.603   1.532  0.1119  0.2380  0.0335
    1W        W58198  22.195  25.253   9.186 -0.2609 -0.4399  0.0212
    1W        W58199  17.489  19.695   8.817  0.2818  0.2679 -0.0057
    1W        W58200  18.553  18.813   1.193 -0.2199  0.1937  0.1654
    1W        W58201   2.675  27.647   0.969 -0.1147  0.2811  0.1785
    1W        W58202   4.140  16.176   0.205  0.2123 -0.1576  0.2778
    1W        W58203  22.713  22.524   6.326  0.2716 -0.4257  0.1095
    1W        W58204  13.171   2.220   0.115  0.3035 -0.0885 -0.3756
    1W        W58205   3.070  21.299   1.535  0.1030 -0.2509  0.2136
    1W        W58206  26.707  16.127   6.407 -0.2280  0.0176 -0.1486
    1W        W58207  10.106  25.854   2.354  0.0979 -0.1481  0.0876
    1W        W58208  26.743  25.269   0.000 -0.0261 -0.1474 -0.0215
    1W        W58209  18.922  29.264   1.560  0.1959 -0.2927 -0.1476
    1W        W58210  17.248   5.199   2.905 -0.2781  0.0930 -0.1859
    1W        W58211  23.400  18.022   1.131  0.2359  0.0328 -0.1011
    1W        W58212  24.106  25.810   8.517 -0.0257 -0.1902  0.2722
    1W        W58213   1.092   0.420   8.609 -0.0687 -0.0192 -0.1443
    1W        W58214  17.091   1.945   8.359  0.1995 -0.3061 -0.1301
    1W        W58215   0.063   5.965   7.597 -0.0624 -0.0204  0.3641
    1W        W58216   2.102   5.526   6.804  0.0778  0.1854 -0.1135
    1W        W58217   0.417   2.783   1.234  0.1519  0.0390  0.2768
    1W        W58218  19.308   8.516   2.068  0.1016  0.2782  0.1083
    1W        W58219  25.667  12.710   5.909 -0.1933  0.0638  0.0023
    1W        W58220   7.094  12.320   2.424 -0.1509 -0.0770 -0.1026
    1W        W58221   5.043  24.689   1.297 -0.4747 -0.1941 -0.2470
    1W        W58222  29.544   9.638   8.516  0.0795  0.0769  0.0547
    1W        W58223  12.334  23.118   5.784 -0.1252 -0.1023  0.0510
    1W        W58224  16.848   5.166   2.464 -0.0560  0.2426  0.1355
    1W        W58225  19.424  10.537   1.060 -0.1761  0.0306 -0.1181
    1W        W58226   2.768   3.406   0.318 -0.2273  0.2809  0.1515
    1W        W58227  14.928  20.063   1.858 -0.1499  0.0227  0.1042
    1W        W58228  28.323  24.327   2.060 -0.0158 -0.1295  0.1190
    1W        W58229  18.487  29.702   2.250 -0.1311 -0.1595  0.2090
    1W        W58230  29.081  11.428   6.428 -0.1767 -0.2341 -0.1309
    1W        W58231  15.745  19.243   9.064 -0.2488 -0.1377  0.1983
    1W        W58232   8.409  19.960   7.906  0.3990  0.1508 -0.1245
    1W        W58233   8.926   1.742   9.278  0.0325  0.0842 -0.0406
    1W        W58234   3.435   7.244   0.703  0.4397 -0.0716 -0.1330
    1W        W58235  28.331   8.870   1.056 -0.0945 -0.1372 -0.0029
    1W        W58236  12.164  16.352   0.780 -0.1258 -0.1764 -0.1233
    1W        W58237  13.370  27.122   0.557 -0.0974  0.1555 -0.1757
    1W        W58238   7.444   5.719   2.734 -0.5395  0.0472  0.1885
    1W        W58239   2.236  29.349   1.522  0.1970 -0.3722  0.2447
    1W        W58240  24.336  18.235   8.894 -0.2307  0.2150 -0.0411
    1W        W58241  14.825  28.978   6.482  0.4444 -0.1038  0.0874
    1W        W58242  12.726   2.355   6.233 -0.1033 -0.2922  0.0824
    1W        W58243  16.952  13.331   8.387 -0.0205 -0.1535 -0.0074
    1W        W58244   7.230  22.678   0.717 -0.0285 -0.1015  0.0227
    1W        W58245  24.889   3.666   0.859  0.0147 -0.0735 -0.1676
    1W        W58246  24.525  13.035   7.227 -0.0523 -0.3868  0.0730
    1W        W58247  21.197  28.168   2.229  0.2156 -0.2217 -0.1330
    1W        W58248   6.312  22.511   8.241 -0.2913 -0.0099 -0.2692
    1W        W58249  18.263  28.550   2.900 -0.2780 -0.1567  0.0991
    1W        W58250  27.918  17.506   1.130  0.0383  0.1237 -0.1983
    1W        W58251  15.226  16.092   7.507 -0.0778 -0.0050 -0.0621
    1W        W58252  20.042  15.151   5.717 -0.0841 -0.0802  0.1927
    1W        W58253   3.224  23.732   8.130 -0.3804 -0.1120  0.2059
    1W        W58254   6.462  25.381   8.017  0.2263  0.2452 -0.0856
    1W        W58255  12.815   7.769   1.335  0.1374  0.1598  0.1115
    1W        W58256  10.213   3.189   2.471 -0.0915  0.0127  0.2031
    1W        W58257  15.761   5.417   7.877  0.0247 -0.1283 -0.1166
    1W        W58258  19.491  13.776   7.707  0.0036  0.0024 -0.1360
    1W        W58259  29.536  17.790   0.929  0.1067  0.0096 -0.2818
    1W        W58260   8.695   1.685   1.968  0.0516 -0.1721  0.1428
    1W        W58261   5.363  17.968   8.729 -0.3144  0.0155  0.0029
    1W        W58262  27.882   2.488   7.407 -0.1142 -0.1884  0.3203
    1W        W58263  10.150  25.022   1.040  0.2366  0.0303 -0.0767
    1W        W58264  20.845  28.253   7.520 -0.3389 -0.1326  0.4710
    1W        W58265  25.741  20.165   5.677 -0.1157  0.0374 -0.1474
    1W        W58266   2.220  18.231   1.568 -0.0005  0.2203  0.0936
    1W        W58267  22.361  28.000   2.586  0.3195 -0.2265  0.0284
    1W        W58268  15.568  14.250   8.596  0.2872 -0.2248 -0.2139
    1W        W58269   2.641  17.018   8.040  0.0270  0.3286 -0.0257
    1W        W58270   1.574   1.264   1.017  0.0260 -0.1898  0.0788
    1W        W58271   6.441  12.809   2.450 -0.3435 -0.1979  0.1471
    1W        W58272   3.376   8.077   9.218  0.0003 -0.1651  0.0202
    1W        W58273  12.152   7.332   2.283 -0.0497 -0.1369 -0.2157
    1W        W58274  29.419  13.036   0.205  0.2213  0.1380 -0.0209
    1W        W58275  12.169   3.283   2.791  0.3824 -0.1936 -0.0501
    1W        W58276  12.947  26.327   9.262 -0.0767  0.4723 -0.0503
    1W        W58277  21.626   1.622   1.098 -0.3569  0.0717  0.0441
    1W        W58278  17.425   3.692   8.925  0.0502  0.2164 -0.1632
    1W        W58279   6.698  16.464   7.355 -0.3723 -0.0597 -0.1378
    1W        W58280  19.306   9.308   1.038  0.0875 -0.1212 -0.0540
    1W        W58281  20.217   5.322   7.838 -0.0203 -0.2624  0.4426
    1W        W58282   9.705   7.457   8.994  0.0599 -0.2271 -0.0506
    1W        W58283   3.072  25.490   7.431  0.2122  0.1378  0.0389
    1W        W58284   3.395   5.018   2.694  0.0013 -0.1213  0.0523
    1W        W58285  18.295  27.078   2.649 -0.0134  0.1372  0.1304
    1W        W58286  23.180  21.518   7.156  0.0245  0.0733  0.1772
    1W        W58287  11.465  28.490   3.605  0.4735  0.1287 -0.3108
    1W        W58288   7.259  28.103   8.637  0.0472  0.3792 -0.0111
    1W        W58289  25.663   5.774   9.346 -0.2916  0.2947 -0.2096
    1W        W58290  20.261  25.549   7.484 -0.0977 -0.1158 -0.2430
    1W        W58291  13.710   6.065   8.907 -0.1642  0.2880 -0.0048
    1W        W58292   8.701  10.173   7.740 -0.1331 -0.1615  0.4060
    1W        W58293  23.897  29.621   2.194  0.0127  0.1146 -0.0552
    1W        W58294   7.929  28.474   7.011  0.3147  0.0826 -0.2845
    1W        W58295  19.783  13.462   8.407 -0.1497  0.0207  0.1765
    1W        W58296  21.203   8.790   9.134 -0.2118 -0.0335  0.2417
    1W        W58297   3.693   8.999   0.547 -0.0055 -0.2371  0.1309
    1W        W58298   2.270  27.314   9.413 -0.3443 -0.0398 -0.3093
    1W        W58299   8.570   1.117   2.734 -0.0598 -0.0495 -0.2048
    1W        W58300  14.688  27.187   6.539  0.0564  0.2041  0.1150
    1W        W58301   7.213  17.612   0.622  0.0878 -0.2015 -0.2634
    1W        W58302  24.319  27.872   7.601  0.1871  0.1918 -0.2632
    1W        W58303   2.200   4.648   7.153 -0.0786 -0.3389  0.0597
    1W        W58304  27.560  13.268   7.499  0.3502 -0.3508  0.0020
    1W        W58305  16.391  16.660   2.596  0.0099  0.0615 -0.4937
    1W        W58306  28.188   0.991   8.353  0.1729  0.1508 -0.0127
    1W        W58307  10.387  27.221   6.893 -0.1456 -0.3363 -0.1198
    1W        W58308  17.138  16.149   6.124  0.0301  0.3241  0.1627
    1W        W58309  25.144   8.592   1.962 -0.1988  0.0149  0.0003
    1W        W58310  29.337  16.353   8.481  0.1665 -0.2857  0.0357
    1W        W58311  25.811   3.819   7.252 -0.0838 -0.0025  0.3244
    1W        W58312   6.965  20.477   0.340  0.0301  0.1475  0.1716
    1W        W58313  24.627   7.612   0.831 -0.0532 -0.0653 -0.1352
    1W        W58314  27.894  19.699   1.126  0.0368 -0.0814  0.0343
    1W        W58315  14.061   7.340   1.279 -0.0544  0.1368 -0.0619
    1W        W58316   2.981   7.216   7.182  0.1034  0.2375 -0.3222
    1W        W58317  10.296   9.261   8.808  0.0382 -0.1398  0.0552
    1W        W58318   8.905  26.863   7.517  0.0997 -0.0894  0.3149
    1W        W58319   9.716  12.932   2.685  0.0278  0.1732 -0.0751
    1W        W58320  15.906  28.825   0.357 -0.1754  0.4242 -0.2116
    1W        W58321  26.639  29.638   3.252  0.3987  0.0292 -0.3673
    1W        W58322   9.437   9.332   8.215 -0.0570  0.1977  0.4537
    1W        W58323  21.316  13.759   7.334  0.1087  0.1518  0.1550
    1W        W58324  20.897   9.253   0.971  0.4039  0.0719  0.0358
    1W        W58325  18.110   1.120   0.285  0.1339  0.0366  0.2771
    1W        W58326  25.401   0.864   2.865 -0.2089 -0.2257 -0.1699
    1W        W58327   9.944  20.077   8.839 -0.4673 -0.2692  0.2388
    1W        W58328  16.136   8.296   0.145  0.3755 -0.3087 -0.0699
    1W        W58329  23.639  21.940   8.477 -0.2078  0.1402  0.1080
    1W        W58330  16.396  17.542   8.111  0.0578  0.0836  0.0319
    1W        W58331   7.871  26.450   3.518  0.3161  0.0006  0.2504
    1W        W58332  22.322   1.543   4.108 -0.1920 -0.3057 -0.2694
    1W        W58333   8.880  29.648   1.943 -0.1344  0.0158 -0.1330
    1W        W58334  21.790   7.027   3.752 -0.1843 -0.1106  0.0408
    1W        W58335  20.122  16.988   1.757 -0.0027 -0.1522 -0.1808
    1W        W58336  21.069  27.337   2.112  0.3054 -0.2202  0.1816
    1W        W58337  26.508  23.538   1.261 -0.3960 -0.3529  0.0043
    1W        W58338   8.231   6.650   9.305 -0.1853 -0.2069  0.0964
    1W        W58339   0.297  19.747   1.003  0.0545 -0.0313  0.0125
    1W        W58340   4.095  17.276   0.543  0.4886 -0.0676 -0.2984
    1W        W58341   3.027   7.742   8.962  0.4581  0.0818  0.2571
    1W        W58342  26.637  14.352   5.801 -0.0310 -0.0294 -0.1862
    1W        W58343  13.503  28.484   6.857 -0.2859  0.0072 -0.3783
    1W        W58344   2.634  23.796   8.511 -0.0206  0.2375 -0.1706
    1W        W58345  13.042   4.696   9.092 -0.1968  0.0544 -0.0271
    1W        W58346   0.185  29.062   2.016  0.2251 -0.0325 -0.2561
    1W        W58347  14.091  20.546   7.534  0.2944 -0.2800  0.0736
    1W        W58348  18.644  14.629   0.854  0.1879  0.1314  0.1079
    1W        W58349  24.765  18.791   6.182  0.0198 -0.1723 -0.1855
    1W        W58350   8.663   4.783   8.221  0.2484 -0.0064  0.1537
    1W        W58351  22.925   4.537   1.174  0.3671  0.2494 -0.0601
    1W        W58352  24.774  15.413   1.345  0.0259  0.2522  0.0813
    1W        W58353  17.563  20.321   8.396  0.1485 -0.0825  0.0595
    1W        W58354  22.154  28.481   2.681 -0.1454 -0.0103 -0.2592
    1W        W58355  14.314   7.416   0.797  0.1998  0.3282  0.0953
    1W        W58356  26.933  21.343   7.990  0.0742 -0.0566  0.0394
    1W        W58357  29.767   7.262   8.671  0.5335  0.0183 -0.0848
    1W        W58358  18.966  28.223   0.220  0.2245  0.1102 -0.2454
    1W        W58359   9.251  23.159   7.705 -0.1080 -0.0673 -0.1134
    1W        W58360  19.365   3.813   2.792  0.0423  0.2225  0.1647
    1W        W58361  11.961  26.600   9.378 -0.0149 -0.2473 -0.0825
    1W        W58362  23.316  18.332   0.710 -0.2445 -0.3379 -0.1177
    1W        W58363   5.354  13.885   1.136  0.1641  0.1925 -0.2207
    1W        W58364  21.182  12.977   6.815 -0.2416 -0.2299  0.2207
    1W        W58365  20.908  14.518   0.608 -0.1620  0.2400  0.0527
    1W        W58366  22.173  19.567   0.428 -0.4073 -0.4817  0.5025
    1W        W58367  21.045  15.687   1.022  0.0258 -0.0254 -0.0352
    1W        W58368  24.744   6.476   2.380 -0.0692 -0.2639 -0.0580
    1W        W58369   6.293  26.824   2.874  0.3676 -0.2208 -0.1798
    1W        W58370  14.648  18.392   0.033  0.1618 -0.4692 -0.2973
    1W        W58371   3.382  13.668   1.583  0.0013  0.1963 -0.1344
    1W        W58372  13.485  22.589   8.189 -0.2581  0.0781  0.0219
    1W        W58373   2.467  24.283   8.487 -0.0716 -0.0903 -0.3011
    1W        W58374  14.636  15.074   1.481 -0.0171 -0.0572 -0.0067
    1W        W58375  23.046   1.201   1.114  0.2213 -0.0630 -0.0326
    1W        W58376  24.423   3.765   2.926 -0.1114 -0.2302  0.2629
    1W        W58377  26.002  19.912   6.616 -0.1465  0.0375 -0.0589
    1W        W58378  29.066  15.644   1.481  0.0103 -0.0099 -0.1252
    1W        W58379   1.356   6.251   3.200  0.0143 -0.2040 -0.0179
    1W        W58380  13.658   5.071   1.825  0.0732  0.1770  0.2894
    1W        W58381  20.109   4.438   3.248  0.3711  0.3348 -0.0596
    1W        W58382   5.519  12.753   2.216  0.1370  0.0994  0.2049
    1W        W58383  13.123  25.378   7.002 -0.1287  0.2004  0.1190
    1W        W58384  19.585  17.746   1.547  0.1313  0.0200  0.1684
    1W        W58385  12.926  25.184   7.385  0.0653  0.1143 -0.1083
    1W        W58386   6.846  17.252   8.788  0.1750  0.1486  0.0756
    1W        W58387  18.418   2.723   9.333 -0.0913 -0.3145  0.0504
    1W        W58388   1.483  16.955   1.674  0.1083 -0.3750 -0.0994
    1W        W58389  17.032  19.535   7.099  0.0121 -0.2917  0.0112
    1W        W58390  10.155   3.793   7.613 -0.2378 -0.3035 -0.1642
    1W        W58391  20.197  16.009   2.746 -0.0517 -0.1736 -0.6992
    1W        W58392  19.764   0.804   0.923  0.0887  0.2856  0.1982
    1W        W58393  10.591  25.828   2.251 -0.1845 -0.0271 -0.4694
    1W        W58394  28.211   0.342   2.773 -0.2745  0.0600  0.0993
    1W        W58395  28.791  19.639   1.576 -0.1564 -0.2614 -0.0984
    1W        W58396   2.390  17.727   7.279 -0.0829 -0.1551  0.1786
    1W        W58397  25.630  19.487   6.535  0.0080  0.1159 -0.1145
    1W        W58398  12.346   3.433   6.595 -0.1514  0.2997  0.1402
    1W        W58399   1.433  16.457   8.142  0.5406  0.0691 -0.1154
    1W        W58400  13.831   3.004   1.816  0.1648 -0.0547 -0.3720
    1W        W58401  18.312  26.909   7.082 -0.0044  0.2745  0.2313
    1W        W58402  21.019  25.861   2.777 -0.0548 -0.0711  0.1284
    1W        W58403  23.151   3.342   3.381  0.1248 -0.1149  0.0056
    1W        W58404  29.289   0.441   0.790 -0.1537 -0.1581  0.1224
    1W        W58405  10.812  22.588   6.852  0.0786 -0.0120  0.1073
    1W        W58406  14.686  18.133   1.849 -0.2314  0.4304 -0.1571
    1W        W58407  11.268   6.437   0.114 -0.1278 -0.1334  0.2327
    1W        W58408  17.976  15.365   1.292 -0.0694 -0.1997  0.0572
    1W        W58409  14.799  19.646   9.304 -0.2848 -0.1696  0.1151
    1W        W58410   6.733  11.515   8.825  0.0316 -0.1786  0.0652
    1W        W58411  13.467  15.477   0.906  0.1068 -0.2302 -0.0723
    1W        W58412   5.560  29.609   6.920  0.3942 -0.0570 -0.2389
    1W        W58413  27.518   4.567   6.114  0.2046  0.1144  0.2221
    1W        W58414  26.334   6.823   8.538 -0.4227  0.0990  0.3673
    1W        W58415  16.892   8.646   7.710 -0.1780 -0.1560 -0.2722
    1W        W58416  27.960   1.920   1.320  0.1270  0.0425 -0.2624
    1W        W58417   2.756  20.035   7.653 -0.1341  0.3376 -0.0048
    1W        W58418  10.807   1.439   1.682  0.3062  0.0478  0.2102
    1W        W58419  15.859   6.180   2.660 -0.2342 -0.1463 -0.0961
    1W        W58420  29.309  21.146   8.128  0.0249  0.1489 -0.2389
    1W        W58421   7.101  19.974   9.046  0.1376  0.3086  0.3317
    1W        W58422  13.211   8.180   3.336  0.1676  0.1705  0.3298
    1W        W58423   1.576  18.947   0.652 -0.1868  0.1084  0.2005
    1W        W58424   0.098  20.290   9.499  0.0888 -0.1413 -0.0983
    1W        W58425  24.584   7.659   7.349 -0.1555  0.1482  0.1431
    1W        W58426  22.514  23.306   8.854  0.1311  0.2164  0.2104
    1W        W58427  22.594  23.175   1.226  0.0154 -0.0380  0.0074
    1W        W58428  29.261  25.419   0.047 -0.0373 -0.1917  0.1147
    1W        W58429   7.274   7.028   1.591 -0.1524 -0.0726 -0.3328
    1W        W58430   3.191  17.121   7.937  0.2185  0.1540  0.1323
    1W        W58431  18.711  21.726   2.519  0.0850  0.1107 -0.0145
    1W        W58432  28.477  12.556   9.098 -0.1500 -0.3892  0.0262
    1W        W58433  11.506  10.403   1.487  0.0010 -0.1459 -0.0870
    1W        W58434   0.995  14.988   0.776 -0.3129  0.1410 -0.3485
    1W        W58435  15.545  22.486   0.380 -0.2186 -0.1528 -0.0504
    1W        W58436   8.200  20.811   8.520 -0.1141  0.1280 -0.1339
    1W        W58437  17.271   8.910   1.422 -0.0709 -0.0774  0.3175
    1W        W58438  20.820  27.194   2.898  0.5592 -0.0385 -0.0771
    1W        W58439  18.854  16.272   8.768  0.1634 -0.2911  0.0268
    1W        W58440   5.544   3.177   2.779 -0.0729 -0.1881 -0.1149
    1W        W58441   6.345  11.225   8.969 -0.1952  0.1305 -0.0547
    1W        W58442  24.379   2.579   1.676 -0.1453  0.0568  0.0914
    1W        W58443  18.020   0.991   8.109 -0.1913  0.3259  0.0590
    1W        W58444  26.202  15.180   8.465  0.0117  0.1785  0.0739
    1W        W58445   2.547  12.081   0.584  0.1150  0.1060  0.0498
    1W        W58446   9.886   8.000   3.046  0.2387  0.0431  0.0513
    1W        W58447   0.894  22.560   9.032  0.1690  0.0279 -0.1437
    1W        W58448   5.466   1.161   0.045 -0.3074 -0.0536 -0.0153
    1W        W58449  15.831  25.013   7.711 -0.2898 -0.0906  0.1889
    1W        W58450  13.838  27.355   0.380 -0.0909 -0.3272 -0.1772
    1W        W58451  12.594  19.271   1.892 -0.2856 -0.1942 -0.0658
    1W        W58452  28.868  10.888   7.003  0.0784  0.0507  0.5082
    1W        W58453   5.066   9.057   9.000 -0.1573  0.1274 -0.2108
    1W        W58454  16.025  17.819   0.471 -0.0902 -0.0154 -0.0285
    1W        W58455   7.498  18.546   0.615 -0.0949 -0.1089 -0.0251
    1W        W58456  17.229   2.159   7.129 -0.0383  0.2948 -0.2415
    1W        W58457  15.931  29.375   9.200 -0.3317 -0.1385 -0.0447
    1W        W58458  16.963  17.240   1.301  0.0140 -0.2198 -0.0407
    1W        W58459  28.146  16.237   8.493  0.1558 -0.2867  0.2488
    1W        W58460   3.718  18.902   8.632 -0.2025  0.0897  0.2547
    1W        W58461  21.129  25.811   7.720  0.1626  0.0004  0.2176
    1W        W58462   4.021   1.876   9.033  0.3834 -0.3204  0.0158
    1W        W58463   6.737  28.480   8.847 -0.0114  0.0489  0.0062
    1W        W58464  28.311   7.704   7.700 -0.0434  0.3534  0.0395
    1W        W58465  19.436  29.615   2.325  0.2559  0.2415  0.2640
    1W        W58466  27.951  16.000   6.467 -0.0713 -0.4767  0.0552
    1W        W58467  18.581  26.367   2.935  0.4892 -0.0904  0.0364
    1W        W58468  17.440  15.030   0.711  0.3129  0.1277 -0.1108
    1W        W58469  13.504   1.976   3.358 -0.0368 -0.1552  0.1114
    1W        W58470  18.668  14.228   8.315 -0.4321  0.1911  0.0262
    1W        W58471  19.427  28.383   7.221  0.1108  0.1805 -0.2829
    1W        W58472   1.882   9.233   7.092 -0.3081  0.0830  0.1752
    1W        W58473  28.229  20.364   9.525  0.0072  0.1537  0.1967
    1W        W58474  24.141  29.098   8.169  0.0484 -0.0913  0.1800
    1W        W58475  17.280  27.265   0.195  0.0496 -0.0642 -0.0995
    1W        W58476  10.921  10.966   7.816 -0.4224  0.0532  0.1484
    1W        W58477  12.238  20.368   7.751 -0.0589 -0.0002  0.1793
    1W        W58478  16.933  25.340   8.175  0.2936  0.1312 -0.2079
    1W        W58479   4.348  12.902   2.983 -0.0703 -0.1758 -0.1569
    1W        W58480  18.915   3.779   6.787 -0.0797 -0.0175  0.0591
    1W        W58481   4.918   7.759   0.942 -0.1359 -0.0192  0.1500
    1W        W58482  14.989  16.244   7.042 -0.3945 -0.1805  0.1229
    1W        W58483  27.014  12.573   9.096  0.0389 -0.3173 -0.4947
    1W        W58484  21.563  28.571   3.904 -0.0655 -0.3262  0.2922
    1W        W58485  22.102   7.539   2.742  0.2592 -0.0526 -0.0256
    1W        W58486  20.483  18.060   6.354  0.1738 -0.5292 -0.3277
    1W        W58487  11.689  14.178   9.199  0.0736 -0.1046  0.1446
    1W        W58488  22.982  13.332   0.246 -0.1374  0.0728  0.0012
    1W        W58489   7.951   9.586   2.745  0.0312  0.0144  0.0510
    1W        W58490  21.795  10.462   7.844  0.3554 -0.1330 -0.0636
    1W        W58491  19.091   6.558   8.994  0.0027 -0.0377  0.0593
    1W        W58492  27.183   4.133   0.036  0.0681  0.1696 -0.2228
    1W        W58493  22.546  25.177   9.544 -0.1460 -0.0286  0.2585
    1W        W58494   3.504   1.888   0.560 -0.1836  0.1659 -0.2517
    1W        W58495  12.807  20.828   9.209 -0.0683 -0.0673  0.0581
    1W        W58496   9.013   2.582   3.601  0.0825 -0.1121  0.0876
    1W        W58497   5.408   1.534   1.785  0.0435 -0.0146 -0.2707
    1W        W58498  16.366  26.494   2.720  0.0523 -0.0535  0.0134
    1W        W58499  23.483   2.558   2.693  0.0867 -0.1438  0.1122
    1W        W58500  20.174   0.304   1.422 -0.0530 -0.0540 -0.1157
    1W        W58501   3.430   8.441   8.189 -0.0022  0.0771  0.3397
    1W        W58502  14.260   8.345   7.231  0.1997  0.0869  0.3504
    1W        W58503  29.741  25.786   7.412 -0.3273  0.0865 -0.1192
    1W        W58504  16.697   4.450   0.882  0.2683  0.1979  0.0801
    1W        W58505  28.456  27.710   8.415 -0.0297  0.0815 -0.0890
    1W        W58506   0.063  10.447   8.410 -0.0486  0.1767 -0.0213
    1W        W58507   7.619  18.514   6.366  0.3397  0.1204  0.0029
    1W        W58508  28.787  15.702   8.932 -0.0368 -0.0926 -0.1663
    1W        W58509  24.444  14.496   9.137 -0.1170 -0.0947  0.1586
    1W        W58510  22.647  29.670   2.169 -0.1754 -0.2709 -0.1094
    1W        W58511   4.180  22.328   2.173  0.0420 -0.0342  0.2257
    1W        W58512  27.112  11.408   2.190 -0.1932  0.1300 -0.1099
    1W        W58513  11.322  11.106   8.103 -0.2009 -0.0484 -0.0387
    1W        W58514   5.667   0.591   2.459 -0.2224  0.1309 -0.1752
    1W        W58515  12.169  11.390   6.674 -0.3798  0.0496  0.0168
    1W        W58516  29.304  12.753   1.841 -0.1033  0.1974 -0.0974
    1W        W58517   6.688  22.885   9.167 -0.2480 -0.1224  0.0342
    1W        W58518  20.002  25.932   7.438  0.3200  0.1997  0.1137
    1W        W58519  17.096   4.208   0.942 -0.2783  0.1278  0.0331
    1W        W58520  22.536  25.641   0.908  0.2258 -0.2196 -0.1009
    1W        W58521  11.574   1.247   1.083  0.1302  0.0931  0.4581
    1W        W58522  14.257  29.769   1.551  0.1349 -0.0296  0.2685
    1W        W58523  17.676  28.196   9.215 -0.1513  0.3520  0.0118
    1W        W58524   3.240  13.362   8.279 -0.0120 -0.3239  0.2235
    1W        W58525   0.138  14.736   7.073  0.0663 -0.2338 -0.3015
    1W        W58526   1.702  29.231   7.294  0.0113  0.0905  0.2457
    1W        W58527  14.357   2.938   6.533  0.1141  0.1716  0.0987
    1W        W58528   3.105   3.773   0.345 -0.0283 -0.0477  0.3753
    1W        W58529  27.446  18.201   0.981 -0.3195 -0.0439 -0.1950
    1W        W58530   5.326   8.943   1.261 -0.3099 -0.1473  0.0103
    1W        W58531   0.494  25.941   8.256 -0.0540 -0.1040 -0.0334
    1W        W58532  11.194  24.333   1.864  0.0340 -0.0892 -0.0816
    1W        W58533  18.454  20.585   0.437  0.2504  0.2447  0.1285
    1W        W58534   7.317  26.324   9.435 -0.2259 -0.1304  0.1689
    1W        W58535  10.740   4.368   1.447 -0.0397  0.2501 -0.1174
    1W        W58536   1.255  27.724   9.292  0.1681 -0.0936 -0.1887
    1W        W58537   5.713  13.390   8.139 -0.1409 -0.1803 -0.2734
    1W        W58538  21.820   4.165   7.424  0.0474 -0.1919  0.0982
    1W        W58539   3.307   2.207   0.216 -0.0370  0.0563 -0.0026
    1W        W58540  21.001   2.753   1.213 -0.1528  0.2470 -0.0328
    1W        W58541   2.884   8.187   7.173 -0.2273  0.0363  0.2611
    1W        W58542  10.114   8.949   0.150  0.1476 -0.1362  0.1334
    1W        W58543  18.286  18.839   1.739  0.2838  0.3284 -0.0289
    1W        W58544   2.207  26.601   1.160 -0.0466 -0.1105 -0.1360
    1W        W58545   2.802   2.569   9.087  0.3285  0.1580  0.0877
    1W        W58546  29.267  14.016   8.597 -0.0929 -0.1116  0.0168
    1W        W58547  27.689  12.504   1.713 -0.0300 -0.1087  0.0801
    1W        W58548  18.178  15.505   2.078  0.0533  0.1053 -0.2752
    1W        W58549  18.731  15.561   9.195  0.0519 -0.0040 -0.1092
    1W        W58550  14.222  21.304   8.519 -0.0440  0.0654  0.0154
    1W        W58551   2.932  16.947   1.375  0.0797 -0.3747  0.3179
    1W        W58552   1.468  17.824   1.290 -0.0510 -0.1178 -0.1595
    1W        W58553  21.328   0.200   8.160  0.0215  0.0887 -0.1888
    1W        W58554  12.559   8.500   0.780  0.1168  0.0129  0.0568
    1W        W58555   4.502   5.931   0.921 -0.3720  0.0771 -0.0239
    1W        W58556  23.263  25.900   2.422  0.1301  0.1123  0.0468
    1W        W58557  11.874  13.690   0.635  0.0643 -0.0050  0.2616
    1W        W58558   3.375  27.419   1.919 -0.0984  0.0636  0.3489
    1W        W58559  16.562  27.775   0.040 -0.1074  0.0102 -0.0106
    1W        W58560  21.099  19.548   8.287  0.1862 -0.3101  0.0426
    1W        W58561  24.311  15.381   1.153  0.1843 -0.0168 -0.1340
    1W        W58562   4.662  28.434   1.249  0.2095 -0.1062 -0.0328
    1W        W58563  22.289   6.230   7.438 -0.0828 -0.0683  0.1325
    1W        W58564  10.262  17.802   7.600  0.1609 -0.0655 -0.1263
    1W        W58565  13.922  23.920   1.597 -0.1122 -0.0312  0.1463
    1W        W58566  22.728  16.957   5.950 -0.0175 -0.2727  0.0652
    1W        W58567  23.181  14.441   6.168 -0.3195 -0.4070  0.1547
    1W        W58568   2.286  15.134   0.230  0.0049 -0.0347 -0.2283
    1W        W58569  26.133   9.996   8.681 -0.2421 -0.2939  0.1185
    1W        W58570   0.857   0.676   2.825  0.0153  0.1103  0.1234
    1W        W58571   5.326   5.408   6.731 -0.4297 -0.0230 -0.1267
    1W        W58572  23.417  24.434   7.355 -0.0411 -0.1364  0.1476
    1W        W58573  13.069   5.369   7.647 -0.2504 -0.1950 -0.3175
    1W        W58574  21.295  23.232   8.517 -0.3100 -0.1022  0.0061
    1W        W58575  23.090  24.725   7.886  0.1718 -0.0605  0.1934
    1W        W58576  17.433  16.657   9.280  0.1653 -0.0885  0.2082
    1W        W58577  10.598   5.889   0.129  0.2027  0.2785 -0.1323
    1W        W58578  24.066  26.689   0.020  0.0268  0.3272 -0.0830
    1W        W58579   0.146  11.715   1.492 -0.0357  0.2853 -0.2285
    1W        W58580   1.282   0.221   1.403  0.0668  0.0654  0.1417
    1W        W58581   3.151  25.560   3.351 -0.1642 -0.1220 -0.1331
    1W        W58582  11.705   2.678   1.599  0.0891  0.3700 -0.0981
    1W        W58583   0.347  12.982   8.063  0.0777  0.1339 -0.1104
    1W        W58584   4.121  13.770   8.166  0.0932  0.1640 -0.1051
    1W        W58585   0.938   7.782   1.688 -0.1707 -0.2405 -0.1216
    1W        W58586  15.036   7.257   2.783  0.3524 -0.0057 -0.0194
    1W        W58587  15.474  23.673   8.736 -0.1227 -0.3148  0.0580
    1W        W58588  22.152   0.813   9.042  0.5429 -0.3004 -0.1302
    1W        W58589  26.249   3.754   9.277  0.1749  0.3316  0.4043
    1W        W58590  13.089   0.654   0.250  0.0116  0.1923 -0.1999
    1W        W58591  10.385  12.826   8.376 -0.3581 -0.0823  0.2724
    1W        W58592  10.529   6.531   3.788  0.0699  0.0372 -0.2364
    1W        W58593  28.626   0.648   1.820  0.0052  0.5532 -0.0442
    1W        W58594  11.931  15.266   0.388 -0.4178  0.3105 -0.2244
    1W        W58595  10.448  10.357   8.983  0.0979  0.0413  0.0449
    1W        W58596  14.321  22.812   8.328 -0.1347 -0.1279 -0.0549
    1W        W58597  13.563  19.617   1.523 -0.1292  0.2829  0.1612
    1W        W58598  11.027   4.574   7.754  0.0138 -0.1541 -0.1361
    1W        W58599   0.961   1.443   7.962  0.0640 -0.0879 -0.0749
    1W        W58600   3.487   2.960   8.671 -0.1348  0.0638 -0.2987
    1W        W58601  18.467   1.541   1.306  0.0588  0.0471  0.1674
    1W        W58602   2.866  24.618   8.324 -0.1006  0.0930 -0.1893
    1W        W58603   8.605  11.749   3.089 -0.0275 -0.0148  0.0254
    1W        W58604   0.091   3.709   9.472 -0.2147 -0.2046 -0.1715
    1W        W58605  22.010   4.713   0.194 -0.1713 -0.4052  0.1793
    1W        W58606   4.220  12.422   0.827 -0.3016  0.1867 -0.2997
    1W        W58607   2.635  12.134   1.641 -0.0900  0.3716  0.1252
    1W        W58608   5.123  13.439   8.327  0.0452 -0.1750  0.1036
    1W        W58609  24.631  15.452   6.037 -0.0964 -0.3543 -0.2182
    1W        W58610  12.477   9.587   0.772 -0.1557 -0.0332 -0.1866
    1W        W58611  28.813  18.702   7.158 -0.0827  0.1440 -0.2185
    1W        W58612   4.524  25.473   0.290  0.1321  0.0432 -0.1598
    1W        W58613   1.281  12.415   1.759  0.0474  0.0825  0.0112
    1W        W58614  29.097  22.860   0.357  0.2142  0.1925  0.2345
    1W        W58615  24.644  26.466   8.534  0.2237 -0.0688 -0.3412
    1W        W58616  11.380   1.706   2.006 -0.0939 -0.0057 -0.1193
    1W        W58617  27.543  28.824   2.939 -0.0351  0.0192  0.0613
    1W        W58618  16.979  10.691   2.692  0.1590  0.0673 -0.0290
    1W        W58619  14.627  13.814   3.316  0.1730  0.1217  0.3461
    1W        W58620  22.106   5.863   9.514 -0.1248  0.0255 -0.0359
    1W        W58621  15.217  28.774   2.730  0.1240 -0.1917 -0.2493
    1W        W58622   0.525  16.304   0.352  0.0642 -0.1079 -0.0370
    1W        W58623  21.127   1.118   9.241 -0.2073 -0.0308  0.0068
    1W        W58624   0.995  15.846   1.068 -0.2239  0.1207  0.4019
    1W        W58625   7.308   8.171   1.416 -0.1350 -0.0351  0.5614
    1W        W58626  23.409  21.129   6.346 -0.0763 -0.1391 -0.1079
    1W        W58627  11.218  22.417   1.761 -0.1064  0.3997 -0.1871
    1W        W58628  12.793  16.237   0.788 -0.2792  0.2428  0.0648
    1W        W58629   4.075  21.496   7.235 -0.0257  0.0665 -0.1560
    1W        W58630  13.030   1.268   0.904  0.0534 -0.0335  0.1138
    1W        W58631  19.771  14.542   9.257  0.0562 -0.1309 -0.1268
    1W        W58632  28.756   7.558   6.901  0.0360  0.1057 -0.1359
    1W        W58633   0.538  11.856   7.505  0.1214  0.1278  0.1045
    1W        W58634   2.777   8.331   7.684  0.0484  0.2127 -0.0121
    1W        W58635  16.550  28.719   8.268  0.0850 -0.2552 -0.1038
    1W        W58636   0.060   2.208   9.170  0.0407 -0.0606 -0.2310
    1W        W58637   1.006  11.621   7.772 -0.3997 -0.0317 -0.2340
    1W        W58638  16.169   1.035   9.048  0.2584 -0.1029 -0.1328
    1W        W58639   7.082  13.260   0.581  0.1469 -0.0148 -0.2722
    1W        W58640  16.612  15.312   1.013  0.0125  0.2491 -0.3676
    1W        W58641  24.280   2.333   2.842  0.0246  0.0356 -0.0945
    1W        W58642  20.393  11.693   6.546  0.3772  0.0182 -0.1237
    1W        W58643  23.285  20.580   2.132  0.1660 -0.2251  0.0646
    1W        W58644  23.939  12.921   0.942 -0.1481 -0.0059  0.1369
    1W        W58645  11.778  15.530   7.818 -0.0614  0.0404 -0.0368
    1W        W58646   1.140  20.071   0.808 -0.0873 -0.2323 -0.0487
    1W        W58647  25.380  15.385   8.428  0.3801 -0.1706  0.0235
    1W        W58648   5.812  28.048   8.029  0.0066  0.0959 -0.1076
    1W        W58649  21.731   6.804   3.305  0.0423 -0.3819  0.1957
    1W        W58650  17.853  16.410   0.244  0.0303 -0.1243  0.2091
    1W        W58651   1.511  25.936   2.618 -0.1054  0.0269 -0.1127
    1W        W58652  29.745  28.287   7.204  0.4543  0.2614  0.2391
    1W        W58653  20.805  25.318   0.980 -0.2980 -0.2267 -0.1266
    1W        W58654   5.176  14.267   7.356 -0.1769  0.1572  0.1379
    1W        W58655  12.824  20.404   7.788  0.4134  0.1925 -0.0159
    1W        W58656  16.963  28.515   9.072  0.3879 -0.0458  0.3894
    1W        W58657   4.279   8.671   7.980 -0.1000  0.1926 -0.2483
    1W        W58658   4.975   7.602   9.063  0.1047  0.0547 -0.4795
    1W        W58659  25.029   3.986   8.177  0.2268 -0.0903 -0.2367
    1W        W58660  23.526   7.217   1.882  0.0742 -0.0753  0.1017
    1W        W58661   5.795  29.124   0.027  0.1124 -0.0278 -0.0242
    1W        W58662  10.830  29.669   1.131  0.0074  0.2156  0.0148
    1W        W58663  21.185  25.466   0.386  0.0460  0.0499  0.2576
    1W        W58664  17.081   1.560   6.880  0.0901  0.0737  0.3827
    1W        W58665  20.390  22.726   8.296 -0.1971 -0.1152 -0.0980
    1W        W58666  10.962   1.820   4.157 -0.1446  0.1842  0.3603
    1W        W58667  22.088  27.802   9.096  0.0516  0.1897 -0.2205
    1W        W58668  25.863   4.515   0.481 -0.1556 -0.1832 -0.0220
    1W        W58669   5.715  16.834   8.769 -0.2366  0.2997  0.4112
    1W        W58670  23.272   2.965   3.079  0.2589  0.0518 -0.2236
    1W        W58671  18.878   2.766   7.003  0.0435  0.1317  0.3263
    1W        W58672  13.933  14.180   1.243 -0.1446 -0.2087  0.0923
    1W        W58673   5.948  21.764   0.534  0.0129  0.0846 -0.3976
    1W        W58674  24.245   1.387   0.832 -0.0756  0.2842 -0.1575
    1W        W58675   1.236   8.274   8.022  0.0791 -0.1049 -0.0599
    1W        W58676  21.083  14.026   1.961  0.1817  0.1794 -0.1313
    1W        W58677  17.192   7.741   8.047 -0.0950 -0.1688  0.4017
    1W        W58678  20.278  27.226   1.748 -0.1822 -0.3380 -0.0796
    1W        W58679  24.668   4.215   0.948 -0.4063 -0.2661  0.2482
    1W        W58680  28.803  16.489   1.508  0.0218  0.1808  0.1398
    1W        W58681  18.981  20.670   5.732  0.0408  0.1881  0.0760
    1W        W58682   5.267   8.691   0.112 -0.3854  0.1327  0.1738
    1W        W58683  28.071   7.897   1.327 -0.0579  0.0021  0.1622
    1W        W58684   7.991  12.560   8.616 -0.0021  0.1765  0.0794
    1W        W58685  11.195  29.527   2.821 -0.2010 -0.0018 -0.4298
    1W        W58686   3.543   9.176   1.777  0.2422 -0.1484  0.1911
    1W        W58687  26.687  26.488   8.102  0.1102  0.0881 -0.0093
    1W        W58688   9.832  11.951   6.833 -0.1347  0.0947 -0.0384
    1W        W58689  26.468   1.974   8.194  0.0444 -0.1626  0.4214
    1W        W58690  16.622   1.907   1.134  0.1190  0.0634 -0.1202
    1W        W58691  28.719   9.557   1.701  0.0678 -0.0850  0.0245
    1W        W58692   8.338  20.464   8.090 -0.2407 -0.0977  0.1713
    1W        W58693  10.263  24.880   2.404 -0.2345  0.2271 -0.3280
    1W        W58694  29.050   7.368   9.310 -0.0007 -0.0472  0.1141
    1W        W58695  26.255   9.020   5.956 -0.2414 -0.0617  0.4767
    1W        W58696  12.008   4.785   1.844 -0.0328  0.0340  0.1820
    1W        W58697  14.301  24.141   6.967  0.2456  0.0834 -0.0459
    1W        W58698  19.214  28.271   3.736  0.1099  0.1141  0.1850
    1W        W58699  16.218  20.972   7.737  0.0265 -0.0552  0.0207
    1W        W58700   4.039  29.020   9.519 -0.3170  0.1095  0.1723
    1W        W58701  21.648  15.601   7.383  0.2652 -0.0565 -0.1843
    1W        W58702  24.425   1.820   9.169 -0.2316 -0.4207  0.0450
    1W        W58703  24.983  16.927   6.128 -0.1289  0.0705  0.0972
    1W        W58704   8.413   0.752   3.012  0.2633  0.2133 -0.0291
    1W        W58705   1.619   2.612   0.479 -0.0594 -0.1275  0.0835
    1W        W58706  24.599   4.062   7.226 -0.1055 -0.1847 -0.0027
    1W        W58707   8.304   9.562   0.869  0.1234  0.0989 -0.1100
    1W        W58708  26.764   8.850   8.250 -0.2232 -0.1466  0.0933
    1W        W58709   3.333   7.656   7.090  0.0550  0.0146 -0.0910
    1W        W58710  15.632   4.227   7.716 -0.1469 -0.0546  0.2808
    1W        W58711  26.290   9.299   2.163 -0.2471  0.1188  0.2513
    1W        W58712  23.914  28.758   7.456 -0.2274  0.1718  0.0833
    1W        W58713  27.771   6.122   1.666  0.0433  0.0914  0.1633
    1W        W58714  17.667  27.756   2.603 -0.0651  0.2533  0.1886
    1W        W58715  25.927   0.666   3.647  0.1353  0.5034  0.2595
    1W        W58716   5.178   6.662   2.424  0.0981  0.0479 -0.3290
    1W        W58717  29.018  20.763   7.894  0.4261  0.1232 -0.0932
    1W        W58718  20.359   6.779   0.676  0.0556 -0.3625 -0.0626
    1W        W58719  11.952  25.080   1.541  0.2538 -0.0056  0.2334
    1W        W58720  24.872  27.101   7.768  0.0147 -0.0543  0.1964
    1W        W58721  24.816   1.323   0.384  0.0411  0.0328  0.1399
    1W        W58722  21.492   2.323   7.110  0.1498  0.1317 -0.2247
    1W        W58723  20.073   8.249   0.168 -0.0182 -0.0096 -0.1126
    1W        W58724   9.389  17.344   0.471 -0.2579  0.0618  0.0037
    1W        W58725  23.871  24.213   9.058 -0.2549 -0.0482 -0.1142
    1W        W58726   9.345  25.176   6.837 -0.2777 -0.3754  0.0869
    1W        W58727   2.442   5.473   1.967 -0.0415  0.0146  0.0328
    1W        W58728  19.764  23.612   7.038  0.3643 -0.0636  0.0929
    1W        W58729  13.724   4.843   7.346 -0.2749 -0.2273  0.0617
    1W        W58730  16.823   0.280   7.574 -0.0767 -0.6194  0.0183
    1W        W58731  25.402  21.489   6.831  0.1526  0.0203  0.3506
    1W        W58732   9.119  16.935   0.559  0.1362 -0.1739  0.0375
    1W        W58733  25.469  20.964   7.174  0.6461  0.1170 -0.0432
    1W        W58734  20.460  17.275   0.461 -0.0176  0.4138  0.2610
    1W        W58735  22.246  26.769   2.033  0.2483  0.0370 -0.1335
    1W        W58736  27.749  17.822   0.788 -0.1683 -0.0267  0.1973
    1W        W58737  16.221  21.814   0.883  0.1860 -0.0719 -0.0433
    1W        W58738  14.877   2.133   9.116  0.2599  0.1157 -0.0968
    1W        W58739  18.871   6.202   0.835 -0.3670 -0.1366  0.2655
    1W        W58740   4.743  12.842   1.714  0.0209 -0.3474 -0.2144
    1W        W58741  28.842  17.119   6.580 -0.3402  0.0207 -0.0663
    1W        W58742   3.919  27.383   7.828 -0.2553  0.5364 -0.0966
    1W        W58743  28.406  12.320   8.221  0.3597  0.0208  0.3339
    1W        W58744   3.651  18.195   1.117 -0.2824 -0.0124 -0.1553
    1W        W58745  24.299  18.085   0.843 -0.0992 -0.0579 -0.1121
    1W        W58746  28.785  20.115   1.718 -0.1369  0.0740  0.0193
    1W        W58747   3.201  26.692   8.903 -0.3569 -0.0512 -0.1696
    1W        W58748   3.439  25.141   6.535 -0.3241  0.0572  0.1443
    1W        W58749   9.452  24.760   0.616  0.0292 -0.4462 -0.1197
    1W        W58750  26.082  10.807   6.538  0.0658  0.0002  0.2250
    1W        W58751   7.037  11.385   1.534  0.1280  0.0258  0.0683
    1W        W58752  15.592   9.332   0.926 -0.0396 -0.0877 -0.1149
    1W        W58753  27.806  25.488   1.313 -0.2385  0.3837  0.0415
    1W        W58754  11.262  22.871   1.593 -0.2207  0.0957  0.0908
    1W        W58755   9.089   7.509   1.641 -0.1869 -0.0685  0.1988
    1W        W58756   8.496  14.918   0.210 -0.1224  0.1134  0.2170
    1W        W58757  26.241  22.363   1.469 -0.1813 -0.1007  0.0889
    1W        W58758  17.525  21.671   8.986 -0.2743  0.1070 -0.3545
    1W        W58759  11.784  16.318   2.479  0.2463  0.3607  0.0338
    1W        W58760   5.788  29.276   1.766 -0.0529  0.0588 -0.1762
    1W        W58761   4.264  18.320   6.527 -0.1323  0.3800  0.1607
    1W        W58762  26.196   5.066   1.284  0.0670  0.0045  0.2202
    1W        W58763   0.164  24.991   0.736 -0.0060 -0.1743  0.4078
    1W        W58764  25.293  10.996   1.476  0.0251  0.1462 -0.1717
    1W        W58765   8.996  26.836   0.607 -0.0724 -0.2029 -0.1533
    1W        W58766   1.533   5.644   1.865 -0.0258 -0.4192  0.0816
    1W        W58767  24.646  14.262   0.496  0.0048  0.2680  0.1312
    1W        W58768  29.021  27.778   8.886 -0.4248  0.1983  0.2388
    1W        W58769  22.612  27.212   2.016 -0.1799  0.0425  0.1315
    1W        W58770  11.657  12.865   2.092  0.0926  0.0917 -0.0171
    1W        W58771   8.780  12.671   0.189 -0.1632 -0.2114 -0.0033
    1W        W58772  12.445   3.423   0.165  0.0189 -0.0055  0.1653
    1W        W58773   9.308  20.343   6.874 -0.2621 -0.1751 -0.0073
    1W        W58774  11.377   0.880   2.010 -0.0545  0.0722  0.1376
    1W        W58775  21.461   2.798   2.173 -0.4925 -0.0630  0.0304
    1W        W58776  22.849  19.993   8.195  0.1041 -0.3705 -0.0083
    1W        W58777  19.742  11.240   1.592  0.1605 -0.2229  0.0297
    1W        W58778  10.368   5.434   2.901  0.0670 -0.2968  0.2186
    1W        W58779   3.704  13.536   0.526 -0.2211 -0.0069  0.1054
    1W        W58780  21.931  27.749   1.219 -0.1743 -0.1920  0.1893
    1W        W58781   5.269   7.963   6.561  0.2449 -0.2695 -0.1236
    1W        W58782   8.361  12.954   2.132  0.0386  0.0973  0.0222
    1W        W58783  22.257  25.893   6.840 -0.2302 -0.1727  0.0937
    1W        W58784   8.084   7.059   1.081 -0.1875 -0.0729  0.4215
    1W        W58785  22.528   6.854   1.101  0.1672 -0.0018  0.1167
    1W        W58786  14.621  13.030   8.130 -0.0024 -0.0358  0.1688
    1W        W58787  25.840   0.753   2.533  0.0804 -0.0591  0.0604
    1W        W58788  11.198   1.063   2.952  0.1046  0.2433  0.0278
    1W        W58789  15.528  29.589   2.296  0.0312  0.0777  0.1604
    1W        W58790  28.022   7.470   1.702  0.0590 -0.1343 -0.3043
    1W        W58791  23.973  26.612   6.633  0.0009 -0.3112 -0.4135
    1W        W58792  25.900  20.464   6.619 -0.1045 -0.1609 -0.1072
    1W        W58793  21.820   5.657   2.700  0.0160 -0.2188 -0.1838
    1W        W58794  17.192  24.869   8.111  0.1930 -0.2260  0.0379
    1W        W58795  16.058   5.031   7.941  0.1606 -0.0061 -0.4104
    1W        W58796  15.531   8.638   8.372 -0.4064  0.1727 -0.0802
    1W        W58797  13.971   6.595   7.413 -0.1277 -0.0028 -0.1342
    1W        W58798  28.812   2.739   8.645  0.0131 -0.0778  0.1642
    1W        W58799  17.297   2.870   8.433  0.3273 -0.2508  0.0265
    1W        W58800  10.219  23.244   1.315 -0.0230  0.1305  0.1010
    1W        W58801  25.453   4.197   9.043  0.1688  0.5223 -0.0252
    1W        W58802  19.453  22.195   6.549 -0.1507  0.1261 -0.1978
    1W        W58803  19.831   8.327   2.670 -0.1265  0.0379 -0.3448
    1W        W58804  28.033  11.171   7.851  0.0078 -0.1070 -0.0123
    1W        W58805  12.198  28.863   8.484  0.1192 -0.0482  0.0548
    1W        W58806  27.957   4.424   7.377 -0.0871 -0.2580  0.3819
    1W        W58807  29.343  25.068   9.227  0.3494 -0.2475  0.0628
    1W        W58808   1.460  23.159   8.685  0.2895  0.0465  0.0613
    1W        W58809  17.710   7.494   3.115  0.0615 -0.0793 -0.0915
    1W        W58810  15.521  10.621   7.612  0.0232 -0.0392  0.1946
    1W        W58811   1.752   4.451   1.299  0.0317 -0.0426 -0.1436
    1W        W58812   6.954  23.260   2.137  0.0557 -0.0983 -0.0043
    1W        W58813  27.946  14.926   8.969  0.1181 -0.0771  0.0948
    1W        W58814  21.888  19.095   9.118  0.3855 -0.2090  0.1783
    1W        W58815  12.497   4.903   8.344  0.2760  0.0694 -0.0036
    1W        W58816  13.546  13.086   9.281 -0.1324 -0.2533 -0.0370
    1W        W58817  10.490  17.105   1.736  0.0756 -0.3042 -0.1897
    1W        W58818   0.851   5.228   9.434  0.2544 -0.3220  0.2445
    1W        W58819   9.232   3.255   8.486  0.1373 -0.0084  0.3609
    1W        W58820   9.244   0.614   7.313 -0.0859 -0.2108  0.0885
    1W        W58821  16.614  15.617   7.740  0.0636  0.5792 -0.0256
    1W        W58822  21.373   1.364   8.737 -0.1199 -0.1539 -0.0628
    1W        W58823  19.033  19.186   8.514  0.3784 -0.3181 -0.0822
    1W        W58824  22.517  20.982   1.994 -0.1528  0.3192 -0.1889
    1W        W58825  25.814  25.195   7.243  0.1609  0.0835  0.0923
    1W        W58826  21.984  17.572   9.403 -0.3797 -0.0643  0.1242
    1W        W58827  24.733  24.088   9.156  0.1560  0.1568  0.4307
    1W        W58828   7.935   3.419   7.792 -0.1373  0.2357 -0.1463
    1W        W58829   1.754   6.676   1.504  0.1469 -0.0016  0.3129
    1W        W58830  13.891  26.483   7.716  0.1512 -0.1324 -0.2156
    1W        W58831   3.194  19.561   7.170  0.1988  0.1263 -0.1872
    1W        W58832  26.117   6.022   7.848 -0.0023  0.2108  0.1796
    1W        W58833  27.528   2.893   1.909  0.1001 -0.0035 -0.1443
    1W        W58834  14.367  14.052   6.273 -0.0099 -0.0017  0.0611
    1W        W58835  22.694  29.508   7.449  0.0055  0.0582  0.0856
    1W        W58836  21.730   8.411   8.444  0.1736 -0.2073 -0.0331
    1W        W58837   1.734   7.750   0.848  0.1526 -0.1590 -0.0714
    1W        W58838  12.487  15.433   0.606  0.0154 -0.2993  0.1725
    1W        W58839  18.453   0.545   2.022 -0.1278  0.0093 -0.0553
    1W        W58840  11.852  21.221   9.518  0.0583  0.0796 -0.2535
    1W        W58841   9.311  28.250   8.888  0.0797 -0.0744 -0.3588
    1W        W58842   0.944  11.107   1.934  0.2190 -0.1959  0.3025
    1W        W58843  15.609   3.407   6.736 -0.1996  0.2008 -0.2117
    1W        W58844   4.793  20.606   2.108 -0.2918  0.1837 -0.0362
    1W        W58845   1.729  12.843   7.069  0.2985  0.1008 -0.0239
    1W        W58846  19.549   3.210   9.083  0.0168 -0.0810  0.0160
    1W        W58847  22.374  17.277   8.708 -0.1314  0.1077  0.2666
    1W        W58848   2.182   5.103   2.488 -0.2938 -0.0185 -0.4607
    1W        W58849  13.777  18.033   2.182 -0.4129 -0.1749  0.3341
    1W        W58850  13.735   1.919   0.661  0.2057 -0.1542  0.0196
    1W        W58851  23.500  29.377   1.991  0.0965 -0.1558  0.0426
    1W        W58852  28.761   4.596   7.907  0.1239  0.0154  0.0539
    1W        W58853  19.041   0.399   3.872 -0.0848 -0.1145 -0.0292
    1W        W58854   8.654  20.702   1.143  0.3525  0.0224  0.0314
    1W        W58855  12.863  15.268   2.657 -0.1783  0.1731  0.1306
    1W        W58856  16.757  22.856   7.834  0.0292  0.0184 -0.0071
    1W        W58857  24.634   8.146   2.682  0.0427 -0.2017  0.1240
    1W        W58858  12.298  10.189   8.924 -0.2763  0.0018 -0.4675
    1W        W58859  23.432  23.786   7.970 -0.2112  0.0510  0.3123
    1W        W58860  16.436  12.372   1.230 -0.0162  0.1265  0.2667
    1W        W58861  20.981  14.950   8.497  0.2251 -0.1773 -0.2794
    1W        W58862  27.177   9.947   8.549  0.0074  0.3630  0.1434
    1W        W58863  26.383  26.413   6.704 -0.0981  0.1184 -0.1682
    1W        W58864  10.427  11.575   2.423  0.2132 -0.2128  0.2040
    1W        W58865  16.842  11.468   0.445  0.1226 -0.0071 -0.1077
    1W        W58866   9.472   1.168   0.878  0.1431  0.2956 -0.1896
    1W        W58867  10.491  26.027   2.975 -0.0288 -0.2144 -0.1074
    1W        W58868   6.950  10.526   7.016  0.0648 -0.0140  0.0566
    1W        W58869  24.748  18.659   4.804  0.0189 -0.2217 -0.2109
    1W        W58870   5.891  17.113   9.164  0.0481 -0.1485  0.2283
    1W        W58871  13.674  10.341   1.370  0.1409  0.2160 -0.0188
    1W        W58872  12.516   6.971   8.169 -0.0876  0.0981  0.0222
    1W        W58873  26.226  15.836   8.552  0.0548  0.0131  0.0182
    1W        W58874  10.484  24.401   8.320 -0.0997  0.2541 -0.0593
    1W        W58875  26.230   5.693   2.574  0.3036  0.1000  0.1444
    1W        W58876   3.744  14.200   0.915  0.2082 -0.0970  0.0545
    1W        W58877  29.297  11.165   0.420 -0.0475  0.0948 -0.1359
    1W        W58878  24.791  18.051   0.565 -0.3642 -0.0387  0.1725
    1W        W58879   3.556  13.907   9.053  0.0043 -0.1764  0.1886
    1W        W58880  29.403  29.611   0.044  0.1652  0.0032 -0.1335
    1W        W58881  17.762  27.197   0.054 -0.1323 -0.2943  0.0664
    1W        W58882   5.217  20.930   9.397  0.1926  0.0337 -0.0016
    1W        W58883   8.330   0.108   2.435 -0.0075 -0.0458 -0.0476
    1W        W58884   2.120  12.899   0.166  0.0072 -0.0067 -0.0723
    1W        W58885  27.014  12.308   0.732  0.1842 -0.1366  0.1431
    1W        W58886  21.766  14.297   1.758 -0.2692 -0.1982 -0.1142
    1W        W58887  25.886  28.593   6.847 -0.2466 -0.1627 -0.1898
    1W        W58888  12.470   9.335   1.199 -0.2529  0.0785 -0.2253
    1W        W58889   7.601  18.972   1.899 -0.0690 -0.0340  0.1343
    1W        W58890  11.146   5.962   1.778  0.0888 -0.3207  0.1648
    1W        W58891  27.595  16.134   8.535 -0.1382  0.2099  0.2671
    1W        W58892   2.485   9.062   7.006 -0.1013  0.3758 -0.2456
    1W        W58893  13.813  28.920   0.498  0.0528 -0.0644  0.0824
    1W        W58894   4.965  29.680   7.943 -0.1054 -0.3649 -0.0036
    1W        W58895  16.078   0.705   8.365 -0.2646  0.0297 -0.1209
    1W        W58896  14.352  17.152   0.332 -0.1381  0.1737  0.1347
    1W        W58897  28.270  11.121   9.540  0.2697  0.3577 -0.2340
    1W        W58898   4.409  21.813   1.976 -0.1391  0.1116  0.0485
    1W        W58899   3.756  23.410   7.581  0.3030  0.2113  0.0945
    1W        W58900  28.393  29.659   2.823 -0.3747 -0.2990 -0.1708
    1W        W58901   1.123   9.697   1.366 -0.3110 -0.1667  0.2334
    1W        W58902  16.583   4.975   7.904  0.2458 -0.1030 -0.2242
    1W        W58903  21.973  22.163   6.611  0.1876  0.0625 -0.0958
    1W        W58904   6.950  17.828   0.956  0.0268  0.0764  0.1543
    1W        W58905  13.706  10.980   9.428  0.0124  0.1453 -0.3201
    1W        W58906  23.724  15.740   0.763 -0.0864  0.0534  0.0059
    1W        W58907   0.002  26.578   2.064 -0.3505  0.0800 -0.1352
    1W        W58908  23.187  25.760   7.397  0.3039 -0.4570  0.1303
    1W        W58909   6.516  28.507   0.235 -0.1964 -0.1192 -0.0824
    1W        W58910  24.565   9.045   6.637 -0.2032  0.1957 -0.0607
    1W        W58911  26.392   8.138   9.143 -0.1553 -0.1001  0.1143
    1W        W58912  22.283  16.628   9.431  0.2034  0.1885  0.2600
    1W        W58913  14.343  28.444   1.693 -0.4722 -0.1120  0.1566
    1W        W58914  25.681  12.401   7.984  0.4156  0.1470 -0.0124
    1W        W58915   9.122  23.348   6.756 -0.3437  0.3870  0.0690
    1W        W58916  17.089  15.190   1.879 -0.0832  0.1003  0.3572
    1W        W58917   6.272   7.786   2.281 -0.0250 -0.1447  0.3611
    1W        W58918  18.015   8.787   8.602  0.1819  0.1540  0.0281
    1W        W58919  17.724   5.404   1.998 -0.2709 -0.2608 -0.2532
    1W        W58920  27.580  21.421   0.525  0.0242 -0.1674 -0.2044
    1W        W58921   4.909   6.368   0.876  0.3427 -0.0174 -0.1975
    1W        W58922   1.806  19.463   7.987  0.0270  0.1768  0.0326
    1W        W58923  19.514  28.558   9.177  0.0119  0.1283  0.2948
    1W        W58924   5.467  12.347   7.160 -0.1866  0.1539 -0.2513
    1W        W58925  29.376   9.620   1.512 -0.1860 -0.0837 -0.3455
    1W        W58926  25.611   1.829   0.705  0.1245  0.1717  0.0623
    1W        W58927  11.848   4.542   7.680  0.1580  0.0885  0.2527
    1W        W58928   6.078  20.250   0.091  0.1547  0.1368  0.0679
    1W        W58929   8.706  20.769   8.340  0.1438 -0.0711  0.0435
    1W        W58930  19.183   9.417   0.555 -0.1148  0.0404 -0.0533
    1W        W58931  21.337  11.593   0.112  0.1375 -0.1188  0.0339
    1W        W58932  13.951   6.600   3.209  0.2961 -0.2197 -0.1748
    1W        W58933   5.304  10.626   1.415  0.1526 -0.0755  0.0634
    1W        W58934   8.611  28.010   0.024  0.1036  0.0481  0.0798
    1W        W58935   4.066  13.184   8.324  0.3619  0.0263  0.1970
    1W        W58936   1.849   3.442   2.900 -0.1632 -0.1348  0.2949
    1W        W58937  12.949  13.960   8.417 -0.1161 -0.1236  0.3202
    1W        W58938  13.800   3.767   0.626 -0.0348 -0.1741  0.2444
    1W        W58939  12.127   1.484   9.521  0.0160  0.0044  0.0888
    1W        W58940   0.564  21.593   0.777 -0.1318  0.1678  0.4407
    1W        W58941   9.335  29.635   2.292  0.0530  0.0710  0.3455
    1W        W58942  13.565   3.640   2.614 -0.2629 -0.1354  0.1069
    1W        W58943  17.060  15.760   0.335 -0.0277 -0.0060  0.4279
    1W        W58944  10.136   6.346   1.209 -0.0425  0.0696 -0.0059
    1W        W58945  14.229   5.050   1.030 -0.1870 -0.1368 -0.2720
    1W        W58946  23.827  24.102   1.868 -0.2859  0.1765 -0.1866
    1W        W58947   2.060  15.928   0.723 -0.2005  0.0707 -0.3007
    1W        W58948  11.901   0.833   2.350  0.0556  0.0536 -0.0530
    1W        W58949   0.832   9.505   1.728  0.0880  0.0917 -0.0261
    1W        W58950  11.561   0.882   1.441  0.0934  0.1293  0.3774
    1W        W58951  12.670  17.134   2.379  0.0130  0.0898 -0.1704
    1W        W58952  15.769  13.616   1.388  0.0823  0.0829  0.0042
    1W        W58953  27.747   8.747   8.878  0.1753 -0.0552  0.0932
    1W        W58954   5.143  13.032   0.940 -0.1687 -0.0848  0.0273
    1W        W58955  19.431  26.957   9.204  0.2617 -0.1537 -0.1833
    1W        W58956  22.646  28.856   8.997  0.1847 -0.0803  0.0041
    1W        W58957  29.198   6.763   7.498 -0.0206  0.0713 -0.2228
    1W        W58958  20.949  24.850   8.919 -0.0598 -0.0233  0.0085
    1W        W58959  27.685   4.062   9.357 -0.2756  0.0492 -0.3313
    1W        W58960  27.625  23.251   0.494  0.1297 -0.2303 -0.1187
    1W        W58961  18.910  12.319   7.149  0.1207 -0.3021  0.0448
    1W        W58962   0.769  22.572   2.893 -0.0777 -0.0529  0.0036
    1W        W58963   3.680  14.067   8.650  0.0275 -0.0431  0.2855
    1W        W58964  28.057   8.900   9.242 -0.2976 -0.1222  0.1511
    1W        W58965   6.834  26.520   0.154  0.1677  0.1094 -0.0814
    1W        W58966  19.498  27.588   1.947 -0.0452 -0.2478 -0.0602
    1W        W58967  17.371   0.406   2.709 -0.0948 -0.3966  0.1500
    1W        W58968   1.091  15.771   7.370  0.2114  0.1686 -0.1549
    1W        W58969   7.743   5.911   2.350  0.2248 -0.0507 -0.0324
    1W        W58970  10.941   9.180   1.004  0.1334  0.0171 -0.0497
    1W        W58971  20.157  22.960   9.108  0.2985 -0.0727  0.0438
    1W        W58972  15.738  15.123   0.094  0.0344 -0.1839  0.0308
    1W        W58973  23.951  20.398   8.359  0.0547  0.0460  0.0099
    1W        W58974  13.869  17.310   0.523  0.0849 -0.1941  0.1045
    1W        W58975  18.691  13.725   1.270 -0.1962  0.3221 -0.0925
    1W        W58976  20.909   2.839   2.397  0.2591  0.1562  0.0954
    1W        W58977  22.365  21.874   8.351  0.1791  0.0197 -0.2029
    1W        W58978  17.444   9.121   0.302  0.0412  0.3058  0.1573
    1W        W58979  23.330   6.149   8.981 -0.0433 -0.1494  0.1622
    1W        W58980  18.750   6.225   0.278  0.0182  0.4007 -0.0757
    1W        W58981   2.702  10.679   7.305 -0.1221 -0.2235  0.1790
    1W        W58982   8.208  15.496   0.956 -0.1486  0.1607  0.4048
    1W        W58983  23.540  14.879   1.616 -0.1113 -0.0819 -0.1172
    1W        W58984  23.952   6.890   1.931 -0.0862 -0.2017  0.0832
    1W        W58985  26.358   4.637   7.927 -0.0385 -0.0784 -0.3261
    1W        W58986  23.419  11.145   1.875 -0.0931 -0.1354 -0.2711
    1W        W58987  23.363  11.135   1.387 -0.2065  0.2045  0.0969
    1W        W58988   4.013  13.407   7.795 -0.3345 -0.0512  0.0727
    1W        W58989  29.378  15.887   1.817  0.0461  0.1340  0.1090
    1W        W58990  10.927  27.884   4.083  0.2228 -0.2452  0.0934
    1W        W58991  25.422  12.929   1.228  0.1378  0.2091 -0.2352
    1W        W58992  15.669  18.363   6.308  0.0477  0.2808  0.1836
    1W        W58993  18.681  21.768   2.049 -0.0216 -0.2461 -0.0439
    1W        W58994  11.303  10.442   0.334 -0.2238 -0.0721  0.0101
    1W        W58995  20.385   2.573   2.961 -0.1229  0.0223  0.0871
    1W        W58996  26.351  27.214   2.143  0.2419 -0.5425 -0.1383
    1W        W58997  29.260  22.292   8.515 -0.1663 -0.1509  0.0431
    1W        W58998   3.120   6.245   1.549  0.1275  0.1473 -0.2251
    1W        W58999   6.061  18.030   8.235  0.0864 -0.1614  0.0029
    1W        W59000  20.089  22.782   2.312 -0.3507  0.3402  0.1597
    1W        W59001   9.692   3.982   0.546  0.1390  0.1017 -0.0316
    1W        W59002   7.850  19.460   1.307 -0.2195 -0.1021 -0.2196
    1W        W59003  17.721  20.243   1.515  0.2252 -0.4031 -0.1310
    1W        W59004  24.723  21.653   8.779  0.1014  0.1264 -0.2047
    1W        W59005   1.019  17.904   7.721  0.0086 -0.0421 -0.0001
    1W        W59006  22.267   3.460   2.846 -0.1101 -0.1398 -0.0920
    1W        W59007   8.399  13.988   0.352  0.2716  0.2195 -0.1737
    1W        W59008  20.236  27.485   9.010 -0.1640  0.3515 -0.2960
    1W        W59009   8.411  25.028   9.016 -0.2645  0.3632  0.1795
    1W        W59010   6.591  17.695   7.531  0.0773  0.0072 -0.1419
    1W        W59011  16.291   9.751   1.784  0.0326  0.0635  0.1004
    1W        W59012   9.020  17.926   0.702 -0.1976 -0.0484  0.0328
    1W        W59013  18.572   9.543   8.906  0.2184  0.3157 -0.0446
    1W        W59014   4.755  17.053   8.891  0.2027  0.0259  0.0339
    1W        W59015  24.432   4.111   9.493  0.0116  0.3634  0.0432
    1W        W59016  12.339   8.896   2.178 -0.2632 -0.0347  0.3500
    1W        W59017  23.169   7.873   9.049 -0.1587  0.0122 -0.1790
    1W        W59018   9.649  29.432   3.032 -0.3961 -0.1727  0.0353
    1W        W59019  17.879   8.393   0.740 -0.1144 -0.1538 -0.1846
    1W        W59020   8.536  27.431   9.226  0.3536  0.2035 -0.2640
    1W        W59021  28.783  17.304   7.935 -0.0598 -0.0295  0.1035
    1W        W59022  14.635   9.862   9.451  0.0081 -0.0085 -0.1232
    1W        W59023  14.524   9.811   2.518 -0.0921  0.0493 -0.0920
    1W        W59024  19.145  27.945   1.097  0.2931  0.2355 -0.0151
    1W        W59025   7.604   0.648   8.465 -0.2502 -0.2501 -0.1383
    1W        W59026  21.514   7.678   2.893 -0.0661 -0.0684  0.0363
    1W        W59027  19.968  23.107   7.232  0.0805 -0.0430  0.0944
    1W        W59028  15.661  16.919   0.139  0.0263  0.2128 -0.1533
    1W        W59029  19.485  25.399   8.807  0.1177 -0.0125 -0.2783
    1W        W59030  15.250   3.981   2.171 -0.1259  0.2883 -0.0431
    1W        W59031  11.613   3.974   1.177  0.1276  0.1164 -0.0331
    1W        W59032  19.700   4.632   2.950  0.1673  0.2319 -0.0868
    1W        W59033   6.852  28.431   9.399  0.1067  0.1990 -0.3461
    1W        W59034   1.748   0.809   8.190  0.0148 -0.1730 -0.0096
    1W        W59035  21.267  17.619   5.930  0.0802 -0.2728  0.0517
    1W        W59036  27.686   6.827   0.538  0.0755  0.3341 -0.1877
    1W        W59037  26.065   5.471   7.449  0.0487  0.1241  0.0980
    1W        W59038   8.428  13.595   0.001  0.2484 -0.2158  0.1251
    1W        W59039  18.479  11.621   6.944 -0.4850 -0.0996  0.2590
    1W        W59040  14.654  26.426   7.583  0.2378  0.1278 -0.0044
    1W        W59041   2.170   0.953   9.106  0.0254 -0.0699 -0.1044
    1W        W59042   4.726  23.103   3.180  0.0087  0.0327 -0.2095
    1W        W59043   8.873  12.188   1.861  0.5308  0.1540 -0.0256
    1W        W59044  16.247   7.927   8.568 -0.0309 -0.1425 -0.4123
    1W        W59045  17.983   0.974   7.488 -0.0242  0.1111 -0.1266
    1W        W59046   8.454  11.821   9.467 -0.0656  0.1175 -0.0036
    1W        W59047   6.570  28.802   1.689 -0.0961 -0.3346  0.0315
    1W        W59048   9.655   6.065   1.515  0.0117 -0.1430 -0.2085
    1W        W59049  21.925   3.936   8.342  0.0828  0.1997  0.0357
    1W        W59050   3.592   0.367   7.950 -0.2061 -0.3678  0.0294
    1W        W59051  26.121  17.040   8.764 -0.0307  0.0929 -0.1156
    1W        W59052  19.111  22.839   8.419 -0.1337  0.0016  0.1759
    1W        W59053   8.763  20.581   1.638  0.0304 -0.2115  0.0042
    1W        W59054  17.668  15.053   8.552  0.1175 -0.2061  0.0712
    1W        W59055   0.897   0.809   9.354 -0.1970  0.2837  0.1345
    1W        W59056  19.296  28.008   0.615 -0.0355 -0.0011 -0.0498
    1W        W59057  11.856  23.068   5.564 -0.1479 -0.0557 -0.0360
    1W        W59058  12.056   0.131   7.861 -0.2368  0.0271 -0.3323
    1W        W59059   2.966   7.310   0.723 -0.0005 -0.0197  0.2432
    1W        W59060  10.127   4.045   8.277  0.0424  0.0359 -0.1001
    1W        W59061  21.405   2.672   1.541 -0.4521 -0.1360 -0.0640
    1W        W59062  28.361  13.019   6.878 -0.1851  0.1056  0.0507
    1W        W59063   1.272  28.147   7.390 -0.2777 -0.0917  0.0939
    1W        W59064  26.298  12.995   9.367  0.0854 -0.0717  0.0492
    1W        W59065  20.534   1.464   6.360  0.3723  0.1066  0.1746
    1W        W59066  11.266  15.081   9.271 -0.1949  0.0794 -0.1608
    1W        W59067  15.317  17.362   1.682  0.1953 -0.3469  0.0147
    1W        W59068   8.029  17.914   8.184 -0.2214 -0.1133 -0.2892
    1W        W59069  23.670  25.604   2.611  0.0718  0.0169 -0.1593
    1W        W59070   0.174   0.397   7.314  0.2054 -0.1489  0.0495
    1W        W59071   0.441  26.534   2.352 -0.2383  0.1821  0.1173
    1W        W59072  15.163  13.542   8.779 -0.2285 -0.3101  0.0102
    1W        W59073  14.055   6.168   8.069  0.2244  0.0323 -0.0870
    1W        W59074  10.831   3.373   3.296 -0.0536  0.2306  0.0748
    1W        W59075  29.116   1.626   8.969  0.2204 -0.2246 -0.4397
    1W        W59076  22.792   5.025   0.954  0.3101 -0.0975  0.1598
    1W        W59077   2.134  11.457   0.020 -0.1341  0.0802 -0.4526
    1W        W59078   3.516  25.618   7.176 -0.0079  0.0148  0.1956
    1W        W59079   4.068  29.444   8.253 -0.1184  0.3913 -0.1085
    1W        W59080  20.533   2.003   3.914  0.0508  0.4482  0.3887
    1W        W59081  24.704   4.701   2.668  0.1895  0.2197 -0.3761
    1W        W59082   0.808  27.227   8.649  0.2815  0.2257  0.3738
    1W        W59083   4.253   9.743   7.301 -0.0066 -0.1385  0.0491
    1W        W59084  23.606  18.448   8.119  0.1093 -0.0811 -0.1542
    1W        W59085  14.700   1.505   0.338 -0.0246  0.3486 -0.2843
    1W        W59086   7.750  18.993   9.284  0.2045  0.1748 -0.0399
    1W        W59087  22.858   6.178   1.604 -0.3702 -0.5670  0.1893
    1W        W59088  26.028  14.635   0.795 -0.0355 -0.1515 -0.3504
    1W        W59089   6.767  27.345   2.292  0.1076 -0.1649 -0.2689
    1W        W59090  14.921  26.779   7.936 -0.0764 -0.1281 -0.0573
    1W        W59091   0.626   3.816   9.423  0.0664 -0.1442  0.1551
    1W        W59092  20.085  18.318   6.791 -0.2869 -0.2494 -0.0422
    1W        W59093  24.360  16.622   7.595  0.0818 -0.0799  0.1291
    1W        W59094   3.686  20.233   1.378 -0.0116  0.0243 -0.0674
    1W        W59095   4.002  15.328   2.245 -0.2281 -0.0782  0.2017
    1W        W59096  24.179  29.754   7.348 -0.0152  0.0645  0.1858
    1W        W59097   9.960   6.984   8.862 -0.2959  0.0115 -0.2420
    1W        W59098  16.300   5.884   0.314  0.3080  0.1494  0.0304
    1W        W59099  13.885   1.082   8.651 -0.0069 -0.3001  0.0386
    1W        W59100  18.914  13.234   1.144 -0.0938  0.0917  0.2190
    1W        W59101   5.350   1.830   0.924  0.2608 -0.3851  0.2065
    1W        W59102   8.636  16.282   8.562 -0.2904 -0.0424  0.3373
    1W        W59103   5.362  22.040   1.652  0.2108 -0.0047  0.1041
    1W        W59104   4.177   1.788   2.747 -0.1267 -0.0572 -0.0986
    1W        W59105  18.552  19.465   9.195  0.2371 -0.0900  0.2469
    1W        W59106  23.456   5.260   0.302 -0.2931  0.0412 -0.1674
    1W        W59107  14.220  15.643   9.262 -0.1109 -0.2117  0.1465
    1W        W59108   2.926  21.831   2.139 -0.0804 -0.0889 -0.1908
    1W        W59109  21.267  15.128   0.215  0.0884  0.0685  0.0629
    1W        W59110  15.380  21.218   1.918 -0.3777 -0.1419  0.1660
    1W        W59111  27.864   1.468   3.650 -0.2328 -0.2675  0.2941
    1W        W59112  19.900   9.343   6.400 -0.1056  0.4126 -0.0704
    1W        W59113  28.166   8.501   0.301  0.2494 -0.2199  0.1528
    1W        W59114  24.694  24.473   8.506  0.0895 -0.0519  0.2238
    1W        W59115  29.333   6.295   2.248 -0.3229  0.1167 -0.1903
    1W        W59116  20.556  18.981   5.741  0.0914 -0.1403  0.0427
    1W        W59117   7.969   3.344   0.951  0.0710  0.0631  0.0199
    1W        W59118   9.892  24.749   8.125  0.0385 -0.0353  0.1631
    1W        W59119   9.924   1.905   7.115 -0.3843  0.1231 -0.4533
    1W        W59120  16.219  22.847   6.231 -0.1029  0.0192  0.0128
    1W        W59121   0.106   3.541   1.631 -0.1023  0.2682  0.1324
    1W        W59122   9.395  28.845   1.397  0.1339  0.2004 -0.1085
    1W        W59123  14.914  21.629   6.971  0.0237  0.2096  0.0169
    1W        W59124  12.895  26.955   2.329  0.0841 -0.2063 -0.0071
    1W        W59125   2.785  13.319   0.584 -0.0010  0.0900  0.1504
    1W        W59126  24.632  20.079   7.123  0.1289  0.2339  0.0356
    1W        W59127   5.233  22.912   2.332 -0.0836  0.0828  0.3897
    1W        W59128   7.769  21.978   7.311  0.0833 -0.0166 -0.0136
    1W        W59129  13.688  11.965   7.115 -0.2568  0.1271  0.1378
    1W        W59130   0.356  16.871   7.529  0.0997  0.1021  0.0726
    1W        W59131  13.895   3.196   1.313  0.0387  0.0025 -0.1121
    1W        W59132  11.882  17.373   6.817 -0.1189 -0.1901  0.0264
    1W        W59133  14.355  21.419   0.288 -0.0590  0.1530  0.2144
    1W        W59134   8.624   5.294   1.843  0.0788  0.2134  0.0386
    1W        W59135  25.883  21.090   2.011  0.0874 -0.0815 -0.2025
    1W        W59136   7.383  10.690   7.420  0.0405  0.1575 -0.0045
    1W        W59137   7.701  10.423   0.415 -0.0039  0.0073  0.2046
    1W        W59138  16.302  12.692   1.653 -0.1606 -0.1058 -0.0698
    1W        W59139  11.756   5.211   9.164 -0.1476  0.2027 -0.1300
    1W        W59140   2.791  28.751   8.007 -0.0450  0.2436  0.0925
    1W        W59141  24.914  29.508   7.253 -0.0725 -0.1271  0.3177
    1W        W59142  10.517  24.986   5.954  0.3007 -0.0198  0.3718
    1W        W59143  25.309  10.214   0.793 -0.4143  0.0477  0.1773
    1W        W59144  24.905  28.046   2.951 -0.0278 -0.0992  0.0546
    1W        W59145   6.176  28.358   8.832 -0.1012 -0.2664  0.2127
    1W        W59146  26.167   3.385   7.336  0.1242  0.1651 -0.4932
    1W        W59147  11.335   3.012   8.910  0.2105 -0.3615  0.5684
    1W        W59148  11.632   3.405   2.641 -0.0852 -0.3381  0.0225
    1W        W59149  18.622  10.192   7.604 -0.1232  0.0650 -0.1006
    1W        W59150  24.353  25.823   1.137  0.1498 -0.0931  0.1045
    1W        W59151  10.762  27.835   8.535 -0.3126 -0.0650  0.0694
    1W        W59152  14.312  13.413   0.104 -0.1882  0.0021 -0.1013
    1W        W59153   1.791  19.343   0.439 -0.1327 -0.3303 -0.2988
    1W        W59154   4.265   9.396   2.350 -0.4833  0.0257 -0.2917
    1W        W59155  13.848   3.852   2.236  0.0797  0.0335 -0.0462
    1W        W59156   5.354   4.380   8.987 -0.1658  0.0546  0.3289
    1W        W59157  27.223  14.068   8.029  0.3996 -0.3700  0.0839
    1W        W59158  25.552   8.289   2.852  0.1261 -0.0258  0.3718
    1W        W59159  18.268  27.157   0.965  0.0984  0.1792  0.1573
    1W        W59160  24.323   2.471   2.314  0.0058  0.2696 -0.1695
    1W        W59161  20.083  20.112   8.252  0.0620  0.2059  0.0818
    1W        W59162  13.491  28.031   6.644 -0.0841  0.0962  0.4517
    1W        W59163  18.086  24.963   2.135 -0.3524 -0.0387 -0.0538
    1W        W59164  22.151   2.001   0.324  0.1807 -0.1678 -0.1134
    1W        W59165   8.818  29.121   8.715  0.2757  0.2384 -0.0293
    1W        W59166   5.570   8.036   7.876  0.0002  0.1280  0.1150
    1W        W59167  13.961   8.041   7.640  0.1575  0.0315  0.2101
    1W        W59168   6.375   0.810   2.421 -0.1920 -0.1542 -0.0400
    1W        W59169  20.523  12.910   1.545  0.0399 -0.1007 -0.3696
    1W        W59170   5.116  13.267   1.403 -0.2781 -0.0984 -0.2482
    1W        W59171  29.345   0.820   1.627  0.0693  0.0249  0.3386
    1W        W59172  25.040   6.486   9.408 -0.0408 -0.0119  0.1653
    1W        W59173  13.136  13.528   8.692 -0.0556  0.0122 -0.0248
    1W        W59174   1.735  22.651   2.841 -0.0879 -0.2661  0.1067
    1W        W59175   5.294  14.324   8.182  0.0122 -0.1176  0.2780
    1W        W59176  21.531  14.203   7.433 -0.1857 -0.3467  0.0945
    1W        W59177  13.719  29.619   1.505 -0.2141 -0.0162 -0.1635
    1W        W59178  16.998   8.020   0.208 -0.0709  0.2250 -0.1761
    1W        W59179   2.855   5.755   2.371  0.2806 -0.1543 -0.0282
    1W        W59180  16.529  10.446   1.742 -0.3123  0.2767 -0.0794
    1W        W59181  20.681  20.608   7.448 -0.0029  0.2058  0.2110
    1W        W59182   2.476  11.310   7.057 -0.1707  0.0631  0.0819
    1W        W59183  20.012   9.240   1.139  0.1930 -0.0264 -0.2114
    1W        W59184  16.483   4.613   8.684 -0.0338 -0.0008 -0.0295
    1W        W59185  18.789  10.571   0.692  0.0258 -0.1155  0.3072
    1W        W59186   4.490   1.890   3.242  0.0175  0.0412 -0.0833
    1W        W59187   1.666  12.155   8.735  0.0832  0.1233  0.0346
    1W        W59188  11.628   8.789   1.577  0.0331 -0.1621  0.1132
    1W        W59189   2.930  18.233   2.172  0.0146 -0.0956 -0.0413
    1W        W59190  16.412  13.716   0.257 -0.2566  0.1981 -0.5445
    1W        W59191  18.515  18.554   9.141 -0.1083 -0.1467  0.1054
    1W        W59192  13.571  23.303   7.446 -0.1427 -0.1527 -0.0751
    1W        W59193  21.162  19.259   8.727 -0.0550  0.0806  0.0657
    1W        W59194   7.810  20.921   2.483 -0.3962 -0.0191  0.2179
    1W        W59195  10.000   5.534   7.741 -0.0463 -0.0248  0.1249
    1W        W59196   3.727  11.174   0.622  0.0615 -0.1510  0.2804
    1W        W59197  26.992  23.891   6.519 -0.1952  0.0927 -0.0509
    1W        W59198  22.905   8.630   1.925  0.1272 -0.4179 -0.1726
    1W        W59199  13.672  14.700   7.246 -0.0564  0.2271 -0.1659
    1W        W59200  13.550   2.680   1.442 -0.0568  0.1182  0.1897
    1W        W59201  12.746   7.715   2.146  0.2421  0.4162  0.3275
    1W        W59202  13.287  20.984   9.388  0.1431  0.1502  0.0177
    1W        W59203   0.587   9.639   6.521 -0.0930  0.2600  0.0398
    1W        W59204  13.246  14.524   8.068 -0.1422 -0.0136 -0.1936
    1W        W59205  11.675   1.725   3.348  0.0418  0.0269  0.4102
    1W        W59206  12.983  18.144   2.489  0.1629  0.1908  0.2116
    1W        W59207   4.091  20.991   1.772 -0.3051 -0.0828 -0.0619
    1W        W59208   7.815   8.363   1.517 -0.1772  0.1984  0.2120
    1W        W59209   8.230   2.964   8.127  0.3838 -0.3918  0.1587
    1W        W59210  16.675  29.296   7.366  0.2516  0.0001  0.1993
    1W        W59211  28.964  14.135   8.983  0.1104  0.0776  0.0104
    1W        W59212  24.903   6.856   0.721  0.0406  0.0344 -0.1554
    1W        W59213   2.298   3.040   8.361  0.2126  0.1598 -0.2732
    1W        W59214  12.212   3.100   9.319 -0.0008  0.3141  0.1788
    1W        W59215   1.260  15.526   1.445 -0.1047 -0.0863 -0.0080
    1W        W59216   0.223   9.809   7.211  0.0018 -0.2548  0.0713
    1W        W59217  27.097  27.192   1.353  0.3076 -0.3217 -0.0543
    1W        W59218  27.713  27.424   2.045 -0.2557 -0.0758 -0.2969
    1W        W59219  18.567   1.866   2.597  0.3125  0.1987  0.1149
    1W        W59220   8.043   4.397   8.706  0.1020  0.0201 -0.4580
    1W        W59221  16.574  12.762   6.176 -0.3044  0.1671  0.1241
    1W        W59222  20.502   8.085   9.442 -0.0007  0.0325 -0.0111
    1W        W59223  24.310   8.978   7.114  0.1774  0.2986 -0.0649
    1W        W59224  14.927  27.977   7.755  0.0645  0.3413 -0.3224
    1W        W59225   6.972   7.498   0.402  0.0441 -0.0997 -0.1791
    1W        W59226  13.003  16.651   8.594  0.1136 -0.1198  0.1413
    1W        W59227   1.649  12.655   8.962 -0.0571 -0.3603  0.0509
    1W        W59228  23.040   2.150   7.440  0.1647 -0.5644 -0.2602
    1W        W59229  13.511   8.683   9.464 -0.0895  0.1159 -0.1426
    1W        W59230  29.232  23.938   0.376  0.0693  0.3073  0.0991
    1W        W59231  18.264   6.704   2.066 -0.1626 -0.2427  0.3447
    1W        W59232  22.596   1.833   8.609 -0.2137 -0.0174 -0.1450
    1W        W59233   4.472   2.184   7.437 -0.3165  0.0753 -0.0363
    1W        W59234  15.833  12.358   7.937  0.0840 -0.1658 -0.0616
    1W        W59235  18.348  13.725   6.352  0.2921  0.0390  0.1953
    1W        W59236   9.505   2.777   0.695  0.1223  0.1819  0.2510
    1W        W59237   7.502  25.860   1.399 -0.0292 -0.0113 -0.2570
    1W        W59238  14.927   7.412   8.113  0.0276  0.2394 -0.1527
    1W        W59239   8.025   9.196   3.090  0.2751  0.1556  0.3678
    1W        W59240  16.073  28.318   1.839 -0.3193  0.3272 -0.0148
    1W        W59241   0.843  27.108   6.815 -0.1775  0.2137 -0.4247
    1W        W59242   6.907  13.184   8.123  0.0116 -0.1618  0.0245
    1W        W59243  29.170  28.956   7.664  0.1145 -0.0434  0.1665
    1W        W59244  12.357  12.810   9.069 -0.1266  0.3512  0.2177
    1W        W59245   0.004   3.771   3.054 -0.3690 -0.1281 -0.1502
    1W        W59246   7.142  26.836   2.845 -0.0490 -0.3480  0.0484
    1W        W59247  18.967  12.806   6.759 -0.7075 -0.1730 -0.2312
    1W        W59248  27.005   0.331   0.369 -0.2655  0.1306 -0.1333
    1W        W59249  20.585  23.577   0.072 -0.0221 -0.0347 -0.1267
    1W        W59250  26.412   1.720   2.887  0.0565  0.0591  0.1337
    1W        W59251  16.854  15.173   6.288  0.1218 -0.0430  0.1406
    1W        W59252  19.862  12.216   8.647  0.0952 -0.0382 -0.1052
    1W        W59253  10.505   1.856   1.941  0.1476 -0.2120 -0.1523
    1W        W59254   3.550  24.264   3.318  0.0310 -0.1523 -0.1385
    1W        W59255  18.403  12.210   8.538 -0.0102  0.2703 -0.2819
    1W        W59256  27.723  25.201   8.582  0.0600 -0.1169  0.0846
    1W        W59257  25.421   8.404   6.705 -0.2567  0.2453 -0.2814
    1W        W59258  20.792   8.585   8.899 -0.2277  0.0826  0.1359
    1W        W59259  28.858  23.649   0.224 -0.3043 -0.1157  0.2352
    1W        W59260  14.031  10.619   9.459  0.0154 -0.0572 -0.2649
    1W        W59261  24.369   7.007   0.159  0.1594 -0.0305  0.1485
    1W        W59262  29.636  11.476   1.233 -0.1693  0.4372  0.2646
    1W        W59263   7.870  25.964   8.494 -0.0109 -0.2254  0.3359
    1W        W59264   0.481  12.436   9.544  0.3687 -0.0393 -0.0233
    1W        W59265   6.003   1.588   8.723  0.1095 -0.3665  0.2589
    1W        W59266   0.029   7.660   1.310 -0.3193 -0.1471  0.0515
    1W        W59267  16.595  28.719   7.036  0.1253 -0.2105  0.1050
    1W        W59268  16.292  20.892   3.283 -0.0681  0.0395 -0.3870
    1W        W59269   3.714   4.041   7.858 -0.2499  0.0709  0.0352
    1W        W59270   0.027   6.958   1.774  0.0304 -0.2641  0.4207
    1W        W59271  12.307  22.436   5.999 -0.2181 -0.2720  0.0241
    1W        W59272   7.427  27.148   7.294 -0.2071  0.0485 -0.0690
    1W        W59273  20.971  23.037   7.871 -0.1692  0.1022 -0.1250
    1W        W59274  11.446  23.810   9.245  0.1790  0.1218 -0.0480
    1W        W59275   9.789  24.969   9.286 -0.0691  0.0073 -0.1973
    1W        W59276   5.570  13.432   9.247 -0.1865 -0.0842 -0.2079
    1W        W59277  23.172   3.031   0.556 -0.0403 -0.0382  0.0245
    1W        W59278  13.795   6.372   1.071 -0.1507  0.3101  0.3862
    1W        W59279   0.927  16.270   7.386  0.0859  0.2297  0.0317
    1W        W59280  18.706   8.196   8.526  0.0001 -0.3514  0.2708
    1W        W59281  22.772  14.217   7.077  0.0195  0.0576  0.2326
    1W        W59282  26.439  24.548   7.136  0.0929 -0.0622  0.0406
    1W        W59283  22.106  16.565   5.146  0.0395 -0.1799  0.0098
    1W        W59284  20.191   7.805   7.752  0.1617  0.0346 -0.2917
    1W        W59285  11.712  12.505   8.398  0.1459 -0.1064  0.0588
    1W        W59286  28.622  24.371   1.643 -0.2214  0.1917  0.4114
    1W        W59287  13.606   5.436   1.509 -0.1332 -0.0957 -0.0516
    1W        W59288  10.084  26.698   2.348 -0.1629  0.3842  0.0771
    1W        W59289  21.370  21.796   2.553  0.1235 -0.0969 -0.0137
    1W        W59290  14.332   0.732   8.533 -0.1646 -0.2869 -0.0120
    1W        W59291   6.048  19.022   0.284  0.1840  0.0731  0.1449
    1W        W59292   1.528  12.718   1.078  0.2016  0.1716  0.1423
    1W        W59293  23.317  14.753   0.821  0.3096  0.1254  0.1826
    1W        W59294  19.612  24.983   0.807  0.0539  0.0291  0.2069
    1W        W59295  19.838  24.528   0.531  0.1126  0.0615 -0.2029
    1W        W59296  27.282  18.142   7.638 -0.0231  0.0521  0.0734
    1W        W59297  16.969  26.822   7.861  0.1807 -0.3392 -0.1012
    1W        W59298   2.785  26.580   9.199 -0.1294 -0.1414  0.0913
    1W        W59299  25.645   6.413   6.424  0.0105  0.1646  0.2866
    1W        W59300   4.035  23.942   7.224 -0.0901 -0.5163  0.1929
    1W        W59301  22.678  12.454   8.566 -0.0119 -0.0725 -0.0554
    1W        W59302  17.782   4.676   6.465  0.2427 -0.0930  0.0909
    1W        W59303   2.277  23.530   1.226 -0.2390  0.2345  0.4954
    1W        W59304  14.773   7.575   0.912 -0.0666 -0.1821 -0.1421
    1W        W59305   8.126  28.439   1.998 -0.2915 -0.3625  0.4249
    1W        W59306  22.583  29.337   3.636  0.3561  0.3105 -0.2055
    1W        W59307   2.625   6.835   7.389  0.0986  0.2950  0.0311
    1W        W59308   4.192   0.052   2.520  0.0730  0.0991  0.1323
    1W        W59309  25.597  20.680   5.852 -0.3298  0.3124  0.1496
    1W        W59310  11.400   4.853   2.322  0.0232 -0.3770 -0.0176
    1W        W59311  28.748   8.761   0.174  0.1514 -0.0539 -0.0082
    1W        W59312  18.591   1.805   1.744 -0.0454 -0.1189  0.0799
    1W        W59313  22.624   3.256   7.559  0.0020 -0.0120  0.1404
    1W        W59314   4.263  28.244   6.630  0.5372 -0.2867  0.3391
    1W        W59315   5.831  18.506   9.063 -0.1845 -0.0598  0.0413
    1W        W59316  18.758  17.197   0.757 -0.1094 -0.0559 -0.2092
    1W        W59317   8.202  12.753   8.194  0.1045 -0.0122 -0.2493
    1W        W59318  11.097  29.588   7.755  0.0240 -0.1732  0.0652
    1W        W59319  19.334   6.106   1.225 -0.1061 -0.2149  0.3204
    1W        W59320  17.936  23.736   3.231 -0.0092  0.0103  0.0215
    1W        W59321   7.253  23.809   6.083 -0.0829 -0.1543  0.0634
    1W        W59322  13.108   3.676   8.254 -0.1093  0.0506  0.1487
    1W        W59323  13.926  26.560   8.239 -0.2136 -0.1933  0.1769
    1W        W59324  29.462   3.447   7.558  0.2435  0.1415 -0.0422
    1W        W59325   1.606   7.808   7.134 -0.0275  0.0297 -0.2940
    1W        W59326  27.186  17.081   6.912 -0.2920 -0.2089 -0.3233
    1W        W59327   4.781  11.525   8.563 -0.1055  0.0780  0.0310
    1W        W59328   8.700   7.023   7.201  0.0541  0.1056  0.0482
    1W        W59329  29.282  27.507   0.619 -0.0745 -0.1285  0.1212
    1W        W59330  28.726   1.462   0.547  0.0206 -0.0936  0.1482
    1W        W59331   8.853  21.744   8.277  0.0140  0.1404  0.0391
    1W        W59332  26.441   9.813   0.045  0.1140  0.2424 -0.0311
    1W        W59333  23.615   5.749   2.075 -0.2441 -0.1654  0.1288
    1W        W59334   0.385   6.021   6.657 -0.1041 -0.0447 -0.0468
    1W        W59335  11.150   0.192   2.590 -0.0111 -0.0334  0.0665
    1W        W59336  16.083  13.423   6.382  0.0477 -0.0340 -0.3750
    1W        W59337   0.258  19.600   1.740  0.2583  0.1912 -0.2147
    1W        W59338  24.157   5.483   3.217  0.1230  0.0392 -0.3250
    1W        W59339  21.617  25.252   1.024 -0.3896 -0.2583  0.0028
    1W        W59340   1.294   8.119   1.685  0.0333 -0.0804  0.0620
    1W        W59341  15.367   9.938   2.605  0.1987 -0.2920  0.0142
    1W        W59342   3.752  27.928   1.369 -0.0469 -0.0299 -0.0590
    1W        W59343   8.140   6.955   8.172 -0.4125 -0.0442 -0.7202
    1W        W59344   4.868  17.854   7.528 -0.1320 -0.0082  0.1787
    1W        W59345   7.168  18.852   8.710 -0.0059 -0.1435 -0.0990
    1W        W59346  28.953   1.229   8.660 -0.0169  0.3851 -0.1589
    1W        W59347   7.597   7.463   7.559 -0.2870 -0.0176  0.1226
    1W        W59348   3.680  21.851   1.737  0.1012  0.0427 -0.0965
    1W        W59349  27.704   5.959   2.137 -0.2372 -0.0328 -0.2527
    1W        W59350  15.587   0.526   1.655  0.1593 -0.2557  0.0074
    1W        W59351   8.092   4.148   0.084  0.1935  0.2418  0.2348
    1W        W59352  23.885  13.508   0.135  0.0761  0.0927 -0.4228
    1W        W59353   1.126   3.519   7.548  0.2411  0.2341  0.0417
    1W        W59354   9.328  26.195   9.551  0.2187  0.3811  0.0818
    1W        W59355  23.858   7.194   1.509  0.0243  0.4412  0.5659
    1W        W59356  27.799  26.897   8.158  0.1999 -0.2373  0.0782
    1W        W59357   0.294   8.515   0.296  0.0926 -0.1190  0.5036
    1W        W59358   5.061  18.509   6.878  0.2196  0.0947  0.0161
    1W        W59359  18.257   8.579   9.037 -0.0570 -0.1340 -0.1214
    1W        W59360  12.217  13.244   9.417 -0.2058 -0.1775 -0.2002
    1W        W59361  24.414  25.145   1.999 -0.3073  0.1329 -0.0745
    1W        W59362  11.124   1.908   2.553  0.0150 -0.2627  0.2127
    1W        W59363  18.088  10.501   1.409  0.1152 -0.2643  0.1954
    1W        W59364  22.942  22.859   1.034  0.1661 -0.0852  0.1137
    1W        W59365  13.373  27.449   1.772  0.1333  0.2408 -0.0813
    1W        W59366  27.246   5.497   7.648 -0.0154  0.2055 -0.4642
    1W        W59367  20.509   6.413   0.416 -0.0910  0.1729  0.0117
    1W        W59368  11.372  21.322   7.879  0.0807  0.0232 -0.1678
    1W        W59369   2.701  26.813   8.689  0.0193 -0.0930 -0.0478
    1W        W59370  10.164   9.438   7.500 -0.0296 -0.2432 -0.3003
    1W        W59371  14.291  18.303   9.202 -0.3610 -0.1461  0.0012
    1W        W59372  10.199   8.048   1.758  0.0648 -0.2032  0.0779
    1W        W59373  26.556  18.183   6.059  0.2774  0.0063  0.0056
    1W        W59374  11.092  12.302   9.529 -0.1557 -0.1982 -0.1306
    1W        W59375  16.054  14.215   8.493  0.2202  0.0842 -0.0875
    1W        W59376  16.870  27.343   7.981 -0.1929 -0.1041  0.2887
    1W        W59377  17.211   6.964   9.470 -0.0379  0.1727  0.0699
    1W        W59378  28.876  19.854   7.238  0.1243 -0.0079  0.2299
    1W        W59379   9.667   1.777   0.175 -0.0116 -0.2791  0.3041
    1W        W59380  18.813  15.010   1.653  0.2098  0.1165  0.1134
    1W        W59381  28.771  29.368   2.387 -0.3030 -0.0789 -0.2140
    1W        W59382  20.470  13.871   0.906  0.0146  0.0435 -0.0948
    1W        W59383  27.909   7.405   1.166  0.1312  0.0585  0.0382
    1W        W59384  16.804  15.391   9.447 -0.0147  0.0412 -0.0909
    1W        W59385  24.188  26.157   3.103 -0.0815 -0.0516 -0.0336
    1W        W59386  28.917  26.992   7.281 -0.1199  0.1612 -0.1472
    1W        W59387   5.227   1.739   2.182 -0.1543  0.1458 -0.0869
    1W        W59388  16.164  21.826   0.326 -0.2027  0.2753 -0.2164
    1W        W59389  20.409  17.104   5.940  0.0218 -0.1939 -0.1553
    1W        W59390  11.020  27.439   8.702 -0.3443 -0.2530  0.1553
    1W        W59391  16.577   9.376   1.403  0.0397  0.0487  0.0863
    1W        W59392  21.401  16.994   0.716 -0.0702 -0.0296 -0.1329
    1W        W59393   1.949  23.546   7.887 -0.0776 -0.2452 -0.1802
    1W        W59394  19.517   0.113   7.388  0.0525  0.1638  0.1454
    1W        W59395   8.751  19.931   9.330 -0.1279 -0.2537 -0.0216
    1W        W59396   0.450   0.499   2.486 -0.0729 -0.2842 -0.0523
    1W        W59397   5.317  18.264   9.192 -0.1283 -0.2076 -0.0025
    1W        W59398   3.749  14.631   0.484  0.2032  0.0005 -0.3191
    1W        W59399  14.541  21.544   1.566  0.2856  0.1483  0.2169
    1W        W59400  17.127   6.058   0.204  0.0937  0.0448 -0.3147
    1W        W59401  13.600  23.030   2.006  0.0427  0.2202 -0.1058
    1W        W59402  22.431  10.987   7.239 -0.2614  0.2056  0.1796
    1W        W59403  13.730  27.470   2.244 -0.0109 -0.0568 -0.0706
    1W        W59404  14.792  23.433   0.532  0.1073  0.1332 -0.2056
    1W        W59405  23.161  10.582   5.832  0.0755  0.2633  0.1734
    1W        W59406  22.034  16.975   0.566 -0.0181  0.0431 -0.1617
    1W        W59407   4.175   3.798   8.441  0.0992 -0.1438  0.0288
    1W        W59408  20.819  18.948   0.464  0.0693  0.0039 -0.1704
    1W        W59409  24.051   5.057   1.780 -0.1393  0.0618  0.1991
    1W        W59410  23.809   5.602   8.339 -0.0793  0.1327 -0.2883
    1W        W59411  26.267   8.963   8.500  0.1339  0.3146 -0.2356
    1W        W59412  21.794   1.443   8.459 -0.2534 -0.1768 -0.0260
    1W        W59413  17.981  20.754   0.794  0.2465 -0.0432  0.2060
    1W        W59414  25.727  18.916   0.572 -0.1864  0.2002 -0.1288
    1W        W59415  22.014  17.045   6.356 -0.1728 -0.1155  0.0526
    1W        W59416   7.255  14.994   0.937 -0.0767  0.1859 -0.0066
    1W        W59417   3.874  27.056   7.423  0.1791  0.0455  0.0326
    1W        W59418  12.415   6.466   9.364  0.3380 -0.0116 -0.0129
    1W        W59419  21.913   5.462   1.804  0.0924 -0.2243  0.1171
    1W        W59420   3.564   0.211   2.076 -0.2132 -0.0931 -0.0346
    1W        W59421   4.076  24.926   0.499 -0.3841  0.0907  0.2011
    1W        W59422  24.655   8.007   1.224  0.0790  0.3289  0.0264
    1W        W59423   7.721  26.589   7.844 -0.1811  0.2566  0.0933
    1W        W59424   7.277  10.939   1.761  0.3197  0.2634 -0.0160
    1W        W59425  15.145  20.908   9.453 -0.2169  0.1686 -0.2826
    1W        W59426  22.365   9.365   7.585 -0.0730 -0.3531  0.2216
    1W        W59427   8.589  16.188   0.605 -0.0041 -0.1151 -0.0359
    1W        W59428   6.270  10.539   7.861 -0.0644 -0.3886 -0.1458
    1W        W59429   6.275  24.872   1.059  0.3046 -0.2552  0.0609
    1W        W59430  12.375   7.838   9.553  0.0276  0.0823  0.2788
    1W        W59431   5.699   8.735   1.633  0.1467  0.0824  0.1560
    1W        W59432  23.087  15.120   0.538 -0.1282  0.0224  0.2310
    1W        W59433  12.955  15.620   3.039  0.0428  0.1940 -0.2596
    1W        W59434  21.809  19.513   9.372  0.0595  0.0514 -0.0724
    1W        W59435  20.997  11.856   0.318  0.0861 -0.2762 -0.1449
    1W        W59436  22.382  12.533   9.039  0.2039  0.1966  0.0739
    1W        W59437  15.572  23.847   1.977  0.2655  0.1380  0.0114
    1W        W59438   8.703  22.243   7.048 -0.0610  0.0973  0.2695
    1W        W59439  29.351   1.569   2.319 -0.0628 -0.2489  0.3762
    1W        W59440  19.518  27.763   8.204  0.1181  0.0480 -0.0662
    1W        W59441  17.503  29.698   8.863  0.3761 -0.2565  0.2032
    1W        W59442  11.324  16.527   7.520  0.2461 -0.0828 -0.1125
    1W        W59443  19.952  24.135   1.370 -0.1487  0.1021  0.0742
    1W        W59444   2.809   1.426   8.326  0.2529  0.0102 -0.0776
    1W        W59445  14.148  22.166   2.258  0.3305  0.3925 -0.2522
    1W        W59446  28.361  21.499   1.469 -0.0097 -0.2393 -0.1884
    1W        W59447  28.211   4.880   6.521  0.3034  0.3462 -0.2794
    1W        W59448  21.169  17.486   1.526 -0.1541 -0.1278  0.1408
    1W        W59449  17.824  28.733   7.508 -0.0031  0.1677  0.0750
    1W        W59450  29.709  16.414   6.237 -0.3962  0.1640 -0.0679
    1W        W59451  19.436  28.188   0.067  0.2039 -0.1763  0.0570
    1W        W59452  10.861   5.167   9.231 -0.0726  0.2353 -0.0600
    1W        W59453  24.537   9.052   9.467  0.0891  0.4080 -0.0751
    1W        W59454  29.173  13.767   7.783  0.0714 -0.0158 -0.0355
    1W        W59455   7.788   5.506   1.528  0.1959 -0.0925 -0.1009
    1W        W59456  24.774  19.815   6.374 -0.0324  0.1615  0.2677
    1W        W59457  18.848  14.664   2.371  0.1821 -0.0467  0.1503
    1W        W59458   6.770   7.969   8.532 -0.0141  0.1677  0.2929
    1W        W59459  21.736  24.438   7.242  0.3568 -0.2017  0.0151
    1W        W59460  16.846   8.989   1.231  0.0428  0.2188  0.3428
    1W        W59461   2.985   0.961   2.809  0.0507 -0.2241  0.1563
    1W        W59462  14.333  20.927   3.488 -0.2497 -0.3354 -0.1045
    1W        W59463  13.590  10.313   2.397  0.1600 -0.0847 -0.2431
    1W        W59464  16.351  14.669   9.418 -0.1193 -0.0717 -0.2738
    1W        W59465   1.406   3.809   8.023  0.0714  0.2431 -0.2603
    1W        W59466   0.816  26.681   7.254  0.2169  0.0853 -0.0210
    1W        W59467  10.310   3.328   7.279  0.2141  0.0840  0.1683
    1W        W59468   2.426  14.693   9.549 -0.0805  0.0154 -0.0555
    1W        W59469   3.249  26.603   7.876  0.1143 -0.3632 -0.3522
    1W        W59470  10.206  14.598   6.850 -0.2932  0.0017 -0.1123
    1W        W59471   0.271  20.557   8.508 -0.1899  0.1399 -0.2431
    1W        W59472   0.085  28.703   9.157  0.0339 -0.4561  0.2533
    1W        W59473   5.672   4.694   9.391 -0.0503  0.0701 -0.2257
    1W        W59474  23.082   8.112   2.019 -0.3188 -0.2020  0.0215
    1W        W59475  29.228  10.819   1.898 -0.1559  0.4264 -0.0814
    1W        W59476   9.698  27.563   1.970  0.0313 -0.2417  0.0616
    1W        W59477  24.078  23.843   0.027  0.1838  0.1456 -0.0259
    1W        W59478  28.175   8.608   1.576 -0.1222  0.0565  0.0099
    1W        W59479  18.264   1.635   2.159  0.0024 -0.1750  0.1005
    1W        W59480   9.042   3.279   0.076 -0.2469  0.0896 -0.3800
    1W        W59481   0.591  19.844   6.437 -0.0607 -0.0175 -0.1726
    1W        W59482  17.770  20.678   1.791 -0.0372 -0.0815  0.0149
    1W        W59483  18.142  28.436   2.398  0.3914  0.0982 -0.0759
    1W        W59484   2.923  13.888   1.471 -0.1375 -0.0245 -0.0868
    1W        W59485  25.798   1.544   6.671 -0.4439  0.0078 -0.0690
    1W        W59486  20.808  17.493   1.191 -0.2046  0.1499 -0.2408
    1W        W59487  11.321   5.914   8.271 -0.0959  0.1693 -0.1092
    1W        W59488  28.334  22.778   7.235 -0.0566  0.1043 -0.1566
    1W        W59489   7.744  28.805   3.184  0.1188  0.1852 -0.0451
    1W        W59490   3.737  10.767   8.984  0.3486  0.0421 -0.0730
    1W        W59491  18.633  26.421   7.620 -0.1898 -0.0311 -0.0630
    1W        W59492  21.131  22.544   0.369 -0.0809 -0.1293 -0.1002
    1W        W59493  28.731   4.214   2.279 -0.0349 -0.0489  0.0564
    1W        W59494  28.177  28.800   2.815  0.2434  0.0139 -0.1311
    1W        W59495   1.476  24.781   0.321 -0.3006  0.0920 -0.1209
    1W        W59496   3.093   4.947   8.121  0.0818  0.1161  0.0962
    1W        W59497  17.357  12.290   1.312  0.0118 -0.0073  0.3533
    1W        W59498   5.532  28.990   1.492 -0.0340  0.1112  0.2577
    1W        W59499   7.119   7.133   0.102  0.2007  0.0315  0.1174
    1W        W59500   1.736  10.845   8.858 -0.2257 -0.1341 -0.3835
    1W        W59501   1.277   6.698   7.633 -0.2088 -0.1258 -0.1581
    1W        W59502  11.472   1.827   0.449 -0.2928 -0.1481 -0.0915
    1W        W59503  19.789  23.535   8.727  0.1076  0.2016  0.2576
    1W        W59504  26.964  10.861   0.686  0.0557 -0.1660 -0.4281
    1W        W59505  11.013   2.939   3.091 -0.1383 -0.0132  0.0841
    1W        W59506  10.147  13.228   8.616 -0.0951 -0.1372 -0.0891
    1W        W59507  25.182  10.158   9.330 -0.0439 -0.1978 -0.0120
    1W        W59508  26.921  24.630   0.611 -0.0427 -0.1962  0.4427
    1W        W59509   4.026   5.149   0.757  0.1898  0.3851 -0.1421
    1W        W59510  11.393  11.606   8.029  0.0172  0.0817  0.0239
    1W        W59511   8.683   8.545   0.716 -0.1184  0.0246  0.1095
    1W        W59512  21.039   2.981   8.229 -0.1376  0.1629  0.1147
    1W        W59513  19.076   7.493   0.250 -0.1751 -0.1197 -0.2143
    1W        W59514   5.173   8.530   9.150  0.1644 -0.1133 -0.0600
    1W        W59515  15.306  25.122   2.890 -0.3957 -0.0441 -0.0427
    1W        W59516  25.175  15.184   1.149 -0.1026  0.1248 -0.3188
    1W        W59517  24.393   2.794   8.678 -0.1538 -0.1906  0.2802
    1W        W59518  12.022  11.243   8.921 -0.0367  0.1191 -0.1995
    1W        W59519   3.328   6.883   6.886 -0.1981 -0.1752 -0.1074
    1W        W59520  11.137  26.872   1.082 -0.1732 -0.1515  0.1779
    1W        W59521   7.121   1.456   0.834  0.0301 -0.1514  0.1407
    1W        W59522  18.162  28.319   0.299  0.0212 -0.1741 -0.3519
    1W        W59523  15.709   0.996   2.021 -0.0031 -0.0531  0.5019
    1W        W59524  17.924  24.588   7.977  0.1070  0.0296 -0.2296
    1W        W59525  10.317  15.951   0.629  0.0842 -0.2582 -0.1539
    1W        W59526  26.910   3.612   2.247  0.1919 -0.5298  0.2031
    1W        W59527  14.110  21.986   0.700  0.1921 -0.0243 -0.2684
    1W        W59528   9.321  16.194   1.215 -0.3471  0.2415  0.2048
    1W        W59529  12.782   6.873   8.611 -0.1000 -0.1033  0.0524
    1W        W59530  27.529  20.168   6.076 -0.1348  0.1972  0.0195
    1W        W59531   5.087  14.654   1.880  0.2264  0.1163  0.0261
    1W        W59532  15.752  10.871   2.113 -0.2090  0.0893 -0.1007
    1W        W59533  24.306  19.360   0.036 -0.3779  0.0435  0.0142
    1W        W59534   4.010  11.157   0.162  0.1195  0.1335  0.2023
    1W        W59535   2.890  29.073   1.456  0.0533  0.0016 -0.0458
    1W        W59536  10.309   7.266   8.313 -0.2444 -0.2813  0.2433
    1W        W59537   2.975   4.836   9.530 -0.3020  0.0245  0.0034
    1W        W59538  22.673  10.634   0.761  0.3502  0.0871 -0.2534
    1W        W59539   1.269   7.438   7.452  0.4266  0.0610 -0.3661
    1W        W59540  20.700   8.753   2.961  0.0250  0.0111 -0.0254
    1W        W59541   9.119   2.784   2.398 -0.5495 -0.1362  0.3885
    1W        W59542   7.579  19.825   1.585 -0.1271  0.1052 -0.2292
    1W        W59543  27.544  29.071   7.541  0.3637 -0.2015 -0.1925
    1W        W59544  23.263   9.573   2.017  0.1501  0.2635 -0.1060
    1W        W59545  25.101  16.745   0.305  0.3474 -0.2511 -0.0186
    1W        W59546  13.987  17.527   6.795  0.0195 -0.1495 -0.1563
    1W        W59547  28.617   5.801   6.942  0.0330  0.0888 -0.1662
    1W        W59548   7.385  17.390   8.670  0.0823 -0.2192  0.1642
    1W        W59549  25.910  28.764   1.979  0.2143 -0.0203 -0.0588
    1W        W59550  24.578  10.477   1.564 -0.0315 -0.1721  0.0647
    1W        W59551   3.594   9.783   0.924  0.0438  0.1015 -0.0696
    1W        W59552  15.204  14.037   6.701 -0.0423  0.1430  0.0185
    1W        W59553  29.700   7.573   7.502  0.1901 -0.0889 -0.0128
    1W        W59554  12.490  25.660   0.054 -0.0698  0.2383 -0.0596
    1W        W59555   4.202   7.361   7.196 -0.2338 -0.0991 -0.2675
    1W        W59556  10.836  13.439   0.198 -0.0688 -0.0820 -0.0136
    1W        W59557   1.836   6.449   8.162  0.0050 -0.1992  0.1032
    1W        W59558  29.297   7.471   6.908  0.1263 -0.3220  0.0004
    1W        W59559  22.758  28.707   7.165  0.0083  0.0531 -0.0637
    1W        W59560  23.433   9.801   1.563  0.2507 -0.1484  0.1948
    1W        W59561   1.554  19.896   7.837 -0.0274  0.0283  0.4165
    1W        W59562   5.434  11.085   1.282 -0.1982  0.0494 -0.0297
    1W        W59563   3.870  25.865   0.696  0.0828 -0.0894  0.4934
    1W        W59564  11.000   4.703   2.110  0.1638 -0.1934  0.3390
    1W        W59565  14.793  24.851   6.230 -0.0434  0.0875  0.1677
    1W        W59566  29.362   8.370   2.128  0.0817  0.3294  0.0792
    1W        W59567  25.384  10.100   1.314 -0.1160 -0.3691  0.0050
    1W        W59568  26.640   1.248   8.340  0.1306 -0.0895 -0.1168
    1W        W59569   1.464   4.274   3.647 -0.2248  0.3583  0.0773
    1W        W59570  23.360  25.449   0.416  0.1024  0.2249 -0.2812
    1W        W59571   4.670   8.495   7.657  0.1719  0.0282  0.2220
    1W        W59572  10.910  16.016   2.086 -0.3571  0.1076 -0.0639
    1W        W59573   4.890   6.175   7.692  0.0649 -0.0230  0.1405
    1W        W59574  27.283  18.217   7.059  0.2475  0.0867  0.3029
    1W        W59575  15.626  12.154   2.679 -0.1799 -0.1119 -0.1836
    1W        W59576  10.738  22.979   8.168 -0.1966 -0.1366  0.1184
    1W        W59577   7.980   1.243   7.791  0.1065  0.0390 -0.0496
    1W        W59578  20.554  29.357   7.826 -0.2886 -0.3649  0.0968
    1W        W59579  21.262  23.379   6.025 -0.3772  0.1352 -0.0962
    1W        W59580   3.240  17.302   0.479 -0.1084  0.0507 -0.2569
    1W        W59581   6.998  25.593   7.164  0.0177  0.1021 -0.2983
    1W        W59582   0.441  27.139   1.738 -0.0449 -0.0073 -0.2436
    1W        W59583  22.141   0.602   3.161 -0.2302  0.1473 -0.2555
    1W        W59584  11.839  22.669   1.297  0.0502 -0.1488 -0.0854
    1W        W59585  23.624  25.983   7.526  0.2412 -0.3155  0.2793
    1W        W59586   0.002  19.767   9.265 -0.0773  0.0680  0.0433
    1W        W59587   3.237  23.379   1.368  0.0057  0.0536 -0.0254
    1W        W59588  14.255   7.905   1.952 -0.0135  0.0030 -0.1858
    1W        W59589  26.138  29.307   3.023  0.0792  0.2599  0.1605
    1W        W59590  21.927  16.029   7.378 -0.1333  0.1175 -0.2659
    1W        W59591   4.494  11.862   8.276 -0.2916  0.0613 -0.0844
    1W        W59592  18.561  26.768   0.746  0.0073  0.2382  0.1753
    1W        W59593  27.318  23.019   0.128  0.2002  0.0182  0.1261
    1W        W59594  16.941  23.435   2.879  0.0855 -0.2229  0.0894
    1W        W59595   4.716  22.518   2.391  0.1043 -0.3261 -0.2923
    1W        W59596   2.644  27.361   3.528 -0.4603  0.0115  0.1460
    1W        W59597   4.426  25.831   0.684 -0.0626 -0.0619 -0.1163
    1W        W59598   6.793   5.909   0.764  0.1122  0.2109 -0.0731
    1W        W59599  21.462   2.453   1.105  0.2748 -0.2705  0.0055
    1W        W59600  17.193   4.653   1.174  0.2762 -0.0327  0.0949
    1W        W59601  17.104   0.481   8.110  0.0629 -0.0690 -0.0151
    1W        W59602   4.615  14.665   0.249  0.0581  0.4375 -0.0607
    1W        W59603   5.639   9.780   1.056 -0.0832 -0.1133  0.0591
    1W        W59604   2.436  29.440   2.921  0.0330  0.1384  0.1873
    1W        W59605  27.688  16.233   8.046  0.0459 -0.0754 -0.0252
    1W        W59606  29.496  10.197   1.378 -0.1961 -0.1042  0.1379
    1W        W59607   4.278   0.200   8.935  0.2129  0.1977 -0.1444
    1W        W59608  14.601   7.928   2.948 -0.0501  0.0374 -0.1675
    1W        W59609   4.932   1.783   0.596 -0.0363  0.0574 -0.1830
    1W        W59610  26.783  13.355   6.159 -0.1297 -0.0941  0.0188
    1W        W59611  20.564   6.811   9.174  0.1451 -0.0500  0.0261
    1W        W59612   6.229  26.608   8.078 -0.3560  0.0930  0.2123
    1W        W59613  16.687  27.406   1.832 -0.4043  0.1146  0.1040
    1W        W59614  11.863  18.315   6.761 -0.2076 -0.0274  0.3294
    1W        W59615  14.745  22.985   6.583  0.0774  0.4057  0.2271
    1W        W59616   4.020   5.290   1.322 -0.0356 -0.0899 -0.1027
    1W        W59617  15.475  18.650   8.108  0.1828  0.0234  0.0142
    1W        W59618  13.153  26.051   0.563 -0.0964 -0.2855  0.1643
    1W        W59619   2.060  12.586   1.119  0.3444  0.0281  0.2809
    1W        W59620  14.955  15.046   1.114  0.1210 -0.0352  0.2186
    1W        W59621   1.680  26.503   7.720 -0.1194  0.0008  0.2394
    1W        W59622   5.072   3.937   0.600 -0.0470 -0.1659 -0.0979
    1W        W59623  16.720   5.296   2.951  0.0318  0.2561  0.1588
    1W        W59624  17.230  16.191   1.487  0.1878  0.0321  0.0896
    1W        W59625   5.353  23.224   9.078 -0.3739 -0.0116 -0.2030
    1W        W59626   8.752  25.832   2.255  0.0389  0.2065 -0.1815
    1W        W59627  19.313   5.712   7.507 -0.0230 -0.2135  0.1602
    1W        W59628  16.909  15.492   1.517 -0.1928  0.0257  0.0880
    1W        W59629   2.898  10.852   7.724 -0.2138 -0.0026  0.3339
    1W        W59630   8.921  12.245   8.545  0.2229 -0.0327  0.2716
    1W        W59631  14.055   2.844   8.950  0.1994  0.0922  0.1529
    1W        W59632  21.352  22.245   1.961  0.2030 -0.5198  0.0986
    1W        W59633  27.279   7.414   9.040 -0.1063  0.4932 -0.1140
    1W        W59634  20.466   5.610   8.230  0.1000  0.0666  0.0848
    1W        W59635   5.031  19.574   1.281  0.1968  0.0445 -0.0060
    1W        W59636  21.621   5.756   2.115 -0.0552 -0.0189  0.0239
    1W        W59637   4.657  20.719   7.216 -0.1147 -0.0097  0.2692
    1W        W59638  29.615   3.450   8.487 -0.0197  0.0069 -0.0712
    1W        W59639   2.526  26.939   2.613 -0.1343  0.0523 -0.0406
    1W        W59640  15.896  23.076   6.561 -0.3224  0.0140  0.0396
    1W        W59641  29.694  13.483   1.501  0.0411 -0.1196 -0.0851
    1W        W59642  17.398   9.498   8.125 -0.2484  0.2496  0.1566
    1W        W59643   0.902  29.127   2.760 -0.0195  0.2265 -0.0721
    1W        W59644  23.052  13.715   7.368 -0.1114  0.2798  0.0430
    1W        W59645  29.498  16.101   7.788 -0.3095  0.0265  0.1685
    1W        W59646  18.087   4.532   7.904  0.3333  0.2349 -0.0503
    1W        W59647  15.716  13.603   8.979  0.3007  0.0398  0.1650
    1W        W59648  29.646   5.299   1.287 -0.1235 -0.0643 -0.1385
    1W        W59649  29.477  27.448   1.106 -0.1435 -0.1596 -0.5094
    1W        W59650  25.641  21.933   1.821 -0.0021 -0.2383 -0.4113
    1W        W59651  17.274   5.988   2.753  0.2718  0.1309 -0.0078
    1W        W59652   6.461  25.997   2.067  0.3392 -0.2027 -0.1227
    1W        W59653  28.706  13.440   6.843 -0.2136 -0.0414 -0.1803
    1W        W59654   3.187  26.184   0.240  0.0124 -0.3026  0.3847
    1W        W59655   1.571   7.203   2.890  0.0463 -0.0369  0.0873
    1W        W59656  21.761   3.545   3.180  0.1111  0.1528  0.0966
    1W        W59657  25.081  13.333   8.472  0.0370  0.1282  0.2518
    1W        W59658  22.965   7.125   8.041  0.0725  0.1665 -0.3733
    1W        W59659   5.527   3.658   8.467 -0.2502  0.0932 -0.0954
    1W        W59660  15.361  27.288   6.375  0.1901  0.2552  0.1897
    1W        W59661   7.880  21.274   7.874 -0.0647 -0.1050  0.3139
    1W        W59662   2.034  19.591   1.606  0.1672  0.0185 -0.0698
    1W        W59663  20.264  26.038   2.609 -0.2773  0.2333  0.0837
    1W        W59664  22.907   1.870   8.218  0.0585 -0.3032  0.2232
    1W        W59665  15.224  22.468   8.686  0.0235  0.0009 -0.3120
    1W        W59666   1.265   7.891   0.697  0.2662  0.2040 -0.0899
    1W        W59667  23.939   9.753   9.280  0.0710  0.1592 -0.1426
    1W        W59668  12.565  27.737   3.143  0.0693 -0.2521 -0.2403
    1W        W59669  17.179  17.953   6.239  0.3277  0.1729  0.0231
    1W        W59670  18.427  25.914   0.273 -0.2636  0.0007  0.0141
    1W        W59671  17.088   8.571   2.535 -0.1004  0.1286 -0.1377
    1W        W59672  27.653   7.910   1.149 -0.0324 -0.0623  0.2282
    1W        W59673  24.492  20.773   9.378  0.3438  0.4848 -0.0933
    1W        W59674  29.764  28.959   7.729 -0.2179  0.0578 -0.1693
    1W        W59675  20.405  12.526   1.909 -0.0100  0.1024  0.2716
    1W        W59676  17.527   4.987   1.060 -0.1074  0.0730 -0.1278
    1W        W59677  28.980  19.746   7.753  0.0206 -0.0538 -0.3049
    1W        W59678  14.717   6.311   2.001 -0.1238  0.0439 -0.1669
    1W        W59679  12.110  23.595   5.820 -0.1373  0.0657 -0.1831
    1W        W59680  12.710   2.250   0.470  0.2457  0.4025 -0.2480
    1W        W59681  25.210  11.107   6.064 -0.3098  0.3159 -0.1144
    1W        W59682  17.875  22.641   2.673 -0.2316 -0.3286  0.1459
    1W        W59683   6.067  19.492   0.450 -0.1713  0.2204 -0.0140
    1W        W59684  22.872  10.108   9.125  0.0308  0.3608 -0.0036
    1W        W59685  10.710  19.446   8.287  0.0732  0.1934 -0.0559
    1W        W59686  27.999  13.742   1.361  0.0197  0.0319 -0.0576
    1W        W59687  25.799  27.121   0.239 -0.2666 -0.2166  0.0060
    1W        W59688  24.598   8.449   0.285  0.0895  0.1612 -0.1078
    1W        W59689  10.384  18.405   0.576  0.4156 -0.0424  0.0289
    1W        W59690   7.358  16.530   7.969 -0.0631 -0.1645  0.2624
    1W        W59691  12.401  24.861   6.148 -0.1231  0.0208  0.1892
    1W        W59692  17.180  29.648   7.457  0.1865  0.0068 -0.0012
    1W        W59693   3.209  18.223   0.693  0.0710 -0.2590  0.3503
    1W        W59694  15.406  17.376   6.601 -0.1033 -0.2614 -0.0033
    1W        W59695  23.064   8.930   1.264  0.1128 -0.2909 -0.0335
    1W        W59696   6.316  12.526   0.445  0.0061 -0.1861 -0.0023
    1W        W59697  18.871   0.457   0.632  0.2041 -0.0733  0.0742
    1W        W59698   6.553  28.862   2.559  0.0471  0.2359 -0.0773
    1W        W59699  13.500   7.359   8.361 -0.0423 -0.2712  0.1239
    1W        W59700   8.366   9.989   9.414 -0.1867 -0.0382 -0.1701
    1W        W59701  15.240   4.118   0.764  0.0997 -0.2509  0.0587
    1W        W59702  15.361   4.058   6.799 -0.3172  0.2555  0.1570
    1W        W59703  23.166  10.884   9.374  0.0996 -0.1553  0.1355
    1W        W59704   8.521  27.378   2.745 -0.3002  0.4109 -0.2788
    1W        W59705   9.263   1.695   3.357 -0.0281  0.1988 -0.0583
    1W        W59706  22.452  24.448   8.573  0.0348  0.1980 -0.0068
    1W        W59707   4.505   8.253   8.892 -0.3269  0.2660 -0.2344
    1W        W59708   0.715   5.856   2.414 -0.1736  0.0782 -0.2023
    1W        W59709  18.718  23.761   2.342  0.1049  0.2190 -0.0592
    1W        W59710  18.361   3.150   7.157 -0.0974  0.1076  0.2066
    1W        W59711  13.000   0.044   2.126 -0.1733 -0.0726  0.0947
    1W        W59712  12.373   6.002   9.248 -0.1561 -0.2096  0.0433
    1W        W59713  22.137  20.711   7.665  0.0373 -0.1887  0.1613
    1W        W59714   8.785  25.811   7.143 -0.1625 -0.3129  0.0307
    1W        W59715   1.658  27.764   3.379 -0.1870  0.2337 -0.0547
    1W        W59716   0.067  20.057   7.447  0.3576 -0.0963 -0.0275
    1W        W59717  12.041   7.799   0.833  0.0557 -0.0832 -0.1400
    1W        W59718  24.907   9.761   6.176 -0.1471 -0.1224 -0.2145
    1W        W59719   2.757   4.354   0.119  0.0159  0.0198 -0.3156
    1W        W59720  25.817  26.413   7.082 -0.0317  0.0647 -0.2583
    1W        W59721  26.825  12.060   7.312 -0.0302 -0.2238 -0.0554
    1W        W59722  22.582  18.341   0.042  0.0273 -0.0496  0.1987
    1W        W59723  12.194   3.519   8.444 -0.0687  0.2930  0.3658
    1W        W59724  14.150  17.696   7.389  0.0953 -0.1122 -0.3175
    1W        W59725  28.653   9.601   9.500 -0.3167  0.0964  0.1257
    1W        W59726   5.845   1.840   7.741 -0.0964 -0.1048  0.0317
    1W        W59727   5.440  19.897   7.786 -0.0206 -0.2478  0.0735
    1W        W59728  13.633  17.848   6.895  0.1452  0.3306  0.0824
    1W        W59729  18.486  14.381   9.073 -0.0729  0.1617  0.1821
    1W        W59730   9.734   5.218   8.172  0.0628  0.0261  0.0037
    1W        W59731  16.674  22.497   1.220  0.3260  0.0001 -0.0178
    1W        W59732  28.988  12.853   8.346  0.3570 -0.0108 -0.0826
    1W        W59733  25.899  25.241   9.371  0.2973 -0.0521  0.1123
    1W        W59734   5.169   5.434   9.360 -0.2864  0.0508 -0.0373
    1W        W59735   2.713   2.295   2.319  0.1459 -0.0231 -0.3486
    1W        W59736  29.353   1.417   2.815 -0.0388  0.1049  0.1255
    1W        W59737  21.947  13.633   6.663 -0.4428  0.3536  0.1946
    1W        W59738  23.481  28.144   2.526  0.1310  0.2043  0.0645
    1W        W59739  23.132   1.240   8.017  0.1733  0.0382  0.0195
    1W        W59740  23.460   6.338   2.493 -0.1059  0.4064 -0.1216
    1W        W59741   2.776  25.551   1.468 -0.0428 -0.1492 -0.0844
    1W        W59742   4.662   6.744   2.663 -0.1851 -0.2137  0.1555
    1W        W59743  15.780  25.834   7.558 -0.0419 -0.0433  0.2606
    1W        W59744  24.110   5.676   9.379  0.0655  0.0834 -0.0100
    1W        W59745  14.241  18.051   0.753 -0.0462  0.2830 -0.3157
    1W        W59746  24.464  18.370   6.285 -0.0832  0.3820  0.2343
    1W        W59747   6.915  26.480   9.203 -0.2117 -0.0544  0.1311
    1W        W59748   4.886  27.501   6.198  0.2242  0.1562 -0.0845
    1W        W59749   0.705  15.172   6.592 -0.0107  0.3214  0.1128
    1W        W59750  22.026   8.581   6.621  0.3862 -0.2060 -0.2281
    1W        W59751   7.879  24.680   0.262 -0.1441 -0.2235  0.2892
    1W        W59752  26.084  26.620   8.067 -0.2738 -0.2333 -0.2395
    1W        W59753  18.099  15.961   1.144 -0.4834  0.0313 -0.2922
    1W        W59754  19.149  20.213   1.396  0.0299  0.1644 -0.1146
    1W        W59755   5.953  11.539   9.155  0.2752 -0.3056  0.0657
    1W        W59756  14.625  25.999   7.264  0.1065 -0.0478  0.0064
    1W        W59757   7.598  27.115   9.361  0.2377  0.0048  0.2730
    1W        W59758   4.049  28.738   7.505 -0.1074  0.6345 -0.1171
    1W        W59759  29.083   7.198   8.758 -0.1083  0.0154  0.3520
    1W        W59760   8.142   6.669   2.325 -0.0951 -0.1055  0.3408
    1W        W59761  19.263  26.350   2.912  0.4447 -0.0803 -0.0125
    1W        W59762  11.691  12.447   7.893  0.2772 -0.0964  0.1678
    1W        W59763   0.478  12.432   6.801  0.0577  0.1195 -0.1544
    1W        W59764  20.263   3.106   3.791  0.0240  0.1865 -0.5410
    1W        W59765  11.574  18.502   1.802 -0.0961 -0.2154 -0.1482
    1W        W59766   1.944  21.955   1.179  0.0360 -0.0320  0.3197
    1W        W59767  29.788   9.568   9.352  0.1327  0.0662 -0.2076
    1W        W59768  13.382  25.312   1.285  0.0047  0.1402 -0.0991
    1W        W59769  15.246   5.451   9.008  0.1657 -0.0182 -0.0431
    1W        W59770  14.357  16.541   8.101  0.3705 -0.2861 -0.0250
    1W        W59771   7.236  20.174   1.714  0.2088  0.1034  0.1501
    1W        W59772   6.398  25.913   0.860 -0.2654  0.0811 -0.3876
    1W        W59773  13.716  16.854   2.872 -0.2855  0.0630 -0.1363
    1W        W59774  23.382  13.391   7.692 -0.0753 -0.0002  0.3750
    1W        W59775  27.084  12.360   8.530  0.1569  0.1618  0.0529
    1W        W59776  24.353   3.831   0.958 -0.1076  0.1240 -0.1552
    1W        W59777   5.146  28.186   9.230 -0.0652  0.0815 -0.0503
    1W        W59778  16.032   1.253   2.956 -0.2797  0.0426  0.0193
    1W        W59779   1.768   9.040   9.136 -0.0066  0.2010  0.2778
    1W        W59780  18.317   5.636   0.759 -0.0318  0.1292 -0.2458
    1W        W59781   3.110   0.870   8.789  0.2285 -0.0981 -0.1706
    1W        W59782  24.347  16.186   0.894  0.2138  0.0350  0.2621
    1W        W59783  14.054  26.214   1.714 -0.1436  0.2453 -0.1578
    1W        W59784  17.467  25.208   2.626 -0.0372  0.0257  0.0745
    1W        W59785  21.487  13.069   1.710 -0.0216  0.0674 -0.2726
    1W        W59786  23.128   9.898   8.695  0.0780  0.2832 -0.1105
    1W        W59787  11.229  28.064   7.346 -0.2160  0.0422  0.0133
    1W        W59788  23.651   4.596   7.159  0.2518 -0.0480 -0.2324
    1W        W59789  20.414  27.311   0.804 -0.2722  0.0634  0.0442
    1W        W59790   2.187  28.999   3.209  0.0202  0.1973  0.2084
    1W        W59791  24.032  15.948   7.643 -0.2208 -0.0220  0.4242
    1W        W59792  25.411  20.921   7.665 -0.2808 -0.1496 -0.2833
    1W        W59793  28.767  14.417   6.894  0.0383  0.0428 -0.0869
    1W        W59794   4.105   5.385   7.855 -0.4625  0.1313  0.1926
    1W        W59795  11.538  22.268   8.710  0.0997  0.1766  0.1821
    1W        W59796  23.437  16.385   6.167  0.1956 -0.3515  0.0924
    1W        W59797  11.157  20.751   2.854  0.2812 -0.1909  0.0040
    1W        W59798   1.058  21.172   1.849 -0.3897 -0.0312 -0.0578
    1W        W59799  20.395  16.105   1.773 -0.0275 -0.1245 -0.1422
    1W        W59800  21.465   4.073   0.862  0.1006  0.1313  0.3394
    1W        W59801  10.393   3.400   3.634 -0.3014  0.1105 -0.3860
    1W        W59802   6.451  10.596   2.857 -0.1851 -0.1563  0.0561
    1W        W59803  10.210  14.875   8.225 -0.1878  0.2693 -0.1496
    1W        W59804   3.550   3.545   0.642  0.3085 -0.0367  0.0422
    1W        W59805  23.543  13.814   8.089  0.0027 -0.1143 -0.0661
    1W        W59806   3.038   0.809   9.419  0.1289  0.0329 -0.0595
    1W        W59807  15.967   2.368   9.255 -0.2271 -0.2716  0.1679
    1W        W59808  23.043   5.333   0.052  0.1033  0.0245  0.4713
    1W        W59809   9.385   5.128   2.430  0.0938 -0.3319 -0.0672
    1W        W59810  14.925   9.712   1.742 -0.1596 -0.0511 -0.0614
    1W        W59811  17.828   0.139   0.208 -0.0538  0.4256 -0.1147
    1W        W59812  16.015  12.342   9.537  0.2583 -0.0406 -0.0796
    1W        W59813  19.120  10.641   9.352 -0.1190  0.0008 -0.0048
    1W        W59814   4.687   7.419   7.295 -0.2661 -0.0172 -0.2477
    1W        W59815   1.658  10.354   8.680 -0.2557  0.0235 -0.0610
    1W        W59816   8.597  12.314   9.401  0.0092 -0.0525 -0.0606
    1W        W59817  19.534  25.678   1.859 -0.1129 -0.0906 -0.0666
    1W        W59818  27.215   6.789   7.588 -0.2054  0.1613 -0.0948
    1W        W59819   4.199  27.716   9.244  0.2472 -0.0053 -0.2352
    1W        W59820  11.115  20.441   7.590  0.2123  0.1028  0.0224
    1W        W59821  23.044   2.061   1.385 -0.4667 -0.0823 -0.0532
    1W        W59822  22.509   4.505   0.196  0.0110  0.1644  0.4428
    1W        W59823  26.041   6.590   9.501  0.1052 -0.4060  0.0451
    1W        W59824  24.381  26.521   7.665 -0.0405 -0.1068 -0.1156
    1W        W59825  14.912   3.182   9.147  0.2792 -0.0775 -0.1167
    1W        W59826  19.880  10.185   8.069 -0.4501  0.1952 -0.0655
    1W        W59827  13.417  17.723   7.874  0.3530  0.4894  0.1469
    1W        W59828   6.319   6.854   1.569 -0.1516 -0.1231  0.0459
    1W        W59829  21.892  28.125   2.494  0.0903  0.1317 -0.0789
    1W        W59830  23.443   1.614   3.329 -0.0078 -0.0268  0.1484
    1W        W59831  20.817  19.892   1.804 -0.1862  0.1196  0.0386
    1W        W59832  25.953  29.659   8.403  0.0750  0.0669 -0.0733
    1W        W59833   5.805  19.843   9.511  0.2243 -0.1389  0.1471
    1W        W59834  10.596  10.531   9.485  0.0949  0.2022 -0.1063
    1W        W59835  23.714  20.893   2.225 -0.2753 -0.1442  0.0622
    1W        W59836  19.487  18.820   6.028  0.1331 -0.1323 -0.2566
    1W        W59837  23.877  19.948   6.759 -0.0184  0.0280  0.1676
    1W        W59838  12.994   2.152   1.956 -0.1737  0.0191 -0.0171
    1W        W59839  16.622   4.462   7.723  0.0849  0.0598  0.0394
    1W        W59840  20.554  11.840   1.486  0.0872 -0.1822 -0.0325
    1W        W59841  22.612  13.482   7.358  0.3975  0.1090 -0.1590
    1W        W59842  28.651  21.691   8.247  0.0895 -0.0129  0.2699
    1W        W59843  21.351  19.944   1.563  0.3308  0.1750  0.0873
    1W        W59844  15.307  19.284   0.598 -0.0487 -0.2383  0.1401
    1W        W59845  11.461   3.870   2.740  0.1908 -0.1005  0.2599
    1W        W59846  15.231  20.648   1.050  0.1233  0.1363 -0.4323
    1W        W59847  21.241   2.229   8.314  0.3231 -0.1525 -0.4025
    1W        W59848  18.781  25.796   2.273  0.1525 -0.2488 -0.3824
    1W        W59849  28.877  10.836   8.191  0.0016  0.0969  0.1623
    1W        W59850  26.933  19.555   6.781 -0.0456 -0.1994 -0.5519
    1W        W59851  19.145  16.611   9.307 -0.1499 -0.1717 -0.0092
    1W        W59852   4.603  27.176   0.575 -0.0642 -0.1660  0.0183
    1W        W59853  22.137  15.470   1.347  0.1814 -0.2630 -0.0295
    1W        W59854  29.441  19.887   2.285  0.1096 -0.1220 -0.0560
    1W        W59855   9.956   1.679   1.810 -0.2181 -0.0371  0.2997
    1W        W59856  28.448  13.976   6.160 -0.2893 -0.0762 -0.2939
    1W        W59857  16.078   1.917   2.322  0.1830 -0.0059 -0.1775
    1W        W59858   1.457   2.912   2.834 -0.3984 -0.0142  0.1779
    1W        W59859  21.069   3.054   3.338 -0.0234  0.0142  0.0886
    1W        W59860  24.846  12.634   6.920 -0.0614 -0.2311 -0.0788
    1W        W59861   7.879  25.393   1.852  0.1169  0.0117  0.1463
    1W        W59862  22.433  22.601   6.990 -0.0260  0.0665  0.0492
    1W        W59863  29.151  10.837   9.168 -0.5171  0.2380  0.1718
    1W        W59864  19.622   2.369   9.286 -0.0878  0.1539  0.2947
    1W        W59865   5.394  22.666   8.188 -0.2179  0.0270  0.0599
    1W        W59866  25.420  22.349   6.844 -0.2055 -0.0054 -0.0033
    1W        W59867  13.842  11.684   1.524  0.1637  0.1646 -0.0163
    1W        W59868  25.964  17.492   6.190  0.4683 -0.1529  0.2105
    1W        W59869  21.512  26.813   0.193  0.0117 -0.0040 -0.1909
    1W        W59870  20.133  29.357   8.499 -0.2202 -0.1172  0.0334
    1W        W59871   7.068   4.307   7.631 -0.2010 -0.0962 -0.0303
    1W        W59872  17.503   8.146   8.008 -0.2085 -0.1399  0.0407
    1W        W59873  20.088   1.025   7.512  0.0219 -0.4383 -0.1422
    1W        W59874  25.887   1.074   6.786 -0.0323  0.1783 -0.1754
    1W        W59875  12.415  21.459   8.911 -0.2407  0.0855  0.0937
    1W        W59876   5.578  13.329   1.972  0.0283  0.0292 -0.1393
    1W        W59877  11.538   2.696   0.821  0.4723  0.1323 -0.0653
    1W        W59878  27.625  24.142   0.958 -0.0489  0.1224  0.0479
    1W        W59879   0.239  18.977   7.079 -0.1804 -0.2332  0.0865
    1W        W59880  14.484  14.336   9.457 -0.0827 -0.2150 -0.1622
    1W        W59881  12.430  11.813   0.219  0.0497 -0.3287 -0.0241
    1W        W59882   2.673  22.577   2.818  0.2195 -0.2000 -0.1165
    1W        W59883  22.452   4.933   9.413 -0.0435  0.2029  0.0538
    1W        W59884   9.189  28.452   1.149 -0.0384 -0.2863 -0.0479
    1W        W59885  22.867   7.199   2.401  0.1563 -0.1825 -0.0625
    1W        W59886  28.905   2.345   8.987  0.0528 -0.1423 -0.1948
    1W        W59887   7.030  15.289   1.327  0.0814 -0.2705  0.2444
    1W        W59888  17.700  11.046   7.246  0.0068  0.3572 -0.1783
    1W        W59889  21.801  13.479   2.021  0.2642  0.1702 -0.1380
    1W        W59890  17.893   2.338   7.907 -0.2337 -0.0759 -0.1754
    1W        W59891   2.871   8.144   9.304 -0.0521  0.3363  0.2553
    1W        W59892  20.823   4.787   8.486 -0.0215  0.0002 -0.1642
    1W        W59893   3.404  16.791   7.467  0.1778  0.2335 -0.2127
    1W        W59894  27.041   4.545   2.060  0.1961 -0.0240 -0.3575
    1W        W59895   1.705  26.703   1.349 -0.1169 -0.3503  0.2513
    1W        W59896  26.217   8.568   1.710 -0.0944 -0.1103 -0.0076
    1W        W59897  24.551  12.563   1.310  0.2626 -0.0113  0.1536
    1W        W59898  24.605   1.026   3.034 -0.3852  0.0710  0.1984
    1W        W59899   8.414   8.714   2.638  0.0894 -0.1482  0.1504
    1W        W59900   5.888   1.553   7.303  0.0382 -0.0528  0.1470
    1W        W59901   7.630  21.255   0.514 -0.2674 -0.1091 -0.0345
    1W        W59902  26.498   5.420   8.835 -0.2200  0.3421 -0.0875
    1W        W59903  18.014  17.228   7.985 -0.0146  0.1550 -0.0340
    1W        W59904  13.875   9.374   9.490 -0.2121  0.2202  0.2178
    1W        W59905  16.154  25.548   2.155  0.4618  0.1596 -0.2033
    1W        W59906  27.918  27.807   2.264 -0.0530  0.0635  0.1132
    1W        W59907  13.513  25.167   2.197  0.0494 -0.0255 -0.1259
    1W        W59908  15.106  17.206   2.139  0.1560  0.0253 -0.4855
    1W        W59909  20.313  16.331   7.003 -0.0111 -0.0211  0.1224
    1W        W59910  21.974  13.014   8.253 -0.1063 -0.2154 -0.1106
    1W        W59911  20.515  11.936   8.356  0.1994  0.0260  0.1251
    1W        W59912  11.817  11.174   7.998  0.3613  0.0540 -0.0735
    1W        W59913   8.003   1.223   2.767  0.2649  0.4073  0.2170
    1W        W59914  27.857   5.800   6.140  0.1439 -0.2211 -0.1138
    1W        W59915  17.709   5.035   7.943 -0.0661  0.2526  0.1576
    1W        W59916   2.154   9.624   8.089  0.2698 -0.3321  0.1366
    1W        W59917  29.507   1.205   1.913  0.2028  0.0705  0.1157
    1W        W59918   6.216  21.594   1.527  0.2550  0.1860  0.3416
    1W        W59919  29.342  12.458   8.272  0.2167  0.0632  0.1562
    1W        W59920  16.581   4.742   9.300 -0.0540 -0.3471  0.4447
    1W        W59921  15.684  16.126   2.904  0.1412  0.1689 -0.2662
    1W        W59922   9.686   0.874   2.383 -0.0089  0.3060 -0.2087
    1W        W59923   2.008  18.485   8.097  0.1065  0.1708  0.3009
    1W        W59924  27.567   2.456   9.034  0.1417  0.0626 -0.1686
    1W        W59925  20.661  26.080   7.721  0.0791  0.1300 -0.1030
    1W        W59926  20.167  18.452   9.464 -0.3540  0.0394  0.2679
    1W        W59927   7.774   3.165   8.316  0.4189 -0.2422 -0.0481
    1W        W59928   3.846  28.996   1.492  0.5380  0.2074  0.3005
    1W        W59929   3.622  25.003   0.372 -0.1137 -0.0180  0.3309
    1W        W59930  20.623  10.871   1.769 -0.3109  0.2070 -0.1144
    1W        W59931   6.549  29.527   0.303 -0.0108 -0.1934  0.0675
    1W        W59932  14.693  14.318   7.431  0.0657 -0.2365  0.0929
    1W        W59933  16.925  13.419   6.615 -0.2750 -0.1335  0.3585
    1W        W59934  28.583  18.592   8.044 -0.1112 -0.0890 -0.0140
    1W        W59935   0.390  28.559   0.553  0.1134  0.2309 -0.3400
    1W        W59936   6.020  11.416   8.166 -0.1097 -0.1881  0.0169
    1W        W59937  29.604   8.207   3.508 -0.1514 -0.2479  0.0033
    1W        W59938  11.731  29.097   8.320 -0.2140 -0.1474 -0.0656
    1W        W59939  19.087  11.898   1.598  0.0712  0.3594  0.0781
    1W        W59940  11.914  29.000   0.701  0.0871 -0.1408 -0.0763
    1W        W59941  22.686   9.885   6.805  0.1450 -0.2799 -0.1417
    1W        W59942   4.126  27.493   3.108 -0.0204  0.1069  0.0354
    1W        W59943  28.884  26.395   8.706  0.2129  0.0451  0.0553
    1W        W59944  25.224   3.343   6.928  0.2031  0.1147  0.0013
    1W        W59945  15.869  20.605   7.717 -0.0370 -0.2413 -0.2348
    1W        W59946  25.060  23.355   9.032  0.0444  0.3373  0.1488
    1W        W59947   3.396  16.116   1.605 -0.1593 -0.0358 -0.2704
    1W        W59948   2.789  14.555   7.610 -0.0934  0.0422 -0.1576
    1W        W59949  27.001   7.515   0.639 -0.1374  0.0790  0.1607
    1W        W59950   2.386  29.477   8.696 -0.3467 -0.2932 -0.0597
    1W        W59951   6.172  27.371   8.562 -0.0549 -0.0888 -0.0183
    1W        W59952   3.906  11.264   9.267 -0.5683  0.0684  0.0104
    1W        W59953  18.503   4.765   2.845 -0.2033  0.1424  0.1453
    1W        W59954  27.035  17.955   9.210  0.1665 -0.1189 -0.3754
    1W        W59955  11.753   3.041   2.944  0.3106  0.0931  0.1180
    1W        W59956  29.529  20.235   0.455  0.1845  0.1566  0.1146
    1W        W59957  19.482   9.963   2.399 -0.0631  0.1078 -0.0227
    1W        W59958  25.729  10.538   0.768  0.0245  0.1530  0.0637
    1W        W59959  14.556  15.645   6.333  0.1515 -0.1507 -0.1722
    1W        W59960  15.184   6.591   0.831 -0.1908 -0.0272  0.1250
    1W        W59961   0.699   2.679   8.667 -0.0918 -0.1876  0.0446
    1W        W59962   4.054  22.471   9.541  0.1619 -0.2725 -0.1852
    1W        W59963  28.559  20.429   6.585  0.2025 -0.0692 -0.1796
    1W        W59964  25.580  10.469   9.480  0.2964 -0.2583 -0.0085
    1W        W59965  11.834  25.829   0.445 -0.0991  0.0220 -0.1051
    1W        W59966  21.950  12.143   6.708  0.1146 -0.2640 -0.0355
    1W        W59967   1.430   3.380   0.126 -0.1398 -0.2051  0.0013
    1W        W59968   4.349  22.872   8.672  0.0906 -0.0991 -0.1074
    1W        W59969   9.940   3.098   1.017 -0.0295  0.2449 -0.1484
    1W        W59970   6.731  21.684   2.299 -0.2653  0.0771 -0.1241
    1W        W59971   0.793  27.898   9.347 -0.0446 -0.0194 -0.3186
    1W        W59972   0.612  10.156   1.277  0.0138  0.3317  0.2212
    1W        W59973  21.445  15.545   6.926 -0.2350 -0.0842  0.0860
    1W        W59974  26.109   7.120   9.323 -0.0771  0.2583  0.1684
    1W        W59975  20.296  12.314   0.036  0.2184 -0.1423  0.2519
    1W        W59976   5.592  25.222   8.186  0.1175  0.1954 -0.0316
    1W        W59977  23.569  29.197   2.449  0.0716 -0.0233  0.0060
    1W        W59978   4.780  18.637   7.827  0.0017  0.1139 -0.0446
    1W        W59979   9.004   1.350   0.105  0.2714 -0.1759  0.0829
    1W        W59980  17.744   7.954   0.084  0.3597  0.0097 -0.1536
    1W        W59981  13.967   4.687   2.521  0.0342  0.0956  0.0776
    1W        W59982  28.376  21.272   8.915 -0.1255 -0.0855 -0.0522
    1W        W59983   8.931  28.389   0.184  0.0236 -0.3201 -0.2173
    1W        W59984   3.073   0.252   0.091 -0.0802  0.5376  0.0874
    1W        W59985   2.573   1.150   1.229  0.0885  0.0133 -0.2825
    1W        W59986  19.328  11.133   6.878  0.1493  0.1133  0.2691
    1W        W59987   5.931  22.313   7.158  0.1487  0.0484  0.0533
    1W        W59988  11.576   1.063   8.695  0.1374  0.0877  0.0290
    1W        W59989  23.304   0.498   9.367  0.2348  0.2222  0.2407
    1W        W59990  25.509   2.214   7.835 -0.1981  0.2138  0.1684
    1W        W59991  12.590  27.827   1.100 -0.1368  0.3452 -0.0073
    1W        W59992  21.615  18.789   1.501 -0.3525  0.0098  0.2009
    1W        W59993   2.187  25.244   7.436  0.2689 -0.1808 -0.2300
    1W        W59994  28.115  26.011   0.119  0.0467 -0.1415  0.0234
    1W        W59995  24.697   1.442   6.525  0.0457  0.1380  0.0503
    1W        W59996  15.549   9.218   3.635  0.5001  0.3448 -0.1261
    1W        W59997  20.395   3.557   2.646 -0.0575 -0.3872 -0.4047
    1W        W59998   2.813   0.256   6.376 -0.1430  0.0196 -0.1273
    1W        W59999  18.454  17.575   0.962  0.1708  0.0052  0.2609
    1W        W60000  26.874   2.327   1.319 -0.4579 -0.0992 -0.1960
    1W        W60001  15.619  16.280   9.437  0.0731 -0.0745 -0.1414
    1W        W60002  18.765  12.002   2.072 -0.2234 -0.0233 -0.0745
    1W        W60003  10.740  24.791   2.093  0.0349  0.1112 -0.1998
    1W        W60004   5.820  26.553   0.558 -0.1036 -0.1954  0.0929
    1W        W60005  25.376   5.746   7.681 -0.1489 -0.2696  0.3446
    1W        W60006  14.646   0.066   2.670 -0.2261 -0.1726  0.1983
    1W        W60007   9.675  21.342   9.512  0.1509 -0.2024 -0.3390
    1W        W60008  26.459  19.609   5.964  0.0514  0.2486 -0.2733
    1W        W60009   8.102  15.312   7.597 -0.0958 -0.0433  0.3526
    1W        W60010   5.154  14.936   8.285 -0.0374  0.2615 -0.0091
    1W        W60011  17.114   0.033   2.997  0.0279  0.0097  0.0618
    1W        W60012  22.001  12.629   6.703 -0.3003 -0.3515 -0.0031
    1W        W60013   9.364   5.674   1.624  0.1026  0.1222  0.2842
    1W        W60014  20.980   7.047   0.407 -0.2927 -0.1643  0.0385
    1W        W60015  26.802  26.898   2.204 -0.0663  0.1287  0.0528
    1W        W60016  12.234  16.280   1.635  0.1221 -0.3786  0.1115
    1W        W60017  18.188   2.956   2.350  0.0479 -0.0971  0.0961
    1W        W60018   1.763  27.119   7.185  0.3493 -0.0556  0.0173
    1W        W60019   7.734  13.293   0.312  0.1725 -0.2145  0.1707
    1W        W60020   9.085   9.760   0.815  0.3004 -0.3220  0.0452
    1W        W60021   8.829  13.591   7.197  0.1367 -0.1710  0.1925
    1W        W60022  12.586   6.008   0.627 -0.1007 -0.1100  0.1023
    1W        W60023  12.897  29.785   8.184  0.0716  0.0211 -0.1589
    1W        W60024  23.392  21.963   9.399 -0.0794  0.0300 -0.2980
    1W        W60025  14.624  23.614   2.479 -0.0447 -0.1032  0.2144
    1W        W60026   2.521  24.611   0.415  0.3192  0.0332  0.1016
    1W        W60027  16.636  25.310   0.262 -0.0421 -0.0182 -0.1134
    1W        W60028  18.838  13.426   0.430  0.0879 -0.1441  0.0560
    1W        W60029  15.420  13.793   7.051  0.0810  0.0292  0.2339
    1W        W60030   5.449  26.920   2.132 -0.1437  0.0766 -0.0480
    1W        W60031   5.067   3.537   2.948  0.1024 -0.0067 -0.2283
    1W        W60032  27.748  19.856   7.906 -0.0034 -0.1605  0.1385
    1W        W60033  18.646  10.776   0.109  0.2596  0.2608 -0.0686
    1W        W60034   7.302  22.478   6.862 -0.2469 -0.2015  0.2791
    1W        W60035  23.336   6.761   8.871  0.1882 -0.4674 -0.2064
    1W        W60036  28.719   6.863   0.512 -0.0209 -0.0231 -0.1760
    1W        W60037  28.420  10.675   7.111  0.2474 -0.0809 -0.0815
    1W        W60038   4.018   0.438   2.304 -0.0012 -0.0097 -0.0809
    1W        W60039  17.002  15.619   6.235 -0.1473 -0.2391  0.0193
    1W        W60040  22.835  27.392   0.961  0.0874 -0.2867 -0.2733
    1W        W60041  18.663   9.677   7.191  0.0379 -0.1205 -0.1419
    1W        W60042  13.897   9.984   1.603  0.3075  0.2284  0.0776
    1W        W60043  15.104  11.808   1.526  0.3303 -0.0428  0.0551
    1W        W60044   4.483  12.802   8.238 -0.0914 -0.0374  0.1314
    1W        W60045  13.242  11.409   7.908 -0.0950 -0.0456  0.0731
    1W        W60046  24.952   9.143   2.050  0.2173 -0.0776 -0.1055
    1W        W60047   1.789  18.246   6.927 -0.0361  0.2055  0.4381
    1W        W60048  20.380  13.705   9.086  0.1179 -0.6033 -0.0838
    1W        W60049  18.555  27.263   9.223 -0.2020  0.0822 -0.1846
    1W        W60050  23.821  22.092   6.089 -0.2027 -0.3149 -0.3551
    1W        W60051  12.643  29.452   9.309 -0.1985  0.2254  0.1103
    1W        W60052  20.295  21.432   1.776 -0.0858  0.2918  0.2090
    1W        W60053  15.271  29.276   8.617 -0.1956  0.0803  0.1624
    1W        W60054  13.641   9.770   9.103 -0.1094  0.4014  0.0007
    1W        W60055  13.596   9.852   6.963  0.1245 -0.1323  0.2309
    1W        W60056  17.430  19.596   2.752  0.0774  0.2908  0.2700
    1W        W60057   0.254   1.436   8.558  0.0533 -0.0284  0.1960
    1W        W60058   8.252  26.764   1.445  0.2648  0.2539 -0.2392
    1W        W60059  10.364   2.296   3.157 -0.1715  0.0733 -0.1436
    1W        W60060  11.755  22.999   9.263  0.0334  0.1944 -0.1831
    1W        W60061  12.276  15.141   0.994 -0.0752 -0.1196  0.4388
    1W        W60062   8.112  28.238   8.491 -0.1459 -0.5415 -0.0025
    1W        W60063  23.233   5.001   9.052 -0.1384  0.1619 -0.0451
    1W        W60064  21.917  19.144   0.613 -0.2075 -0.0945 -0.0381
    1W        W60065  16.533  20.910   0.082 -0.0772 -0.1564  0.0444
    1W        W60066  19.121   5.417   3.515  0.0731  0.0818 -0.1647
    1W        W60067  25.608   1.663   0.207  0.0346 -0.2238  0.0456
    1W        W60068  18.205  13.074   1.001  0.0084  0.0607 -0.2161
    1W        W60069  21.407  16.875   7.206 -0.3146  0.1092 -0.0851
    1W        W60070   0.877   7.016   2.749  0.0983 -0.0164  0.0493
    1W        W60071  28.377   5.845   2.397  0.1193 -0.1067 -0.3619
    1W        W60072  18.636  21.054   6.464  0.0774  0.0461 -0.1757
    1W        W60073  16.264   7.881   2.980  0.2193 -0.0568 -0.2726
    1W        W60074   3.939  27.604   7.370  0.1196  0.0789  0.1723
    1W        W60075   3.160   8.646   9.063 -0.0001 -0.3488 -0.0098
    1W        W60076  21.301   6.273   7.530 -0.0625  0.1119 -0.0884
    1W        W60077  23.833  17.547   8.627 -0.3411  0.1809  0.2147
    1W        W60078   6.733  16.093   1.648  0.1437  0.1480  0.3393
    1W        W60079  12.253  15.979   7.838 -0.1660  0.1396  0.0111
    1W        W60080   9.031  17.306   2.040  0.0287 -0.0044 -0.2991
    1W        W60081   9.242  27.900   1.424  0.0881 -0.3099  0.1591
    1W        W60082  21.397  18.950   9.098 -0.0452  0.0964 -0.1845
    1W        W60083  18.949  13.494   1.689 -0.2041 -0.1178 -0.0532
    1W        W60084  19.141  16.103   9.167 -0.1547  0.0814  0.1030
    1W        W60085   1.906  21.531   8.324 -0.1692 -0.1853  0.2014
    1W        W60086   0.663  15.886   7.571  0.1353  0.1530  0.0388
    1W        W60087   2.272   5.836   2.977 -0.0155 -0.0186  0.1576
    1W        W60088  29.757   3.321   8.013  0.1300 -0.4629 -0.1305
    1W        W60089   4.817  23.238   9.260 -0.1478 -0.1522  0.0228
    1W        W60090  21.723  20.337   1.454  0.4606 -0.2421 -0.2490
    1W        W60091  12.433  18.813   1.978 -0.1091  0.0809 -0.0614
    1W        W60092   7.031  15.360   8.995  0.2571  0.3248 -0.3178
    1W        W60093  20.885   6.065   0.738  0.0798  0.0475  0.0202
    1W        W60094  24.441   1.697   1.248  0.0910 -0.0102 -0.0763
    1W        W60095  23.809  24.238   0.654  0.0123 -0.2433  0.0416
    1W        W60096   9.427  26.147   1.115  0.2169  0.0037 -0.0776
    1W        W60097  21.002  29.549   8.093  0.0846  0.2753  0.1551
    1W        W60098   3.224  13.423   8.796 -0.0744 -0.3974 -0.1601
    1W        W60099   8.666  29.357   3.352  0.2000  0.1377 -0.0623
    1W        W60100  28.751  17.417   0.678 -0.2289  0.0558 -0.2579
    1W        W60101   6.546   2.427   2.071  0.4768 -0.0574  0.2371
    1W        W60102  16.981   2.156   2.241 -0.0215 -0.1456  0.0846
    1W        W60103  16.563  10.426   2.363  0.1013 -0.0854 -0.0426
    1W        W60104  10.462  16.639   8.889 -0.1807 -0.1416 -0.1859
    1W        W60105  17.704   4.096   1.947 -0.2736  0.1931 -0.2162
    1W        W60106   3.324   3.623   7.763 -0.0718  0.0887  0.1435
    1W        W60107   8.724  24.464   7.809 -0.0247  0.3207  0.0105
    1W        W60108  13.177  26.359   1.544 -0.1797 -0.0972 -0.0667
    1W        W60109   5.341  25.915   0.422 -0.0702  0.0282  0.0626
    1W        W60110  10.055  27.135   1.737 -0.1980 -0.1099 -0.0694
    1W        W60111   6.326  12.526   1.895  0.2444  0.3048  0.2207
    1W        W60112   6.441   0.551   8.208  0.1096  0.1143  0.1413
    1W        W60113  16.284  16.311   6.226 -0.3743  0.0674  0.1956
    1W        W60114   1.272   0.396   2.996  0.3117 -0.3078  0.5842
    1W        W60115  12.468   4.115   9.259 -0.0595  0.0920 -0.1138
    1W        W60116   0.370  25.180   9.188  0.0599 -0.0883 -0.3567
    1W        W60117  12.708  24.668   6.734 -0.0137  0.2312 -0.0059
    1W        W60118  13.928   0.067   1.040  0.1792 -0.2058  0.0969
    1W        W60119  27.032  13.812   6.369  0.1415 -0.1247 -0.0899
    1W        W60120  27.695   0.795   1.560 -0.0065  0.1643 -0.0322
    1W        W60121  12.759  23.701   9.488 -0.2049 -0.0034 -0.1409
    1W        W60122   1.532  25.123   2.337  0.0303 -0.1203  0.0126
    1W        W60123  15.481  12.349   8.321 -0.1335  0.1762  0.1521
    1W        W60124   4.354   5.386   2.647 -0.2970  0.1056 -0.1718
    1W        W60125  13.410  23.991   3.003 -0.2242 -0.0402 -0.3914
    1W        W60126  18.232   0.163   0.859 -0.0794  0.1329  0.0200
    1W        W60127   0.483  22.502   9.370  0.0524  0.1175  0.1550
    1W        W60128  16.279  15.264   1.409 -0.3564  0.0579  0.1075
    1W        W60129   2.810   2.811   7.117 -0.2418 -0.1549 -0.1638
    1W        W60130  19.950  13.027   1.108 -0.0717 -0.0937 -0.0802
    1W        W60131  19.329   8.273   8.394 -0.0778  0.2416 -0.1975
    1W        W60132  20.623  15.525   7.031  0.0300 -0.1348 -0.3127
    1W        W60133  15.334  10.048   1.771 -0.4093  0.0557 -0.0376
    1W        W60134  10.122   9.022   1.313  0.0738  0.3156  0.1359
    1W        W60135   6.124  21.568   8.338 -0.2753 -0.0002 -0.0757
    1W        W60136  13.658   4.148   2.597  0.0801 -0.0478 -0.1485
    1W        W60137   3.985   1.699   8.105 -0.0413  0.0597  0.2130
    1W        W60138  14.023   9.313   8.979  0.2470  0.0246  0.0884
    1W        W60139  11.342  20.949   2.460 -0.1866  0.2165 -0.0320
    1W        W60140  18.256  23.153   9.071 -0.1747  0.2434  0.0381
    1W        W60141   5.562  13.528   1.503 -0.0491 -0.0566 -0.2608
    1W        W60142  18.581  19.941   8.389  0.2507 -0.0785 -0.0913
    1W        W60143   6.954   2.928   9.473  0.2298  0.4168 -0.1722
    1W        W60144  11.936  27.146   0.420 -0.0703 -0.0949 -0.0229
    1W        W60145   9.647  27.526   2.501 -0.0780  0.0332 -0.2885
    1W        W60146  24.776  23.626   7.458 -0.2562 -0.1322  0.0731
    1W        W60147  23.334  17.629   8.503  0.0568  0.2046 -0.0571
    1W        W60148   4.178  20.965   8.597 -0.3009  0.0833  0.0230
    1W        W60149  17.796   5.246   1.525  0.0246 -0.0273 -0.0076
    1W        W60150   2.843   6.598   1.266  0.3273 -0.0340 -0.0729
    1W        W60151   4.118  12.799   7.838 -0.1512  0.0999 -0.0092
    1W        W60152  16.938  10.959   0.848  0.1345 -0.2765  0.1949
    1W        W60153  24.920   8.701   0.711 -0.2062 -0.3649 -0.1275
    1W        W60154   1.315   4.324   1.080 -0.1078 -0.0935 -0.1017
    1W        W60155  29.193   3.268   1.743  0.2338 -0.2915  0.2887
    1W        W60156  25.134  18.885   0.471 -0.0615 -0.1160 -0.2233
    1W        W60157  25.357  20.193   2.082  0.0195  0.0785  0.1032
    1W        W60158  20.493  12.192   6.461 -0.1298 -0.1662 -0.2914
    1W        W60159   1.976  27.258   0.273 -0.3918 -0.0648 -0.2314
    1W        W60160  22.501   6.734   3.173  0.1427  0.1290  0.2653
    1W        W60161  17.997   8.936   1.409  0.1571  0.2324 -0.0733
    1W        W60162  10.055  27.727   2.245 -0.0251  0.1886  0.0511
    1W        W60163  17.038  14.243   7.883  0.2251 -0.2843 -0.1873
    1W        W60164  21.234  18.800   8.468 -0.0644  0.1298 -0.0214
    1W        W60165   1.440   5.233   0.586 -0.0559 -0.1745 -0.0911
    1W        W60166  13.269   1.193   0.388  0.0171 -0.0844 -0.0216
    1W        W60167  23.641   0.111   7.120 -0.1762 -0.1982 -0.2949
    1W        W60168  15.624   4.999   3.825  0.3407  0.3483  0.1501
    1W        W60169   3.561  28.794   7.684  0.3421 -0.2817 -0.1235
    1W        W60170  28.977  17.438   8.893  0.0985 -0.2110  0.0693
    1W        W60171   1.871   4.540   1.785  0.0515 -0.0869 -0.0752
    1W        W60172  18.554   5.615   2.118  0.2642 -0.4083  0.0388
    1W        W60173   1.920   6.134   8.513 -0.1191 -0.2340 -0.2765
    1W        W60174  29.693  12.996   1.580  0.0026 -0.2527 -0.1916
    1W        W60175   7.694  25.111   7.678 -0.2053  0.0033 -0.0018
    1W        W60176   3.243  19.002   8.944 -0.0709 -0.3890 -0.0585
    1W        W60177  25.127  14.265   6.522  0.3064  0.2059  0.0730
    1W        W60178  15.766   8.116   9.277  0.0770 -0.1162 -0.3519
    1W        W60179  22.915  24.618   8.783  0.0726 -0.0054  0.2123
    1W        W60180  11.080  15.818   1.220  0.1587  0.0493 -0.1356
    1W        W60181  12.851  18.436   0.249  0.1163 -0.2264 -0.0042
    1W        W60182  14.482  20.199   7.443  0.0129  0.1056  0.1254
    1W        W60183  24.662   1.354   9.056  0.1754  0.2427 -0.2127
    1W        W60184   0.154  10.319   0.520 -0.2023 -0.0382  0.2626
    1W        W60185  22.358   2.043   9.060 -0.1005 -0.2675 -0.2709
    1W        W60186  13.206   6.046   1.100  0.1035  0.0057  0.0981
    1W        W60187  12.614   4.249   2.094  0.1994 -0.3185 -0.2127
    1W        W60188  28.161   8.379   1.116  0.2297  0.1892  0.0542
    1W        W60189  10.976  29.438   6.712  0.1778  0.4254  0.2966
    1W        W60190  14.239  19.322   2.554  0.3216  0.2439 -0.1217
    1W        W60191   7.531   1.389   8.925 -0.0301  0.0354 -0.1259
    1W        W60192   3.681  21.397   2.149  0.1223  0.0774  0.1502
    1W        W60193   3.700  18.402   8.446 -0.1534 -0.1117  0.0567
    1W        W60194   3.584  24.079   1.998  0.0892 -0.0392  0.1332
    1W        W60195  20.260  27.859   2.500  0.1039 -0.0760  0.1360
    1W        W60196  20.233  23.503   7.244 -0.0846 -0.1093  0.4896
    1W        W60197  22.967   0.366   8.106 -0.1929 -0.1132 -0.0649
    1W        W60198   1.823  25.286   1.336 -0.1284 -0.0589  0.2818
    1W        W60199  22.692   0.437   1.520  0.0103 -0.1302 -0.2563
    1W        W60200  18.112  25.428   1.820  0.0311  0.3375  0.0556
    1W        W60201   9.648   8.886   9.397 -0.0421 -0.2301 -0.4096
    1W        W60202  22.091  17.428   6.640  0.2052  0.1841  0.1619
    1W        W60203  14.790  20.560   0.765 -0.0418  0.2154  0.2733
    1W        W60204  15.869  26.635   0.744  0.1185 -0.0118 -0.1750
    1W        W60205   3.324  27.344   2.907  0.0730 -0.1505 -0.2292
    1W        W60206   8.326  12.450   1.443 -0.0062 -0.0574 -0.2514
    1W        W60207  12.571   0.652   0.186  0.1239 -0.1320 -0.2217
    1W        W60208   0.043   0.673   8.779  0.2542 -0.3218 -0.0934
    1W        W60209  22.395   6.735   7.325 -0.0584  0.1079 -0.0426
    1W        W60210   0.771  17.314   0.732 -0.0859  0.1337 -0.3282
    1W        W60211  15.539  18.924   0.810 -0.1041 -0.2270 -0.0273
    1W        W60212  11.852   7.442   0.597  0.1167 -0.0768  0.3125
    1W        W60213  13.725  12.039   8.745  0.1260 -0.0384  0.1000
    1W        W60214  24.677  17.024   7.652 -0.0896 -0.0625  0.1180
    1W        W60215   1.561   0.806   0.717  0.2560 -0.3129 -0.1438
    1W        W60216   9.575   0.332   9.391 -0.0289  0.4084 -0.0181
    1W        W60217   7.823   5.321   0.164  0.3178 -0.2878 -0.2137
    1W        W60218  20.165  16.676   5.981  0.0064  0.2087  0.0065
    1W        W60219  18.399  13.704   1.724  0.0871 -0.0902  0.1314
    1W        W60220   6.594  21.499   8.641 -0.0815  0.3067  0.0295
    1W        W60221  20.798  22.611   7.952  0.1094  0.0902  0.0667
    1W        W60222  21.599  11.099   6.852 -0.3418 -0.1324  0.1367
    1W        W60223  23.997   9.331   2.872  0.1296 -0.4329  0.2482
    1W        W60224  12.917  16.650   0.408 -0.2688  0.2390  0.1992
    1W        W60225  15.916  26.291   7.879  0.4653  0.2128 -0.0073
    1W        W60226   0.221  27.667   6.787 -0.2581  0.3106  0.3364
    1W        W60227  10.367   7.006   3.744 -0.1358 -0.0438  0.0885
    1W        W60228   1.636   7.060   7.471 -0.3372 -0.1890  0.0051
    1W        W60229   9.184   7.373   2.827 -0.1086 -0.1863  0.2262
    1W        W60230  17.573   6.225   2.151 -0.2221 -0.1220 -0.2990
    1W        W60231  24.121   6.198   7.604  0.1933 -0.2451  0.3522
    1W        W60232  27.012  15.668   0.733 -0.1342 -0.1599 -0.0086
    1W        W60233  15.063  19.923   6.796  0.0228  0.0688 -0.2990
    1W        W60234  17.936  16.178   1.628 -0.0293 -0.1294 -0.4740
    1W        W60235  28.268  29.344   2.321  0.2192  0.2580  0.1405
    1W        W60236  18.934  14.706   8.944 -0.0773 -0.0131 -0.1015
    1W        W60237   8.463   7.349   8.004  0.0038  0.1790 -0.2115
    1W        W60238   3.305  24.901   7.679 -0.1666 -0.1348 -0.0377
    1W        W60239  11.953   4.134   9.399 -0.0137 -0.3123 -0.0882
    1W        W60240   3.700  19.846   8.730 -0.0316 -0.0914  0.0437
    1W        W60241   5.410  29.563   7.709 -0.0776  0.1633 -0.2254
    1W        W60242  17.665  13.003   1.689 -0.0077  0.0765 -0.0268
    1W        W60243  22.891   7.306   0.992 -0.4120  0.1020  0.0385
    1W        W60244  28.970   7.237   6.603  0.3040 -0.2733 -0.2260
    1W        W60245   3.497   9.850   7.649 -0.1645  0.0507  0.1700
    1W        W60246  17.497   9.330   7.507 -0.2933  0.1902  0.1239
    1W        W60247  25.611   8.016   6.481  0.0210  0.1604  0.1541
    1W        W60248  16.181  12.396   9.009  0.0127  0.4900 -0.2443
    1W        W60249  20.783   5.240   0.493 -0.0614 -0.1111  0.5508
    1W        W60250  21.114  13.275   0.954 -0.0283 -0.0724 -0.3796
    1W        W60251   1.357  13.888   9.425 -0.0006  0.0231  0.1717
    1W        W60252   6.206  26.104   8.062  0.0392  0.1729 -0.1039
    1W        W60253  14.653  27.192   0.471  0.1755  0.1579 -0.0447
    1W        W60254  17.838  18.875   6.328 -0.1570 -0.3622  0.0401
    1W        W60255  20.930   1.613   8.810 -0.2449 -0.4514 -0.1322
    1W        W60256  18.082  12.766   0.041  0.1392  0.0695 -0.2840
    1W        W60257   2.330   2.969   2.723 -0.2439 -0.4557 -0.0071
    1W        W60258   7.614   7.945   9.411  0.2195 -0.1954  0.1534
    1W        W60259  25.653   2.441   3.029  0.0461 -0.1288 -0.1490
    1W        W60260  10.386  27.367   7.395  0.0758  0.0660  0.1372
    1W        W60261  25.400  10.076   7.853  0.2103 -0.0684 -0.2097
    1W        W60262  25.453  13.606   8.303  0.0373 -0.0581  0.0354
    1W        W60263   4.010  11.776   8.919 -0.0409 -0.0060 -0.2374
    1W        W60264  21.548  25.698   1.692 -0.0346  0.2690  0.1322
    1W        W60265  15.841  11.821   1.726  0.1944  0.1191 -0.4195
    1W        W60266  25.138  26.679   7.971 -0.4100  0.2631 -0.0698
    1W        W60267   7.426   1.010   7.705 -0.0463  0.0297 -0.3595
    1W        W60268  11.182  17.515   2.771 -0.1502 -0.0877 -0.3251
    1W        W60269  11.159  22.048   6.912  0.1165 -0.1772  0.1141
    1W        W60270   9.538  16.233   6.791 -0.2236 -0.0835 -0.2305
    1W        W60271  25.247   5.694   8.876  0.0819 -0.0908 -0.0552
    1W        W60272  14.129   4.226   2.321  0.3661  0.0198  0.2837
    1W        W60273  13.683  25.313   0.843 -0.2494 -0.1679 -0.0563
    1W        W60274  29.568  23.771   2.150 -0.2846 -0.0907 -0.0410
    1W        W60275  14.616  12.768   3.137  0.2500 -0.2049 -0.1316
    1W        W60276  18.203   5.219   7.856  0.2404 -0.0424  0.2410
    1W        W60277   4.497   3.739   7.983 -0.0884  0.1023  0.1503
    1W        W60278  13.366   6.954   1.924  0.2630 -0.3146 -0.3394
    1W        W60279  29.612  13.947   9.386  0.0169  0.0231  0.2026
    1W        W60280  22.347  28.413   8.924 -0.2547  0.2503  0.1479
    1W        W60281   9.518  13.942   8.863 -0.2024 -0.0595  0.0288
    1W        W60282  14.361  27.394   9.077 -0.3223 -0.1889  0.2401
    1W        W60283  12.804   4.334   0.838 -0.0866  0.0575  0.1659
    1W        W60284  24.110  12.487   5.738 -0.0372 -0.0123 -0.0380
    1W        W60285  13.473   1.632   7.942 -0.1868  0.0837 -0.0961
    1W        W60286   8.595  18.775   0.550  0.0900 -0.0511 -0.1570
    1W        W60287  18.868   4.284   2.603 -0.1421  0.0187 -0.2366
    1W        W60288  28.186   8.006   1.770 -0.1834 -0.1629  0.0278
    1W        W60289  23.822   3.464   2.351 -0.0166  0.0754 -0.0248
    1W        W60290  12.794  18.273   7.136 -0.0605 -0.0552 -0.1517
    1W        W60291   9.221  20.772   8.203  0.2344  0.2792  0.0515
    1W        W60292  22.846  27.950   2.479  0.1302  0.0836 -0.1513
    1W        W60293   3.447  16.185   8.174  0.2298  0.1290 -0.0117
    1W        W60294   2.322   5.811   1.399  0.0506 -0.1826 -0.0177
    1W        W60295  21.028   5.933   7.907 -0.2659  0.2778 -0.1305
    1W        W60296  29.329  27.680   7.382  0.0453 -0.2019 -0.2888
    1W        W60297  21.706   6.786   8.069  0.0059 -0.0512 -0.0068
    1W        W60298  11.601  16.941   6.914 -0.0286  0.2997  0.1042
    1W        W60299  17.602   7.978   7.586  0.1624  0.0976 -0.2747
    1W        W60300  19.229   6.147   3.738  0.1327 -0.3602  0.0885
    1W        W60301   1.747  23.115   9.171 -0.0547 -0.0661  0.4056
    1W        W60302   3.502  19.974   0.802 -0.0654 -0.2176 -0.0388
    1W        W60303   3.467   2.907   1.757  0.2299 -0.1884  0.0625
    1W        W60304  20.622  15.336   6.540 -0.2561 -0.2530  0.1087
    1W        W60305  25.796  11.440   9.547  0.0526 -0.2176  0.1392
    1W        W60306   6.544   0.753   8.688 -0.1233 -0.1764 -0.1669
    1W        W60307  13.802   2.151   8.159  0.0829  0.0995  0.0494
    1W        W60308  21.678   4.285   0.045 -0.2813 -0.0570  0.1447
    1W        W60309  10.623  15.888   7.849  0.1468  0.0475 -0.0094
    1W        W60310  26.257  29.800   9.280  0.1283 -0.1045 -0.3497
    1W        W60311  21.361  24.210   2.329 -0.0239  0.0527 -0.0704
    1W        W60312  13.529   6.508   8.846  0.2162 -0.1528 -0.0985
    1W        W60313  12.718  15.403   6.724 -0.0198 -0.0774 -0.2817
    1W        W60314  16.444  19.358   8.304  0.0305 -0.2309  0.1890
    1W        W60315  22.749   8.378   7.307  0.1776  0.1677 -0.0164
    1W        W60316   6.767  27.483   6.961  0.0071 -0.1287  0.0766
    1W        W60317   0.304  16.549   1.241 -0.1599 -0.4203  0.0342
    1W        W60318  26.094  19.793   1.480  0.0220 -0.0243 -0.2309
    1W        W60319  13.891  23.439   9.516 -0.1903  0.0915 -0.1780
    1W        W60320   8.556  21.330   8.471 -0.0040 -0.0726 -0.0146
    1W        W60321  14.272  21.833   8.410  0.0492  0.0409 -0.3498
    1W        W60322   6.197  15.210   8.274 -0.0374 -0.0958  0.0373
    1W        W60323   3.048   6.765   8.866  0.0407 -0.1514  0.1824
    1W        W60324   7.420  26.208   2.214 -0.0803  0.0976 -0.0796
    1W        W60325   0.416  23.003   0.626  0.0267 -0.1927 -0.3040
    1W        W60326   0.326   0.770   8.018  0.4786  0.0506  0.1497
    1W        W60327   9.328   3.115   8.931 -0.0056  0.0554 -0.1118
    1W        W60328   6.638  27.523   8.698 -0.1503 -0.1181  0.0876
    1W        W60329   5.211  19.069   0.868  0.0589 -0.1219  0.0447
    1W        W60330  14.433  28.393   2.190 -0.0927  0.0747  0.1379
    1W        W60331   3.744  16.464   1.005  0.0466 -0.0195 -0.4411
    1W        W60332   4.913   2.048   1.928 -0.0853  0.1896  0.1242
    1W        W60333  15.160   4.496   7.785 -0.1404  0.3731  0.0384
    1W        W60334  22.318   1.516   9.210 -0.1280  0.0622 -0.0942
    1W        W60335   3.992  21.222   9.034 -0.0851 -0.1227 -0.1216
    1W        W60336   4.942   1.527   7.653  0.0460  0.5675 -0.1970
    1W        W60337  28.916   0.901   9.062 -0.0611  0.3070  0.0481
    1W        W60338  12.029   3.046   0.871  0.3201 -0.0611 -0.0565
    1W        W60339  16.031   1.891   1.827 -0.0190 -0.1057 -0.0281
    1W        W60340  11.402  20.643   2.012  0.0853  0.1376 -0.1211
    1W        W60341  21.003   7.713   2.866  0.0227  0.1383 -0.0349
    1W        W60342  14.010  17.144   7.388 -0.0724  0.2339 -0.4121
    1W        W60343  15.566  27.462   7.698  0.0063 -0.1618  0.1238
    1W        W60344  14.241   8.804   7.114  0.2078  0.0461  0.1482
    1W        W60345   4.088  29.096   6.827  0.4850 -0.0046  0.0419
    1W        W60346  18.754  19.944   9.150  0.1272 -0.2853 -0.0603
    1W        W60347   1.166  26.746   2.668 -0.0390  0.2718 -0.1403
    1W        W60348   2.775  11.686   0.866  0.1908 -0.0623 -0.0131
    1W        W60349  12.618  18.844   7.915 -0.0869  0.1605  0.0793
    1W        W60350  25.777  24.023   8.422  0.0004 -0.3992  0.1060
    1W        W60351  11.924   1.463   8.620  0.0146  0.1584 -0.3047
    1W        W60352  14.347  23.558   2.072 -0.2155  0.1016 -0.1194
    1W        W60353   9.227  15.018   1.216  0.2521  0.0720  0.2460
    1W        W60354  18.183   6.731   9.155  0.0446 -0.0889 -0.0543
    1W        W60355  19.210  12.510   8.351  0.1492 -0.1601 -0.2183
    1W        W60356  25.952  11.148   8.549  0.0021  0.0509 -0.3535
    1W        W60357   6.167   4.442   2.071  0.1596 -0.2097 -0.2669
    1W        W60358   2.700  19.737   6.569 -0.4053  0.2399 -0.3303
    1W        W60359  16.358  12.016   0.885  0.0895  0.0259 -0.0282
    1W        W60360  14.252  13.879   2.033  0.0932  0.0222 -0.1672
    1W        W60361  24.305  12.118   7.532 -0.1477  0.1581  0.2946
    1W        W60362  29.446  11.000   9.544 -0.0494 -0.1639 -0.0336
    1W        W60363  24.527  23.174   6.168  0.1531 -0.3024 -0.1988
    1W        W60364   8.884   5.670   1.585  0.2571  0.0755 -0.0982
    1W        W60365   8.800  20.249   8.211  0.1277 -0.1921 -0.0081
    1W        W60366   9.248   0.421   0.206 -0.0625 -0.0326 -0.2441
    1W        W60367   7.346   9.781   2.023  0.0940 -0.3009 -0.0615
    1W        W60368   9.438  15.983   1.693  0.2939  0.3331 -0.1008
    1W        W60369  19.775  18.845   0.643 -0.0755  0.0043  0.3116
    1W        W60370  11.360  12.853   7.945 -0.2679 -0.3598 -0.0186
    1W        W60371  19.162  20.130   0.172  0.0092 -0.0642 -0.2649
    1W        W60372   5.754  21.321   8.713  0.0232  0.1219 -0.2005
    1W        W60373  14.544  25.304   0.235 -0.0877  0.1686 -0.1359
    1W        W60374  23.401  11.981   6.009  0.4149  0.0763  0.1273
    1W        W60375  23.940  11.117   7.353 -0.3811  0.0994  0.2939
    1W        W60376  28.273  25.212   8.607  0.0460  0.2209 -0.1299
    1W        W60377   1.021  28.065   6.505  0.1463  0.2301  0.1676
    1W        W60378  12.450  15.556   7.681 -0.1946 -0.0043 -0.0750
    1W        W60379  23.142   9.890   2.338  0.1319 -0.0067 -0.1582
    1W        W60380   9.692  12.636   1.518  0.0475  0.2201 -0.0357
    1W        W60381  15.146   1.728   7.205  0.0247  0.3551  0.0463
    1W        W60382   3.363  26.547   0.777  0.1403 -0.1980 -0.0099
    1W        W60383   7.485  27.447   8.986  0.1297  0.1128 -0.1598
    1W        W60384  12.456  21.612   7.121  0.2822 -0.3134  0.0480
    1W        W60385   6.873  19.698   8.695  0.1812  0.0249 -0.0141
    1W        W60386  28.792  14.792   1.212  0.0815  0.1575  0.0336
    1W        W60387  15.186  25.653   7.972 -0.3919 -0.0371 -0.2003
    1W        W60388  21.267  20.454   0.545 -0.2466 -0.2777  0.1515
    1W        W60389  28.446   7.557   1.992  0.0741  0.1952  0.1112
    1W        W60390  27.326   1.129   1.394  0.1599  0.2660  0.0960
    1W        W60391   4.802  25.955   8.552 -0.0394  0.2347  0.0383
    1W        W60392  15.637  17.426   9.067  0.2733 -0.0914  0.0988
    1W        W60393   3.251  11.632   1.186 -0.1347  0.0083  0.0332
    1W        W60394   5.589   7.820   8.342 -0.2946  0.1374  0.4132
    1W        W60395   8.270  21.170   9.296 -0.0780 -0.0598  0.1500
    1W        W60396  22.042  24.836   0.978 -0.1496 -0.2240 -0.2466
    1W        W60397   6.595   4.804   1.906  0.1483 -0.0049 -0.4091
    1W        W60398  12.029  26.783   2.647  0.0885 -0.0011 -0.0624
    1W        W60399  29.578  10.135   8.772 -0.2500 -0.0662  0.3085
    1W        W60400  28.307   9.624   6.793  0.1743  0.0594 -0.1500
    1W        W60401  27.701   7.631   8.951  0.0276  0.2600 -0.1707
    1W        W60402  25.685  19.345   7.850  0.1213  0.0212  0.1943
    1W        W60403  17.377  20.968   0.071  0.2636 -0.2169 -0.0571
    1W        W60404   1.934  20.730   6.560 -0.0745  0.2656  0.2177
    1W        W60405   0.355  24.736   2.690 -0.1512  0.0340 -0.1782
    1W        W60406   5.171  14.792   0.925  0.0814 -0.3930 -0.1030
    1W        W60407  21.312  26.360   0.066  0.0567 -0.0579 -0.0729
    1W        W60408   9.977   1.277   0.286 -0.0328  0.1031  0.3252
    1W        W60409  17.805  13.256   0.225  0.1108 -0.2835 -0.2814
    1W        W60410   5.130  10.109   0.289  0.0975  0.0290 -0.4173
    1W        W60411  28.423  27.985   2.220  0.0854  0.2423 -0.1538
    1W        W60412  28.804   6.437   8.143 -0.0490  0.0459  0.1972
    1W        W60413  14.778  19.351   8.919 -0.1978 -0.0277 -0.0075
    1W        W60414  17.002  22.080   7.279  0.0679  0.2304  0.2135
    1W        W60415   8.654  23.799   7.949 -0.2530  0.1524  0.1155
    1W        W60416   7.536  12.910   0.640  0.0530 -0.0519  0.0579
    1W        W60417  27.587  11.326   2.284  0.3305 -0.0070 -0.0165
    1W        W60418   7.569  19.251   7.838 -0.1015  0.0793  0.0941
    1W        W60419   1.742  24.899   8.208 -0.1437 -0.2692 -0.3343
    1W        W60420  22.644   8.120   3.244 -0.1133 -0.0309  0.0562
    1W        W60421  23.066  22.218   6.438  0.2156  0.1839  0.0675
    1W        W60422   6.565   7.477   9.490 -0.1406  0.4316 -0.0656
    1W        W60423  17.787  22.909   3.632  0.0357 -0.0587  0.3897
    1W        W60424   0.199  13.999   6.277 -0.1528 -0.0769  0.0696
    1W        W60425  21.712  19.234   1.073  0.4588  0.0903  0.2903
    1W        W60426  10.537  22.671   8.485  0.1433 -0.0159 -0.4024
    1W        W60427   9.897  18.200   0.540 -0.0958  0.0237 -0.0141
    1W        W60428  18.250   9.069   0.321  0.0556  0.1351  0.0810
    1W        W60429   9.095  13.290   1.558 -0.1473 -0.1110  0.0866
    1W        W60430  29.595  17.087   6.262 -0.1425  0.0458 -0.0783
    1W        W60431   8.152  15.041   8.689 -0.0109 -0.4076  0.1370
    1W        W60432  27.920  24.056   0.044  0.2975 -0.5013  0.0173
    1W        W60433   6.616  21.274   8.139 -0.0401  0.1286 -0.0561
    1W        W60434  26.009   9.337   1.096  0.0708 -0.0977  0.0848
    1W        W60435  19.469  27.605   7.715 -0.1364 -0.2075  0.1847
    1W        W60436   1.981  28.911   0.022 -0.2961  0.1681  0.0239
    1W        W60437  12.968   9.069   1.019 -0.0681  0.1400 -0.1082
    1W        W60438   7.056  24.137   1.763 -0.3634 -0.1748  0.0977
    1W        W60439  28.683  16.442   9.363 -0.1689  0.2962  0.0203
    1W        W60440  29.347   4.160   0.116 -0.3138 -0.3069 -0.2674
    1W        W60441  10.256  28.621   8.618  0.4205  0.0208 -0.0907
    1W        W60442   5.657   9.438   8.388 -0.0588 -0.1382 -0.1018
    1W        W60443  17.552  23.169   1.867  0.3267 -0.1067  0.0375
    1W        W60444  24.592  29.269   8.048 -0.1934 -0.1317  0.1181
    1W        W60445  21.074  13.498   6.640  0.4247 -0.1570  0.0672
    1W        W60446  26.204  10.711   7.849  0.3203  0.0264  0.2378
    1W        W60447   8.364   6.420   7.709 -0.1766 -0.0607  0.0363
    1W        W60448  13.688  15.984   0.979  0.3084 -0.4358  0.1625
    1W        W60449  29.039  17.976   9.155 -0.1486  0.4427 -0.0435
    1W        W60450  13.057   8.005   9.505 -0.0144 -0.0525 -0.0557
    1W        W60451  15.767  21.636   1.965 -0.1823 -0.3003  0.0943
    1W        W60452  21.533  21.565   0.088 -0.0370  0.0910 -0.2193
    1W        W60453   6.767  10.420   6.468 -0.3245  0.2508  0.1418
    1W        W60454  16.063  23.152   1.522 -0.6754 -0.1162  0.0184
    1W        W60455  17.601   9.646   2.015 -0.0154  0.2327  0.1360
    1W        W60456  23.360   9.957   7.328 -0.1246  0.1408  0.2740
    1W        W60457  28.101  12.367   7.298 -0.3373 -0.2051 -0.2917
    1W        W60458  12.118  25.284   1.110  0.0978  0.0260 -0.3447
    1W        W60459  21.234  15.797   0.077  0.1045  0.4195  0.0117
    1W        W60460  19.829  22.099   0.209  0.2454  0.1168 -0.4273
    1W        W60461  28.193  27.834   7.348  0.1811 -0.0256  0.0769
    1W        W60462   0.766  24.437   1.216 -0.1171  0.1413 -0.2189
    1W        W60463  19.141  23.715   1.482 -0.1438  0.1234 -0.7294
    1W        W60464   0.781  28.577   0.016  0.0934 -0.0791 -0.0265
    1W        W60465   8.941  27.315   7.918  0.0304  0.1753 -0.2279
    1W        W60466  17.269  14.862   1.548  0.2133  0.0121  0.1882
    1W        W60467  16.310   4.172   1.448  0.1768  0.3378  0.0876
    1W        W60468   4.340   6.160   2.143  0.0985 -0.1277 -0.0645
    1W        W60469  11.604  24.585   9.075  0.0521 -0.1924 -0.0947
    1W        W60470  11.411  29.256   8.717 -0.0516 -0.1255  0.0812
    1W        W60471   1.040  29.484   8.039 -0.0450 -0.1200 -0.3909
    1W        W60472  14.915  27.958   8.794 -0.1501 -0.0903 -0.1322
    1W        W60473  10.508  21.554   2.446 -0.0908 -0.0978  0.1225
    1W        W60474  29.192  17.155   0.473 -0.3422 -0.0450  0.0090
    1W        W60475   3.502   6.619   0.068 -0.0409 -0.2271 -0.0982
    1W        W60476  23.462  25.775   9.444 -0.0102 -0.1183 -0.0813
    1W        W60477  22.164  19.881   0.012  0.0198  0.2245 -0.2089
    1W        W60478   0.086  11.701   7.506  0.1530  0.2212 -0.1535
    1W        W60479   2.697  22.593   8.940 -0.2498 -0.0986 -0.0931
    1W        W60480   9.446  19.442   9.117  0.3436  0.0683 -0.1705
    1W        W60481  11.644   6.176   1.568 -0.1541  0.0685 -0.1347
    1W        W60482  26.824   2.628   9.192 -0.3268 -0.0764  0.0536
    1W        W60483  14.045   8.410   8.062  0.3449 -0.2253 -0.0587
    1W        W60484  20.837  17.116   0.807  0.1545 -0.3021  0.3096
    1W        W60485   2.171   5.419   0.020 -0.1953  0.1850 -0.1191
    1W        W60486  29.795  25.553   8.390  0.0289 -0.0228  0.2471
    1W        W60487  11.574  10.738   0.015  0.0773  0.0281  0.1316
    1W        W60488  11.345  20.275   9.348 -0.1401  0.2587  0.2407
    1W        W60489   1.292  12.762   6.823 -0.0785 -0.0742  0.1665
    1W        W60490  26.296  27.572   2.514 -0.0946 -0.1835  0.1399
    1W        W60491   1.528   6.052   2.685 -0.1007 -0.1795  0.2665
    1W        W60492  27.001   9.340   7.919  0.1630 -0.1178 -0.1324
    1W        W60493  12.567  24.101   6.978 -0.3666  0.0944 -0.0706
    1W        W60494   6.957  28.300   1.467 -0.3843  0.2503 -0.0754
    1W        W60495   4.103  18.498   7.321 -0.2123  0.0831  0.1317
    1W        W60496  21.565  25.781   1.012 -0.0383  0.0703 -0.0757
    1W        W60497   0.628  26.737   0.400 -0.1169  0.0159  0.1317
    1W        W60498  23.067  15.686   0.216 -0.0729 -0.3550  0.1234
    1W        W60499   6.039  28.970   8.242  0.0297  0.0413  0.2004
    1W        W60500  13.595  11.308   2.661 -0.1900  0.2881  0.0967
    1W        W60501  19.578   4.558   8.248 -0.4112  0.1256 -0.1081
    1W        W60502  13.891  22.993   8.197  0.0877 -0.0268  0.0096
    1W        W60503  27.740  13.346   9.336  0.2616 -0.1540  0.2143
    1W        W60504  29.390   2.590   3.597  0.1465 -0.0814 -0.1226
    1W        W60505  19.113  12.083   0.673  0.1007 -0.0521 -0.0652
    1W        W60506   2.407  28.513   0.097  0.0165  0.3461 -0.5412
    1W        W60507   9.966  21.749   8.767  0.0373  0.0358 -0.1384
    1W        W60508   4.105  19.331   7.759 -0.3777 -0.0575  0.1836
    1W        W60509   5.097  13.927   8.412 -0.1293 -0.2125 -0.2540
    1W        W60510  10.380   1.796   1.438  0.1135 -0.0304  0.0548
    1W        W60511  26.816  19.475   6.242  0.0347  0.1677 -0.1344
    1W        W60512   2.942  28.493   9.311 -0.0746  0.1306  0.0795
    1W        W60513  16.501   9.644   0.292  0.2827  0.0245  0.1119
    1W        W60514  19.627  14.533   0.745 -0.2011 -0.0276 -0.0463
    1W        W60515   1.550   1.910   0.122 -0.0268  0.1768  0.0488
    1W        W60516  22.108  13.215   6.487  0.1532  0.1652 -0.0447
    1W        W60517   3.746  29.055   7.174 -0.0391 -0.2023  0.1164
    1W        W60518  17.368   2.199   1.511 -0.1908 -0.1638  0.3791
    1W        W60519   4.191  14.240   2.077  0.2382 -0.3034  0.1585
    1W        W60520   4.045   1.679   3.235 -0.1854  0.0758  0.0007
    1W        W60521  10.160  11.803   8.821  0.3540 -0.0263  0.0832
    1W        W60522   3.705   9.616   7.210 -0.0061  0.0508 -0.1860
    1W        W60523  22.754   3.722   8.570  0.0842  0.1446 -0.2425
    1W        W60524  10.848  10.110   0.146  0.0982  0.0308  0.1926
    1W        W60525   9.407  11.003   7.628 -0.3718  0.1027  0.0131
    1W        W60526   8.630   7.596   1.851 -0.0371 -0.0580 -0.1498
    1W        W60527  25.205   6.474   0.791  0.0679  0.1416 -0.3243
    1W        W60528  28.824  12.878   8.828  0.2188 -0.0702 -0.2236
    1W        W60529   5.795   3.598   7.503 -0.0984  0.1430 -0.1216
    1W        W60530  17.438  18.222   7.651 -0.0624  0.1306  0.2156
    1W        W60531   6.662  27.044   1.388  0.1064  0.2895 -0.0910
    1W        W60532   4.749   4.186   1.419 -0.0044  0.1898 -0.1312
    1W        W60533  27.431   4.495   9.306 -0.2308 -0.2224  0.1827
    1W        W60534  20.160  21.517   8.611 -0.0419  0.0783  0.0353
    1W        W60535   7.973  23.478   0.950  0.4041 -0.1407  0.0297
    1W        W60536  16.096  21.736   2.876 -0.0617  0.1976 -0.0067
    1W        W60537   3.716  23.846   3.000  0.0095  0.1904 -0.2829
    1W        W60538   6.214  10.431   0.162 -0.2764  0.0087  0.0275
    1W        W60539   2.857   9.971   0.242  0.2003 -0.0534  0.1206
    1W        W60540  12.405  12.390   0.444  0.0617  0.0694 -0.0360
    1W        W60541   7.836   5.019   2.972 -0.2109 -0.0597  0.1486
    1W        W60542  26.257  21.859   8.876  0.2983  0.0540  0.0507
    1W        W60543  21.904  21.276   8.927 -0.5193  0.0434 -0.4650
    1W        W60544  25.092  11.163   7.443  0.0261  0.1211 -0.2261
    1W        W60545   3.020  13.708   7.994  0.2040  0.0430  0.0660
    1W        W60546  16.280  24.115   6.756 -0.0797 -0.2348 -0.0422
    1W        W60547   5.922   7.766   2.686 -0.2387 -0.2013  0.2142
    1W        W60548  12.105   5.355   1.240 -0.1926  0.0430  0.1649
    1W        W60549  26.763  11.133   7.858 -0.3548 -0.0839  0.3598
    1W        W60550  10.834  24.349   2.520 -0.0582 -0.0421 -0.0882
    1W        W60551  23.655  29.691   0.192 -0.1203  0.0555 -0.2719
    1W        W60552  18.214  29.383   8.743  0.0503  0.2248  0.0330
    1W        W60553  29.620   9.942   7.422 -0.2895  0.1421 -0.0819
    1W        W60554  12.179  28.977   7.480 -0.3261  0.0418  0.0869
    1W        W60555  17.724  24.070   7.244 -0.1229  0.3472 -0.3416
    1W        W60556  16.007   5.873   9.363 -0.0390 -0.0284 -0.1047
    1W        W60557  28.838  26.473   6.622  0.1412 -0.0540 -0.1835
    1W        W60558  21.421   7.208   2.205  0.1184 -0.2142  0.1732
    1W        W60559   2.005   1.573   6.607  0.0662 -0.0302 -0.3662
    1W        W60560  23.466   0.939   6.738 -0.0864  0.0698  0.0438
    1W        W60561  23.458  18.047   8.721 -0.0105  0.1426  0.0099
    1W        W60562  21.211   1.671   9.199 -0.3419  0.1771  0.1002
    1W        W60563  18.212  12.972   7.113  0.2242  0.0643 -0.1942
    1W        W60564  13.445   5.201   7.184  0.3617 -0.0188 -0.2521
    1W        W60565  11.307   9.933   0.575  0.1356 -0.1071  0.0513
    1W        W60566  29.711  18.035   0.443  0.0426  0.1429  0.1734
    1W        W60567  15.143  10.968   8.578 -0.1520  0.1755 -0.1801
    1W        W60568  21.186   4.014   2.456  0.1391 -0.1603  0.0418
    1W        W60569  27.420   5.353   0.867 -0.0241 -0.1713 -0.3885
    1W        W60570   5.362  10.573   7.345  0.1912  0.0631 -0.0694
    1W        W60571   2.573  11.225   1.358 -0.1264 -0.0688  0.1071
    1W        W60572  18.642  23.040   6.033 -0.0481 -0.2817 -0.2598
    1W        W60573  22.527  11.285   1.509  0.0998  0.0385  0.3746
    1W        W60574   3.443   7.127   3.063 -0.0326  0.0604  0.0787
    1W        W60575  27.121   4.730   9.003 -0.1571 -0.0963 -0.1612
    1W        W60576   3.205  28.130   8.676 -0.2620 -0.1183 -0.2568
    1W        W60577  25.897  19.420   0.643  0.0448  0.1593 -0.1476
    1W        W60578  28.750  13.439   9.022 -0.0685  0.0534 -0.2382
    1W        W60579  14.455   6.550   2.467 -0.1012  0.2022  0.2370
    1W        W60580  15.307  25.239   2.388 -0.0646 -0.0674 -0.3517
    1W        W60581  14.890  19.372   6.839 -0.1191  0.0559  0.1632
    1W        W60582  22.575   2.992   1.325 -0.0255 -0.1789  0.1294
    1W        W60583  12.573  18.713   9.269  0.0992  0.3629  0.2746
    1W        W60584   6.918   6.358   7.906 -0.0695 -0.2640  0.0295
    1W        W60585  17.888  17.376   0.095 -0.0695 -0.1679 -0.1347
    1W        W60586  28.820   7.659   7.728 -0.0637 -0.2376 -0.3003
    1W        W60587  28.515  25.765   7.156 -0.0532  0.3311  0.0438
    1W        W60588  22.993   1.298   6.892  0.3122  0.0862 -0.1614
    1W        W60589   9.573  17.160   2.013  0.2335  0.0677  0.0152
    1W        W60590  16.355  15.143   0.042 -0.2762  0.0024  0.1556
    1W        W60591   3.438   6.070   8.854 -0.0509 -0.1023 -0.0348
    1W        W60592  16.817   9.085   8.686  0.1999 -0.0508 -0.3441
    1W        W60593  22.689  24.485   7.301  0.0424 -0.0943 -0.0850
    1W        W60594   8.392  27.157   2.355 -0.1062  0.0135 -0.0266
    1W        W60595  19.978  27.987   8.377  0.2497  0.0138  0.0572
    1W        W60596  18.206  16.764   8.251  0.1663 -0.2490 -0.0518
    1W        W60597   6.824   5.157   7.602 -0.0934  0.1259 -0.1182
    1W        W60598  27.605  24.082   7.656 -0.5751 -0.0414  0.2788
    1W        W60599  19.422  29.098   9.098  0.0730  0.0777 -0.2641
    1W        W60600   5.812  10.378   8.156  0.0121  0.3271  0.1669
    1W        W60601  12.246   7.786   2.182 -0.2853 -0.1251 -0.2717
    1W        W60602   2.654  12.558   1.339 -0.1319  0.2727  0.1409
    1W        W60603  13.804  28.088   1.313  0.2711 -0.1792 -0.0341
    1W        W60604   4.886  12.353   1.371 -0.3542  0.3537 -0.0643
    1W        W60605  16.663  18.735   1.360  0.1280  0.0667 -0.0308
    1W        W60606  19.493  20.697   6.962 -0.2354  0.0445  0.0466
    1W        W60607  16.696  14.581   6.661 -0.0240 -0.1717  0.0970
    1W        W60608  24.707  20.299   1.329 -0.1517  0.1040 -0.0854
    1W        W60609   0.134  21.781   8.993 -0.1215 -0.0797 -0.0544
    1W        W60610  19.976   0.320   2.948 -0.1705  0.0242  0.0154
    1W        W60611  20.504  17.350   7.786  0.1788  0.0348  0.0050
    1W        W60612  21.263   1.701   8.393 -0.0039 -0.1500 -0.1938
    1W        W60613  26.236  27.012   0.514 -0.1366 -0.0270 -0.0823
    1W        W60614  21.044  27.740   2.413 -0.0686 -0.2134  0.2218
    1W        W60615  18.688   1.095   2.896  0.3071 -0.0146  0.3159
    1W        W60616  14.100   0.158   7.697  0.1899 -0.1724 -0.3665
    1W        W60617  10.255  18.068   8.039  0.0729  0.1395 -0.0232
    1W        W60618   3.771  25.397   7.897  0.2474  0.0296 -0.0836
    1W        W60619  28.434  10.329   0.850  0.5183 -0.0930  0.0960
    1W        W60620   3.097   9.822   0.851 -0.1085 -0.3294 -0.0280
    1W        W60621   9.777   8.334   1.697 -0.3468  0.0389  0.1193
    1W        W60622  21.018   6.540   0.569  0.1452 -0.2638  0.2114
    1W        W60623  15.760   8.790   0.806  0.0135  0.3767 -0.4197
    1W        W60624  10.529  13.424   2.900  0.3168  0.2969  0.2333
    1W        W60625  17.439  16.322   8.823  0.0281  0.2751  0.0622
    1W        W60626   1.346   1.112   8.096  0.1197 -0.3185  0.2905
    1W        W60627  25.920   8.532   7.207  0.0220 -0.1155 -0.3065
    1W        W60628   9.378   2.020   9.245  0.0424  0.0030 -0.3047
    1W        W60629  10.763   9.052   8.767  0.0183 -0.2668 -0.1205
    1W        W60630   8.021  11.194   2.584 -0.2214 -0.1527 -0.0624
    1W        W60631  27.761  13.860   0.497  0.1852 -0.2542  0.3731
    1W        W60632   4.216   3.492   7.677  0.1557  0.0017 -0.1598
    1W        W60633  28.505   2.995   7.330  0.1471  0.1264  0.1031
    1W        W60634   0.805  22.091   7.608  0.3346 -0.0344 -0.4635
    1W        W60635   6.691  29.102   1.230  0.1782  0.1101  0.0155
    1W        W60636  19.749  26.660   1.671 -0.0798 -0.1619  0.3434
    1W        W60637   4.958   2.724   9.443 -0.0426  0.2015  0.0671
    1W        W60638  12.913  25.769   9.247 -0.0034 -0.3114 -0.1700
    1W        W60639   8.497  29.584   3.776  0.5504 -0.2008  0.0507
    1W        W60640  16.706   6.675   0.553 -0.2435  0.0833 -0.0951
    1W        W60641  26.217   9.627   9.173  0.0127 -0.0777  0.1227
    1W        W60642  25.272  24.402   7.653 -0.0343  0.3782 -0.2285
    1W        W60643   7.821  25.577   0.428  0.3123  0.1666 -0.0095
    1W        W60644  14.346  25.850   8.117  0.6091 -0.0188 -0.1265
    1W        W60645   9.505   2.790   3.353 -0.2324 -0.1574  0.1419
    1W        W60646   7.550  22.214   2.347  0.0355 -0.1648  0.1016
    1W        W60647  26.202  23.093   0.519  0.1915  0.1524 -0.3240
    1W        W60648   3.086  11.151   8.130  0.2954  0.0788 -0.2196
    1W        W60649   0.110  14.623   7.675 -0.1569 -0.0216 -0.0097
    1W        W60650   3.135   6.513   2.419  0.2476 -0.0232  0.1294
    1W        W60651  13.315   0.495   9.363  0.1130 -0.3047 -0.0839
    1W        W60652   8.282   4.959   0.824 -0.1847  0.0210 -0.0516
    1W        W60653  20.638   6.836   1.715  0.1134  0.0076 -0.0434
    1W        W60654  14.124   5.659   2.321  0.1644  0.1037 -0.2206
    1W        W60655  12.103  26.934   1.772  0.4874 -0.0347  0.0993
    1W        W60656  11.153   7.275   9.444  0.2146  0.2039 -0.1714
    1W        W60657  26.989  11.575   8.798 -0.0090 -0.4051 -0.0917
    1W        W60658  22.055  26.436   3.042  0.3894  0.1380  0.0914
    1W        W60659  14.501  14.322   0.862 -0.1867 -0.0994  0.1771
    1W        W60660   2.838   4.621   0.979  0.0677  0.1047 -0.2769
    1W        W60661  25.861  25.455   8.100  0.1927 -0.1157 -0.2455
    1W        W60662  11.394  20.068   0.478  0.3799 -0.0995 -0.0943
    1W        W60663   2.255  16.731   8.058  0.0710 -0.1802  0.1078
    1W        W60664  17.326  23.216   0.568 -0.2506  0.1323 -0.1923
    1W        W60665  26.577   6.447   8.720 -0.1921  0.1671 -0.2879
    1W        W60666   0.343   1.330   2.276  0.3668 -0.1070  0.2443
    1W        W60667  22.406   2.923   9.404  0.1109 -0.3116 -0.0155
    1W        W60668   1.950   4.041   1.727  0.0061  0.0967  0.1590
    1W        W60669   3.297  27.506   0.488  0.0929  0.1344 -0.0363
    1W        W60670  19.570   9.782   7.795 -0.1658  0.0870  0.0130
    1W        W60671  14.578   5.503   8.779 -0.1202 -0.0345  0.3428
    1W        W60672  24.215   3.764   7.240 -0.1849  0.1273 -0.4062
    1W        W60673  15.021  13.600   6.828  0.2244  0.1801  0.0269
    1W        W60674   3.988   2.125   0.616  0.0025  0.0371  0.1119
    1W        W60675  29.223   4.592   1.028 -0.0065 -0.1573  0.2266
    1W        W60676  23.815  13.766   7.031  0.0439  0.0646  0.3308
    1W        W60677  13.853  17.368   1.345 -0.2168 -0.0512  0.2642
    1W        W60678  20.714  15.739   1.916 -0.0926  0.0726  0.0452
    1W        W60679  24.887  16.419   6.088 -0.1336  0.3072  0.2419
    1W        W60680  10.660   0.455   3.271  0.5002 -0.1287  0.2017
    1W        W60681   8.635  20.391   9.490  0.0991 -0.0969 -0.2053
    1W        W60682  11.910  26.142   7.255 -0.1505 -0.1644  0.1278
    1W        W60683  29.271  19.634   6.896  0.1685 -0.0407 -0.1553
    1W        W60684  13.130  17.231   7.671  0.0389 -0.0295  0.2836
    1W        W60685   6.208  13.002   7.525 -0.3026 -0.0214  0.0777
    1W        W60686  13.106   9.612   2.205 -0.0132 -0.2624  0.1983
    1W        W60687   5.546  23.244   1.011  0.1673 -0.1457  0.2182
    1W        W60688  12.221   4.001   1.661  0.0081  0.0073  0.1898
    1W        W60689  22.915  14.807   8.806 -0.1700 -0.1021 -0.2035
    1W        W60690   9.407   3.211   0.431  0.0956  0.0569 -0.0217
    1W        W60691   4.676  10.067   0.588 -0.0157  0.0029 -0.0329
    1W        W60692  19.927  24.245   1.869  0.1670 -0.0567 -0.0941
    1W        W60693   9.897  20.406   1.289 -0.4498  0.1022 -0.1343
    1W        W60694  16.941   8.466   6.356 -0.3029 -0.0962 -0.1221
    1W        W60695  20.175  27.009   8.779  0.1021  0.2325 -0.2639
    1W        W60696   7.073  27.715   2.429  0.1355 -0.1065 -0.1143
    1W        W60697  16.265  21.950   7.519  0.0851  0.1997  0.0907
    1W        W60698  10.298  12.073   1.943  0.0059 -0.0718 -0.1723
    1W        W60699  11.778   7.325   8.688 -0.1698  0.0185 -0.0708
    1W        W60700  24.393  11.172   1.641  0.3815 -0.0811 -0.1074
    1W        W60701  15.543  21.756   2.833 -0.0714  0.1782 -0.1301
    1W        W60702  14.882   9.241   1.693  0.2350 -0.0258 -0.1823
    1W        W60703  17.413  17.664   7.243  0.1811  0.1083 -0.3570
    1W        W60704   0.920  19.256   7.774  0.2581 -0.0600  0.1093
    1W        W60705  23.271  12.847   1.612 -0.1804 -0.3770 -0.3150
    1W        W60706  12.450  16.977   1.233  0.0229 -0.0546  0.2555
    1W        W60707  12.027   1.209   0.930 -0.1021 -0.2594 -0.0666
    1W        W60708  12.528  12.748   0.000  0.0506  0.0108 -0.0991
    1W        W60709  22.431  17.322   6.199 -0.4016 -0.1137  0.0448
    1W        W60710  13.566  15.277   0.080 -0.0535  0.0946 -0.0683
    1W        W60711  21.614  19.416   0.265 -0.0486 -0.0154  0.3070
    1W        W60712   7.754  23.739   7.767  0.0614 -0.3575  0.0520
    1W        W60713   5.381  18.421   2.318  0.0595 -0.1866  0.1140
    1W        W60714  29.200  13.239   6.969 -0.2502 -0.0805 -0.2503
    1W        W60715  26.039  27.856   1.225  0.0305 -0.1211  0.1225
    1W        W60716  24.227  10.758   9.200  0.0385 -0.0483  0.0265
    1W        W60717  17.592  16.885   8.842 -0.1890  0.1077 -0.1493
    1W        W60718   2.803  12.294   7.922  0.0386  0.2318  0.0828
    1W        W60719   8.246  19.805   0.974  0.1093 -0.2325  0.2350
    1W        W60720   5.576  12.624   0.060  0.0820  0.2319  0.0249
    1W        W60721  18.577   1.763   7.678  0.0702  0.0609 -0.0774
    1W        W60722  13.421   0.146   1.853  0.1090 -0.3918  0.1302
    1W        W60723  17.529   3.765   6.931 -0.1416 -0.1795  0.1192
    1W        W60724  16.834  20.924   8.798  0.1454  0.1529 -0.2887
    1W        W60725  10.318  11.170   1.598  0.2904  0.0970 -0.1373
    1W        W60726  17.104   5.742   1.495  0.2448  0.1121 -0.1910
    1W        W60727   1.105   4.417   8.877 -0.0842  0.1617 -0.0007
    1W        W60728   6.531  20.501   6.827 -0.3478 -0.2942  0.3625
    1W        W60729  27.352  25.974   0.517  0.0328  0.1437  0.1029
    1W        W60730   4.703   2.325   9.257  0.2136  0.2728  0.5503
    1W        W60731   1.904   3.788   6.296  0.1621  0.0015  0.3589
    1W        W60732  17.339  16.710   1.823  0.0342  0.0375 -0.3030
    1W        W60733  24.659  21.076   5.657 -0.1314 -0.3851  0.1504
    1W        W60734  11.631  19.033   1.606 -0.2566 -0.2301 -0.0648
    1W        W60735  20.628  24.539   8.034  0.1859  0.1347 -0.3326
    1W        W60736  25.915  29.448   0.109 -0.0403  0.3180  0.1608
    1W        W60737  21.033  14.982   0.767  0.2490  0.2517 -0.1957
    1W        W60738  15.534  16.953   1.871  0.3694 -0.0633 -0.1360
    1W        W60739  10.003  13.149   7.206  0.0280 -0.2281 -0.1217
    1W        W60740  13.639  11.520   9.282  0.0047  0.0442 -0.0240
    1W        W60741  16.604  19.146   2.474  0.0208 -0.2557  0.0850
    1W        W60742   0.100  12.566   9.149  0.0255  0.0108  0.1582
    1W        W60743   5.870   8.793   6.839  0.0889  0.2901 -0.1388
    1W        W60744  12.707   6.513   8.159 -0.3971  0.1988 -0.1791
    1W        W60745  16.055  10.145   9.118 -0.0338  0.6292  0.2079
    1W        W60746  10.452   0.201   1.257  0.4467 -0.0356 -0.1709
    1W        W60747  11.225  21.549   8.298  0.1170  0.0704 -0.2501
    1W        W60748  16.737   0.064   2.062 -0.0942 -0.1117 -0.0728
    1W        W60749   5.880  10.175   9.476  0.0799  0.3796 -0.1048
    1W        W60750  24.561  21.632   0.735 -0.2790 -0.0016  0.1942
    1W        W60751   1.883   9.518   1.956  0.2833 -0.0083 -0.0910
    1W        W60752  16.392   8.259   7.809 -0.4369  0.1367 -0.1557
    1W        W60753  10.206   2.717   0.857 -0.0174 -0.2154 -0.1812
    1W        W60754   0.494   5.674   6.290  0.0713  0.0194 -0.0263
    1W        W60755  27.937  22.563   6.111  0.2531  0.0547 -0.0270
    1W        W60756  25.104  17.599   8.536 -0.1478  0.1030 -0.1142
    1W        W60757  17.715  10.103   8.896  0.3014  0.2577 -0.4641
    1W        W60758   6.793  13.868   1.462 -0.0584 -0.1467  0.1675
    1W        W60759  23.529  25.534   7.734 -0.1888  0.0056 -0.0082
    1W        W60760  21.695  16.248   5.987 -0.0223 -0.0804  0.2695
    1W        W60761  18.407  27.168   3.133 -0.1548  0.1829  0.1482
    1W        W60762  11.788  20.987   9.058  0.0447  0.0933  0.0332
    1W        W60763   9.167  29.402   1.188  0.0537 -0.4371 -0.0019
    1W        W60764  28.559  13.141   0.297 -0.2246  0.4580  0.2572
    1W        W60765  17.816  28.159   8.688 -0.0486  0.1549 -0.2587
    1W        W60766  25.877  13.680   1.124  0.2904 -0.4283 -0.1477
    1W        W60767  11.812  22.009   3.189  0.1493  0.0471  0.2233
    1W        W60768  29.577   6.577   7.290  0.0891 -0.0098  0.1665
    1W        W60769   6.177  10.240   7.428  0.0651 -0.0454  0.0621
    1W        W60770  10.802  15.826   1.650 -0.1579 -0.1698 -0.1510
    1W        W60771  16.337  18.833   2.158  0.2799  0.1220 -0.0193
    1W        W60772  15.140  21.829   3.062 -0.0432  0.2726 -0.0955
    1W        W60773   7.815  22.534   8.559 -0.0946 -0.1623 -0.0441
    1W        W60774  26.292   4.472   2.588  0.2238 -0.1162  0.0268
    1W        W60775   1.965  19.781   8.371 -0.2175 -0.2341  0.2064
    1W        W60776  13.012   0.338   1.508 -0.0068  0.0351 -0.1335
    1W        W60777  22.955  24.162   0.349  0.1667  0.1659  0.4403
    1W        W60778   0.164  11.006   7.328  0.0334  0.2425 -0.2951
    1W        W60779  17.365  25.698   8.330  0.3878  0.2734  0.1326
    1W        W60780   2.010  16.259   1.834 -0.1872 -0.0001  0.0123
    1W        W60781  28.069   1.509   1.746  0.0570 -0.1229  0.2682
    1W        W60782   8.085  26.087   2.698 -0.0101 -0.0003 -0.0115
    1W        W60783   7.601  21.821   8.134 -0.0190  0.0162 -0.2670
    1W        W60784  14.806   9.378   8.743 -0.1827  0.2680  0.0593
    1W        W60785   9.280   8.886   2.149  0.0064 -0.1415 -0.1371
    1W        W60786   9.736   9.301   0.230 -0.2335 -0.0250 -0.0353
    1W        W60787  18.748  24.019   1.771  0.2938  0.0889  0.1486
    1W        W60788   5.635  16.306   9.042 -0.0663  0.0750  0.2853
    1W        W60789  17.573   5.269   8.432  0.2488 -0.0923  0.1772
    1W        W60790  22.054  11.527   6.886  0.2123  0.0635  0.3675
    1W        W60791  21.613   4.436   2.074  0.1245 -0.0276  0.0398
    1W        W60792  29.750  12.593   7.436  0.0360  0.1312 -0.1919
    1W        W60793   6.623   8.392   8.277  0.1008  0.1870 -0.0707
    1W        W60794   8.212   0.270   2.905  0.2350 -0.0542 -0.2097
    1W        W60795  25.935  12.981   8.533  0.2200  0.1305 -0.1874
    1W        W60796   4.249  17.009   7.871 -0.0387  0.0158  0.5023
    1W        W60797  20.312  23.835   6.854  0.2567 -0.0145 -0.1507
    1W        W60798  25.059   7.637   7.459  0.2175  0.3203  0.1194
    1W        W60799  15.724  23.409   0.542  0.2331  0.0076 -0.1733
    1W        W60800  10.623  10.227   8.538  0.0708 -0.3177  0.0161
    1W        W60801   7.517  24.425   2.552  0.4089  0.0238 -0.3262
    1W        W60802  15.135  28.540   0.521  0.2965 -0.3049 -0.1375
    1W        W60803  13.980   8.955   0.438 -0.2503  0.2701 -0.0530
    1W        W60804  24.690   5.729   1.877  0.1193  0.1358 -0.1224
    1W        W60805  23.878  12.510   0.637 -0.0504 -0.0767 -0.1011
    1W        W60806  19.368  18.904   8.887  0.0986  0.2070  0.0217
    1W        W60807  22.699   4.862   1.472 -0.0365  0.0873 -0.1013
    1W        W60808  28.053   5.751   1.402  0.2018  0.1079 -0.1281
    1W        W60809  15.873  29.283   7.049 -0.1101  0.0483  0.2674
    1W        W60810   5.326  24.432   1.953  0.0833  0.1601 -0.0898
    1W        W60811  24.972  16.033   4.875 -0.1539  0.3130 -0.0735
    1W        W60812  17.484  18.100   1.892  0.3838 -0.0723 -0.0715
    1W        W60813   2.967   9.201   8.388 -0.0514  0.0686 -0.0457
    1W        W60814  12.866   0.918   7.268 -0.1038 -0.0283  0.1852
    1W        W60815  15.907  14.518   0.777 -0.0385  0.0541  0.0497
    1W        W60816  24.802  28.138   8.590 -0.3552 -0.2175  0.0108
    1W        W60817   8.153   4.710   9.063 -0.1135 -0.2535  0.1127
    1W        W60818  26.302  26.723   2.050 -0.0991 -0.1839  0.0163
    1W        W60819  28.802   2.258   1.500 -0.0399 -0.2094  0.1081
    1W        W60820   7.089  26.428   8.601 -0.0568 -0.2468  0.1359
    1W        W60821   8.235  14.219   8.612 -0.1839 -0.1790 -0.4023
    1W        W60822  10.901   6.638   2.634  0.1905 -0.0162  0.0799
    1W        W60823  19.402  13.394   5.720  0.0737 -0.1015 -0.1860
    1W        W60824  29.393  23.678   8.234  0.1565 -0.1900 -0.0555
    1W        W60825  19.368  25.495   7.936  0.1870 -0.2654  0.0036
    1W        W60826  21.100  13.741   2.625  0.2047 -0.0381  0.1656
    1W        W60827   9.430   4.241   7.561  0.0639 -0.0594  0.0046
    1W        W60828   1.386  17.571   7.520  0.2003  0.1693 -0.0831
    1W        W60829  25.830   8.827   1.078  0.2047  0.0447  0.1854
    1W        W60830   7.322   0.437   2.426 -0.1593  0.0659 -0.0440
    1W        W60831   4.521   5.903   2.611  0.3332 -0.0442 -0.1767
    1W        W60832  23.431  14.970   7.665 -0.0229 -0.0664  0.0255
    1W        W60833   6.503  23.730   7.613 -0.2969 -0.0591 -0.0840
    1W        W60834  17.527   4.462   2.276  0.2325 -0.0035 -0.1590
    1W        W60835   5.471   0.126   7.340  0.0776 -0.0444  0.0607
    1W        W60836  10.863   9.635   0.442  0.0461 -0.0012  0.0490
    1W        W60837  20.188  26.498   1.870 -0.0177  0.2496 -0.0277
    1W        W60838   7.188  18.311   2.509  0.0262 -0.1894 -0.2793
    1W        W60839  13.077   6.406   6.929 -0.0702 -0.0361  0.0794
    1W        W60840   6.490   6.457   0.842  0.1971 -0.0941  0.3869
    1W        W60841   8.641  29.585   8.562 -0.2775 -0.0366  0.0319
    1W        W60842  14.660   3.624   8.756  0.1769  0.0125  0.0069
    1W        W60843  13.324  27.269   2.934  0.1123  0.3037 -0.1971
    1W        W60844   6.976   4.191   0.368  0.0761  0.0289  0.0636
    1W        W60845  27.226   1.395   8.180 -0.1468 -0.4556 -0.3461
    1W        W60846  12.991  15.356   7.725 -0.0251  0.1569  0.2156
    1W        W60847  16.371  11.614   7.956  0.1192  0.1839  0.1285
    1W        W60848  18.303  19.813   0.364 -0.3917 -0.2363  0.1824
    1W        W60849  15.497  24.508   0.569  0.2363  0.4123  0.0092
    1W        W60850  24.083  15.833   1.154 -0.1858  0.0063  0.0042
    1W        W60851  26.503  25.678   0.904 -0.1257 -0.1147  0.0037
    1W        W60852  10.548  14.133   1.949 -0.0674  0.1204 -0.0900
    1W        W60853  23.207  11.455   0.999 -0.0328 -0.1571 -0.1598
    1W        W60854  19.921   8.834   0.781  0.0301 -0.1181 -0.1564
    1W        W60855   4.735   6.848   1.069 -0.4391 -0.2982 -0.1361
    1W        W60856  23.591   4.176   0.660 -0.1192 -0.1284  0.0569
    1W        W60857  29.799  16.513   7.579  0.0245  0.0160 -0.0161
    1W        W60858  21.734   0.581   7.152 -0.0052 -0.0100 -0.1636
    1W        W60859  13.340  21.797   3.061 -0.3486  0.0419  0.3982
    1W        W60860  12.529  13.116   1.618  0.0270 -0.1712  0.1014
    1W        W60861   9.664  19.535   1.732  0.0236  0.0458 -0.2820
    1W        W60862  15.747  27.171   7.327 -0.1696  0.2959 -0.0474
    1W        W60863  13.347   7.543   6.908 -0.0497  0.3510 -0.1386
    1W        W60864  18.075   5.657   9.516  0.2481 -0.1963 -0.0820
    1W        W60865   1.045  22.369   0.279  0.0590  0.0049  0.1268
    1W        W60866  23.428   0.318   0.293  0.0555  0.1955 -0.1826
    1W        W60867  29.246   4.839   6.927  0.0062  0.4399  0.1766
    1W        W60868  15.556  22.110   7.977 -0.1306 -0.4429 -0.2153
    1W        W60869  14.556  26.818   0.874  0.0242 -0.1140 -0.2163
    1W        W60870  13.267  15.280   0.460 -0.0220  0.2011 -0.2746
    1W        W60871   1.335  26.915   6.733  0.1910 -0.3039  0.0391
    1W        W60872  26.239   3.152   2.643 -0.2595 -0.0557 -0.4199
    1W        W60873  28.252  11.842   1.224  0.2386  0.2341  0.0232
    1W        W60874   3.472   1.897   1.468 -0.1993 -0.2835 -0.0238
    1W        W60875  27.750   0.484   0.061  0.3629  0.2101 -0.0962
    1W        W60876  17.475  20.221   8.952 -0.4022 -0.0886 -0.0858
    1W        W60877  17.762   6.765   2.431  0.1101  0.3039  0.1327
    1W        W60878  26.003  18.370   6.903  0.0403 -0.0596 -0.2375
    1W        W60879   1.400   0.647   1.186 -0.0992 -0.3015 -0.1625
    1W        W60880  17.023  13.331   7.457 -0.0291 -0.0263 -0.0666
    1W        W60881  13.929  26.373   0.183  0.0946 -0.1894 -0.0225
    1W        W60882  12.705  14.416   8.337 -0.3195  0.2913  0.2224
    1W        W60883   9.347  14.034   1.973 -0.1215  0.2168 -0.0135
    1W        W60884  18.612  19.433   0.530 -0.0222  0.1585 -0.1424
    1W        W60885  23.497   1.367   1.916  0.2981  0.2253  0.0154
    1W        W60886  11.274  27.859   8.792  0.2685  0.0829 -0.0970
    1W        W60887  21.261  23.751   1.610 -0.1723 -0.0174  0.1544
    1W        W60888  17.739  18.244   9.152 -0.0730  0.2223  0.1335
    1W        W60889  28.427   8.806   0.571  0.2759  0.1459 -0.3727
    1W        W60890  25.107  16.577   1.503 -0.2840  0.0760 -0.1035
    1W        W60891   9.817  26.651   2.725 -0.1626 -0.0510  0.0113
    1W        W60892  24.436  19.599   0.980 -0.2579  0.1039  0.1483
    1W        W60893  23.587   5.305   9.361 -0.0180 -0.0593  0.3686
    1W        W60894  24.519  24.422   7.230 -0.1053 -0.0755  0.2697
    1W        W60895  16.951  18.224   6.570 -0.0117  0.0174  0.1506
    1W        W60896   3.834  10.572   7.745 -0.5305  0.2580 -0.1110
    1W        W60897  23.947   1.552   2.071 -0.0815  0.0234 -0.1150
    1W        W60898  25.537   2.348   1.676 -0.0108  0.2400 -0.0189
    1W        W60899  13.370  25.843   6.873 -0.0395 -0.1605  0.2961
    1W        W60900  28.943   3.251   7.518  0.1688 -0.1442 -0.0850
    1W        W60901  27.902  16.451   7.579  0.0456 -0.0696 -0.0103
    1W        W60902   1.430   4.393   0.276  0.0131 -0.1013 -0.1049
    1W        W60903  17.871   2.033   6.924  0.1029  0.3804  0.0400
    1W        W60904  25.021  10.988   8.965  0.0921 -0.0577 -0.1464
    1W        W60905  17.185  24.807   2.704  0.3626  0.0031  0.2246
    1W        W60906   4.757  28.137   6.125 -0.1156 -0.0398 -0.2358
    1W        W60907  11.971  13.957   8.866 -0.1101  0.3602  0.1655
    1W        W60908  11.827  15.003   2.600  0.1172 -0.0904  0.1143
    1W        W60909  17.863   5.921   2.720  0.3190 -0.0018 -0.2783
    1W        W60910   4.745  10.878   0.506  0.1333 -0.0672 -0.2864
    1W        W60911  26.956  27.521   3.748  0.1934  0.1894  0.0828
    1W        W60912   7.542  29.150   2.524 -0.0132  0.2313  0.2176
    1W        W60913   8.917   4.223   7.502  0.2540  0.1183 -0.1526
    1W        W60914  25.880   1.174   2.239  0.0712 -0.0678  0.1346
    1W        W60915  24.096   0.219   6.884  0.1423 -0.2067 -0.0966
    1W        W60916   9.499  20.596   0.964 -0.0398  0.1217  0.0244
    1W        W60917  17.245  29.214   6.539  0.0100  0.2335  0.1083
    1W        W60918   4.609   8.379   7.173 -0.0283  0.1111 -0.2328
    1W        W60919  22.643  11.648   6.578 -0.1155 -0.4595  0.1431
    1W        W60920   4.287   9.969   9.035 -0.0439  0.3987 -0.1181
    1W        W60921   3.155  22.756   9.009  0.0932 -0.3932 -0.0836
    1W        W60922  15.957   8.719   7.932  0.1040 -0.1690 -0.0795
    1W        W60923  28.243  24.374   6.541  0.1225  0.1520 -0.0412
    1W        W60924   0.817  27.427   9.117  0.0137  0.0292 -0.0746
    1W        W60925   2.467  14.618   0.983  0.1777 -0.0893 -0.2654
    1W        W60926  13.937  11.676   2.623  0.1154 -0.1101 -0.1315
    1W        W60927  15.457   5.782   7.679 -0.0255 -0.2876  0.1627
    1W        W60928  15.803  21.527   2.464 -0.1724  0.0934  0.1398
    1W        W60929  22.635   7.665   7.402 -0.1813  0.0779  0.0038
    1W        W60930   2.913  15.396   0.855 -0.2295  0.1521 -0.1397
    1W        W60931  10.417  25.069   0.578  0.2278 -0.0134  0.0612
    1W        W60932  20.580   3.824   9.101  0.2312 -0.2214 -0.0731
    1W        W60933  15.312  11.387   1.702  0.0359 -0.4891  0.1434
    1W        W60934  19.443  17.628   8.093  0.1778  0.0453 -0.1905
    1W        W60935  22.847   9.248   9.380  0.1623  0.1649  0.1611
    1W        W60936   0.603  24.421   1.690 -0.2030  0.1140  0.1330
    1W        W60937  18.170   1.423   7.893 -0.2114 -0.1120 -0.2678
    1W        W60938  28.976  14.761   7.342 -0.2768  0.1054  0.0470
    1W        W60939  10.068   2.641   9.254 -0.0388  0.2477  0.0319
    1W        W60940   8.046  10.907   9.301  0.0859 -0.2678 -0.1184
    1W        W60941  16.002  26.349   1.126 -0.1023  0.0796  0.2291
    1W        W60942   8.204  21.241   2.067  0.2933 -0.0797 -0.0338
    1W        W60943   5.711  20.721   1.448  0.4307  0.1841  0.0285
    1W        W60944  22.029  15.903   1.076  0.0647  0.0710  0.1198
    1W        W60945  26.047  13.055   6.745 -0.0911  0.3759  0.0049
    1W        W60946  13.157  28.480   2.563  0.0075 -0.0234  0.2143
    1W        W60947   3.947  23.687   0.708 -0.2478  0.1023  0.1105
    1W        W60948  14.785  29.385   0.037  0.1808 -0.3863 -0.1428
    1W        W60949  15.264  10.985   2.609 -0.4105  0.2845  0.0791
    1W        W60950   0.459  28.155   0.143  0.0660 -0.1841  0.0150
    1W        W60951  10.040   0.957   8.031 -0.0970  0.2135 -0.2376
    1W        W60952  14.777  20.681   6.882 -0.1740  0.0165 -0.1912
    1W        W60953   5.871  19.335   9.001  0.1243 -0.2592  0.2634
    1W        W60954  11.133   2.638   6.856 -0.1085  0.0697  0.2019
    1W        W60955  21.386   6.688   2.050  0.0528 -0.0239  0.1092
    1W        W60956   0.591  19.906   1.997 -0.2878 -0.1036 -0.1579
    1W        W60957  22.642  23.622   0.978 -0.1512 -0.3929  0.5134
    1W        W60958  18.980  22.201   7.681 -0.0754 -0.0145  0.1404
    1W        W60959   4.904   4.875   8.171 -0.0485 -0.4262 -0.1850
    1W        W60960   5.749  27.744   8.591 -0.1175  0.1421  0.1832
    1W        W60961  22.856  16.814   6.683 -0.2153 -0.1061 -0.3202
    1W        W60962  26.807   8.579   7.304 -0.3434  0.0026  0.0698
    1W        W60963  10.320  27.303   3.012 -0.0219 -0.1524  0.0930
    1W        W60964  15.889  25.006   0.273  0.2030 -0.0357  0.1693
    1W        W60965  20.860  22.781   2.491  0.2892 -0.0473 -0.0775
    1W        W60966  26.470  26.115   0.715 -0.1415 -0.0404  0.3666
    1W        W60967  12.536   1.074   1.127 -0.0102 -0.0351 -0.0758
    1W        W60968  12.271  24.822   1.203  0.1525  0.2203 -0.3568
    1W        W60969  27.317  23.141   1.412  0.0051 -0.0028 -0.0229
    1W        W60970   7.040  28.662   3.241  0.2007  0.0569 -0.0635
    1W        W60971   7.558  10.040   1.539 -0.0535 -0.1584 -0.3055
    1W        W60972  14.248  26.949   0.377  0.0227 -0.0272  0.0704
    1W        W60973   1.866  14.227   1.922  0.1731 -0.0711  0.0238
    1W        W60974   8.236  14.583   6.991 -0.0241  0.1777 -0.0938
    1W        W60975   4.652  22.217   2.841 -0.0189  0.0310  0.1937
    1W        W60976  13.858  17.364   9.169  0.0236  0.0553 -0.0991
    1W        W60977  19.411  13.967   8.663  0.2200  0.0696 -0.0007
    1W        W60978  22.359  22.027   2.697 -0.1744  0.3329 -0.0014
    1W        W60979   2.045  13.555   1.767  0.2358  0.0402  0.0819
    1W        W60980  25.529  11.204   1.834 -0.2052  0.2637 -0.0885
    1W        W60981  18.534   9.829   0.853  0.1696 -0.0560  0.0643
    1W        W60982  12.645   3.834   6.774 -0.0059  0.0354  0.1063
    1W        W60983   8.173  24.063   6.537  0.1950  0.0426 -0.1090
    1W        W60984   7.837  23.010   8.173 -0.3437  0.2647  0.0022
    1W        W60985  25.351   3.707   9.121  0.2137  0.2430  0.2288
    1W        W60986   3.770  25.932   2.313  0.0342  0.1238 -0.2378
    1W        W60987   5.450   2.634   2.952 -0.2665 -0.1381  0.3431
    1W        W60988   9.997  24.045   2.484 -0.0870  0.3654  0.3675
    1W        W60989  25.112  13.528   7.957 -0.1036  0.1269  0.2124
    1W        W60990  24.238  16.762   8.516 -0.0724  0.0505 -0.2723
    1W        W60991  17.532  11.399   1.362 -0.1097 -0.1374 -0.0705
    1W        W60992  28.647  28.537   0.753 -0.0065 -0.0177  0.2397
    1W        W60993  24.281   7.737   6.352  0.1758 -0.1001  0.0384
    1W        W60994  29.107  25.371   7.742 -0.0558  0.1706 -0.1440
    1W        W60995  14.166   7.021   0.549 -0.2136 -0.2265 -0.1054
    1W        W60996  22.334  18.240   6.047 -0.0748  0.0635 -0.1388
    1W        W60997  26.511  20.777   9.212 -0.1113  0.1640 -0.1118
    1W        W60998  20.025   8.970   8.800  0.2505 -0.0404  0.4502
    1W        W60999  15.497  26.405   1.203 -0.2430 -0.1206  0.1030
    1W        W61000  21.541  22.941   6.164 -0.2533 -0.3311 -0.1055
    1W        W61001   4.148  10.258   0.662 -0.1889  0.0062 -0.3664
    1W        W61002  27.200  27.604   2.152  0.2233  0.5393  0.1761
    1W        W61003  10.548  20.984   1.517 -0.1333 -0.0658 -0.3199
    1W        W61004   9.660   8.303   8.631  0.0880 -0.0637 -0.0188
    1W        W61005   4.545  23.878   2.902  0.0235  0.1001  0.2061
    1W        W61006  15.447  15.677   2.555 -0.0780 -0.0710  0.1673
    1W        W61007   1.144   9.991   0.380 -0.2879  0.0777 -0.3327
    1W        W61008   8.448   5.648   7.814  0.1610 -0.0999  0.2734
    1W        W61009  27.044  21.757   7.715  0.0468  0.1690 -0.1263
    1W        W61010   8.879  25.018   1.502  0.1578  0.2969 -0.0689
    1W        W61011  13.199   0.612   7.541 -0.0250 -0.2072 -0.1581
    1W        W61012  21.645   5.017   8.703 -0.1052  0.1889 -0.1419
    1W        W61013  26.704  20.466   1.228  0.0610 -0.1127 -0.3632
    1W        W61014  20.216   6.854   8.828  0.1606 -0.1805  0.0166
    1W        W61015  16.249  12.061   1.966 -0.2394  0.2781  0.0661
    1W        W61016  24.623  24.938   7.305  0.0404  0.0789 -0.1890
    1W        W61017  21.078  26.438   8.541  0.2344  0.1440 -0.0124
    1W        W61018  15.191   0.521   7.856 -0.0414 -0.2348 -0.0845
    1W        W61019   7.814  20.267   1.737 -0.3076  0.2804 -0.1065
    1W        W61020  26.363   9.926   6.938  0.1207 -0.0317  0.1358
    1W        W61021  23.751   3.654   7.592  0.1045 -0.0153  0.2834
    1W        W61022   7.625  18.020   8.447  0.3379 -0.1069  0.3592
    1W        W61023   1.815   9.323   7.812 -0.0132 -0.0772  0.1501
    1W        W61024  22.818  28.689   1.979  0.2511 -0.0391 -0.3462
    1W        W61025  21.075  20.745   8.184 -0.0857 -0.1580  0.3345
    1W        W61026  15.601  21.565   3.261  0.2896  0.0647 -0.0726
    1W        W61027  11.851  12.131   8.742 -0.2278  0.1270 -0.1760
    1W        W61028   5.840   9.315   1.449  0.1916 -0.0941 -0.0343
    1W        W61029  19.047  25.412   2.557 -0.3679  0.2330  0.2719
    1W        W61030  28.874  28.474   2.682 -0.2887  0.2448 -0.0922
    1W        W61031   4.983  21.649   9.042 -0.2309  0.0181  0.3249
    1W        W61032  24.067  10.619   0.202  0.1100  0.3258  0.1637
    1W        W61033   8.065   9.216   1.819  0.0408  0.2843 -0.1553
    1W        W61034  21.857  16.438   1.307 -0.3292  0.0121  0.0442
    1W        W61035  27.718  24.813   7.507 -0.0694  0.0246 -0.0514
    1W        W61036  11.407  28.881   0.784 -0.3497 -0.0210  0.1827
    1W        W61037  10.448  13.289   0.471  0.0038 -0.3929 -0.1010
    1W        W61038  24.007   6.308   8.487 -0.1512  0.1804  0.1885
    1W        W61039   0.101   5.945   8.316  0.0359  0.1617  0.0186
    1W        W61040  28.761   3.866   2.918 -0.0923 -0.1542 -0.1589
    1W        W61041  13.441  23.210   0.564 -0.0264 -0.1846  0.1087
    1W        W61042  15.850   7.028   0.036 -0.0152  0.1443  0.3397
    1W        W61043  19.520  27.999   9.148 -0.3950  0.0875 -0.3150
    1W        W61044  21.544  17.194   6.277  0.1438 -0.1841  0.0673
    1W        W61045  19.663  19.304   0.514 -0.0486 -0.0109 -0.1007
    1W        W61046  29.479  23.048   0.829 -0.1109  0.1932  0.2361
    1W        W61047   2.575  23.851   0.801 -0.1019  0.2023 -0.2099
    1W        W61048  25.435  22.754   9.240  0.0852 -0.0888 -0.2299
    1W        W61049   0.849  11.071   1.238  0.4225  0.1961  0.0721
    1W        W61050   8.087   5.361   1.128 -0.1763  0.2179 -0.0225
    1W        W61051  29.176  28.008   9.303 -0.1101 -0.0106  0.2692
    1W        W61052  28.586   7.357   9.065 -0.1616  0.1308  0.0135
    1W        W61053  20.103  19.161   6.589 -0.0577  0.0297 -0.1541
    1W        W61054  12.401  25.659   6.678  0.0351 -0.0084 -0.2140
    1W        W61055   2.532   1.543   1.696  0.0693  0.1400 -0.1681
    1W        W61056   2.511   8.624   7.339 -0.2233  0.2003  0.0693
    1W        W61057  20.966   7.637   0.641  0.0925 -0.0668 -0.0008
    1W        W61058   1.556  29.403   2.633 -0.5039 -0.0780 -0.0789
    1W        W61059  28.030  29.594   6.767  0.1445 -0.2042 -0.0181
    1W        W61060  12.722  11.163   0.511 -0.0613 -0.1655  0.1914
    1W        W61061  21.979   1.903   1.248  0.1261  0.2600 -0.1254
    1W        W61062   6.729  13.218   0.921 -0.0357  0.2128  0.3287
    1W        W61063   9.564   8.779   7.521 -0.1738 -0.5225  0.0458
    1W        W61064   2.815  29.424   9.521  0.2130  0.3485 -0.0057
    1W        W61065  21.801  29.743   9.510  0.3919 -0.0044 -0.0926
    1W        W61066  19.826  18.161   1.792  0.0268  0.0691 -0.0011
    1W        W61067   6.628  18.313   0.064  0.1895  0.1266 -0.0164
    1W        W61068  25.352  27.949   7.865  0.2600 -0.1276  0.1395
    1W        W61069   5.979  27.651   6.757  0.0671 -0.0304 -0.1075
    1W        W61070  23.233  23.238   8.118 -0.0557 -0.1781 -0.0094
    1W        W61071   9.529   6.441   7.246 -0.2116  0.0662  0.2838
    1W        W61072   5.953  26.748   7.723  0.0766  0.0063  0.1354
    1W        W61073   9.549   6.695   2.359 -0.1318 -0.0320 -0.2074
    1W        W61074   8.184   1.676   2.035 -0.0564  0.1950  0.2249
    1W        W61075  19.070  11.135   1.311  0.0529 -0.3722 -0.1076
    1W        W61076  21.993  26.651   8.358  0.1068 -0.3249  0.1923
    1W        W61077   1.124  18.712   6.946  0.0487  0.1193  0.0539
    1W        W61078  10.193  24.219   0.595 -0.2408  0.0580  0.1321
    1W        W61079   0.828   6.995   7.878  0.2256 -0.3326  0.1797
    1W        W61080   0.008  11.135   0.457  0.3025  0.0875 -0.0068
    1W        W61081   9.974  22.383   6.353 -0.4544  0.0351 -0.3837
    1W        W61082   6.815   0.305   8.742 -0.0156  0.0529  0.0948
    1W        W61083  21.209  29.103   0.593  0.0505  0.0718 -0.3199
    1W        W61084   5.564  28.109   8.893 -0.1515 -0.0017  0.0355
    1W        W61085   9.736  12.117   8.032 -0.0609 -0.0548 -0.1479
    1W        W61086  17.430   1.246   8.885  0.0879 -0.1884  0.3447
    1W        W61087  26.338  26.098   0.262 -0.0290  0.0384 -0.1986
    1W        W61088  13.451   5.427   3.095  0.0490 -0.1759 -0.0777
    1W        W61089  27.569   8.385   7.817  0.0299  0.0793  0.1519
    1W        W61090  15.090   0.696   7.409  0.2503 -0.0301  0.0019
    1W        W61091  23.770  10.007   1.164  0.3439 -0.0982  0.1345
    1W        W61092  12.059  29.673   2.669  0.0262 -0.1106  0.2960
    1W        W61093  22.646  18.692   5.978  0.1809 -0.1084 -0.0563
    1W        W61094   2.470  29.032   2.020 -0.1868 -0.0530  0.0029
    1W        W61095   6.605  25.101   7.607  0.0653 -0.1449  0.1358
    1W        W61096   1.380  16.795   1.145  0.0615 -0.2655 -0.3238
    1W        W61097   2.518  22.744   9.361  0.1563 -0.2679  0.0649
    1W        W61098  17.474  16.392   7.009 -0.1270 -0.2715 -0.0567
    1W        W61099  10.183   3.872   0.402 -0.1161 -0.3963  0.0916
    1W        W61100   5.013   5.480   3.133 -0.2866 -0.0557  0.0602
    1W        W61101  23.337  28.538   2.060  0.0890 -0.1885  0.1943
    1W        W61102  17.246  17.878   8.508  0.4122 -0.1691 -0.0365
    1W        W61103  24.059  26.864   7.923  0.0680  0.0587  0.3291
    1W        W61104  20.499  12.835   0.243 -0.1063 -0.3302 -0.2017
    1W        W61105   8.311  20.898   0.178 -0.3454  0.2332  0.2695
    1W        W61106  19.512  22.636   3.054 -0.0287  0.1973 -0.2025
    1W        W61107   9.356  21.659   8.616 -0.2488 -0.0894 -0.3587
    1W        W61108   5.597  19.294   9.533 -0.2779  0.1486 -0.1273
    1W        W61109  18.486   5.537   6.778 -0.2021  0.0564  0.1192
    1W        W61110  29.679  29.782   7.266  0.1958  0.1204 -0.4126
    1W        W61111  20.477  19.788   1.421 -0.1623 -0.0781  0.0155
    1W        W61112  16.279  15.805   0.221 -0.0398  0.3222 -0.3590
    1W        W61113  11.969  13.400   7.649  0.0730  0.1808  0.3159
    1W        W61114  19.153   7.410   8.066 -0.0588 -0.1170  0.1933
    1W        W61115  13.804  13.627   1.984 -0.2076  0.1950 -0.2007
    1W        W61116  12.874   6.877   2.609 -0.0627 -0.1301 -0.1002
    1W        W61117  12.267   9.105   7.753 -0.2816  0.0505  0.0883
    1W        W61118  20.827  24.302   2.310  0.1079  0.0220  0.0561
    1W        W61119  20.697   3.407   2.299  0.1145 -0.2569  0.1091
    1W        W61120  18.040  27.880   2.281 -0.3299 -0.1796 -0.1352
    1W        W61121  26.510  27.406   0.378  0.0139  0.0255 -0.2703
    1W        W61122  18.402  15.311   0.933  0.3614 -0.1113  0.3542
    1W        W61123  10.187  25.767   8.543  0.0430  0.1243  0.5110
    1W        W61124  13.698   3.943   0.128 -0.1394 -0.3048  0.1404
    1W        W61125  21.957   1.244   9.470  0.0128 -0.3845 -0.2507
    1W        W61126   9.307   9.585   2.815  0.0709  0.1789  0.3974
    1W        W61127  11.740  11.534   7.650 -0.0657 -0.0405  0.2951
    1W        W61128  11.615  29.327   7.861  0.0992  0.1187 -0.0787
    1W        W61129   9.486  26.820   3.525 -0.0622 -0.0621 -0.1694
    1W        W61130   4.153  19.447   1.784  0.2711 -0.0135 -0.1464
    1W        W61131  10.366  12.699   7.822 -0.1922 -0.2411 -0.2749
    1W        W61132   3.406   4.368   8.829  0.2978  0.1917  0.1627
    1W        W61133   1.842  18.166   1.265  0.2144 -0.3905  0.0999
    1W        W61134   1.670  20.074   0.748 -0.0631  0.0341  0.2720
    1W        W61135  23.479  28.508   7.792  0.3624 -0.2835 -0.0789
    1W        W61136   7.465  20.468   2.737 -0.1086  0.0698  0.2881
    1W        W61137  24.052   5.802   2.781 -0.2821  0.0321 -0.1835
    1W        W61138   0.235   6.348   1.122  0.1260 -0.2584 -0.1550
    1W        W61139   1.320   4.856   8.045 -0.0110  0.1924 -0.3465
    1W        W61140  18.516  15.678   1.243 -0.0000 -0.0045 -0.2261
    1W        W61141  13.358   4.537   2.611  0.0112 -0.3270  0.1783
    1W        W61142   7.322  25.684   0.542  0.1084  0.0924  0.1973
    1W        W61143   8.646  25.023   7.708  0.2044 -0.3308 -0.0819
    1W        W61144  18.214   1.481   0.686  0.0177 -0.2722  0.0223
    1W        W61145   3.801  11.969   6.633  0.0122  0.1972 -0.3184
    1W        W61146  13.058  25.187   2.054  0.3197  0.1518 -0.0063
    1W        W61147  23.357   7.029   8.376  0.2300 -0.2208  0.0466
    1W        W61148  12.314   5.707   8.341 -0.1910  0.3078 -0.2222
    1W        W61149  29.624  28.451   0.602 -0.1071 -0.0293 -0.0740
    1W        W61150  24.835  21.795   6.255 -0.3140  0.1880 -0.1178
    1W        W61151  14.308   5.796   1.841 -0.1891  0.0228  0.0422
    1W        W61152  18.202  22.540   9.447  0.0584 -0.0392  0.1945
    1W        W61153   2.743   7.308   0.227 -0.1108 -0.1366  0.0210
    1W        W61154  19.484  20.410   0.452  0.0844 -0.1207  0.3077
    1W        W61155  25.646  22.560   8.291 -0.3123 -0.0959  0.1996
    1W        W61156  24.385  12.177   5.426  0.1336  0.0322 -0.2196
    1W        W61157   0.411   3.301   1.110 -0.0776  0.1539  0.3122
    1W        W61158  15.084   7.989   0.763 -0.3164  0.1957  0.0880
    1W        W61159  10.712   9.334   7.892  0.0235 -0.1345 -0.0926
    1W        W61160  15.203  17.838   9.018  0.0453  0.0623 -0.0271
    1W        W61161  16.037  19.517   0.014  0.0109  0.3970 -0.2133
    1W        W61162  17.860  23.307   9.265 -0.0337  0.1690 -0.2629
    1W        W61163   2.044  25.230   2.218 -0.1763 -0.0397 -0.0873
    1W        W61164   6.334  23.904   8.434 -0.3492 -0.0876 -0.2563
    1W        W61165   4.306  23.028   0.058 -0.0363 -0.0400  0.0709
    1W        W61166  29.458  21.145   9.471 -0.1560 -0.1172 -0.2029
    1W        W61167  25.072   9.111   0.082  0.0911 -0.1517  0.0608
    1W        W61168   2.583  17.797   9.324 -0.0066  0.1142 -0.0293
    1W        W61169   3.303   8.497   9.521 -0.0760  0.0788  0.3208
    1W        W61170  23.582   3.335   1.241  0.2441  0.2387 -0.2698
    1W        W61171  16.645  10.803   2.091 -0.0929 -0.2486  0.2919
    1W        W61172  17.936   5.973   0.491 -0.0647 -0.3770  0.0733
    1W        W61173   4.781  26.016   1.215  0.0549 -0.0902  0.1038
    1W        W61174  17.805   1.673   9.255  0.0618 -0.2183  0.1704
    1W        W61175  10.368  23.248   8.466 -0.2122 -0.0452  0.1082
    1W        W61176  16.316   2.420   2.383  0.0036 -0.2486  0.3117
    1W        W61177   3.864   0.085   8.410 -0.1357  0.2005 -0.1543
    1W        W61178  19.614  18.533   6.884  0.0409  0.2361  0.1342
    1W        W61179  19.541  17.681   0.498 -0.0626 -0.1029 -0.0317
    1W        W61180   9.012  22.917   9.078  0.1153  0.0229 -0.3754
    1W        W61181   2.069   1.968   8.009  0.0605 -0.1274  0.0395
    1W        W61182  13.140   3.918   0.747  0.0049  0.1822 -0.3011
    1W        W61183  11.785  22.650   0.101 -0.1982 -0.2059  0.0930
    1W        W61184  11.707   4.740   9.080  0.0073  0.0341 -0.3051
    1W        W61185  20.266  21.833   7.184  0.1966 -0.0301 -0.0346
    1W        W61186  22.170  10.017   7.033 -0.0823  0.2774 -0.0843
    1W        W61187   3.497  11.640   9.118  0.3597 -0.1810 -0.0303
    1W        W61188  12.537  28.497   7.383 -0.0971 -0.0639 -0.2170
    1W        W61189   5.359  10.428   1.911  0.2502 -0.2454 -0.4289
    1W        W61190   9.725  25.858   8.745  0.0178 -0.1774  0.1194
    1W        W61191   1.101  10.452   2.877 -0.0929  0.0539  0.0715
    1W        W61192  25.160  18.404   0.675 -0.1118  0.0442  0.1090
    1W        W61193   2.334  24.643   6.566 -0.0738 -0.2408 -0.0288
    1W        W61194   1.450  14.818   7.158 -0.1102  0.0864  0.1379
    1W        W61195  25.066  12.960   1.894  0.1947  0.0359 -0.2490
    1W        W61196   1.897   6.518   6.975 -0.4873 -0.1388  0.1448
    1W        W61197  24.767  10.436   8.161 -0.0103 -0.3825  0.2191
    1W        W61198   7.055  25.544   1.518 -0.1511 -0.0631 -0.0243
    1W        W61199   8.706   9.336   0.067  0.0470 -0.1627  0.0601
    1W        W61200   4.786   2.991   9.047 -0.1672 -0.0004  0.2836
    1W        W61201  11.826   4.389   8.729 -0.0520 -0.0508  0.0388
    1W        W61202   8.730  10.475   1.492 -0.0730  0.0388 -0.1440
    1W        W61203   4.123   6.103   1.149 -0.0320 -0.0053  0.1714
    1W        W61204  28.625  12.365   7.320  0.0515 -0.1580 -0.1543
    1W        W61205   4.117  20.744   0.728  0.0875 -0.2985 -0.0727
    1W        W61206   0.125   8.977   2.109  0.2796  0.0139 -0.0381
    1W        W61207  13.192   1.654   1.817 -0.0474 -0.0341 -0.1219
    1W        W61208  25.899  17.890   6.605 -0.1272 -0.1086 -0.0707
    1W        W61209  12.347   6.599   7.779  0.1968 -0.2492  0.3957
    1W        W61210  12.966   7.545   6.129  0.0926  0.0710 -0.0802
    1W        W61211  11.190  22.107   8.326  0.2370 -0.2829  0.0621
    1W        W61212  28.381  14.418   6.528  0.1718 -0.1468 -0.2241
    1W        W61213  19.680  13.893   9.082 -0.3054  0.4600 -0.3707
    1W        W61214   5.584  27.220   8.951 -0.1269 -0.1642 -0.2116
    1W        W61215  29.620  14.009   7.170 -0.3226 -0.1373 -0.1576
    1W        W61216  25.202  12.405   6.739 -0.0385  0.2970  0.1928
    1W        W61217  15.289   6.200   7.447 -0.3008 -0.0700  0.0698
    1W        W61218   8.105   8.198   1.860 -0.2270 -0.0516  0.1301
    1W        W61219   9.874  26.920   3.244 -0.1052 -0.0422 -0.1441
    1W        W61220   2.758  19.488   9.159 -0.1471 -0.1504  0.4551
    1W        W61221  25.198   8.028   2.008  0.1692 -0.1661  0.2296
    1W        W61222  23.004  21.598   0.448  0.0550  0.0268 -0.0561
    1W        W61223   9.881  26.249   8.411 -0.1560 -0.0697 -0.0889
    1W        W61224   9.260   0.112   7.365 -0.0007  0.2055  0.0082
    1W        W61225  20.757  13.073   0.666  0.3041  0.1548  0.2847
    1W        W61226  10.079   4.287   3.427 -0.0060 -0.0614 -0.3845
    1W        W61227   1.689   0.936   9.095  0.1215 -0.1629 -0.0605
    1W        W61228  24.048  18.777   7.344  0.1373 -0.0151 -0.2777
    1W        W61229  18.718   7.402   1.152 -0.0939 -0.0096  0.3483
    1W        W61230  12.994  29.439   2.470  0.2711 -0.1448 -0.0352
    1W        W61231   8.515  16.452   7.651 -0.2647  0.1335  0.1475
    1W        W61232  18.258   9.728   7.873  0.1264  0.3261  0.0254
    1W        W61233  19.534  16.925   1.506  0.3603  0.0210 -0.1489
    1W        W61234  16.996  28.618   1.741  0.3286  0.3246 -0.0247
    1W        W61235   8.584  16.930   7.397  0.1643  0.2703  0.0315
    1W        W61236   4.848   5.779   8.603 -0.1557  0.1604 -0.2300
    1W        W61237   0.430  14.134   7.966  0.2090  0.0364 -0.1711
    1W        W61238  19.351  20.731   2.277 -0.4378 -0.2219  0.0735
    1W        W61239  19.610   0.161   7.893 -0.0212 -0.2932 -0.2271
    1W        W61240  28.566   2.653   1.256  0.1925  0.2450  0.3725
    1W        W61241  25.400  14.932   8.127 -0.0613 -0.0303 -0.0393
    1W        W61242  12.655  26.441   1.589  0.0687  0.2388  0.0329
    1W        W61243  14.897  15.715   8.986  0.0729  0.1769 -0.1198
    1W        W61244  18.683  17.720   6.327  0.2761 -0.1749 -0.0564
    1W        W61245  17.357  14.070   2.743 -0.0484  0.0559 -0.3471
    1W        W61246  25.619   9.538   7.314  0.2728 -0.2021  0.0127
    1W        W61247   0.342  18.378   0.035 -0.0592 -0.3845  0.0042
    1W        W61248  27.714  14.582   9.214  0.1207 -0.0127  0.0789
    1W        W61249   5.483  24.215   3.111  0.5632  0.1364  0.1571
    1W        W61250  29.429   7.373   6.473 -0.1631  0.0719  0.1535
    1W        W61251   6.616  26.294   8.871 -0.1122 -0.0632 -0.0237
    1W        W61252  24.910  17.721   9.217 -0.2549 -0.2091  0.4146
    1W        W61253   3.198   6.168   7.316 -0.0162  0.1055 -0.2459
    1W        W61254   6.310   7.374   7.842  0.3543 -0.0600 -0.0433
    1W        W61255  15.192  18.924   2.201 -0.3819  0.1561 -0.1440
    1W        W61256   3.932  28.128   8.525 -0.2566  0.1353  0.0187
    1W        W61257  24.164  10.611   5.305 -0.3046  0.0295 -0.0718
    1W        W61258  23.903  14.396   9.099  0.1098  0.0083  0.1212
    1W        W61259  10.811  17.929   1.623 -0.0254  0.1120  0.2502
    1W        W61260   8.388  28.959   0.113  0.0679  0.0367 -0.1650
    1W        W61261  23.666  17.668   1.402  0.1183 -0.0622 -0.2013
    1W        W61262  20.472  22.847   5.990  0.4537  0.0140  0.0520
    1W        W61263  25.162  22.767   6.802 -0.1822 -0.1436  0.3889
    1W        W61264   9.353   8.661   0.842  0.0831 -0.0815 -0.0419
    1W        W61265  28.930  21.379   7.896  0.0135  0.0783 -0.0225
    1W        W61266  13.957  11.210   1.905 -0.0454  0.1712 -0.0346
    1W        W61267  18.290  12.127   5.889 -0.0741  0.0187  0.0383
    1W        W61268   9.944  24.272   0.175  0.1479 -0.1282 -0.0134
    1W        W61269   6.046  10.307   6.695  0.0635  0.0055 -0.0627
    1W        W61270  23.911   6.863   9.544 -0.1958 -0.3222  0.0024
    1W        W61271  27.886  15.182   1.062  0.1378  0.0921 -0.0360
    1W        W61272  29.447  14.386   9.066  0.0435  0.1919 -0.0581
    1W        W61273  12.389  27.913   8.727  0.1667 -0.0083  0.0531
    1W        W61274  26.487  13.737   6.472 -0.0010  0.1062  0.0802
    1W        W61275  11.122   0.721   7.439 -0.1274 -0.1795 -0.1496
    1W        W61276  27.454  11.872   8.113 -0.1862  0.2245 -0.1760
    1W        W61277   5.076  27.493   1.406  0.1231  0.1500 -0.0864
    1W        W61278  12.134  14.130   3.121  0.2063 -0.1770  0.2105
    1W        W61279  21.849   3.759   7.917  0.0991  0.2930  0.2383
    1W        W61280  14.623   4.455   3.736  0.1640  0.0927  0.0684
    1W        W61281  12.042   6.122   7.904 -0.1238  0.4384 -0.0675
    1W        W61282  16.890  25.083   0.636 -0.1554  0.0961 -0.0855
    1W        W61283  19.630   5.129   8.475  0.2722 -0.0090  0.1498
    1W        W61284  11.009   2.357   3.311  0.1652  0.1230  0.3270
    1W        W61285  19.499  17.483   6.811 -0.0650  0.1242 -0.1030
    1W        W61286   1.117   7.116   0.626 -0.0813 -0.0307 -0.0794
    1W        W61287  11.000  26.172   8.612  0.1964  0.1366 -0.0424
    1W        W61288  19.438  22.077   7.997 -0.1058  0.4947  0.1381
    1W        W61289  23.343   5.283   8.287  0.0510  0.1452  0.1086
    1W        W61290   1.695  23.284   2.277  0.3076 -0.1080  0.2007
    1W        W61291  13.062   2.659   8.009 -0.1351 -0.1809  0.1500
    1W        W61292  13.919  11.411   0.140 -0.1967 -0.1132  0.0486
    1W        W61293  24.541   5.159   2.486 -0.0618  0.2841  0.0878
    1W        W61294  24.646   3.908   0.484  0.1830 -0.0125 -0.2314
    1W        W61295  11.951  23.941   7.641 -0.1062 -0.2392 -0.1678
    1W        W61296  14.995   4.715   9.222 -0.1932  0.0758  0.0738
    1W        W61297  26.305   3.401   8.287  0.1686 -0.1972 -0.1177
    1W        W61298  18.947  23.432   3.239  0.0049 -0.0544 -0.4358
    1W        W61299  25.553   9.373   8.514  0.4636  0.0616  0.1360
    1W        W61300  17.355  29.778   0.276 -0.0532  0.1735  0.0692
    1W        W61301  27.183   5.216   8.354 -0.1399 -0.1621 -0.1162
    1W        W61302  13.310  21.972   6.752  0.0142 -0.3061  0.1572
    1W        W61303   7.457  22.736   2.654 -0.0890  0.1947 -0.0543
    1W        W61304  25.943   0.194   1.161 -0.1157  0.1486 -0.0706
    1W        W61305  29.429  21.216   0.869  0.0981  0.1792 -0.2304
    1W        W61306  28.600  27.046   7.687  0.4662  0.0999  0.2919
    1W        W61307   4.205   2.978   7.910 -0.0918  0.0528  0.0068
    1W        W61308  29.256  27.342   1.666  0.2346 -0.1283  0.0392
    1W        W61309   5.763  11.970   7.570  0.0140 -0.1337 -0.3011
    1W        W61310  22.297   9.140   6.916  0.3248 -0.0728  0.0104
    1W        W61311  24.551  27.643   8.417  0.0853  0.0836 -0.0053
    1W        W61312   0.938   2.609   9.540 -0.1217  0.0379  0.0792
    1W        W61313  14.090  14.009   9.168  0.0605 -0.1768 -0.0029
    1W        W61314  21.217   1.930   0.082 -0.4002 -0.1797  0.1527
    1W        W61315   6.058   0.469   8.493  0.0575 -0.1882  0.0169
    1W        W61316   0.137  26.783   1.651  0.1392  0.1954 -0.0675
    1W        W61317  28.966  23.166   8.179 -0.0896  0.0014  0.1624
    1W        W61318  28.236   9.815   7.264  0.0532  0.0672  0.0754
    1W        W61319   6.753   2.920   3.219  0.0548  0.0612  0.0212
    1W        W61320  10.437  12.381   9.549 -0.2154  0.0050 -0.1113
    1W        W61321  10.279   0.748   1.357 -0.1745  0.2652  0.2558
    1W        W61322   6.971   6.761   8.487 -0.1563 -0.0851 -0.1609
    1W        W61323  16.096   1.714   3.119 -0.1091 -0.4403 -0.1781
    1W        W61324  11.186  16.870   9.181  0.1464  0.0293 -0.0044
    1W        W61325   8.269   6.656   7.237 -0.0396 -0.1996  0.0465
    1W        W61326  23.079  18.459   5.078 -0.2456 -0.1900  0.2049
    1W        W61327  25.671  26.930   7.157 -0.2195  0.0042  0.0166
    1W        W61328  25.669  18.410   8.616  0.2352  0.0008 -0.1749
    1W        W61329  26.620  24.728   2.516  0.2990 -0.3128 -0.1217
    1W        W61330  25.405  27.237   2.041 -0.0796  0.0090 -0.2226
    1W        W61331   7.107   4.132   2.260 -0.2483 -0.3640  0.4135
    1W        W61332  18.870  25.978   2.710  0.0606 -0.1370  0.0666
    1W        W61333  19.919   3.211   0.813  0.0200  0.1889 -0.1493
    1W        W61334  17.573  17.475   8.336 -0.3722  0.0091  0.1585
    1W        W61335  22.581   2.276   2.547 -0.0382 -0.2159 -0.0524
    1W        W61336   4.754  14.009   0.766  0.1593  0.1343 -0.0662
    1W        W61337   5.729  28.766   2.609  0.4298  0.0769  0.1343
    1W        W61338   0.842   1.990   8.019 -0.0413 -0.0222  0.1398
    1W        W61339   2.289  21.872   8.062  0.2309  0.0964 -0.0039
    1W        W61340   2.769  18.621   0.018 -0.0971  0.0144  0.0855
    1W        W61341  24.993  13.223   1.400 -0.1891 -0.1877  0.1691
    1W        W61342   7.142  20.726   7.588  0.0790  0.0754  0.1353
    1W        W61343  29.058  27.727   8.390  0.1961 -0.1327  0.0434
    1W        W61344  22.115   5.129   0.561 -0.2026  0.0316 -0.1730
    1W        W61345  23.963  24.997   2.110  0.2431 -0.2480  0.1562
    1W        W61346  19.397  16.537   8.862  0.2693  0.1078  0.0447
    1W        W61347  10.914  12.198   6.739  0.1883  0.2370 -0.0484
    1W        W61348  21.608  23.479   7.319  0.0262  0.0368  0.1023
    1W        W61349  19.191   2.672   8.585 -0.1263  0.0173 -0.2117
    1W        W61350  21.483   7.902   9.424 -0.2868 -0.0846 -0.0813
    1W        W61351  12.413  20.725   7.433  0.1688  0.1274  0.3045
    1W        W61352  11.810  12.435   0.601 -0.0842  0.2683  0.0288
    1W        W61353  15.692  15.751   0.012  0.0351 -0.0868  0.0615
    1W        W61354   7.233   0.010   8.017  0.0430  0.1294 -0.0885
    1W        W61355  19.107  26.253   0.848  0.0551  0.0026  0.0366
    1W        W61356  20.060   1.449   7.264  0.1976  0.0507  0.0399
    1W        W61357  25.805  21.172   8.537 -0.1506  0.0117  0.2667
    1W        W61358  23.272  17.126   8.209  0.0608 -0.0828  0.2451
    1W        W61359   8.477  22.268   6.230 -0.2148  0.0121 -0.0540
    1W        W61360  14.666  16.804   0.573 -0.1419 -0.3551  0.0262
    1W        W61361  21.969   1.951   9.377 -0.1146 -0.3430 -0.2177
    1W        W61362  17.167   8.125   2.788  0.0456 -0.0990  0.0992
    1W        W61363  19.913   2.690   0.042 -0.1188  0.1141  0.3002
    1W        W61364  28.388   8.559   9.427 -0.1890 -0.0750  0.1068
    1W        W61365  14.604  17.924   2.341 -0.2073  0.1819  0.2467
    1W        W61366   1.060  11.418   1.484 -0.2262  0.1697 -0.1008
    1W        W61367  28.087  14.567   5.991 -0.0514 -0.0602  0.3335
    1W        W61368  12.739  22.454   6.306 -0.1976 -0.0420  0.1509
    1W        W61369  19.557   5.508   2.775  0.0444  0.0232  0.0631
    1W        W61370   4.644   2.803   8.117  0.0178 -0.0355  0.1100
    1W        W61371  17.198   1.236   7.282  0.1062 -0.0082 -0.3932
    1W        W61372  17.678  22.463   9.409  0.0439 -0.0308  0.2137
    1W        W61373  17.759  11.754   8.604 -0.0918  0.3386  0.0638
    1W        W61374  25.476  11.069   8.706  0.0967 -0.1995 -0.0626
    1W        W61375  20.715  24.571   1.248  0.1330  0.0269  0.1494
    1W        W61376   5.142   2.606   3.346 -0.0929 -0.0282  0.1531
    1W        W61377   0.958  26.981   7.711  0.2245 -0.2156 -0.2020
    1W        W61378   6.517  26.264   9.468  0.2663 -0.3001  0.1740
    1W        W61379  23.541   5.063   1.709  0.1599  0.4277 -0.1001
    1W        W61380  28.709  28.830   8.517  0.1065 -0.1514  0.0909
    1W        W61381   3.096  12.797   0.348 -0.3444 -0.1192  0.0313
    1W        W61382  25.487  10.325   1.813  0.4444 -0.0308  0.2719
    1W        W61383  13.374  14.414   9.453  0.0464  0.3719 -0.1865
    1W        W61384  21.377  22.713   6.648 -0.0623  0.0541  0.0152
    1W        W61385   0.819   7.956   1.162 -0.0533  0.2177 -0.0428
    1W        W61386  22.121  15.311   8.238 -0.1000 -0.0950  0.4480
    1W        W61387  17.730  25.687   8.747 -0.3685  0.3701 -0.0154
    1W        W61388  18.666   5.451   8.539  0.0113  0.1623  0.2710
    1W        W61389  29.284  10.050   7.092  0.0144  0.0150 -0.0120
    1W        W61390  24.708  29.598   1.667 -0.1535 -0.0585  0.1081
    1W        W61391  23.046   4.517   8.853  0.1888  0.0073 -0.0274
    1W        W61392  27.757  23.265   9.059 -0.2792 -0.0330  0.2770
    1W        W61393  12.007  24.759   9.338  0.2327 -0.0585  0.1920
    1W        W61394   9.001   2.156   8.431 -0.1382  0.1207 -0.0983
    1W        W61395  24.129  12.904   7.988 -0.0731 -0.0377 -0.0687
    1W        W61396  11.287  11.245   7.549 -0.2383  0.1315 -0.0484
    1W        W61397  13.455  12.843   1.656  0.1455 -0.1242  0.0780
    1W        W61398  24.666   8.633   1.806  0.2717 -0.2587  0.0681
    1W        W61399   2.295  23.584   0.418 -0.3314  0.1088 -0.0543
    1W        W61400  18.959  10.543   6.094 -0.1562 -0.0725 -0.2056
    1W        W61401  14.443  27.872   9.039  0.2860 -0.4843  0.2667
    1W        W61402  15.635  25.305   7.225 -0.0752 -0.2437 -0.0846
    1W        W61403  24.423   5.108   2.985 -0.0241  0.1597  0.2304
    1W        W61404  28.140  17.037   0.865 -0.0323  0.0683  0.3345
    1W        W61405  14.552  26.862   3.375  0.3716 -0.0217 -0.2091
    1W        W61406   4.358  16.645   9.521 -0.0313  0.1379 -0.0657
    1W        W61407  13.043  28.006   6.204 -0.0980  0.1894 -0.2675
    1W        W61408  29.308  19.265   7.877 -0.1225  0.1071 -0.0250
    1W        W61409  20.242   8.807   1.199  0.1600  0.1767  0.1575
    1W        W61410   3.435  11.458   1.639 -0.1853  0.3543 -0.0173
    1W        W61411  10.978  19.063   2.476 -0.1353  0.0710  0.2470
    1W        W61412  10.999  17.505   1.807  0.1028 -0.1035 -0.1012
    1W        W61413   2.076  20.256   8.506  0.0089 -0.0137  0.0086
    1W        W61414  26.997  12.682   8.170  0.2774 -0.1619  0.0507
    1W        W61415  22.674  15.873   8.800  0.1027  0.0913 -0.0562
    1W        W61416  19.545   0.377   8.371  0.2560 -0.0400  0.0859
    1W        W61417   5.449   8.436   0.503  0.0125 -0.2511 -0.0987
    1W        W61418  11.597   0.596   0.002  0.0557 -0.1621 -0.1031
    1W        W61419   9.950   0.840   1.982  0.0081 -0.0395  0.0553
    1W        W61420  28.275   1.026   7.685 -0.0190 -0.0005  0.1857
    1W        W61421  25.186   8.771   8.102 -0.0217 -0.1432  0.2087
    1W        W61422  13.332  22.538   2.604 -0.1557  0.0271  0.0690
    1W        W61423  17.440   8.188   0.420 -0.0852 -0.0128  0.1138
    1W        W61424   2.743  16.442   7.919  0.3943 -0.2911 -0.1810
    1W        W61425  29.661  13.892   1.090  0.1622  0.1380 -0.4381
    1W        W61426  24.820   1.752   1.618  0.1373 -0.0935  0.0896
    1W        W61427   8.466  12.296   7.969 -0.1462  0.1556 -0.0656
    1W        W61428  22.334  26.416   8.710  0.0381 -0.2882 -0.1205
    1W        W61429   1.958   3.887   7.964 -0.3127  0.1587 -0.0047
    1W        W61430  20.950  11.862   7.861  0.0498  0.1738  0.0258
    1W        W61431   1.092  10.012   7.056 -0.0614 -0.2199  0.2881
    1W        W61432  17.849  18.294   6.267 -0.0090  0.1116 -0.1925
    1W        W61433   2.284  15.899   9.014 -0.1253  0.2340 -0.0074
    1W        W61434  20.478  23.776   2.546  0.1724 -0.1765  0.0725
    1W        W61435  21.138  27.333   3.279 -0.0621  0.0267 -0.1397
    1W        W61436  28.099  24.178   8.463  0.2179 -0.2965 -0.3443
    1W        W61437   4.208  27.549   8.579  0.1769 -0.0636 -0.1488
    1W        W61438   2.087   5.895   1.899 -0.0441  0.0371 -0.2360
    1W        W61439  29.369  11.173   8.148  0.1542  0.1757 -0.0541
    1W        W61440   3.677  24.095   2.543 -0.0136  0.1895  0.3414
    1W        W61441  29.744  23.036   1.252 -0.1765  0.0598 -0.1862
    1W        W61442  24.605  28.277   1.287 -0.1325  0.2220  0.2411
    1W        W61443  27.942  27.206   2.512  0.0539 -0.0095 -0.1210
    1W        W61444   7.860  10.675   7.847  0.0008 -0.2782 -0.0530
    1W        W61445  28.806   4.354   2.755  0.1517  0.0105 -0.3316
    1W        W61446  18.045  26.081   8.502 -0.1338 -0.0978 -0.0994
    1W        W61447   6.679  26.946   1.921  0.0499 -0.0684 -0.1535
    1W        W61448  10.043   8.842   1.756 -0.0941  0.2361 -0.2247
    1W        W61449  21.644  20.565   1.938  0.0501 -0.0283 -0.0421
    1W        W61450  13.382  27.849   7.481  0.1286  0.1132  0.2937
    1W        W61451  28.901   8.849   7.086 -0.0173 -0.0686 -0.0251
    1W        W61452  19.055   0.448   0.154 -0.3858  0.1924  0.1326
    1W        W61453  11.747  13.509   8.722  0.1881 -0.1726 -0.4087
    1W        W61454  25.217  21.144   6.526  0.1031  0.0573 -0.0532
    1W        W61455   8.435   9.597   2.491 -0.0541  0.0124  0.3888
    1W        W61456  12.151  27.143   2.200 -0.1857 -0.1124 -0.3491
    1W        W61457  24.248  15.110   0.203 -0.3234  0.0200 -0.0604
    1W        W61458   3.736  19.329   8.849 -0.0355  0.1417 -0.1539
    1W        W61459  17.897  28.166   2.731  0.1325 -0.0990 -0.1052
    1W        W61460   0.022   1.858   0.526  0.0372 -0.2231 -0.0205
    1W        W61461   2.376  23.912   2.977  0.1969 -0.2505  0.4500
    1W        W61462  29.271   8.708   8.195  0.0452 -0.1496 -0.0079
    1W        W61463  19.864  10.555   1.320  0.0137  0.0482  0.1921
    1W        W61464  27.909  12.683   8.358 -0.1717 -0.1388 -0.1268
    1W        W61465  27.266  20.608   8.626 -0.0361 -0.1335  0.0870
    1W        W61466   1.627  19.327   9.149  0.3755 -0.3364  0.1028
    1W        W61467   5.816   5.100   2.615  0.3369  0.0301  0.1282
    1W        W61468  21.927   8.276   1.033  0.0593  0.3352 -0.0518
    1W        W61469  18.554   6.488   9.449 -0.0519 -0.0585 -0.0391
    1W        W61470  24.778  11.919   8.117  0.2390  0.1118 -0.0589
    1W        W61471   9.769  18.247   8.041 -0.1053 -0.4117  0.1127
    1W        W61472  11.178  20.979   7.526  0.0272 -0.2375  0.1759
    1W        W61473   5.438   7.439   7.977 -0.0106 -0.1413  0.0676
    1W        W61474   1.107  18.029   0.407  0.1276  0.0855 -0.0549
    1W        W61475  11.478   4.439   1.218  0.3020 -0.0650 -0.0764
    1W        W61476   0.651  21.105   0.737 -0.2458  0.1286  0.1474
    1W        W61477  26.323  20.662   6.227  0.0971  0.1310 -0.2027
    1W        W61478  29.701   5.434   2.336 -0.4111  0.0815  0.1923
    1W        W61479  28.526  22.612   2.544 -0.2067  0.1627 -0.0805
    1W        W61480   2.603  16.810   0.675 -0.2608 -0.1948 -0.0603
    1W        W61481   4.553  26.571   2.237 -0.1196  0.3416 -0.0004
    1W        W61482  17.870  11.345   0.163 -0.3242  0.1544 -0.2015
    1W        W61483   2.125  26.125   0.070  0.0803  0.2325  0.1175
    1W        W61484   6.758   9.562   9.435 -0.0198 -0.1449 -0.2572
    1W        W61485   5.086   5.720   7.701  0.2489 -0.1823  0.3376
    1W        W61486   1.417  29.167   8.624 -0.2291 -0.1062 -0.2313
    1W        W61487  11.032   8.433   1.941 -0.1289  0.2468 -0.2943
    1W        W61488  24.278   5.862   0.349 -0.1026  0.0223  0.1016
    1W        W61489   6.618  22.994   7.453  0.2385 -0.3251 -0.1702
    1W        W61490  28.013  19.612   9.113 -0.3428  0.0023 -0.0409
    1W        W61491  21.918  11.492   8.252  0.0120 -0.0737  0.0243
    1W        W61492  12.739   3.191   7.543 -0.0649  0.0389 -0.0485
    1W        W61493  11.973   3.764   2.811  0.2037 -0.0706 -0.3177
    1W        W61494  12.154   4.271   3.228 -0.0504  0.0029 -0.2019
    1W        W61495   4.832   3.024   0.821 -0.0368 -0.0433 -0.1390
    1W        W61496  12.730   4.310   8.903 -0.0873  0.1394 -0.0851
    1W        W61497   2.562   2.847   2.291 -0.0185 -0.1292 -0.2342
    1W        W61498  18.185   8.908   7.759  0.1403  0.1721 -0.2756
    1W        W61499  16.163  15.809   7.715  0.0781  0.2114  0.1360
    1W        W61500  28.349  23.405   6.460  0.2772 -0.2090 -0.2132
    1W        W61501   5.280  27.954   2.117 -0.0981  0.2128 -0.1518
    1W        W61502  16.744   5.954   1.098 -0.1917  0.0227  0.0967
    1W        W61503  21.779  27.925   7.266 -0.0597  0.0764 -0.1337
    1W        W61504  21.463  19.531   7.324 -0.1049  0.5095 -0.0730
    1W        W61505   9.286  19.501   7.061  0.1738  0.1999 -0.0169
    1W        W61506   8.362  21.861   7.496 -0.5104  0.0711 -0.0793
    1W        W61507  29.165   2.609   1.324 -0.0166 -0.0810 -0.0143
    1W        W61508   6.093   1.657   2.468 -0.0732  0.3693  0.1667
    1W        W61509  25.024  19.261   7.354 -0.0560 -0.1267 -0.0054
    1W        W61510   9.915  10.549   1.199  0.2543  0.2086 -0.0564
    1W        W61511  10.304   8.049   6.432  0.0589 -0.2439  0.0310
    1W        W61512   2.836  28.201   0.224  0.0341  0.0559 -0.0182
    1W        W61513  18.696   0.679   1.609  0.0791 -0.0274  0.0311
    1W        W61514  15.180  13.482   2.727 -0.1483 -0.0151 -0.0078
    1W        W61515  14.886  26.870   6.930 -0.0153 -0.0138  0.0670
    1W        W61516   5.602   3.376   8.946 -0.0521  0.1091  0.3688
    1W        W61517  15.650  24.740   7.350 -0.0647 -0.5833  0.0981
    1W        W61518  12.526  16.543   9.368  0.3302 -0.0721  0.1355
    1W        W61519  18.167  22.379   0.816 -0.1503  0.1125  0.1507
    1W        W61520  14.720  11.204   8.516  0.0080  0.2716 -0.0597
    1W        W61521  19.513   3.919   0.654  0.0244  0.2479  0.1801
    1W        W61522  12.203   3.560   7.095 -0.2909  0.4335  0.2935
    1W        W61523  10.109   6.099   3.068  0.0103 -0.1554  0.2891
    1W        W61524  27.412   1.303   2.785  0.1074 -0.3049 -0.1886
    1W        W61525  14.337  22.588   2.145  0.0664 -0.0222 -0.0712
    1W        W61526  18.822   3.247   7.886 -0.2854  0.4369  0.3774
    1W        W61527  13.074  17.318   2.045  0.0005  0.1630  0.1070
    1W        W61528  29.683  20.841   8.478 -0.0624  0.3411 -0.1607
    1W        W61529  27.707  11.534   6.676 -0.3650  0.1771 -0.1090
    1W        W61530   4.633  29.662   6.423  0.0140  0.1203 -0.1793
    1W        W61531  21.388  10.706   1.237 -0.2664  0.2231 -0.0464
    1W        W61532  20.238  14.850   0.174 -0.0520 -0.2045 -0.0368
    1W        W61533  20.412  28.315   3.705  0.0157 -0.2233 -0.0812
    1W        W61534  27.232   7.608   1.893 -0.0922 -0.2935 -0.1855
    1W        W61535  17.963  21.103   1.561 -0.1269 -0.0686 -0.1865
    1W        W61536  28.590   8.286   1.418  0.1173 -0.1293 -0.1405
    1W        W61537  11.575  15.356   2.839  0.2517 -0.0146  0.0111
    1W        W61538   9.024  27.128   8.405  0.1171  0.0830 -0.1404
    1W        W61539  19.391  19.839   8.631  0.2532  0.2158  0.4642
    1W        W61540  12.678   1.825   8.040 -0.1220 -0.1481 -0.1184
    1W        W61541   6.033  13.940   7.646 -0.0967 -0.1213  0.0312
    1W        W61542  17.456  22.841   0.861  0.1404  0.2426  0.3913
    1W        W61543   9.727  25.180   7.362  0.2225 -0.0319 -0.2272
    1W        W61544  26.107   1.218   3.389  0.1932 -0.0078 -0.2794
    1W        W61545   2.110   8.195   1.974 -0.1476 -0.0743 -0.2911
    1W        W61546  27.042   6.477   7.199 -0.1729 -0.2449  0.0200
    1W        W61547  16.705  11.096   2.510 -0.0154 -0.2757  0.1697
    1W        W61548  20.112   5.242   8.391  0.1120  0.2799  0.0672
    1W        W61549   1.612   4.523   6.993  0.3288  0.1552 -0.0030
    1W        W61550  17.621   3.042   8.891 -0.1778  0.0302  0.1169
    1W        W61551   8.200  29.227   3.546 -0.3274 -0.2935 -0.1104
    1W        W61552  22.580  12.984   0.185  0.1790 -0.3942 -0.0036
    1W        W61553   4.252   6.979   0.774  0.1955  0.2382  0.1741
    1W        W61554  25.167  20.988   8.707  0.1662 -0.1332 -0.1326
    1W        W61555  21.055   2.838   1.812 -0.1315 -0.1263 -0.1820
    1W        W61556  13.027  20.822   1.548  0.0671  0.0162 -0.1784
    1W        W61557  22.604  23.194   2.718  0.2437  0.0673 -0.0447
    1W        W61558  19.020  20.423   9.189 -0.0233 -0.1485 -0.0185
    1W        W61559  26.875   8.828   9.367 -0.2168 -0.2918 -0.1317
    1W        W61560   8.356   7.287   0.149 -0.3201  0.4259  0.0705
    1W        W61561   7.524   5.127   6.828 -0.0812 -0.1586 -0.0835
    1W        W61562  14.282  23.295   1.587 -0.2528  0.0384 -0.0039
    1W        W61563   2.047  21.252   8.733  0.1022 -0.0297 -0.0901
    1W        W61564   8.141  10.766   2.322 -0.0494  0.1785 -0.0469
    1W        W61565   3.740  17.638   7.306 -0.0226 -0.1727 -0.2293
    1W        W61566  23.846  10.279   9.160 -0.0258 -0.3584 -0.2283
    1W        W61567  16.437  13.480   9.295 -0.1580 -0.1663 -0.3015
    1W        W61568   0.206   0.857   2.244  0.1640 -0.0422 -0.0804
    1W        W61569  19.045  26.664   0.597 -0.0176 -0.0216  0.2271
    1W        W61570   1.345   3.884   0.240  0.1829  0.1304  0.3014
    1W        W61571  20.363  12.598   8.277 -0.1055  0.4347 -0.0840
    1W        W61572  26.626   2.741   1.152 -0.0070  0.1819  0.0702
    1W        W61573  24.864   2.101   8.348 -0.0618  0.0937  0.1699
    1W        W61574  23.519  20.251   1.386 -0.0262 -0.0423  0.0859
    1W        W61575  29.647  14.851   0.377  0.2823  0.0892  0.3543
    1W        W61576   7.322   3.005   8.200  0.1417 -0.2877  0.3750
    1W        W61577  26.268  14.173   6.691 -0.0290 -0.0598 -0.3772
    1W        W61578  20.938   9.429   1.555 -0.0769  0.0351 -0.0077
    1W        W61579  20.056  12.374   9.081 -0.4076  0.1653 -0.0694
    1W        W61580  29.017  24.945   0.112 -0.1186  0.3657  0.0868
    1W        W61581  19.568  15.337   7.190  0.0923  0.2565  0.0447
    1W        W61582  15.827   8.022   1.709 -0.0682 -0.2301 -0.0138
    1W        W61583  28.338  26.534   7.509  0.1178  0.2778 -0.0506
    1W        W61584  23.600  12.277   1.056 -0.0489  0.1208 -0.2329
    1W        W61585   2.339  24.226   1.994 -0.0887  0.0088 -0.0812
    1W        W61586  17.271   7.170   3.223 -0.0227  0.1330 -0.1408
    1W        W61587  25.841  26.021   2.523 -0.1860  0.1172 -0.1697
    1W        W61588  21.208  13.955   1.394 -0.1714 -0.1705 -0.0951
    1W        W61589  13.854   4.425   8.672 -0.1164 -0.3295  0.0493
    1W        W61590  20.989  18.657   7.321  0.1772 -0.0286 -0.3908
    1W        W61591  20.512  15.017   1.620 -0.1791  0.0537  0.1767
    1W        W61592  12.120   8.707   6.868 -0.1635 -0.0723 -0.4125
    1W        W61593  18.070   2.408   9.475 -0.1039 -0.3917 -0.1282
    1W        W61594   5.713   3.126   7.728  0.4444  0.2578 -0.0284
    1W        W61595  23.583  21.539   7.813 -0.2602 -0.0958 -0.2107
    1W        W61596   1.030  25.925   2.291 -0.0140  0.1076  0.2390
    1W        W61597  16.112   6.614   1.837 -0.3671 -0.3725 -0.2289
    1W        W61598  24.982  20.179   1.768 -0.2685 -0.0162  0.0477
    1W        W61599  26.985  28.336   9.048 -0.2326 -0.1579  0.0387
    1W        W61600  23.691   6.713   1.581 -0.2914  0.0267  0.1752
    1W        W61601  17.054  13.215   2.230 -0.0445 -0.0357 -0.2901
    1W        W61602  28.301  25.680   7.815 -0.0411  0.1682 -0.0664
    1W        W61603   4.064  19.921   7.943 -0.1310  0.3214 -0.1585
    1W        W61604  28.349  20.680   0.929  0.1037  0.1726 -0.2020
    1W        W61605  18.267  14.914   8.237 -0.3138  0.2505 -0.0166
    1W        W61606  17.344   4.138   7.594  0.3027 -0.0358  0.1926
    1W        W61607  28.852   0.386   3.066  0.2058 -0.0284  0.2321
    1W        W61608   0.473   9.079   8.711 -0.0734 -0.2063 -0.1096
    1W        W61609  29.204   8.718   9.500  0.3393  0.3567  0.1882
    1W        W61610  14.669  15.101   2.825  0.1008 -0.0335 -0.1703
    1W        W61611   3.690  22.348   8.170 -0.0355  0.1002  0.1109
    1W        W61612  19.382  19.004   1.804 -0.1495 -0.1225  0.2381
    1W        W61613  17.848  22.118   1.155 -0.0621  0.1815  0.2813
    1W        W61614  24.106  13.421   6.018 -0.0363 -0.0309 -0.0991
    1W        W61615   5.707  27.371   6.462  0.2933 -0.0180 -0.2207
    1W        W61616  17.288  28.903   8.907 -0.1707  0.1525 -0.0941
    1W        W61617  22.133  12.010   8.202 -0.2998  0.0970 -0.0318
    1W        W61618  15.513   5.630   6.789 -0.0631  0.0039 -0.0261
    1W        W61619   3.683  14.095   0.412 -0.0179  0.1650  0.4045
    1W        W61620  14.508   7.078   8.350  0.2598 -0.2049 -0.2783
    1W        W61621   9.818   2.543   1.944  0.2391  0.1965  0.3114
    1W        W61622   7.725  18.384   0.189 -0.0632 -0.0033 -0.1358
    1W        W61623  18.537  15.302   0.045 -0.3230  0.2163  0.0010
    1W        W61624  14.944  23.567   1.074  0.1921 -0.1286 -0.1481
    1W        W61625   4.660  21.514   2.284 -0.0494  0.0327  0.5669
    1W        W61626  26.899  10.322   1.430  0.1904 -0.0581  0.0813
    1W        W61627  20.441  19.467   7.530 -0.1655  0.0209  0.0151
    1W        W61628   9.695   1.326   2.143  0.1427 -0.0518  0.2170
    1W        W61629   7.850  23.573   1.841  0.2233 -0.1549  0.2762
    1W        W61630   9.377  14.777   7.394 -0.2450 -0.3532 -0.2004
    1W        W61631   0.919  12.407   7.008  0.2323 -0.4672 -0.2829
    1W        W61632  17.064  28.863   0.761  0.0797 -0.1469 -0.3282
    1W        W61633   8.319   2.056   8.928  0.1766  0.3952 -0.0462
    1W        W61634   8.670  26.257   2.522 -0.1001  0.0173 -0.0107
    1W        W61635  25.291  21.898   8.828  0.0108 -0.1745 -0.3158
    1W        W61636  20.104  10.719   0.100 -0.4025 -0.0441 -0.1257
    1W        W61637   0.875   3.926   7.217  0.1788  0.3663 -0.1720
    1W        W61638  14.349  15.457   7.934 -0.0362  0.1657 -0.1912
    1W        W61639   3.180   9.590   9.535 -0.1907 -0.0293 -0.0615
    1W        W61640  23.580   2.785   1.129  0.3114 -0.3217 -0.1209
    1W        W61641   9.556  15.669   2.333  0.3796 -0.3948 -0.0128
    1W        W61642   0.671  29.619   6.630 -0.1477  0.4182 -0.3672
    1W        W61643  12.151   4.709   1.320 -0.1118 -0.0703  0.1959
    1W        W61644  28.373   1.362   2.298  0.2257 -0.1884  0.1049
    1W        W61645   5.871   4.912   8.085  0.1003  0.0951 -0.0684
    1W        W61646  28.034  13.230   7.276  0.1934 -0.1793  0.0151
    1W        W61647  26.411  29.648   7.618  0.5051 -0.4770 -0.2407
    1W        W61648  27.534   5.630   1.370  0.2617 -0.3955 -0.1986
    1W        W61649  23.660  13.333   2.300 -0.2488  0.1144 -0.0981
    1W        W61650  14.669  23.884   0.824  0.1120 -0.0225  0.1133
    1W        W61651  10.209   5.082   2.548 -0.0278  0.1838  0.0617
    1W        W61652  17.482  10.139   6.751  0.0060 -0.2296  0.3335
    1W        W61653  17.093   0.430   1.246  0.1962  0.4884  0.0444
    1W        W61654   0.341  28.497   2.352 -0.1138  0.0792  0.3318
    1W        W61655   6.989  19.181   7.821 -0.0535  0.0290  0.0122
    1W        W61656  20.041  13.059   8.224  0.2390 -0.1874 -0.0936
    1W        W61657  17.562  26.081   2.740  0.2172 -0.1298 -0.0661
    1W        W61658  19.190  16.193   7.856 -0.0606  0.1242 -0.1133
    1W        W61659  29.409  28.752   9.123 -0.2168 -0.1893 -0.0423
    1W        W61660  23.955  19.371   9.213 -0.1990  0.0971 -0.2432
    1W        W61661  26.877  17.012   0.431 -0.0402  0.1059 -0.3992
    1W        W61662   9.099   6.554   1.226  0.1138 -0.1140  0.4235
    1W        W61663  26.338   4.941   2.216 -0.0718  0.0173  0.1110
    1W        W61664  22.759  18.924   1.903  0.1577  0.2662 -0.1996
    1W        W61665  25.792  13.643   9.552  0.0663  0.1429 -0.1229
    1W        W61666   5.065   7.790   7.117 -0.0242 -0.0657  0.3055
    1W        W61667  26.270  12.887   0.919 -0.0425  0.3642  0.2911
    1W        W61668  20.683  12.426   7.437  0.0696 -0.0059  0.2098
    1W        W61669  12.660  28.542   1.323 -0.0078  0.2076  0.0161
    1W        W61670   6.843   2.687   0.396  0.0243 -0.0793  0.0325
    1W        W61671  12.706  20.988   6.999  0.1112 -0.1602  0.2537
    1W        W61672  18.064  24.397   1.653 -0.3113  0.0533 -0.3312
    1W        W61673  15.876  24.209   9.195  0.0259  0.0468  0.1722
    1W        W61674   3.959  22.928   2.131  0.0092  0.0806 -0.0344
    1W        W61675   6.212  25.156   7.345  0.1107  0.1251  0.0365
    1W        W61676   0.293  27.839   7.997 -0.0660 -0.0181 -0.2423
    1W        W61677   8.629  11.132   0.978 -0.3208 -0.1089  0.2255
    1W        W61678  11.382  21.548   6.588  0.1275 -0.0306 -0.1080
    1W        W61679  19.337   1.800   1.561 -0.0905  0.0944 -0.0369
    1W        W61680  17.700  26.264   9.365 -0.4708 -0.1701 -0.0663
    1W        W61681   1.467  13.031   8.202  0.0718  0.0290  0.3145
    1W        W61682  10.246  25.670   7.988 -0.0244  0.4381  0.1128
    1W        W61683  26.527  21.728   8.059  0.1998  0.1881  0.4614
    1W        W61684   8.163   8.589   0.738 -0.0148 -0.2417 -0.2947
    1W        W61685   8.203  23.579   7.945 -0.1217 -0.5450 -0.0587
    1W        W61686  24.271  11.769   8.020 -0.1139 -0.0083  0.2105
    1W        W61687   7.691  11.798   1.479 -0.1897 -0.0190  0.0879
    1W        W61688  19.732  28.053   3.133 -0.0116 -0.2324  0.1714
    1W        W61689   7.663   4.580   0.273 -0.2959 -0.0363 -0.0480
    1W        W61690   0.193  28.039   0.637  0.3152  0.1978 -0.4330
    1W        W61691  29.783   1.942   1.519 -0.1265  0.0206  0.3873
    1W        W61692  11.922  25.286   8.346 -0.1463 -0.0082  0.1514
    1W        W61693   5.728  20.669   1.918 -0.1756 -0.0716 -0.0714
    1W        W61694  22.309  16.463   6.769 -0.2344 -0.1106 -0.0342
    1W        W61695   9.400  10.148   1.934  0.0710 -0.1380  0.1248
    1W        W61696  29.382  18.489   1.896 -0.3878  0.1646 -0.0956
    1W        W61697  20.665   1.091   0.495  0.2231 -0.1131  0.0051
    1W        W61698   2.137  27.197   2.744  0.0297 -0.0214 -0.1380
    1W        W61699  26.139  19.728   8.556  0.0478 -0.3559 -0.0589
    1W        W61700   7.867  25.945   7.180 -0.3336  0.1223 -0.0761
    1W        W61701  27.528   6.384   0.381  0.3838  0.1354  0.0412
    1W        W61702  23.710  27.541   8.326 -0.2069  0.0287 -0.0801
    1W        W61703   2.326   5.232   1.472 -0.0074  0.2022  0.1738
    1W        W61704  25.908  12.303   7.379 -0.4055  0.1672  0.1875
    1W        W61705  26.009   0.278   3.282 -0.0861  0.3672  0.2344
    1W        W61706  13.188  18.873   0.375 -0.1166 -0.1460 -0.2117
    1W        W61707  13.473   8.314   0.806  0.4728 -0.2749  0.4013
    1W        W61708  23.433   9.973   8.228 -0.1273  0.0402  0.2503
    1W        W61709  25.426  22.274   9.379  0.0454  0.2996  0.0175
    1W        W61710  20.418  17.377   1.452  0.1156 -0.1881 -0.0132
    1W        W61711  19.579   6.473   8.066 -0.0100 -0.2692  0.2230
    1W        W61712  12.803  12.219   1.854  0.0491  0.1400  0.0035
    1W        W61713  28.129   3.997   7.798  0.0225 -0.1837  0.0466
    1W        W61714  25.009  11.473   0.505 -0.0541 -0.1619  0.1182
    1W        W61715  23.747   6.259   6.996 -0.0125  0.1264 -0.1918
    1W        W61716  18.382   8.375   7.693 -0.1284 -0.3020  0.0402
    1W        W61717  12.975  12.598   7.241  0.0266 -0.1303  0.0114
    1W        W61718  15.651  14.250   2.428  0.0117  0.0646 -0.1054
    1W        W61719  26.369  28.249   0.801  0.4681  0.1970  0.0811
    1W        W61720  28.434  24.272   7.416  0.0860  0.3808 -0.3715
    1W        W61721   7.227  15.201   8.180  0.1944 -0.2919 -0.0451
    1W        W61722  14.481   9.849   2.025 -0.1358 -0.1365 -0.0086
    1W        W61723  12.062  10.289   2.836 -0.0383 -0.0930  0.1317
    1W        W61724   9.698  29.297   3.490  0.0660 -0.1304 -0.0479
    1W        W61725  20.744  16.674   8.631  0.0665 -0.1809 -0.0796
    1W        W61726  19.927  28.301   9.396  0.1467  0.0010 -0.1674
    1W        W61727  25.223  17.139   1.288 -0.2527 -0.2691  0.0999
    1W        W61728   8.397  12.248   0.978 -0.1032  0.2751  0.0214
    1W        W61729  26.010   3.429   1.461  0.1619  0.0539 -0.1904
    1W        W61730  18.670  15.660   7.420  0.1426  0.2241  0.1448
    1W        W61731  12.055  17.333   8.217 -0.0950 -0.1625 -0.2757
    1W        W61732  15.662  18.530   9.396 -0.2417 -0.1216  0.3400
    1W        W61733  20.654   6.275   9.385  0.1785 -0.1703 -0.0936
    1W        W61734   3.147  25.375   1.174 -0.3641  0.2858 -0.1841
    1W        W61735   7.540   1.131   0.929  0.2685 -0.1197  0.1196
    1W        W61736  21.953  15.257   9.174 -0.3172 -0.0963  0.0148
    1W        W61737  20.397   0.141   0.840 -0.1560 -0.0658 -0.1206
    1W        W61738   9.367   6.035   1.959  0.1409 -0.4077  0.3905
    1W        W61739   1.188   8.028   8.458  0.0889 -0.1388 -0.0466
    1W        W61740   0.150   6.940   8.322 -0.0257  0.0632  0.0410
    1W        W61741  21.263  19.556   9.210  0.0068  0.1870  0.2773
    1W        W61742   3.905  26.181   8.711  0.0760 -0.2791  0.1769
    1W        W61743  15.830  15.436   1.800  0.0019 -0.0280  0.0210
    1W        W61744  29.521  10.471   0.911 -0.0783  0.0893  0.0179
    1W        W61745  12.681  22.761   7.232 -0.2278 -0.2201  0.2342
    1W        W61746  17.396  24.617   6.970  0.2448  0.0256  0.1012
    1W        W61747  21.948  23.284   8.945 -0.1960 -0.0519 -0.1659
    1W        W61748  19.109   5.062   1.717  0.0052 -0.2289 -0.0296
    1W        W61749  28.923   0.809   7.664 -0.0991  0.0087  0.1898
    1W        W61750   2.812  21.419   9.290  0.0884  0.0763  0.1261
    1W        W61751  13.301   7.789   3.010 -0.2433  0.0226 -0.0553
    1W        W61752   8.625  12.036   8.976  0.1013 -0.1148 -0.0001
    1W        W61753   8.807  19.450   9.290 -0.0339  0.0802 -0.2411
    1W        W61754  13.285  29.469   1.951  0.1854 -0.1175  0.1321
    1W        W61755  21.347  23.295   1.820  0.2352  0.1543 -0.0961
    1W        W61756   9.819  12.150   8.671  0.1990 -0.1097  0.0957
    1W        W61757   6.404  25.412   2.033 -0.1545 -0.0341  0.0864
    1W        W61758   6.997   9.587   1.184 -0.0841  0.0231  0.1001
    1W        W61759   8.131   4.656   7.377  0.1839 -0.0611  0.2309
    1W        W61760  10.848  12.702   9.460  0.0717  0.0988  0.4115
    1W        W61761  20.732  11.383   0.122  0.0365  0.1243  0.1222
    1W        W61762   6.530  22.486   2.943 -0.0281 -0.1939 -0.1743
    1W        W61763  10.822  13.019   1.259 -0.1035  0.3994  0.1140
    1W        W61764  27.340  22.783   7.718  0.0349  0.1096 -0.0954
    1W        W61765  10.016  16.469   7.959  0.1329 -0.2544 -0.0524
    1W        W61766   6.199   5.770   1.570 -0.1198 -0.0665 -0.1657
    1W        W61767  29.410  14.165   0.414 -0.0234 -0.0020 -0.1691
    1W        W61768  27.514   3.376   1.698 -0.0855 -0.2524 -0.1454
    1W        W61769  24.378   0.425   6.322  0.0510  0.1919 -0.0719
    1W        W61770  17.376  21.480   3.258 -0.1071  0.1588  0.0618
    1W        W61771   7.615  22.571   1.046  0.1148 -0.0664 -0.0856
    1W        W61772  11.045   6.823   8.754 -0.2535 -0.1881 -0.0189
    1W        W61773  19.883  26.620   8.643  0.2223  0.0601 -0.0590
    1W        W61774  28.993   6.258   1.512  0.0169  0.2032  0.2084
    1W        W61775  24.406   7.561   9.126 -0.1170  0.0418  0.1188
    1W        W61776  19.232   2.577   8.087  0.4218  0.2300  0.1306
    1W        W61777  15.273  25.996   1.384  0.1151  0.0156  0.0295
    1W        W61778  15.906  28.654   9.060 -0.3875 -0.2852  0.0386
    1W        W61779  23.031  13.693   7.961 -0.0000 -0.0277  0.0644
    1W        W61780  16.074  22.679   2.569  0.1366 -0.0219 -0.1874
    1W        W61781  22.184  27.415   3.403 -0.1010 -0.3402 -0.0486
    1W        W61782  15.625   8.479   1.566 -0.2597 -0.3401 -0.1163
    1W        W61783   9.556  21.685   0.360  0.0536 -0.0164 -0.1357
    1W        W61784  10.332  24.591   1.853  0.1491  0.2191 -0.0809
    1W        W61785  22.268  23.417   5.953  0.3005  0.0751 -0.0114
    1W        W61786  10.685  14.665   7.582 -0.0351 -0.0638 -0.0520
    1W        W61787  26.457  20.096   7.003 -0.3440 -0.2410 -0.0263
    1W        W61788  24.281  26.802   2.430  0.2377 -0.1743  0.1704
    1W        W61789   5.186  20.339   7.765  0.2811 -0.3257 -0.0545
    1W        W61790  16.520  20.644   2.009  0.2397 -0.2434  0.0009
    1W        W61791  25.566  12.972   0.502  0.0771 -0.1112  0.3672
    1W        W61792  10.241   5.988   1.514  0.1604  0.2497 -0.2085
    1W        W61793  10.502  23.203   2.280  0.0540  0.0477 -0.0167
    1W        W61794  15.325  22.192   2.839 -0.0016  0.0638 -0.1756
    1W        W61795  21.861  18.595   1.936  0.0334 -0.1151  0.1077
    1W        W61796   0.289  20.536   7.548 -0.1637  0.1371  0.0690
    1W        W61797  27.422  16.438   0.322  0.1371 -0.0231  0.0028
    1W        W61798   3.884  11.488   1.290 -0.1041 -0.0394  0.0992
    1W        W61799  13.404  24.891   6.153 -0.1783 -0.1111 -0.2444
    1W        W61800  28.802   5.977   7.375  0.0404  0.0949 -0.0343
    1W        W61801   3.044  14.366   1.549 -0.0847 -0.0163 -0.0727
    1W        W61802  27.692  26.971   1.666 -0.0720  0.3261  0.2196
    1W        W61803   9.924  23.758   8.310 -0.1110  0.0908  0.0020
    1W        W61804  18.480  26.458   6.987  0.0413 -0.1424  0.2265
    1W        W61805  14.126  28.963   9.161 -0.0372  0.1573 -0.0955
    1W        W61806  16.669  29.223   0.009 -0.0519 -0.0346 -0.1541
    1W        W61807  16.643  17.701   0.424  0.1979 -0.0770 -0.2453
    1W        W61808  10.851   4.224   6.751 -0.0550 -0.1218 -0.1052
    1W        W61809  28.149  10.589   1.999  0.1862 -0.0178  0.1376
    1W        W61810  16.484  15.002   8.020 -0.0336  0.1586  0.2614
    1W        W61811  15.988  18.369   0.246 -0.1428 -0.3356 -0.1684
    1W        W61812   3.666   5.597   0.512  0.0655  0.3270  0.1664
    1W        W61813  16.836  22.855   1.508 -0.1526 -0.1020 -0.3447
    1W        W61814  16.285   5.067   2.215  0.1341  0.1896  0.1209
    1W        W61815  23.311  29.511   6.984  0.1077  0.1964 -0.2228
    1W        W61816  19.938   7.793   0.158 -0.0151  0.2441  0.3945
    1W        W61817  14.108  20.414   0.003 -0.0657  0.0934 -0.1759
    1W        W61818  15.412  26.987   6.854  0.1731 -0.1055  0.3063
    1W        W61819  24.116  23.682   1.851  0.0249  0.2477  0.3220
    1W        W61820  12.082   5.083   6.911  0.2846  0.3957  0.1995
    1W        W61821  27.333  26.492   0.942  0.1991  0.1109 -0.1200
    1W        W61822  17.507   1.618   8.517  0.5869 -0.0898  0.0798
    1W        W61823  21.587  22.838   8.574 -0.0913 -0.0355 -0.1627
    1W        W61824  14.927   1.791   0.759 -0.2391 -0.0497  0.0193
    1W        W61825   3.585  17.346   6.912  0.1751 -0.1588 -0.0226
    1W        W61826   5.818  27.386   0.226  0.0538 -0.2797  0.0167
    1W        W61827  20.128  14.273   7.509 -0.0035  0.1216 -0.1838
    1W        W61828  23.020   5.830   0.092 -0.1634  0.0226 -0.1490
    1W        W61829  10.968   1.174   8.260 -0.4384  0.1729 -0.0020
    1W        W61830   5.231  17.659   2.453 -0.1547  0.0792 -0.1205
    1W        W61831  13.964  22.213   2.767  0.0097 -0.0431 -0.4408
    1W        W61832   7.078  29.122   7.386  0.0852 -0.0712  0.0441
    1W        W61833  28.948  25.288   1.508 -0.1036 -0.0350 -0.0780
    1W        W61834   2.672   9.203   7.484 -0.1123 -0.0238  0.1675
    1W        W61835   6.546  15.255   1.030  0.2824 -0.1585 -0.1417
    1W        W61836  28.907   5.109   2.310 -0.1945  0.1789 -0.0307
    1W        W61837  24.390  21.535   0.313  0.5536  0.1431  0.0440
    1W        W61838   9.408   3.275   1.611  0.0379  0.2575 -0.0535
    1W        W61839  20.967  15.462   8.311  0.1927  0.2984  0.3741
    1W        W61840  16.405  18.057   0.101  0.3168  0.1285 -0.0583
    1W        W61841   0.043   7.663   1.992  0.0753 -0.0759  0.2776
    1W        W61842   7.420  25.740   7.627  0.3162 -0.3161 -0.1391
    1W        W61843  26.625  10.410   0.585 -0.1639  0.0306 -0.4058
    1W        W61844   8.528  16.567   7.039  0.0096  0.0380  0.0868
    1W        W61845  21.882   8.748   2.313 -0.0529  0.0571  0.2946
    1W        W61846   7.709  12.691   8.069  0.1479 -0.0819  0.0646
    1W        W61847   0.666  21.628   8.963  0.3714 -0.1844 -0.0792
    1W        W61848  28.727   0.699   9.496 -0.0671 -0.2375  0.0753
    1W        W61849  19.992   6.911   9.272 -0.0392  0.0791  0.0091
    1W        W61850  23.331  25.561   9.021  0.2155  0.0986 -0.0056
    1W        W61851  12.707  13.468   8.342 -0.1040  0.1692 -0.2021
    1W        W61852  12.516  18.025   2.354 -0.3862  0.2051 -0.2298
    1W        W61853  27.836  15.108   9.484 -0.0035  0.3163  0.1409
    1W        W61854  19.680  14.020   1.386 -0.2250 -0.4882  0.1030
    1W        W61855  12.318  14.489   8.639 -0.0667 -0.2266 -0.0428
    1W        W61856  20.020   5.778   8.020  0.6168  0.1048  0.0671
    1W        W61857  27.503  17.825   9.044  0.2333 -0.0948  0.1367
    1W        W61858   4.677  23.759   9.021  0.1898  0.0350  0.0492
    1W        W61859  25.744  27.396   2.437  0.4839 -0.1652  0.0677
    1W        W61860  29.103  17.248   7.486 -0.1423 -0.1792 -0.3286
    1W        W61861   6.802   8.524   0.628  0.1387 -0.0368 -0.0769
    1W        W61862  28.119  20.613   2.124  0.1592  0.2521  0.1425
    1W        W61863   8.771  23.552   1.204  0.1713 -0.3980  0.1531
    1W        W61864  12.497   6.013   0.151 -0.2653  0.2543 -0.1999
    1W        W61865  15.081  15.697   6.273 -0.1207  0.0444 -0.0272
    1W        W61866   0.031  29.661   9.201  0.0952 -0.1793  0.0724
    1W        W61867  10.098  28.095   0.318  0.0040 -0.0756  0.2692
    1W        W61868  22.281  23.352   9.305 -0.0668  0.1671 -0.1727
    1W        W61869  10.455   3.181   0.834 -0.1586 -0.1592  0.0229
    1W        W61870  22.075  20.343   9.270  0.2772 -0.1978 -0.2240
    1W        W61871  25.407   4.122   2.964 -0.0549  0.2997 -0.2539
    1W        W61872  26.833   5.254   0.013  0.4124  0.1677  0.0447
    1W        W61873   9.170  14.126   2.467 -0.0440 -0.1033  0.1722
    1W        W61874  21.964  17.414   1.851 -0.2793  0.0948 -0.1228
    1W        W61875   0.190  17.452   2.254 -0.1983 -0.2414 -0.0817
    1W        W61876  10.128   9.949   2.998 -0.1443 -0.1722  0.1315
    1W        W61877  23.046  12.698   7.129 -0.1167  0.0816  0.2281
    1W        W61878   1.019   3.107   1.746 -0.1388  0.0926 -0.1439
    1W        W61879   3.418   9.326   6.616 -0.2576 -0.2501 -0.3016
    1W        W61880   8.614  20.677   2.704  0.0487 -0.0740  0.2466
    1W        W61881  20.825  20.936   7.103 -0.3507 -0.0187 -0.0975
    1W        W61882   2.723  29.468   9.030  0.2273  0.1329  0.0804
    1W        W61883   0.983   2.785   7.482 -0.3609  0.1171 -0.0750
    1W        W61884  11.879  10.585   7.912 -0.1333 -0.1473 -0.2273
    1W        W61885  15.202  27.194   8.780 -0.0072  0.4433  0.0676
    1W        W61886   9.883   6.978   2.123  0.1103 -0.1528  0.3550
    1W        W61887  29.363  26.176   1.745  0.1528 -0.3095  0.2903
    1W        W61888  15.187  11.007   7.595 -0.2866  0.1298 -0.0362
    1W        W61889  23.980   4.064   8.602  0.2058 -0.1143  0.0594
    1W        W61890   0.711  20.119   0.634 -0.0339  0.3073 -0.3097
    1W        W61891  12.039  19.423   0.424  0.1608  0.0694 -0.1844
    1W        W61892  16.589   9.600   9.330  0.2855  0.0596  0.2345
    1W        W61893   0.321  13.742   7.425  0.0663 -0.0740 -0.1845
    1W        W61894  22.805   4.234   7.438 -0.0817  0.1223 -0.0811
    1W        W61895   1.159   2.759   1.389  0.1135 -0.0291  0.1878
    1W        W61896  29.025  18.348   6.839 -0.0317  0.0985 -0.1360
    1W        W61897   3.295   0.011   7.116  0.0259 -0.0239 -0.1861
    1W        W61898  24.766  17.204   0.378  0.2247 -0.0928  0.2171
    1W        W61899  25.637  21.903   0.038 -0.0736 -0.1477 -0.0739
    1W        W61900  16.230  10.545   9.381 -0.0304  0.0625  0.1839
    1W        W61901   0.627  24.811   0.907 -0.1082  0.0715  0.0350
    1W        W61902   3.501  13.216   2.368 -0.0200 -0.2642 -0.1918
    1W        W61903  19.119  17.956   9.146  0.0357 -0.1359  0.2785
    1W        W61904  15.269  12.025   7.254  0.0085  0.0250  0.0784
    1W        W61905  13.849  12.564   1.853  0.1555 -0.0647  0.0693
    1W        W61906  26.692   4.403   7.170  0.0099  0.1907  0.2383
    1W        W61907  12.239  25.531   0.695  0.1432 -0.3424 -0.1112
    1W        W61908  23.489  22.061   7.964  0.0595 -0.0456 -0.3002
    1W        W61909  23.828  18.447   8.903 -0.1292  0.0852  0.2916
    1W        W61910   0.378  28.222   9.173  0.3850  0.0050 -0.2121
    1W        W61911   8.366   8.537   2.143  0.0597 -0.0473 -0.0525
    1W        W61912  13.961  12.303   0.029 -0.2073 -0.1319  0.2689
    1W        W61913  19.557  14.831   1.699 -0.0223 -0.2259 -0.0772
    1W        W61914  23.985   2.501   1.320  0.3247  0.0050 -0.0024
    1W        W61915  16.318   4.051   9.546 -0.2963 -0.0630 -0.1982
    1W        W61916  21.975   6.705   0.862  0.1649 -0.0684 -0.3187
    1W        W61917   3.146   1.021   8.315  0.0997  0.1006 -0.0863
    1W        W61918  19.418  28.142   2.590 -0.0930  0.0251  0.1004
    1W        W61919  29.045   6.035   7.795  0.2331  0.0370 -0.0603
    1W        W61920  23.873   7.894   0.212 -0.0449  0.1294 -0.1150
    1W        W61921  15.534  12.272   0.012 -0.4268 -0.0939  0.2211
    1W        W61922  19.428  17.906   8.536  0.3867 -0.0545 -0.1929
    1W        W61923   7.859  23.571   8.326  0.0688 -0.0387  0.2862
    1W        W61924  24.992  18.065   8.356 -0.2118 -0.1092  0.0358
    1W        W61925   8.317  23.231   0.662 -0.3085  0.1870 -0.0427
    1W        W61926   4.621   6.333   1.310  0.1153  0.1219  0.1998
    1W        W61927   6.959  24.091   0.258 -0.0721  0.0090 -0.2330
    1W        W61928  24.537   6.972   2.439 -0.0295 -0.1226 -0.2654
    1W        W61929  11.909  24.525   6.197  0.2437 -0.2943 -0.0239
    1W        W61930  23.628  24.803   7.671 -0.2899  0.0015  0.3774
    1W        W61931  13.664  15.946   7.623 -0.0302  0.0598  0.0192
    1W        W61932   7.671   9.026   9.353  0.1287  0.1700  0.0669
    1W        W61933  16.016   7.056   6.965  0.0379 -0.0382  0.0232
    1W        W61934  13.098   8.376   8.587  0.1813 -0.0221 -0.1842
    1W        W61935  13.226   9.019   7.713  0.4387  0.0352 -0.0158
    1W        W61936  17.659   8.033   2.786 -0.1747 -0.0257  0.1364
    1W        W61937  14.217   6.227   2.165 -0.1970 -0.2642 -0.1510
    1W        W61938   5.334  19.598   0.806 -0.2128 -0.1022 -0.0976
    1W        W61939  29.532   0.340   9.127  0.1271 -0.1052 -0.0477
    1W        W61940  13.840   6.900   2.008  0.1103  0.3373  0.2634
    1W        W61941  24.224  15.781   8.731  0.2059  0.0453  0.1639
    1W        W61942  23.762  25.968   1.052  0.1750 -0.0132 -0.1246
    1W        W61943  18.234  29.707   0.471 -0.2390 -0.0488 -0.2279
    1W        W61944   9.620  18.652   2.557  0.0969 -0.1005  0.0355
    1W        W61945   0.039  13.417   0.984  0.0003 -0.0649  0.0886
    1W        W61946  11.892  26.819   6.142  0.0014 -0.1716  0.1271
    1W        W61947  28.484  23.880   6.690 -0.1932  0.3436 -0.0736
    1W        W61948  14.970  21.323   8.827  0.0940  0.0755  0.1234
    1W        W61949   6.123  22.826   8.537 -0.3434  0.0834 -0.2329
    1W        W61950   4.544  24.825   0.762  0.1678  0.0749 -0.0428
    1W        W61951  19.573   8.387   0.426  0.0973  0.0712 -0.0807
    1W        W61952  28.057  22.323   7.053  0.0178  0.1756 -0.1484
    1W        W61953  28.236   4.268   1.839  0.2991  0.0346  0.0590
    1W        W61954  27.409  11.652   9.025 -0.0350 -0.1071  0.0711
    1W        W61955  24.516   2.898   2.449  0.5653  0.0302  0.0175
    1W        W61956  27.293  19.114   6.758  0.0672  0.2038  0.0094
    1W        W61957  23.488  14.782   7.206 -0.2477 -0.0546  0.2448
    1W        W61958  16.925  17.563   7.125 -0.2012 -0.0509  0.1994
    1W        W61959   8.158  11.590   1.677  0.0426 -0.2083 -0.0265
    1W        W61960  28.730  14.646   0.450  0.0088  0.0296 -0.0817
    1W        W61961  26.792  20.897   7.121 -0.0439 -0.3530 -0.0989
    1W        W61962   5.531  26.447   2.013 -0.1574 -0.1233 -0.2292
    1W        W61963  11.586   6.752   9.355 -0.0616 -0.0893 -0.0232
    1W        W61964  25.177  26.759   0.624 -0.2189  0.0639  0.0687
    1W        W61965  28.003   9.531   7.631 -0.3100  0.1280  0.1823
    1W        W61966  14.571   6.292   6.629  0.3408 -0.2220 -0.0703
    1W        W61967   4.802  14.724   9.332 -0.1137 -0.3192 -0.4302
    1W        W61968  17.853  25.357   2.254  0.1169 -0.0113 -0.3943
    1W        W61969  13.185   5.487   8.161 -0.3008 -0.0173 -0.1195
    1W        W61970  25.330  24.035   2.345  0.2190  0.0455 -0.0687
    1W        W61971   8.602  20.956   6.792  0.2072  0.0998 -0.2627
    1W        W61972  11.541   3.064   0.329 -0.2432  0.0155  0.0658
    1W        W61973   7.964  29.681   8.637  0.1571  0.0522 -0.0400
    1W        W61974   3.131  19.465   8.736 -0.2112 -0.0528 -0.2798
    1W        W61975   3.232  26.673   0.118 -0.0351 -0.0721 -0.0678
    1W        W61976  29.199  15.953   8.728  0.2309  0.1358  0.1107
    1W        W61977  27.467  22.950   6.798 -0.2855 -0.1137  0.3795
    1W        W61978   1.353  26.488   1.022 -0.0208  0.0646 -0.0123
    1W        W61979   9.367  23.776   8.786 -0.1193  0.0345  0.1990
    1W        W61980  10.943  29.627   8.250 -0.0526 -0.2511 -0.0588
    1W        W61981   6.970   8.510   2.097 -0.0296  0.1628 -0.1174
    1W        W61982   6.296   5.112   7.522 -0.1773  0.4859  0.2031
    1W        W61983   8.060  27.159   6.509  0.1649  0.2340 -0.3553
    1W        W61984  25.249   3.504   1.996  0.0421 -0.1389  0.1439
    1W        W61985  13.484  11.808   2.802  0.2041  0.3169  0.1548
    1W        W61986  24.956  19.984   7.934  0.2924 -0.1328 -0.0396
    1W        W61987   8.052   7.730   1.471  0.2898  0.1015 -0.0690
    1W        W61988  22.567  20.532   0.570 -0.2081 -0.2167 -0.0057
    1W        W61989  26.703  25.700   1.371  0.2231 -0.3344  0.0586
    1W        W61990  16.837  17.688   6.463 -0.1621 -0.2711 -0.0302
    1W        W61991  28.507   4.200   8.090  0.0366 -0.0716  0.3168
    1W        W61992  10.989  12.566   1.291  0.0960  0.0440 -0.1869
    1W        W61993  19.280   9.428   8.020  0.0766 -0.1673 -0.0964
    1W        W61994  23.135   9.020   6.516  0.0321  0.1156  0.0509
    1W        W61995   2.958  29.701   1.470  0.0167  0.1782 -0.3586
    1W        W61996  21.399  22.971   9.519  0.1268 -0.2715 -0.0617
    1W        W61997  25.047   5.430   2.598  0.0441  0.1322 -0.0778
    1W        W61998  15.661   0.890   0.673 -0.1380 -0.0537 -0.0906
    1W        W61999  16.710  28.815   7.578  0.1495 -0.0429  0.0614
    1W        W62000  10.125   9.517   6.872  0.0443 -0.3805 -0.0598
    1W        W62001  12.770  17.908   0.295  0.0963  0.1572 -0.1642
    1W        W62002  11.116  12.385   8.355  0.0898  0.2891 -0.0617
    1W        W62003  26.455   2.136   8.902 -0.0158  0.1995  0.0640
    1W        W62004   5.347  12.220   9.249 -0.0326 -0.1748  0.1811
    1W        W62005  27.505   7.279   0.378 -0.0805 -0.0010  0.0693
    1W        W62006  13.709  10.781   2.565  0.1096  0.1824 -0.1624
    1W        W62007  20.271  24.439   6.457  0.1174  0.1815 -0.0673
    1W        W62008  25.359  27.097   8.227  0.0995  0.2167  0.1957
    1W        W62009   0.248  25.374   7.441  0.3455  0.1214  0.0586
    1W        W62010  27.925   0.703   9.164  0.2455  0.0013 -0.3484
    1W        W62011  17.787  24.889   1.710 -0.1883 -0.2330 -0.1381
    1W        W62012   8.893  15.563   7.377 -0.2990 -0.0676  0.3033
    1W        W62013  26.652  11.893   0.575 -0.0115  0.0487  0.1022
    1W        W62014  13.105  15.742   7.974  0.0936 -0.7426  0.0931
    1W        W62015   8.694  12.537   8.924  0.1651 -0.1679  0.2222
    1W        W62016  14.429  29.089   0.542  0.1518  0.1476 -0.0044
    1W        W62017   3.841  18.200   7.994 -0.0371 -0.3613  0.1208
    1W        W62018  15.770  28.407   6.845  0.4442 -0.0747 -0.4432
    1W        W62019   4.082   0.320   1.767  0.0342 -0.0317  0.3914
    1W        W62020  11.501   7.047   1.175  0.1886  0.0636  0.1676
    1W        W62021  20.578  19.418   1.832 -0.1962 -0.1606 -0.1425
    1W        W62022   6.915  23.469   6.172 -0.2358  0.1958  0.1931
    1W        W62023  26.391  23.283   2.767 -0.3773 -0.0318 -0.1652
    1W        W62024  13.677  23.750   7.556  0.3729  0.1608 -0.1095
    1W        W62025   0.222   6.525   7.683  0.1666 -0.2927 -0.0611
    1W        W62026   5.850  29.557   7.349 -0.0853  0.3866  0.1258
    1W        W62027  14.827  10.701   1.882 -0.0393 -0.2760 -0.0998
    1W        W62028  26.060   5.916   8.362  0.1275  0.0177 -0.2038
    1W        W62029   9.996   7.759   0.745 -0.0193  0.1054  0.1620
    1W        W62030  15.933  21.406   1.232 -0.2082 -0.0090 -0.0107
    1W        W62031  29.180   5.741   7.056  0.0160 -0.1456  0.2231
    1W        W62032  28.987   7.079   7.127  0.1830 -0.0517 -0.1219
    1W        W62033  26.845  26.111   0.407 -0.0910  0.1788  0.3237
    1W        W62034   5.165  26.286   1.266 -0.1341  0.2212  0.1200
    1W        W62035   8.491  17.944   1.311 -0.2826 -0.1516 -0.3863
    1W        W62036  18.707   4.064   2.009 -0.4546  0.0009 -0.0733
    1W        W62037   3.434  26.975   6.560 -0.1997  0.1277  0.0014
    1W        W62038  20.415   7.268   9.195 -0.0191  0.1245 -0.0930
    1W        W62039   2.731  24.751   2.725 -0.0299 -0.0665  0.5268
    1W        W62040  19.925  19.116   8.889 -0.1954 -0.2482  0.1052
    1W        W62041   4.193   1.182   7.728  0.0596 -0.1851 -0.0858
    1W        W62042  19.022   6.922   2.898 -0.1954 -0.2600 -0.4181
    1W        W62043  17.468   2.804   7.912  0.2179  0.0856 -0.0823
    1W        W62044  20.832   8.290   6.947 -0.1970 -0.0741 -0.3658
    1W        W62045  24.677  16.281   4.520  0.0585 -0.0012 -0.1152
    1W        W62046  20.946  11.818   0.816 -0.2349 -0.1395 -0.1214
    1W        W62047   7.737  14.825   7.944 -0.0421  0.0452  0.0919
    1W        W62048  16.964  18.220   7.090 -0.1910 -0.3359 -0.0274
    1W        W62049   8.129  15.300   7.115 -0.0533 -0.0769 -0.1177
    1W        W62050  12.785  10.927   1.605 -0.2041 -0.0072 -0.2146
    1W        W62051   3.727  17.998   8.838 -0.0509  0.1169  0.0536
    1W        W62052   8.629   5.324   7.314  0.0683 -0.0740  0.2735
    1W        W62053  27.743  12.746   0.418 -0.2469  0.1661  0.0242
    1W        W62054  23.204  17.987   6.394  0.1183  0.1170  0.2656
    1W        W62055   9.580  21.833   1.222 -0.1690 -0.0497 -0.3068
    1W        W62056   1.968  11.030   6.922  0.3524  0.0368  0.4387
    1W        W62057  12.485  24.554   7.289 -0.0186 -0.1854  0.0785
    1W        W62058  20.792  12.161   1.758  0.2795 -0.1699  0.0266
    1W        W62059  26.257   3.757   0.253 -0.3369  0.1931  0.1624
    1W        W62060  26.828   1.425   0.792  0.0853  0.1637  0.0934
    1W        W62061   2.682  25.078   7.619  0.0594 -0.0833  0.2806
    1W        W62062  23.038  13.957   0.615  0.3428 -0.0519 -0.0478
    1W        W62063   6.268   3.468   4.198 -0.0980 -0.1485 -0.1621
    1W        W62064  19.822  20.298   7.219  0.1721 -0.0963  0.1103
    1W        W62065   2.337  27.955   6.700  0.2125 -0.1445 -0.1824
    1W        W62066  26.026   5.560   0.170  0.1257  0.2971  0.0161
    1W        W62067  24.531  25.616   2.148 -0.0459 -0.1057  0.1431
    1W        W62068  18.777  22.646   1.666 -0.1553 -0.1048 -0.1008
    1W        W62069  23.514   2.523   3.156  0.3858 -0.0012  0.2342
    1W        W62070  24.472   9.463   2.809  0.1971  0.2293 -0.2349
    1W        W62071  19.597  20.796   0.051 -0.0581  0.1305 -0.0714
    1W        W62072  24.736  21.489   9.351  0.0033 -0.1439 -0.2325
    1W        W62073   5.752  14.561   9.383  0.1147  0.2168  0.1237
    1W        W62074   4.989  21.435   9.468 -0.4279  0.2141 -0.0684
    1W        W62075  20.869   4.907   0.055 -0.0684 -0.1129 -0.3131
    1W        W62076  23.969  14.577   0.285  0.0786  0.0120 -0.0696
    1W        W62077  14.240   8.843   3.106  0.1675  0.1855  0.1596
    1W        W62078  22.314  23.109   7.352  0.3846  0.0194  0.1620
    1W        W62079  27.331  27.936   2.968 -0.1829 -0.0908 -0.0190
    1W        W62080   1.726  15.932   2.186  0.0765 -0.0941  0.1392
    1W        W62081   3.055  18.583   1.832  0.2512 -0.1687  0.0844
    1W        W62082  21.766   7.196   0.902 -0.0842 -0.1615 -0.0635
    1W        W62083  15.777  10.345   1.999  0.1064 -0.1613  0.1768
    1W        W62084  16.440  28.755   1.672 -0.3977  0.0172 -0.0519
    1W        W62085   9.871  13.958   1.962  0.2470 -0.0307 -0.1243
    1W        W62086  19.894  17.624   8.448 -0.1950  0.0590 -0.0379
    1W        W62087  25.084  15.158   7.275 -0.2706 -0.1432  0.2795
    1W        W62088  22.499  26.382   8.239 -0.0310 -0.2231  0.0906
    1W        W62089   3.163   5.570   0.571 -0.0409 -0.0969  0.1402
    1W        W62090  26.718   6.301   7.559  0.0797  0.0156 -0.1338
    1W        W62091  29.296  15.807   6.883  0.0239 -0.3432  0.2905
    1W        W62092  28.677   3.571   7.265 -0.0130 -0.0016  0.2979
    1W        W62093  13.573  19.778   9.169 -0.4842  0.0734  0.1043
    1W        W62094   4.218  11.940   7.721  0.2233 -0.0143  0.2081
    1W        W62095  19.668   7.912   0.555  0.0036  0.0350  0.1030
    1W        W62096  23.749   1.432   0.382  0.1138  0.2758  0.0415
    1W        W62097   3.008  19.871   8.977  0.4652  0.1792 -0.0563
    1W        W62098  22.402  26.594   0.441 -0.5736 -0.1633  0.0170
    1W        W62099  12.042   6.224   6.913  0.1264 -0.1176 -0.2006
    1W        W62100  26.986  18.776   7.670 -0.0840  0.0022 -0.1055
    1W        W62101   6.925   2.748   3.986 -0.1753  0.0479 -0.0728
    1W        W62102   9.747  17.147   7.232 -0.3797  0.0168  0.1051
    1W        W62103  15.571   2.677   1.705  0.0379 -0.1778 -0.1149
    1W        W62104  21.122  18.219   6.933  0.0914 -0.0210 -0.2849
    1W        W62105   2.473  20.972   7.856  0.0347 -0.1573  0.2729
    1W        W62106  20.054  17.565   0.716  0.0651 -0.2414  0.0806
    1W        W62107  22.471  15.814   1.407 -0.3713  0.0394 -0.4508
    1W        W62108   5.049  27.845   7.338 -0.1811 -0.1915  0.0614
    1W        W62109  20.200  11.893   9.266 -0.1066 -0.2109 -0.1151
    1W        W62110  11.827   1.298   1.545  0.0121 -0.1648 -0.0670
    1W        W62111   3.924   6.423   8.268 -0.0948 -0.1414  0.0092
    1W        W62112  19.324  10.285   0.509  0.0811 -0.2594 -0.0448
    1W        W62113  27.386  11.878   7.116  0.0070  0.0667  0.0386
    1W        W62114   3.223  15.298   1.320  0.0278  0.4032  0.2519
    1W        W62115  23.664   7.093   7.981 -0.0099 -0.2596  0.1714
    1W        W62116  14.039  21.541   1.498 -0.1363 -0.0352 -0.2605
    1W        W62117  23.414  22.966   8.560 -0.1590 -0.0609 -0.0671
    1W        W62118   8.784   1.912   0.476  0.1741  0.2309 -0.1383
    1W        W62119  25.951  12.737   7.126 -0.3653  0.1949  0.0735
    1W        W62120   1.635  13.798   2.051  0.0983  0.0456 -0.1150
    1W        W62121  28.679  24.624   0.213 -0.0454 -0.0575  0.1882
    1W        W62122  12.924  17.739   8.876  0.0387 -0.1593  0.1937
    1W        W62123  15.394  10.633   8.089  0.0430 -0.2426 -0.2698
    1W        W62124  25.323  20.282   7.738 -0.1326 -0.5124  0.0097
    1W        W62125  11.167   1.210   2.305 -0.0280 -0.1019 -0.0476
    1W        W62126  15.355   1.121   1.143 -0.2053  0.0358 -0.0218
    1W        W62127  15.365   3.527   7.184 -0.0837  0.1502  0.0598
    1W        W62128   4.085  27.242   8.927 -0.0724  0.1302 -0.1947
    1W        W62129   2.451   7.359   7.386 -0.0357  0.2908  0.4734
    1W        W62130  13.745  12.898   2.226  0.1102  0.0847 -0.3045
    1W        W62131   2.904  19.811   9.514 -0.0631 -0.1704 -0.0926
    1W        W62132  11.693   6.783   1.626  0.2342 -0.0102 -0.2263
    1W        W62133   7.845   2.278   0.856 -0.0239  0.0666 -0.0472
    1W        W62134  19.267  14.929   8.399 -0.0086 -0.3734 -0.1031
    1W        W62135   8.447   4.799   1.339 -0.0727  0.1340  0.0342
    1W        W62136  22.813  18.054   9.142 -0.2057 -0.0541 -0.0505
    1W        W62137  14.403  18.048   8.706  0.1586  0.0519  0.1906
    1W        W62138  10.880  19.981   7.684  0.2347  0.1085 -0.1386
    1W        W62139   7.384   2.166   2.332  0.0494 -0.1534 -0.1143
    1W        W62140   2.694   6.273   2.343  0.1948  0.0892 -0.1966
    1W        W62141  24.900  15.858   6.264  0.1256  0.1315 -0.0313
    1W        W62142  15.401   8.380   0.700 -0.1500  0.2595  0.4173
    1W        W62143  14.172   3.276   2.083  0.0225 -0.2417  0.1439
    1W        W62144   5.812  19.898   8.760 -0.0634 -0.0772 -0.1084
    1W        W62145  10.640  20.362   7.497  0.2354 -0.2582  0.1115
    1W        W62146  17.819   5.978   0.991  0.1799 -0.2871  0.1362
    1W        W62147  26.658  15.843   6.797 -0.0020  0.0513  0.1177
    1W        W62148  10.960  26.974   8.529  0.3488  0.1753 -0.0855
    1W        W62149  13.803  20.502   8.058  0.1291  0.1151  0.0770
    1W        W62150  20.634  24.284   8.487 -0.3822 -0.0975 -0.0007
    1W        W62151  20.315  28.306   8.164  0.0930 -0.2989 -0.0085
    1W        W62152  17.275  25.335   7.420  0.1592 -0.0188  0.0489
    1W        W62153   9.058  14.554   8.257  0.0897  0.1228 -0.0935
    1W        W62154  11.381  22.693   2.594  0.1276  0.1586  0.3296
    1W        W62155  28.574  26.789   1.699 -0.0398  0.1925  0.0865
    1W        W62156  26.120   6.379   1.993 -0.0865  0.0734 -0.3979
    1W        W62157  27.060  22.960   8.100  0.3480  0.1056 -0.0500
    1W        W62158  13.655  11.256   1.002 -0.1331 -0.0753 -0.0871
    1W        W62159  12.848  19.038   9.027 -0.0027 -0.1869 -0.1497
    1W        W62160  20.527  21.982   9.489 -0.0722  0.0411 -0.2899
    1W        W62161  20.562  28.803   9.271  0.0647  0.3108  0.2067
    1W        W62162  22.725  23.387   5.940 -0.0214 -0.1426  0.2456
    1W        W62163  29.244  17.390   0.907  0.2563  0.2865 -0.0999
    1W        W62164   2.636  26.700   7.085  0.0226  0.1385  0.0856
    1W        W62165  13.426  25.676   2.110 -0.1133  0.0842 -0.4902
    1W        W62166  20.824  18.989   1.785 -0.1323 -0.2839  0.4683
    1W        W62167   5.021   9.604   0.202 -0.3021 -0.1473 -0.0737
    1W        W62168  20.308  10.124   1.963  0.3200 -0.1392 -0.1063
    1W        W62169  10.687   1.571   6.837  0.2920  0.0088 -0.0106
    1W        W62170  19.468   7.723   8.316 -0.1619 -0.2138 -0.1062
    1W        W62171  17.425  20.517   9.380  0.4224 -0.0062 -0.3126
    1W        W62172  19.825   3.173   9.531  0.3160 -0.0287 -0.1392
    1W        W62173  26.473  28.806   1.956 -0.1157  0.0635  0.1001
    1W        W62174   1.110  10.156   1.214  0.0882 -0.1650  0.2316
    1W        W62175   5.746  28.322   8.453  0.1632  0.0245 -0.1679
    1W        W62176  17.811  24.183   2.523 -0.0265 -0.1152 -0.1158
    1W        W62177  19.572  13.840   8.226 -0.0024 -0.1194  0.1985
    1W        W62178  13.684   6.225   7.625 -0.3407  0.3470 -0.0057
    1W        W62179  19.004  20.389   2.569  0.1760  0.2514  0.2326
    1W        W62180   4.068  28.690   1.892 -0.0926  0.1400 -0.0721
    1W        W62181  21.599  10.001   7.716  0.2852 -0.2068 -0.0840
    1W        W62182  28.713  14.252   8.544  0.1837  0.0680 -0.1070
    1W        W62183  28.173  28.324   2.533 -0.1582 -0.0147 -0.2603
    1W        W62184  15.077  26.132   0.954  0.2140 -0.0418 -0.1994
    1W        W62185  23.146  28.763   0.357 -0.0237  0.4634  0.2828
    1W        W62186  19.898  10.147   1.644 -0.0224 -0.0368 -0.0247
    1W        W62187  22.767  20.184   7.411 -0.1017 -0.1001  0.2125
    1W        W62188  17.965  26.207   2.348  0.1123 -0.0452 -0.2966
    1W        W62189  11.648  23.980   2.204 -0.0129 -0.0933 -0.1881
    1W        W62190  26.249   8.687   6.346 -0.2207  0.0536 -0.2213
    1W        W62191  12.568   7.697   8.793 -0.0870  0.1070  0.0557
    1W        W62192   7.376  12.903   9.371 -0.1138  0.1524 -0.0032
    1W        W62193   2.186  14.350   9.251  0.6124  0.2550  0.1274
    1W        W62194  16.101  21.163   0.310 -0.1968  0.0575  0.2394
    1W        W62195  11.139  17.605   8.634  0.3927 -0.1301  0.1660
    1W        W62196  25.571   1.893   3.034  0.2106 -0.2877  0.0823
    1W        W62197  19.396   6.532   0.778 -0.3981 -0.3939 -0.2356
    1W        W62198  17.821   7.254   7.230  0.2082 -0.1328  0.3297
    1W        W62199  25.803  26.130   0.245  0.0316 -0.1534  0.0814
    1W        W62200  11.273   5.945   7.465  0.1410  0.0818 -0.0937
    1W        W62201   2.906  27.289   0.708 -0.0507 -0.0273 -0.1501
    1W        W62202  20.473  26.430   2.321 -0.1586  0.1593  0.0268
    1W        W62203   0.517   2.872   7.755  0.1592 -0.0347  0.1391
    1W        W62204  26.200   4.189   1.096  0.0541  0.0892 -0.0482
    1W        W62205  24.441  24.404   8.063 -0.1158  0.1492  0.0934
    1W        W62206  21.616  18.202   7.131  0.1339  0.1379  0.1692
    1W        W62207   8.278  17.406   1.066 -0.0927  0.0645  0.2067
    1W        W62208   4.637   9.054   2.329  0.0795  0.1725  0.0089
    1W        W62209   8.121  24.245   1.217 -0.0765 -0.3602  0.0076
    1W        W62210   1.773   5.151   8.221  0.0973 -0.0375  0.2206
    1W        W62211  22.266  27.267   7.813  0.0877 -0.0400 -0.1101
    1W        W62212  29.441  25.668   7.020  0.2001 -0.2166  0.1103
    1W        W62213  24.936   9.484   5.708 -0.0058  0.2238 -0.0700
    1W        W62214   5.718   2.477   2.569  0.0548  0.1783 -0.1553
    1W        W62215  21.517  23.348   0.887 -0.1186  0.0831 -0.1269
    1W        W62216  17.271   8.586   8.029 -0.1456 -0.0439  0.4276
    1W        W62217   3.501  21.122   7.837  0.0632  0.0353 -0.0928
    1W        W62218  23.101  11.640   6.302  0.0107  0.0859 -0.2830
    1W        W62219  14.966  17.200   8.700  0.0570  0.4493  0.1008
    1W        W62220  11.745  10.803   6.425 -0.4317 -0.0322  0.1452
    1W        W62221   9.060  26.629   6.505 -0.1301  0.2240 -0.3824
    1W        W62222   2.939  11.843   0.330  0.0557 -0.1210 -0.0327
    1W        W62223  13.111   0.002   0.975 -0.1420  0.0829 -0.2813
    1W        W62224  25.131  29.193   2.585  0.0051 -0.1022  0.0640
    1W        W62225   2.966  17.013   7.508  0.0713 -0.1076 -0.3552
    1W        W62226   4.884  12.156   9.461  0.2036  0.1646  0.0929
    1W        W62227   3.002   0.860   1.162  0.1283  0.0179  0.1404
    1W        W62228   2.522  22.020   2.812 -0.1941  0.1269 -0.1397
    1W        W62229   3.253  24.674   0.479  0.1124  0.1572 -0.0959
    1W        W62230  23.362  12.705   6.718 -0.1356  0.0304  0.0654
    1W        W62231  16.001  21.439   7.604  0.0253 -0.0147  0.0388
    1W        W62232   3.117   7.386   2.546  0.0432 -0.0428  0.0512
    1W        W62233  29.728  27.107   8.513  0.2560 -0.0925 -0.1871
    1W        W62234   0.176  21.197   0.816  0.1511 -0.2124  0.2668
    1W        W62235  25.131   6.174   3.676  0.0390  0.0042  0.0543
    1W        W62236  22.384   5.488   1.448 -0.1031 -0.2028 -0.0340
    1W        W62237  15.225   1.694   0.282  0.0604  0.0727  0.1331
    1W        W62238  12.654   3.226   2.980 -0.0033 -0.3483  0.0142
    1W        W62239  17.822   5.821   1.694 -0.2420  0.0397  0.0518
    1W        W62240   6.206   9.551   7.009 -0.0702  0.3668 -0.2187
    1W        W62241   5.874   8.508   0.758 -0.1415  0.2045 -0.0012
    1W        W62242  18.868   8.011   3.044 -0.3339  0.2877 -0.0371
    1W        W62243  27.638   9.039   6.921 -0.3401  0.3108 -0.0167
    1W        W62244   2.071  19.065   7.405  0.0761  0.0736  0.1803
    1W        W62245   0.044  22.816   2.491  0.0179  0.2195  0.2079
    1W        W62246  16.086   9.820   6.972 -0.1934 -0.3946 -0.1134
    1W        W62247   5.916   4.921   0.238  0.2302 -0.4698  0.0263
    1W        W62248  18.179  28.375   8.992 -0.1783 -0.2166  0.0820
    1W        W62249   0.821  25.597   6.836  0.2556 -0.3516  0.2439
    1W        W62250   2.350  14.996   1.560  0.1748 -0.4330  0.0039
    1W        W62251   0.489  17.026   9.381  0.0622 -0.1702 -0.0135
    1W        W62252  27.043   2.113   3.171 -0.3490  0.1433  0.4257
    1W        W62253  14.640  24.280   9.043 -0.1215 -0.0259 -0.0355
    1W        W62254  14.796   1.047   8.515 -0.0440  0.0569 -0.0020
    1W        W62255   2.615  25.110   1.150  0.1677 -0.0784 -0.0889
    1W        W62256  27.253  15.402   8.906 -0.1722  0.0702 -0.1426
    1W        W62257   0.194  17.845   0.797  0.0742 -0.1148  0.0160
    1W        W62258   9.557  19.942   9.188  0.1208  0.3378  0.2011
    1W        W62259  21.694  20.363   0.095 -0.2860  0.1870 -0.2147
    1W        W62260   2.544  14.913   2.019  0.0616 -0.3637  0.1264
    1W        W62261  10.042  28.940   1.132  0.1957  0.1277  0.1017
    1W        W62262  29.454  16.893   8.354  0.0689 -0.1800  0.1114
    1W        W62263  12.985  13.330   1.511  0.0376 -0.1368 -0.2273
    1W        W62264   1.671   8.573   9.004  0.1816  0.1048  0.2202
    1W        W62265   6.181  17.146   0.045  0.0584  0.0685  0.1197
    1W        W62266   6.778  26.883   2.461 -0.1210 -0.0539  0.1515
    1W        W62267  19.663   7.531   2.685  0.0703  0.5442 -0.0995
    1W        W62268  24.571   0.978   9.453 -0.0782 -0.0563 -0.0845
    1W        W62269  22.501  22.497   0.473  0.1039 -0.2875 -0.0723
    1W        W62270   8.164  22.644   7.892  0.0031  0.0744  0.1889
    1W        W62271   6.749  13.133   0.104  0.0430 -0.1951  0.1399
    1W        W62272  19.204  27.219   1.833  0.2570  0.0391 -0.2437
    1W        W62273  28.140   1.275   3.118 -0.0394 -0.0499 -0.0383
    1W        W62274  16.969  27.470   8.448 -0.1279 -0.0478  0.0652
    1W        W62275  11.885   9.878   9.341 -0.1485 -0.1093 -0.0320
    1W        W62276  19.972  19.563   1.832 -0.0328 -0.0241  0.0179
    1W        W62277  15.096  17.594   8.314 -0.2079  0.0813 -0.0927
    1W        W62278   4.992  11.982   8.451 -0.0957 -0.3012 -0.1024
    1W        W62279   3.326  28.425   1.735 -0.1170  0.1753  0.0035
    1W        W62280  13.646  10.182   8.705 -0.3739  0.0118  0.2458
    1W        W62281  27.893  22.086   6.400 -0.1907 -0.1258 -0.4922
    1W        W62282   2.327  20.517   1.638 -0.2399  0.0246 -0.2946
    1W        W62283  20.233   4.968   3.350 -0.3386 -0.0365  0.0096
    1W        W62284  13.454  11.178   9.016  0.2235 -0.2947  0.0572
    1W        W62285  21.523  28.706   0.579 -0.0731 -0.2473 -0.0391
    1W        W62286  29.377  14.781   8.168 -0.1185  0.0387 -0.0067
    1W        W62287  22.304  16.355   7.309 -0.0849 -0.1188 -0.1485
    1W        W62288  24.297  23.223   1.931  0.2004  0.0269 -0.0695
    1W        W62289  16.350  28.442   7.441  0.0812 -0.0592 -0.0807
    1W        W62290  27.234   4.864   1.698  0.1062  0.1225 -0.2041
    1W        W62291  18.106  28.037   9.402 -0.0726  0.1278  0.2970
    1W        W62292  12.567  20.267   0.279 -0.2074  0.1976 -0.1750
    1W        W62293  19.139  21.852   2.169 -0.3793  0.0659  0.4535
    1W        W62294  12.450  25.447   8.520 -0.2893 -0.1298 -0.4139
    1W        W62295  11.713   5.541   8.211  0.1376  0.0112  0.0870
    1W        W62296  17.922  11.195   2.198 -0.1031 -0.0690 -0.3466
    1W        W62297   5.098   9.939   9.325  0.0344  0.0712 -0.2282
    1W        W62298  14.645  23.347   6.898 -0.0778  0.1369 -0.3976
    1W        W62299   0.599  27.279   7.986  0.0798 -0.0697 -0.2032
    1W        W62300   7.670  22.514   1.900 -0.3367  0.1435  0.3237
    1W        W62301   6.816  22.392   6.844 -0.1734  0.0444  0.1932
    1W        W62302  28.625  25.644   1.465 -0.1414 -0.3360  0.1729
    1W        W62303  21.387  26.980   3.486  0.2878  0.0194  0.1824
    1W        W62304   9.466  13.014   1.303 -0.0538  0.3177 -0.0301
    1W        W62305  13.120  24.902   3.042 -0.0611 -0.0105  0.2650
    1W        W62306  11.462   8.472   7.781 -0.2157  0.0387  0.1106
    1W        W62307  10.844   4.250   7.233  0.0213 -0.3486 -0.1578
    1W        W62308  11.070  27.302   0.807  0.0228  0.1150 -0.0633
    1W        W62309   6.241   4.888   9.372 -0.1398  0.0930  0.1327
    1W        W62310   1.347   6.058   6.216 -0.0321 -0.0004 -0.1209
    1W        W62311  11.039  29.271   0.839 -0.1472 -0.4582 -0.0663
    1W        W62312  10.365  27.783   3.254  0.0708  0.0604  0.0378
    1W        W62313  24.599  25.868   0.698 -0.0402 -0.1856  0.1022
    1W        W62314   1.876   7.063   6.745  0.1224 -0.0167  0.2723
    1W        W62315  18.785  11.053   1.800 -0.0272 -0.1912  0.0150
    1W        W62316  23.579  23.784   9.296 -0.2421  0.0069  0.3538
    1W        W62317  10.768  21.225   7.408  0.0762  0.1675 -0.1017
    1W        W62318   9.418  13.033   0.803 -0.0498 -0.3139 -0.0016
    1W        W62319   9.052  13.419   8.126 -0.0947  0.0414 -0.0757
    1W        W62320  17.640  17.932   6.567 -0.1229  0.1481  0.2581
    1W        W62321  21.342   6.728   7.683 -0.0044 -0.0997  0.1429
    1W        W62322  12.448   1.843   2.549  0.0953 -0.0681  0.2774
    1W        W62323  27.598   5.910   7.708 -0.0478  0.2296  0.1351
    1W        W62324   3.202  17.352   2.126 -0.0409 -0.1841 -0.0381
    1W        W62325  16.063  28.743   6.982  0.0048  0.3529  0.3743
    1W        W62326  13.094   2.438   0.669 -0.0691 -0.1813  0.0448
    1W        W62327  15.081  27.359   6.820  0.0828  0.3898 -0.2221
    1W        W62328   8.736   9.403   7.994 -0.3789  0.2820 -0.0877
    1W        W62329  13.817  26.754   0.585  0.0158  0.0629 -0.0178
    1W        W62330  13.190  20.624   2.937  0.1598  0.0020  0.1555
    1W        W62331  14.460   3.473   9.232  0.1278  0.0849 -0.1079
    1W        W62332   8.092  23.910   8.876 -0.1251 -0.0302  0.1068
    1W        W62333   9.230   0.257   6.903  0.0238  0.1208  0.0421
    1W        W62334   3.705   4.248   1.741 -0.0110 -0.4066  0.1867
    1W        W62335  22.372  16.296   8.668 -0.1322 -0.1464 -0.5496
    1W        W62336  27.461  11.541   0.392 -0.1621  0.1416  0.0313
    1W        W62337  22.924   2.596   2.265 -0.2764  0.0705  0.0747
    1W        W62338   3.841  19.106   8.181 -0.1835  0.0499  0.0115
    1W        W62339   8.031  26.382   0.312  0.1748 -0.2611  0.1791
    1W        W62340   6.299  21.126   8.588 -0.0459 -0.0236 -0.0642
    1W        W62341   4.078  27.715   2.265  0.0517  0.2845 -0.2641
    1W        W62342  12.962   3.768   3.690 -0.1694 -0.2694  0.1342
    1W        W62343  28.272   7.747   8.993  0.0056 -0.0561 -0.0484
    1W        W62344   4.330   7.163   3.070  0.0099 -0.1776  0.0860
    1W        W62345   3.737  29.797   7.368  0.2014 -0.0248 -0.1899
    1W        W62346  17.094  24.244   1.942  0.0987 -0.0269 -0.2485
    1W        W62347   7.582   8.082   7.571  0.1014 -0.1465 -0.1769
    1W        W62348   7.835  22.730   2.315 -0.0061 -0.2420 -0.3539
    1W        W62349   6.733  28.080   6.718 -0.1494  0.0151 -0.2096
    1W        W62350  27.132   9.008   6.038 -0.3310 -0.0145 -0.1245
    1W        W62351  22.731   2.754   9.079 -0.1422 -0.3083 -0.0037
    1W        W62352  19.541   1.485   7.307 -0.0441  0.1142  0.1009
    1W        W62353  19.656   1.716   2.784 -0.2494  0.0466  0.0266
    1W        W62354   9.849   8.611   1.157 -0.1470  0.2488  0.0627
    1W        W62355  17.856  21.638   7.421 -0.1004 -0.2249 -0.0571
    1W        W62356  21.639  17.795   1.645  0.1043  0.0507 -0.0321
    1W        W62357  15.149   4.970   8.829  0.1154 -0.0467  0.1514
    1W        W62358  19.822  21.390   1.794  0.0612 -0.4410  0.3638
    1W        W62359   6.150  28.771   1.244  0.1084  0.2691 -0.1066
    1W        W62360   6.798   5.447   1.032  0.0331 -0.0818  0.3456
    1W        W62361  24.175  26.682   8.445  0.3399 -0.1647  0.0120
    1W        W62362  19.438  21.666   6.689  0.0147  0.4256 -0.0307
    1W        W62363   6.598  12.633   8.943  0.0530  0.0586 -0.2693
    1W        W62364  29.533  25.571   2.460 -0.0146  0.1233 -0.2157
    1W        W62365   4.484  17.035   0.310  0.1685  0.2614 -0.1420
    1W        W62366  26.135  11.070   9.542 -0.0323  0.1251  0.0506
    1W        W62367   2.210   5.518   3.325 -0.1953  0.1352 -0.0441
    1W        W62368  15.986  12.296   1.477 -0.1834 -0.1377  0.0228
    1W        W62369  11.708  22.346   2.756  0.1830  0.4583 -0.0869
    1W        W62370  24.650  17.310   8.623 -0.1978  0.0317  0.0899
    1W        W62371  13.512   9.796   7.568 -0.0714  0.1607 -0.1558
    1W        W62372  29.080   5.616   9.166  0.0066  0.1989 -0.2511
    1W        W62373  10.764  23.542   7.051  0.2674  0.1866 -0.0533
    1W        W62374   9.127  11.737   7.551 -0.1420  0.0198 -0.0551
    1W        W62375   3.179  28.127   8.113  0.0364  0.2320  0.1487
    1W        W62376  14.875  23.513   2.043  0.0885 -0.0024 -0.1846
    1W        W62377   0.516   5.959   9.316  0.0836 -0.0237 -0.0172
    1W        W62378  18.876  17.909   1.001 -0.4087 -0.0230 -0.0422
    1W        W62379   4.698  27.785   6.906  0.0444 -0.0303 -0.1567
    1W        W62380   2.969  27.259   0.194 -0.0496 -0.4945 -0.0164
    1W        W62381  21.246   5.037   0.459  0.0428 -0.0208 -0.3940
    1W        W62382  24.431  29.085   8.666 -0.3967  0.0432 -0.0224
    1W        W62383   3.523  23.706   7.224  0.1975  0.0572  0.0566
    1W        W62384  17.236   8.877   7.372  0.0045 -0.1216  0.0567
    1W        W62385  22.689   3.784   2.979 -0.0170  0.0412 -0.3207
    1W        W62386  17.028  19.739   8.083 -0.1575 -0.1199 -0.1904
    1W        W62387   5.958   9.995   7.096 -0.1590  0.0347 -0.1116
    1W        W62388  29.302  22.700   9.470  0.1395  0.1335  0.2964
    1W        W62389  18.943   4.891   7.908 -0.0515  0.1933  0.1449
    1W        W62390  24.047  20.695   7.199  0.0446 -0.1876  0.0564
    1W        W62391  24.805  22.945   9.069  0.2395 -0.1673  0.0341
    1W        W62392  14.293  29.741   8.257  0.0496 -0.0348 -0.0552
    1W        W62393   1.846  26.642   0.254 -0.3008 -0.1873 -0.2141
    1W        W62394   0.644  15.691   1.418 -0.0046 -0.4267  0.2475
    1W        W62395  29.519  18.936   9.466  0.0122 -0.4270 -0.2198
    1W        W62396  20.495  19.781   7.058  0.0387  0.0673  0.1807
    1W        W62397  12.494   1.070   7.614  0.2814  0.3032 -0.2120
    1W        W62398  24.782  22.695   7.178  0.1270  0.1690 -0.2012
    1W        W62399  14.354  25.196   7.879 -0.1010  0.2767  0.1718
    1W        W62400   6.205  20.569   7.705  0.0847  0.0773  0.1419
    1W        W62401  21.060   6.447   1.097  0.1046  0.0580 -0.0370
    1W        W62402  13.245  25.629   2.666 -0.2067 -0.2098 -0.2066
    1W        W62403   6.268  28.355   8.344 -0.0913 -0.2638 -0.0602
    1W        W62404  25.272  18.158   5.925  0.0675  0.0285  0.1512
    1W        W62405  18.940  12.385   1.244  0.1662 -0.0132 -0.3003
    1W        W62406   1.674   6.100   2.223  0.0665  0.2641  0.0454
    1W        W62407  14.699  13.115   0.784  0.1082 -0.0379 -0.0201
    1W        W62408  22.387  25.493   8.581 -0.0036  0.0432  0.1422
    1W        W62409  28.551   0.186   0.091 -0.0915 -0.0357  0.0022
    1W        W62410   0.765  13.664   0.643 -0.2294 -0.2217 -0.0019
    1W        W62411  17.946   2.127   7.402 -0.3278 -0.1857 -0.2086
    1W        W62412   0.483  15.699   0.867 -0.1787 -0.0963 -0.0055
    1W        W62413  28.887  25.679   6.874  0.0104 -0.3813  0.1873
    1W        W62414   5.425   9.653   1.516  0.1400  0.1138 -0.0122
    1W        W62415  11.832  28.948   9.495  0.2356 -0.0905  0.0072
    1W        W62416   7.801  26.021   1.786 -0.0394 -0.2599  0.0939
    1W        W62417  18.956  29.459   9.377  0.2201  0.0402  0.1953
    1W        W62418   8.504  15.393   8.538 -0.2120  0.1103 -0.0671
    1W        W62419   8.862   9.792   2.181  0.3134  0.0681 -0.0129
    1W        W62420  15.172  28.807   1.703 -0.0918  0.1035 -0.1892
    1W        W62421  20.829  29.041   0.924  0.1547 -0.3256  0.1512
    1W        W62422   0.382  29.318   9.207 -0.4422 -0.0989 -0.0437
    1W        W62423  26.029   3.291   0.460 -0.0491  0.0160 -0.0580
    1W        W62424  29.635  17.544   0.525 -0.1235  0.0308  0.2215
    1W        W62425  26.107   9.417   7.765 -0.1189 -0.0788  0.4778
    1W        W62426   9.733  11.431   8.755 -0.2997 -0.0490 -0.2390
    1W        W62427   2.918  17.432   6.722  0.3823  0.1000 -0.1640
    1W        W62428  28.663  13.010   9.340 -0.2222  0.0087  0.1134
    1W        W62429   0.578  13.798   0.110 -0.1735 -0.1263 -0.1189
    1W        W62430  15.375  13.776   8.408 -0.3090 -0.2097 -0.1826
    1W        W62431   0.383  28.215   7.585 -0.0684 -0.3491 -0.0790
    1W        W62432  20.597  20.121   6.636 -0.2074  0.0688  0.1449
    1W        W62433  26.442  22.175   2.381 -0.0809 -0.0190 -0.0733
    1W        W62434  13.930   1.078   2.252  0.0314  0.0635 -0.0480
    1W        W62435   4.158  16.743   7.025 -0.1737  0.1233  0.0360
    1W        W62436  27.912   2.699   1.605  0.0805 -0.4105 -0.0645
    1W        W62437  12.010  20.314   7.144  0.0721  0.0255  0.0093
    1W        W62438  27.912  21.031   0.703 -0.2098  0.0618  0.0145
    1W        W62439   6.323  21.606   2.035 -0.0965  0.1377  0.0876
    1W        W62440  12.398  26.741   2.998  0.0076  0.1521  0.2595
    1W        W62441   0.710  13.598   2.341  0.3185  0.1566  0.0815
    1W        W62442  29.755  22.040   1.485  0.0030 -0.0980  0.0173
    1W        W62443   1.148  25.704   9.283 -0.1973 -0.0649 -0.3415
    1W        W62444  26.363  24.992   2.905 -0.1392 -0.2772  0.1528
    1W        W62445  23.100   5.909   1.148 -0.1521 -0.0580  0.0406
    1W        W62446  17.568  28.156   0.119  0.2251 -0.1980 -0.1184
    1W        W62447  14.674   6.937   0.562  0.1630  0.2009  0.0892
    1W        W62448  25.186   4.553   0.298  0.1009 -0.2324 -0.2474
    1W        W62449  28.178  27.393   0.384  0.1224  0.1302  0.1801
    1W        W62450  14.936  20.255   1.397  0.0659 -0.0682  0.2251
    1W        W62451  21.985   5.023   2.748  0.1928 -0.1484 -0.1138
    1W        W62452  14.807  19.708   7.757  0.2038 -0.1264  0.2385
    1W        W62453  20.339  13.945   7.127  0.2133  0.2899  0.0252
    1W        W62454   0.004   0.349   7.825  0.4882 -0.1331  0.1282
    1W        W62455   6.778  24.612   1.681 -0.3653 -0.0127  0.0255
    1W        W62456   3.953   4.699   8.436  0.1580  0.3510 -0.1244
    1W        W62457  17.161  27.765   2.544  0.0307  0.3881  0.0255
    1W        W62458  15.429   8.217   2.976 -0.1918 -0.0965 -0.0033
    1W        W62459  11.512   4.016   8.971  0.0249 -0.1052  0.1360
    1W        W62460  21.737   7.670   0.951  0.0027 -0.2249  0.0669
    1W        W62461   6.577   1.516   0.241  0.5229 -0.0709  0.1036
    1W        W62462  21.096  20.580   8.743  0.3481 -0.0941  0.0209
    1W        W62463  16.062  16.584   9.244  0.0458 -0.2301 -0.0581
    1W        W62464   1.743   8.126   8.625  0.1864  0.0114  0.0151
    1W        W62465  27.335  11.617   1.796  0.1847  0.0904 -0.2823
    1W        W62466   4.722  29.266   8.266  0.0645  0.0312 -0.1202
    1W        W62467   9.256   2.834   1.226  0.1453 -0.0560 -0.1789
    1W        W62468  18.097   0.176   6.848 -0.1260  0.1000 -0.0460
    1W        W62469   2.319  29.526   0.079 -0.1437 -0.1598  0.1291
    1W        W62470  15.540  19.676   2.573 -0.1574 -0.3346 -0.0516
    1W        W62471   7.383  20.464   8.997 -0.2340  0.0296 -0.0235
    1W        W62472   2.994   4.185   1.266  0.0037  0.0792 -0.1753
    1W        W62473   5.258  12.383   1.845 -0.1309 -0.1045  0.0439
    1W        W62474  13.703  11.035   7.163  0.0140  0.1053  0.1182
    1W        W62475  14.038  15.181   8.341 -0.0159  0.3933 -0.0255
    1W        W62476  18.241  18.599   7.884  0.1084  0.1916 -0.0445
    1W        W62477  13.871   6.249   2.814  0.1193  0.2259 -0.1937
    1W        W62478  17.961   7.160   9.482  0.2348 -0.2448 -0.0171
    1W        W62479   7.173  28.251   2.412  0.3157  0.2762  0.0317
    1W        W62480   2.760  18.980   7.647  0.0660  0.1371 -0.1911
    1W        W62481  22.315  21.688   7.814  0.0966  0.0425  0.0775
    1W        W62482   8.034   8.904   2.282 -0.2499  0.0750 -0.4175
    1W        W62483  16.664  27.141   2.706 -0.1686  0.1725 -0.0239
    1W        W62484  27.299  12.987   9.097 -0.2972 -0.2885 -0.2987
    1W        W62485  26.392   0.684   9.244 -0.0834 -0.0878  0.1434
    1W        W62486  10.193   1.084   0.742 -0.3281 -0.0262 -0.3840
    1W        W62487  18.287   7.165   8.297 -0.0204 -0.3315 -0.2680
    1W        W62488  14.408  10.800   8.464 -0.1221  0.0073  0.1081
    1W        W62489   1.821  16.437   2.352  0.1287  0.0407 -0.1001
    1W        W62490   7.389   5.585   7.105  0.3827  0.0956  0.1405
    1W        W62491   5.009   7.487   1.496  0.0961 -0.0629  0.0796
    1W        W62492   7.249  14.529   7.600  0.1511  0.0211  0.0260
    1W        W62493  16.091   3.087   8.888  0.2276  0.2041  0.0415
    1W        W62494  12.428   6.464   8.836 -0.1000 -0.1476 -0.0237
    1W        W62495  24.584   3.595   1.324 -0.0689 -0.0212 -0.1130
    1W        W62496  20.343  18.949   0.634 -0.0071 -0.1329 -0.0640
    1W        W62497  28.248   1.638   0.677  0.0248  0.0338 -0.1489
    1W        W62498   4.700  27.174   8.575 -0.0123 -0.2407  0.0141
    1W        W62499  18.268  15.060   8.692  0.0817 -0.0595 -0.1567
    1W        W62500   0.188  15.951   1.678  0.2423  0.0963 -0.1384
    1W        W62501  25.082  12.955   8.879  0.2320 -0.1750 -0.0214
    1W        W62502  18.610  22.621   2.799  0.0779 -0.4327 -0.0385
    1W        W62503  26.693  14.128   8.529 -0.2370 -0.0121  0.0576
    1W        W62504  26.193  15.308   8.928  0.0505 -0.0242 -0.1400
    1W        W62505  10.478  18.775   6.963  0.0702 -0.1834  0.1320
    1W        W62506  20.446   1.289   8.985  0.3959  0.1727 -0.1929
    1W        W62507   7.866   9.895   8.373  0.1150 -0.3630  0.1986
    1W        W62508   9.290   8.072   0.006  0.2249  0.0630 -0.0738
    1W        W62509  19.813  29.487   2.596 -0.2475 -0.2110 -0.3608
    1W        W62510  10.182   3.027   0.040 -0.3444 -0.2975 -0.0037
    1W        W62511  12.502  14.705   1.835  0.2968  0.3163  0.2303
    1W        W62512   4.722   9.588   2.218  0.0858 -0.0407 -0.1129
    1W        W62513  16.204  20.160   1.954 -0.0660 -0.3202  0.2118
    1W        W62514  20.244  13.958   6.643  0.1202 -0.3820  0.0060
    1W        W62515   4.404  25.976   8.954 -0.1100  0.1265 -0.2113
    1W        W62516  15.755  21.129   9.101 -0.0080  0.1867 -0.0404
    1W        W62517   4.735  17.945   0.538  0.1660  0.0695  0.0301
    1W        W62518  24.234  22.349   6.021 -0.0822  0.1496 -0.0714
    1W        W62519  20.830  18.476   1.513  0.1263 -0.2204 -0.2476
    1W        W62520  24.194   0.375   7.770  0.2299  0.0538  0.3627
    1W        W62521   4.473  10.141   1.190 -0.1838  0.2830 -0.0417
    1W        W62522  29.336   3.629   6.694 -0.0090 -0.4424  0.2273
    1W        W62523  24.777  18.074   5.979  0.2487  0.0638 -0.0683
    1W        W62524  26.802   0.701   1.008  0.1193  0.2306 -0.3424
    1W        W62525  22.649  18.674   0.452 -0.0503  0.1499 -0.3073
    1W        W62526  15.930  13.701   8.497 -0.0696 -0.2976 -0.1035
    1W        W62527   6.896   7.864   0.114  0.2074  0.1293 -0.1821
    1W        W62528   8.505  12.012   6.950 -0.0647 -0.1209 -0.3279
    1W        W62529  24.216  14.579   6.443 -0.1133  0.0846 -0.0917
    1W        W62530  27.157  25.114   8.509  0.1110 -0.0968 -0.3750
    1W        W62531  22.994  10.574   1.108 -0.0738 -0.2166 -0.2274
    1W        W62532  11.140  11.115   8.707  0.2522  0.2619  0.0414
    1W        W62533  18.899  29.239   2.993  0.1428 -0.0114 -0.1747
    1W        W62534  12.583  22.270   7.322 -0.1020  0.1314 -0.0767
    1W        W62535   8.368  13.719   7.466  0.0594 -0.2226  0.1927
    1W        W62536  28.022   3.678   6.825 -0.0090 -0.1591 -0.1211
    1W        W62537  26.613  12.217   8.145 -0.0585 -0.0986 -0.0248
    1W        W62538   0.329  15.204   9.203 -0.0943 -0.2213 -0.0880
    1W        W62539  11.443  12.214   1.205  0.4373 -0.0947  0.0504
    1W        W62540  21.771  18.018   7.621  0.2343 -0.1039 -0.3635
    1W        W62541  22.092  19.666   7.949  0.1581  0.1750 -0.0592
    1W        W62542   4.874   3.746   8.527 -0.1547  0.3549  0.2174
    1W        W62543  16.037   9.893   0.593  0.0324 -0.1196 -0.1590
    1W        W62544   5.617  12.491   8.845  0.2774  0.0467 -0.0316
    1W        W62545   9.382  26.511   0.562  0.3320  0.0776  0.4783
    1W        W62546   4.401  22.408   8.762  0.2380 -0.0667 -0.1222
    1W        W62547  16.848  24.447   2.588  0.0575 -0.1362  0.0147
    1W        W62548  19.767  12.192   7.053  0.0457 -0.1910 -0.1439
    1W        W62549  24.672   6.460   0.924  0.1257 -0.4261 -0.0468
    1W        W62550  12.120  10.487   6.915  0.0320 -0.0859  0.0222
    1W        W62551   0.510  19.822   8.544 -0.1057 -0.1171  0.1212
    1W        W62552   0.884   2.138   8.545  0.1291 -0.4131 -0.1089
    1W        W62553  19.566  10.540   0.136 -0.0486  0.0400 -0.2158
    1W        W62554   0.527  10.699   1.176  0.1036  0.1558 -0.5521
    1W        W62555  13.063   6.872   3.128 -0.0682 -0.0193  0.0101
    1W        W62556  21.309  12.254   8.501 -0.0279 -0.1946 -0.1004
    1W        W62557  15.616  14.517   7.642 -0.0524  0.2260 -0.0592
    1W        W62558  29.316  20.062   7.578  0.2714 -0.0685 -0.0100
    1W        W62559  14.303  27.989   1.430 -0.2925  0.1473  0.1039
    1W        W62560  28.570  27.598   9.001 -0.0507 -0.0953 -0.3566
    1W        W62561  20.863  13.264   0.206  0.2000 -0.2357 -0.3655
    1W        W62562   8.337  23.302   1.221  0.2263 -0.3073  0.4477
    1W        W62563   1.461  22.894   0.794 -0.2338 -0.1993 -0.0721
    1W        W62564   9.224  12.259   2.182 -0.1832 -0.2041 -0.3589
    1W        W62565   0.716  13.241   0.337 -0.0640  0.1745  0.2042
    1W        W62566  27.514   3.835   0.676  0.0387  0.0071 -0.0143
    1W        W62567   3.069  16.127   7.779 -0.0401  0.0184  0.1350
    1W        W62568  29.351   0.360   7.127 -0.0785  0.3359 -0.1421
    1W        W62569  17.123   4.810   2.241 -0.0665  0.1690  0.1912
    1W        W62570   6.882  25.906   0.634 -0.0665 -0.0529 -0.1353
    1W        W62571   6.254   4.958   6.879  0.2333  0.1783 -0.3805
    1W        W62572  22.738  20.866   7.632 -0.0121 -0.2483 -0.1081
    1W        W62573  25.016  18.568   5.745 -0.2661 -0.0151 -0.2065
    1W        W62574  22.330   0.161   7.728  0.1418  0.1285  0.1721
    1W        W62575  11.411  26.023   2.349 -0.0169 -0.0817 -0.3000
    1W        W62576   9.982   2.127   2.112 -0.2647  0.1301  0.1147
    1W        W62577  24.753  26.215   0.138 -0.1457  0.3682  0.4208
    1W        W62578  12.673  19.764   0.199 -0.0897  0.0683  0.2002
    1W        W62579  18.259  22.716   1.919 -0.3221 -0.0058  0.1684
    1W        W62580  24.314   9.497   0.644  0.1336 -0.1423 -0.1064
    1W        W62581   6.520  12.639   7.557 -0.1646  0.1565  0.1821
    1W        W62582   0.226  23.642   6.966  0.1884 -0.0191  0.1575
    1W        W62583  26.664   1.699   1.887 -0.2370 -0.1112  0.1440
    1W        W62584   1.458  20.485   7.316 -0.0571 -0.1038  0.1243
    1W        W62585   4.903  10.878   8.972 -0.2205 -0.0204  0.0086
    1W        W62586  24.730  11.906   0.221  0.1494 -0.2377  0.2096
    1W        W62587  25.996   9.340   8.246 -0.1022 -0.1300  0.0463
    1W        W62588  22.651  10.115   0.442  0.2168 -0.3272  0.2028
    1W        W62589  18.294   5.916   1.645  0.0687 -0.0165 -0.0667
    1W        W62590  22.514  17.187   6.828  0.0422 -0.3232  0.0306
    1W        W62591  23.925  19.424   1.015  0.0088 -0.4675  0.1750
    1W        W62592  25.079  11.028   6.558 -0.0245  0.1389  0.1735
    1W        W62593  19.298   6.129   7.305 -0.1283 -0.0311  0.0235
    1W        W62594  12.429  16.006   7.374  0.0407 -0.2845  0.2128
    1W        W62595  25.889   5.244   6.950  0.1435  0.3184 -0.1747
    1W        W62596   3.851  25.694   2.781 -0.2516 -0.0936 -0.0030
    1W        W62597   1.451  13.272   1.195  0.2301 -0.1433  0.0088
    1W        W62598   5.431   0.717   2.048  0.1709 -0.4787 -0.1020
    1W        W62599  25.616   9.929   9.304  0.4180 -0.0334  0.2154
    1W        W62600   7.770  23.238   7.528 -0.1890  0.2798  0.1897
    1W        W62601   8.713   7.370   8.698  0.1871 -0.0344  0.0068
    1W        W62602   4.186  19.034   2.343  0.0617  0.4175  0.0155
    1W        W62603   2.482  22.080   2.241 -0.0777  0.0117  0.1698
    1W        W62604  29.626  20.790   0.695 -0.3242 -0.2002  0.0529
    1W        W62605   3.434   1.392   6.936 -0.3048 -0.1131 -0.0072
    1W        W62606  25.227  12.632   5.198  0.0956  0.0564 -0.1154
    1W        W62607  18.974  22.142   1.760 -0.1734  0.2468 -0.1132
    1W        W62608   0.520  18.396   1.586  0.4466 -0.4168 -0.0611
    1W        W62609  10.534   4.975   8.486 -0.0860 -0.2972  0.0931
    1W        W62610  26.633  10.324   7.792  0.0865  0.0071 -0.2197
    1W        W62611   8.042  19.209   0.935  0.0353 -0.0725  0.0510
    1W        W62612  18.710  10.681   6.521  0.1685 -0.0752 -0.1819
    1W        W62613  25.839  16.661   8.684  0.1167 -0.0893 -0.0915
    1W        W62614  20.321  27.508   1.297 -0.1631  0.2774 -0.0236
    1W        W62615   1.300  19.167   1.717  0.2486 -0.1116 -0.0313
    1W        W62616  15.295  14.513   2.749 -0.2465  0.1973 -0.0262
    1W        W62617  15.969   0.564   0.351  0.3118  0.0907  0.0441
    1W        W62618   1.927  24.929   0.475  0.0066 -0.1510 -0.0880
    1W        W62619  14.130  16.603   1.755  0.0159  0.0411 -0.3148
    1W        W62620   3.047   9.149   9.333 -0.1692  0.1791  0.0366
    1W        W62621  25.706  27.555   0.932 -0.1608 -0.0699  0.2693
    1W        W62622  17.751  17.859   6.022 -0.2948 -0.3989  0.0561
    1W        W62623  21.106  18.630   9.483 -0.0940  0.1466  0.0241
    1W        W62624   5.206  14.557   9.191  0.2986 -0.1934 -0.1557
    1W        W62625   9.686   1.432   8.556 -0.1642  0.0910  0.0665
    1W        W62626  22.972  15.567   0.696  0.3169 -0.0204 -0.0924
    1W        W62627   9.811   6.113   8.835 -0.2912 -0.1033  0.1471
    1W        W62628  26.038  15.565   7.702  0.1196  0.1052 -0.0863
    1W        W62629  28.430  25.166   1.514 -0.1197 -0.1849  0.0983
    1W        W62630   2.131  28.452   8.654 -0.0440  0.3615 -0.0340
    1W        W62631   3.244  14.127   9.401  0.1655  0.1068  0.0568
    1W        W62632  19.371  23.346   7.108  0.1168 -0.1681  0.1097
    1W        W62633   7.236  16.362   0.664  0.0724 -0.0598 -0.0193
    1W        W62634   3.101   6.699   7.357  0.3352  0.2205  0.2678
    1W        W62635   9.220  25.774   0.191  0.0156 -0.3372 -0.1749
    1W        W62636  13.775  27.602   8.041 -0.3025  0.0739 -0.5458
    1W        W62637  23.875  16.409   5.337  0.1657  0.2690  0.2338
    1W        W62638   9.376   4.242   0.266 -0.0265 -0.1731  0.0185
    1W        W62639   5.996  22.313   0.753  0.0146 -0.0063  0.1013
    1W        W62640  18.590  25.209   8.422 -0.1285  0.0420 -0.1206
    1W        W62641  12.083  12.241   8.102 -0.0280 -0.0963  0.0559
    1W        W62642  12.869  16.238   9.055  0.2169 -0.1224 -0.1130
    1W        W62643   0.764  24.884   9.480 -0.0716 -0.4526 -0.3061
    1W        W62644   9.255  18.375   0.813 -0.1423  0.2884  0.3480
    1W        W62645  21.886   9.571   7.508  0.1616 -0.2352 -0.0514
    1W        W62646   7.588  10.179   7.546  0.0474  0.0045 -0.2497
    1W        W62647   2.309  28.861   6.811  0.0294 -0.0608 -0.0164
    1W        W62648   5.296   4.143   1.004 -0.1233  0.1539  0.3389
    1W        W62649  12.199  26.388   6.800 -0.1322  0.2759  0.0880
    1W        W62650   3.078  29.610   6.698 -0.1173  0.2444 -0.1192
    1W        W62651  29.324  12.751   8.750  0.0295 -0.0622 -0.2108
    1W        W62652  10.665   3.602   0.621 -0.0448  0.2515  0.1047
    1W        W62653  29.539   0.348   1.795 -0.1786 -0.1651  0.0552
    1W        W62654  16.817   4.843   0.229 -0.1016  0.1363  0.0191
    1W        W62655  23.187   9.411   1.395 -0.1124 -0.0172  0.0588
    1W        W62656  10.221  15.749   1.061  0.0442 -0.2436 -0.0504
    1W        W62657  26.746  17.284   7.138  0.1811  0.2373  0.0187
    1W        W62658  29.308  24.143   2.685  0.1300 -0.0268  0.1171
    1W        W62659   2.316  14.477   7.107 -0.1114 -0.1836 -0.0246
    1W        W62660  22.557  17.852   1.251  0.0052 -0.0191 -0.1145
    1W        W62661   4.893  23.896   2.021 -0.2570  0.1087 -0.0064
    1W        W62662   1.143   8.964   7.604  0.1359 -0.0514  0.1017
    1W        W62663  29.144  15.500   6.230  0.2262 -0.0031 -0.2012
    1W        W62664  19.769   2.061   1.040 -0.0172  0.0772  0.2130
    1W        W62665  14.670   1.317   8.934 -0.2790 -0.0687 -0.2014
    1W        W62666  17.496  21.906   8.429 -0.0397  0.0291 -0.1183
    1W        W62667   8.481  15.511   0.013 -0.3136 -0.0064  0.2478
    1W        W62668   8.406  17.842   7.447  0.0029  0.3294  0.0199
    1W        W62669  20.997   2.596   8.627 -0.0093  0.1489 -0.3580
    1W        W62670  15.114  15.171   8.118  0.1594  0.1080 -0.1148
    1W        W62671  11.400  12.794   9.220 -0.3780  0.0486  0.0305
    1W        W62672  29.493  18.454   0.524 -0.2437 -0.1399 -0.1518
    1W        W62673  17.601   3.223   3.149 -0.1081  0.0396  0.2771
    1W        W62674  13.666  20.845   7.609  0.1508 -0.0187 -0.2561
    1W        W62675  19.563  12.857   9.386  0.5167 -0.0444  0.2067
    1W        W62676  29.395   1.328   0.380  0.3439  0.1392  0.2796
    1W        W62677   9.881   8.597   0.604 -0.2121  0.0883  0.1165
    1W        W62678   9.649  18.318   8.648 -0.1636  0.1652  0.2503
    1W        W62679   7.852  27.713   3.313 -0.2486 -0.0475 -0.0385
    1W        W62680  14.016  10.655   7.500  0.1289 -0.0026  0.2247
    1W        W62681  23.555  14.178   6.000  0.1113  0.2862 -0.0667
    1W        W62682   8.153   8.861   7.505  0.0914  0.1383 -0.0663
    1W        W62683  26.698   9.927   0.745 -0.1198  0.2046  0.2455
    1W        W62684   2.483  17.141   0.222 -0.0882  0.0630 -0.2401
    1W        W62685   5.836  26.065   8.430  0.1301  0.1531  0.0053
    1W        W62686  21.155  29.638   2.324  0.0751  0.0475  0.0469
    1W        W62687  22.355   4.658   2.768  0.1345  0.2828  0.0380
    1W        W62688   2.742  18.371   8.537 -0.0522  0.1722  0.0867
    1W        W62689   5.059  17.447   8.774  0.3328  0.2049 -0.0396
    1W        W62690  22.156  12.583   8.557 -0.4381 -0.1508  0.1692
    1W        W62691  10.007   9.253   9.260 -0.3519  0.3313 -0.1140
    1W        W62692   1.180  21.600   2.468 -0.2459  0.3458  0.1261
    1W        W62693   3.706  29.105   6.456  0.1780 -0.2269  0.1688
    1W        W62694   3.410  16.535   8.542  0.2854  0.0639  0.0510
    1W        W62695  25.186   4.864   7.864  0.2898  0.0947 -0.4406
    1W        W62696   6.457  19.187   0.834 -0.3544  0.1157 -0.0001
    1W        W62697  24.009  15.950   6.404  0.2204  0.1166  0.2481
    1W        W62698  13.988  28.516   2.383 -0.2574 -0.1496  0.0351
    1W        W62699  20.065   7.574   1.381  0.0486 -0.3288  0.2076
    1W        W62700  27.830  21.465   1.631 -0.0839  0.0525 -0.1311
    1W        W62701   7.214  18.912   0.560  0.0918 -0.0277 -0.1441
    1W        W62702   1.200   5.451   0.156 -0.1838  0.2764 -0.2801
    1W        W62703  17.046   4.096   9.053 -0.2834  0.3777 -0.0815
    1W        W62704  24.048   8.051   7.224  0.2294  0.1847 -0.0633
    1W        W62705  22.749   8.999   8.385 -0.1081  0.1660 -0.0497
    1W        W62706  28.009   9.366   7.096  0.2850  0.2370  0.1898
    1W        W62707  19.347  12.147   6.704 -0.0806 -0.1560  0.0274
    1W        W62708  15.754  20.254   1.734  0.1247 -0.0124  0.0279
    1W        W62709  19.342   1.374   1.270 -0.0624  0.1182 -0.1512
    1W        W62710  23.262  12.394   6.332 -0.1965  0.0461 -0.1685
    1W        W62711  14.225   5.113   8.351  0.0638  0.0074 -0.2828
    1W        W62712  12.003  27.647   2.262 -0.1469  0.1951  0.1323
    1W        W62713  23.393  14.363   0.506  0.1937  0.0765 -0.1808
    1W        W62714   5.642  27.276   8.480  0.2406  0.3368 -0.0035
    1W        W62715  26.245  24.442   7.662  0.1733 -0.1918 -0.1427
    1W        W62716  11.443   7.749   0.776 -0.0576 -0.0599  0.2981
    1W        W62717   9.840   8.735   8.845 -0.1976  0.1857 -0.2570
    1W        W62718  19.289  13.222   9.160 -0.0503 -0.2939  0.0356
    1W        W62719  21.236   5.930   1.018 -0.0451 -0.0981 -0.4149
    1W        W62720  17.800   7.190   2.643 -0.0276 -0.0001  0.0619
    1W        W62721  17.987  17.012   6.217 -0.0592  0.0482 -0.0230
    1W        W62722  26.738  20.994   0.105 -0.1480 -0.1356  0.1897
    1W        W62723  15.099  20.719   0.351  0.0071  0.0167 -0.2530
    1W        W62724  28.913  12.370   8.454 -0.0609  0.1293 -0.1702
    1W        W62725   0.835  24.706   7.820  0.4639  0.0299  0.1136
    1W        W62726  24.459  16.916   6.807 -0.0826  0.3601  0.0242
    1W        W62727  14.402  25.301   8.356  0.1915 -0.1377 -0.0583
    1W        W62728  10.975  20.243   7.173  0.1375 -0.0854 -0.0978
    1W        W62729  23.714   2.710   9.307 -0.1059 -0.0367 -0.1147
    1W        W62730  24.421  23.518   3.119  0.1191  0.2150  0.0473
    1W        W62731  28.235   5.474   0.586  0.1690 -0.3039 -0.0810
    1W        W62732  19.528   9.062   1.661 -0.2210 -0.4051 -0.0165
    1W        W62733   9.556  18.620   0.492 -0.1269 -0.0029 -0.2281
    1W        W62734   3.440  16.495   9.095  0.0640 -0.2842  0.3495
    1W        W62735  10.058   3.774   7.085  0.2193 -0.2654 -0.0957
    1W        W62736   7.966  21.764   7.804  0.0640  0.0815  0.1087
    1W        W62737  20.678  11.865   8.854 -0.4355  0.2496  0.0916
    1W        W62738  19.599  23.830   1.654  0.2167  0.1082 -0.1579
    1W        W62739  23.264   6.536   0.644 -0.3675 -0.1174  0.0352
    1W        W62740  26.000  22.594   1.102  0.1069 -0.1785  0.0804
    1W        W62741  10.110   3.549   8.128 -0.1182  0.1041  0.2468
    1W        W62742   5.130   1.256   1.469 -0.1523 -0.1967 -0.3722
    1W        W62743   5.925   5.567   0.406 -0.3519 -0.2550  0.1696
    1W        W62744   1.336   5.636   8.854  0.4065 -0.0370 -0.0075
    1W        W62745  19.870  22.986   9.501 -0.2681  0.0509  0.3296
    1W        W62746  29.369   1.201   8.976  0.1728 -0.2079  0.2711
    1W        W62747  16.229   8.596   0.980  0.2180  0.1385  0.0730
    1W        W62748  18.934   2.901   9.415 -0.1226 -0.1296 -0.2549
    1W        W62749  25.858  22.501   9.201 -0.1024 -0.1980 -0.0375
    1W        W62750  14.486  24.021   1.738  0.0622  0.1472 -0.1057
    1W        W62751   6.599   1.568   2.466 -0.0463 -0.1180  0.2461
    1W        W62752   7.859  11.226   8.044  0.2628 -0.0762  0.0067
    1W        W62753  26.952  24.450   7.265  0.2493 -0.2130 -0.1630
    1W        W62754  27.040  29.588   3.556 -0.1470 -0.2616 -0.0870
    1W        W62755  16.035  14.545   7.184  0.0168 -0.0329 -0.1852
    1W        W62756   9.285   3.330   2.157  0.2422  0.3241  0.1746
    1W        W62757  10.869   6.753   1.598 -0.4494 -0.1631 -0.0518
    1W        W62758  16.630  12.993   1.916 -0.1566  0.1040  0.3727
    1W        W62759  14.915   8.536   0.538 -0.0616  0.1096 -0.0006
    1W        W62760  26.224   7.753   0.103 -0.0818 -0.3284 -0.0640
    1W        W62761   5.539  16.770   8.278 -0.2120 -0.0979  0.0996
    1W        W62762   7.951  24.644   2.484  0.0488 -0.3746  0.1163
    1W        W62763  12.115  18.533   8.294  0.0992 -0.2812 -0.1257
    1W        W62764  29.280  26.775   8.661  0.0402 -0.4050  0.1162
    1W        W62765   1.333  10.624   9.022 -0.0668 -0.4292  0.0481
    1W        W62766  16.694  24.440   3.623 -0.1416  0.1184  0.1123
    1W        W62767   9.622  17.949   1.265  0.1850 -0.0734 -0.0485
    1W        W62768   1.889  25.416   0.781  0.0801  0.2657 -0.0420
    1W        W62769  29.089  22.898   9.029  0.1638  0.0704  0.1738
    1W        W62770  26.426   8.236   1.372 -0.0328  0.1428 -0.2136
    1W        W62771  10.546  23.618   1.897 -0.3170 -0.1359 -0.2022
    1W        W62772  10.284   8.791   2.943 -0.0709 -0.0200  0.3484
    1W        W62773  26.691  10.094   2.243  0.0665  0.0156 -0.1721
    1W        W62774  28.576   9.319   0.383 -0.1882  0.0934  0.1881
    1W        W62775  20.205  29.289   3.301 -0.0366  0.1076  0.2031
    1W        W62776  13.212   8.677   8.104  0.5004 -0.0973  0.2700
    1W        W62777  27.678   7.132   7.161 -0.1262  0.0015  0.0023
    1W        W62778  14.911   5.321   0.452 -0.0865 -0.0895  0.1961
    1W        W62779   5.446  27.274   7.935 -0.1602  0.0629 -0.0205
    1W        W62780  16.082  16.210   1.300 -0.3307  0.0940  0.0112
    1W        W62781  17.808   5.302   9.007 -0.2051 -0.0347 -0.0691
    1W        W62782  27.878  23.018   8.631  0.1405  0.2228  0.1015
    1W        W62783  20.454  23.137   8.007  0.2454 -0.2362  0.3123
    1W        W62784  24.350  25.187   1.464  0.0627 -0.1052  0.2495
    1W        W62785  16.849   2.555   9.160  0.1715  0.1521 -0.1202
    1W        W62786  19.728  22.552   0.429  0.3370 -0.1245 -0.0288
    1W        W62787   4.772   7.326   2.816 -0.1396  0.4056  0.2181
    1W        W62788   9.430  18.085   1.756  0.2014  0.1380  0.2427
    1W        W62789  15.484  14.719   0.042 -0.0757  0.2978 -0.2689
    1W        W62790   8.600  18.142   8.900 -0.3236 -0.2175 -0.0639
    1W        W62791   1.070   9.207   2.054  0.2066  0.2777  0.0420
    1W        W62792   1.726   8.054   8.081  0.1732 -0.1252  0.1214
    1W        W62793  10.816  20.159   1.456  0.0824 -0.2199  0.0436
    1W        W62794  26.626  13.715   7.250 -0.0361  0.2547  0.2260
    1W        W62795  10.070  28.265   8.303 -0.1129  0.0602  0.2031
    1W        W62796   1.572  10.089   9.090 -0.1679 -0.1689 -0.0728
    1W        W62797  19.583   1.639   0.889 -0.1105  0.2522  0.0514
    1W        W62798  18.030   8.693   2.462 -0.0139  0.0484  0.0381
    1W        W62799  17.254  10.271   8.578  0.1278 -0.0303 -0.0494
    1W        W62800   2.810  18.858   8.658  0.0167 -0.0296  0.0065
    1W        W62801  16.672  22.124   0.685 -0.1663 -0.1010 -0.1913
    1W        W62802  16.736  27.953   8.344  0.2797 -0.2297  0.0569
    1W        W62803   9.720   3.866   8.965  0.0962  0.0719  0.1111
    1W        W62804   3.373   6.675   7.941  0.1138  0.0074 -0.0949
    1W        W62805   3.465   8.409   1.806 -0.0880  0.4012 -0.1547
    1W        W62806   4.272  16.344   1.093  0.2770 -0.0003 -0.1287
    1W        W62807  29.293  29.235   9.268  0.2110 -0.1881 -0.2608
    1W        W62808  12.638  25.401   1.878 -0.2817 -0.3088 -0.2760
    1W        W62809  15.322   9.502   1.915  0.0153 -0.0444 -0.1913
    1W        W62810   7.414  13.373   2.922 -0.1005 -0.0721  0.3101
    1W        W62811  25.387  27.927   2.670  0.0631  0.2952 -0.3269
    1W        W62812   6.948  18.067   1.488 -0.2095  0.0114  0.1109
    1W        W62813  15.108   8.974   6.983  0.3621  0.1814 -0.2846
    1W        W62814  25.607  28.201   8.516 -0.1501  0.1010  0.2953
    1W        W62815   3.919   6.958   7.436 -0.3417  0.4856  0.1565
    1W        W62816  22.375  28.810   1.395  0.1574  0.2379  0.2384
    1W        W62817  22.182   9.568   6.467  0.3572 -0.1443  0.2237
    1W        W62818  15.564   3.306   0.227 -0.1994  0.0334  0.1849
    1W        W62819  19.287  11.250   1.776  0.3065  0.0740  0.2547
    1W        W62820   2.868   7.221   1.336  0.1341 -0.0637 -0.0071
    1W        W62821   5.035  25.751   8.143 -0.2816  0.0092 -0.1126
    1W        W62822   7.032  28.985   1.610  0.4489  0.2000  0.1149
    1W        W62823   2.745  29.747   2.504 -0.3157  0.0926  0.3169
    1W        W62824  11.610  23.089   2.386 -0.1285 -0.1354 -0.0191
    1W        W62825   4.734  10.719   8.306 -0.2915 -0.0632 -0.0339
    1W        W62826   3.252   1.359   2.767 -0.0810  0.1572 -0.0828
    1W        W62827  11.749   9.400   8.918 -0.0195 -0.1995  0.0667
    1W        W62828  26.401   7.181   3.227 -0.0984  0.1244 -0.1070
    1W        W62829  14.468   8.930   1.884  0.4313 -0.2264 -0.1035
    1W        W62830  13.098  16.410   1.189  0.3403 -0.2685  0.0658
    1W        W62831  25.207  10.892   7.105  0.2050  0.0578  0.0754
    1W        W62832  28.998   7.565   1.131 -0.0681 -0.1592  0.0122
    1W        W62833   7.435  28.491   7.727  0.2485 -0.0469  0.0401
    1W        W62834  19.567  25.464   0.600  0.2951 -0.2125  0.1898
    1W        W62835  19.601   3.385   0.367 -0.2238  0.0569  0.0530
    1W        W62836   3.205  18.434   1.231 -0.0712  0.2760  0.0128
    1W        W62837  25.706  11.242   7.317 -0.2781 -0.4411  0.1915
    1W        W62838  20.340   5.102   1.789 -0.1393 -0.1512 -0.3193
    1W        W62839  17.858  16.765   7.842 -0.0341  0.1177  0.0281
    1W        W62840  15.786   9.153   2.267  0.2326 -0.1161  0.0857
    1W        W62841   5.204  12.672   0.396 -0.0720  0.0166  0.2378
    1W        W62842   6.856   6.400   2.756  0.0076 -0.3574 -0.2800
    1W        W62843  16.412  11.915   1.428  0.0354 -0.1137 -0.2752
    1W        W62844   0.198  23.577   2.356 -0.1352  0.0589  0.0779
    1W        W62845  26.142  11.587   8.498  0.1140  0.2371  0.1684
    1W        W62846   9.859  15.549   0.669  0.1066  0.1368  0.2666
    1W        W62847  10.199  10.454   7.676 -0.0573 -0.0189  0.1909
    1W        W62848   7.080  12.385   1.422  0.0275  0.0190 -0.0686
    1W        W62849   2.715   4.816   0.428 -0.0649  0.0357 -0.0231
    1W        W62850  15.678   1.005   0.180 -0.1831  0.3251 -0.2386
    1W        W62851  12.097  17.354   9.239  0.1384 -0.5809  0.2817
    1W        W62852  21.739  25.842   2.246 -0.0918 -0.3650  0.0783
    1W        W62853   2.974  10.265   0.593  0.1137 -0.0948 -0.2098
    1W        W62854  22.574  13.915   5.913  0.0423  0.0327 -0.1091
    1W        W62855   8.489   2.029   2.293 -0.3325 -0.0613  0.1296
    1W        W62856  19.925  13.186   5.582  0.0744 -0.1136 -0.5382
    1W        W62857  13.470   0.187   1.314 -0.1776 -0.2847  0.2350
    1W        W62858   2.820  26.502   2.591 -0.1181  0.3549  0.1601
    1W        W62859  17.962  18.959   8.185  0.2457 -0.1216 -0.0449
    1W        W62860   1.236  12.335   9.038  0.1167  0.1018 -0.0265
    1W        W62861  11.974   5.907   0.073  0.2265  0.3390 -0.0921
    1W        W62862  20.943   8.928   1.379 -0.0653 -0.1034  0.0391
    1W        W62863   7.938   6.111   3.672  0.0290  0.3875  0.1608
    1W        W62864  15.193   3.197   8.334  0.3295  0.0875  0.3494
    1W        W62865  20.934   0.316   2.449  0.1756  0.0563  0.0522
    1W        W62866  19.948  26.415   2.371 -0.2071 -0.1328  0.1816
    1W        W62867  23.057  13.187   6.801 -0.0920 -0.2306 -0.0214
    1W        W62868   4.851  13.051   2.173 -0.1374 -0.0186  0.0109
    1W        W62869  11.684  13.367   0.913 -0.1277  0.0700 -0.0124
    1W        W62870  26.399  12.339   0.707  0.0339  0.3773  0.0897
    1W        W62871  23.163  18.414   7.123  0.0340  0.1983  0.1908
    1W        W62872  20.774   5.143   3.272  0.0740 -0.2364 -0.0469
    1W        W62873   2.774  18.443   7.665 -0.2431  0.1359 -0.0473
    1W        W62874  22.412   0.741   1.855 -0.0777  0.2418  0.3703
    1W        W62875   4.433  15.177   7.667  0.1605 -0.1485  0.3380
    1W        W62876  15.863   5.594   2.697  0.1072 -0.1877  0.1171
    1W        W62877   0.400   7.428   7.264 -0.0172  0.1151 -0.0174
    1W        W62878  28.188  24.447   0.268 -0.2714  0.2207  0.1247
    1W        W62879  19.621   3.718   9.343  0.1811  0.2456  0.0939
    1W        W62880  14.329  24.488   0.666  0.2908 -0.2886  0.1714
    1W        W62881   4.480   5.552   9.176  0.1902 -0.0329  0.0249
    1W        W62882   1.557   8.362   1.984 -0.1547  0.2851 -0.1558
    1W        W62883  27.047  10.805   1.651 -0.0773 -0.2624  0.0241
    1W        W62884   2.306  19.232   1.848 -0.0532 -0.0876  0.0969
    1W        W62885  27.231  28.075   3.462  0.0933  0.1827  0.0304
    1W        W62886  12.980  11.256   9.195  0.0612 -0.1055 -0.0120
    1W        W62887  15.849  12.416   0.462  0.2402 -0.1741 -0.0974
    1W        W62888  21.250  18.158   0.877 -0.0129 -0.1370 -0.1373
    1W        W62889  28.623  15.948   9.359 -0.1457  0.0547  0.2976
    1W        W62890  27.240  27.098   2.438 -0.0378 -0.1417  0.1921
    1W        W62891  21.895  23.078   7.130  0.1521  0.0906 -0.1977
    1W        W62892  26.598  19.562   7.979  0.1727 -0.0603 -0.1493
    1W        W62893  15.504  22.435   7.183  0.0294  0.0506 -0.2085
    1W        W62894   2.350  28.075   1.812  0.4430  0.0129  0.0018
    1W        W62895  16.918  26.462   0.043 -0.0001  0.1692  0.0951
    1W        W62896  28.931  28.767   6.881  0.1442 -0.1593  0.1173
    1W        W62897  21.676  11.291   2.033 -0.1832 -0.1971  0.1143
    1W        W62898  27.820  11.425   9.208  0.1423  0.0868 -0.0126
    1W        W62899  11.640  13.602   1.340 -0.1877  0.1652 -0.0957
    1W        W62900  20.399   5.929   9.117 -0.0381  0.1181  0.2099
    1W        W62901  13.245   8.148   8.141  0.2445 -0.1487 -0.0261
    1W        W62902  24.027  11.987   0.881 -0.0525 -0.2602 -0.0311
    1W        W62903  26.729  20.989   2.140  0.0323 -0.3438  0.1135
    1W        W62904   9.356  12.114   7.716 -0.1045  0.1398  0.0030
    1W        W62905  23.871   0.003   8.790  0.4487  0.0541  0.0049
    1W        W62906  19.772   5.624   8.591  0.3806 -0.0680  0.1474
    1W        W62907  25.715   1.513   7.201 -0.0177  0.0099 -0.1970
    1W        W62908  20.585  18.857   1.270 -0.0759 -0.1008 -0.0377
    1W        W62909  23.167   1.918   9.332  0.0141 -0.0696  0.0426
    1W        W62910  16.908  28.830   3.393  0.1860 -0.3005  0.1068
    1W        W62911  16.163   2.712   7.503  0.2838  0.3144 -0.2827
    1W        W62912  21.778  11.212   8.720 -0.0178  0.3937  0.3744
    1W        W62913   0.744  18.449   0.346  0.0573 -0.0345 -0.0144
    1W        W62914   6.505  18.628   1.475 -0.2353 -0.0156 -0.0942
    1W        W62915  14.952  15.840   8.465 -0.0451 -0.0453  0.1891
    1W        W62916  17.913  13.474   1.719 -0.0359  0.0784  0.0319
    1W        W62917  26.322   4.258   3.087  0.3492  0.2273  0.1561
    1W        W62918  22.509  12.585   6.228  0.1080 -0.0455  0.1185
    1W        W62919  27.900  13.079   7.931  0.1631  0.5239 -0.1117
    1W        W62920  10.574  15.202   8.574 -0.0975 -0.4965  0.3639
    1W        W62921  28.946  20.006   6.783 -0.1342 -0.0233  0.0677
    1W        W62922  23.999  28.774   8.574  0.0015  0.1318 -0.1755
    1W        W62923  10.957  10.030   1.912 -0.4922  0.1059 -0.2031
    1W        W62924   2.085  21.348   0.730  0.0496  0.0184  0.1846
    1W        W62925  26.673  10.655   1.068  0.2573 -0.2817 -0.0632
    1W        W62926  23.241  16.356   1.049 -0.1566 -0.1449 -0.1436
    1W        W62927   9.446   2.067   8.103 -0.0845 -0.1058  0.3375
    1W        W62928   7.114  12.539   1.997 -0.1825 -0.0732 -0.0004
    1W        W62929   7.936  26.470   2.368  0.3178  0.0362 -0.3329
    1W        W62930  29.409  21.665   1.102 -0.1359  0.4029 -0.0726
    1W        W62931  11.298  24.934   7.671  0.0742  0.0272 -0.0100
    1W        W62932   0.404   5.030   0.698 -0.3098  0.0790  0.1240
    1W        W62933  13.514  20.911   1.486  0.2040 -0.2011 -0.3538
    1W        W62934  14.889  25.302   7.766 -0.0280  0.0916 -0.1118
    1W        W62935  22.391  18.751   8.771 -0.0019  0.2993 -0.1620
    1W        W62936  18.727  16.763   2.458  0.0298  0.2653  0.2049
    1W        W62937  21.988  11.697   8.716 -0.2366  0.0691 -0.1570
    1W        W62938  23.536   1.517   7.664 -0.1744 -0.0323  0.1979
    1W        W62939  15.333   5.871   9.281 -0.0521 -0.0286 -0.0367
    1W        W62940   9.385  15.051   2.008 -0.2953 -0.0191  0.0216
    1W        W62941  23.958   6.021   2.353  0.1102 -0.1829  0.3002
    1W        W62942  25.589  26.627   8.270  0.2491  0.0174 -0.0715
    1W        W62943  28.003  23.493   8.432 -0.0902 -0.2891  0.0080
    1W        W62944  18.927  19.065   6.774  0.5178  0.3364 -0.0972
    1W        W62945  11.431   5.630   8.671  0.0535  0.0781 -0.2199
    1W        W62946  23.023  10.354   7.479 -0.1860  0.2624  0.0699
    1W        W62947  13.698   9.321   0.851  0.1808 -0.1517  0.1556
    1W        W62948   9.031  12.925   1.119  0.1683  0.0939  0.1653
    1W        W62949  22.210   3.429   7.947  0.0664  0.3110 -0.2058
    1W        W62950   2.477   4.514   9.310  0.5194  0.2167 -0.0419
    1W        W62951  16.132  29.203   8.064  0.1598  0.3402  0.0769
    1W        W62952  19.932   3.903   4.184  0.0624 -0.0758 -0.0269
    1W        W62953  15.679  28.155   9.207  0.1717 -0.1056  0.1105
    1W        W62954  18.749   2.878   3.664 -0.1166 -0.3807 -0.1476
    1W        W62955  19.305   1.863   6.339  0.0888 -0.0435 -0.3171
    1W        W62956  28.569   2.110   7.667 -0.2165  0.0754  0.0298
    1W        W62957   4.171   9.377   9.357  0.2863  0.1309  0.0596
    1W        W62958  14.521   8.752   7.901  0.1285  0.3553 -0.0010
    1W        W62959  26.248  15.762   9.069 -0.1351 -0.2385 -0.0421
    1W        W62960  21.082  17.342   7.931 -0.1726  0.1583 -0.0114
    1W        W62961  22.770   4.127   9.020 -0.0133 -0.1628 -0.1310
    1W        W62962  15.383  17.313   0.926  0.0174  0.1255  0.0123
    1W        W62963   2.638   9.288   0.820 -0.4786  0.0025 -0.2382
    1W        W62964   9.411  22.068   0.637  0.0014 -0.1457 -0.1799
    1W        W62965  23.217  14.636   1.313  0.2428  0.3356  0.3784
    1W        W62966  16.392   7.423   2.803  0.1472  0.1676  0.2230
    1W        W62967  12.222  22.783   9.207 -0.0849 -0.1549  0.0179
    1W        W62968   7.539   7.183   9.394  0.2519  0.1911 -0.1091
    1W        W62969  21.440  13.284   0.062 -0.0139 -0.4394 -0.3002
    1W        W62970   5.235  20.686   7.325 -0.0763 -0.0934  0.1901
    1W        W62971   3.390  18.160   9.178  0.0066  0.0794  0.0242
    1W        W62972  26.235   5.846   2.063 -0.0636 -0.2004  0.0710
    1W        W62973   2.559  25.790   1.828  0.1212 -0.0056  0.3504
    1W        W62974  26.863  14.664   0.755 -0.1616  0.0367  0.0679
    1W        W62975  22.950  20.704   0.900 -0.1436 -0.0545 -0.2529
    1W        W62976  19.185  27.079   0.905  0.0649  0.0968 -0.0753
    1W        W62977   2.332  19.153   7.904  0.0612 -0.1562 -0.0366
    1W        W62978  13.891  15.279   9.255  0.1668  0.0898 -0.0687
    1W        W62979  21.712  12.439   9.026 -0.1460  0.1785  0.1504
    1W        W62980  16.182  28.610   2.747 -0.1244  0.0774  0.0206
    1W        W62981  21.363   0.424   6.828  0.3563 -0.2061 -0.0987
    1W        W62982   2.315  18.263   7.000 -0.3777 -0.0122  0.2353
    1W        W62983  11.108  15.423   8.967 -0.1323  0.0896  0.0684
    1W        W62984   9.547  24.910   3.238 -0.2695  0.0832 -0.1479
    1W        W62985   7.979  10.050   0.738 -0.0467 -0.2632  0.3174
    1W        W62986  23.445  25.334   7.097 -0.4236 -0.0580 -0.0933
    1W        W62987  11.321  20.806   1.093  0.0187 -0.1528 -0.1281
    1W        W62988   7.488   5.739   0.143  0.0696  0.1229  0.0664
    1W        W62989  15.386  19.967   8.528 -0.1779 -0.0241 -0.1159
    1W        W62990  19.049   5.537   3.017  0.2094 -0.0780  0.0994
    1W        W62991   7.549  27.296   3.130 -0.0556  0.0153  0.2720
    1W        W62992   5.227  18.757   1.979  0.1005  0.0306 -0.0387
    1W        W62993  19.581  14.101   0.472  0.3343 -0.2333 -0.3838
    1W        W62994   4.211   2.058   6.796  0.1106 -0.2979  0.0630
    1W        W62995  19.392  29.555   0.549 -0.4729 -0.2861 -0.0234
    1W        W62996   6.339  11.368   1.146  0.0506 -0.1079  0.0554
    1W        W62997   0.116   1.887   6.381  0.0437  0.0111 -0.2389
    1W        W62998   7.716  10.111   2.079 -0.1071  0.0591  0.1278
    1W        W62999   5.871  28.278   2.737 -0.0422 -0.2470  0.1969
    1W        W63000  12.062   1.653   2.871 -0.0401  0.1541 -0.0072
    1W        W63001   0.923  26.471   3.161  0.2943 -0.2357 -0.1750
    1W        W63002  29.262  11.461   9.449 -0.3834 -0.0679 -0.1067
    1W        W63003   3.765   6.300   0.322 -0.2472 -0.0518 -0.0561
    1W        W63004  16.925   9.288   9.123  0.0200  0.2214  0.0600
    1W        W63005   8.138   1.741   2.679  0.0787  0.3535 -0.1570
    1W        W63006   3.355  20.375   1.783  0.0687  0.0217 -0.0246
    1W        W63007  29.014   1.088   1.873 -0.1371  0.0662 -0.0818
    1W        W63008  28.062  27.916   9.105  0.3006  0.1826 -0.0180
    1W        W63009  23.628   1.189   8.143 -0.0850 -0.1027  0.4162
    1W        W63010  25.295  17.103   7.581  0.0684  0.4040 -0.0461
    1W        W63011  21.698   5.881   0.315 -0.2065  0.3760  0.1451
    1W        W63012   8.883  14.605   2.477  0.1299 -0.0689 -0.2238
    1W        W63013  18.803  24.733   1.331 -0.0494  0.4951  0.2499
    1W        W63014   6.657  12.284   0.672 -0.0240 -0.3143 -0.1414
    1W        W63015  23.039  10.290   8.302 -0.3792  0.2468 -0.0143
    1W        W63016   1.906  23.995   8.144  0.1982  0.0341 -0.0995
    1W        W63017  25.383  20.447   1.623  0.0695 -0.1801  0.4584
    1W        W63018  25.866   2.743   1.701 -0.0928 -0.4503  0.1789
    1W        W63019  28.839  26.808   8.386  0.3413 -0.0826  0.0079
    1W        W63020  20.442   6.597   6.579  0.0994 -0.0361 -0.0434
    1W        W63021   9.256   4.138   3.492 -0.2157  0.0743  0.0875
    1W        W63022  20.722   2.773   0.088 -0.0704 -0.0942  0.1543
    1W        W63023   0.482  23.230   2.085  0.1161 -0.1858  0.0542
    1W        W63024  18.442   5.845   8.773 -0.0483  0.2965  0.1437
    1W        W63025  11.023  14.978   8.825  0.3902 -0.1403  0.0896
    1W        W63026   1.546  11.001   2.133  0.0723 -0.4264  0.1631
    1W        W63027   5.710  18.022   9.240 -0.0521  0.1883  0.2693
    1W        W63028  22.646  15.915   7.269  0.0246 -0.0421 -0.0910
    1W        W63029  11.783  28.800   1.167 -0.1225 -0.0361  0.0229
    1W        W63030   1.424   8.760   0.419  0.1242 -0.1797  0.1853
    1W        W63031  23.720  17.027   9.017 -0.1836  0.1513 -0.3873
    1W        W63032  23.921  28.960   0.902 -0.0807 -0.1165 -0.0790
    1W        W63033  13.893  27.031   7.642 -0.4130  0.0876  0.1955
    1W        W63034  21.294  29.797   8.735  0.0339  0.1490 -0.0313
    1W        W63035  18.753  27.879   1.401 -0.0391 -0.2878  0.2065
    1W        W63036  27.539  28.195   9.149  0.0501 -0.1742  0.1510
    1W        W63037  28.422  11.104   1.288 -0.1794  0.0209 -0.1780
    1W        W63038  10.513   3.117   8.287  0.0731  0.1816 -0.1101
    1W        W63039  29.289   1.353   1.525 -0.1743 -0.2073 -0.0296
    1W        W63040  21.343   1.216   7.876 -0.3317 -0.0162  0.2065
    1W        W63041   7.418  13.949   1.570 -0.1057  0.2011  0.4298
    1W        W63042   0.098  27.503   8.879  0.0886  0.1218  0.2385
    1W        W63043  10.826  13.817   9.038  0.1735  0.0749 -0.2205
    1W        W63044  28.040   0.036   0.069  0.2144  0.1201 -0.2013
    1W        W63045  26.523  12.799   8.028 -0.0646  0.0680 -0.1228
    1W        W63046   9.695  25.620   1.542 -0.0476  0.1234 -0.1648
    1W        W63047  14.860  25.386   2.140 -0.5091  0.1881  0.1576
    1W        W63048   4.238  25.065   0.003  0.1282 -0.0507  0.0910
    1W        W63049   9.372  12.005   0.423 -0.1360  0.0685 -0.0738
    1W        W63050  12.495  18.125   8.958  0.0712  0.2301  0.3085
    1W        W63051  22.168   0.948   0.279 -0.1346  0.1203 -0.0695
    1W        W63052   9.911  28.570   2.732 -0.1890  0.2129  0.1882
    1W        W63053  13.441  15.552   1.840 -0.0170  0.4536  0.1383
    1W        W63054   3.754   0.656   1.897  0.0957 -0.0226 -0.0713
    1W        W63055   3.462   1.437   0.291 -0.1417  0.1201  0.0534
    1W        W63056  22.104  18.793   0.338 -0.3237  0.0587 -0.2752
    1W        W63057  12.997  18.443   1.248 -0.0049  0.0492 -0.1188
    1W        W63058   1.786   6.549   1.969  0.1476 -0.0108 -0.4890
    1W        W63059  17.118  20.428   2.452 -0.0280 -0.0525  0.1093
    1W        W63060  27.511   5.429   6.521  0.1230  0.0092  0.3045
    1W        W63061  18.197   0.174   2.750  0.0354  0.0150 -0.0334
    1W        W63062   2.318  28.660   7.809 -0.0025 -0.1037  0.3558
    1W        W63063  19.733   4.540   7.756 -0.3152 -0.1875  0.2047
    1W        W63064   2.430  17.151   1.114  0.0295  0.1722  0.0414
    1W        W63065  25.462   1.181   7.434 -0.1335  0.0257 -0.0651
    1W        W63066  29.784   0.978   7.651 -0.0507 -0.1152 -0.3794
    1W        W63067  10.094  18.352   8.430  0.0910  0.1628 -0.1952
    1W        W63068  13.219  26.991   8.101  0.0266  0.0863  0.1082
    1W        W63069   8.830  26.587   2.992 -0.2678  0.0224 -0.2299
    1W        W63070   8.146   5.719   8.829  0.2919  0.2596  0.0902
    1W        W63071   5.362  15.463   6.635  0.1071  0.0334  0.0644
    1W        W63072  18.077  22.781   8.540 -0.0445 -0.3327 -0.1086
    1W        W63073   7.544   9.613   8.655  0.1622  0.2933  0.0669
    1W        W63074   1.554  13.487   0.330  0.0362 -0.0500 -0.0195
    1W        W63075   4.445  29.487   2.161 -0.1222  0.0026  0.0447
    1W        W63076  13.132  16.861   2.698  0.2684  0.2000  0.5066
    1W        W63077  10.557   4.906   0.767 -0.2958  0.0249  0.0048
    1W        W63078  23.329   1.381   0.048 -0.2283 -0.0840  0.4936
    1W        W63079   0.025  18.785   6.664  0.0908  0.0036  0.2000
    1W        W63080   8.497  14.458   0.037  0.1723 -0.2234  0.1660
    1W        W63081   0.902  24.610   7.306  0.0537 -0.0651 -0.1023
    1W        W63082  10.918   0.417   2.174  0.0765  0.0305  0.0975
    1W        W63083  11.593   4.592   8.376  0.0574  0.6158  0.0359
    1W        W63084  16.834  19.563   2.517  0.1540 -0.0265 -0.0149
    1W        W63085  24.809  25.715   8.161 -0.0006 -0.1256  0.0655
    1W        W63086   1.391  11.561   8.093  0.0929 -0.2608 -0.1888
    1W        W63087  10.197  14.983   2.462  0.0103  0.3810  0.0553
    1W        W63088  16.492  27.499   8.324 -0.1167 -0.2460  0.1170
    1W        W63089  28.668  17.961   6.664 -0.1511  0.1125 -0.1670
    1W        W63090  14.667  18.616   9.184  0.0925 -0.1141  0.0428
    1W        W63091  14.550  28.202   0.255  0.1966 -0.2987 -0.0492
    1W        W63092  28.248   7.849   6.237 -0.4223 -0.1631  0.0915
    1W        W63093  13.327   9.844   6.487 -0.3613  0.0489  0.1560
    1W        W63094  17.214   7.982   2.192  0.4104  0.2098  0.0899
    1W        W63095  12.908   6.714   2.141 -0.0023  0.1672  0.1527
    1W        W63096  23.911  11.291   6.438  0.0051  0.0570 -0.1516
    1W        W63097  24.234  28.527   0.922  0.4430 -0.0139 -0.1203
    1W        W63098  14.705  23.587   0.006  0.2981  0.2483 -0.0027
    1W        W63099  26.943  25.965   0.978 -0.0622  0.0989 -0.0012
    1W        W63100   5.783   4.316   7.842 -0.1889  0.1416 -0.1811
    1W        W63101  12.524   2.734   1.784 -0.3331 -0.0937 -0.2100
    1W        W63102   8.533  22.932   7.204 -0.0804  0.1731 -0.0537
    1W        W63103  26.566  21.269   9.057 -0.0053  0.0822 -0.3091
    1W        W63104  15.455  19.625   8.220 -0.1650 -0.0073 -0.0064
    1W        W63105   1.478  15.700   2.570  0.1673  0.0815  0.0069
    1W        W63106  23.564   5.405   2.838  0.0282 -0.0553 -0.0456
    1W        W63107  14.847  25.595   8.323 -0.2969  0.0119  0.4141
    1W        W63108   8.262   3.708   0.362 -0.1863 -0.0946  0.3894
    1W        W63109  23.814  20.597   5.460 -0.1486  0.1805 -0.3302
    1W        W63110  13.101  22.886   6.959  0.1772 -0.3773 -0.0063
    1W        W63111  19.527  14.454   8.156  0.0815 -0.0223  0.1677
    1W        W63112  19.184  10.657   8.188  0.3923 -0.2809  0.4741
    1W        W63113  26.140   5.761   6.970 -0.0314  0.0992  0.0531
    1W        W63114   8.948   8.421   2.073  0.3402  0.1053 -0.3197
    1W        W63115   4.507  23.469   0.773 -0.1128  0.0490  0.0171
    1W        W63116  17.447  15.312   1.487 -0.2302  0.0718 -0.0351
    1W        W63117   9.535   7.577   8.149  0.2697  0.1794  0.1627
    1W        W63118   6.721  25.210   1.635  0.1908  0.2796 -0.0505
    1W        W63119  10.322  28.597   9.520 -0.2840 -0.0313 -0.1679
    1W        W63120  16.558  22.743   8.747  0.2624  0.0636 -0.2123
    1W        W63121  10.617  17.876   0.056  0.3576  0.0537 -0.0927
    1W        W63122   1.729   6.579   7.545  0.3325 -0.0785  0.4876
    1W        W63123  22.042  16.550   0.319 -0.0454  0.2835 -0.1240
    1W        W63124  27.188  24.778   1.268  0.1376  0.1021 -0.3039
    1W        W63125  22.587  26.850   9.001 -0.0424 -0.1323 -0.0125
    1W        W63126   5.305  13.696   8.823  0.0946 -0.2670  0.0269
    1W        W63127  29.211  25.277   0.587  0.0168 -0.0297 -0.1020
    1W        W63128  10.352  19.100   1.578  0.0559 -0.2117 -0.2471
    1W        W63129  12.445  10.089   1.721 -0.1700 -0.1426  0.0406
    1W        W63130  13.700  17.481   2.021  0.0013  0.0209  0.2838
    1W        W63131  27.437  14.189   8.540 -0.0540 -0.4029  0.1203
    1W        W63132  27.989  15.256   7.627 -0.0324  0.0960  0.0155
    1W        W63133   5.539  16.422   2.064 -0.0752 -0.2239  0.1894
    1W        W63134   6.749   2.410   7.000 -0.0159 -0.1548 -0.1564
    1W        W63135  13.844  16.536   0.036 -0.1169  0.0274 -0.2591
    1W        W63136  17.027  21.310   1.928 -0.1702  0.2473  0.0550
    1W        W63137   5.733  16.380   0.650 -0.3076  0.1566  0.0729
    1W        W63138  21.580  26.336   1.926  0.2141  0.0895 -0.2646
    1W        W63139  21.121  27.255   7.793 -0.1117  0.0578 -0.0988
    1W        W63140  16.214   4.417   0.887  0.0318 -0.1243  0.1177
    1W        W63141  22.630   8.054   7.680 -0.0833  0.2853  0.0064
    1W        W63142  14.499  15.296   8.613  0.1127  0.0847  0.1867
    1W        W63143  14.340   1.302   8.538  0.2261  0.3899 -0.3176
    1W        W63144  15.212   6.226   3.057  0.0023  0.1287 -0.1007
    1W        W63145  22.287  10.281   0.765 -0.2859  0.0187  0.0962
    1W        W63146  11.851  13.680   6.841  0.0097  0.1943  0.0793
    1W        W63147  13.723  24.526   0.080  0.1999  0.2918  0.1365
    1W        W63148  16.847  14.000   2.891 -0.1819 -0.3116 -0.1752
    1W        W63149   4.071  21.533   1.721  0.0031  0.0833  0.4677
    1W        W63150  26.913   6.167   1.071 -0.2149 -0.0557  0.2046
    1W        W63151  23.477  14.409   6.834  0.1322 -0.1692  0.0629
    1W        W63152  10.118   0.207   0.674  0.0002  0.0802 -0.1020
    1W        W63153  19.375  25.607   9.318 -0.2956 -0.1716  0.1946
    1W        W63154  22.828   9.374   7.985  0.0182 -0.2028  0.0068
    1W        W63155  11.157  24.321   9.138 -0.1452 -0.0951  0.1254
    1W        W63156  22.459   1.900   7.434 -0.0607  0.2080  0.1085
    1W        W63157  13.890  22.524   1.876  0.0602  0.0810 -0.1891
    1W        W63158  18.027   3.791   8.092 -0.4245  0.1956 -0.3909
    1W        W63159   1.509  19.082   8.685  0.0911  0.1096  0.1253
    1W        W63160  20.754  14.228   6.802  0.0672  0.1423 -0.0060
    1W        W63161  16.849   9.017   2.242  0.1789 -0.0629 -0.1448
    1W        W63162   4.423  15.514   7.274  0.1166 -0.2157  0.0930
    1W        W63163  28.876  17.174   8.385 -0.1411  0.0151  0.2177
    1W        W63164  21.382  17.834   0.475 -0.0503  0.0321  0.2285
    1W        W63165   5.088  10.879   0.958  0.1373  0.2617 -0.2526
    1W        W63166  16.956  11.965   8.439  0.0953  0.2287  0.0207
    1W        W63167  12.564  27.818   7.419 -0.0854  0.1929 -0.0963
    1W        W63168  12.169  12.287   9.134  0.1497  0.1346  0.0091
    1W        W63169   6.526  23.093   0.010  0.0753  0.1756  0.1300
    1W        W63170   7.633  21.105   1.896 -0.0552 -0.3312  0.1451
    1W        W63171  21.674   0.893   0.177 -0.4299 -0.2528 -0.1181
    1W        W63172  29.535  19.149   8.809 -0.2324 -0.0387  0.1884
    1W        W63173   7.252  12.871   8.340  0.2130  0.2001 -0.2593
    1W        W63174   5.522  15.256   1.328 -0.1830 -0.0177 -0.0932
    1W        W63175   4.382   9.121   6.710 -0.0885 -0.1413 -0.2594
    1W        W63176   5.282  21.496   2.327  0.0640  0.0002  0.0844
    1W        W63177  25.963   2.316   0.708  0.3156 -0.1492  0.4162
    1W        W63178  29.205  17.874   8.590 -0.0249  0.0231 -0.0578
    1W        W63179  27.397   0.271   6.748  0.2089 -0.2020 -0.1221
    1W        W63180  10.301  26.073   6.763  0.1947  0.1009 -0.0041
    1W        W63181  21.647   6.503   3.737 -0.0011 -0.0311  0.0968
    1W        W63182  28.176  23.108   0.442  0.3231 -0.3014 -0.2894
    1W        W63183  18.289  22.465   7.055  0.1435 -0.2575 -0.0893
    1W        W63184  25.884  23.482   8.423  0.0718  0.1448  0.0028
    1W        W63185  17.887   4.603   1.145  0.1221 -0.0335  0.0768
    1W        W63186  10.883  12.134   2.823 -0.0549  0.1639  0.1036
    1W        W63187   1.882   8.222   1.103 -0.0350  0.3262 -0.1525
    1W        W63188  21.867  19.815   7.519  0.2707  0.1180  0.1046
    1W        W63189  22.864   7.034   4.001  0.1652 -0.3784  0.1476
    1W        W63190  24.428  26.250   3.496  0.1012  0.0873  0.1849
    1W        W63191  16.750  15.963   6.937 -0.1937 -0.2919  0.4436
    1W        W63192   3.991  15.904   8.961  0.1125 -0.1191 -0.2629
    1W        W63193  25.747   9.365   6.830 -0.1194 -0.3015 -0.0920
    1W        W63194   7.144   1.742   7.997  0.2320  0.2543 -0.1488
    1W        W63195  27.795  26.608   7.609 -0.1958 -0.0941 -0.1625
    1W        W63196  24.134   9.887   7.578 -0.0811  0.0396 -0.1534
    1W        W63197  24.192   8.695   0.010  0.0330  0.0660  0.0415
    1W        W63198  15.047  25.603   2.558 -0.1358  0.3522 -0.2274
    1W        W63199  29.247  27.262   8.349  0.1093  0.1434 -0.0938
    1W        W63200   8.801  15.388   9.220  0.0644  0.4077 -0.0436
    1W        W63201  12.817   0.592   9.185 -0.0340  0.0826  0.0933
    1W        W63202  15.625   0.016   3.076 -0.0245  0.1159 -0.1212
    1W        W63203  27.132  23.629   7.355 -0.1584 -0.0398 -0.2886
    1W        W63204  23.421   8.522   1.174  0.0247 -0.0062  0.0040
    1W        W63205  10.167  22.005   6.692  0.2512 -0.2300  0.0560
    1W        W63206   4.686  29.423   7.610  0.2133 -0.3417 -0.2348
    1W        W63207  10.216   5.193   8.077 -0.3166 -0.3888  0.1175
    1W        W63208   3.962   9.668   7.674  0.0439  0.0913 -0.2919
    1W        W63209  25.372  11.831   7.999 -0.0148  0.2584  0.2193
    1W        W63210  22.726  19.970   1.777  0.0068  0.0094  0.3217
    1W        W63211  16.473  16.841   9.373  0.0317  0.1446  0.1756
    1W        W63212  15.042  11.719   1.041  0.4191 -0.4035 -0.0399
    1W        W63213   1.386   8.227   2.660 -0.1060  0.2318  0.2380
    1W        W63214   8.296   6.495   8.189  0.0471 -0.5201 -0.1382
    1W        W63215  10.542  25.610   2.726  0.0639  0.2041  0.0512
    1W        W63216  11.334   9.380   7.621 -0.0801 -0.0945 -0.1521
    1W        W63217  25.886  22.999   9.436 -0.1233  0.0889 -0.2251
    1W        W63218   8.326   4.218   7.066  0.4417  0.0598 -0.0473
    1W        W63219   6.434   9.738   8.464 -0.2676 -0.1457  0.0205
    1W        W63220  19.713  11.307   6.563  0.1371 -0.0290  0.1406
    1W        W63221  22.524   3.482   2.065 -0.1338  0.1390 -0.0105
    1W        W63222   9.775   6.588   0.077  0.2633  0.0692  0.1258
    1W        W63223  17.091   1.757   2.914  0.0986  0.0230  0.2375
    1W        W63224  17.505   4.563   7.875 -0.2772  0.1054  0.0418
    1W        W63225  20.182   4.911   0.233 -0.3570 -0.0134 -0.2001
    1W        W63226   4.523  11.774   7.367  0.2012 -0.0478 -0.2904
    1W        W63227   2.409  10.174   7.397 -0.0418 -0.1447 -0.0417
    1W        W63228  14.293  11.530   1.630  0.0970  0.2013 -0.0910
    1W        W63229  18.826   4.425   0.587 -0.0605 -0.2007  0.4095
    1W        W63230  24.285  27.189   8.271 -0.0059  0.2734 -0.3067
    1W        W63231   5.971   7.449   8.909 -0.0159  0.1334 -0.2565
    1W        W63232  25.543   9.099   1.423  0.2185  0.0381  0.1824
    1W        W63233  11.455  26.181   1.785 -0.2373  0.3609  0.1579
    1W        W63234  23.561  24.085   1.114  0.0817 -0.0357 -0.0472
    1W        W63235  25.352   4.611   7.464 -0.1560 -0.1873  0.0213
    1W        W63236  14.130  14.577   0.519 -0.3727  0.1642 -0.0672
    1W        W63237  12.312  18.575   2.531  0.0693 -0.0821  0.0787
    1W        W63238  10.748  12.774   7.409 -0.1562  0.1752  0.0756
    1W        W63239   4.103   7.070   8.062  0.1559 -0.1407  0.2532
    1W        W63240   8.953   7.724   8.367  0.3449  0.1467  0.0774
    1W        W63241   0.983  24.544   0.195 -0.3186  0.1982  0.2491
    1W        W63242  22.803  13.136   5.870  0.1442  0.1709 -0.2998
    1W        W63243  11.924  16.437   9.352  0.1639  0.2733  0.1847
    1W        W63244  20.944  19.857   1.284  0.0801 -0.0064 -0.0638
    1W        W63245  11.564  14.397   8.226  0.1452  0.0850  0.0355
    1W        W63246  15.521  28.836   8.650  0.2152 -0.1651 -0.0512
    1W        W63247  17.331  29.127   2.600 -0.0268  0.1298 -0.0704
    1W        W63248  22.229  29.423   2.735 -0.0855  0.0795  0.1860
    1W        W63249  27.630   1.015   7.513  0.3093 -0.3271 -0.4574
    1W        W63250  18.186   4.238   2.034 -0.0162 -0.1593 -0.1473
    1W        W63251  19.749  11.184   0.174 -0.3291 -0.2390 -0.2171
    1W        W63252  28.904   8.405   2.235 -0.0432  0.0372  0.3196
    1W        W63253  24.319  10.409   8.875  0.0230  0.1014 -0.3351
    1W        W63254  18.810  22.424   7.201  0.2534 -0.0953  0.0840
    1W        W63255  25.127   7.998   7.802 -0.1972 -0.1686  0.0781
    1W        W63256   5.655   4.959   8.650  0.4539 -0.0902 -0.2467
    1W        W63257  15.564  12.446   1.269 -0.1874  0.3123  0.2522
    1W        W63258  12.306  28.467   6.433  0.0078 -0.0074 -0.1501
    1W        W63259  18.473  29.550   7.275  0.2186 -0.0474 -0.4296
    1W        W63260  17.015   8.141   0.759  0.2249  0.1683 -0.3373
    1W        W63261  17.948   6.366   1.841 -0.5019 -0.1005  0.0391
    1W        W63262  23.533  28.126   1.688 -0.1793 -0.0672  0.2126
    1W        W63263  16.335  15.113   0.548 -0.1086  0.1679 -0.0705
    1W        W63264  10.923   8.785   2.254  0.0720  0.1772  0.1331
    1W        W63265   7.321  11.009   1.238 -0.2336  0.1588 -0.1393
    1W        W63266  11.321  22.802   2.110 -0.0061 -0.0449  0.0692
    1W        W63267   1.111  15.010   1.313 -0.2593  0.0026 -0.2184
    1W        W63268   2.429  16.204   7.613 -0.1562  0.2624 -0.2562
    1W        W63269  29.410   0.137   8.126 -0.1727  0.1559 -0.1607
    1W        W63270   0.902   9.293   1.164 -0.1348  0.0703 -0.0619
    1W        W63271  21.539   2.053   1.955 -0.0485 -0.0467  0.0356
    1W        W63272  28.092   4.907   2.517  0.2118 -0.2713 -0.0025
    1W        W63273  10.621   2.784   9.502 -0.1174 -0.1379 -0.1631
    1W        W63274   0.492   0.385   8.634  0.1256 -0.0119 -0.0632
    1W        W63275   4.516  14.542   0.736 -0.2465  0.0822 -0.3347
    1W        W63276  27.583   6.146   8.664 -0.3686 -0.0673 -0.1391
    1W        W63277   8.070  26.545   8.950 -0.0872  0.1204  0.2095
    1W        W63278   7.867  10.625   8.953  0.0386  0.2044 -0.0341
    1W        W63279   0.970  21.686   8.006  0.1193 -0.0908  0.0073
    1W        W63280   6.945   9.775   7.424  0.1578 -0.1555  0.0995
    1W        W63281  23.795  29.436   9.141 -0.0714 -0.0742  0.0467
    1W        W63282  15.339  20.781   2.271 -0.0740 -0.2299 -0.1172
    1W        W63283  17.594  12.576   9.172  0.0535 -0.1520  0.0126
    1W        W63284   4.951  28.687   9.260  0.2163  0.0213  0.1651
    1W        W63285   3.584  23.592   2.563 -0.2235  0.2014  0.1474
    1W        W63286  18.048  26.517   0.824 -0.0098 -0.0250 -0.2352
    1W        W63287  23.590   8.013   6.903  0.1236  0.0714 -0.0553
    1W        W63288  18.497  17.930   1.335 -0.2032 -0.0003  0.2783
    1W        W63289  17.789  12.962   2.158  0.0551  0.2548  0.0613
    1W        W63290  15.224  28.982   9.451 -0.1948  0.0632 -0.1215
    1W        W63291  26.513  11.425   8.855  0.0898  0.1162 -0.0029
    1W        W63292   4.436   0.699   2.328  0.1981 -0.1456 -0.1076
    1W        W63293  19.626  23.894   2.277  0.1031 -0.0528 -0.2202
    1W        W63294  26.687   3.473   9.333  0.2108  0.4085 -0.0622
    1W        W63295   0.041  16.369   8.044  0.1477 -0.3090 -0.1345
    1W        W63296  16.145  25.096   1.764  0.2084  0.0231 -0.0850
    1W        W63297  18.363  19.683   8.747  0.1556  0.1648  0.0770
    1W        W63298  15.464  10.181   1.212  0.1301  0.5610  0.0166
    1W        W63299   2.149  23.220   2.107  0.2411  0.1942 -0.1301
    1W        W63300   8.730  21.091   0.738 -0.0355  0.2531 -0.1996
    1W        W63301   9.893  27.007   1.262 -0.0114 -0.1212  0.1293
    1W        W63302   9.342  21.419   1.319 -0.2032  0.2272  0.1684
    1W        W63303  18.960   0.646   2.127  0.0331  0.0279  0.4299
    1W        W63304  10.225  24.567   1.330 -0.2371 -0.1086  0.0107
    1W        W63305  27.545  22.829   2.538  0.2101 -0.2017  0.1245
    1W        W63306  20.383  23.480   8.665 -0.1078  0.1065  0.2685
    1W        W63307  24.194  24.518   2.127  0.3400 -0.0344  0.2525
    1W        W63308   4.423   2.136   8.919 -0.1072 -0.0316 -0.1167
    1W        W63309  15.678  27.818   8.096 -0.1650 -0.2165  0.0453
    1W        W63310  21.500   7.393   1.723  0.1029  0.2389  0.0187
    1W        W63311   9.620  11.601   0.624 -0.1412 -0.0812  0.0313
    1W        W63312  15.463  29.733   8.393 -0.0514 -0.0403  0.3737
    1W        W63313  21.453   8.088   7.602 -0.0481 -0.0624  0.1265
    1W        W63314  29.520   9.297   1.079 -0.1085  0.1771  0.2563
    1W        W63315  15.779  28.980   9.457 -0.0518  0.1055  0.1040
    1W        W63316  18.214   8.951   9.314  0.4265 -0.0379  0.1119
    1W        W63317  11.948  17.424   7.719 -0.1164  0.1273 -0.1584
    1W        W63318  26.829  16.552   9.158  0.1387 -0.1317  0.0585
    1W        W63319  13.122   7.298   2.834 -0.1246 -0.1386  0.0489
    1W        W63320  17.510   2.360   1.072  0.4549 -0.1600 -0.0180
    1W        W63321  24.333   2.564   7.539  0.0459  0.0840  0.0203
    1W        W63322  27.227  25.599   8.681 -0.2944 -0.0971 -0.3001
    1W        W63323  24.498  25.341   8.637  0.0116  0.3844  0.1261
    1W        W63324  23.456  20.238   0.245 -0.1494  0.3303  0.3561
    1W        W63325  12.968  27.361   0.597 -0.0577 -0.2194 -0.0854
    1W        W63326  12.084  16.785   6.834 -0.0451 -0.2387 -0.1268
    1W        W63327  17.114  22.236   9.520 -0.0652 -0.2174  0.3381
    1W        W63328  21.759  24.501   9.263  0.2035 -0.2347 -0.0871
    1W        W63329   3.123   4.402   8.324  0.2126 -0.0265 -0.1006
    1W        W63330   3.145   8.698   8.561  0.1852  0.0179  0.0940
    1W        W63331  14.211   5.357   2.840  0.0422  0.1089 -0.3319
    1W        W63332  23.061  19.303   1.561  0.0560 -0.1368 -0.0075
    1W        W63333  23.091  11.129   6.222 -0.1985 -0.1025  0.0550
    1W        W63334   5.950   2.840   9.008 -0.0994  0.1645  0.0528
    1W        W63335  19.064  20.582   0.605 -0.1429  0.2440  0.1262
    1W        W63336  15.261  23.361   0.385  0.0745 -0.3005  0.0135
    1W        W63337  21.061   5.239   8.760  0.1072 -0.0268 -0.3548
    1W        W63338   6.960   2.740   2.261 -0.2209 -0.1079 -0.4279
    1W        W63339  18.240   8.468   8.226  0.2193  0.1152 -0.2213
    1W        W63340   5.610  11.583   7.942  0.0482 -0.1451  0.1648
    1W        W63341  26.269  11.868   8.068  0.1029 -0.1115  0.0291
    1W        W63342   8.076  19.735   1.782 -0.0517 -0.0701  0.1320
    1W        W63343   5.499  24.574   1.485 -0.1321 -0.1591  0.3375
    1W        W63344  20.459  24.080   9.376  0.1588 -0.1236 -0.3268
    1W        W63345  14.792  10.337   0.354 -0.1989 -0.2187  0.0730
    1W        W63346  13.759  23.112   6.987 -0.0781 -0.0903 -0.0998
    1W        W63347   6.400  24.737   8.733 -0.1391  0.2458 -0.0043
    1W        W63348  29.168  22.759   8.543 -0.2031 -0.3380 -0.2454
    1W        W63349   7.186  13.146   1.144  0.3149 -0.2010  0.0667
    1W        W63350  20.755  11.859   5.588  0.0216 -0.2277  0.2714
    1W        W63351  17.521   0.755   1.053  0.0352 -0.1883 -0.1527
    1W        W63352  16.936   3.381   1.630  0.2085  0.0606 -0.3524
    1W        W63353  29.085  27.052   0.464  0.2685  0.2293  0.0360
    1W        W63354  25.626   5.728   6.981  0.1602 -0.0147  0.0836
    1W        W63355  12.198  24.606   6.610 -0.0158  0.5382  0.3950
    1W        W63356  17.450  24.875   0.032  0.0415 -0.1941 -0.0989
    1W        W63357   3.894  16.451   8.328 -0.1815  0.1333 -0.1199
    1W        W63358  10.958  10.901   0.742 -0.0368 -0.1678 -0.1146
    1W        W63359  19.697  19.163   1.366  0.1293 -0.0026  0.1925
    1W        W63360   2.332   4.878   1.050  0.1315  0.2158 -0.0288
    1W        W63361   1.223   4.548   9.375  0.1957 -0.2277 -0.0854
    1W        W63362  10.733  16.752   8.410  0.0785  0.1471 -0.2338
    1W        W63363  16.963   9.452   0.085 -0.0858  0.2741  0.3298
    1W        W63364  28.624  25.319   2.893 -0.0273 -0.0630 -0.0265
    1W        W63365  20.991  12.984   1.884  0.0121 -0.0417  0.1106
    1W        W63366  20.616  23.250   9.195  0.4017  0.3289 -0.1920
    1W        W63367  19.331  23.223   7.617 -0.1536 -0.2601 -0.0828
    1W        W63368  12.276  17.759   0.088 -0.0454  0.2042 -0.1059
    1W        W63369  28.869  29.303   1.866 -0.1955  0.0747 -0.0728
    1W        W63370   1.456   8.711   9.432  0.1623 -0.0366  0.0674
    1W        W63371  10.088   6.211   7.177  0.1678  0.0025  0.1027
    1W        W63372  28.423   0.186   7.636 -0.0567 -0.2336 -0.2392
    1W        W63373  15.796  12.237   6.262  0.1318  0.1907 -0.0293
    1W        W63374   3.736  20.650   1.624 -0.2042  0.1125 -0.0150
    1W        W63375  28.775  27.853   0.050 -0.2520  0.0925  0.1739
    1W        W63376  21.921  24.335   0.173 -0.1099  0.0496 -0.3821
    1W        W63377   6.056  16.702   2.033  0.2413 -0.1860 -0.1975
    1W        W63378  27.566   8.546   6.925  0.3171 -0.1423  0.2075
    1W        W63379   8.852  18.557   9.007 -0.3723  0.1647 -0.1100
    1W        W63380   9.143  27.555   0.608 -0.2556 -0.0686  0.0946
    1W        W63381  26.795  23.231   6.445 -0.3412 -0.1686  0.0682
    1W        W63382  26.787  11.631   6.473  0.2395  0.1933  0.2303
    1W        W63383   2.387  25.484   7.922 -0.1810  0.1098  0.1366
    1W        W63384   0.946   3.521   0.360  0.0569 -0.3571 -0.1756
    1W        W63385   7.638  22.460   8.075 -0.2282  0.2004  0.1314
    1W        W63386  19.719  22.902   7.661 -0.1985  0.1916 -0.0947
    1W        W63387  23.016  19.383   5.349 -0.1038 -0.0409 -0.0257
    1W        W63388  24.558   5.633   3.024 -0.0860  0.0890 -0.2386
    1W        W63389   4.339  13.065   6.896  0.1212 -0.0451  0.0014
    1W        W63390  16.942   7.567   0.076 -0.1775 -0.0791  0.1062
    1W        W63391  16.410  20.389   0.236  0.0023 -0.1123  0.1632
    1W        W63392  24.076  11.273   6.905  0.1344  0.0419 -0.1805
    1W        W63393   1.883  23.975   2.821 -0.2708 -0.0657  0.0658
    1W        W63394  26.748  18.664   7.225  0.1957  0.0507 -0.2904
    1W        W63395   6.652  23.354   2.517  0.0442  0.1439 -0.0373
    1W        W63396   3.849  26.601   2.908  0.0290  0.0272  0.1129
    1W        W63397   7.153  23.507   2.531  0.2571 -0.6157 -0.2161
    1W        W63398  23.571   3.855   2.592  0.1904 -0.0180  0.3261
    1W        W63399  17.569  14.424   0.432  0.3450  0.1494  0.0159
    1W        W63400   2.326   9.427   9.033  0.2224 -0.1322 -0.1767
    1W        W63401  23.406   3.499   2.915  0.0748 -0.0660  0.3903
    1W        W63402   5.637  17.562   8.923  0.3186 -0.0961  0.1097
    1W        W63403  15.124  27.239   0.765  0.0129 -0.2568 -0.3859
    1W        W63404  17.035   3.084   2.481 -0.2604 -0.0064  0.2691
    1W        W63405   6.400   2.987   2.472  0.1999 -0.2104  0.1700
    1W        W63406  18.359   9.398   7.512  0.1684 -0.0592 -0.0568
    1W        W63407  28.540   2.242   8.138 -0.2019 -0.0954  0.2039
    1W        W63408   1.767  28.874   2.436  0.2129 -0.2302  0.2234
    1W        W63409  20.124   7.766   8.262  0.3471 -0.1068  0.1507
    1W        W63410   8.463  13.381   9.089  0.0051  0.0065 -0.2674
    1W        W63411   4.764  28.193   8.313  0.0815 -0.3965  0.0469
    1W        W63412  11.315   5.397   2.630 -0.0862  0.0439  0.0423
    1W        W63413   7.063   6.004   9.405  0.2168 -0.3042  0.6634
    1W        W63414  20.069  22.808   1.688 -0.0442  0.1212  0.2094
    1W        W63415   5.752  15.737   9.058  0.0944  0.0241  0.0550
    1W        W63416  25.363   3.683   7.842  0.1792 -0.1209  0.0140
    1W        W63417  24.555  21.061   8.087 -0.2474  0.1137  0.2361
    1W        W63418   3.854  19.572   0.787 -0.2359  0.0389  0.0875
    1W        W63419  24.036  15.619   8.107 -0.0301 -0.1708  0.1902
    1W        W63420  28.001   4.276   8.224  0.1780  0.0941 -0.3063
    1W        W63421   8.590   5.775   8.615  0.2075 -0.1860 -0.1910
    1W        W63422  14.643  18.410   0.979  0.1027  0.1129 -0.0086
    1W        W63423  17.995  20.601   2.243 -0.4471  0.0882 -0.0956
    1W        W63424  25.101  26.827   2.236  0.0289 -0.3784  0.2038
    1W        W63425  26.697  12.385   0.277 -0.0137  0.1260 -0.1250
    1W        W63426  24.248   1.738   3.764 -0.4901  0.0350  0.3936
    1W        W63427   5.676   8.878   0.216 -0.1695  0.1421  0.0302
    1W        W63428   2.817  24.069   9.362 -0.1708  0.0675  0.0313
    1W        W63429   5.035  27.448   7.060  0.2048  0.0629 -0.0143
    1W        W63430  20.359  28.572   6.900 -0.0741 -0.0525  0.1932
    1W        W63431   9.948   5.662   8.193 -0.2185  0.0377 -0.1537
    1W        W63432  24.247   8.038   8.969  0.1340 -0.0469 -0.0413
    1W        W63433   0.705   1.650   8.459 -0.0420 -0.1183  0.0255
    1W        W63434  27.964  13.461   6.756 -0.0126  0.2055  0.1018
    1W        W63435  23.361  15.714   5.619 -0.0087 -0.0597 -0.1960
    1W        W63436  11.160  14.709   7.324  0.0884  0.1248  0.1947
    1W        W63437  23.620   0.244   2.480  0.0756 -0.0442  0.2575
    1W        W63438  11.803  19.863   0.705  0.0053  0.2412 -0.3543
    1W        W63439   1.658   3.679   1.589 -0.1956  0.2008  0.2170
    1W        W63440  26.677   5.882   3.306  0.3307 -0.2509  0.1562
    1W        W63441  18.359  18.428   7.093  0.0130  0.3291 -0.0400
    1W        W63442  21.223  27.825   8.006 -0.2641 -0.0720 -0.2249
    1W        W63443  20.798   8.183   2.812 -0.2216 -0.3143  0.1198
    1W        W63444  25.717  13.365   6.521  0.0239  0.1560 -0.1853
    1W        W63445  15.928   2.647   7.935  0.0496 -0.0097 -0.3650
    1W        W63446  15.546  14.201   9.055  0.1072  0.0500  0.3414
    1W        W63447  26.102   7.404   7.502 -0.0413 -0.0956 -0.1563
    1W        W63448   7.028  29.216   8.628 -0.1292  0.3448  0.1406
    1W        W63449  23.036  26.952   7.783 -0.1014 -0.2837  0.1086
    1W        W63450   5.988  27.419   1.834  0.0099 -0.0170 -0.1843
    1W        W63451  18.264  29.388   8.211  0.2281 -0.2155 -0.1404
    1W        W63452   7.022  23.796   9.378 -0.2650  0.1150 -0.0061
    1W        W63453   3.137  21.638   2.525  0.1098 -0.2077  0.0527
    1W        W63454  10.723  26.403   8.233  0.2213  0.2051  0.1082
    1W        W63455  10.842   9.618   7.459 -0.0885  0.1650  0.2094
    1W        W63456   2.442   5.159   7.664 -0.2411  0.1587 -0.1589
    1W        W63457  22.222  10.551   1.991 -0.0330  0.0071 -0.1548
    1W        W63458  16.372   3.118   3.257  0.0152  0.0756  0.0081
    1W        W63459  16.827  14.588   8.193  0.1916  0.1870  0.0346
    1W        W63460   3.941  28.536   0.737  0.2289 -0.1045 -0.2067
    1W        W63461  26.737  16.975   6.745 -0.0994  0.4254 -0.2320
    1W        W63462   2.345   1.022   7.596 -0.0535 -0.0333 -0.0771
    1W        W63463  17.877  14.281   7.933  0.0772 -0.0559  0.1792
    1W        W63464  11.573   1.893   8.029 -0.2767 -0.3402 -0.3283
    1W        W63465   9.897  10.968   8.774  0.2572  0.0538  0.1124
    1W        W63466  13.945   2.716   8.261  0.0220 -0.2578 -0.1578
    1W        W63467  24.721  29.391   2.343 -0.0295 -0.2970  0.2697
    1W        W63468  20.583   2.361   1.272 -0.1662 -0.1338  0.1275
    1W        W63469  27.579  23.681   2.203 -0.0898  0.2374  0.4159
    1W        W63470  25.405  23.378   8.667 -0.0471 -0.0964  0.0271
    1W        W63471  18.817  11.558   1.817  0.1498  0.2015  0.3579
    1W        W63472  25.539  12.588   0.888  0.2061  0.1310  0.4010
    1W        W63473   0.779  22.422   8.553 -0.0550  0.1451  0.0165
    1W        W63474  27.595  17.316   0.284 -0.0151 -0.0163  0.0899
    1W        W63475   5.802  10.679   9.487 -0.2224 -0.1729  0.0064
    1W        W63476  21.524   8.473   0.786 -0.3092  0.0584  0.1094
    1W        W63477  16.283  28.652   8.781 -0.0166 -0.3758  0.0352
    1W        W63478  23.171  28.320   1.167 -0.0243 -0.4320 -0.0309
    1W        W63479   5.000   7.290   1.011  0.1509 -0.0926  0.0372
    1W        W63480  27.627  23.545   7.590 -0.1063 -0.1524 -0.2887
    1W        W63481  19.894   7.766   2.286  0.1526 -0.0310 -0.2560
    1W        W63482  25.305  21.829   1.417 -0.0545  0.2673  0.0314
    1W        W63483  24.531  18.800   8.888 -0.0539  0.1084  0.0853
    1W        W63484   9.299   5.156   3.054  0.1524 -0.3558 -0.0781
    1W        W63485   6.156   6.846   0.958  0.0836 -0.1215  0.1156
    1W        W63486  29.212  18.164   0.927 -0.1597  0.0273  0.1139
    1W        W63487  16.476   1.670   1.565  0.1946  0.1909  0.3595
    1W        W63488  17.453  18.165   7.161  0.0924  0.0230  0.1181
    1W        W63489   5.471  18.454   8.708 -0.3700 -0.1522 -0.1688
    1W        W63490   8.335  24.083   9.272 -0.2173 -0.0117  0.0505
    1W        W63491   9.838  15.526   7.851  0.3226  0.0880 -0.4009
    1W        W63492  27.619  20.679   6.821 -0.4715 -0.0426 -0.0474
    1W        W63493  21.613  10.369   9.208 -0.4485  0.0267 -0.2568
    1W        W63494  14.844   3.635   2.216  0.2723 -0.1219 -0.2095
    1W        W63495   5.461  11.352   9.295 -0.5780  0.0163  0.2423
    1W        W63496   2.561  17.963   0.259 -0.3400  0.0141  0.2464
    1W        W63497   9.115   1.781   1.408  0.0147  0.2123 -0.1457
    1W        W63498  12.370   4.520   2.464  0.1593 -0.1478 -0.2894
    1W        W63499   0.781   8.366   7.231 -0.1018 -0.3217  0.0815
    1W        W63500  19.146  20.681   0.103 -0.1948 -0.3314  0.2449
    1W        W63501  19.329   4.441   7.063 -0.3023 -0.3165 -0.1707
    1W        W63502  13.986  27.204   8.652 -0.0444  0.1352  0.1759
    1W        W63503   2.566   9.275   8.019  0.0353  0.1812 -0.2727
    1W        W63504  15.597   6.562   2.972 -0.1201 -0.1617 -0.0332
    1W        W63505   2.765   0.673   8.319  0.0657 -0.0731 -0.1609
    1W        W63506   3.429  15.441   0.899 -0.1888 -0.2254 -0.2362
    1W        W63507  27.194   1.044   2.369  0.0846 -0.1143  0.0918
    1W        W63508   2.186  12.405   2.223  0.0548 -0.0682 -0.0448
    1W        W63509  23.945   8.472   8.896  0.1539  0.1947 -0.0493
    1W        W63510   8.783   6.544   3.211  0.0261 -0.0813  0.2060
    1W        W63511   6.275  12.003   9.311 -0.0471  0.0433 -0.2492
    1W        W63512  27.141  25.341   1.334  0.0361 -0.1207 -0.0317
    1W        W63513   8.844  13.716   2.543 -0.0419 -0.1398 -0.0979
    1W        W63514  10.977   9.112   8.297 -0.2167 -0.2198  0.2585
    1W        W63515  24.502   8.112   7.075  0.0318 -0.1632  0.0063
    1W        W63516  29.698  26.487   7.173  0.2575  0.4167  0.2244
    1W        W63517  11.751  28.690   8.626 -0.3472  0.1122  0.1751
    1W        W63518   8.287   1.939   7.941  0.1691  0.1362  0.0859
    1W        W63519  28.713  13.716   8.607 -0.0047 -0.0120  0.2180
    1W        W63520   2.064  23.797   1.940 -0.0359 -0.0868 -0.0565
    1W        W63521   8.020  12.098   1.841  0.0521 -0.1841  0.0588
    1W        W63522   4.289  27.986   3.164  0.0061  0.0315  0.1525
    1W        W63523   8.473  29.496   2.210  0.0366  0.2618 -0.2980
    1W        W63524  20.794   8.859   7.128 -0.1533 -0.0010 -0.0929
    1W        W63525  10.346  17.215   9.012  0.0167  0.0580 -0.0901
    1W        W63526  14.045  14.154   0.792 -0.1105  0.0348  0.1641
    1W        W63527   2.817  17.470   0.111  0.0847  0.0819 -0.0425
    1W        W63528   9.898  15.702   1.477  0.1830 -0.1676  0.2296
    1W        W63529  14.400  12.724   0.744  0.0819  0.2096 -0.2216
    1W        W63530  15.321  12.438   0.449 -0.1836  0.0611 -0.2266
    1W        W63531  24.297  18.092   5.417  0.2277 -0.0274  0.0911
    1W        W63532  13.430   6.719   0.934 -0.0369  0.1241  0.1911
    1W        W63533  27.186   3.700   9.314 -0.1095 -0.1658  0.2574
    1W        W63534  22.352   4.189   2.901 -0.2177 -0.3888  0.1800
    1W        W63535  28.166  24.168   7.000 -0.1506  0.1807  0.3592
    1W        W63536  19.175  17.341   1.748 -0.2288  0.1513 -0.1790
    1W        W63537  21.328   0.680   9.343  0.0482  0.0440  0.0774
    1W        W63538  11.598   2.586   2.166 -0.0467 -0.1172 -0.0845
    1W        W63539  14.599  26.154   8.457 -0.0950 -0.0177  0.2557
    1W        W63540  24.680  14.190   7.323 -0.1590 -0.2202 -0.0575
    1W        W63541  23.060  24.789   1.871  0.0820 -0.2374 -0.0058
    1W        W63542   6.398   4.988   7.993 -0.0674 -0.1381  0.1288
    1W        W63543  15.798  26.811   1.223 -0.1107  0.1831 -0.1226
    1W        W63544   0.047  22.955   8.638  0.1877 -0.3915 -0.1531
    1W        W63545  18.025  22.243   9.069 -0.1574  0.2389  0.1919
    1W        W63546   9.240   8.548   7.246 -0.0703  0.4270  0.3477
    1W        W63547  25.538  26.622   9.541 -0.0788  0.3995  0.0261
    1W        W63548  12.669  17.637   2.621 -0.1568  0.1412  0.0122
    1W        W63549  25.452  18.979   6.540  0.0464 -0.2166  0.2280
    1W        W63550   2.963  14.866   1.481  0.0450  0.0368  0.1240
    1W        W63551  21.390  26.780   2.359  0.0728  0.2200  0.2238
    1W        W63552  13.591  11.967   6.574 -0.3042 -0.0916 -0.0351
    1W        W63553  11.619  15.069   8.958 -0.1019  0.3039  0.0810
    1W        W63554  19.269  16.645   2.456 -0.1399  0.0440  0.0819
    1W        W63555   2.086  22.978   2.746  0.1139  0.0258  0.0586
    1W        W63556   6.338  10.428   1.095  0.0201 -0.0662  0.2511
    1W        W63557  14.577   7.240   1.856  0.0912 -0.0749 -0.3989
    1W        W63558   8.655   3.229   8.236  0.1617 -0.0393  0.2429
    1W        W63559  22.008   9.807   7.917 -0.1051 -0.3450  0.1903
    1W        W63560  27.679   1.806   8.118 -0.0055  0.0292 -0.1658
    1W        W63561  25.795  14.294   5.772  0.0160 -0.1604  0.1835
    1W        W63562  26.476  14.977   0.626  0.2913 -0.1658 -0.2966
    1W        W63563  11.757  19.860   0.246 -0.3974 -0.0654 -0.0910
    1W        W63564  29.250   5.221   1.003 -0.2865  0.2278 -0.1137
    1W        W63565  29.785   8.685   6.652 -0.0766 -0.1372  0.3503
    1W        W63566   8.905  11.914   2.454  0.0365  0.3519 -0.4700
    1W        W63567  28.149  14.322   7.019  0.4269  0.2176  0.0883
    1W        W63568  28.098  24.804   6.123  0.0714  0.0397 -0.2486
    1W        W63569   6.835  27.772   7.789  0.0008 -0.0273 -0.2465
    1W        W63570  27.372   2.813   0.462  0.0773  0.1287  0.2787
    1W        W63571   1.024   5.480   7.283  0.1580 -0.0653  0.2772
    1W        W63572  10.738   4.051   9.453 -0.0105 -0.1260 -0.1732
    1W        W63573  18.612  12.159   0.625 -0.1389 -0.0541  0.0670
    1W        W63574   3.336  28.840   1.438 -0.1612  0.0172 -0.4408
    1W        W63575   6.404  18.306   7.502  0.4122 -0.2743 -0.0138
    1W        W63576  22.933   3.095   9.531 -0.2315 -0.1365  0.3799
    1W        W63577   7.005  11.004   8.787  0.0493  0.2252  0.1029
    1W        W63578  21.567  27.273   2.400 -0.3717  0.0277  0.1686
    1W        W63579   1.435  24.264   2.659 -0.1195 -0.0123 -0.3494
    1W        W63580  22.059  15.461   5.936 -0.1772 -0.1304  0.1202
    1W        W63581  17.879  12.044   0.706 -0.0712  0.4663  0.0576
    1W        W63582   5.559   2.941   8.683  0.2139 -0.2101 -0.3336
    1W        W63583   2.458   5.486   0.967 -0.0787  0.3154  0.0155
    1W        W63584   5.951  29.163   3.043  0.0649  0.1609 -0.2500
    1W        W63585  15.062  27.545   0.383  0.1298 -0.1619  0.0748
    1W        W63586  25.784  16.486   7.169 -0.1286  0.1227 -0.0213
    1W        W63587   1.073   1.011   6.402 -0.0749  0.1322  0.1211
    1W        W63588  20.020   1.527   8.628 -0.1024  0.2423 -0.2523
    1W        W63589   8.289  29.140   3.063  0.1800  0.1872  0.0511
    1W        W63590  29.370  12.192   2.526  0.0448 -0.1187 -0.3537
    1W        W63591  25.674  22.184   7.668 -0.1539 -0.0772 -0.0470
    1W        W63592   0.407  25.631   3.338  0.0490 -0.1696 -0.1909
    1W        W63593  16.978   2.592   2.851  0.3469 -0.3932 -0.2232
    1W        W63594  23.780  10.259   1.609 -0.4664  0.0408  0.0995
    1W        W63595  10.979   2.239   8.874 -0.0757  0.1820  0.2660
    1W        W63596  26.233  12.429   6.787  0.2029 -0.1376 -0.0696
    1W        W63597   0.065  21.435   1.811 -0.0972  0.1878  0.2580
    1W        W63598  12.237  22.788   0.996  0.0331  0.2026 -0.1449
    1W        W63599  26.674  28.737   7.214  0.2118 -0.0709  0.0230
    1W        W63600  12.158  24.448   0.899  0.0276 -0.1246 -0.2186
    1W        W63601  17.509  20.849   2.202  0.1952  0.2230 -0.5209
    1W        W63602   3.395   8.401   2.275  0.0468 -0.0781  0.2118
    1W        W63603   5.087   5.580   8.173  0.0459 -0.0010 -0.0734
    1W        W63604   3.675   4.238   8.428  0.1832  0.0960  0.0094
    1W        W63605  17.645  22.376   0.742  0.1041  0.1002 -0.2997
    1W        W63606   5.702   0.466   9.392 -0.2911 -0.0791  0.5244
    1W        W63607  10.595  11.153   1.075  0.0068 -0.1637 -0.0167
    1W        W63608  27.453  15.942   1.621  0.0316 -0.1084 -0.0567
    1W        W63609   7.135  27.296   9.368 -0.5042  0.0214 -0.0109
    1W        W63610  13.269   2.130   1.528  0.0859 -0.0934  0.1109
    1W        W63611  10.109  28.382   0.900 -0.0364 -0.0201  0.0179
    1W        W63612  29.147   7.957   2.242 -0.1583 -0.2775 -0.0886
    1W        W63613  15.816   2.329   7.541  0.0971 -0.0338 -0.0077
    1W        W63614   4.634   0.412   1.654  0.1738  0.2968  0.0854
    1W        W63615  10.003   6.876   0.503  0.1717  0.1175  0.2409
    1W        W63616  17.819  11.550   7.468 -0.0118 -0.3710  0.1005
    1W        W63617  19.535  17.269   0.796 -0.0662 -0.3545  0.2529
    1W        W63618  25.086  26.744   8.494  0.1766 -0.0010  0.2259
    1W        W63619  18.636   7.884   0.188 -0.0239  0.0332  0.1051
    1W        W63620  20.423  29.674   8.228  0.1157  0.0966 -0.0739
    1W        W63621  28.409   0.257   7.014  0.2540  0.2209 -0.2364
    1W        W63622  27.203   4.122   9.050  0.0005 -0.1491  0.3710
    1W        W63623   1.817  19.794   0.230  0.3278 -0.0547 -0.1059
    1W        W63624   3.473   2.764   0.283  0.3191  0.1863 -0.0279
    1W        W63625  29.236   4.627   7.668  0.3578 -0.0503  0.1158
    1W        W63626   1.045   2.006   2.978  0.0611  0.1089 -0.1302
    1W        W63627   2.072  24.240   7.427  0.3256 -0.4037 -0.4299
    1W        W63628  22.538  26.240   0.050  0.2182  0.1255 -0.1627
    1W        W63629  21.168  18.014   1.608  0.0663 -0.0686  0.2353
    1W        W63630   8.623  22.638   8.819  0.2253 -0.2630 -0.0264
    1W        W63631   7.133  28.536   1.940  0.1461 -0.0420  0.2064
    1W        W63632  27.266   9.909   7.004  0.2547 -0.0911 -0.2116
    1W        W63633   9.975   6.695   7.261  0.0843  0.0552  0.0373
    1W        W63634  13.498   4.212   7.443 -0.0860  0.1365  0.2250
    1W        W63635  28.264  14.726   8.636 -0.0540 -0.4110  0.3529
    1W        W63636  27.283  24.228   6.797  0.2436  0.1729  0.0592
    1W        W63637  25.244   2.030   2.448 -0.0367 -0.2841 -0.1932
    1W        W63638  25.054  23.204   1.757  0.1371 -0.1732 -0.3827
    1W        W63639   9.699   3.956   3.398 -0.0655 -0.2164 -0.3849
    1W        W63640   7.839   7.528   9.261 -0.2448 -0.0253 -0.2026
    1W        W63641  22.476  23.790   9.052 -0.1259 -0.2353 -0.0388
    1W        W63642   3.744  24.508   0.663 -0.0987  0.0511  0.0342
    1W        W63643   2.810  21.805   8.787  0.0086  0.0398 -0.0221
    1W        W63644  23.441  16.297   5.695 -0.1793  0.0397  0.0895
    1W        W63645  21.738  11.998   0.966  0.0969 -0.0170  0.1115
    1W        W63646  10.502  24.269   1.001  0.0685  0.1136  0.2299
    1W        W63647  21.169  21.346   1.446  0.0690 -0.2540  0.2568
    1W        W63648  25.638   8.031   8.456 -0.0599  0.0961 -0.2058
    1W        W63649   0.535  23.196   1.080  0.2423 -0.2389  0.1801
    1W        W63650  10.820  17.434   1.268  0.2691  0.2171 -0.0244
    1W        W63651   4.832  24.877   8.520  0.1184  0.0625  0.1310
    1W        W63652  17.239   1.487   6.366 -0.0157 -0.1958 -0.1838
    1W        W63653  27.618  27.897   1.900 -0.1873 -0.0335  0.0467
    1W        W63654  12.327  18.803   7.398 -0.0261  0.3856 -0.2721
    1W        W63655  13.898  22.747   8.676 -0.2068 -0.3206 -0.1721
    1W        W63656  14.819  14.442   1.747  0.1380  0.0672  0.2125
    1W        W63657  24.983   4.519   1.429 -0.0539 -0.2480  0.0213
    1W        W63658  25.278  12.239   0.038  0.0701  0.1552  0.1613
    1W        W63659  15.296  29.327   0.951  0.2355 -0.2465  0.1640
    1W        W63660   3.628  25.086   6.966  0.1679  0.1500  0.0521
    1W        W63661  16.173  23.403   0.973 -0.2469  0.1737  0.2511
    1W        W63662  19.427   7.221   3.015  0.0783  0.0838  0.0575
    1W        W63663   9.995   1.394   3.205  0.0279 -0.1782 -0.1220
    1W        W63664   0.119  20.770   2.516 -0.1842 -0.1766 -0.1514
    1W        W63665   0.934  24.345   2.486  0.0182  0.0790  0.2808
    1W        W63666   0.245   1.376   0.419  0.0495 -0.1515 -0.0027
    1W        W63667  28.508   6.903   7.223 -0.1824  0.0438  0.0406
    1W        W63668  27.204  28.155   7.632  0.1340 -0.0164 -0.3310
    1W        W63669  12.253  12.001   2.989 -0.0953 -0.0946  0.1416
    1W        W63670  12.364  21.250   0.189  0.0325  0.2066  0.0423
    1W        W63671  25.553   7.360   1.019  0.0390  0.1249 -0.3238
    1W        W63672  15.523   4.755   0.258 -0.0724 -0.0164 -0.0751
    1W        W63673  17.803  15.930   0.297 -0.3925 -0.1810 -0.1563
    1W        W63674  25.978  24.708   7.175  0.1705 -0.1466  0.0871
    1W        W63675   2.436  22.869   0.389 -0.1142  0.0152 -0.2520
    1W        W63676  28.420  19.975   6.802 -0.2193 -0.0209 -0.0296
    1W        W63677  18.700  19.540   2.250  0.4211  0.0973 -0.3481
    1W        W63678  29.386   3.087   1.322 -0.1085 -0.0185  0.0201
    1W        W63679   5.154  17.699   8.378 -0.0571  0.2056  0.1712
    1W        W63680  11.370   3.138   9.370 -0.1415 -0.0422 -0.0288
    1W        W63681   7.635  11.893   0.962  0.3160  0.0622 -0.2346
    1W        W63682  29.065  10.738   0.203 -0.1500  0.1142 -0.1213
    1W        W63683  15.179  11.910   8.244  0.4987 -0.1511 -0.0452
    1W        W63684   1.862  11.413   1.992 -0.0241  0.0867 -0.0457
    1W        W63685  20.371  21.978   6.732 -0.2793  0.0854 -0.4171
    1W        W63686  18.640  27.641   0.983  0.2136 -0.2490 -0.3973
    1W        W63687  28.468  23.181   0.921 -0.1671 -0.2078 -0.0608
    1W        W63688   0.629   7.131   3.169 -0.2971  0.1768 -0.0137
    1W        W63689  25.016   4.585   0.946  0.0732  0.2152  0.0324
    1W        W63690   7.255   2.636   0.781 -0.1476  0.2518 -0.1123
    1W        W63691  25.482  17.891   6.243 -0.1770 -0.1116 -0.0517
    1W        W63692   9.574  24.739   6.467  0.2538 -0.1958 -0.2412
    1W        W63693   5.290  22.765   1.083 -0.1526 -0.0882  0.0132
    1W        W63694  23.147  22.369   9.363  0.1439  0.0434  0.0196
    1W        W63695  21.242   9.858   0.472  0.0646 -0.1110 -0.0571
    1W        W63696  19.252   4.779   0.076  0.3336  0.0144  0.0937
    1W        W63697   2.466  28.546   2.056 -0.1066  0.1542  0.0866
    1W        W63698  19.835   6.536   2.771  0.1216 -0.2834 -0.0396
    1W        W63699   6.583  23.907   8.890  0.2461  0.0041 -0.0696
    1W        W63700   0.100  19.245   9.152  0.0856  0.3356 -0.0712
    1W        W63701  23.045   4.918   6.966  0.1656 -0.2120  0.2901
    1W        W63702  25.450  10.805   7.538  0.2993  0.0495 -0.0888
    1W        W63703   7.827   6.349   0.064  0.1380  0.0556 -0.1501
    1W        W63704  21.412   4.409   7.626  0.2214 -0.1268 -0.4895
    1W        W63705   8.398  17.164   1.477 -0.1246  0.1886 -0.3017
    1W        W63706  19.308  27.149   8.733 -0.0302  0.1819  0.0412
    1W        W63707   9.058  16.098   0.424  0.1182  0.0930  0.0974
    1W        W63708  18.583  23.098   1.748  0.1478  0.0961 -0.0347
    1W        W63709   2.005  10.233   0.089  0.1233  0.0295  0.0777
    1W        W63710  13.868   5.142   8.778 -0.0290  0.0639 -0.1139
    1W        W63711  11.174  17.780   1.271  0.0844 -0.1711  0.0028
    1W        W63712  10.392  14.207   7.061  0.2737 -0.0635  0.2646
    1W        W63713   1.170  20.412   8.648 -0.1263  0.0287 -0.3069
    1W        W63714  12.779  10.811   8.855 -0.3844 -0.1225  0.0934
    1W        W63715   6.996  10.010   6.877  0.1513  0.2036 -0.0423
    1W        W63716  15.890  28.679   7.488  0.2306 -0.4183  0.0342
    1W        W63717  27.941  15.579   0.221 -0.5069  0.3350 -0.1821
    1W        W63718  19.913   8.721   0.271  0.3793 -0.0764  0.0253
    1W        W63719   2.658   5.194   2.349 -0.3093 -0.2840  0.0880
    1W        W63720  19.047   8.789   0.257  0.1353 -0.2527  0.0145
    1W        W63721  16.243  12.126   7.661  0.0953  0.3344  0.2678
    1W        W63722  13.633  17.823   1.218  0.1875  0.5795 -0.2796
    1W        W63723   5.722   3.747   3.563 -0.1358  0.0554  0.0100
    1W        W63724  29.050  27.479   6.496 -0.0157 -0.2578  0.1212
    1W        W63725  10.695   1.635   1.097 -0.1405 -0.0572  0.0637
    1W        W63726  19.996  21.318   1.331  0.0458  0.1244 -0.1117
    1W        W63727  10.370  28.619   1.318  0.0381 -0.0924  0.0901
    1W        W63728  13.148   4.511   1.240 -0.0667 -0.3563  0.0487
    1W        W63729  18.166  12.507   8.134  0.3684  0.0363 -0.1209
    1W        W63730   5.295   6.857   9.169  0.1311  0.2198  0.2128
    1W        W63731  22.189  13.433   7.091  0.0060  0.1932  0.1698
    1W        W63732  20.652   0.680   2.181 -0.0074 -0.0944 -0.0841
    1W        W63733   5.633  25.514   2.916 -0.1409 -0.0666 -0.2009
    1W        W63734   6.817   3.858   9.071 -0.0374  0.2319 -0.0507
    1W        W63735  19.250  21.876   0.977 -0.2495 -0.2520 -0.1185
    1W        W63736  27.896   0.912   7.946  0.0604 -0.2464  0.1308
    1W        W63737   4.766   1.797   2.332  0.1917 -0.0779 -0.0675
    1W        W63738  21.599  24.491   3.284  0.2875 -0.2611  0.1792
    1W        W63739   5.208  21.247   0.643 -0.0520 -0.1895  0.0940
    1W        W63740  16.245  29.596   7.752  0.0958 -0.0797  0.0652
    1W        W63741   4.503   9.313   7.182  0.1080  0.4032  0.1911
    1W        W63742  15.426   5.287   0.188 -0.2290 -0.3035 -0.3834
    1W        W63743   9.514  19.295   1.240  0.0373  0.1814  0.1441
    1W        W63744  25.985  25.915   0.905 -0.0814 -0.1484 -0.1047
    1W        W63745   5.624   3.854   0.719  0.1731  0.1049  0.4836
    1W        W63746   2.125  23.095   8.228 -0.0559  0.2538  0.0381
    1W        W63747   4.125  24.438   7.216  0.0027  0.0410 -0.2398
    1W        W63748  27.208   8.795   1.149  0.4187 -0.3531  0.0318
    1W        W63749  25.299  15.040   0.231 -0.1371 -0.2213  0.0329
    1W        W63750  16.861  16.431   1.800 -0.0702  0.1658  0.1028
    1W        W63751  13.541   9.368   7.234  0.2010  0.0242 -0.1512
    1W        W63752  12.435   3.232   1.571 -0.0269 -0.0463 -0.4664
    1W        W63753  24.936   8.586   7.249  0.1918  0.0166  0.0736
    1W        W63754   0.192   8.023   7.451 -0.3610  0.0392 -0.0258
    1W        W63755  15.307  12.056   9.210 -0.0624 -0.2919 -0.1355
    1W        W63756  22.492   6.134   0.095  0.0233  0.1704  0.2823
    1W        W63757  13.488  27.372   8.387 -0.0077 -0.3757  0.1071
    1W        W63758  15.502   3.154   1.982 -0.1559  0.2000  0.3075
    1W        W63759   7.528  27.011   0.754  0.1426  0.0869  0.1865
    1W        W63760   0.726  17.040   8.824  0.0108  0.1726 -0.1781
    1W        W63761  12.590  27.962   9.418 -0.2385  0.1639  0.1354
    1W        W63762  12.499   6.171   8.412 -0.0979  0.0512  0.0896
    1W        W63763  10.096  23.719   1.547  0.1908 -0.1739 -0.1275
    1W        W63764  25.075  13.393   9.138  0.3420 -0.0002 -0.4093
    1W        W63765  14.674   3.124   2.142 -0.0478  0.0221 -0.2380
    1W        W63766   3.295  23.796   9.348  0.1572 -0.2216  0.1668
    1W        W63767  13.090   7.372   6.565  0.1615  0.2373  0.0321
    1W        W63768  19.392  28.935   7.305 -0.0898  0.3086 -0.0099
    1W        W63769  25.443  23.218   2.096 -0.0034 -0.0887 -0.0470
    1W        W63770  26.825  11.239   9.188  0.1204  0.2266 -0.1692
    1W        W63771  24.887  11.759   1.239  0.1461  0.2120  0.1828
    1W        W63772  21.150   1.894   7.917  0.1743  0.4409  0.0560
    1W        W63773  28.620   3.164   7.850  0.1940  0.0253  0.1003
    1W        W63774  27.953  23.573   0.275  0.0236  0.2679  0.1704
    1W        W63775   6.071  22.165   0.243  0.0164 -0.1567 -0.0695
    1W        W63776   9.680  21.966   9.143  0.0804 -0.1992  0.1606
    1W        W63777  13.607  11.928   2.354 -0.2317 -0.1848  0.0063
    1W        W63778  14.353   2.549   0.945 -0.0670  0.2333  0.0558
    1W        W63779   1.994  18.476   8.965  0.1419  0.3191  0.0558
    1W        W63780  11.883   4.321   1.450 -0.2353 -0.0143  0.0411
    1W        W63781   5.116   5.229   7.765  0.0677 -0.0335 -0.2883
    1W        W63782  16.809  16.069   8.844  0.1904 -0.1142  0.0367
    1W        W63783  25.719  19.449   8.761  0.0810 -0.0383 -0.0633
    1W        W63784  21.125   6.389   2.823 -0.0858 -0.1176 -0.0488
    1W        W63785  12.558   6.540   0.362  0.0310 -0.1235  0.0219
    1W        W63786  10.967   4.994   2.579  0.0574 -0.2503 -0.2804
    1W        W63787   7.871   9.567   0.569 -0.3589  0.1214 -0.0476
    1W        W63788  11.127   0.271   8.390 -0.1500 -0.0427 -0.0213
    1W        W63789  23.199   3.048   2.609 -0.0544  0.4124 -0.4020
    1W        W63790  27.370  18.093   6.376  0.2624  0.0481 -0.0880
    1W        W63791  21.087  29.383   8.529  0.3075  0.1480 -0.0645
    1W        W63792  12.656  27.256   1.120  0.2639  0.1519 -0.0240
    1W        W63793  11.140   3.705   8.661  0.0906  0.1758 -0.2696
    1W        W63794  21.950   6.104   2.505 -0.2215 -0.1412 -0.1464
    1W        W63795   3.751  21.722   8.956  0.2133 -0.3752  0.4594
    1W        W63796   9.786   5.686   1.918  0.0246  0.0088 -0.1427
    1W        W63797  25.620   2.351   8.956 -0.1540 -0.1216  0.1834
    1W        W63798   1.073  21.239   9.038 -0.3304 -0.2310 -0.0734
    1W        W63799   0.760  15.174   8.999  0.0004 -0.0525 -0.1568
    1W        W63800   3.752  27.356   8.574 -0.4332 -0.0771 -0.1773
    1W        W63801  23.892  23.322   7.009 -0.0153 -0.1953  0.0793
    1W        W63802  17.018   8.516   0.394  0.0865  0.0032  0.1697
    1W        W63803  29.563  21.001   8.977 -0.1883  0.0217 -0.0804
    1W        W63804  25.225   4.210   7.789  0.0820 -0.1040  0.1956
    1W        W63805  29.218  29.396   3.074  0.0398 -0.0794 -0.0096
    1W        W63806   4.761   8.222   1.953 -0.0178 -0.2992 -0.0127
    1W        W63807  27.524  22.706   7.239  0.0326  0.1938 -0.1434
    1W        W63808  20.583  17.445   7.264 -0.1587 -0.0618  0.1295
    1W        W63809   3.733  15.084   8.398 -0.2984 -0.1397 -0.1447
    1W        W63810  25.676  11.728   1.743 -0.2381 -0.1260 -0.2923
    1W        W63811  20.135  14.575   8.604 -0.1481  0.1414  0.0272
    1W        W63812  18.439  14.867   7.269  0.2266 -0.1969  0.2472
    1W        W63813  18.052  19.929   7.238  0.3100  0.0694 -0.0483
    1W        W63814   4.748  19.108   1.084  0.0422  0.2021  0.0178
    1W        W63815  17.628  17.756   7.836 -0.1040  0.0122 -0.0547
    1W        W63816  10.018  29.034   1.672  0.1474 -0.0762  0.0562
    1W        W63817  16.952  18.217   1.621  0.1016  0.1373  0.0783
    1W        W63818  23.954  28.458   1.837 -0.1265  0.1487 -0.0258
    1W        W63819  19.379  27.623   8.772 -0.0522  0.0277 -0.1105
    1W        W63820  10.869  19.492   7.404  0.0551  0.0687  0.0382
    1W        W63821  25.684   8.734   7.756 -0.0501 -0.1491  0.1927
    1W        W63822  19.703  24.519   1.085 -0.0393 -0.4413 -0.1339
    1W        W63823  11.252  13.812   2.412 -0.1700 -0.3763 -0.1272
    1W        W63824  12.635  10.430   6.549 -0.2614  0.1143 -0.2014
    1W        W63825  10.032   4.322   7.838  0.0938  0.0886 -0.1228
    1W        W63826  23.494  27.378   9.106 -0.3023 -0.2788  0.2274
    1W        W63827  16.683   6.982   9.263 -0.2471 -0.0597  0.0883
    1W        W63828   6.541  11.982   0.240 -0.2203 -0.0949 -0.2170
    1W        W63829  27.536   6.412   2.394 -0.0548  0.0668  0.2743
    1W        W63830  18.722  23.809   6.826  0.4626 -0.0069 -0.1088
    1W        W63831   1.951  16.120   1.322  0.0015 -0.1938 -0.1414
    1W        W63832   2.919   3.602   1.244  0.1216 -0.1966 -0.1933
    1W        W63833  17.470   2.815   2.843 -0.0442  0.0579 -0.0362
    1W        W63834   8.643  24.710   7.340  0.0700 -0.0268 -0.2226
    1W        W63835   6.513   5.164   2.403  0.1095  0.0033  0.2443
    1W        W63836   8.914  21.192   8.066  0.1343 -0.0833  0.1602
    1W        W63837   7.642  17.148   2.350  0.0533  0.2926  0.1237
    1W        W63838  19.527  28.796   1.766  0.2100 -0.1182  0.0489
    1W        W63839  12.179  17.320   7.226 -0.0736  0.2860  0.2762
    1W        W63840  24.212  17.356   9.381  0.1707 -0.2296 -0.2496
    1W        W63841  11.190  19.583   9.049  0.1111 -0.1378  0.0205
    1W        W63842   4.172  26.238   2.187  0.2310 -0.1200 -0.2633
    1W        W63843  23.420  13.246   1.849  0.1393 -0.3376 -0.0810
    1W        W63844  18.125   3.919   0.355  0.2464 -0.2013 -0.2881
    1W        W63845  15.254   2.413   9.545  0.0105  0.0623  0.0277
    1W        W63846   6.650  28.046   1.157  0.2275  0.0024 -0.1025
    1W        W63847   9.198   4.727   3.340  0.3103 -0.0613  0.1343
    1W        W63848   5.247   2.475   8.479 -0.0919  0.1064  0.0312
    1W        W63849   4.977  22.311   8.162  0.2082  0.1975  0.1307
    1W        W63850  18.560  23.245   7.170  0.0799  0.1020  0.2172
    1W        W63851   2.104  21.169   1.211  0.1880 -0.0464  0.1587
    1W        W63852  17.232   9.495   0.615  0.0767 -0.0536 -0.0737
    1W        W63853  14.884  14.868   2.462 -0.2337 -0.0857 -0.1037
    1W        W63854   7.622  17.470   0.289 -0.2815  0.2024  0.1458
    1W        W63855   1.784  24.498   7.767 -0.0393  0.1102  0.1974
    1W        W63856   2.446   3.783   6.264 -0.3583  0.1216  0.0931
    1W        W63857  17.308  11.040   2.825 -0.1280 -0.1985 -0.0562
    1W        W63858  14.412  26.524   1.613 -0.1814 -0.0769  0.0196
    1W        W63859   9.218  21.847   6.374  0.0735 -0.0229  0.1237
    1W        W63860  20.208  26.406   7.498  0.6081 -0.1519  0.2259
    1W        W63861  20.176  22.432   0.223  0.2332 -0.0661  0.2349
    1W        W63862  23.938  24.836   8.940  0.1186  0.1121  0.3487
    1W        W63863   7.283   9.490   0.683 -0.2149  0.1233  0.1911
    1W        W63864   6.378   4.351   9.164  0.2109 -0.2269  0.0655
    1W        W63865  17.786  13.925   6.319 -0.0780  0.0559 -0.1231
    1W        W63866   3.255  29.298   1.733  0.0807 -0.0843  0.0868
    1W        W63867  14.480  26.289   2.558  0.0531 -0.0864 -0.0357
    1W        W63868  27.733  18.662   9.051  0.0168  0.0667  0.1289
    1W        W63869  22.591  18.580   5.198  0.2449 -0.1237 -0.4898
    1W        W63870  18.629   1.111   1.875  0.1146  0.0036 -0.2796
    1W        W63871  23.968   4.585   8.698 -0.1458 -0.0809 -0.1015
    1W        W63872   6.704  10.635   8.991  0.0905  0.1439  0.0468
    1W        W63873  29.651   5.449   9.086  0.2373  0.3218  0.0195
    1W        W63874  15.659  25.620   6.669 -0.1653  0.0170 -0.2564
    1W        W63875  28.222   7.995   0.172 -0.0814 -0.1193  0.0353
    1W        W63876  19.207  26.561   9.363 -0.2647  0.2328 -0.1956
    1W        W63877  26.613  24.811   0.259 -0.1051 -0.1153  0.0058
    1W        W63878  11.737  27.342   6.673  0.0907  0.2681  0.2468
    1W        W63879  23.146  22.038   8.353  0.1800 -0.0877  0.0796
    1W        W63880   6.132  26.700   6.891 -0.1519 -0.1681 -0.1817
    1W        W63881  22.340   2.809   7.559 -0.1192  0.2398 -0.2298
    1W        W63882  24.208  16.842   9.224  0.1598 -0.3125 -0.1908
    1W        W63883   0.854  15.371   1.104  0.0122  0.5175 -0.0645
    1W        W63884  15.138   9.635   0.865  0.2533 -0.0054  0.2378
    1W        W63885   1.755  14.744   8.560 -0.1525  0.0794 -0.1832
    1W        W63886  22.993   5.045   0.520 -0.0730  0.3310 -0.1700
    1W        W63887  22.109  20.245   7.884  0.0503  0.0178  0.0537
    1W        W63888   3.892  26.226   1.730 -0.0233 -0.1089  0.0330
    1W        W63889  20.893  27.213   7.206 -0.0007 -0.1925 -0.2638
    1W        W63890   7.231  13.826   8.648 -0.0672 -0.0215 -0.2618
    1W        W63891  17.925  25.150   0.756  0.1528 -0.3391 -0.0751
    1W        W63892  14.052  29.368   0.765  0.3307  0.0820  0.0322
    1W        W63893   0.354  12.900   8.532  0.1145  0.0284 -0.1573
    1W        W63894   4.152   4.698   9.426 -0.2181 -0.3450 -0.0542
    1W        W63895  11.819  11.587   0.275  0.3007  0.0605 -0.3652
    1W        W63896   9.843   5.176   2.842  0.2144 -0.0492 -0.1495
    1W        W63897  10.950   0.397   7.029  0.1752  0.3172  0.1704
    1W        W63898   6.265   5.361   3.663  0.0164  0.3697 -0.2108
    1W        W63899  23.529  22.159   5.643 -0.2419 -0.1586 -0.0777
    1W        W63900   7.600   5.936   3.179 -0.1542 -0.2810 -0.1169
    1W        W63901   2.312  20.207   7.233  0.0465  0.4127  0.0151
    1W        W63902   1.408  20.243   9.034  0.1268  0.0593 -0.0896
    1W        W63903  29.789  12.633   7.973 -0.2075 -0.2895  0.1660
    1W        W63904  16.288  14.931   1.014 -0.0988 -0.1301 -0.1135
    1W        W63905   2.196   0.169   6.231 -0.0641 -0.5526 -0.1052
    1W        W63906  28.539  24.281   0.733 -0.0346 -0.4712  0.1200
    1W        W63907  23.875  21.306   2.568  0.0515 -0.1604  0.3761
    1W        W63908  23.583  20.070   8.027 -0.1208  0.2969 -0.0582
    1W        W63909  14.810  11.508   3.043  0.1690  0.1772 -0.0565
    1W        W63910  10.187  27.686   1.756 -0.2384  0.1240 -0.2389
    1W        W63911   2.835  12.380   0.268 -0.2066 -0.1303  0.2667
    1W        W63912  25.473  12.936   9.178 -0.3774 -0.2882 -0.0338
    1W        W63913   0.713  26.248   2.674 -0.4419 -0.0315  0.0764
    1W        W63914   8.985   1.107   0.553 -0.1517 -0.2447  0.0450
    1W        W63915   7.755  10.385   8.517 -0.0426  0.1136 -0.3753
    1W        W63916  20.336  26.015   0.254  0.1585  0.1635 -0.0269
    1W        W63917  19.535  29.695   9.002  0.0447  0.3717  0.2036
    1W        W63918   1.133  27.467   0.523  0.1159  0.3082 -0.2149
    1W        W63919  27.171  20.431   1.003  0.0816 -0.0070 -0.0860
    1W        W63920  27.754   0.149   6.337  0.2148 -0.1844 -0.1347
    1W        W63921  23.985  12.642   9.241  0.2131  0.0992  0.2598
    1W        W63922  14.165  24.202   8.896  0.1691  0.2991  0.0962
    1W        W63923  29.754  13.092   7.375 -0.0248  0.0198 -0.0959
    1W        W63924   4.063   0.889   0.062 -0.1006  0.1286 -0.0693
    1W        W63925  16.823   9.732   0.950  0.1273 -0.0061 -0.2511
    1W        W63926  25.965  12.704   0.589 -0.0613 -0.3285 -0.0993
    1W        W63927  19.588   8.886   6.580  0.1568  0.1579  0.0151
    1W        W63928  11.391   4.410   7.397  0.3592  0.0663 -0.3134
    1W        W63929  25.483  12.490   7.144 -0.0298 -0.2821 -0.0004
    1W        W63930   6.903   4.923   0.341  0.0712  0.2562  0.3088
    1W        W63931   9.649   8.220   2.661  0.2775  0.0443 -0.0369
    1W        W63932   2.447   2.585   3.213 -0.0431  0.2534  0.1599
    1W        W63933   3.960  19.611   0.171  0.1973  0.0286  0.3006
    1W        W63934  22.077  17.622   8.905 -0.1033 -0.1192 -0.0090
    1W        W63935  18.835  14.816   0.142  0.0637  0.0608 -0.0099
    1W        W63936  26.360   1.872   9.505  0.1265 -0.1702 -0.3092
    1W        W63937  21.637   4.864   1.551  0.0967  0.2300 -0.0747
    1W        W63938  23.303  22.066   8.847 -0.1388 -0.1647  0.0200
    1W        W63939   4.742  20.659   9.048 -0.1673 -0.1257 -0.2405
    1W        W63940  14.189   3.092   6.999 -0.0605 -0.2548  0.1556
    1W        W63941  10.501   9.321   7.140 -0.1283  0.0850 -0.0152
    1W        W63942   9.954   6.942   8.157 -0.0760  0.1310 -0.0531
    1W        W63943  20.691  29.094   3.542  0.0407 -0.0628  0.0763
    1W        W63944   2.397   4.212   1.846  0.0054 -0.2985 -0.0574
    1W        W63945   0.854  27.441   0.124 -0.1860  0.0392 -0.1879
    1W        W63946  10.293   2.630   8.182  0.2271  0.0380 -0.0909
    1W        W63947   7.636   1.168   8.485 -0.2725 -0.1938  0.2695
    1W        W63948   1.367  29.423   7.582 -0.1778 -0.0145 -0.0697
    1W        W63949   3.707   0.131   2.538 -0.1814  0.0110 -0.0981
    1W        W63950  18.810   7.676   2.434 -0.4915 -0.0062 -0.2142
    1W        W63951  22.755   1.671   0.397 -0.0812 -0.2623  0.1832
    1W        W63952   5.974  10.891   0.344  0.0092  0.3878  0.2557
    1W        W63953  21.850   8.221   0.440  0.0702  0.0407 -0.0347
    1W        W63954  14.874  26.391   6.627 -0.1419 -0.0827 -0.5327
    1W        W63955  10.492  14.879   1.421 -0.1065 -0.0292  0.1551
    1W        W63956  13.249  23.746   7.856  0.0405 -0.3624 -0.0083
    1W        W63957   7.713  29.247   2.965  0.1429  0.0838  0.1854
    1W        W63958  11.954   5.410   8.673  0.2335  0.0919 -0.2093
    1W        W63959  29.211   6.108   9.184  0.0882  0.2432 -0.1837
    1W        W63960  21.166  13.736   0.267 -0.2003  0.1067 -0.1831
    1W        W63961  10.849  14.271   8.751 -0.1762 -0.0807 -0.2177
    1W        W63962   0.152  18.406   9.094  0.1202  0.0310 -0.4133
    1W        W63963  15.215   8.876   8.064 -0.3990 -0.3077 -0.1396
    1W        W63964  19.171  19.502   6.771  0.2415  0.0015 -0.0462
    1W        W63965  19.260   1.072   7.043  0.0182 -0.1451  0.1608
    1W        W63966   0.169   4.340   9.331  0.1752  0.1183 -0.0416
    1W        W63967  18.578   8.220   0.621 -0.1250  0.0447  0.0038
    1W        W63968  15.776   5.296   1.266 -0.2005 -0.1078  0.0742
    1W        W63969   6.676   4.040   8.475  0.5023  0.2442 -0.1366
    1W        W63970   4.712  10.114   0.025 -0.0160  0.0257  0.3069
    1W        W63971  14.024   1.720   1.657  0.3080 -0.1316 -0.1348
    1W        W63972   4.567  20.196   2.278  0.0832 -0.0961  0.1302
    1W        W63973   7.821  17.002   0.181 -0.1534 -0.1769  0.0120
    1W        W63974  21.239  21.492   9.240 -0.0258  0.1197  0.4106
    1W        W63975  27.429  22.322   6.309 -0.0227 -0.2794 -0.0273
    1W        W63976   8.844   6.411   7.956 -0.1494 -0.1608  0.0781
    1W        W63977   2.095  28.432   1.664  0.4777 -0.0660  0.1311
    1W        W63978   9.773   5.586   9.136 -0.1610  0.2911  0.0274
    1W        W63979   1.698   7.079   0.539  0.0627  0.3255  0.1878
    1W        W63980  13.587   2.933   7.125 -0.1025  0.4243  0.0032
    1W        W63981  16.127  27.320   1.833 -0.0784 -0.0122 -0.1050
    1W        W63982   9.691   1.618   8.076  0.0554  0.2223  0.1050
    1W        W63983  14.073  16.770   0.528  0.0712 -0.3373  0.0918
    1W        W63984  16.862  11.263   8.706 -0.3323  0.0400 -0.0585
    1W        W63985  21.578   3.480   2.054 -0.0504 -0.0028  0.2859
    1W        W63986  24.188  29.166   7.239 -0.0262  0.0471  0.1588
    1W        W63987  19.171   9.096   2.422 -0.0036 -0.3044 -0.1574
    1W        W63988  17.727  10.566   9.290  0.1795  0.0154 -0.0270
    1W        W63989  29.463  12.268   8.744 -0.0233 -0.2872 -0.0811
    1W        W63990  23.301   8.089   2.530 -0.2140 -0.0921  0.1246
    1W        W63991  26.205  26.055   9.282  0.0754  0.1064  0.0735
    1W        W63992   3.569  10.939   0.019  0.1509  0.1907 -0.2134
    1W        W63993  19.648   7.431   0.422  0.0687 -0.0996  0.2030
    1W        W63994   5.325  29.680   8.272 -0.1340 -0.0651 -0.5207
    1W        W63995  19.930   4.681   8.719  0.3058 -0.0222  0.1544
    1W        W63996   8.990   5.652   2.049  0.1296  0.1773 -0.0498
    1W        W63997   1.609   7.957   7.592 -0.1163 -0.0734 -0.0913
    1W        W63998  29.616  18.716   8.999 -0.4609 -0.0713  0.3254
    1W        W63999  13.799   5.066   3.106 -0.0968  0.0005 -0.0362
    1W        W64000   1.620  27.002   2.729  0.1136  0.0510 -0.0693
    1W        W64001  27.024  14.468   8.485 -0.1923  0.1922 -0.2297
    1W        W64002  19.111   7.566   7.440 -0.0541 -0.3164 -0.0095
    1W        W64003  19.336  28.522   7.719 -0.0876 -0.0431 -0.0471
    1W        W64004  23.506  17.569   5.442  0.0554 -0.0276 -0.4611
    1W        W64005   0.559   7.989   9.150 -0.3144 -0.0676  0.1271
    1W        W64006  27.752   2.378   1.256  0.0391 -0.0366  0.3196
    1W        W64007  20.488   4.294   3.725  0.2059  0.2892 -0.1421
    1W        W64008   6.216   2.480   8.652 -0.0679 -0.0182  0.0328
    1W        W64009  24.952  22.414   0.444 -0.1226 -0.4292 -0.1468
    1W        W64010  20.889  22.281   0.077  0.0261  0.3128 -0.0007
    1W        W64011   4.478  24.852   7.184 -0.0076 -0.2282 -0.0644
    1W        W64012  22.872   1.841   2.401  0.2071  0.1057 -0.1336
    1W        W64013   6.267  29.131   2.039 -0.1275  0.1039 -0.4732
    1W        W64014   5.959  12.373   9.240  0.0103 -0.0717 -0.2304
    1W        W64015   7.875   1.401   6.889  0.1608 -0.0851 -0.0119
    1W        W64016   9.364  14.300   7.705 -0.0183 -0.1751 -0.0905
    1W        W64017   8.798  14.049   7.501 -0.1100 -0.1010 -0.2754
    1W        W64018  22.984  13.151   5.346 -0.2491 -0.0763  0.3316
    1W        W64019  20.280  19.196   1.547  0.2340 -0.0893 -0.2657
    1W        W64020  12.031  19.619   1.185 -0.1637 -0.1942  0.1542
    1W        W64021  28.800   1.251   7.477  0.1291  0.2159 -0.0521
    1W        W64022  18.231   8.422   1.905  0.0180 -0.1045  0.0510
    1W        W64023   1.272  10.812   9.516 -0.0292 -0.3111  0.0748
    1W        W64024  18.217  20.888   1.906  0.0439  0.2107  0.0451
    1W        W64025  24.506   0.980   7.208 -0.3442  0.0452  0.2088
    1W        W64026   3.718   3.136   0.816  0.1147  0.2680  0.1981
    1W        W64027  19.371  18.558   0.622  0.0178 -0.1736  0.1338
    1W        W64028  11.139   1.857   3.409 -0.0662  0.1508 -0.1302
    1W        W64029   3.701  29.531   1.531 -0.0586  0.2294 -0.0791
    1W        W64030  12.474   3.197   0.599 -0.0550 -0.0889 -0.1280
    1W        W64031  25.846   0.823   0.770 -0.0423  0.0566 -0.4734
    1W        W64032   1.897  11.505   7.852 -0.1125 -0.0253 -0.1403
    1W        W64033   9.833  26.184   9.377  0.1859  0.0106  0.3540
    1W        W64034   3.519  26.991   2.622 -0.1414  0.4110  0.0172
    1W        W64035   5.740   4.553   1.739  0.0286  0.1015 -0.0756
    1W        W64036  22.242  10.517   6.456 -0.0443 -0.2242  0.2281
    1W        W64037   4.836  13.548   2.278 -0.1192  0.0358  0.1665
    1W        W64038   6.591  17.799   1.770 -0.1856 -0.1343 -0.1129
    1W        W64039  25.237  12.491   5.778 -0.3358 -0.0895  0.1018
    1W        W64040   9.048  12.185   9.209  0.1391  0.0126  0.2434
    1W        W64041  17.793   3.922   8.581 -0.0770  0.1705 -0.4223
    1W        W64042  13.693  12.782   7.514  0.2541  0.2842  0.1436
    1W        W64043   2.931  15.377   8.462 -0.2946  0.2397  0.2741
    1W        W64044   0.723   8.889   9.160  0.1644 -0.2921  0.0545
    1W        W64045  21.229  20.881   1.844  0.1832  0.2548 -0.1951
    1W        W64046   4.886  18.223   0.911 -0.2116 -0.2148 -0.0070
    1W        W64047  20.619  12.626   6.057  0.2399 -0.1317  0.0086
    1W        W64048  24.759  22.312   7.789 -0.1377  0.1780  0.1394
    1W        W64049  16.412  24.910   0.432  0.2127  0.0073 -0.0341
    1W        W64050  28.044  17.287   8.880 -0.0568 -0.1541  0.1961
    1W        W64051  16.189  12.768   8.690  0.2752  0.2835 -0.0036
    1W        W64052  27.014  26.644   3.037 -0.0814  0.0611 -0.4552
    1W        W64053  20.213   7.881   7.230  0.1047  0.1177  0.1959
    1W        W64054  15.603   1.959   8.290  0.1571 -0.1701  0.2554
    1W        W64055  24.932   3.847   7.538 -0.1886 -0.0540 -0.0763
    1W        W64056  22.618  22.419   0.007  0.1635  0.1240  0.1373
    1W        W64057   3.048   3.582   8.296 -0.1483  0.2165 -0.3560
    1W        W64058  23.740  29.563   1.238  0.1225  0.0431 -0.0832
    1W        W64059   9.301  19.159   1.740  0.0899  0.3091  0.1646
    1W        W64060   3.343  25.406   9.248  0.0193 -0.0386 -0.0207
    1W        W64061   3.813   1.439   1.470  0.1681 -0.4156  0.0859
    1W        W64062  12.529  19.363   0.373  0.3325 -0.0120 -0.2476
    1W        W64063  10.492   3.988   0.852 -0.2858 -0.0488  0.2397
    1W        W64064   4.674  10.470   7.808 -0.0637 -0.1198  0.1306
    1W        W64065  23.440  13.444   7.125 -0.1792  0.2824 -0.2777
    1W        W64066  21.336  16.117   5.732  0.0759 -0.3544  0.0391
    1W        W64067  16.834  13.542   0.030 -0.1664  0.1514 -0.1246
    1W        W64068  18.025  11.232   2.693 -0.0829  0.1147  0.1921
    1W        W64069  23.100  18.448   6.607  0.1011  0.0365 -0.2210
    1W        W64070   7.962   5.533   7.648  0.0041 -0.0855  0.3404
    1W        W64071   3.236  18.558   0.322  0.0202 -0.2469 -0.0403
    1W        W64072  24.490  11.718   8.475 -0.1923  0.0697 -0.3974
    1W        W64073  21.384  23.183   6.976  0.1885  0.1823 -0.1700
    1W        W64074  20.236  23.808   1.519 -0.0564  0.0471 -0.1042
    1W        W64075   5.674  15.959   8.578  0.0269 -0.0873 -0.2061
    1W        W64076  26.097  11.873   9.407  0.0659 -0.0898 -0.0184
    1W        W64077  24.393  21.501   6.754  0.1369 -0.0147  0.0403
    1W        W64078  22.240  16.753   1.131 -0.0496 -0.1522  0.0893
    1W        W64079  12.686   1.060   8.965  0.0277  0.0753 -0.1102
    1W        W64080  12.560  23.613   9.020 -0.2322 -0.0196 -0.0191
    1W        W64081  22.351   5.884   8.269 -0.0383 -0.0309  0.3179
    1W        W64082  17.630  12.566   0.854 -0.0821  0.0008  0.0525
    1W        W64083   2.270  18.202   9.361 -0.1050  0.0944  0.1041
    1W        W64084  27.639  29.141   9.394 -0.4028 -0.0928  0.0123
    1W        W64085  25.907  20.409   6.152  0.0703  0.2448 -0.0032
    1W        W64086   6.881  23.754   7.180  0.0363  0.2240  0.0650
    1W        W64087   2.841  24.602   7.860  0.4482  0.1462  0.0157
    1W        W64088  28.895  22.452   0.582  0.1068 -0.0772  0.0620
    1W        W64089  18.021   3.393   7.467  0.0109 -0.0102  0.0866
    1W        W64090   7.254   7.098   7.619  0.1003 -0.1559 -0.2544
    1W        W64091  15.358  15.775   3.087 -0.1593 -0.1815  0.0458
    1W        W64092  27.722   5.854   6.725 -0.0944  0.3646 -0.0211
    1W        W64093  11.321  12.851   8.610  0.0201  0.1970 -0.2155
    1W        W64094   8.318  23.174   8.341  0.1793  0.0907  0.1433
    1W        W64095  17.332  18.906   0.204 -0.1511  0.0937 -0.1450
    1W        W64096  10.331  27.304   2.486 -0.2178 -0.0782  0.0734
    1W        W64097  29.517   8.168   0.245  0.0401  0.0142  0.1776
    1W        W64098  13.635  10.545   9.118  0.2788  0.0905 -0.0865
    1W        W64099   7.723  27.538   0.084 -0.1175  0.1526  0.0225
    1W        W64100   6.332   0.602   1.137 -0.1437 -0.0169  0.2414
    1W        W64101  17.676   1.447   2.612  0.2713  0.0624 -0.0706
    1W        W64102   8.973  10.322   8.110  0.4892 -0.1522  0.1204
    1W        W64103  19.509   0.007   1.497 -0.3314  0.4247  0.2760
    1W        W64104  25.989   1.975   0.307  0.4279  0.1442 -0.2362
    1W        W64105   8.421  13.756   1.175 -0.3588  0.0400  0.1249
    1W        W64106  27.985  15.873   8.735  0.0752  0.2604  0.1863
    1W        W64107   9.543   7.010   0.293 -0.0613  0.0843 -0.1509
    1W        W64108   4.717   6.301   7.120 -0.2785  0.2000 -0.2721
    1W        W64109   8.509  16.668   9.427  0.1326  0.2447  0.1359
    1W        W64110  14.972  10.187   1.210  0.1755 -0.1050  0.2724
    1W        W64111  12.595   6.385   2.401 -0.3431  0.0862  0.3203
    1W        W64112  14.265  11.057   0.010 -0.1126 -0.1535 -0.2474
    1W        W64113   8.257  20.399   0.292 -0.1398  0.0105 -0.1020
    1W        W64114  24.841  26.392   0.664 -0.1934  0.1342  0.0192
    1W        W64115   4.908  10.508   1.726  0.1154  0.1112  0.0881
    1W        W64116   7.863   7.006   7.439  0.5131  0.0439 -0.1215
    1W        W64117  24.299  28.696   7.164  0.0183 -0.0854 -0.2131
    1W        W64118  28.722  26.600   7.930  0.0782  0.0250  0.1956
    1W        W64119  15.819  10.393   8.377 -0.1423  0.1890  0.1463
    1W        W64120  17.038  10.448   8.101  0.1549  0.0485 -0.0718
    1W        W64121   5.028  21.102   2.194 -0.0120 -0.1651  0.2463
    1W        W64122  21.601  21.087   7.676 -0.3799  0.3389  0.2717
    1W        W64123   8.702   3.427   0.453 -0.0411  0.3479 -0.1032
    1W        W64124  15.509   4.954   9.357 -0.1352  0.4222 -0.1739
    1W        W64125  20.431  17.824   1.143  0.2843  0.1726 -0.0447
    1W        W64126  22.304  19.064   2.090  0.2270  0.1540 -0.2780
    1W        W64127   5.771  10.271   2.279  0.1608  0.1453  0.1446
    1W        W64128  25.585  21.725   8.154 -0.3354  0.1004 -0.0928
    1W        W64129  29.119  15.220   6.675  0.3540  0.0128  0.1584
    1W        W64130  28.145  14.858   6.453  0.3660  0.0538 -0.0390
    1W        W64131  18.164   9.441   6.971  0.2439  0.0549 -0.3989
    1W        W64132   9.171  21.715   0.897  0.1814  0.0263 -0.1775
    1W        W64133  20.635  15.612   7.548 -0.3422 -0.0666  0.0732
    1W        W64134   4.496  19.408   2.260 -0.1070  0.0625 -0.0771
    1W        W64135  22.438  18.438   6.933 -0.0529 -0.0783  0.0893
    1W        W64136   7.470  17.991   0.373  0.1515  0.0685  0.1433
    1W        W64137  12.695  23.396   7.177  0.1497 -0.0719 -0.1580
    1W        W64138   2.507  15.291   7.135 -0.0566 -0.2183  0.0243
    1W        W64139  19.173   0.943   1.777 -0.0604 -0.4763 -0.0520
    1W        W64140  25.607  12.401   0.407 -0.0331  0.0689  0.0763
    1W        W64141   6.587  20.240   9.441 -0.0318 -0.1432  0.0561
    1W        W64142   6.535  25.665   2.429 -0.0610 -0.2448 -0.0380
    1W        W64143  28.264  26.322   8.429  0.2886 -0.1131 -0.1576
    1W        W64144  10.911   5.090   0.461  0.0041 -0.1641  0.0650
    1W        W64145  25.700   3.697   1.752 -0.0668  0.2407 -0.3448
    1W        W64146  11.281   8.921   0.761  0.0725 -0.0991  0.2641
    1W        W64147  17.956  27.767   7.975  0.5123 -0.0043 -0.0037
    1W        W64148  14.204  24.896   0.296  0.0399 -0.4066  0.1589
    1W        W64149  12.540  22.948   2.038 -0.1125  0.0483 -0.1514
    1W        W64150  28.916  21.949   7.344  0.1094 -0.4901  0.0419
    1W        W64151  18.208  18.190   2.234 -0.0880 -0.1866  0.1565
    1W        W64152  19.961  27.816   9.368 -0.1716 -0.1479  0.0633
    1W        W64153  20.206   4.667   7.653  0.1435 -0.0664  0.2443
    1W        W64154  18.563  28.041   8.765 -0.0510  0.1132 -0.4696
    1W        W64155   2.642  17.359   6.239  0.1085  0.2427  0.1636
    1W        W64156   8.875  11.704   8.561  0.0395 -0.1772 -0.0234
    1W        W64157   4.524   0.477   0.072 -0.3491  0.0874 -0.2588
    1W        W64158  14.384  19.472   7.011 -0.1088 -0.0364  0.0720
    1W        W64159   2.494   0.674   1.937 -0.3808  0.0868  0.0401
    1W        W64160  26.778  27.419   1.697  0.1101  0.1672  0.0090
    1W        W64161  25.357   6.194   9.078 -0.0565 -0.2326  0.0625
    1W        W64162  18.033  10.122   9.321  0.2716  0.0432 -0.2766
    1W        W64163  19.554  24.679   8.304 -0.2793  0.1922 -0.3806
    1W        W64164  25.471   6.772   1.330  0.0774 -0.2909 -0.1019
    1W        W64165   8.205  11.472   2.223 -0.1202  0.0252  0.2091
    1W        W64166  23.912  10.006   6.639  0.0769  0.1225 -0.0047
    1W        W64167  26.411  20.352   1.720 -0.0041  0.2695  0.0817
    1W        W64168  10.873   4.742   8.909  0.0606 -0.1236  0.1298
    1W        W64169  27.274   9.580   8.254  0.2414  0.0043  0.0965
    1W        W64170   5.114  24.569   9.073 -0.1305  0.0257  0.0734
    1W        W64171  27.473  27.112   9.317  0.0590 -0.2037 -0.1152
    1W        W64172  23.908   5.476   8.950 -0.4039  0.2605  0.1611
    1W        W64173  15.177  19.767   2.207 -0.3988  0.0313 -0.0273
    1W        W64174  11.509  29.300   0.980 -0.1473 -0.0866  0.0370
    1W        W64175  14.763   1.338   8.054 -0.1343 -0.1337 -0.2600
    1W        W64176  28.509  24.804   6.733 -0.0238 -0.1109  0.0920
    1W        W64177   3.037  14.391   2.436 -0.1085  0.0642 -0.0168
    1W        W64178  16.344   5.085   8.341  0.0340  0.2925  0.0515
    1W        W64179  19.993  28.334   2.601 -0.1982  0.1672  0.0318
    1W        W64180   3.886   5.121   3.055  0.2184  0.4192  0.2745
    1W        W64181  29.747  25.416   0.920 -0.1505  0.0047  0.3764
    1W        W64182  28.108  29.171   1.782  0.1401  0.3163 -0.0027
    1W        W64183  15.788   1.442   3.523 -0.1101  0.2040 -0.0438
    1W        W64184   7.432  23.054   2.307  0.4155 -0.3253  0.0083
    1W        W64185   3.642  27.457   3.354 -0.0483 -0.2291  0.1857
    1W        W64186  13.725  12.067   1.854 -0.1248  0.1888 -0.2308
    1W        W64187  25.175   8.494   7.678  0.2148  0.0681 -0.1434
    1W        W64188   6.715  27.544   0.334  0.5035 -0.3067  0.0620
    1W        W64189  12.931  22.047   0.786 -0.1225 -0.0227  0.1893
    1W        W64190  24.401  20.266   1.736 -0.2012  0.0368  0.3504
    1W        W64191   9.837  18.342   1.038  0.1553 -0.0141  0.1898
    1W        W64192  27.417  19.541   9.269  0.1244  0.0593 -0.1607
    1W        W64193  16.008   4.732   8.519 -0.0732 -0.0906  0.4913
    1W        W64194  16.076   1.850   9.307 -0.0248  0.0013 -0.4613
    1W        W64195   7.884   8.420   8.493 -0.0758 -0.3432 -0.2006
    1W        W64196  19.600  28.729   0.930 -0.0059  0.2953 -0.0308
    1W        W64197  24.605   4.793   1.093  0.4236  0.2028 -0.0617
    1W        W64198  13.546  29.467   1.086  0.0366 -0.0238  0.0717
    1W        W64199  18.991  17.598   7.831 -0.2368  0.0543 -0.0426
    1W        W64200   0.320  23.181   7.635 -0.0300  0.3877 -0.0449
    1W        W64201  25.341   2.708   1.315  0.2272  0.1573 -0.1091
    1W        W64202   5.397  13.761   7.992 -0.0211 -0.0983 -0.0662
    1W        W64203  18.237  28.921   8.921  0.1339  0.0619  0.1169
    1W        W64204   5.904  24.159   2.267 -0.0949  0.2553 -0.2170
    1W        W64205   2.786  18.674   1.333  0.1785  0.1141  0.1170
    1W        W64206   5.073  17.992   0.138  0.0936  0.1145 -0.1790
    1W        W64207  14.779  26.254   0.085 -0.0321 -0.0220  0.0824
    1W        W64208  13.576  17.881   7.405  0.1205  0.3230 -0.0192
    1W        W64209  22.208   7.591   7.147 -0.0299  0.2764 -0.1995
    1W        W64210  18.642  28.236   3.018 -0.1341 -0.3215 -0.2102
    1W        W64211  25.916  28.836   3.069  0.1481 -0.1919  0.1899
    1W        W64212   2.841  20.785   6.943 -0.2001  0.5151  0.1327
    1W        W64213   3.857  20.865   9.370  0.0901  0.2511  0.2924
    1W        W64214   0.125  21.468   9.407  0.0484  0.2659 -0.2512
    1W        W64215  18.285  29.635   1.695  0.1387  0.0003  0.0617
    1W        W64216  21.713  20.809   6.154 -0.1050 -0.0722  0.0240
    1W        W64217  24.645  26.221   1.275 -0.1581 -0.1944  0.2513
    1W        W64218   5.227  24.651   7.696  0.0458  0.1836  0.0198
    1W        W64219  17.714  14.496   1.386 -0.2889 -0.0571  0.2681
    1W        W64220  19.689  13.433   1.235 -0.0400 -0.0064 -0.0614
    1W        W64221  28.646  26.861   0.843 -0.0819  0.0442  0.0080
    1W        W64222  26.165   9.833   8.193  0.0932 -0.0005 -0.2108
    1W        W64223  12.239   6.444   3.505  0.3919 -0.1420  0.1991
    1W        W64224  25.808   4.922   7.400  0.0008 -0.0995 -0.0551
    1W        W64225  25.858  24.875   6.692 -0.0685 -0.0132  0.0736
    1W        W64226   0.681  22.367   1.053  0.1934  0.2524 -0.0218
    1W        W64227  22.046  13.880   7.742 -0.0999 -0.0832 -0.1084
    1W        W64228  12.167  28.669   7.048  0.0235 -0.1497 -0.1708
    1W        W64229  12.933   6.325   0.780  0.1938  0.1970  0.1322
    1W        W64230   0.909  11.442   8.728  0.0500  0.0554 -0.0122
    1W        W64231   3.239  13.626   0.690  0.1970 -0.2553 -0.1478
    1W        W64232  15.738  13.177   5.847  0.0843 -0.0726  0.3162
    1W        W64233  27.359   3.937   1.295 -0.4519  0.0587  0.0804
    1W        W64234  21.441   7.156   7.873  0.3706  0.0221  0.3179
    1W        W64235   3.167  10.341   9.518  0.0302 -0.1589 -0.0311
    1W        W64236   2.294  20.109   0.714 -0.0257  0.1452  0.1607
    1W        W64237  21.431  13.152   2.211  0.1145  0.1280 -0.2791
    1W        W64238  29.786  10.005   0.183 -0.1077 -0.0717  0.1473
    1W        W64239   6.454   1.644   8.924 -0.1061 -0.0233  0.0072
    1W        W64240  26.812  23.119   7.648  0.0180  0.2839 -0.1948
    1W        W64241  26.770  16.112   0.900 -0.5193  0.1646  0.2484
    1W        W64242  16.044  24.243   2.194  0.0530 -0.0033  0.0166
    1W        W64243   8.010  25.276   6.805  0.3062 -0.2846  0.1974
    1W        W64244   0.043  18.165   7.492  0.1368  0.0816  0.0664
    1W        W64245  16.965  22.292   1.554 -0.2076 -0.3615 -0.2164
    1W        W64246  18.806   9.977   8.686 -0.0383 -0.2891  0.0633
    1W        W64247  19.353  22.551   8.843  0.0472 -0.0048 -0.1443
    1W        W64248   2.711  11.662   1.950  0.1252  0.0927  0.0422
    1W        W64249  22.172  21.142   8.543  0.2088  0.0783 -0.0469
    1W        W64250   0.223  17.994   1.428  0.2778 -0.0262 -0.0022
    1W        W64251  26.631   6.169   7.095  0.0253 -0.1620 -0.1053
    1W        W64252  17.159  16.498   0.896 -0.0345  0.1906 -0.2905
    1W        W64253  20.912  15.445   8.803 -0.2567  0.1467 -0.0103
    1W        W64254  23.221   7.117   2.797  0.1699  0.1218 -0.0016
    1W        W64255   7.370  23.622   0.996  0.2226  0.0595 -0.0765
    1W        W64256  12.118  26.602   1.374 -0.0094  0.1031  0.1627
    1W        W64257  27.138   0.947   1.844  0.1450 -0.0750 -0.2475
    1W        W64258  22.415   6.264   3.213 -0.1556  0.0185 -0.0763
    1W        W64259  28.733  19.986   1.211 -0.0489  0.1036  0.0155
    1W        W64260  21.769  24.390   7.882  0.3152 -0.1812  0.1787
    1W        W64261  21.712  24.896   8.257 -0.1178 -0.0026 -0.1583
    1W        W64262  26.296  21.113   7.144  0.1200  0.2992 -0.0129
    1W        W64263  14.536  14.537   2.248  0.1871  0.1230  0.0820
    1W        W64264  27.570  16.323   9.361 -0.2236 -0.0719  0.0366
    1W        W64265  17.045  18.981   0.589 -0.1844  0.0744 -0.2347
    1W        W64266  21.802  21.170   0.344  0.3552 -0.0941 -0.2282
    1W        W64267  23.805  29.714   4.028  0.0081  0.0166 -0.3787
    1W        W64268   6.024  20.100   1.429 -0.1275  0.2238 -0.2401
    1W        W64269  11.737   9.270   2.855 -0.0868  0.0845 -0.0803
    1W        W64270  24.392  12.647   7.595 -0.1040  0.2785  0.0210
    1W        W64271  28.104  26.950   7.792  0.1285 -0.0090  0.0813
    1W        W64272   0.920  26.751   8.607  0.2959  0.1234 -0.1313
    1W        W64273   2.508  28.130   9.356 -0.0689  0.0443  0.4230
    1W        W64274   3.956  22.741   1.229  0.0622  0.0864  0.1175
    1W        W64275  21.870  10.549   1.477 -0.0472  0.2487  0.1524
    1W        W64276  28.119  19.545   6.542 -0.1374  0.1299  0.2011
    1W        W64277   0.282  14.535   1.451  0.1210  0.1762  0.2998
    1W        W64278   2.437   0.593   7.836  0.0064  0.1912  0.0310
    1W        W64279  10.331  26.181   8.025 -0.2839 -0.1706  0.1744
    1W        W64280  20.580  11.583   0.544 -0.2143  0.0014  0.0924
    1W        W64281  26.006  11.179   1.652  0.0510 -0.1092 -0.0908
    1W        W64282   6.433   3.590   8.804  0.0953  0.0430  0.0168
    1W        W64283   1.985   7.046   2.228  0.1060  0.1196 -0.0537
    1W        W64284  18.820  17.225   6.492 -0.2648  0.0479 -0.2150
    1W        W64285  26.040  15.339   9.373  0.2049  0.3021 -0.1454
    1W        W64286  28.691   1.931   3.502  0.0458 -0.0939  0.0593
    1W        W64287  29.748  29.728   2.050  0.0053  0.2589 -0.1323
    1W        W64288  25.450  20.277   8.772 -0.2096  0.0492 -0.0136
    1W        W64289  15.302   0.129   0.961  0.0339 -0.0020 -0.1063
    1W        W64290  21.149   3.248   7.777  0.1186  0.0053  0.1724
    1W        W64291  23.336  11.735   0.268  0.0925  0.1372  0.0512
    1W        W64292  27.677  24.039   7.144 -0.0924 -0.1582  0.1913
    1W        W64293  28.471  15.619   0.231  0.0092 -0.0534  0.1983
    1W        W64294  28.274  22.195   0.651 -0.1459  0.0077  0.2877
    1W        W64295  26.416  17.930   0.710 -0.1576  0.0461  0.1313
    1W        W64296  16.141   5.459   6.698 -0.0994 -0.0792 -0.0827
    1W        W64297  19.431  16.792   0.268 -0.0230  0.0869  0.1043
    1W        W64298   0.792  22.512   6.613  0.1293 -0.2329  0.0858
    1W        W64299   7.944  13.899   7.659 -0.0556 -0.1399  0.1077
    1W        W64300   4.666  10.461   2.747  0.2476 -0.1689 -0.0736
    1W        W64301   4.921   7.143   9.254  0.1291 -0.3708 -0.0758
    1W        W64302  29.746   8.452   7.573 -0.0315 -0.2219  0.0064
    1W        W64303  23.136  15.592   4.987  0.2261 -0.0444 -0.2335
    1W        W64304   3.062   4.883   2.296 -0.0367  0.0357  0.3082
    1W        W64305  22.106  23.324   1.039  0.2396 -0.1939  0.0707
    1W        W64306   9.675   4.416   3.098  0.1846 -0.0974 -0.0088
    1W        W64307   7.070  28.904   7.830  0.2032  0.0895  0.1912
    1W        W64308   3.481   3.847   1.548 -0.2122  0.3567 -0.0178
    1W        W64309  28.560   3.215   9.021  0.2364 -0.1158 -0.2625
    1W        W64310   0.399   0.708   0.010 -0.1477 -0.3585  0.3688
    1W        W64311   9.755  17.072   6.678 -0.0293  0.1977  0.3534
    1W        W64312   5.986  16.144   6.802  0.0699  0.2254 -0.1250
    1W        W64313   1.145  14.568   1.065 -0.0866 -0.1453  0.0188
    1W        W64314  11.780  16.546   6.537  0.0694  0.3395  0.1967
    1W        W64315  29.298   0.532   2.682  0.2055 -0.2170 -0.2091
    1W        W64316  22.312  20.922   0.404  0.1039  0.1894  0.0176
    1W        W64317  28.840  21.073   0.819  0.2843  0.1783 -0.0062
    1W        W64318   8.252  10.292   8.708  0.1411 -0.1421  0.3240
    1W        W64319   9.671  27.758   3.559  0.1656 -0.0990  0.1960
    1W        W64320   9.725   3.299   2.612  0.2308 -0.1670 -0.0755
    1W        W64321  23.212  28.897   1.731 -0.0703 -0.0438  0.2541
    1W        W64322  20.077   8.005   1.102 -0.2969 -0.1542 -0.3682
    1W        W64323  14.527  25.791   0.231  0.0991 -0.2107  0.0487
    1W        W64324  10.017  16.213   6.891  0.0956 -0.1347 -0.0349
    1W        W64325  13.636   8.558   8.338  0.0263  0.3130  0.1246
    1W        W64326  23.960  21.469   6.076 -0.1468  0.2051  0.0027
    1W        W64327   2.590  16.998   6.657 -0.2178 -0.0297  0.4169
    1W        W64328  11.767  16.591   1.612 -0.3334 -0.0591  0.1351
    1W        W64329  14.839  21.730   2.141 -0.0391 -0.1128  0.0075
    1W        W64330  15.235   9.927   6.555  0.1789 -0.5016 -0.2459
    1W        W64331   0.734   5.637   0.174  0.1910 -0.1330  0.2842
    1W        W64332  11.157  29.710   8.735 -0.2134 -0.0536  0.0002
    1W        W64333  23.255  16.419   6.648  0.0933 -0.2502 -0.1212
    1W        W64334  29.011  21.541   0.726 -0.2014  0.2950 -0.2049
    1W        W64335  21.588  25.293   0.130 -0.0192 -0.3236 -0.0386
    1W        W64336  20.573  21.196   1.406 -0.0277 -0.1888  0.1991
    1W        W64337  25.982  26.409   1.160  0.0192  0.0092  0.2626
    1W        W64338  13.985   3.639   1.794 -0.3953  0.2093 -0.1659
    1W        W64339  24.066   7.081   2.411  0.0987  0.0867 -0.0382
    1W        W64340   6.111  20.754   6.556 -0.1803 -0.1151 -0.0610
    1W        W64341  12.321  29.131   7.963  0.1581  0.0614 -0.0023
    1W        W64342  10.062   9.311   1.700 -0.2128 -0.2250 -0.1368
    1W        W64343  14.066   7.347   1.885 -0.0465 -0.1160 -0.4563
    1W        W64344  11.500  12.805   0.571 -0.0810 -0.1281 -0.1210
    1W        W64345  16.798  14.917   0.237 -0.3844 -0.0751 -0.1472
    1W        W64346   6.651   6.222   0.380 -0.1665 -0.1761  0.0442
    1W        W64347  10.006  22.731   6.702  0.1648 -0.3389 -0.0623
    1W        W64348  11.825  13.590   9.288  0.1935  0.1783  0.3010
    1W        W64349   7.066  19.684   1.639  0.0803  0.0579 -0.3909
    1W        W64350  21.116  24.964   0.243  0.2490  0.4511 -0.1186
    1W        W64351   2.561   2.106   0.362  0.0951  0.2706 -0.0924
    1W        W64352  29.287   4.521   0.579 -0.1236  0.1762  0.0741
    1W        W64353  20.023  16.638   6.580  0.1572 -0.3337  0.0769
    1W        W64354  10.038  23.728   0.171 -0.2461 -0.2700  0.0573
    1W        W64355   4.290   8.225   8.264 -0.1657 -0.2584  0.2501
    1W        W64356   6.658  25.148   2.393 -0.1429  0.0832 -0.1504
    1W        W64357  15.140  26.661   7.269 -0.0068 -0.0420 -0.0546
    1W        W64358  22.823  14.180   7.549 -0.1310 -0.0785 -0.1360
    1W        W64359  22.306   6.357   2.128  0.0939 -0.0494  0.0357
    1W        W64360  21.013  12.790   0.110 -0.0304 -0.1121  0.1616
    1W        W64361  20.808  26.105   8.807  0.1007 -0.0376 -0.1204
    1W        W64362  21.245   3.477   1.609  0.0835  0.1896 -0.0272
    1W        W64363  11.014  26.513   7.299 -0.1344  0.1707 -0.1696
    1W        W64364  26.602  27.144   3.786 -0.1510  0.0502  0.3044
    1W        W64365  12.254   3.730   7.593  0.2492 -0.2930 -0.0154
    1W        W64366   1.124   2.559   2.972 -0.2008 -0.1012  0.3395
    1W        W64367   0.776  13.210   9.334  0.5352 -0.2066 -0.0940
    1W        W64368   6.475  22.736   6.589 -0.3243 -0.2449 -0.2077
    1W        W64369  14.123  15.114   1.346  0.0262 -0.1277  0.0584
    1W        W64370  23.492  28.590   1.486 -0.3387  0.4394 -0.1886
    1W        W64371  26.007  15.195   0.622  0.1030 -0.2187  0.1006
    1W        W64372   8.840  13.047   8.958  0.0605 -0.0266  0.0145
    1W        W64373  22.349   1.060   7.762  0.2789 -0.0733 -0.2659
    1W        W64374  22.698   7.248   1.550  0.0997 -0.0121 -0.0845
    1W        W64375  10.324  10.688   8.106  0.0590  0.0305  0.0716
    1W        W64376   1.793  24.985   3.192 -0.0087 -0.0020  0.0501
    1W        W64377   1.423  22.985   6.836  0.2889 -0.1159  0.2689
    1W        W64378  27.495  16.970   9.519 -0.0724  0.3735 -0.0247
    1W        W64379  20.377  14.572   9.233  0.1915  0.0620  0.0025
    1W        W64380  15.407  21.903   6.995  0.0094  0.2935  0.1542
    1W        W64381  28.779  11.851   7.149 -0.0864  0.0170 -0.0447
    1W        W64382   2.758   0.381   1.228  0.3749  0.2745 -0.0723
    1W        W64383  26.205  20.974   6.636  0.0072 -0.4024 -0.3596
    1W        W64384   3.142   5.090   0.364 -0.0286 -0.1356  0.0761
    1W        W64385  27.894  25.441   2.168 -0.1092 -0.2115  0.3034
    1W        W64386  17.855   1.979   2.782 -0.0797  0.1980  0.1241
    1W        W64387  21.634  26.507   2.832 -0.0673 -0.0738 -0.0158
    1W        W64388  16.027   9.329   0.640  0.1074  0.3420  0.2617
    1W        W64389   9.700  10.389   7.700 -0.0897  0.0998  0.1662
    1W        W64390  11.889  27.177   1.361 -0.2361 -0.1149 -0.1549
    1W        W64391  28.374  18.213   0.013 -0.1115  0.0820 -0.1129
    1W        W64392  21.930  11.815   7.785 -0.1998  0.0214  0.0113
    1W        W64393  21.955   5.413   2.313  0.2476  0.1995  0.1267
    1W        W64394   6.600  26.361   7.806  0.5231  0.0354  0.0584
    1W        W64395  23.394  13.646   0.328 -0.0335  0.4683  0.0778
    1W        W64396  16.298   5.158   1.169 -0.1240 -0.3222  0.1550
    1W        W64397  26.966   0.791   1.441  0.3057 -0.1484 -0.2762
    1W        W64398  18.791  14.132   7.079  0.0906  0.0947 -0.4817
    1W        W64399   1.916  27.294   8.989  0.0123 -0.0325 -0.0644
    1W        W64400   9.794  29.397   8.568 -0.3060 -0.2364 -0.0275
    1W        W64401  13.053   5.682   2.239 -0.0071 -0.0045 -0.4318
    1W        W64402   1.370  18.462   1.072 -0.2538  0.0353  0.0386
    1W        W64403  20.278  29.132   0.824  0.0107  0.0275 -0.2167
    1W        W64404  17.268   3.341   1.276 -0.1735  0.0711  0.1690
    1W        W64405  22.506  21.171   6.627 -0.1137  0.0812 -0.2105
    1W        W64406   2.813  23.648   8.950  0.1724  0.3273 -0.0760
    1W        W64407  22.899  14.566   5.359  0.4062  0.2846 -0.0771
    1W        W64408  12.609   9.725   8.926  0.0705 -0.2411 -0.0736
    1W        W64409  25.375  15.870   8.167  0.2321 -0.0430  0.0804
    1W        W64410  29.083   9.989   0.082  0.0546 -0.0440  0.0307
    1W        W64411   0.766  22.960   6.934 -0.3492  0.1302 -0.1068
    1W        W64412  17.129  12.932   8.899  0.1298 -0.0718  0.1073
    1W        W64413  23.678  11.248   0.981 -0.0530  0.1293 -0.1291
    1W        W64414  26.988   7.240   7.731 -0.1000  0.0693  0.0217
    1W        W64415  19.157  16.918   0.733  0.0625  0.2072 -0.3806
    1W        W64416   8.011  14.154   7.258  0.1600  0.1536  0.3626
    1W        W64417   6.329   5.173   0.378 -0.2649  0.0835 -0.0587
    1W        W64418  16.553  20.384   1.085  0.0299  0.0658 -0.2462
    1W        W64419  19.501  24.326   9.236 -0.1223 -0.1898 -0.0950
    1W        W64420   8.441   9.558   9.141 -0.1786 -0.1042  0.4458
    1W        W64421  24.231  19.362   0.553  0.2076  0.2119  0.3766
    1W        W64422  14.993   4.822   2.238  0.0813  0.2784  0.0811
    1W        W64423  24.780  28.473   7.236 -0.0337 -0.0208  0.2818
    1W        W64424   9.100  24.255   8.060  0.0613  0.1961 -0.1047
    1W        W64425  12.536  20.081   0.791 -0.3119  0.0830 -0.2648
    1W        W64426   7.019  18.752   1.567 -0.0390  0.0027  0.1553
    1W        W64427  21.276   1.543   2.760  0.0504  0.3099  0.0111
    1W        W64428   0.372   5.492   0.499  0.3138  0.0828 -0.0969
    1W        W64429   7.819  13.630   1.717 -0.1508 -0.1174  0.1214
    1W        W64430   3.502  27.365   7.515 -0.1178 -0.1887  0.1612
    1W        W64431  24.894   9.961   0.575  0.2681  0.0634 -0.1559
    1W        W64432  23.053   5.936   2.543 -0.0604  0.0263 -0.0231
    1W        W64433   9.805   7.305   8.477 -0.1845  0.1224 -0.0561
    1W        W64434  22.090  21.692   1.040 -0.3580  0.3410  0.1204
    1W        W64435   7.490   4.429   8.548 -0.1458  0.0459 -0.1736
    1W        W64436  12.806  16.793   9.046 -0.1653  0.0728 -0.0645
    1W        W64437  16.970  22.931   9.412 -0.1296 -0.1435 -0.1486
    1W        W64438  15.980  23.537   7.872 -0.3344  0.2090 -0.4082
    1W        W64439  18.126  20.269   8.208  0.2234 -0.1308  0.0066
    1W        W64440   1.367  11.563   6.746  0.0616  0.2039  0.0213
    1W        W64441  20.444  25.055   1.159 -0.1039 -0.1578  0.0506
    1W        W64442  27.945  29.378   7.625 -0.2445 -0.1518 -0.1919
    1W        W64443   8.873  29.684   2.521 -0.0494 -0.0123  0.1541
    1W        W64444  17.662  19.853   2.351 -0.1001 -0.0500  0.3269
    1W        W64445   7.842  12.851   2.926 -0.0846  0.1708  0.3445
    1W        W64446  17.399  16.808   7.598 -0.2342 -0.0902 -0.1537
    1W        W64447  16.096  16.903   3.168  0.2257  0.0237 -0.0733
    1W        W64448   5.157  18.066   7.953 -0.2144  0.4194  0.1396
    1W        W64449   3.958   6.076   2.476  0.1976  0.0472 -0.3589
    1W        W64450  10.849  16.412   9.122 -0.1070 -0.2251  0.0637
    1W        W64451  15.874  29.467   1.750 -0.0479 -0.0013  0.0828
    1W        W64452   0.152   5.151   8.195 -0.0455  0.0530 -0.1125
    1W        W64453  28.081  25.092   6.612  0.2795 -0.0065  0.0193
    1W        W64454  14.867  29.100   1.293 -0.0568  0.3325  0.0427
    1W        W64455  16.702  27.138   6.964 -0.1461 -0.1964  0.2987
    1W        W64456  12.195  13.087   7.360  0.0960 -0.1412 -0.0911
    1W        W64457   2.827   5.892   7.144 -0.2136  0.3237  0.0844
    1W        W64458  23.391   1.706   8.869  0.1245  0.2497 -0.2635
    1W        W64459  14.214  18.793   2.581 -0.3384 -0.1084 -0.0770
    1W        W64460  25.934  24.882   7.668  0.0865 -0.2687 -0.0362
    1W        W64461   4.788  25.756   9.244  0.0578 -0.0318  0.4098
    1W        W64462  17.934  22.751   6.821 -0.1520  0.0630  0.0538
    1W        W64463   8.361  27.691   3.140 -0.3048 -0.2717 -0.0198
    1W        W64464  16.604   9.616   2.214 -0.1149 -0.3739 -0.2570
    1W        W64465  16.560  10.125   6.251  0.1055  0.1374 -0.1646
    1W        W64466  27.771  29.791   2.574  0.0933  0.2359  0.1362
    1W        W64467  26.144  11.949   8.867 -0.2553 -0.0860 -0.0961
    1W        W64468   4.972  11.374   9.049  0.0584  0.2391  0.2770
    1W        W64469  28.688  10.483   6.727 -0.2626 -0.0152 -0.0922
    1W        W64470  10.094  14.404   2.111 -0.0951  0.1173  0.2136
    1W        W64471   6.257  13.208   0.312 -0.0451  0.2617  0.0509
    1W        W64472   2.999   1.357   8.810 -0.3283 -0.1659  0.0795
    1W        W64473  21.230   7.834   9.040  0.0426  0.1908  0.0773
    1W        W64474   0.033  27.849   7.511 -0.0944  0.0201 -0.0842
    1W        W64475  20.375   0.626   0.222  0.2704  0.5131 -0.0894
    1W        W64476  22.776  21.183   1.547  0.0852 -0.0053 -0.0828
    1W        W64477   0.572   6.363   2.717  0.0039 -0.1960  0.1002
    1W        W64478   4.826  28.421   8.803  0.0507  0.1860  0.0524
    1W        W64479  12.576  29.052   1.153 -0.2020  0.0927  0.0599
    1W        W64480  25.957   0.331   0.664 -0.2414 -0.0589 -0.3156
    1W        W64481  28.462   4.857   9.178  0.0069 -0.0067  0.2291
    1W        W64482  17.394  23.802   7.778  0.2755  0.0691  0.3190
    1W        W64483   9.672  29.778   8.251  0.2901  0.2339  0.2442
    1W        W64484  14.031  13.058   9.365 -0.2051  0.1119  0.1080
    1W        W64485  25.475  20.109   7.262  0.1303  0.2057 -0.0408
    1W        W64486  21.309  26.829   0.873 -0.2397  0.1263  0.0463
    1W        W64487  27.941  26.934   2.105  0.1216 -0.1241 -0.1203
    1W        W64488  26.584   0.344   2.459 -0.0512 -0.0720 -0.4202
    1W        W64489   9.732  20.052   7.548 -0.1733  0.0308  0.1370
    1W        W64490  12.402  25.144   9.504 -0.1892 -0.2706 -0.1439
    1W        W64491  28.566  12.770   8.091  0.2210 -0.0379 -0.0860
    1W        W64492  12.114  14.324   7.919  0.4660  0.0864  0.1008
    1W        W64493   9.546   4.782   2.765  0.2925  0.1577  0.2411
    1W        W64494  16.331   9.360   8.440  0.0142  0.0633  0.1331
    1W        W64495  27.847  20.471   1.040  0.1256  0.0741 -0.1463
    1W        W64496   2.702   9.582   9.367 -0.2195  0.0756 -0.0924
    1W        W64497  10.460   7.854   0.874  0.1746  0.1573 -0.1287
    1W        W64498   1.271   4.814   1.164  0.2132 -0.3048 -0.0713
    1W        W64499   0.547  24.869   1.887  0.1141  0.2306 -0.3316
    1W        W64500  13.417   9.154   1.308  0.1068 -0.0308  0.4284
    1W        W64501  26.973  13.237   8.151  0.3551  0.0761  0.1348
    1W        W64502  22.940   0.335   1.073 -0.0146 -0.0630 -0.0853
    1W        W64503   0.779  28.828   0.524 -0.2427 -0.2709 -0.3278
    1W        W64504   0.766   5.685   1.292  0.2338 -0.1955 -0.0550
    1W        W64505  19.818   1.102   8.862 -0.1255  0.3253 -0.0193
    1W        W64506   9.773  13.517   0.636 -0.1836 -0.1095 -0.3021
    1W        W64507  18.795   7.209   0.562  0.2542 -0.1114 -0.2224
    1W        W64508   3.299  20.516   0.594  0.1818 -0.1221 -0.1661
    1W        W64509   7.221  16.361   7.412 -0.2524 -0.1074 -0.1359
    1W        W64510  25.152  18.553   8.382 -0.2574 -0.1198  0.1836
    1W        W64511   2.024   6.872   2.918  0.0441 -0.0984  0.0913
    1W        W64512   7.705  27.598   8.025 -0.2003  0.2557 -0.1749
    1W        W64513  26.882  11.101   1.262  0.3106  0.0546 -0.1284
    1W        W64514  22.761  16.317   6.761  0.1953 -0.1614  0.0523
    1W        W64515  24.916  15.419   0.810 -0.3497  0.1896  0.1884
    1W        W64516   2.691  10.811   2.193  0.0120 -0.0796  0.0700
    1W        W64517  14.033   5.163   3.554 -0.2633  0.0685 -0.5667
    1W        W64518   5.313   6.068   1.467 -0.0007 -0.0675 -0.0520
    1W        W64519   1.614  22.391   7.151 -0.0644 -0.2643 -0.3620
    1W        W64520   1.344   2.915   0.044  0.0687 -0.0210 -0.3178
    1W        W64521  14.298  14.048   7.587 -0.0501 -0.1965 -0.2415
    1W        W64522  14.944  14.164   9.257  0.1981  0.1081  0.0434
    1W        W64523  23.110   9.919   7.772  0.1913  0.0723  0.0355
    1W        W64524   6.160  27.036   9.294 -0.1533 -0.0457  0.1693
    1W        W64525  11.074  29.042   1.884 -0.1213  0.0319 -0.1816
    1W        W64526   6.219  25.878   6.893 -0.0370  0.0830  0.1159
    1W        W64527  22.731  10.255   7.894 -0.0325 -0.1273 -0.0539
    1W        W64528   5.989   9.043   0.619 -0.1824 -0.2675 -0.0965
    1W        W64529  21.496  10.681   0.048  0.0598  0.0951  0.2425
    1W        W64530  26.136  22.803   7.030  0.1100  0.1433 -0.1817
    1W        W64531  25.785  15.571   8.726 -0.1602 -0.1554 -0.1246
    1W        W64532  20.984   1.026   8.753 -0.0451 -0.0964 -0.4305
    1W        W64533  29.237  16.693   1.343 -0.1688 -0.0392  0.2585
    1W        W64534   4.478  28.397   9.142 -0.3003 -0.2715 -0.0131
    1W        W64535   9.660  25.162   1.004 -0.0041  0.0214  0.1722
    1W        W64536   2.169   6.823   1.795  0.1122  0.1960  0.0585
    1W        W64537  26.057  20.665   9.386 -0.1879  0.0256 -0.0827
    1W        W64538  29.132  23.860   6.537 -0.0053 -0.1264 -0.1827
    1W        W64539   9.726  21.955   6.478  0.2577  0.1039  0.1231
    1W        W64540   1.631  25.779   0.634  0.2405  0.1449  0.0269
    1W        W64541  20.154   7.241   1.045 -0.0677  0.1632  0.0135
    1W        W64542  13.831  22.326   0.898  0.1608  0.2995 -0.1665
    1W        W64543  28.997   1.914   2.058  0.4038  0.0153  0.0202
    1W        W64544   1.174  24.096   1.126  0.3076  0.0130  0.0763
    1W        W64545  21.475  13.042   5.811 -0.1425 -0.1410  0.0239
    1W        W64546  29.093   4.425   1.764  0.0520  0.1773 -0.0949
    1W        W64547  20.320  12.456   7.038 -0.1815  0.2658 -0.1115
    1W        W64548  11.212  12.954   7.207  0.0203 -0.0381 -0.1317
    1W        W64549  24.693   9.531   8.780  0.1251 -0.1691  0.2210
    1W        W64550   8.614  19.845   7.454 -0.2044  0.1507  0.1288
    1W        W64551  15.731   0.049   0.229  0.0043 -0.0221 -0.2177
    1W        W64552  17.044  16.931   8.012 -0.0562 -0.1402 -0.0714
    1W        W64553  19.384  17.496   9.184  0.0493  0.1821  0.2508
    1W        W64554  22.474  16.388   0.783  0.0414 -0.0201  0.1145
    1W        W64555  11.184   2.239   3.897 -0.0768  0.1338  0.2662
    1W        W64556   8.083  13.368   2.337 -0.2787  0.0633 -0.0023
    1W        W64557  27.119  11.406   7.357  0.1759 -0.4075 -0.0078
    1W        W64558  27.957  10.220   1.741 -0.1110  0.0896 -0.0250
    1W        W64559  16.649  11.419   8.281  0.1043 -0.3099  0.1573
    1W        W64560  20.467  13.443   7.304  0.0769  0.4020 -0.0547
    1W        W64561  26.374   6.983   2.037  0.3674 -0.0508  0.2107
    1W        W64562   4.080  18.627   1.377  0.0003  0.2912 -0.0099
    1W        W64563   4.620  29.242   0.147 -0.0456  0.0648  0.1590
    1W        W64564  13.443  12.667   1.185 -0.0721  0.2616  0.5034
    1W        W64565  21.227  28.718   1.042 -0.0266  0.2489 -0.3266
    1W        W64566   3.189   3.964   8.586  0.0526 -0.3850  0.2553
    1W        W64567   4.538   7.675   6.893  0.0874  0.2349  0.2803
    1W        W64568  28.573  20.231   8.738 -0.1083 -0.0978  0.3365
    1W        W64569   1.573  12.942   6.445  0.0045 -0.0592  0.2731
    1W        W64570   8.374   4.673   1.845 -0.1343  0.0628 -0.0770
    1W        W64571  19.496   4.928   9.222 -0.2888 -0.1989  0.2016
    1W        W64572  26.264  22.127   6.528 -0.0898  0.0832  0.0115
    1W        W64573  12.110  24.290   6.976 -0.4048  0.0323 -0.0402
    1W        W64574   8.089   3.167   9.462 -0.1078  0.0089 -0.1027
    1W        W64575   9.852   0.835   3.572 -0.0415  0.5363 -0.1393
    1W        W64576  26.777  20.690   1.727  0.0191 -0.1521  0.1698
    1W        W64577   9.897  24.522   8.834  0.0558 -0.2850  0.0779
    1W        W64578  15.828  12.484   7.363 -0.1556  0.1439  0.1102
    1W        W64579   3.369   4.538   1.963 -0.1636  0.1186  0.0882
    1W        W64580  26.586  15.438   9.381  0.0868  0.1142 -0.5523
    1W        W64581  18.819  21.468   8.567  0.6007  0.0363  0.2806
    1W        W64582   7.316   6.286   0.181 -0.0472 -0.0479 -0.1679
    1W        W64583   6.049   9.547   8.713  0.1024  0.1467  0.1273
    1W        W64584   4.360  11.348   1.515 -0.2047  0.0335 -0.0678
    1W        W64585  19.907  18.688   1.610 -0.0790  0.1479 -0.2211
    1W        W64586  18.735  16.991   7.717 -0.0494  0.1401  0.1305
    1W        W64587  17.667  13.797   2.434  0.0633  0.2327  0.1701
    1W        W64588  22.102  18.923   7.772 -0.0258 -0.0830 -0.0437
    1W        W64589  13.805  13.259   7.208 -0.2152  0.0299 -0.1730
    1W        W64590  21.904  28.421   0.567  0.0912  0.0600 -0.1175
    1W        W64591  24.351  13.849   8.465 -0.0272 -0.0986 -0.0068
    1W        W64592  23.607  15.915   0.216  0.2535  0.1316 -0.0541
    1W        W64593  12.352  26.715   9.124  0.0558  0.1830 -0.0084
    1W        W64594   5.207  29.254   8.106 -0.2461  0.4071  0.1928
    1W        W64595  19.059  12.953   8.739 -0.1529  0.0984  0.2771
    1W        W64596   5.087  24.285   0.199 -0.0534 -0.0356 -0.0870
    1W        W64597  25.525  17.046   8.467  0.2921 -0.1787 -0.0265
    1W        W64598  28.199  20.496   6.142 -0.0281 -0.0537  0.0733
    1W        W64599  11.790  13.853   7.437  0.0131 -0.1560  0.0216
    1W        W64600  13.088   8.641   1.460 -0.3359 -0.2854  0.0300
    1W        W64601  21.315  14.160   0.415 -0.0911 -0.1446  0.0837
    1W        W64602  17.285  15.430   8.394  0.0509  0.2698  0.0729
    1W        W64603   6.862  20.178   2.098 -0.4260  0.1161 -0.2256
    1W        W64604  23.650  13.189   5.805  0.2042  0.0053  0.2057
    1W        W64605   3.614   6.223   2.195  0.0802  0.1522  0.1626
    1W        W64606   7.802   5.305   0.663  0.1255 -0.1918  0.0845
    1W        W64607  26.650   9.367   9.410 -0.1561  0.1604 -0.4280
    1W        W64608  29.428  13.289   1.962 -0.0928 -0.0885 -0.1209
    1W        W64609  14.936  11.523   7.122 -0.1442 -0.0495 -0.5728
    1W        W64610  13.788  27.685   1.746  0.3411  0.0989  0.1433
    1W        W64611   5.945   6.917   1.941  0.0482 -0.0956  0.3895
    1W        W64612  11.046   3.151   0.776  0.2513  0.3287  0.0107
    1W        W64613  28.495  26.032   7.532 -0.0864  0.1902 -0.1741
    1W        W64614   5.679   6.982   8.862 -0.0525  0.0906  0.1050
    1W        W64615  12.035  10.360   9.322  0.0882  0.3793 -0.2788
    1W        W64616  29.372  17.383   8.597  0.2021 -0.1339  0.1296
    1W        W64617   0.632   8.066   2.389  0.2316  0.0985 -0.1218
    1W        W64618  20.420  13.232   6.476  0.2517  0.2217 -0.2477
    1W        W64619  23.725  29.664   7.552  0.3079  0.3549 -0.0133
    1W        W64620  10.701  26.752   0.767  0.0482 -0.0761  0.0208
    1W        W64621  16.818  12.076   2.291 -0.1256  0.0918 -0.1300
    1W        W64622  21.128  12.944   7.654  0.1278  0.0720 -0.0570
    1W        W64623   4.435   2.197   2.272  0.0140 -0.0292  0.1840
    1W        W64624  22.425   6.721   8.755  0.0885 -0.2427 -0.1996
    1W        W64625   7.199  26.126   7.239 -0.4369  0.2130 -0.1433
    1W        W64626  28.915  25.718   8.010  0.0045 -0.1098  0.1183
    1W        W64627  21.427  26.193   8.121  0.0380 -0.1273  0.0421
    1W        W64628  26.959   2.168   0.235  0.2251  0.0575 -0.0453
    1W        W64629   4.312   4.897   8.773  0.0045  0.2114  0.1149
    1W        W64630   7.320  12.917   7.867  0.0531 -0.1124  0.2343
    1W        W64631  29.060  21.961   6.736 -0.1347 -0.0177 -0.1128
    1W        W64632  10.733  22.996   8.845  0.0922  0.0189 -0.1045
    1W        W64633  17.431  21.936   0.738  0.0550  0.2209  0.0285
    1W        W64634  19.533   6.616   8.683  0.2761 -0.2314  0.1042
    1W        W64635   3.558  23.923   7.677  0.0262 -0.3268  0.1383
    1W        W64636   3.842  25.072   8.294  0.1020  0.0577 -0.1569
    1W        W64637  28.392   7.397   1.371 -0.2159 -0.1346 -0.1371
    1W        W64638  19.078   0.014   8.369  0.1828  0.0699  0.3072
    1W        W64639  18.442   7.342   2.675 -0.0938  0.3391  0.3287
    1W        W64640  12.463   7.856   8.109 -0.2761  0.1526 -0.3119
    1W        W64641  10.541  18.813   0.837 -0.1118  0.0682 -0.2336
    1W        W64642   3.186   3.029   6.675  0.2436  0.2447  0.2045
    1W        W64643  15.210   8.286   2.403  0.0386 -0.3849  0.1729
    1W        W64644  15.881   3.942   3.419 -0.1965 -0.1074  0.0076
    1W        W64645   6.509   1.797   6.510 -0.0659  0.0511 -0.4360
    1W        W64646   9.924  10.450   8.965  0.2697 -0.0299  0.1784
    1W        W64647  15.647  26.831   2.537 -0.2368  0.1515 -0.5259
    1W        W64648  28.586  16.624   8.632 -0.0067  0.1514  0.1617
    1W        W64649   7.329  11.493   1.934 -0.0157 -0.0434  0.0332
    1W        W64650   2.421  10.832   6.812  0.1379  0.0548 -0.0241
    1W        W64651  24.554  22.052   0.345  0.1909  0.1914  0.2172
    1W        W64652  21.883  26.870   3.205 -0.1589  0.3135 -0.1040
    1W        W64653  23.318   7.303   2.319  0.0397 -0.2829 -0.1874
    1W        W64654  12.629   8.401   6.962 -0.1126 -0.2017  0.2613
    1W        W64655  27.398  27.217   6.711  0.2566  0.0446  0.1703
    1W        W64656  10.404  20.494   1.416  0.2713  0.0606  0.0867
    1W        W64657  19.354  24.726   6.691  0.1472  0.1231  0.1216
    1W        W64658   3.234  11.863   8.015 -0.1285  0.1268 -0.2290
    1W        W64659   8.024  24.642   1.550  0.0122  0.0643 -0.0556
    1W        W64660  15.312  28.780   6.901  0.1869 -0.3406  0.0435
    1W        W64661   4.718  27.506   1.068  0.0296 -0.1817  0.0669
    1W        W64662  17.282  21.149   8.635  0.1379 -0.0051 -0.0460
    1W        W64663   2.345   8.778   7.909 -0.0932  0.0481 -0.0597
    1W        W64664   9.672  12.758   9.502 -0.1533  0.1398  0.1763
    1W        W64665   2.361  24.670   7.571 -0.0080  0.3004  0.0042
    1W        W64666  11.589  27.695   7.399  0.0661 -0.2950  0.0936
    1W        W64667  10.824   1.636   8.457 -0.0665 -0.1323  0.3864
    1W        W64668   6.680   1.375   9.312  0.2560 -0.2834 -0.2536
    1W        W64669  21.471  14.311   9.106  0.1036  0.1178 -0.1894
    1W        W64670  10.846   5.533   7.404  0.1189 -0.0651 -0.0236
    1W        W64671  28.453   3.342   1.860 -0.3540 -0.3816  0.2515
    1W        W64672  18.456  28.289   8.266  0.3914  0.0389 -0.1596
    1W        W64673   7.473  20.830   0.716 -0.1080 -0.0441 -0.0073
    1W        W64674  26.011   7.674   7.879  0.2034 -0.2388  0.4590
    1W        W64675   5.764   2.641   8.384  0.0385 -0.3684  0.1674
    1W        W64676   0.585   8.142   8.652 -0.4077 -0.0256  0.2484
    1W        W64677   7.485  14.354   8.026  0.0740 -0.0833  0.1349
    1W        W64678  28.534   4.026   6.742 -0.1477  0.1300 -0.3567
    1W        W64679  22.187  19.935   2.653 -0.1050  0.0685  0.1513
    1W        W64680   9.034   0.459   0.730 -0.0591  0.0674  0.1677
    1W        W64681  15.707  23.585   1.554 -0.0200 -0.2306 -0.2091
    1W        W64682  27.790  27.673   2.885  0.0166 -0.0318 -0.1606
    1W        W64683  23.413  20.703   7.668 -0.1787  0.1689 -0.2178
    1W        W64684  23.261  15.152   8.882 -0.2588  0.0878 -0.1976
    1W        W64685  20.931   8.457   1.845 -0.1598 -0.0193 -0.1711
    1W        W64686  10.624   5.709   1.168 -0.2006 -0.1639 -0.2133
    1W        W64687   4.648  23.369   0.218  0.0961  0.1584 -0.0990
    1W        W64688  28.867  22.561   1.107 -0.0698 -0.0216 -0.1385
    1W        W64689  13.497   5.768   3.451 -0.0036 -0.1438 -0.0863
    1W        W64690   1.952  14.768   9.463  0.1144  0.2517  0.0370
    1W        W64691  18.377  16.596   7.800  0.1689  0.1015 -0.1786
    1W        W64692  15.475  19.872   7.575 -0.1146  0.3188 -0.1497
    1W        W64693   0.416  12.781   0.625 -0.3060  0.1056 -0.1741
    1W        W64694  21.047  26.803   1.947  0.0352  0.2570 -0.6109
    1W        W64695  17.050  12.447   8.839  0.1187 -0.1623  0.1131
    1W        W64696   6.691  18.255   0.642 -0.1399 -0.0490  0.2399
    1W        W64697  15.849  14.291   6.781  0.0655  0.1355 -0.0832
    1W        W64698   1.102  22.085   1.313 -0.1239  0.0283  0.3139
    1W        W64699  18.348  22.782   1.392  0.0379 -0.1148  0.3317
    1W        W64700  28.526  12.262   8.711 -0.0808  0.1330  0.2685
    1W        W64701  16.671  20.830   7.757  0.3653 -0.0116 -0.1368
    1W        W64702   9.472  22.414   8.277 -0.0756  0.0476 -0.1823
    1W        W64703  19.769  10.369   7.077 -0.2206 -0.0640  0.2127
    1W        W64704  29.065  25.734   0.498 -0.0143 -0.4802 -0.0612
    1W        W64705  13.872   1.172   7.739 -0.1281  0.0428 -0.2750
    1W        W64706  23.233  21.172   7.493 -0.0201 -0.0008 -0.0928
    1W        W64707  19.551  17.090   8.018 -0.4001  0.0136  0.2171
    1W        W64708  14.575   9.918   1.042 -0.0215 -0.2382  0.3250
    1W        W64709   6.497  17.855   1.163 -0.1060  0.0092 -0.0165
    1W        W64710  15.356  25.525   1.447 -0.2098  0.0208  0.3778
    1W        W64711   6.281   3.679   3.044  0.2560  0.2137 -0.3228
    1W        W64712   9.725  12.104   2.043  0.1973  0.0396 -0.0683
    1W        W64713  21.796   6.984   1.942 -0.1731 -0.3905 -0.2950
    1W        W64714  14.488  15.985   8.227 -0.0268  0.0079 -0.0227
    1W        W64715   5.063   7.777   1.946 -0.0452  0.0885  0.1974
    1W        W64716  12.360  11.471   0.616  0.0722 -0.1657 -0.0704
    1W        W64717  29.348  26.269   0.103  0.1251  0.2500  0.2800
    1W        W64718  19.216  13.994   9.453  0.1976  0.0634 -0.2449
    1W        W64719  20.387   5.198   0.855  0.1398 -0.3051  0.1093
    1W        W64720  16.725  15.961   0.026  0.3794  0.1481 -0.1545
    1W        W64721  10.510  13.877   0.768 -0.4083 -0.2934  0.4241
    1W        W64722  23.942  16.139   0.549 -0.0867 -0.0193  0.0087
    1W        W64723   9.195  28.650   8.525 -0.1044  0.0238 -0.0306
    1W        W64724  12.936   6.960   1.707 -0.2444  0.1943 -0.0274
    1W        W64725   4.602  18.808   8.757 -0.0684  0.1593 -0.0235
    1W        W64726  24.492   7.345   8.268  0.1706 -0.2902  0.0805
    1W        W64727  22.541  10.081   8.362  0.2617 -0.1608  0.3679
    1W        W64728  18.893   7.876   7.092 -0.2141  0.1705  0.2306
    1W        W64729   8.692  14.197   1.335  0.0385 -0.0603 -0.0246
    1W        W64730   7.768   9.487   7.064 -0.0083 -0.4247 -0.0206
    1W        W64731  18.505  14.568   8.599  0.0255 -0.0168  0.2095
    1W        W64732   0.457  19.602   9.016  0.2748  0.0112  0.0321
    1W        W64733  16.567  22.655   0.612  0.1569  0.0294  0.0244
    1W        W64734  27.977   4.511   0.560 -0.3405 -0.2633 -0.2429
    1W        W64735  19.856  25.024   8.566 -0.1698  0.0515  0.1167
    1W        W64736   9.698   1.231   7.665  0.2573  0.5048 -0.0094
    1W        W64737   8.978  18.258   1.638 -0.0087  0.3034 -0.1797
    1W        W64738  24.127   1.419   2.507 -0.2066  0.3313  0.1001
    1W        W64739   8.775   7.738   7.841 -0.1968 -0.1866 -0.1100
    1W        W64740  18.781  11.916   8.848 -0.0770 -0.1680  0.0418
    1W        W64741   1.651  14.681   9.042  0.0607  0.0540  0.2126
    1W        W64742   6.273  10.619   6.364 -0.0264  0.1387  0.0239
    1W        W64743  21.601   3.165   8.859  0.1788  0.0540  0.0966
    1W        W64744   6.048  22.692   6.830 -0.3024  0.0212 -0.0598
    1W        W64745  22.753  28.057   3.543 -0.0433 -0.1673 -0.0316
    1W        W64746  10.758   7.062   9.109  0.0798 -0.0229  0.1955
    1W        W64747  10.520  12.429   6.997  0.1248  0.0972 -0.0975
    1W        W64748   9.095  10.670   0.759  0.1477  0.2180  0.3462
    1W        W64749  22.403  20.617   8.902  0.2392  0.1803 -0.1146
    1W        W64750  10.087   3.853   1.369  0.2101 -0.0539 -0.0675
    1W        W64751   5.211   3.609   1.013  0.2759 -0.0365  0.2534
    1W        W64752  11.670  25.272   6.706  0.1133 -0.1010 -0.0707
    1W        W64753   4.578  13.816   1.909  0.1092 -0.0927 -0.1627
    1W        W64754  15.212  10.474   1.534 -0.1125 -0.0911 -0.0595
    1W        W64755  24.972  11.512   7.934 -0.3416  0.2886  0.0068
    1W        W64756  26.128   5.901   3.361  0.0935 -0.0171  0.0877
    1W        W64757  23.643   3.044   0.261  0.1055 -0.1926 -0.0095
    1W        W64758   3.508  16.331   7.679  0.0313 -0.1106  0.0461
    1W        W64759   1.724  26.255   0.737 -0.0921  0.0255 -0.1941
    1W        W64760  29.670  12.993   8.365  0.0827  0.0032  0.0406
    1W        W64761  12.723  18.805   6.964  0.2153 -0.1310  0.0773
    1W        W64762   6.053  14.397   0.169  0.2501  0.0064 -0.2216
    1W        W64763  19.780  18.964   7.781 -0.1294  0.1261 -0.1069
    1W        W64764  21.717  24.051   8.720  0.1191  0.2629 -0.0407
    1W        W64765   1.660  11.366   1.474  0.0745 -0.0246 -0.1374
    1W        W64766   5.629   5.209   9.244  0.0483 -0.1793 -0.2179
    1W        W64767  10.917  23.582   2.289 -0.3899  0.1107  0.1015
    1W        W64768  20.006   1.367   3.775  0.1745  0.1701  0.0659
    1W        W64769   3.647   0.549   0.144  0.0404 -0.2317  0.0256
    1W        W64770   7.669   6.030   8.806  0.0389 -0.2082  0.1640
    1W        W64771  28.167  14.267   1.471  0.0132  0.2072  0.2093
    1W        W64772   3.894  29.727   7.914  0.0377  0.0311  0.1609
    1W        W64773   8.971   5.698   9.551  0.0536  0.2163  0.0270
    1W        W64774  22.923  22.838   9.286 -0.1127  0.1496 -0.1343
    1W        W64775  23.738   5.523   1.662 -0.0897 -0.3175  0.1193
    1W        W64776  17.764   0.203   2.980 -0.1064  0.1427  0.2408
    1W        W64777  23.903  20.456   7.815  0.0063  0.2173  0.0512
    1W        W64778  20.123   3.280   9.140 -0.3067 -0.3932  0.2371
    1W        W64779  22.117  27.215   2.191  0.1496  0.2667  0.1800
    1W        W64780   7.774   8.607   7.128  0.0808 -0.0346  0.1592
    1W        W64781  23.510  15.982   6.512  0.0392 -0.0829 -0.1760
    1W        W64782  28.307  18.094   7.276  0.0540 -0.0239  0.1676
    1W        W64783  20.572  13.049   8.300  0.0567  0.2006  0.0598
    1W        W64784  23.678  17.121   6.242 -0.2423 -0.2156  0.0799
    1W        W64785  18.203   6.892   2.605  0.0389 -0.0716 -0.1282
    1W        W64786   2.340   0.081   8.437 -0.0670 -0.0597 -0.0996
    1W        W64787  20.765  10.550   1.341  0.1008 -0.0214 -0.0233
    1W        W64788  11.517  27.447   8.637  0.0247  0.1978  0.0902
    1W        W64789   5.024  14.216   0.125  0.0683  0.1949  0.2467
    1W        W64790   5.573   7.357   2.682 -0.0018  0.1838 -0.1919
    1W        W64791  13.309   1.341   9.343 -0.1745 -0.3015  0.2612
    1W        W64792  21.131  26.407   9.074  0.0338  0.1443  0.0599
    1W        W64793  16.293  10.088   7.486  0.6406  0.1330  0.1677
    1W        W64794  15.132  18.944   8.921 -0.0084  0.1819  0.2534
    1W        W64795  24.844  23.071   2.683  0.3670 -0.0799 -0.3364
    1W        W64796  20.706  21.455   7.124  0.1095  0.1491 -0.2922
    1W        W64797  12.752   5.064   2.456  0.1824  0.3251 -0.0929
    1W        W64798   1.965   5.233   9.155  0.1331  0.0518 -0.1056
    1W        W64799   5.973  18.488   8.536 -0.1273 -0.0452 -0.0787
    1W        W64800  29.182  14.182   9.482  0.1113 -0.2381  0.0616
    1W        W64801  10.454  17.470   0.879  0.0568  0.2306  0.3337
    1W        W64802  15.271  15.333   1.823  0.2256  0.0306  0.0689
    1W        W64803  13.054  29.673   7.189  0.1306  0.0701 -0.0716
    1W        W64804  25.361  19.095   6.041 -0.2557  0.0068  0.3357
    1W        W64805   4.994   5.499   1.395  0.0569 -0.2926 -0.1692
    1W        W64806  22.521   1.852   9.541  0.1948 -0.1743  0.5550
    1W        W64807  29.460  14.846   7.673 -0.1322 -0.1283  0.1715
    1W        W64808  17.802  14.093   5.820 -0.1917  0.0105  0.0303
    1W        W64809  23.295   4.358   7.895  0.2995  0.1278  0.2339
    1W        W64810  17.346  29.588   8.353  0.2052  0.0494  0.0114
    1W        W64811  18.163  15.761   1.595 -0.1273  0.3892 -0.1423
    1W        W64812  26.716  27.407   9.372 -0.1344 -0.0665  0.1011
    1W        W64813   1.069   1.012   1.293  0.0425 -0.0583 -0.1104
    1W        W64814  23.084  16.269   0.199 -0.0125 -0.0306 -0.0713
    1W        W64815  20.008  19.781   7.325 -0.0736  0.1883 -0.4868
    1W        W64816  24.679  21.116   2.182 -0.0471  0.3621 -0.1139
    1W        W64817  10.995  19.114   9.051 -0.0214  0.1701 -0.0060
    1W        W64818  25.043   1.286   1.741  0.4093 -0.0517 -0.0414
    1W        W64819   9.561  10.287   2.428  0.1425 -0.0913  0.1634
    1W        W64820  14.498  13.636   2.454 -0.0569  0.2272  0.4191
    1W        W64821  14.689  23.150   1.336 -0.1647 -0.6255  0.3414
    1W        W64822  26.422  23.110   6.803  0.1974  0.1861  0.1126
    1W        W64823   1.399  18.244   1.612 -0.2406  0.0717 -0.1126
    1W        W64824  23.670   5.880   8.728  0.0227  0.0409 -0.0184
    1W        W64825  28.485  12.216   0.385 -0.2091 -0.0014  0.1705
    1W        W64826  19.906  15.429   6.822  0.1840  0.1348 -0.0356
    1W        W64827  22.616  10.632   8.260 -0.1770  0.0378 -0.1861
    1W        W64828  13.565  25.395   6.445 -0.0328  0.1018  0.0782
    1W        W64829  21.804  16.977   1.031 -0.2196 -0.0004  0.3815
    1W        W64830  14.569  20.054   2.396 -0.3698  0.0155  0.2362
    1W        W64831  19.125  28.544   2.645 -0.0013  0.0395  0.0101
    1W        W64832   8.451  10.180   1.221 -0.0181 -0.0881  0.1830
    1W        W64833   0.495  24.473   0.051  0.0238 -0.2866  0.1807
    1W        W64834  23.978  22.428   8.251  0.1692  0.0115 -0.2349
    1W        W64835  21.552  26.937   8.817  0.2698  0.1391  0.0256
    1W        W64836   6.589  28.389   3.195 -0.0320  0.0186 -0.4963
    1W        W64837  18.821   2.685   8.938 -0.2602  0.0375  0.1385
    1W        W64838   4.600   9.367   0.141 -0.0294  0.1063 -0.0762
    1W        W64839   2.818  23.329   3.189 -0.2166  0.1287 -0.2557
    1W        W64840   6.098   2.845   0.001  0.3250  0.0067  0.2006
    1W        W64841  19.816  23.607   1.230  0.1180 -0.0127  0.1565
    1W        W64842  22.468  13.128   5.279  0.0711  0.1366 -0.1442
    1W        W64843  13.666   1.541   7.399 -0.1960  0.2025 -0.0296
    1W        W64844  12.303  10.395   8.479  0.0463 -0.2701  0.0000
    1W        W64845   5.069   6.518   1.365 -0.1850  0.0120  0.0678
    1W        W64846   3.210   7.875   7.525  0.0788 -0.1757  0.1518
    1W        W64847  15.598  27.470   6.839 -0.2342 -0.0404 -0.3203
    1W        W64848   6.635  19.292   6.629 -0.1563 -0.1783 -0.1153
    1W        W64849   0.361   2.828   7.180  0.0659 -0.3647  0.1641
    1W        W64850  25.015   5.586   3.118  0.2156 -0.3340 -0.0352
    1W        W64851   1.948  13.357   0.016 -0.1667 -0.1780 -0.0139
    1W        W64852  28.790  22.543   8.766  0.1588  0.0787  0.0907
    1W        W64853  16.750   4.618   1.372 -0.0367  0.0774 -0.4538
    1W        W64854  28.490  25.544   6.515  0.0100 -0.2231  0.1580
    1W        W64855  21.934  25.394   7.696  0.1073 -0.1050  0.4340
    1W        W64856  27.350  17.710   0.034  0.2551 -0.0416 -0.1241
    1W        W64857  13.706   7.176   1.611  0.2320  0.0035  0.1839
    1W        W64858   5.030   1.014   9.386  0.0484  0.1299 -0.0076
    1W        W64859  14.381  25.409   2.996 -0.0536 -0.0639  0.0828
    1W        W64860  15.524  28.242   1.663 -0.1539  0.1600  0.1837
    1W        W64861  24.591  16.755   8.162 -0.3133 -0.3237 -0.2474
    1W        W64862  18.164  28.153   7.108 -0.3872  0.0912  0.0940
    1W        W64863  13.575   0.201   2.940 -0.2920 -0.0134 -0.2157
    1W        W64864   9.950   2.165   9.134 -0.0685 -0.2904  0.3118
    1W        W64865  25.310  15.348   9.339  0.0469 -0.1480  0.3147
    1W        W64866  16.068   3.908   1.860  0.1201  0.0246 -0.0093
    1W        W64867  25.487   9.111   0.891 -0.1843 -0.0515  0.3515
    1W        W64868   5.902  26.149   8.970  0.2018  0.1792  0.1645
    1W        W64869  12.952  28.190   1.191  0.3075 -0.0615 -0.4798
    1W        W64870  10.818   7.370   3.727  0.0848 -0.0866  0.1663
    1W        W64871  25.658   8.868   8.317  0.1602 -0.1976  0.1437
    1W        W64872  28.239  26.126   2.478  0.0636  0.0619  0.2485
    1W        W64873  12.788   8.734   2.362  0.0528  0.3124  0.1451
    1W        W64874  13.438  23.642   9.378  0.0518 -0.1371 -0.1603
    1W        W64875   1.629  20.634   8.745  0.1169  0.3133  0.1867
    1W        W64876  26.911  11.143   6.667 -0.1912 -0.2577  0.3355
    1W        W64877   7.495  21.630   7.679  0.2645 -0.0258 -0.0892
    1W        W64878   0.502  23.955   9.337  0.2459  0.3779 -0.3787
    1W        W64879  28.935  13.282   1.293 -0.0049  0.3887  0.1267
    1W        W64880  13.080   9.324   2.691 -0.2743 -0.0931  0.1551
    1W        W64881  22.242  24.623   7.171  0.1326 -0.1483  0.0638
    1W        W64882   9.334   0.776   7.889  0.2596 -0.2511  0.0785
    1W        W64883  15.034  12.111   0.684  0.1349 -0.2680  0.1120
    1W        W64884   8.094  24.303   6.982 -0.1122 -0.3639  0.2297
    1W        W64885  15.205  25.852   0.483  0.1257 -0.1672  0.0391
    1W        W64886   2.933  24.396   0.147  0.0151 -0.2551  0.0130
    1W        W64887  28.224  22.432   9.413 -0.2322 -0.0936  0.1345
    1W        W64888   2.688   0.598   0.161 -0.0398  0.1666 -0.0118
    1W        W64889  16.247  27.410   7.124  0.0589 -0.1388 -0.0849
    1W        W64890  24.602   2.330   7.182 -0.1566 -0.2037  0.0693
    1W        W64891  16.207  11.138   2.222  0.1221 -0.1242  0.0308
    1W        W64892   1.755  12.935   7.667 -0.0915  0.1015 -0.2099
    1W        W64893  27.906  10.090   7.556 -0.1882 -0.1058 -0.0508
    1W        W64894  20.879  15.882   5.699 -0.1240 -0.3794  0.1646
    1W        W64895  13.435   0.655   1.478  0.0253 -0.1055  0.0646
    1W        W64896  23.279   6.669   2.934  0.1027 -0.1977  0.2259
    1W        W64897  25.337   8.116   7.390 -0.1344 -0.1341  0.4203
    1W        W64898   6.898  27.801   9.331  0.0871 -0.0245  0.1101
    1W        W64899  27.612  14.755   0.240  0.1323  0.3573 -0.1250
    1W        W64900  12.809  26.888   0.872 -0.1285 -0.1200  0.2237
    1W        W64901   1.921   7.362   1.715  0.1788  0.4339 -0.0757
    1W        W64902   4.003  14.302   8.132 -0.3321  0.0884 -0.0619
    1W        W64903  12.953   4.518   1.751 -0.1999  0.0389 -0.0855
    1W        W64904  27.150  17.343   0.636  0.0833 -0.3339  0.0686
    1W        W64905  25.356   0.753   0.095  0.1004  0.3375 -0.1104
    1W        W64906  16.469   0.648   9.143 -0.0488  0.0712  0.0599
    1W        W64907  17.283   1.742   9.127  0.1318 -0.1933 -0.0676
    1W        W64908   4.815  23.462   2.877  0.2136  0.0847 -0.2063
    1W        W64909  26.685   5.605   7.741 -0.5397 -0.1915  0.1779
    1W        W64910  21.466  22.367   1.493  0.0510  0.0975 -0.1739
    1W        W64911  24.301  27.114   1.010  0.0106  0.1844  0.0688
    1W        W64912  21.125  27.798   8.558 -0.0258 -0.2696  0.2653
    1W        W64913   5.931  13.655   1.113 -0.2526 -0.0340  0.4738
    1W        W64914   2.147   3.236   7.817 -0.0927  0.0346 -0.1337
    1W        W64915   7.673  19.214   6.921 -0.1111 -0.1225 -0.0524
    1W        W64916  29.133  25.717   7.424 -0.0663 -0.0860  0.0940
    1W        W64917   2.279   7.026   8.186  0.1298  0.2604  0.1074
    1W        W64918  13.991  19.758   2.464  0.2123 -0.3000 -0.3601
    1W        W64919   5.307  24.137   2.503 -0.1058 -0.2847 -0.0374
    1W        W64920   6.130   4.845   0.734 -0.0559 -0.1242 -0.2227
    1W        W64921  22.436  11.840   6.010 -0.0039  0.1632 -0.1930
    1W        W64922  25.273  24.300   9.201  0.0650 -0.2871 -0.3815
    1W        W64923  11.997   8.097   0.160 -0.1612  0.1000 -0.1098
    1W        W64924  17.632   7.698   2.377  0.1607  0.3258 -0.1932
    1W        W64925  23.954   6.898   7.527 -0.0976  0.0993 -0.1431
    1W        W64926  19.543  27.464   9.246  0.3177 -0.4740  0.0014
    1W        W64927   5.992   5.445   7.336  0.2629  0.0504  0.2772
    1W        W64928  24.518  22.616   0.243 -0.1404  0.0740  0.0093
    1W        W64929  12.798  17.114   0.517 -0.0684  0.0507 -0.3503
    1W        W64930  12.213   9.496   9.435 -0.1235  0.1343  0.0588
    1W        W64931   0.064  23.330   0.910 -0.0322 -0.1642  0.1653
    1W        W64932  20.887  24.061   0.067 -0.2525 -0.2010 -0.2971
    1W        W64933  12.791   5.710   8.479  0.4895 -0.1885 -0.0906
    1W        W64934   9.241  23.646   0.754  0.3963 -0.0367 -0.0520
    1W        W64935   9.551  20.960   1.339  0.2409  0.0805 -0.1121
    1W        W64936  17.831  20.826   3.076 -0.0930 -0.2914 -0.0123
    1W        W64937  27.443   0.224   2.218 -0.1190 -0.1885 -0.0010
    1W        W64938  25.349   6.750   7.143  0.2579  0.2096 -0.0717
    1W        W64939   0.588  16.581   7.220 -0.2390  0.2053  0.1150
    1W        W64940  23.793   2.981   1.566  0.0970  0.3579 -0.2686
    1W        W64941   7.324   8.885   2.652 -0.0969 -0.0551  0.2749
    1W        W64942  18.320  23.780   6.447  0.0774  0.2673 -0.3495
    1W        W64943   3.192   1.198   7.822  0.1605  0.1275 -0.2348
    1W        W64944   3.090  10.604   2.032 -0.1571 -0.0627  0.0605
    1W        W64945  26.768  23.408   8.140  0.1481 -0.2972 -0.0522
    1W        W64946  28.548  22.426   0.182  0.1679  0.0514 -0.1818
    1W        W64947  14.419  15.237   0.964  0.1423 -0.1587 -0.2237
    1W        W64948  14.343  10.966   1.651 -0.1742  0.1514  0.0604
    1W        W64949  22.961  28.634   7.767 -0.0354 -0.2655  0.0749
    1W        W64950  12.197   8.295   7.994  0.1353 -0.1869 -0.2126
    1W        W64951  21.755  19.970   9.108  0.2104 -0.1414 -0.1174
    1W        W64952   9.587   9.114   7.102 -0.0222  0.2221  0.1470
    1W        W64953  26.782  20.049   9.175  0.0288  0.0008  0.0532
    1W        W64954   8.316  20.799   2.301 -0.2461  0.1107 -0.0638
    1W        W64955  17.909   4.854   2.866 -0.0533 -0.0015  0.0369
    1W        W64956  18.533   7.836   8.828  0.0991  0.2700 -0.0965
    1W        W64957  26.206  25.535   1.290 -0.1965  0.2069 -0.2828
    1W        W64958  18.104  11.952   1.531  0.0543 -0.2454 -0.1998
    1W        W64959  11.007  25.399   7.609 -0.1197 -0.4670  0.0789
    1W        W64960   0.457   7.936   1.536  0.1900 -0.0886 -0.0327
    1W        W64961  16.248  22.338   0.924  0.3655  0.0807 -0.0232
    1W        W64962  22.750  25.734   7.640  0.0802 -0.0588 -0.2951
    1W        W64963  20.376  20.532   1.416  0.1462 -0.1624  0.2572
    1W        W64964  21.149   5.550   2.415  0.0826  0.1178 -0.0857
    1W        W64965  22.071  24.769   8.935 -0.1187 -0.0887 -0.0996
    1W        W64966   0.508   6.614   8.104  0.0310  0.0811 -0.1917
    1W        W64967  21.990   9.124   7.367 -0.2039 -0.0967 -0.2704
    1W        W64968   1.995  16.139   0.282  0.1790  0.0333  0.0803
    1W        W64969  15.385   7.406   2.482 -0.1708  0.2037  0.1394
    1W        W64970  12.015   0.077   2.125 -0.2141  0.0033 -0.2507
    1W        W64971  17.720  22.462   7.125 -0.0976  0.0503  0.1679
    1W        W64972   2.715  12.832   1.737  0.0407 -0.1964 -0.0508
    1W        W64973  26.923   7.832   9.000 -0.1156 -0.3066 -0.0960
    1W        W64974  28.140  16.611   7.116  0.0974 -0.0307 -0.1811
    1W        W64975  14.095  16.126   9.525 -0.3324  0.2401 -0.1064
    1W        W64976  26.572  15.764   0.518 -0.0382  0.0165 -0.0633
    1W        W64977   6.668  20.840   7.136  0.3219  0.1337  0.1590
    1W        W64978  27.894  19.490   8.589  0.1715  0.0717 -0.0180
    1W        W64979  25.828  12.285   9.411  0.3240  0.1315  0.2913
    1W        W64980   5.880   4.103   3.240  0.0447 -0.0275 -0.0365
    1W        W64981   2.124  18.546   6.595 -0.0610  0.0861 -0.3405
    1W        W64982  22.091  21.514   0.540 -0.3563  0.0145  0.3910
    1W        W64983  20.359  19.220   8.017  0.4160 -0.2919 -0.0676
    1W        W64984  17.123  17.469   8.189  0.1582 -0.1953 -0.3170
    1W        W64985  19.637  21.299   2.361 -0.1158 -0.0951 -0.3436
    1W        W64986   6.905   6.661   7.520 -0.0512  0.1123 -0.1246
    1W        W64987   9.206  12.710   9.217 -0.0858 -0.1547 -0.0489
    1W        W64988   5.570   9.784   9.536  0.0459 -0.3590 -0.1292
    1W        W64989   9.269  18.550   7.233 -0.2064  0.1100 -0.0863
    1W        W64990  26.878   7.177   1.028 -0.0128  0.3518  0.0766
    1W        W64991  18.041   3.059   1.413  0.1760 -0.0579  0.5376
    1W        W64992   4.840   2.394   1.521  0.0330  0.1330  0.0539
    1W        W64993   5.856   0.945   0.333 -0.0533  0.2214 -0.0502
    1W        W64994  14.162   6.106   6.814  0.2024  0.1094  0.1130
    1W        W64995  29.217  22.645   8.089  0.3225  0.0501  0.2640
    1W        W64996  20.837  14.188   2.377  0.1483 -0.1793 -0.1436
    1W        W64997   4.421   3.352   8.711  0.1052 -0.1068 -0.0087
    1W        W64998  19.576  16.985   2.133  0.0294 -0.0841 -0.1656
    1W        W64999  12.586  16.788   2.757 -0.1017  0.0225 -0.0348
    1W        W65000   6.682  15.771   2.567 -0.2115  0.1125 -0.3423
    1W        W65001   1.525  29.551   8.982  0.0601  0.0890  0.0949
    1W        W65002  13.499  23.187   0.082  0.0620 -0.0045  0.0398
    1W        W65003   4.273  17.332   8.385 -0.0967 -0.4058  0.0122
    1W        W65004   5.578  28.349   7.693 -0.0454 -0.0742 -0.1716
    1W        W65005   1.133  26.628   1.481 -0.1315 -0.1033  0.2308
    1W        W65006  22.467  19.642   6.274 -0.1370  0.1279  0.0829
    1W        W65007   7.750   7.605   2.914  0.1190  0.0294 -0.1088
    1W        W65008   1.494  27.597   7.224  0.1871 -0.0434 -0.1552
    1W        W65009  26.270  28.475   7.184 -0.1210  0.0491 -0.0552
    1W        W65010  27.326   0.453   1.671  0.1048 -0.2024  0.2596
    1W        W65011   9.877   2.222   0.064  0.0422 -0.5175  0.3104
    1W        W65012   4.670  25.929   7.055 -0.3367  0.2472 -0.0216
    1W        W65013   3.782   0.217   8.983  0.1116 -0.0692 -0.0824
    1W        W65014  11.596  12.216   9.262 -0.0093 -0.1022  0.2124
    1W        W65015   7.994  24.985   8.679  0.0847  0.0815  0.1569
    1W        W65016  11.170  14.961   0.721 -0.3639 -0.2905  0.0423
    1W        W65017  28.685   9.878   7.537  0.1202 -0.1558  0.0960
    1W        W65018  16.974   7.282   1.136 -0.2029  0.1246  0.0689
    1W        W65019  27.460   7.409   2.323 -0.3012  0.2847 -0.1376
    1W        W65020  13.299  18.237   7.643 -0.0123 -0.0920  0.0196
    1W        W65021   9.101   4.469   8.277 -0.3304  0.0820 -0.0464
    1W        W65022   0.233  19.678   8.094  0.2253  0.0245  0.1010
    1W        W65023   2.316  18.641   7.749  0.0661  0.0856  0.3035
    1W        W65024  12.020  18.393   8.787 -0.0315  0.0870 -0.1903
    1W        W65025  26.118  21.825   7.805  0.0741  0.1502  0.2143
    1W        W65026  11.173  25.568   0.615  0.1027 -0.1336 -0.0957
    1W        W65027  16.460  11.090   1.687  0.3076  0.1212  0.1561
    1W        W65028   5.791   1.678   2.058  0.0035  0.1731  0.1652
    1W        W65029  16.608   5.595   8.417 -0.0825  0.1213  0.3367
    1W        W65030   1.437  25.433   1.056  0.1650 -0.1503 -0.0803
    1W        W65031   3.858   3.315   8.561 -0.1721  0.0930  0.0860
    1W        W65032   2.148  22.827   9.045 -0.1240 -0.0979  0.3918
    1W        W65033   8.371   6.123   9.053 -0.2492  0.1788  0.4271
    1W        W65034  17.190   1.292   8.344 -0.0367 -0.0467  0.3000
    1W        W65035  22.137  26.915   0.701 -0.2658  0.3595 -0.0995
    1W        W65036   6.723  22.280   0.187 -0.2748 -0.0684 -0.0087
    1W        W65037   0.897  18.768   8.078  0.0086  0.0896 -0.1652
    1W        W65038   9.729  23.412   8.718  0.0675 -0.1292  0.1200
    1W        W65039   7.011   1.109   1.834 -0.0670 -0.1108  0.2638
    1W        W65040  25.045  26.936   9.281 -0.2057 -0.2516  0.2541
    1W        W65041  21.535  14.887   1.240  0.0636  0.0364 -0.3427
    1W        W65042  20.627   9.981   1.504  0.1654  0.0979 -0.2935
    1W        W65043  27.198   9.689   0.539 -0.1321 -0.1147  0.0369
    1W        W65044  13.849  14.152   7.137 -0.0773  0.2740  0.1715
    1W        W65045  18.468   2.489   0.261  0.0187 -0.1326 -0.3159
    1W        W65046  28.288  13.183   0.793  0.2573 -0.1482 -0.0489
    1W        W65047  23.594   1.024   7.637 -0.4095 -0.0254 -0.4118
    1W        W65048  20.736  21.086   6.314 -0.0497  0.1263 -0.0913
    1W        W65049  12.356  26.191   3.061  0.0607 -0.1234 -0.1876
    1W        W65050  24.437  13.348   7.907  0.1509 -0.0909 -0.0101
    1W        W65051  17.411  13.336   2.568  0.0816  0.1827 -0.0877
    1W        W65052  16.710  11.798   8.887  0.3224  0.1937  0.0703
    1W        W65053  28.726  12.028   1.328  0.2165 -0.0146  0.1906
    1W        W65054  24.870  22.690   1.131 -0.2364  0.0860  0.1925
    1W        W65055  15.996  14.767   0.357 -0.2028  0.2868 -0.1995
    1W        W65056  23.342  25.547   1.367 -0.0573  0.2678  0.0911
    1W        W65057  11.991   4.332   2.039 -0.1841 -0.0755 -0.2165
    1W        W65058   0.631  11.946   0.136  0.0805 -0.1514 -0.1622
    1W        W65059  11.496   7.543   1.611  0.0243 -0.0090  0.4156
    1W        W65060  18.329  14.553   7.880  0.0702 -0.1049 -0.2339
    1W        W65061  14.713   9.204   7.752  0.0191  0.1215 -0.0809
    1W        W65062  17.119  17.271   6.757  0.3653 -0.0855  0.0445
    1W        W65063  26.609   1.114   3.567 -0.0543 -0.0755  0.0468
    1W        W65064  24.758  26.790   8.871  0.0829 -0.0149 -0.2488
    1W        W65065  13.130   3.913   0.255 -0.1070 -0.2357  0.0944
    1W        W65066  19.620  18.796   7.360 -0.3810  0.1602  0.2570
    1W        W65067  18.796   2.432   8.351  0.0694  0.1356  0.1040
    1W        W65068  14.010   9.595   2.647 -0.0545 -0.0976  0.1610
    1W        W65069  10.931   3.849   1.692  0.0973 -0.1000  0.0747
    1W        W65070  11.138   8.230   8.061 -0.2581 -0.0104  0.0829
    1W        W65071   1.064  17.911   2.315 -0.2065  0.2250  0.1259
    1W        W65072  11.730  20.683   9.552 -0.0716  0.0461 -0.1202
    1W        W65073  19.859   1.465   2.153  0.0020  0.0798  0.0127
    1W        W65074   3.591  15.802   7.795  0.0561 -0.0956  0.0520
    1W        W65075  26.596   6.546   6.393  0.1910 -0.1487 -0.1261
    1W        W65076   6.234   8.575   2.819 -0.0110 -0.2953  0.3097
    1W        W65077   2.849   1.703   9.195 -0.1096  0.0450 -0.0393
    1W        W65078  17.899  12.165   7.684 -0.1198 -0.0092 -0.1501
    1W        W65079  26.176  16.350   8.511 -0.2867 -0.1900  0.1881
    1W        W65080   9.260   7.382   7.188  0.0544 -0.0975  0.1914
    1W        W65081  23.803   6.804   8.356  0.0754 -0.0268  0.1660
    1W        W65082   3.879   1.558   0.527  0.2694 -0.2889  0.2686
    1W        W65083  24.502  23.859   1.265  0.1554  0.1077 -0.0162
    1W        W65084   5.319  26.551   7.003 -0.0924  0.1617 -0.1144
    1W        W65085   3.349   8.606   0.448 -0.0560  0.0258  0.0690
    1W        W65086  16.036   2.020   8.577  0.2987 -0.0775  0.0284
    1W        W65087  17.484   2.585   8.815  0.1018  0.0548 -0.2374
    1W        W65088   9.684  28.861   8.603 -0.2674  0.3373 -0.0805
    1W        W65089  23.801  26.822   0.900  0.0796 -0.2141  0.0343
    1W        W65090  23.674  22.600   5.288 -0.1124 -0.0224  0.0086
    1W        W65091  18.600  20.907   8.461 -0.1144 -0.1881 -0.5233
    1W        W65092   2.506  12.138   8.644 -0.1828 -0.0193  0.2192
    1W        W65093  17.522  25.709   0.928 -0.2350  0.0318 -0.1249
    1W        W65094  25.511  20.736   0.684  0.0920 -0.1768  0.3089
    1W        W65095  10.517  12.422   1.192  0.0114 -0.0414 -0.0204
    1W        W65096  26.877  23.928   7.082 -0.1676  0.3638 -0.0344
    1W        W65097   3.726  29.226   8.546  0.1920  0.0573  0.1099
    1W        W65098  19.467   3.670   8.074  0.4000 -0.3093  0.2688
    1W        W65099  12.187  19.645   2.522 -0.0303 -0.1143  0.0705
    1W        W65100  18.014  20.122   2.010  0.0733  0.0070 -0.3470
    1W        W65101  14.305  23.340   8.233 -0.2526 -0.0249  0.0332
    1W        W65102  20.750   4.658   1.696  0.0884 -0.2952 -0.4519
    1W        W65103  12.232  22.417   6.554  0.3677  0.0967  0.0499
    1W        W65104  29.361   0.594   7.566 -0.1500 -0.0525 -0.0013
    1W        W65105   2.987  24.077   8.838  0.1004  0.2328  0.1982
    1W        W65106  11.747  16.092   1.825 -0.1312  0.2342 -0.1020
    1W        W65107  12.214  21.871   7.513  0.2315 -0.0169 -0.1464
    1W        W65108  16.515  10.097   6.914  0.1798  0.0640  0.1371
    1W        W65109  12.876   1.853   1.509  0.0622 -0.1654  0.0216
    1W        W65110  19.586   0.634   8.838  0.1301 -0.2854  0.0074
    1W        W65111  22.729   9.204   7.225 -0.0086  0.2236 -0.0699
    1W        W65112   6.260   2.634   0.958 -0.0647 -0.3053 -0.1945
    1W        W65113   9.068  15.861   2.105  0.0930 -0.0994  0.0709
    1W        W65114   7.131   8.576   3.048  0.2918 -0.0025 -0.2468
    1W        W65115   4.758  21.625   8.495  0.0929  0.1187 -0.1167
    1W        W65116  17.990  10.727   0.917 -0.1199 -0.1563 -0.1007
    1W        W65117  27.244  15.898   1.128  0.1421  0.0324 -0.0323
    1W        W65118   0.606   2.441   7.379 -0.4924  0.0691 -0.1110
    1W        W65119   6.136   8.551   1.921  0.0156  0.0332 -0.1384
    1W        W65120  19.761  22.460   7.365 -0.0576 -0.6696 -0.0711
    1W        W65121   5.700  13.020   2.587 -0.0267  0.2382 -0.2655
    1W        W65122  23.334  19.933   6.584  0.2121 -0.2124  0.0283
    1W        W65123  10.066  23.290   1.825 -0.0286 -0.0050 -0.0247
    1W        W65124  27.988   2.439   8.312 -0.1307 -0.4933 -0.0274
    1W        W65125  19.794   1.880   3.270  0.0883  0.1698 -0.1955
    1W        W65126  19.760   5.543   9.143  0.0438  0.2797  0.1482
    1W        W65127  22.246  10.230   8.007 -0.1273  0.2652  0.0685
    1W        W65128   3.437   4.780   8.521  0.2950 -0.0499 -0.2514
    1W        W65129  26.673  18.576   6.387  0.4701 -0.0239 -0.0764
    1W        W65130   8.617  28.102   8.377  0.0765 -0.0323  0.1288
    1W        W65131  21.786   6.248   7.440 -0.2674  0.0394  0.0172
    1W        W65132  18.777  20.127   2.937  0.3194 -0.0101 -0.1110
    1W        W65133  13.575  25.992   1.765 -0.0354  0.1393 -0.2103
    1W        W65134  10.069   2.557   8.666  0.0077  0.0701 -0.2415
    1W        W65135  16.683  27.725   8.783 -0.0154  0.1531  0.5257
    1W        W65136  27.586  20.567   1.478 -0.1720 -0.4646  0.2405
    1W        W65137   0.333   6.498   1.596  0.1395  0.1281 -0.4125
    1W        W65138  15.359  17.793   6.875  0.0029  0.1543 -0.1166
    1W        W65139  24.707  12.099   9.267 -0.1060  0.1532  0.0405
    1W        W65140  28.227  18.439   1.179 -0.1877  0.2173 -0.0428
    1W        W65141   2.204   4.314   8.036 -0.2906 -0.1674  0.0384
    1W        W65142  25.948  24.267   1.299 -0.0722  0.2843  0.2563
    1W        W65143  14.914  29.204   1.975 -0.2693  0.1024  0.2852
    1W        W65144  10.710   8.161   3.129 -0.1792 -0.1480  0.0082
    1W        W65145  15.271   5.009   0.657  0.1107  0.3668  0.1891
    1W        W65146   5.374   2.142   1.644  0.0669 -0.0677 -0.0746
    1W        W65147  14.411  18.708   6.414  0.0029  0.4801 -0.0975
    1W        W65148  10.201  26.788   8.966  0.0150 -0.0310  0.2506
    1W        W65149  23.262  23.179   5.623 -0.0874 -0.2572 -0.0234
    1W        W65150  14.595  21.620   8.742  0.1078 -0.3122  0.1382
    1W        W65151  23.906   0.312   0.136  0.1472 -0.0592 -0.2089
    1W        W65152   6.630  28.630   1.143 -0.1207  0.1290  0.0387
    1W        W65153   4.344  25.574   9.396  0.1563  0.1776  0.1844
    1W        W65154  22.026  17.495   1.044 -0.1523 -0.2189  0.1309
    1W        W65155  17.228   3.938   0.514  0.0984 -0.3992 -0.2946
    1W        W65156  24.969  27.335   3.523  0.0134 -0.1086  0.0495
    1W        W65157  26.753  22.526   8.311  0.1817 -0.1504  0.0596
    1W        W65158  10.684  25.302   2.261 -0.2301  0.1250 -0.0101
    1W        W65159   4.909   9.521   8.227 -0.2255 -0.2871  0.0094
    1W        W65160  17.436  24.328   7.937 -0.2411 -0.2050  0.3305
    1W        W65161   9.836  10.558   8.289 -0.1633 -0.0432 -0.2789
    1W        W65162  10.695   9.079   0.572 -0.3344  0.1480  0.0752
    1W        W65163  25.074   0.707   0.692  0.0320 -0.1444 -0.1313
    1W        W65164  23.848  12.481   7.422  0.4740  0.1491 -0.1410
    1W        W65165  10.997  25.598   8.294  0.0748  0.5772 -0.0303
    1W        W65166  17.901   1.058   1.182 -0.0173  0.0098  0.3321
    1W        W65167  22.635   5.904   2.905 -0.1159  0.1853 -0.3072
    1W        W65168   1.072  28.456   0.842  0.2563 -0.0230  0.1294
    1W        W65169  25.886  29.670   0.578 -0.2768 -0.0285 -0.0198
    1W        W65170  26.130  14.506   6.347  0.0519 -0.1680  0.0249
    1W        W65171  25.064   3.133   9.427 -0.0503  0.0082  0.0363
    1W        W65172  10.127   0.622   8.395 -0.1005 -0.0969  0.0554
    1W        W65173  23.942   9.979   6.092  0.4485 -0.1473  0.0102
    1W        W65174  16.321  10.588   6.216  0.3600 -0.4093  0.0416
    1W        W65175   5.868   2.857   0.741  0.0002  0.1954 -0.0449
    1W        W65176   9.087  23.762   2.526  0.1812 -0.0188  0.0779
    1W        W65177  16.258  26.923   1.485 -0.1474 -0.1142 -0.2374
    1W        W65178   6.237   9.022   2.578 -0.0256  0.0669  0.0893
    1W        W65179  17.141   1.936   1.120  0.2522 -0.0205 -0.1393
    1W        W65180   9.627   9.398   2.485 -0.1169  0.1872 -0.2857
    1W        W65181  22.755   2.248   9.325  0.0833 -0.2116 -0.1583
    1W        W65182   5.676  25.501   1.919 -0.1912  0.0991  0.2634
    1W        W65183  29.407  17.600   6.239  0.0622 -0.0543 -0.0684
    1W        W65184  21.469  13.659   6.414 -0.0749 -0.0870  0.0285
    1W        W65185   6.444   7.321   2.496  0.0406  0.0998 -0.0720
    1W        W65186   1.615  26.276   6.812 -0.2509  0.0004 -0.0456
    1W        W65187  10.096  12.666   0.345  0.1141 -0.1617 -0.0560
    1W        W65188  26.655  28.295   0.303  0.0802  0.0971  0.1466
    1W        W65189  16.692  10.854   9.411 -0.2765 -0.0668  0.0601
    1W        W65190  23.048  24.985   9.178 -0.1245  0.0129  0.0511
    1W        W65191   6.721   0.668   7.263  0.1012 -0.2643  0.0676
    1W        W65192  17.475   6.349   1.639 -0.0290 -0.2026  0.0175
    1W        W65193  12.481  20.750   7.921  0.1152  0.2204 -0.1910
    1W        W65194  19.318   5.245   8.853 -0.0013  0.1310 -0.2492
    1W        W65195   6.395   1.279   7.371  0.0422  0.0621 -0.1880
    1W        W65196  27.765  21.632   0.131 -0.0745  0.1343  0.1191
    1W        W65197   7.299  27.812   1.472 -0.0296  0.2112  0.2628
    1W        W65198  22.349  22.473   2.053 -0.3622 -0.0492  0.2040
    1W        W65199   1.327   8.116   1.153  0.1718  0.0875  0.1650
    1W        W65200  19.115  15.771   6.310 -0.0851 -0.0094  0.1389
    1W        W65201  18.819  10.275   9.198  0.0717 -0.0860  0.2177
    1W        W65202  19.298   2.955   7.222 -0.0731 -0.1662 -0.0209
    1W        W65203  22.032  20.199   5.662 -0.0633  0.0571 -0.0728
    1W        W65204  24.436   4.138   8.859 -0.1194 -0.1197  0.0280
    1W        W65205  10.172   8.098   0.394  0.1121 -0.1409  0.1525
    1W        W65206  13.518  18.473   7.988 -0.0269  0.2320  0.1278
    1W        W65207   9.948   5.480   2.401  0.4419  0.0307 -0.0797
    1W        W65208  21.361  25.787   0.000 -0.1815 -0.0530  0.1651
    1W        W65209   4.382  17.814   7.755  0.1301  0.1256  0.3938
    1W        W65210  15.862  15.976   7.354  0.2670  0.2596  0.1513
    1W        W65211   9.712  18.764   1.257 -0.1540 -0.1371 -0.1957
    1W        W65212  28.524  11.046   8.551 -0.0687  0.1208 -0.4518
    1W        W65213  17.035   0.540   3.082  0.1176  0.0947 -0.0271
    1W        W65214  29.037  25.865   9.530  0.3055 -0.2048 -0.1777
    1W        W65215  21.988  16.542   8.328 -0.0252  0.1011  0.2756
    1W        W65216  11.625   5.916   7.800  0.2916 -0.1466 -0.0679
    1W        W65217  21.904   3.824   0.855  0.2412 -0.0562  0.1081
    1W        W65218  24.291  26.191   8.729  0.0527 -0.2609 -0.0040
    1W        W65219  20.944  14.179   5.928  0.2050  0.3114 -0.0495
    1W        W65220   7.965  24.570   0.828 -0.1897  0.2401  0.1227
    1W        W65221   9.746  25.756   8.240 -0.1772 -0.0717 -0.0829
    1W        W65222   3.389  24.207   0.497 -0.1509 -0.2166 -0.0269
    1W        W65223  17.874  11.119   6.433  0.1881 -0.0745 -0.1094
    1W        W65224  27.427  13.201   1.223 -0.0575 -0.2241 -0.1345
    1W        W65225   1.478   0.130   2.600 -0.1602 -0.1349 -0.2591
    1W        W65226  25.354  25.775   8.614  0.0158  0.3216 -0.2393
    1W        W65227   1.112  17.353   8.804 -0.5479 -0.0864  0.2746
    1W        W65228   3.976   4.072   1.368 -0.3734 -0.0661 -0.0683
    1W        W65229  26.882  27.398   0.898 -0.0318  0.2019  0.1113
    1W        W65230  20.549  22.453   2.218 -0.0139 -0.3327  0.0307
    1W        W65231  22.184  14.778   7.795  0.0873 -0.2563 -0.0442
    1W        W65232   5.500  11.470   2.196  0.2062  0.1010 -0.3172
    1W        W65233   4.376   1.568   0.300 -0.3699 -0.2152 -0.1958
    1W        W65234   8.772  29.097   2.098 -0.2181 -0.1309 -0.0363
    1W        W65235  27.607  28.380   6.969  0.0760 -0.0258  0.0022
    1W        W65236   0.579  28.145   2.723  0.5341 -0.1678 -0.1986
    1W        W65237  17.355  13.806   8.345 -0.2585  0.1118 -0.3849
    1W        W65238  24.977  24.610   8.066  0.2059 -0.0420 -0.4260
    1W        W65239  22.810  27.765   7.536  0.0877 -0.1125  0.0433
    1W        W65240   3.584  26.972   7.806 -0.4340  0.0597  0.0750
    1W        W65241  28.981  14.666   7.880  0.0816  0.0047 -0.2774
    1W        W65242  13.426   4.811   8.760  0.0178  0.0985 -0.0029
    1W        W65243  11.669  11.369   0.835 -0.0991  0.0630  0.2211
    1W        W65244  17.888  22.146   6.732 -0.0270 -0.0893  0.1260
    1W        W65245  10.480  16.871   0.228 -0.0042 -0.1180  0.2159
    1W        W65246  19.725  21.894   6.289  0.2022  0.1364 -0.2716
    1W        W65247  14.554   7.855   8.879 -0.1361 -0.1756 -0.1553
    1W        W65248  18.531   5.663   7.758  0.2904 -0.0628 -0.2421
    1W        W65249  25.146  19.338   7.826 -0.0328  0.1714 -0.0865
    1W        W65250  23.528  23.986   7.061  0.3529 -0.1217 -0.2870
    1W        W65251  11.346   1.496   8.374  0.0401  0.3195 -0.1306
    1W        W65252   5.979   2.373   1.783 -0.0139 -0.1729 -0.0203
    1W        W65253  23.909   4.198   7.266  0.0703 -0.0389 -0.1777
    1W        W65254  12.454  24.151   7.578  0.1361 -0.0187 -0.1996
    1W        W65255   4.514  18.265   7.441 -0.1522 -0.1048  0.0543
    1W        W65256  22.783  24.933   7.526 -0.0512 -0.1335  0.1366
    1W        W65257  27.101   4.881   1.061  0.1412 -0.1867  0.0817
    1W        W65258  17.617  19.976   6.707  0.3740 -0.2509 -0.0176
    1W        W65259   6.481  19.105   1.318  0.1748  0.1369  0.1924
    1W        W65260   5.086  10.144   7.431 -0.0438 -0.0154 -0.0116
    1W        W65261  22.444   4.048   8.620  0.3848 -0.1157 -0.0911
    1W        W65262  12.266  20.621   0.045  0.1544  0.0186 -0.0388
    1W        W65263  19.244   4.054   1.498  0.0625 -0.1883 -0.1835
    1W        W65264  12.046   0.246   7.391 -0.0607 -0.2361 -0.0440
    1W        W65265  21.304   9.413   0.695  0.2248  0.0477 -0.1338
    1W        W65266   2.407  11.686   7.778 -0.1361 -0.3371  0.1644
    1W        W65267  17.121  29.235   0.371 -0.0007  0.0738 -0.1239
    1W        W65268   2.808  18.422   6.774  0.1101 -0.1629 -0.1372
    1W        W65269  12.756  22.580   2.305 -0.1464 -0.2240 -0.0103
    1W        W65270  24.877  23.466   1.258 -0.1618  0.1767  0.2591
    1W        W65271   0.395   2.597   9.406  0.0469 -0.2306  0.0295
    1W        W65272  13.297  28.910   9.195  0.2523 -0.0397 -0.2519
    1W        W65273  24.110   8.485   7.440 -0.1312  0.1582 -0.0078
    1W        W65274   8.199   7.381   2.988 -0.1434  0.1668  0.1047
    1W        W65275  18.332   5.342   8.945 -0.0489  0.1113  0.0591
    1W        W65276   2.169  13.478   1.262  0.0119 -0.2729 -0.0857
    1W        W65277  27.056  14.785   0.326 -0.0686  0.0697 -0.0653
    1W        W65278   6.964  19.811   2.484  0.2076 -0.2071  0.1389
    1W        W65279  22.619   5.039   2.788  0.0475  0.1714  0.1355
    1W        W65280  15.116   2.587   6.930  0.3911 -0.2041 -0.1597
    1W        W65281  23.221  19.480   5.912 -0.2951 -0.1924  0.1421
    1W        W65282   8.765  13.574   0.321  0.2851 -0.2469  0.2087
    1W        W65283   4.150  18.620   8.351  0.1278 -0.3029  0.2739
    1W        W65284  17.618  18.494   0.048 -0.1934  0.0845 -0.0867
    1W        W65285   9.141  22.165   1.244  0.2198  0.1001  0.0875
    1W        W65286   4.076  13.811   0.329  0.0466  0.1922  0.3251
    1W        W65287  18.337   3.250   1.945 -0.2222  0.1572  0.2443
    1W        W65288  14.916  14.918   8.458  0.1199 -0.0679  0.2087
    1W        W65289  14.695  19.523   2.291  0.2402 -0.0271  0.0411
    1W        W65290   0.565  24.850   0.423 -0.2421  0.0696  0.0540
    1W        W65291   9.908  14.114   7.573  0.0065 -0.0357 -0.0878
    1W        W65292  19.986   1.879   1.897  0.0624 -0.0269  0.0882
    1W        W65293  18.477  23.518   8.019 -0.2180 -0.2872 -0.1045
    1W        W65294  26.765  20.735   6.670  0.1331 -0.0016  0.2531
    1W        W65295   8.983  20.164   1.908 -0.1159 -0.1476  0.0039
    1W        W65296  20.794  19.321   1.357 -0.3730  0.2293  0.0106
    1W        W65297  22.683  25.396   8.997  0.0063  0.0251 -0.3646
    1W        W65298  11.778  27.859   2.606 -0.2582 -0.0222 -0.0358
    1W        W65299  17.205  14.648   0.034 -0.2760 -0.0352  0.0604
    1W        W65300  27.113  21.197   1.073  0.0738 -0.3834 -0.2124
    1W        W65301  22.364   8.067   7.203 -0.0516 -0.0145 -0.0251
    1W        W65302  24.537   3.336   3.221  0.1599 -0.2835 -0.1086
    1W        W65303  26.631  25.256   3.250  0.0614 -0.0504 -0.0708
    1W        W65304   2.984  12.238   8.392 -0.3403 -0.1952  0.0272
    1W        W65305  21.811   6.345   3.252  0.0254  0.0056  0.0708
    1W        W65306  19.649  23.442   8.008  0.0604 -0.0532 -0.3310
    1W        W65307   0.903  24.244   9.378  0.1189  0.0480 -0.1723
    1W        W65308  18.395   1.907   0.873 -0.3284 -0.0046  0.4075
    1W        W65309  22.767  26.805   2.146 -0.2454 -0.2059  0.1123
    1W        W65310  19.151  25.604   1.518 -0.2808  0.1829  0.1258
    1W        W65311  21.173  21.464   0.953  0.1819  0.2406 -0.3904
    1W        W65312  20.548  27.730   0.437  0.1219  0.0863 -0.1307
    1W        W65313  11.219   2.042   7.661  0.0887  0.1955  0.1760
    1W        W65314   8.455   8.438   3.004  0.0326 -0.3325 -0.2139
    1W        W65315   5.971   2.862   2.779 -0.0378 -0.0883  0.0769
    1W        W65316  12.420  17.583   1.261 -0.1747  0.1318 -0.0064
    1W        W65317  27.612   1.376   7.883 -0.0276 -0.2833  0.0077
    1W        W65318  23.298   4.210   1.080  0.1042 -0.1093 -0.2619
    1W        W65319  21.046  11.822   8.316 -0.0347  0.1030 -0.0953
    1W        W65320  19.899  19.878   2.798  0.1557 -0.3908 -0.2543
    1W        W65321   5.766  24.926   1.727  0.0620  0.1598  0.2899
    1W        W65322  10.814  20.189   8.752 -0.2823 -0.1231  0.0811
    1W        W65323  27.104  10.490   2.085 -0.1303 -0.0624 -0.0247
    1W        W65324   6.829  23.780   2.252 -0.2724  0.3536  0.1457
    1W        W65325  24.193  20.366   6.868  0.0075  0.1192  0.0678
    1W        W65326   4.256  16.155   1.633 -0.0677  0.1085 -0.0113
    1W        W65327  12.708  25.049   8.805 -0.2694  0.0217 -0.2519
    1W        W65328   4.084   4.125   7.105  0.0407 -0.0088  0.0044
    1W        W65329  12.947  27.098   7.578  0.0770 -0.1711  0.0095
    1W        W65330  27.457  21.331   7.747  0.0185  0.1279  0.0444
    1W        W65331  19.780  28.961   8.755  0.1085  0.2623 -0.0550
    1W        W65332  23.418  20.437   0.766 -0.1538 -0.1426  0.5657
    1W        W65333   9.102   1.253   7.052 -0.2897 -0.1465  0.1066
    1W        W65334   8.534  29.789   9.017  0.2460  0.0869  0.1449
    1W        W65335  10.031  17.874   8.462 -0.0674  0.3271 -0.1805
    1W        W65336  10.539  26.890   8.213 -0.3842  0.0297 -0.0926
    1W        W65337  25.800   5.485   2.628 -0.0901 -0.1190 -0.0652
    1W        W65338   7.074   8.633   8.244  0.2078 -0.2878  0.0164
    1W        W65339  28.701  22.731   8.283 -0.2991 -0.0171  0.0903
    1W        W65340  28.392  18.478   8.474 -0.1153  0.2560  0.1960
    1W        W65341  20.083  18.824   1.064 -0.0368  0.1648  0.0154
    1W        W65342   1.800  24.792   1.393 -0.3422 -0.1499 -0.0815
    1W        W65343   0.795  24.574   8.504 -0.0822  0.2896 -0.1915
    1W        W65344   8.263  25.648   2.056 -0.0721  0.0966  0.0802
    1W        W65345  11.430   7.441   0.326  0.0332  0.0110 -0.0456
    1W        W65346  19.617  21.082   1.056 -0.0906 -0.0607 -0.1077
    1W        W65347  29.122  26.703   0.874  0.0479  0.0453  0.1985
    1W        W65348  22.993  18.757   2.554 -0.1626  0.0210  0.1469
    1W        W65349  23.272  28.758   7.408 -0.0596 -0.0532 -0.3304
    1W        W65350  23.784   9.470   7.409 -0.0355  0.1240  0.1245
    1W        W65351   9.605   8.424   0.245  0.3758 -0.5006 -0.0856
    1W        W65352  23.710  16.202   1.015 -0.2271  0.0234  0.0066
    1W        W65353  22.703  28.436   3.985  0.1926 -0.2620  0.2498
    1W        W65354  17.918  21.646   1.506 -0.1282  0.2515 -0.0206
    1W        W65355   9.654  27.500   1.424  0.1999  0.1086  0.0599
    1W        W65356  19.017  29.166   0.261  0.0977  0.3889  0.0452
    1W        W65357  20.864   2.746   2.907 -0.1302 -0.1941 -0.2464
    1W        W65358  20.846  20.951   9.144 -0.1164  0.1453 -0.1561
    1W        W65359   2.382  20.375   7.752  0.0191  0.0104  0.0456
    1W        W65360  14.158  23.109   1.158 -0.0782 -0.2693 -0.0503
    1W        W65361  15.825  22.126   0.141 -0.2848  0.0749  0.4181
    1W        W65362  10.109  29.607   2.760 -0.1376 -0.3553 -0.2412
    1W        W65363  20.340  25.143   8.569 -0.2888  0.0359  0.1627
    1W        W65364  19.042  15.351   6.706 -0.0534  0.2645  0.1472
    1W        W65365   9.668   7.265   7.485  0.0049  0.0322  0.0006
    1W        W65366  10.480   9.502   0.796 -0.1503  0.2838 -0.3312
    1W        W65367  22.687  29.322   2.745 -0.1129 -0.1810  0.2395
    1W        W65368  14.699  20.402   8.474 -0.0360 -0.2325 -0.0592
    1W        W65369  19.290  16.697   7.534  0.2776  0.0523 -0.0960
    1W        W65370   4.836  24.252   1.518  0.1674  0.2255  0.2558
    1W        W65371  10.667  20.211   0.953  0.0537 -0.3181 -0.3088
    1W        W65372   1.049  19.011   7.316 -0.0186  0.1780 -0.2099
    1W        W65373  11.784  19.982   9.204 -0.0836 -0.2839 -0.0708
    1W        W65374   4.378   6.490   9.459  0.0328  0.1475  0.0334
    1W        W65375  14.360   2.309   2.285  0.1527  0.0510 -0.2422
    1W        W65376  14.676  17.983   7.392  0.0010 -0.2178  0.1048
    1W        W65377  14.509   5.856   9.533 -0.0519  0.1214 -0.2236
    1W        W65378  28.708  26.021   2.491 -0.1533 -0.1907 -0.0093
    1W        W65379  12.198  28.145   7.401  0.0665 -0.0611 -0.1294
    1W        W65380  17.887  10.138   7.791 -0.3344 -0.1257  0.1554
    1W        W65381   2.190   9.584   7.591  0.2436  0.0687  0.0334
    1W        W65382  27.725   8.274   8.627  0.1373 -0.0127  0.0264
    1W        W65383  16.270  22.737   7.457  0.2672 -0.1263 -0.1672
    1W        W65384  14.353   0.907   9.059 -0.1342  0.0761 -0.0847
    1W        W65385  14.211   2.021   0.771  0.0127  0.0436  0.1054
    1W        W65386   1.772  17.958   1.719 -0.3633 -0.1527 -0.0916
    1W        W65387  10.066  16.944   9.304  0.2305 -0.2029  0.0873
    1W        W65388  24.216  24.263   6.810  0.0457 -0.0696  0.0017
    1W        W65389   2.749   5.805   0.743  0.3989 -0.0561 -0.1743
    1W        W65390  18.291   8.955   1.013  0.1265 -0.0315 -0.1349
    1W        W65391  12.261  10.167   2.391  0.0259 -0.2133 -0.0957
    1W        W65392  17.583   8.182   6.225  0.1127 -0.3167 -0.1026
    1W        W65393   3.534  24.564   1.907  0.1790 -0.1377 -0.0901
    1W        W65394   4.526   6.608   6.732  0.0062  0.1658 -0.0312
    1W        W65395  29.612  13.506   7.075 -0.0849  0.1358  0.1265
    1W        W65396  16.840  15.564   6.662  0.2350  0.0693 -0.0612
    1W        W65397  22.791  13.493   0.721 -0.1978  0.1562 -0.1520
    1W        W65398  11.871   4.899   0.040 -0.0924 -0.1351 -0.1135
    1W        W65399  24.093   6.068   6.520 -0.1348  0.1391 -0.3264
    1W        W65400   4.937  18.458   9.442  0.4751  0.0894  0.1613
    1W        W65401  18.118   2.070   2.401  0.0841  0.0880  0.0285
    1W        W65402  17.053   7.170   1.650 -0.4274 -0.0260 -0.0295
    1W        W65403  17.975   8.098   7.203 -0.0291 -0.3463  0.3586
    1W        W65404   6.071  10.496   0.704 -0.0999  0.3454  0.3471
    1W        W65405  23.512   2.672   0.614  0.0692  0.0623 -0.4587
    1W        W65406  25.345  25.491   8.139  0.3391 -0.0315 -0.3223
    1W        W65407  13.027  14.807   8.407 -0.1535 -0.0391  0.2282
    1W        W65408   7.852  25.621   2.789  0.1882  0.0123 -0.0867
    1W        W65409  26.512  19.784   6.485 -0.0291  0.2224 -0.0572
    1W        W65410  25.826   2.811   9.046  0.0311 -0.2805 -0.0610
    1W        W65411  16.766  13.188   7.043 -0.0261  0.2741  0.0652
    1W        W65412   3.571   0.164   3.047  0.2942  0.0095 -0.2535
    1W        W65413  22.254  28.848   1.906 -0.0974  0.1082  0.2593
    1W        W65414  21.267  27.346   8.848 -0.0037 -0.1183 -0.2341
    1W        W65415   4.594   9.220   9.075  0.0836 -0.1244 -0.3665
    1W        W65416  19.257  23.821   6.836 -0.0774  0.0189 -0.0257
    1W        W65417  24.543  18.168   4.953  0.2423 -0.2970 -0.1441
    1W        W65418  19.968   0.806   2.878  0.2186  0.2025 -0.3109
    1W        W65419  22.081  25.965   1.084 -0.0095 -0.1601  0.0968
    1W        W65420   4.573  15.957   7.004 -0.0044 -0.1477  0.3241
    1W        W65421  29.232  17.678   1.297 -0.1822  0.0239  0.1380
    1W        W65422   6.508   2.031   9.472 -0.2569 -0.0055  0.2011
    1W        W65423   4.095  18.969   8.967 -0.2479  0.3701  0.0695
    1W        W65424  20.756   3.225   1.765 -0.1247 -0.0591  0.0070
    1W        W65425  28.590   3.577   2.470  0.0008  0.2848 -0.0349
    1W        W65426   7.405  17.636   8.233  0.1196  0.1715 -0.0675
    1W        W65427  26.267   4.467   7.447  0.1013 -0.1274 -0.0861
    1W        W65428  29.438   9.611   8.998  0.2611  0.1729 -0.0482
    1W        W65429  26.889  17.699   0.295 -0.0285 -0.2779  0.2702
    1W        W65430   3.157  13.632   9.266  0.0307 -0.3179  0.0957
    1W        W65431  18.902  20.747   1.861  0.1688  0.0186  0.0735
    1W        W65432  29.372  24.589   2.414 -0.1302  0.4444  0.0752
    1W        W65433  20.342  11.030   8.978 -0.2082 -0.1490 -0.2507
    1W        W65434   8.381  28.349   7.899  0.0371  0.0346  0.1097
    1W        W65435  16.776  10.300   8.509 -0.0656  0.1485 -0.0252
    1W        W65436   0.010   1.645   2.532 -0.0572  0.2964 -0.3244
    1W        W65437   8.939   8.644   2.831 -0.4390  0.0039  0.0561
    1W        W65438  25.737   8.947   8.846 -0.4252 -0.1044 -0.0097
    1W        W65439  20.371  26.824   1.490  0.1069  0.1111 -0.0025
    1W        W65440  10.163   6.475   8.552 -0.5124  0.0053 -0.0262
    1W        W65441  18.023  29.055   7.896  0.1292 -0.2396 -0.1177
    1W        W65442  19.413   4.999   7.992  0.0374  0.0063  0.0989
    1W        W65443   6.684   4.228   1.989 -0.1794  0.1789  0.0369
    1W        W65444   6.679  17.744   0.563 -0.0934  0.1847 -0.2088
    1W        W65445   6.977  24.939   2.003 -0.0868 -0.2405 -0.0441
    1W        W65446   7.580  10.161   8.978 -0.1270 -0.1950  0.0396
    1W        W65447  18.482   8.267   9.469 -0.4534  0.2408  0.1408
    1W        W65448  25.452   1.736   9.147  0.1599 -0.1079  0.1009
    1W        W65449   4.468  16.457   0.492 -0.3840 -0.1920  0.2654
    1W        W65450  15.979  16.346   7.036  0.0951  0.0725  0.2651
    1W        W65451   9.200  21.981   9.041 -0.0693  0.1766  0.0275
    1W        W65452  20.562  22.428   6.876 -0.0034  0.0800 -0.2151
    1W        W65453  17.006  16.011   2.226  0.3054  0.2323 -0.2185
    1W        W65454  24.510  18.198   8.433 -0.0786  0.2340  0.3424
    1W        W65455  10.566  23.532   0.235 -0.0376  0.1749 -0.0616
    1W        W65456  17.546  13.593   7.685 -0.1972  0.0906  0.3265
    1W        W65457  15.229   2.983   1.451 -0.0880 -0.2965  0.2572
    1W        W65458  11.521  16.703   2.238  0.2482  0.0401  0.0555
    1W        W65459  14.497  16.980   7.450  0.2980 -0.2527 -0.0970
    1W        W65460  25.494  12.199   1.929  0.1643 -0.1154  0.1923
    1W        W65461  21.288  16.877   8.796  0.0249 -0.0519 -0.0360
    1W        W65462  23.917  17.952   7.046  0.0764  0.0039 -0.1877
    1W        W65463  16.962   2.523   8.644  0.0031 -0.0722  0.2267
    1W        W65464   4.535  17.547   9.016 -0.1108  0.1414  0.0341
    1W        W65465   6.323  25.915   8.619  0.2269 -0.2826 -0.2469
    1W        W65466   4.156  15.083   7.098  0.0670 -0.0369  0.2294
    1W        W65467   5.486   9.130   7.861 -0.1979  0.0577  0.0252
    1W        W65468  26.964  17.485   7.591 -0.1094  0.2735  0.2433
    1W        W65469  13.764  24.496   0.683 -0.1156  0.3263 -0.0071
    1W        W65470  28.412  22.063   7.920  0.1059  0.1225 -0.3557
    1W        W65471  24.631  26.880   6.758  0.0960  0.1766 -0.2169
    1W        W65472  22.815   5.202   7.605 -0.3465  0.0657 -0.2929
    1W        W65473  18.618  11.151   9.357  0.0719  0.1105 -0.1004
    1W        W65474  28.617  28.963   2.045  0.0295  0.0078  0.0915
    1W        W65475  28.143  11.856   9.128  0.0820  0.1596 -0.1483
    1W        W65476   3.107  15.751   1.117 -0.0446 -0.2692  0.0495
    1W        W65477  20.461   4.030   4.169 -0.0969  0.0440 -0.4075
    1W        W65478  14.787  18.381   7.709 -0.1420  0.2540  0.3600
    1W        W65479   6.182  29.609   8.609  0.0326  0.2525  0.0685
    1W        W65480  15.325  23.084   7.840  0.0834 -0.0518  0.2183
    1W        W65481   2.956  15.499   9.422 -0.0212 -0.0747 -0.2246
    1W        W65482  22.282   3.774   3.290 -0.1238  0.1875  0.4532
    1W        W65483  29.588   6.795   7.824  0.0356 -0.0280 -0.2086
    1W        W65484  22.147   7.277   2.306  0.0334 -0.1299  0.1108
    1W        W65485   5.708  12.718   0.998  0.2895 -0.1539 -0.0573
    1W        W65486  10.932  29.299   8.600  0.0150  0.3783 -0.1259
    1W        W65487   2.294  25.344   8.798 -0.1596  0.0767  0.3396
    1W        W65488  21.845  18.164   6.298  0.2303  0.2435  0.0892
    1W        W65489  25.984   1.416   2.900 -0.0929 -0.2681 -0.0643
    1W        W65490  19.275  14.570   7.011 -0.2085 -0.1914 -0.1471
    1W        W65491   8.825  10.228   1.927 -0.3537  0.0295 -0.1000
    1W        W65492  29.371  17.262   6.664 -0.1967 -0.2654 -0.0148
    1W        W65493   6.618   0.862   1.465 -0.0603 -0.1515  0.0744
    1W        W65494   8.392  18.755   0.983  0.1128 -0.2002 -0.1833
    1W        W65495   6.848  22.059   1.144 -0.0351 -0.3885 -0.2784
    1W        W65496  25.291  24.866   1.403 -0.2052 -0.0948  0.1473
    1W        W65497  10.911  17.416   2.343  0.1180 -0.0844  0.1598
    1W        W65498   0.349  12.995   6.700 -0.1175 -0.2804 -0.0538
    1W        W65499  28.040  24.677   2.844 -0.2321  0.0393  0.3258
    1W        W65500  29.388   3.574   8.889 -0.0022  0.1051 -0.1850
    1W        W65501   0.402  27.109   9.035  0.0291  0.1825  0.2534
    1W        W65502  14.712  21.161   9.494  0.0924  0.0318 -0.1907
    1W        W65503   5.244  17.741   7.061  0.2533  0.2315  0.1042
    1W        W65504  28.690  16.945   0.883  0.1178  0.1374  0.2149
    1W        W65505  20.115  23.945   7.381  0.0476 -0.0860 -0.2426
    1W        W65506  21.361  18.916   7.581  0.0165  0.0883  0.0997
    1W        W65507  27.080  26.133   7.886 -0.0359  0.0066  0.2680
    1W        W65508  17.254  14.061   0.525  0.2304  0.3441  0.0452
    1W        W65509  17.935  15.135   9.040 -0.0316  0.2530  0.1547
    1W        W65510  17.429  24.866   7.685  0.1481  0.0128 -0.1451
    1W        W65511   5.823  22.341   8.135 -0.0894 -0.0875  0.2122
    1W        W65512   4.093  10.386   9.003  0.0847 -0.4824 -0.1560
    1W        W65513   6.589   4.902   8.638  0.2458 -0.2431 -0.0028
    1W        W65514  22.826   5.511   1.152  0.1696 -0.2568  0.1758
    1W        W65515  19.073   8.026   2.146  0.0869 -0.0296 -0.1284
    1W        W65516   6.688  15.130   8.118 -0.1236 -0.3070 -0.2241
    1W        W65517   5.631  25.747   7.870 -0.0783  0.1295 -0.0722
    1W        W65518  14.260  22.958   2.539 -0.1257 -0.1714  0.0995
    1W        W65519  15.075  18.891   0.336  0.3287  0.0111 -0.2503
    1W        W65520  25.467  25.664   7.336  0.2397 -0.2321  0.0639
    1W        W65521  15.920  25.727   7.053  0.1710  0.0824  0.1246
    1W        W65522   2.907  25.677   7.926  0.4660 -0.1677  0.3009
    1W        W65523  25.103  11.301   2.157 -0.1516  0.0408  0.0876
    1W        W65524  25.654  19.140   1.016  0.2040 -0.0908 -0.1607
    1W        W65525  19.228  17.074   9.432 -0.0401 -0.0389  0.1289
    1W        W65526  10.318  16.060   9.162 -0.3247 -0.0773  0.2290
    1WF      WF65527  19.555  16.178   7.351  0.2368 -0.0219 -0.3040
    1WF      WF65528  18.653  17.480   7.331 -0.1976 -0.1590 -0.0963
    1WF      WF65529  17.955   6.861   1.020 -0.0180  0.0527  0.3456
    1WF      WF65530   0.184   6.996   1.179  0.1061 -0.0711  0.1365
    1WF      WF65531  22.570   4.135   2.019  0.2981  0.2981  0.0726
    1WF      WF65532   9.401  22.938   8.605  0.0862 -0.1429  0.1282
    1WF      WF65533  13.610   4.375   9.282  0.1842 -0.1939  0.3472
    1WF      WF65534  12.512   0.831   8.275 -0.1550 -0.1033 -0.0179
    1WF      WF65535  20.105  15.806   9.133  0.2085 -0.1270  0.1860
    1WF      WF65536  25.768  24.182   1.905  0.1659  0.0751  0.2904
    1WF      WF65537   2.387  13.825   8.069 -0.1097 -0.0360  0.2339
    1WF      WF65538   8.504   1.344   9.150  0.1107  0.1815  0.2780
    1WF      WF65539  17.616   6.237   8.256 -0.0034 -0.0762 -0.0877
    1WF      WF65540  17.803  18.293   0.945  0.0032 -0.1871  0.1076
    1WF      WF65541  29.052   0.773   8.317  0.3815 -0.1476 -0.1299
    1WF      WF65542  20.748  17.799   0.658  0.0337  0.0225  0.1868
    1WF      WF65543  10.414   1.180   7.514  0.2386 -0.3315  0.0028
    1WF      WF65544  22.462   3.522   9.527 -0.0918 -0.0498 -0.0752
    1WF      WF65545  27.920   0.494   7.448  0.2465  0.1477  0.1884
    1WF      WF65546   0.304   4.951   9.123 -0.0053 -0.0546  0.3654
    1WF      WF65547  24.232   4.615   7.656 -0.2119  0.1869 -0.3522
    1WF      WF65548  28.395   6.861   9.426  0.0538  0.1281  0.1825
    1WF      WF65549  25.932   1.693   8.163  0.1208  0.0302  0.0996
    1WF      WF65550  21.984  25.777   9.476 -0.1512 -0.0243  0.0547
    1WF      WF65551   9.558  16.407   0.681  0.0513 -0.2948  0.1507
    1WF      WF65552  11.142  26.387   0.748 -0.0029  0.0312 -0.5182
    1WF      WF65553  21.045  12.718   1.241 -0.2352  0.2320 -0.1170
    1WF      WF65554   6.061   0.301   0.445  0.0234  0.0082  0.0313
    1WF      WF65555  23.522  22.946   1.221 -0.2134 -0.0705 -0.0084
    1WF      WF65556  23.082  19.273   8.546  0.0747  0.2283  0.2165
    1WF      WF65557  12.907  17.524   6.606 -0.0124  0.0462  0.0322
    1WF      WF65558  14.623  28.525   8.962 -0.0316  0.2628  0.0433
    1WF      WF65559  18.212   7.908   1.060  0.0966 -0.1561  0.2495
    1WF      WF65560   4.979   4.187   2.063 -0.3142 -0.0617  0.4400
    1WF      WF65561  12.101   9.390   6.405 -0.0554 -0.0789 -0.2161
    1WF      WF65562  13.842  15.580   8.755 -0.1290 -0.2013 -0.0815
    1WF      WF65563  11.257   7.713   3.357 -0.3476 -0.0339  0.0546
    1WF      WF65564  19.660  21.147   7.495  0.1171 -0.0353 -0.1786
    1WF      WF65565   5.336   5.032   1.664 -0.0141  0.0769 -0.0630
    1WF      WF65566  14.947  24.657   8.681  0.1453 -0.0002  0.1220
    1WF      WF65567  18.483  10.533   7.105  0.3474  0.1649 -0.0948
    1WF      WF65568   1.214  21.860   6.798 -0.2904 -0.0089 -0.2971
    1WF      WF65569  17.531  19.009   1.059  0.0910 -0.3405 -0.3157
    1WF      WF65570   3.183  22.465   0.627 -0.3565  0.2320 -0.1840
    1WF      WF65571  28.514   9.428   7.966  0.1051 -0.0400 -0.0252
    1WF      WF65572  23.387  24.890   6.535 -0.1217 -0.1527 -0.0507
    1WF      WF65573  15.625   1.521   1.430  0.0296 -0.1950 -0.0588
    1WF      WF65574  17.675  18.650   0.652  0.3091 -0.2380  0.1539
    1WF      WF65575   8.003   8.122   3.075 -0.0340  0.2503 -0.1102
    1WF      WF65576  21.153  10.336   8.587 -0.1862 -0.0948  0.2942
    1WF      WF65577   0.854   9.529   0.185 -0.0833  0.0466 -0.1681
    1WF      WF65578  16.665   6.610   2.120 -0.0309 -0.0364  0.0645
    1WF      WF65579   6.504  19.570   7.497 -0.1444 -0.0391  0.3795
    1WF      WF65580  19.305   4.839   0.733  0.0705 -0.1474  0.3043
    1WF      WF65581  15.411  10.115   9.165  0.0344 -0.1412 -0.1251
    1WF      WF65582   0.179   2.755   8.330 -0.0916  0.1302 -0.1048
    1WF      WF65583  26.194   1.725   0.916 -0.1846  0.0680  0.0369
    1WF      WF65584   0.880   4.219   1.994 -0.2244 -0.2634 -0.1472
    1WF      WF65585  20.010   9.595   0.007 -0.0837 -0.3177  0.0435
    1WF      WF65586  24.715   0.602   7.846 -0.0942  0.0338 -0.1997
    1WF      WF65587   2.262  19.760   7.700  0.0507 -0.0540 -0.0253
    1WF      WF65588   2.205  22.479   8.050  0.2394 -0.0850  0.2498
    1WF      WF65589   3.974  12.535   0.262  0.0371 -0.0581  0.0531
    1WF      WF65590  21.141  29.535   3.541  0.1341 -0.1286  0.0850
    1WF      WF65591   6.946   3.206   8.736  0.1539 -0.0949  0.1143
    1WF      WF65592  15.930   1.099   1.463  0.2341  0.0846  0.1929
    1WF      WF65593  28.649  25.977   0.905 -0.0174  0.0936  0.0588
    1WF      WF65594   6.184  15.111   6.922  0.0942  0.1033 -0.1149
    1WF      WF65595  19.175   2.078   0.764  0.0950 -0.0340 -0.0333
    1WF      WF65596  14.290   5.026   7.360  0.1894 -0.1733 -0.2049
    1WF      WF65597  23.195  26.354   2.051 -0.2580 -0.0926  0.0709
    1WF      WF65598   3.283   6.010   9.477 -0.1250 -0.2457 -0.0427
    1WF      WF65599   0.726   6.658   0.369 -0.2499 -0.1746 -0.0712
    1WF      WF65600   4.701  19.791   8.651  0.2811  0.0721  0.3842
    1WF      WF65601   7.273  26.340   1.023  0.0572  0.2757 -0.0956
    1WF      WF65602   4.136   9.162   8.345  0.0433  0.0983 -0.0141
    1WF      WF65603  14.571  15.954   7.622  0.0791  0.2098 -0.2878
    1WF      WF65604  18.180   3.998   9.226  0.1751 -0.2394  0.2261
    1WF      WF65605  11.266   1.119   9.327 -0.0459  0.0859  0.0991
    1WF      WF65606  19.797  26.366   1.109 -0.2048  0.2589 -0.1460
    1WF      WF65607  28.205   2.204   0.831 -0.0876  0.2976 -0.1744
    1WF      WF65608   2.705  26.150   8.718  0.0044  0.0217 -0.1180
    1WF      WF65609   5.273  29.472   8.948 -0.0916  0.1198  0.1216
    1WF      WF65610  18.075  28.961   0.505  0.1325  0.2690 -0.2075
    1WF      WF65611  20.090  20.445   0.712 -0.4595  0.0480  0.1752
    1WF      WF65612  12.570  12.046   0.887 -0.1368  0.1120 -0.1272
    1WF      WF65613  14.743  13.008   2.477 -0.0342  0.2971  0.1756
    1WF      WF65614  27.222   3.295   8.833  0.0165 -0.0775 -0.2162
    1WF      WF65615  24.682  14.886   6.669  0.0719 -0.0294  0.0904
    1WF      WF65616  11.633  15.987   0.741 -0.1674 -0.1026 -0.1492
    1WF      WF65617  28.588  26.452   9.392 -0.0785  0.1118 -0.0280
    1WF      WF65618   6.615  19.741   1.273  0.2130 -0.2025 -0.3119
    1WF      WF65619   5.867  25.033   0.679  0.0910  0.0960 -0.1373
    1WF      WF65620   6.946  11.362   8.038 -0.0642 -0.3444 -0.1736
    1WF      WF65621  17.413  14.536   8.960 -0.0443 -0.0174 -0.1995
    1WF      WF65622  20.151  16.882   7.833 -0.2801  0.2531  0.2702
    1WF      WF65623  13.338   4.023   1.629  0.0743 -0.2108 -0.2952
    1WF      WF65624  25.025   5.836   0.876 -0.1823  0.2780  0.0504
    1WF      WF65625   0.903  22.726   7.756 -0.1603  0.3311  0.0501
    1WF      WF65626   1.067  16.166   6.377 -0.2979  0.0813 -0.2668
    1WF      WF65627  15.792  22.487   1.296  0.2969 -0.1758 -0.1976
    1WF      WF65628  28.181  28.650   8.787  0.0884  0.1888  0.0681
    1WF      WF65629   3.363  24.856   1.439  0.0319  0.1009  0.1505
    1WF      WF65630  17.271   9.544   1.296  0.0067  0.1707 -0.3794
    1WF      WF65631  19.165   2.159   8.967  0.1579  0.0487 -0.0458
    1WF      WF65632   5.716   1.023   8.153  0.3196 -0.1404 -0.0346
    1WF      WF65633  28.523  29.125   7.459 -0.0958  0.0176  0.0305
    1WF      WF65634  17.382  27.769   0.564 -0.2127 -0.2500 -0.0243
    1WF      WF65635   7.185   5.288   9.244  0.2032  0.0014 -0.3289
    1WF      WF65636  21.515  22.159   8.812 -0.1268  0.2194 -0.2349
    1WF      WF65637  22.998  15.941   7.784 -0.1258  0.3382 -0.1130
    1WF      WF65638   0.726  15.192   0.095  0.3032  0.0546  0.3172
    1WF      WF65639  26.024  26.058   3.496 -0.0404 -0.0877 -0.0653
    1WF      WF65640  18.856   1.212   0.966  0.0418 -0.0492 -0.0107
    1WF      WF65641  24.299   4.624   7.169 -0.0019  0.2123  0.1091
    1WF      WF65642  14.700  20.757   8.001  0.3481  0.0543  0.0986
    1WF      WF65643  18.780   9.292   0.008  0.1595  0.0397  0.1989
    1WF      WF65644  22.043   8.247   7.926 -0.1135 -0.1883  0.1363
    1WF      WF65645  23.098  12.285   0.092 -0.0271 -0.0837  0.2060
    1WF      WF65646  27.946  12.820   9.120 -0.2453  0.2780  0.3554
    1WF      WF65647   9.974  20.713   8.752 -0.1239  0.2926  0.2847
    1WF      WF65648   5.128  20.442   1.281  0.1122  0.1902 -0.1672
    1WF      WF65649  11.225   5.474   1.421 -0.2646 -0.0467 -0.2788
    1WF      WF65650   2.489  19.675   1.146 -0.0750  0.1450  0.0239
    1WF      WF65651  25.020  16.155   7.351 -0.0653 -0.1103  0.0816
    1WF      WF65652  10.399   8.386   7.449  0.3857  0.0907 -0.2985
    1WF      WF65653  14.903  17.765   1.356 -0.0478 -0.2827  0.1116
    1WF      WF65654  10.957  13.778   8.463  0.1610 -0.3471  0.3953
    1WF      WF65655  20.679  11.734   2.531  0.0584 -0.0339 -0.0428
    1WF      WF65656   0.763   4.545   0.802 -0.2434 -0.1415  0.0433
    1WF      WF65657   3.977  23.353   1.709  0.1390  0.0196  0.1740
    1WF      WF65658  17.446  22.845   8.567 -0.0321 -0.0399  0.0736
    1WF      WF65659  27.131   5.783   8.701 -0.0744 -0.3377 -0.2096
    1WF      WF65660  13.634  21.883   8.247 -0.3471  0.4906 -0.0873
    1WF      WF65661  23.595  20.238   7.345 -0.4483  0.0795  0.1877
    1WF      WF65662  20.444  20.840   0.360 -0.1906  0.2391  0.1687
    1WF      WF65663  18.136   6.644   0.244 -0.0831 -0.2350 -0.1158
    1WF      WF65664   9.257  17.786   2.331  0.0551  0.2240 -0.1792
    1WF      WF65665   4.533  27.546   7.553  0.3310 -0.0375 -0.0327
    1WF      WF65666  23.400   2.519   1.674 -0.0075  0.0942 -0.3422
    1WF      WF65667  20.056   7.332   7.441 -0.0844 -0.1941 -0.4184
    1WF      WF65668   1.239  20.646   1.423  0.1210  0.2285 -0.0414
    1WF      WF65669  20.301  10.510   7.638 -0.0337 -0.1814 -0.1627
    1WF      WF65670  18.408  29.255   6.674  0.0400  0.1209 -0.0439
    1WF      WF65671   6.219   6.588   9.246  0.1298  0.1452 -0.0614
    1WF      WF65672  26.515  29.322   0.047 -0.0862  0.1077 -0.0481
    1WF      WF65673  13.202   9.328   9.135  0.1832  0.0943  0.1396
    1WF      WF65674   5.964  19.489   2.426  0.0145  0.1142 -0.0426
    1WF      WF65675   4.346   4.633   0.553 -0.0486  0.2728  0.1841
    1WF      WF65676  26.692   5.199   3.183  0.1440 -0.1059 -0.1441
    1WF      WF65677  10.572  16.492   0.678  0.0090  0.0199  0.0497
    1WF      WF65678   0.964  21.005   1.254  0.1370  0.2403 -0.0371
    1WF      WF65679   5.155  17.509   0.567  0.2595 -0.0908  0.0977
    1WF      WF65680  26.569  22.350   9.079 -0.0020 -0.4849  0.0711
    1WF      WF65681  28.370  10.089   9.401  0.2879 -0.5494  0.3087
    1WF      WF65682   9.787   6.687   1.637 -0.0358 -0.0729 -0.2524
    1WF      WF65683  18.792   8.970   9.135  0.1990 -0.3826  0.2203
    1WF      WF65684   4.885  16.336   8.296  0.2142  0.1715  0.0641
    1WF      WF65685   4.084   7.849   0.087  0.1211  0.3352  0.0781
    1WF      WF65686  28.065  16.495   0.617 -0.5092 -0.3400 -0.0374
    1WF      WF65687   1.975  16.374   8.627  0.0105 -0.2170 -0.2506
    1WF      WF65688  22.792   1.375   7.469  0.0069 -0.2027  0.0870
    1WF      WF65689   8.876  27.826   8.864 -0.1344 -0.0266  0.0681
    1WF      WF65690  17.176  15.412   7.168 -0.0017  0.1152 -0.4390
    1WF      WF65691  14.753  25.134   8.852  0.1174  0.1872  0.2744
    1WF      WF65692  27.767   5.097   1.426  0.3839  0.1171  0.0051
    1WF      WF65693  16.362  18.055   7.410  0.1450 -0.0978 -0.0205
    1WF      WF65694  26.126  24.363   0.165  0.3061 -0.0813  0.5019
    1WF      WF65695  24.232   0.537   8.576 -0.1588 -0.0670 -0.1529
    1WF      WF65696  28.251  14.522   7.925 -0.1900  0.3111  0.1086
    1WF      WF65697  25.805   4.888   2.598  0.1285 -0.2250  0.1024
    1WF      WF65698  25.310   6.924   8.844  0.2386  0.2258  0.0459
    1WF      WF65699  12.432  18.259   1.246  0.0276 -0.3890 -0.0563
    1WF      WF65700  16.604  13.087   1.095 -0.1653 -0.0839  0.1098
    1WF      WF65701  23.331  26.406   0.973  0.0045  0.1442  0.0452
    1WF      WF65702  21.501   8.639   1.419 -0.2060  0.1653 -0.0412
    1WF      WF65703   6.285  14.928   0.524  0.3141  0.1048  0.1487
    1WF      WF65704  26.777  25.912   8.921 -0.0377  0.2039 -0.1355
    1WF      WF65705   0.780   6.739   8.683 -0.3837 -0.0997 -0.2015
    1WF      WF65706  17.583  13.964   7.175 -0.0538  0.0775 -0.0853
    1WF      WF65707   7.635  11.627   8.854 -0.0476 -0.1998 -0.1110
    1WF      WF65708   1.831  16.744   6.484 -0.0632  0.1807  0.1404
    1WF      WF65709  11.167  15.520   7.890 -0.2399 -0.0665  0.1034
    1WF      WF65710   1.200   4.700   1.876  0.4426  0.0671  0.1455
    1WF      WF65711  14.069   4.114   1.037 -0.1789 -0.0163  0.0650
    1WF      WF65712   7.814  16.602   0.747  0.0629 -0.1081  0.0037
    1WF      WF65713  27.308   2.889   1.318  0.0806 -0.0464  0.4857
    1WF      WF65714  21.862   5.895   1.408 -0.0135  0.1767  0.0095
    1WF      WF65715  11.318  10.384   0.928 -0.2036 -0.1669 -0.0445
    1WF      WF65716  14.267  21.658   6.692  0.0481  0.0777 -0.0162
    1WF      WF65717   2.730   6.646   1.890 -0.2148 -0.0647 -0.1029
    1WF      WF65718   0.102   0.828   0.596  0.2783  0.2563 -0.0084
    1WF      WF65719  28.996  21.126   9.055 -0.1056  0.1346 -0.0545
    1WF      WF65720   2.273  22.052   0.085 -0.1828 -0.0591  0.2265
    1WF      WF65721   6.710  14.667   8.948  0.1601 -0.1352  0.0457
    1WF      WF65722  29.102  24.547   1.203  0.0752 -0.0587  0.3818
    1WF      WF65723   3.905   4.860   1.742  0.2935  0.4361 -0.2206
    1WF      WF65724   0.581  18.390   8.653  0.1034 -0.0713  0.1138
    1WF      WF65725  24.546   4.544   0.488  0.5620 -0.1693  0.2231
    1WF      WF65726  27.277  23.349   8.508  0.0241 -0.1717  0.1720
    1WF      WF65727  27.677  26.433   8.529 -0.2735  0.0660 -0.0976
    1WF      WF65728   4.673   3.823   1.903  0.1211  0.0419 -0.0573
    1WF      WF65729  26.754  13.825   9.509  0.0493 -0.1296 -0.2391
    1WF      WF65730   1.361  11.725   0.507  0.0920 -0.0187  0.1316
    1WF      WF65731  20.237   5.883   7.452 -0.0402 -0.2842 -0.1373
    1WF      WF65732   4.261   5.307   7.143 -0.0930 -0.0285 -0.3150
    1WF      WF65733  21.777  27.070   1.200 -0.0712 -0.1799 -0.1912
    1WF      WF65734  15.941   1.330   1.050  0.0228  0.0022 -0.0077
    1WF      WF65735  12.618  15.040   0.170 -0.0548  0.0635 -0.0603
    1WF      WF65736  19.670   0.326   2.119 -0.0102  0.0866  0.1436
    1WF      WF65737  18.085   9.547   0.674 -0.1030  0.0093  0.1592
    1WF      WF65738  24.105  23.675   6.483 -0.0497 -0.2847  0.2942
    1WF      WF65739  20.559   7.251   2.295  0.1802  0.3270  0.2099
    1WF      WF65740  14.662   0.195   9.197 -0.0530 -0.0854 -0.1116
    1WF      WF65741   8.544   6.253   1.406  0.0766 -0.0705 -0.2398
    1WF      WF65742   6.377  25.311   0.563 -0.0467  0.1123 -0.1864
    1WF      WF65743   9.973  27.531   9.057  0.1596  0.2070  0.2179
    1WF      WF65744   4.018  25.405   1.732  0.0536  0.0169 -0.2220
    1WF      WF65745  10.070   8.575   7.834 -0.0327  0.0513 -0.3051
    1WF      WF65746  10.367  20.912   8.289  0.0185  0.0446  0.0083
    1WF      WF65747   3.908  23.873   9.427 -0.2967 -0.0927  0.1751
    1WF      WF65748  11.019  25.691   6.362  0.2008  0.0207  0.1252
    1WF      WF65749   4.853  26.920   1.086 -0.1647  0.1367  0.1614
    1WF      WF65750   1.505  27.236   7.733 -0.2876  0.1278  0.1547
    1WF      WF65751  15.932   6.338   0.172 -0.1209 -0.0453  0.3923
    1WF      WF65752  19.528   5.823   1.865  0.0692 -0.2257  0.1294
    1WF      WF65753   8.634   5.424   9.163 -0.2083  0.0043  0.0040
    1WF      WF65754  24.054   2.044   1.698 -0.0825 -0.2219  0.2655
    1WF      WF65755  10.113  14.907   0.452 -0.2522 -0.0192  0.2502
    1WF      WF65756   0.126   6.295   0.056  0.5036 -0.0976  0.3161
    1WF      WF65757   5.343  25.474   9.462 -0.1474  0.0694  0.2028
    1WF      WF65758   2.777  27.400   8.927  0.0039 -0.1544  0.1337
    1WF      WF65759   6.284  23.834   0.901 -0.1430  0.0073  0.4185
    1WF      WF65760  19.114  12.669   7.784  0.1128 -0.3189 -0.3194
    1WF      WF65761  28.770  23.480   1.570 -0.1715 -0.1587  0.0508
    1WF      WF65762  24.155   9.468   6.707 -0.2246  0.0693 -0.3600
    1WF      WF65763  27.835  10.607   6.803 -0.2001 -0.0372 -0.0954
    1WF      WF65764  26.108   3.964   2.080 -0.1904  0.0165 -0.0941
    1WF      WF65765   3.635  20.760   8.818  0.2720 -0.0987 -0.1088
    1WF      WF65766  25.576  12.830   7.607  0.0269 -0.2208 -0.2854
    1WF      WF65767  12.123  18.565   1.481 -0.1776  0.2739  0.1512
    1WF      WF65768   4.365  21.057   8.004  0.0822 -0.1151 -0.1027
    1WF      WF65769  17.784   6.718   3.024 -0.0143 -0.1070 -0.4782
    1WF      WF65770  14.820  19.767   8.486 -0.2039  0.1316 -0.2549
    1WF      WF65771  13.456   1.410   2.403 -0.1155 -0.1248  0.1221
    1WF      WF65772   3.220  29.107   9.247  0.2551 -0.0067  0.0737
    1WF      WF65773  22.470   1.313   2.296 -0.1509 -0.1273 -0.0525
    1WF      WF65774   4.825  24.838   1.896  0.1515  0.2207  0.0844
    1WF      WF65775  12.736  11.143   7.515  0.0366 -0.2149  0.0955
    1WF      WF65776  11.768  27.750   9.440 -0.0589  0.1725 -0.3444
    1WF      WF65777   9.888   6.338   1.989 -0.0326  0.2962  0.0158
    1WF      WF65778  15.182  10.526   9.450 -0.1294  0.1627  0.2276
    1WF      WF65779  20.417   1.915   8.911 -0.0781 -0.3633  0.1077
    1WF      WF65780   0.430  17.942   8.496  0.0125  0.1189  0.0551
    1WF      WF65781   7.003  16.939   1.358  0.1389 -0.4063 -0.1101
    1WF      WF65782  26.086  20.454   8.447 -0.3117  0.0241  0.2560
    1WF      WF65783  19.016   8.731   1.365  0.1413  0.1641  0.2522
    1WF      WF65784  27.164   4.925   6.686  0.1131  0.4379 -0.0944
    1WF      WF65785  12.002  11.743   9.296  0.2349 -0.0784 -0.0230
    1WF      WF65786  12.073   6.489   2.056  0.0033 -0.0942  0.3003
    1WF      WF65787   5.137  29.007   8.713 -0.0519  0.0238 -0.3777
    1WF      WF65788   8.338  15.970   1.567  0.0252  0.0678  0.1215
    1WF      WF65789  17.748   7.950   1.758  0.0754  0.1699  0.0672
    1WF      WF65790  11.432  21.292   0.696 -0.1032  0.0709 -0.0034
    1WF      WF65791   6.565   2.924   8.908 -0.1473 -0.3860  0.0968
    1WF      WF65792   1.521  28.229   1.170  0.1310 -0.1487  0.2732
    1WF      WF65793  12.524  21.168   8.400 -0.2111  0.0212 -0.0521
    1WF      WF65794  18.463  21.882   0.953  0.0594  0.1633 -0.2089
    1WF      WF65795  19.765  22.073   8.619  0.2084 -0.0025 -0.1294
    1WF      WF65796  21.395   0.064   0.876 -0.0055 -0.0181  0.1886
    1WF      WF65797   6.483  15.192   8.831  0.2346  0.0834 -0.2826
    1WF      WF65798  11.301  21.251   0.227  0.0981 -0.1479 -0.0652
    1WF      WF65799  26.614  19.376   1.222  0.2071 -0.1385 -0.0935
    1WF      WF65800  18.817  10.231   6.974 -0.1614  0.2026  0.0754
    1WF      WF65801  29.372   8.150   9.047 -0.0370  0.3353  0.0782
    1WF      WF65802  27.835  13.190   8.775 -0.1694  0.1370  0.2368
    1WF      WF65803  14.608   3.041   0.629 -0.0951 -0.0873  0.1243
    1WF      WF65804   9.514  13.128   8.705 -0.0434 -0.2866  0.0916
    1WF      WF65805   8.754   6.428   8.592  0.0405 -0.0292 -0.1240
    1WF      WF65806  11.221  24.280   7.647  0.0380 -0.0488  0.0799
    1WF      WF65807  21.421  14.122   5.510 -0.2354 -0.1700 -0.0009
    1WF      WF65808   9.686  22.740   9.034 -0.1747 -0.1717 -0.0165
    1WF      WF65809  16.878  28.139   7.424  0.1741 -0.0184 -0.3776
    1WF      WF65810   7.121  10.456   0.493 -0.0139 -0.2642  0.1008
    1WF      WF65811  16.106  13.240   7.534  0.0401  0.2236  0.1904
    1WF      WF65812  23.973  11.240   8.383  0.0556  0.0377  0.1129
    1WF      WF65813  11.640  19.522   7.752 -0.3245 -0.0429 -0.1926
    1WF      WF65814   3.034   9.200   2.879  0.2297  0.0918 -0.1374
    1WF      WF65815  21.918   3.484   9.450  0.0561 -0.1602  0.0542
    1WF      WF65816  25.804  14.670   8.554 -0.0790 -0.0710  0.3038
    1WF      WF65817   6.094  13.889   9.409 -0.0027 -0.2541  0.1853
    1WF      WF65818  27.335  10.646   8.471  0.1812  0.0853 -0.3737
    1WF      WF65819   2.509  26.684   2.061 -0.1178 -0.0034 -0.2162
    1WF      WF65820  12.504   1.304   8.460  0.2203 -0.1828  0.0189
    1WF      WF65821   6.573  20.132   1.598  0.1360  0.0486 -0.0052
    1WF      WF65822  15.159  24.073   6.711  0.2559 -0.0683 -0.2120
    1WF      WF65823   1.437  14.002   1.080 -0.0526 -0.0072 -0.0948
    1WF      WF65824   9.986  13.271   0.055  0.0893  0.1089 -0.1444
    1WF      WF65825   2.272  17.523   0.630 -0.1987  0.0508 -0.0659
    1WF      WF65826  16.117  18.257   7.984  0.0002 -0.3105  0.2384
    1WF      WF65827  15.190   7.296   1.856 -0.3102  0.1817  0.0261
    1WF      WF65828  12.340  14.507   0.945  0.0663 -0.0470  0.0749
    1WF      WF65829  13.341  28.655   0.284  0.0674  0.1362  0.1169
    1WF      WF65830   3.436  22.142   0.082 -0.2668  0.0809  0.1189
    1WF      WF65831  26.395  26.078   3.164 -0.2750 -0.4456  0.0039
    1WF      WF65832   8.468  18.379   9.414  0.0401  0.0408 -0.0237
    1WF      WF65833  24.393  18.231   9.551  0.2073 -0.0560 -0.2506
    1WF      WF65834  23.459  26.097   0.522  0.0373  0.0830  0.0923
    1WF      WF65835  22.350  19.315   1.042  0.1512 -0.3170  0.0235
    1WF      WF65836   4.521  12.960   0.026 -0.1256  0.1147 -0.1715
    1WF      WF65837   3.637   5.663   8.334 -0.1450  0.2488 -0.0454
    1WF      WF65838   8.455  16.491   1.559 -0.2895 -0.1548  0.1368
    1WF      WF65839  14.941  13.720   0.940  0.1278 -0.2546 -0.1680
    1WF      WF65840  10.492  27.539   9.005  0.4129 -0.1207 -0.0718
    1WF      WF65841  21.699  21.018   2.449  0.1589 -0.1913 -0.1827
    1WF      WF65842   3.702  23.713   1.511  0.2175 -0.0077  0.1765
    1WF      WF65843  17.901   1.724   1.263 -0.1551 -0.0640 -0.0581
    1WF      WF65844  29.253   5.981   6.472 -0.1167  0.2560  0.1199
    1WF      WF65845  23.327  19.047   8.938 -0.4106 -0.0195 -0.3794
    1WF      WF65846  21.986   3.223   0.412  0.0885 -0.1108 -0.1301
    1WF      WF65847  12.373   6.815   1.352 -0.0985  0.1769 -0.0488
    1WF      WF65848  15.523  23.229   9.415 -0.2420 -0.0570 -0.3895
    1WF      WF65849  20.398  15.429   9.246  0.0799  0.1656  0.2268
    1WF      WF65850  14.417  29.375   2.220 -0.1998  0.1186 -0.0012
    1WF      WF65851  20.538  27.297   2.388  0.0185  0.0504  0.0747
    1WF      WF65852   3.307  15.112   0.273 -0.0315 -0.0082  0.0211
    1WF      WF65853  29.328  29.283   0.582 -0.1762  0.1751 -0.1867
    1WF      WF65854  19.310  22.842   6.582  0.0759  0.0316 -0.0748
    1WF      WF65855  11.641  22.870   6.446 -0.1648 -0.2948  0.0284
    1WF      WF65856  25.283   1.140   6.810 -0.0940  0.4462  0.2088
    1WF      WF65857   3.414  20.089   0.199 -0.0555 -0.2036  0.0409
    1WF      WF65858  14.543   4.465   0.123 -0.1494  0.3440  0.0237
    1WF      WF65859   4.443   4.141   0.483 -0.2118  0.0633 -0.1487
    1WF      WF65860  10.509  26.163   0.971 -0.1524 -0.3133  0.0383
    1WF      WF65861  21.969  23.659   0.216  0.2471  0.0602  0.0308
    1WF      WF65862  17.157  25.914   1.802  0.3599  0.3911  0.1006
    1WF      WF65863  13.111  14.664   1.266 -0.1573  0.0343 -0.0979
    1WF      WF65864  27.063  15.926   8.653  0.1390  0.1566 -0.0962
    1WF      WF65865  29.776   4.101   2.000 -0.0260  0.0200  0.0239
    1WF      WF65866   3.447  12.492   8.635  0.0333 -0.1209  0.1218
    1WF      WF65867  15.077  25.910   2.001  0.3637  0.0661  0.1271
    1WF      WF65868  24.376   0.812   8.154 -0.2155  0.1728 -0.0263
    1WF      WF65869  19.160  13.027   6.213  0.1188  0.3213 -0.1864
    1WF      WF65870  13.131   7.360   0.731 -0.0837  0.0841 -0.0463
    1WF      WF65871   4.155  13.598   8.763 -0.2338 -0.0438 -0.0346
    1WF      WF65872  14.056   7.501   8.610  0.3044 -0.1959 -0.1012
    1WF      WF65873  19.482  23.675   0.645 -0.2652  0.0417 -0.3263
    1WF      WF65874   5.085   0.828   2.550  0.0727  0.1535 -0.0323
    1WF      WF65875  13.131  22.011   1.814 -0.1911  0.0133  0.1539
    1WF      WF65876  10.703  15.257   7.945  0.2373  0.1737  0.3038
    1WF      WF65877   8.068   8.979   1.160  0.1621 -0.3595 -0.1498
    1WF      WF65878   5.423  15.352   8.681  0.0313  0.0352  0.0919
    1WF      WF65879   0.303   2.791   0.386 -0.0388 -0.1275 -0.1852
    1WF      WF65880  19.122  18.573   9.372  0.1186  0.1950  0.2126
    1WF      WF65881  22.819   0.238   0.400  0.3212 -0.1619 -0.1751
    1WF      WF65882  25.831   1.862   1.280 -0.0662 -0.0215 -0.0668
    1WF      WF65883  20.163  21.153   0.154 -0.4110 -0.2614  0.2211
    1WF      WF65884  13.250  17.201   8.770  0.2300  0.2855  0.1208
    1WF      WF65885   4.283   9.316   1.613  0.1084  0.1763 -0.1869
    1WF      WF65886   1.033  26.915   0.807 -0.0326 -0.0496  0.3058
    1WF      WF65887  29.684   2.314   8.381  0.3732 -0.1697 -0.0727
    1WF      WF65888  26.729  22.993   1.553  0.1161  0.0905  0.2823
    1WF      WF65889  17.043  26.427   1.833 -0.2351 -0.2120 -0.3844
    1WF      WF65890  26.688  21.735   9.462  0.3138  0.2161 -0.2784
    1WF      WF65891  22.674  11.814   9.427 -0.1873 -0.0482  0.0882
    1WF      WF65892   4.097   3.731   9.215  0.0839 -0.1793  0.3025
    1WF      WF65893   6.759  23.546   0.948 -0.4429  0.1823  0.5135
    1WF      WF65894  19.003   4.841   1.163 -0.2237 -0.3493 -0.0648
    1WF      WF65895  21.845  17.123   8.114  0.1508  0.1583 -0.1021
    1WF      WF65896   7.443  11.379   0.601 -0.0985  0.2270  0.0136
    1WF      WF65897   6.228  17.196   1.294 -0.0300  0.0964  0.0464
    1WF      WF65898   9.167   5.156   1.331  0.1560  0.1237  0.2517
    1WF      WF65899  29.155   2.902   9.090  0.1675 -0.3555 -0.1269
    1WF      WF65900  18.563  16.392   9.377  0.1020 -0.0119 -0.0402
    1WF      WF65901   3.992  13.538   2.570 -0.2858 -0.1246  0.1612
    1WF      WF65902   1.346  28.753   7.376  0.0819  0.0132 -0.0715
    1WF      WF65903  20.732  26.353   1.626  0.4567 -0.2299 -0.2161
    1WF      WF65904   4.943  17.052   8.288 -0.1808 -0.0457 -0.1612
    1WF      WF65905  19.070  29.510   7.374  0.1258  0.0612 -0.2066
    1WF      WF65906  22.351   3.586   0.444  0.2563  0.0636  0.3063
    1WF      WF65907  17.868  27.609   0.995  0.0744 -0.1929 -0.0387
    1WF      WF65908  11.518  25.929   9.110  0.1374  0.3303  0.2512
    1WF      WF65909  28.310   1.168   6.724 -0.0540 -0.3101  0.1747
    1WF      WF65910   7.405  19.934   8.505 -0.1297 -0.0229  0.0523
    1WF      WF65911  19.841   3.741   8.803  0.0852 -0.1279  0.3364
    1WF      WF65912  27.679  24.874   0.346 -0.3440 -0.1451  0.0230
    1WF      WF65913  23.420   3.619   0.320  0.1930 -0.1834  0.2610
    1WF      WF65914  27.221  20.072   0.480 -0.0206 -0.0034 -0.4983
    1WF      WF65915  18.931  10.691   7.230  0.1000  0.1797 -0.2250
    1WF      WF65916   7.045   4.771   3.579 -0.0856 -0.3064  0.0980
    1WF      WF65917  19.194   0.666   7.542 -0.1232 -0.1066 -0.1346
    1WF      WF65918  16.968   2.516   0.635  0.4162 -0.3783 -0.3759
    1WF      WF65919   4.433   7.775   9.250  0.1408 -0.1784 -0.2446
    1WF      WF65920  24.384  22.454   1.471  0.0432  0.2722 -0.1468
    1WF      WF65921  28.635  25.175   8.070  0.2429 -0.0814  0.0216
    1WF      WF65922  14.962   0.271   8.413 -0.3479 -0.1190  0.3246
    1WF      WF65923  21.520   1.010   0.914  0.4111  0.3449  0.4500
    1WF      WF65924  24.408  26.114   8.091  0.0279  0.0671 -0.0849
    1WF      WF65925  18.112  14.894   6.259  0.0981  0.2500  0.1009
    1WF      WF65926   8.018   3.003   2.518 -0.1892  0.0976  0.0617
    1WF      WF65927  17.502  27.650   8.905  0.3410 -0.1563  0.0619
    1WF      WF65928   5.016  16.531   0.252  0.2076  0.1984  0.0669
    1WF      WF65929  19.181   7.087   7.128 -0.0862 -0.0613 -0.3376
    1WF      WF65930   4.344  15.145   9.536  0.3304  0.1838 -0.0011
    1WF      WF65931  10.753  26.092   0.565 -0.2391 -0.0981  0.0494
    1WF      WF65932  19.046  23.755   0.920 -0.1738  0.2027  0.5500
    1WF      WF65933  13.011  18.348   9.186 -0.0070  0.1681  0.0862
    1WF      WF65934  22.958  24.294   8.299 -0.3308 -0.0554 -0.1172
    1WF      WF65935   2.246  14.824   8.931 -0.0945  0.0765 -0.1870
    1WF      WF65936   7.268   0.528   0.946 -0.0287 -0.0927 -0.3361
    1WF      WF65937  24.723   8.674   2.945  0.2001 -0.3700 -0.0357
    1WF      WF65938  21.096   2.652   0.620 -0.0067  0.1240 -0.1003
    1WF      WF65939  23.686  12.345   8.366  0.0365 -0.2123 -0.0746
    1WF      WF65940   5.708   4.390   8.442 -0.0613 -0.2550 -0.3498
    1WF      WF65941  19.045   3.116   1.841 -0.3093  0.2013  0.2351
    1WF      WF65942  21.255  10.162   1.567  0.0296 -0.0150 -0.0264
    1WF      WF65943   0.864   7.891   7.817  0.1957 -0.2342  0.2291
    1WF      WF65944  22.703  12.126   7.334  0.0910  0.3724 -0.1584
    1WF      WF65945  26.260  22.252   7.324 -0.0696  0.0378  0.0553
    1WF      WF65946  19.143  17.753   7.214 -0.1422  0.0367 -0.3278
    1WF      WF65947  13.958  16.709   8.990  0.1975  0.3308 -0.0178
    1WF      WF65948   9.561  10.059   1.051 -0.0489  0.1547 -0.0167
    1WF      WF65949  10.730  28.280   0.394  0.0037  0.3160  0.0291
    1WF      WF65950   5.148   8.513   1.651  0.2456 -0.2361  0.0241
    1WF      WF65951   5.265   2.963   8.117  0.1987 -0.1480 -0.1636
    1WF      WF65952  11.483  18.450   8.161  0.0247  0.1296  0.2017
    1WF      WF65953  17.433  20.938   1.116 -0.3598 -0.1861 -0.3893
    1WF      WF65954  24.328  28.077   0.490 -0.0037 -0.2276 -0.3205
    1WF      WF65955   9.858   1.977   8.505  0.1036  0.0232  0.0357
    1WF      WF65956  27.347   1.672   1.031 -0.2565 -0.2840  0.2115
    1WF      WF65957  20.182  12.815   7.672 -0.3208 -0.0294 -0.2040
    1WF      WF65958   2.018  14.192   8.285 -0.0611  0.1263  0.0198
    1WF      WF65959   5.795  19.922   0.814 -0.0597 -0.0211 -0.1764
    1WF      WF65960  18.590   7.216   9.547  0.0868 -0.0173  0.0429
    1WF      WF65961  10.631  20.833   0.911  0.1489 -0.0257  0.3421
    1WF      WF65962   3.891  23.580   8.646 -0.2550  0.3874 -0.2666
    1WF      WF65963  19.101   1.925   3.721 -0.1253  0.2504  0.1542
    1WF      WF65964  28.126   5.655   8.653  0.1588 -0.0955  0.1006
    1WF      WF65965  17.513  12.780   6.381 -0.2010 -0.1449 -0.0964
    1WF      WF65966  21.666   9.317   2.004  0.2568 -0.0548  0.2233
    1WF      WF65967  23.014   3.410   1.480  0.1699 -0.1343 -0.4239
    1WF      WF65968  19.962  11.418   0.739  0.2752 -0.2531 -0.0498
    1WF      WF65969  23.558   2.061   1.845  0.0835 -0.3422  0.0079
    1WF      WF65970  17.280   2.106   0.586 -0.2284  0.0858  0.0275
    1WF      WF65971  18.463  28.467   7.534  0.1218  0.3001 -0.0589
    1WF      WF65972  17.763  14.444   7.358 -0.0969 -0.2449  0.0223
    1WF      WF65973  12.806   1.469   7.061 -0.0314  0.0640  0.0066
    1WF      WF65974  23.771  22.470   7.687  0.0599 -0.0620  0.0476
    1WF      WF65975   5.069   0.058   3.052  0.1618  0.0459 -0.0310
    1WF      WF65976   4.549  20.091   9.021  0.0147 -0.1351 -0.0591
    1WF      WF65977  28.629  19.349   8.048 -0.0993  0.1830  0.0878
    1WF      WF65978  13.140  20.012   1.169  0.0511  0.0761 -0.0805
    1WF      WF65979   4.360  24.166   9.434  0.1514  0.3162  0.0129
    1WF      WF65980   7.391  16.972   0.642 -0.3301  0.3418  0.1976
    1WF      WF65981   3.019  20.974   0.981  0.3262  0.1879  0.2109
    1WF      WF65982  18.508  22.022   8.606  0.1544 -0.0972  0.0620
    1WF      WF65983  18.516  10.909   1.134 -0.0339 -0.1043 -0.1204
    1WF      WF65984   8.853  14.010   0.723 -0.2913  0.1299 -0.0005
    1WF      WF65985  16.199  20.189   8.690  0.0386 -0.3786  0.0902
    1WF      WF65986  22.391   9.130   0.729 -0.4723  0.1795  0.0190
    1WF      WF65987  23.967  22.903   0.436  0.1518  0.1873  0.1800
    1WF      WF65988  12.004  15.712   0.831 -0.5330 -0.3862 -0.3177
    1WF      WF65989   3.723  17.383   7.919  0.1200  0.2173 -0.1541
    1WF      WF65990   2.747   3.530   2.564  0.1900  0.1460 -0.0121
    1WF      WF65991   7.865  13.478   9.266 -0.0048  0.2953 -0.2677
    1WF      WF65992  25.726  23.536   7.807  0.4269 -0.0254 -0.3246
    1WF      WF65993   5.332   4.177   8.223  0.2193  0.0525 -0.1904
    1WF      WF65994  20.492   2.975   1.010  0.3315 -0.3447 -0.0478
    1WF      WF65995  24.507   8.476   7.954 -0.2612 -0.1573  0.0438
    1WF      WF65996  12.113   5.684   2.849 -0.0329  0.1915 -0.0232
    1WF      WF65997   5.684  20.377   9.214 -0.1148 -0.1122 -0.2185
    1WF      WF65998  18.739  15.110   7.802  0.0718 -0.1044 -0.0278
    1WF      WF65999   3.667  26.695   8.380 -0.0057 -0.0823 -0.0178
    1WF      WF66000  22.099  22.121   0.672  0.0241  0.0147  0.0248
    1WF      WF66001  29.103   2.583   2.211  0.2703  0.2788  0.0551
    1WF      WF66002  23.160  10.671   6.895 -0.1435 -0.1839 -0.5875
    1WF      WF66003  24.696   8.036   8.212 -0.2215  0.1094  0.0753
    1WF      WF66004  10.628  24.172   8.920 -0.2777 -0.0077  0.2025
    1WF      WF66005  16.369  24.247   8.023 -0.1101  0.0198 -0.1144
    1WF      WF66006  23.027  19.963   0.591 -0.2414  0.0909  0.0236
    1WF      WF66007  11.124  22.324   0.688 -0.0802 -0.1451  0.0316
    1WF      WF66008   4.845  13.161   0.349 -0.0638 -0.0035  0.1456
    1WF      WF66009  21.637  20.700   8.494 -0.1389 -0.0990  0.0948
    1WF      WF66010   1.033  17.428   9.439  0.2502 -0.0360  0.0756
    1WF      WF66011   7.321  21.674   1.586 -0.2091 -0.3428 -0.0080
    1WF      WF66012  20.948  29.554   9.481 -0.1477 -0.0668  0.1798
    1WF      WF66013  24.680  13.936   7.910  0.1466 -0.2207  0.1134
    1WF      WF66014   7.435   4.879   2.208 -0.3447  0.1437 -0.3488
    1WF      WF66015  16.239   0.055   0.577 -0.0013 -0.0075  0.1726
    1WF      WF66016  18.727  28.828   1.076 -0.0915  0.1351 -0.1255
    1WF      WF66017  27.099   8.683   8.772 -0.0187  0.4039  0.2280
    1WF      WF66018  22.252  13.653   9.220 -0.2887 -0.1397 -0.0831
    1WF      WF66019  11.038   5.220   6.911 -0.1382 -0.0196 -0.0315
    1WF      WF66020  15.143  17.691   0.432  0.4111 -0.1310  0.1377
    1WF      WF66021  16.896  18.345   8.687 -0.2162 -0.0035  0.1144
    1WF      WF66022   2.629  16.555   1.820 -0.5722  0.1741  0.2425
    1WF      WF66023   1.419  10.649   0.540  0.2940  0.0146 -0.2991
    1WF      WF66024  14.781  28.535   7.918 -0.1830  0.0875 -0.2426
    1WF      WF66025  28.285  22.761   7.798  0.0922  0.0646 -0.0514
    1WF      WF66026  29.478   4.872   2.461  0.0569 -0.3647  0.1910
    1WF      WF66027  20.619  13.187   8.961  0.1592 -0.2059 -0.3183
    1WF      WF66028  27.182  27.563   7.814 -0.2276  0.2265 -0.0245
    1WF      WF66029  11.610   8.181   9.136 -0.0448  0.0799  0.2424
    1WF      WF66030  24.516  27.277   1.579  0.0110 -0.0895  0.0822
    1WF      WF66031   6.859  19.535   9.393 -0.0190 -0.0275 -0.0047
    1WF      WF66032   7.851   3.182   2.069 -0.0328 -0.0363  0.0127
    1WF      WF66033  28.265  14.289   0.505  0.2151 -0.0700 -0.0667
    1WF      WF66034  10.650  24.926   7.480 -0.1907  0.0410 -0.0557
    1WF      WF66035  25.258  16.543   6.850  0.2592  0.3815  0.0590
    1WF      WF66036   6.336  14.261   9.143  0.2293 -0.1417  0.1225
    1WF      WF66037   0.259   9.483   0.351 -0.0939  0.1528  0.1388
    1WF      WF66038   3.525  20.172   7.666  0.1230 -0.0590 -0.3108
    1WF      WF66039  15.293  13.332   1.799 -0.2576  0.1896  0.0766
    1WF      WF66040   1.585   2.022   9.023  0.3019  0.0783  0.0409
    1WF      WF66041  25.679   9.309   9.339 -0.0752  0.1210 -0.0641
    1WF      WF66042  19.513   0.929   0.251 -0.1410 -0.1353 -0.1357
    1WF      WF66043   4.345  19.628   8.944  0.3474 -0.1629  0.0120
    1WF      WF66044  25.874  16.964   6.757 -0.1905 -0.1735 -0.2582
    1WF      WF66045  21.091   4.404   2.906  0.0783 -0.1821 -0.1737
    1WF      WF66046   2.827  27.124   1.934  0.1065 -0.0628  0.2634
    1WF      WF66047  27.463   3.868   2.263  0.3997 -0.1898 -0.2896
    1WF      WF66048  16.772  20.839   1.478 -0.0754  0.1946  0.2425
    1WF      WF66049  20.130  19.436   2.389  0.1337 -0.0184 -0.1755
    1WF      WF66050   5.777  22.874   1.425  0.0427 -0.1325 -0.0962
    1WF      WF66051  25.971  24.529   9.287 -0.1819  0.1379 -0.0337
    1WF      WF66052   2.882   0.763   7.422 -0.0218 -0.0946  0.0015
    1WF      WF66053  20.523   1.881   7.485  0.2113 -0.0431 -0.2850
    1WF      WF66054   5.886   5.355   1.064 -0.0449 -0.4006 -0.1870
    1WF      WF66055   4.112  25.590   8.575 -0.0903  0.0923 -0.1088
    1WF      WF66056  23.548  16.576   0.556  0.2940  0.1275 -0.2914
    1WF      WF66057   1.836  28.400   8.049  0.3319  0.4536  0.1132
    1WF      WF66058   9.479   9.462   1.233  0.1137 -0.0475 -0.0697
    1WF      WF66059  19.225   1.856   3.195 -0.0052 -0.0272  0.1540
    1WF      WF66060  10.116   7.903   8.545  0.2424  0.0910  0.0320
    1WF      WF66061   0.012   7.687   9.143 -0.1686  0.0052 -0.0723
    1WF      WF66062  17.437  13.176   6.059 -0.1464  0.1056 -0.2302
    1WF      WF66063  29.211  24.582   7.698  0.1362 -0.1412  0.0313
    1WF      WF66064  27.010  18.944   1.868  0.0131  0.0304  0.0349
    1WF      WF66065  26.548  19.205   8.583 -0.1478 -0.0002  0.0302
    1WF      WF66066  28.417  23.365   9.462 -0.0262  0.1854  0.2538
    1WF      WF66067  12.013  22.307   7.118 -0.1968 -0.0517  0.0981
    1WF      WF66068  14.254   6.365   0.221 -0.2809  0.3718 -0.4628
    1WF      WF66069   1.678  10.252   0.581 -0.0308  0.0700 -0.0624
    1WF      WF66070  25.119  14.722   9.218 -0.3405  0.0429 -0.1197
    1WF      WF66071  24.117   8.311   8.302  0.0697 -0.0006  0.0362
    1WF      WF66072   7.328  10.900   0.450  0.1760  0.2758 -0.1541
    1WF      WF66073   8.816  18.072   2.408 -0.2831  0.3170  0.2378
    1WF      WF66074   9.114   5.148   9.209 -0.0129 -0.1143 -0.1172
    1WF      WF66075  14.439   9.271   0.196 -0.1877 -0.2333 -0.2634
    1WF      WF66076  11.494   9.813   1.205  0.2543  0.1631 -0.0889
    1WF      WF66077   5.089  16.429   0.748 -0.1904  0.0166 -0.4559
    1WF      WF66078  19.445  26.167   1.404 -0.1046  0.3341  0.0387
    1WF      WF66079  23.496  15.358   7.083  0.0856  0.0122 -0.3029
    1WF      WF66080  16.632  16.122   8.017 -0.0352  0.0216  0.2630
    1WF      WF66081   3.349  10.613   8.115 -0.0657 -0.1114  0.0590
    1WF      WF66082   6.677  28.857   8.290 -0.0355 -0.3044  0.0379
    1WF      WF66083  17.691  11.165   8.312 -0.0533 -0.3633  0.1127
    1WF      WF66084   7.879   0.383   2.116 -0.3143 -0.2549  0.2262
    1WF      WF66085  17.403  18.504   8.622 -0.0853  0.0903  0.0224
    1WF      WF66086   0.610  25.317   8.347 -0.2765 -0.0302 -0.1726
    1WF      WF66087  15.104   3.143   0.829 -0.0367 -0.1369  0.1158
    1WF      WF66088   1.377  29.720   0.346  0.2321  0.1349 -0.1442
    1WF      WF66089  19.159  19.633   0.545 -0.0246 -0.0876  0.4574
    1WF      WF66090   5.134  17.067   0.296 -0.2400 -0.0730  0.0188
    1WF      WF66091   4.364  28.029   1.699  0.2309 -0.0556  0.0966
    1WF      WF66092  20.076   3.555   1.333  0.0690  0.2799 -0.0232
    1WF      WF66093  17.760   1.826   0.810 -0.3065  0.0860 -0.1454
    1WF      WF66094   1.534   9.360   1.088  0.0232  0.0342  0.0867
    1WF      WF66095  25.023   1.068   8.614  0.0403 -0.3854 -0.2084
    1WF      WF66096  23.102  11.868   7.509 -0.2796 -0.2820 -0.0882
    1WF      WF66097  23.395   2.614   8.640 -0.0991 -0.0154  0.0417
    1WF      WF66098  15.313   0.490   0.225 -0.0967  0.2164  0.0722
    1WF      WF66099  19.579  15.530   0.604  0.0145 -0.0773 -0.1868
    1WF      WF66100  19.637   6.226   6.843 -0.0984 -0.1098 -0.1872
    1WF      WF66101  22.660  24.708   1.106  0.0453 -0.4886  0.0277
    1WF      WF66102   9.818  27.561   0.188  0.2102  0.1251  0.0188
    1WF      WF66103   7.815  20.959   8.964  0.2539  0.0909 -0.1162
    1WF      WF66104   5.965   6.897   8.034  0.0756  0.1918  0.2559
    1WF      WF66105  18.483  29.440   1.134  0.2625  0.2190  0.1296
    1WF      WF66106  26.652  16.853   8.605 -0.0473  0.2491  0.2150
    1WF      WF66107   9.425   0.346   2.019  0.2526  0.1760  0.2637
    1WF      WF66108  29.303  20.335   8.484 -0.1688 -0.1559  0.1446
    1WF      WF66109   6.380   5.069   2.970  0.1031 -0.1066  0.2796
    1WF      WF66110  16.584   1.142   9.462 -0.1964  0.1359 -0.1097
    1WF      WF66111  12.570  11.420   8.727 -0.1748  0.3011 -0.1759
    1WF      WF66112  25.418  14.108   1.514 -0.2723  0.0936 -0.1549
    1WF      WF66113  24.744  28.120   0.091 -0.1868 -0.2761 -0.1618
    1WF      WF66114  22.874  25.181   1.072 -0.2013  0.3210  0.2296
    1WF      WF66115  16.908  25.563   1.032 -0.0500 -0.0618 -0.0247
    1WF      WF66116  12.688   8.027   6.285  0.2218  0.0139 -0.0654
    1WF      WF66117  13.680  24.671   8.923 -0.1664  0.1811 -0.1746
    1WF      WF66118  12.102   2.410   9.044  0.1271 -0.1407  0.1162
    1WF      WF66119   4.107  25.850   8.135 -0.0020 -0.2708 -0.0296
    1WF      WF66120  27.596   3.160   1.019  0.1378 -0.0493  0.1221
    1WF      WF66121  12.401  15.598   8.782 -0.0732 -0.1634  0.2494
    1WF      WF66122  23.823   2.491   1.958  0.0267  0.0388  0.1013
    1WF      WF66123   7.482   6.253   8.139 -0.1350  0.0218  0.1841
    1WF      WF66124  29.142   5.093   0.362 -0.0630 -0.1418 -0.2654
    1WF      WF66125  19.589  18.058   7.273 -0.4142 -0.0038 -0.1276
    1WF      WF66126  22.823   8.827   0.740 -0.0356 -0.1134  0.1254
    1WF      WF66127  28.986   9.028   0.780  0.1962 -0.2172 -0.1005
    1WF      WF66128  20.457  28.261   9.007  0.1063 -0.2389  0.4497
    1WF      WF66129  13.952  19.966   7.670  0.1100 -0.0244  0.0522
    1WF      WF66130   9.873  23.532   0.790 -0.1721 -0.1635  0.1493
    1WF      WF66131   2.329  24.475   9.388  0.2602 -0.0566  0.0149
    1WF      WF66132  12.892  25.899   8.311 -0.0243  0.0705  0.0639
    1WF      WF66133   0.393   1.701   3.077  0.1973 -0.1340  0.1654
    1WF      WF66134   4.136  27.081   2.623  0.0134  0.0176  0.1270
    1WF      WF66135   0.186   7.199   2.292 -0.3210  0.1149 -0.2052
    1WF      WF66136   3.721   9.733   2.332 -0.0881  0.3362 -0.0530
    1WF      WF66137  24.880  25.318   9.121  0.0913  0.4846  0.0771
    1WF      WF66138  27.517  27.177   7.686  0.3137  0.0967 -0.3043
    1WF      WF66139  29.723  22.261   9.266  0.2075  0.0623 -0.2834
    1WF      WF66140  21.256   1.177   1.324  0.0111  0.0980  0.0306
    1WF      WF66141  11.109   8.360   0.891  0.0932 -0.3800  0.1657
    1WF      WF66142  13.862   1.815   8.713 -0.1170  0.3191 -0.0055
    1WF      WF66143   6.459  16.370   2.594  0.1569  0.0177  0.0872
    1WF      WF66144   1.274   6.581   0.310 -0.3317 -0.4367 -0.1838
    1WF      WF66145   4.430   0.904   9.137 -0.3912  0.0488 -0.0111
    1WF      WF66146  18.573   4.212   0.041  0.1307  0.3320  0.0235
    1WF      WF66147   7.149  27.325   1.812 -0.0773  0.0452  0.0645
    1WF      WF66148  19.666  18.143   9.428  0.0492 -0.0823 -0.2612
    1WF      WF66149   7.081  22.108   1.752 -0.3539 -0.0814 -0.1558
    1WF      WF66150  20.401  15.865   9.537 -0.2661  0.1881  0.0058
    1WF      WF66151  25.869   0.475   9.553 -0.2249  0.2216 -0.1848
    1WF      WF66152  29.677   5.743   0.257  0.5759 -0.2188  0.0920
    1WF      WF66153  22.182  29.398   1.532  0.0042  0.5152  0.0696
    1WF      WF66154  15.611   0.086   8.948 -0.0605 -0.2042 -0.0206
    1WF      WF66155  21.009  13.840   8.856 -0.1452 -0.2541  0.1608
    1WF      WF66156   5.200  25.977   6.270 -0.0927  0.0212 -0.5433
    1WF      WF66157  24.986  24.637   0.064  0.1320 -0.1239 -0.1594
    1WF      WF66158  23.378   4.146   2.068 -0.0824 -0.0812  0.2089
    1WF      WF66159  11.499   9.862   2.759  0.0294 -0.0408 -0.1636
    1WF      WF66160   8.436   6.760   8.753  0.1844 -0.1308 -0.1357
    1WF      WF66161   0.045  17.719   8.779  0.0388  0.1970 -0.1183
    1WF      WF66162   4.781  21.253   1.083 -0.3116 -0.0317 -0.4818
    1WF      WF66163   8.113   0.690   2.412  0.4072  0.0790  0.0793
    1WF      WF66164   1.662  21.105   9.130 -0.1520  0.1906  0.0231
    1WF      WF66165  14.533  22.155   1.156 -0.0717  0.0164  0.0431
    1WF      WF66166   7.963  13.033   9.115  0.3397  0.0755  0.3069
    1WF      WF66167  10.838  28.482   1.681  0.2512  0.2681  0.0592
    1WF      WF66168   4.265  21.226   1.191 -0.0160  0.3332  0.1404
    1WF      WF66169  10.175  21.748   9.365  0.0963  0.2902 -0.1127
    1WF      WF66170   9.784  27.215   8.700 -0.2213 -0.1093 -0.1194
    1WF      WF66171  14.883  12.579   9.046 -0.0668  0.2488  0.3222
    1WF      WF66172  17.825   7.463   1.832 -0.0004 -0.1756  0.1306
    1WF      WF66173  20.835   7.990   8.588 -0.2328 -0.4287 -0.0793
    1WF      WF66174  15.830  20.597   6.853  0.2356  0.2352  0.0191
    1WF      WF66175   4.376  24.879   8.994  0.0035  0.1551 -0.0717
    1WF      WF66176  15.131   7.770   0.193  0.1498 -0.0626 -0.1758
    1WF      WF66177  16.863   8.121   9.136 -0.1694 -0.1345 -0.0316
    1WF      WF66178  12.751  17.647   7.092  0.1035  0.0224  0.5155
    1WF      WF66179  29.182   0.379   0.125  0.3665  0.2908  0.0741
    1WF      WF66180  23.667  26.430   1.760  0.0461  0.3155 -0.0340
    1WF      WF66181  23.919  24.884   1.208 -0.1253  0.1770 -0.0948
    1WF      WF66182  14.746   6.060   0.999  0.0251 -0.0685  0.1845
    1WF      WF66183   5.550   8.108   1.673  0.1645 -0.1130 -0.0539
    1WF      WF66184   6.906  13.473   9.130  0.3204  0.1281  0.1051
    1WF      WF66185   4.143  14.722   9.372  0.1622  0.1163  0.1180
    1WF      WF66186  24.416   5.368   8.497  0.0211  0.3214  0.1535
    1WF      WF66187  14.164  28.308   7.090  0.3965 -0.0507  0.0731
    1WF      WF66188  12.326  15.967   9.249  0.0581  0.1777  0.0801
    1WF      WF66189   3.739  23.386   9.239  0.1429 -0.0288 -0.0148
    1WF      WF66190  25.451  28.230   1.941  0.4174  0.1478 -0.0460
    1WF      WF66191  13.549  25.016   7.324  0.0851 -0.0495  0.0788
    1WF      WF66192  12.949   9.675   9.476 -0.3384  0.0551  0.2335
    1WF      WF66193  23.941  11.531   1.882  0.1441 -0.1372  0.1903
    1WF      WF66194  11.409   6.480   8.309 -0.0508  0.0718 -0.1938
    1WF      WF66195   4.916  11.929   2.096 -0.1599  0.1243 -0.1925
    1WF      WF66196  19.765  24.821   2.917  0.1167 -0.0357  0.0499
    1WF      WF66197  20.825   8.404   8.313  0.0381 -0.1820  0.1790
    1WF      WF66198  19.086   0.796   1.160  0.0790 -0.1057  0.3166
    1WF      WF66199  13.226   5.227   0.509 -0.1894  0.1147  0.0309
    1WF      WF66200  28.744   5.904   8.743  0.1290  0.1609 -0.1067
    1WF      WF66201  23.337  12.158   8.730 -0.0113  0.4270  0.0525
    1WF      WF66202  22.719   5.786   2.067  0.1900 -0.0170  0.2443
    1WF      WF66203   9.673   8.971   3.052 -0.1010 -0.1035  0.1226
    1WF      WF66204   0.888  20.699   7.818  0.2121  0.1895  0.0333
    1WF      WF66205  12.726   9.296   0.149 -0.1237 -0.2861 -0.0642
    1WF      WF66206  22.755  17.507   8.229 -0.1301  0.0400 -0.3822
    1WF      WF66207  26.064   4.857   8.971 -0.2021  0.0968  0.0556
    1WF      WF66208   3.637   7.578   8.834 -0.2752 -0.1160 -0.0767
    1WF      WF66209   7.779  20.802   9.484  0.2248 -0.1629  0.2915
    1WF      WF66210  17.258  17.324   0.326 -0.0779 -0.2553 -0.1898
    1WF      WF66211  14.446  16.657   9.257  0.4409  0.1537  0.0091
    1WF      WF66212   1.961  26.385   2.070 -0.0877 -0.0017 -0.1217
    1WF      WF66213  13.955  14.133   8.368  0.0990  0.0890 -0.0872
    1WF      WF66214   6.149   1.071   8.366  0.1669 -0.3997  0.0052
    1WF      WF66215  10.647  28.974   7.030  0.1384  0.0274  0.1612
    1WF      WF66216  24.334  24.625   9.428 -0.1205  0.0065 -0.1833
    1WF      WF66217  22.323   7.406   1.018  0.1362  0.4204  0.2449
    1WF      WF66218  18.762  18.807   0.140  0.1172 -0.0954 -0.2727
    1WF      WF66219  28.774  15.834   7.308  0.0497 -0.1866  0.1146
    1WF      WF66220  25.125  19.642   6.895  0.0810  0.3085  0.0204
    1WF      WF66221  12.876   0.612   2.148 -0.1279  0.0381  0.3904
    1WF      WF66222   0.322  16.991   1.646  0.0099  0.0790 -0.2443
    1WF      WF66223  27.905   9.557   1.040  0.0022  0.1776  0.0799
    1WF      WF66224  18.517  19.468   7.308 -0.0435  0.1079 -0.0820
    1WF      WF66225  23.830   5.125   7.900 -0.2768  0.0209  0.1865
    1WF      WF66226   2.255  25.138   1.671  0.2512 -0.0976  0.1757
    1WF      WF66227   3.365  19.589   0.257  0.0537 -0.2671  0.1685
    1WF      WF66228  16.947  25.858   0.578  0.2303 -0.1186  0.2094
    1WF      WF66229   9.993  16.397   0.923 -0.1029  0.0941  0.1468
    1WF      WF66230   2.103  24.587   8.935 -0.0998 -0.1566 -0.4364
    1WF      WF66231  26.108  20.262   8.945  0.1147  0.1185  0.2811
    1WF      WF66232  10.877  22.831   0.674 -0.0520 -0.1291 -0.0042
    1WF      WF66233  15.164  15.446   0.044 -0.0510  0.2990 -0.1722
    1WF      WF66234  25.717  17.836   1.096 -0.0659  0.1009  0.0600
    1WF      WF66235  22.015   9.571   1.787  0.3536  0.4764 -0.0347
    1WF      WF66236  20.019  28.433   8.770 -0.0933  0.1492 -0.4866
    1WF      WF66237   6.591  11.172   8.345 -0.1163 -0.0162 -0.0269
    1WF      WF66238  12.601   7.015   9.245  0.1595  0.2373  0.0100
    1WF      WF66239  11.344  11.005   1.733  0.2080  0.0241  0.1198
    1WF      WF66240   5.571  24.782   2.357 -0.3172  0.0891 -0.1483
    1WF      WF66241   8.522   4.310   9.172  0.2215  0.0425 -0.2118
    1WF      WF66242  26.998  14.619   7.200 -0.0886 -0.2583 -0.1180
    1WF      WF66243   4.658  20.740   1.111  0.2724  0.0178 -0.0891
    1WF      WF66244  21.819  26.402   0.582 -0.2051  0.1917 -0.0072
    1WF      WF66245  28.310  19.133   0.256 -0.0710 -0.0152 -0.0380
    1WF      WF66246   1.772  22.136   8.300 -0.0535 -0.2872  0.1308
    1WF      WF66247   2.925   3.595   3.011  0.2082  0.0185 -0.0113
    1WF      WF66248  10.224   8.377   8.339 -0.0042 -0.1297  0.4423
    1WF      WF66249  26.131  23.898   7.962 -0.1468  0.5367  0.0577
    1WF      WF66250  20.280  16.609   8.253 -0.2399 -0.2677  0.0591
    1WF      WF66251  22.398   1.258   7.221  0.0450 -0.0156  0.0518
    1WF      WF66252  13.999  25.707   9.428  0.2312 -0.0836  0.1826
    1WF      WF66253   8.043  19.756   8.557  0.2495 -0.1386  0.0643
    1WF      WF66254  22.863  22.843   7.326 -0.3371 -0.0240  0.0313
    1WF      WF66255  14.825  19.854   0.420 -0.1528  0.1454  0.2750
    1WF      WF66256   4.985  13.320   9.457  0.0463 -0.0780  0.0206
    1WF      WF66257  19.606   4.328   9.119 -0.1741 -0.1884  0.2456
    1WF      WF66258  27.919  10.656   8.497  0.2209  0.3078 -0.1368
    1WF      WF66259   4.894   0.343   2.564 -0.2316  0.1576 -0.0530
    1WF      WF66260  27.610   5.581   8.708 -0.1081 -0.1063  0.1149
    1WF      WF66261  25.842  28.003   9.034 -0.1378 -0.0765  0.0369
    1WF      WF66262  28.753  20.734   9.321  0.2398  0.1768  0.3257
    1WF      WF66263   6.585  16.596   0.220 -0.0309 -0.1800  0.1390
    1WF      WF66264  14.831   2.322   8.036 -0.0431 -0.1285 -0.1289
    1WF      WF66265   9.167   0.656   8.790  0.2271 -0.1664  0.2489
    1WF      WF66266  25.268   3.449   1.283 -0.2038 -0.2088  0.0550
    1WF      WF66267   8.758   6.664   6.703 -0.1128 -0.4056 -0.1058
    1WF      WF66268   8.862   1.265   1.598 -0.0936  0.4593 -0.0203
    1WF      WF66269  19.006  11.524   7.801 -0.1693  0.1241 -0.0391
    1WF      WF66270   8.594  24.329   0.784 -0.1074  0.0621  0.2863
    1WF      WF66271  22.490   8.563   8.037  0.1713 -0.0869 -0.0630
    1WF      WF66272  20.939  11.350   2.203 -0.0686  0.1609 -0.1728
    1WF      WF66273  15.102  21.156   7.931 -0.2906  0.0609 -0.0243
    1WF      WF66274  11.077  18.145   0.298  0.1532  0.1698 -0.0418
    1WF      WF66275   3.088   1.952   2.959  0.2090  0.1410 -0.3388
    1WF      WF66276   3.562  11.458   8.303  0.0892  0.1078  0.1918
    1WF      WF66277  28.541   4.280   9.228 -0.0414 -0.1485 -0.3843
    1WF      WF66278  17.777  28.531   0.679  0.0058 -0.1439  0.0621
    1WF      WF66279  29.650   4.541   2.053  0.0630  0.0854 -0.1057
    1WF      WF66280  24.279   4.113   7.787 -0.1054 -0.4862  0.0351
    1WF      WF66281   8.274  17.758   0.602 -0.1813  0.0683  0.0878
    1WF      WF66282   0.809   8.482   2.725  0.0738  0.1009 -0.1801
    1WF      WF66283  26.760   4.840   6.359 -0.0216  0.3250 -0.0128
    1WF      WF66284  20.016  25.502   0.171  0.1982 -0.0463  0.1077
    1WF      WF66285   6.132  19.596   1.165 -0.1052 -0.2475  0.1955
    1WF      WF66286  14.463  28.441   7.477 -0.1459 -0.0061 -0.1170
    1WF      WF66287  28.804   9.507   6.586 -0.3078  0.0002 -0.0338
    1WF      WF66288  14.536  27.883   1.979  0.2186 -0.0256  0.0956
    1WF      WF66289  14.077  10.629   3.120  0.3134 -0.0540 -0.2160
    1WF      WF66290   5.672   7.603   1.757  0.0268  0.1343  0.2680
    1WF      WF66291  21.733  29.183   1.271 -0.2233 -0.0249  0.0175
    1WF      WF66292   2.007  28.817   1.047  0.3369  0.1854  0.2136
    1WF      WF66293   5.451   4.750   0.735  0.1665  0.0125 -0.1319
    1WF      WF66294   2.191   3.494   8.895 -0.0742  0.0092 -0.2347
    1WF      WF66295   4.530   7.457   0.041  0.0481 -0.1043 -0.1311
    1WF      WF66296  13.011   6.648   9.116 -0.1965 -0.3209 -0.1458
    1WF      WF66297  16.991  22.938   8.417  0.1198 -0.0898  0.1798
    1WF      WF66298  22.352  23.959   8.138  0.2342 -0.1989 -0.2028
    1WF      WF66299  23.419  24.942   1.383 -0.5082  0.3293 -0.2915
    1WF      WF66300   5.318  26.958   1.097 -0.2284  0.3420 -0.0680
    1WF      WF66301  18.002  29.077   2.674 -0.4266  0.1687  0.1598
    1WF      WF66302   1.864   5.456   0.988 -0.2921 -0.1039 -0.0421
    1WF      WF66303   6.621  27.044   8.378 -0.1458 -0.1638  0.3157
    1WF      WF66304  17.626  13.251   1.172  0.1190 -0.0577  0.1449
    1WF      WF66305   1.153   5.356   8.331  0.3011  0.0777 -0.0564
    1WF      WF66306  22.218  24.743   7.747 -0.4446  0.0573  0.1567
    1WF      WF66307  28.394   5.899   8.340  0.0265 -0.0652  0.1196
    1WF      WF66308  11.966  25.509   7.231  0.1933  0.0537  0.0261
    1WF      WF66309  27.375  27.657   0.433 -0.2425 -0.2654  0.0753
    1WF      WF66310  22.534  24.455   2.641 -0.2751  0.0228 -0.2563
    1WF      WF66311  17.586  27.555   8.435 -0.2392 -0.4234  0.0335
    1WF      WF66312  29.502   7.841   0.825  0.1041 -0.0997  0.0569
    1WF      WF66313  22.579   3.114   8.564 -0.0033  0.0416 -0.1839
    1WF      WF66314  27.182   8.436   8.342  0.0039 -0.2854 -0.0444
    1WF      WF66315  23.652  15.837   7.087 -0.1760 -0.1356  0.1310
    1WF      WF66316  25.186  21.287   1.254 -0.3433  0.1826  0.0057
    1WF      WF66317  12.781  21.485   6.622  0.1308 -0.2016 -0.0761
    1WF      WF66318   4.084   7.909   0.625  0.0960  0.2984  0.1683
    1WF      WF66319  21.473  17.562   9.121 -0.0241 -0.2564  0.3249
    1WF      WF66320   2.693  29.395   8.120  0.2924  0.2946  0.1432
    1WF      WF66321  24.776   0.112   7.732  0.1989 -0.0458 -0.0562
    1WF      WF66322   5.089  28.778   0.283 -0.1812 -0.2536  0.1701
    1WF      WF66323  18.528  24.867   2.586 -0.3316 -0.0189  0.2455
    1WF      WF66324  21.322   1.434   2.132  0.0349 -0.2662 -0.1525
    1WF      WF66325  13.107  28.953   1.757 -0.0206  0.1626 -0.1929
    1WF      WF66326  10.023  11.081   0.772  0.2321  0.2775  0.0316
    1WF      WF66327   7.501   4.315   1.563 -0.6220  0.0178 -0.3018
    1WF      WF66328   7.559  24.658   9.056  0.0305 -0.0144  0.0092
    1WF      WF66329  26.150  28.727   7.842 -0.1953  0.0714  0.0322
    1WF      WF66330  20.720   8.690   9.523 -0.1911  0.1597  0.1950
    1WF      WF66331  22.041  29.075   8.385  0.3818  0.0151  0.0692
    1WF      WF66332  21.411  11.056   7.420  0.1188  0.0989  0.0442
    1WF      WF66333   5.132   4.654   1.986  0.0766  0.2370  0.2006
    1WF      WF66334  27.360  22.060   0.441 -0.2771  0.1684 -0.0832
    1WF      WF66335  12.175   2.405   2.197 -0.1667 -0.1255  0.0250
    1WF      WF66336  19.356   2.875   1.514  0.1700 -0.1666 -0.0552
    1WF      WF66337  21.806   8.953   1.678  0.0219 -0.0908 -0.3449
    1WF      WF66338   5.818  20.819   8.264  0.1171  0.2192  0.2545
    1WF      WF66339  20.895  16.243   6.219  0.1126  0.1742  0.0100
    1WF      WF66340   1.822  19.258   6.853  0.0715  0.1801  0.3469
    1WF      WF66341  24.411  16.905   1.662  0.0605 -0.0263  0.1303
    1WF      WF66342   5.539  20.311   0.997 -0.0340 -0.0541 -0.0662
    1WF      WF66343   7.735   4.497   1.926  0.1860 -0.2124  0.1168
    1WF      WF66344  22.724  11.722   0.466  0.0329 -0.1156  0.1420
    1WF      WF66345  29.571   9.435   0.461  0.3082 -0.2538 -0.0067
    1WF      WF66346   9.689  23.144   8.161 -0.2627  0.0545  0.1326
    1WF      WF66347  12.486  11.443   1.484 -0.0864 -0.2576 -0.0634
    1WF      WF66348  29.047   6.271   8.663  0.2040 -0.1330  0.0608
    1WF      WF66349   9.821  25.782   0.302  0.1451  0.0078  0.2213
    1WF      WF66350  15.287  26.193   7.687 -0.2696 -0.1917  0.1178
    1WF      WF66351  18.187   2.002   8.878 -0.2521  0.2377 -0.0616
    1WF      WF66352  23.768  25.184   1.606 -0.0315 -0.0840  0.1293
    1WF      WF66353  21.048   0.387   0.392  0.0793  0.2849 -0.1081
    1WF      WF66354   1.618  22.703   0.137  0.1075 -0.0041 -0.0151
    1WF      WF66355  12.129  23.085   6.412  0.0028  0.0355  0.2846
    1WF      WF66356  11.246  13.369   8.288 -0.2368  0.1955 -0.1685
    1WF      WF66357   7.895   9.717   3.333 -0.2506 -0.0068  0.2389
    1WF      WF66358  23.187  10.854   8.125  0.0266 -0.1721  0.0795
    1WF      WF66359  18.762  24.502   0.438  0.0564  0.0719  0.0071
    1WF      WF66360   2.644  22.795   8.073 -0.0855  0.1527 -0.3868
    1WF      WF66361  18.451  14.048   0.797  0.1743 -0.0134 -0.2074
    1WF      WF66362  13.409  23.162   8.543  0.2753  0.0864  0.0089
    1WF      WF66363  29.451   8.600   8.896  0.2341 -0.4249 -0.0786
    1WF      WF66364  10.137  28.490   2.029  0.2632 -0.2423 -0.1142
    1WF      WF66365   5.533  29.740   9.294  0.3008 -0.0605  0.1110
    1WF      WF66366  21.420  11.418   7.821  0.0208  0.0376 -0.2270
    1WF      WF66367  10.754  13.214   6.566 -0.1435 -0.2049  0.2702
    1WF      WF66368   0.576   9.840   0.488 -0.1686  0.1024 -0.2284
    1WF      WF66369  17.823  24.639   1.098  0.0776  0.1302  0.1637
    1WF      WF66370  14.669   7.507   0.266  0.1584  0.3313 -0.0362
    1WF      WF66371   5.654   2.619   1.295  0.0516  0.0457  0.1912
    1WF      WF66372   6.097  23.465   6.844 -0.0417 -0.0607  0.0798
    1WF      WF66373  15.962  16.389   0.381  0.1045 -0.1851 -0.0023
    1WF      WF66374  16.768  11.823   9.536  0.0210  0.1655 -0.0676
    1WF      WF66375  16.881  10.442   1.212 -0.0130 -0.3184 -0.4372
    1WF      WF66376  22.221  10.543   8.753  0.0227  0.0655 -0.1107
    1WF      WF66377  24.894  20.309   8.538 -0.3629  0.1516 -0.0191
    1WF      WF66378  14.906   1.701   8.512  0.0172 -0.0795 -0.1950
    1WF      WF66379  16.973   6.706   8.177 -0.0285 -0.1320 -0.1017
    1WF      WF66380  10.077  18.023   9.037 -0.0211 -0.1626 -0.1793
    1WF      WF66381  22.238   8.595   7.610  0.4356  0.0504  0.0394
    1WF      WF66382   2.346   2.591   6.175  0.0046  0.0804  0.0069
    1WF      WF66383  22.424  19.773   9.017  0.2756 -0.0926 -0.0983
    1WF      WF66384   4.628  11.922   1.644 -0.0819 -0.0568 -0.5097
    1WF      WF66385  21.731  29.192   2.384  0.0762 -0.2023  0.1684
    1WF      WF66386   5.747   8.311   8.935  0.0592  0.0361 -0.1009
    1WF      WF66387  17.875  17.920   1.353  0.1192  0.0020  0.0488
    1WF      WF66388  15.269  12.591   7.041 -0.0836  0.2335  0.0613
    1WF      WF66389  12.351  20.712   2.518  0.0178 -0.2526  0.1915
    1WF      WF66390  15.239   8.008   7.581 -0.4077  0.0089  0.3457
    1WF      WF66391   0.178   4.488   1.697  0.2480 -0.0452  0.2997
    1WF      WF66392  26.857  22.684   0.981  0.0239 -0.0696  0.1337
    1WF      WF66393   0.768   4.326   0.291 -0.1073 -0.0664 -0.1525
    1WF      WF66394   5.994  17.650   1.505  0.0584  0.2024  0.2883
    1WF      WF66395  27.238  16.570   0.880  0.3298  0.0243 -0.4401
    1WF      WF66396  26.369   0.044   7.019 -0.1554  0.2942  0.0163
    1WF      WF66397   7.687  23.839   2.719 -0.1235 -0.0631 -0.2335
    1WF      WF66398  18.685  11.108   7.529 -0.1479 -0.1926  0.1722
    1WF      WF66399   6.519  21.767   9.452 -0.1046  0.0854 -0.1228
    1WF      WF66400  11.329  22.953   7.662  0.0844  0.0034  0.4220
    1WF      WF66401  19.906   3.950   3.522  0.1712 -0.1384 -0.1918
    1WF      WF66402  10.544   0.184   0.144 -0.1368 -0.0004 -0.1025
    1WF      WF66403   9.203   4.069   2.095 -0.1493 -0.1266  0.0008
    1WF      WF66404  13.433  25.935   1.140  0.1541  0.1088 -0.2934
    1WF      WF66405  11.176  19.555   7.975  0.0918 -0.0102  0.1519
    1WF      WF66406   1.515  12.177   0.237 -0.2004 -0.0860  0.0171
    1WF      WF66407  13.943  26.384   1.123  0.3574 -0.2324 -0.2703
    1WF      WF66408   7.658   5.789   8.282 -0.1313  0.0319  0.0857
    1WF      WF66409  24.307  10.082   0.383 -0.1365  0.0251 -0.5222
    1WF      WF66410   1.250   2.566   9.038  0.3010 -0.1285 -0.0115
    1WF      WF66411  29.500  12.138   9.387  0.0848 -0.2221  0.2980
    1WF      WF66412  21.658  24.830   2.372 -0.0234 -0.0245  0.1390
    1WF      WF66413   1.783   6.019   6.708  0.2746  0.4070  0.1695
    1WF      WF66414  25.570   7.096   8.451  0.0632  0.0385  0.0626
    1WF      WF66415  29.765  11.527   8.498  0.2552 -0.2534  0.0170
    1WF      WF66416   6.293  12.799   1.049 -0.0833  0.3615 -0.2025
    1WF      WF66417  25.305  23.685   0.318 -0.0102 -0.0315 -0.0447
    1WF      WF66418  28.658  22.966   1.492 -0.1382 -0.2070  0.1479
    1WF      WF66419  18.999   6.894   9.470  0.4174 -0.2222  0.0323
    1WF      WF66420  13.888  13.574   1.052  0.0322 -0.3126  0.3004
    1WF      WF66421  11.364  28.328   6.797  0.1870 -0.0497  0.1084
    1WF      WF66422  27.640   9.173   2.616 -0.0523  0.0210  0.2388
    1WF      WF66423  17.667  10.636   8.046 -0.1170 -0.0322 -0.0543
    1WF      WF66424   1.216  13.928   7.760  0.0639 -0.0462 -0.0144
    1WF      WF66425  17.094  10.492   1.642 -0.0018 -0.1361 -0.0010
    1WF      WF66426   8.885  19.117   7.961  0.0545  0.1085  0.0385
    1WF      WF66427  26.083  23.398   9.010 -0.1637  0.0249  0.0151
    1WF      WF66428  12.668  15.190   8.808 -0.0182  0.0895 -0.2538
    1WF      WF66429  11.137   6.867   3.681  0.0659 -0.1966  0.1892
    1WF      WF66430  29.617  22.036   8.085 -0.0257  0.1306 -0.0140
    1WF      WF66431  10.935  14.058   0.201  0.0922 -0.2616  0.1664
    1WF      WF66432  19.844  12.994   6.673 -0.1477 -0.1681 -0.1130
    1WF      WF66433  17.952   9.919   0.394  0.0802 -0.2744  0.2065
    1WF      WF66434  27.101   6.069   9.500 -0.1380  0.1312 -0.2042
    1WF      WF66435   7.612  27.676   0.776  0.2720  0.2427  0.3227
    1WF      WF66436   4.898  16.900   9.450  0.2121  0.1807 -0.0777
    1WF      WF66437  20.834   8.777   2.319  0.2177  0.0282  0.1124
    1WF      WF66438   7.450   0.198   1.877  0.1787  0.1359 -0.2811
    1WF      WF66439   2.224  12.480   8.051 -0.2482  0.2491  0.1044
    1WF      WF66440  20.251   8.699   9.285 -0.1085 -0.1977  0.0794
    1WF      WF66441  12.226  11.763   1.133 -0.2055  0.0646  0.1449
    1WF      WF66442  29.365  19.110   6.539  0.1669  0.0182 -0.3057
    1WF      WF66443  19.699   6.714   1.953  0.0578 -0.2314 -0.0407
    1WF      WF66444  24.714  19.662   1.542  0.0196 -0.1058  0.1955
    1WF      WF66445   7.598  14.297   0.163 -0.1635  0.0144 -0.0588
    1WF      WF66446  11.539  14.154   0.436  0.1617  0.2264 -0.1787
    1WF      WF66447  11.652  10.060   2.323  0.2894  0.0193  0.1650
    1WF      WF66448  15.319  21.890   9.448  0.2155  0.0035 -0.0890
    1WF      WF66449  11.426  25.799   0.039  0.2822 -0.0499 -0.0871
    1WF      WF66450  13.682  12.064   1.099 -0.0065  0.1560  0.0728
    1WF      WF66451  28.334  26.258   0.625  0.0876  0.2561 -0.1749
    1WF      WF66452  22.222   6.384   4.040  0.1897  0.2042 -0.0703
    1WF      WF66453  10.770   3.718   2.361  0.3351  0.2124 -0.0190
    1WF      WF66454  25.521  14.228   8.510  0.4207  0.0238  0.1859
    1WF      WF66455  19.886  17.226   0.196 -0.2615  0.4828 -0.4469
    1WF      WF66456  28.728  28.361   1.975  0.2347  0.0641 -0.1699
    1WF      WF66457   1.781   8.317   0.208 -0.3142  0.3429  0.0600
    1WF      WF66458   3.789  25.044   1.575  0.1941 -0.0976 -0.1700
    1WF      WF66459  20.260   0.735   9.162 -0.0131 -0.2280  0.2254
    1WF      WF66460  15.749   1.570   8.904 -0.0023  0.0291  0.1066
    1WF      WF66461  26.750   8.315   8.635 -0.1019  0.2041 -0.0260
    1WF      WF66462   4.355   1.645   0.908 -0.0188 -0.0573 -0.0808
    1WF      WF66463  15.863   7.131   2.194 -0.0152 -0.0561 -0.1608
    1WF      WF66464  10.289   3.130   1.838 -0.1093 -0.3177  0.2071
    1WF      WF66465   2.039  28.489   2.874 -0.3295  0.0891  0.2772
    1WF      WF66466  17.890  20.667   9.034 -0.2969 -0.0924  0.1769
    1WF      WF66467   9.807  11.696   1.474  0.0646  0.0413  0.0178
    1WF      WF66468   1.197  18.382   9.448 -0.1575 -0.1091  0.0821
    1WF      WF66469  12.179   5.941   1.980  0.1010 -0.1040  0.2842
    1WF      WF66470  22.190  13.472   8.743 -0.3257 -0.0205 -0.0482
    1WF      WF66471  28.316   1.825   0.076 -0.1929  0.2233  0.0270
    1WF      WF66472   0.934  12.993   1.397 -0.4324  0.0780 -0.0602
    1WF      WF66473   0.999  27.237   1.898 -0.0001  0.0343 -0.0263
    1WF      WF66474  16.175   1.248   0.618  0.3257  0.0400  0.2227
    1WF      WF66475  23.310  26.257   8.932 -0.1175 -0.0725 -0.1218
    1WF      WF66476  20.891   6.937   2.478 -0.1543 -0.3191  0.0665
    1WF      WF66477   7.009  27.026   8.831  0.0396 -0.2456 -0.3368
    1WF      WF66478  27.463  24.525   9.350 -0.1892  0.2347  0.2217
    1WF      WF66479  16.930   2.496   1.176 -0.0722  0.0058  0.2530
    1WF      WF66480  14.331  26.077   9.250  0.3060 -0.1305  0.1400
    1WF      WF66481  12.012   3.734   0.809 -0.1432 -0.0317 -0.4012
    1WF      WF66482  19.889  25.006   9.240  0.1115  0.0129 -0.0011
    1WF      WF66483  22.685  15.044   7.927 -0.1151  0.3573  0.0425
    1WF      WF66484  11.003  29.383   3.821 -0.1529  0.1925 -0.2834
    1WF      WF66485  28.450  13.815   0.391 -0.0209  0.1138 -0.1366
    1WF      WF66486   9.678  20.769   9.520 -0.0930 -0.2139  0.1997
    1WF      WF66487   8.786   3.987   1.049 -0.4131  0.1649  0.1778
    1WF      WF66488   8.474  29.339   8.057 -0.2154 -0.0250  0.0605
    1WF      WF66489   7.364   7.786   8.896  0.1615  0.2673  0.0744
    1WF      WF66490  13.822  19.834   0.197  0.1584  0.0871 -0.1122
    1WF      WF66491  22.069   9.284   1.351  0.0259 -0.1710 -0.0733
    1WF      WF66492   0.108   9.428   7.697  0.2374  0.0437 -0.2501
    1WF      WF66493  20.833   6.150   8.480  0.0867 -0.0764  0.0643
    1WF      WF66494  17.677  27.342   0.669 -0.3382  0.4666  0.0316
    1WF      WF66495   9.121  12.860   8.454 -0.0634 -0.1350 -0.2600
    1WF      WF66496  13.298  17.355   0.229  0.0555  0.1924 -0.2149
    1WF      WF66497  13.756  21.837   7.733  0.1116  0.2734  0.1739
    1WF      WF66498   1.922   4.794   7.713 -0.1574 -0.2191  0.2433
    1WF      WF66499   6.464   9.486   0.511  0.3119  0.0016  0.1364
    1WF      WF66500   1.945   1.463   2.050  0.2391 -0.1999  0.0451
    1WF      WF66501  25.167  28.167   0.375  0.2118 -0.0487 -0.3282
    1WF      WF66502  19.551  12.997   7.573 -0.0622  0.0104  0.0715
    1WF      WF66503  26.488  13.452   0.171 -0.0818  0.2237  0.0911
    1WF      WF66504  23.844  13.982   0.573 -0.0458 -0.1043 -0.0955
    1WF      WF66505   2.786  22.145   0.796 -0.0799  0.2183  0.1067
    1WF      WF66506   9.483  27.351   7.192  0.1755 -0.0410  0.0509
    1WF      WF66507  27.272  21.563   8.387  0.1052 -0.1186  0.3117
    1WF      WF66508  19.111  16.313   0.545  0.0494  0.2732 -0.0050
    1WF      WF66509   5.258  10.504   8.006 -0.0357  0.0098  0.0540
    1WF      WF66510   2.502  10.098   8.812  0.1164  0.1077  0.0743
    1WF      WF66511  11.113  18.054   7.100 -0.3397  0.2718  0.2292
    1WF      WF66512   0.229   2.051   8.673 -0.1768 -0.2122 -0.0883
    1WF      WF66513  27.389   2.986   8.206 -0.1833  0.0043  0.3070
    1WF      WF66514  12.715  24.374   0.782 -0.0795 -0.1018 -0.0561
    1WF      WF66515  17.509  19.723   5.863 -0.3292 -0.1772  0.1510
    1WF      WF66516  22.420   9.632   0.802  0.0379 -0.2536 -0.1723
    1WF      WF66517   0.604   2.405   0.493  0.0220 -0.0630 -0.0928
    1WF      WF66518  26.959  23.628   8.723  0.1623 -0.1207 -0.1086
    1WF      WF66519  27.691   0.170   7.833 -0.3151  0.2201 -0.0108
    1WF      WF66520  15.322  13.825   0.665 -0.0235 -0.0106 -0.2131
    1WF      WF66521  29.458  24.166   1.244 -0.0237  0.2181  0.2098
    1WF      WF66522  27.200  12.931   0.674  0.2728  0.4272  0.0983
    1WF      WF66523   7.258  14.346   0.547 -0.1633 -0.0978  0.0852
    1WF      WF66524   7.216   2.510   1.739 -0.1318 -0.3203 -0.3261
    1WF      WF66525   7.564  29.084   8.976  0.0785  0.2697 -0.4451
    1WF      WF66526  26.247  18.447   0.308  0.1446  0.0404  0.2055
    1WF      WF66527  15.032  13.990   0.300 -0.3478 -0.1431 -0.1668
    1WF      WF66528  19.870  23.931   0.743  0.1619 -0.0317  0.0826
    1WF      WF66529  20.358  16.165   6.323 -0.0540 -0.2148  0.4005
    1WF      WF66530  12.460  18.711   1.085  0.1581  0.1628  0.0049
    1WF      WF66531  21.135  29.059   9.537 -0.0807  0.2233  0.4001
    1WF      WF66532  11.641  25.240   9.133  0.1604 -0.1822 -0.2049
    1WF      WF66533   1.944  28.814   8.248  0.1640 -0.1466  0.0292
    1WF      WF66534  17.443  15.617   9.412  0.1632 -0.2423 -0.0306
    1WF      WF66535  17.885  10.358   8.360 -0.2336 -0.1739 -0.2665
    1WF      WF66536   4.784   6.745   8.485  0.2306 -0.0679 -0.2293
    1WF      WF66537  11.645  28.039   1.771  0.1604 -0.2872 -0.0535
    1WF      WF66538   1.883  29.563   5.976  0.1886  0.2308  0.1383
    1WF      WF66539  12.274   7.015   0.021 -0.1818  0.0879 -0.0556
    1WF      WF66540  18.063  16.406   9.246  0.0403  0.0848  0.1189
    1WF      WF66541  19.998   8.338   9.076  0.0126  0.0611 -0.1544
    1WF      WF66542  24.959  15.704   7.644  0.3643 -0.0778  0.0226
    1WF      WF66543  28.427   2.548   0.589  0.0230  0.1842  0.0267
    1WF      WF66544   4.404  17.642   0.076  0.2858  0.0786  0.0893
    1WF      WF66545  14.433  17.030   2.772  0.0237 -0.0547 -0.0422
    1WF      WF66546  27.880   4.083   2.346 -0.0167 -0.0506  0.0811
    1WF      WF66547  13.152  29.612   9.113  0.4898 -0.0634 -0.0087
    1WF      WF66548   8.973   3.538   1.296 -0.0362 -0.2159  0.1299
    1WF      WF66549  16.862   2.955   0.958 -0.0378  0.4091 -0.3529
    1WF      WF66550  27.191   5.622   0.349 -0.1177  0.5844 -0.2048
    1WF      WF66551  25.482  21.512   7.437  0.2543 -0.3427 -0.0009
    1WF      WF66552  18.418  11.417   1.391  0.0041 -0.0425  0.4846
    1WF      WF66553  10.247   8.393   6.961  0.0571  0.1606  0.1816
    1WF      WF66554  24.949   0.112   0.648  0.1372 -0.0164  0.0804
    1WF      WF66555  26.883  22.836   9.214 -0.2516  0.0922  0.1813
    1WF      WF66556  18.481  21.389   1.191  0.0288 -0.0910 -0.5608
    1WF      WF66557  18.418   1.969   8.339  0.1603  0.2550 -0.1187
    1WF      WF66558  18.436  14.145   2.606  0.1715  0.3838  0.3614
    1WF      WF66559  13.965   8.214   1.299 -0.3423 -0.1143  0.3333
    1WF      WF66560   2.187   3.943   0.870  0.2036  0.1562 -0.0318
    1WF      WF66561   2.686  20.697   0.694 -0.1287  0.0236 -0.0744
    1WF      WF66562   0.745  20.115   8.065 -0.0756 -0.0809  0.0444
    1WF      WF66563   9.608   4.344   2.003 -0.1805 -0.0238  0.0466
    1WF      WF66564   8.337   1.727   9.425 -0.4349 -0.1406 -0.2187
    1WF      WF66565   2.690   3.617   7.771 -0.0236  0.0717  0.1935
    1WF      WF66566  17.899   0.596   2.292 -0.2813  0.1495 -0.4318
    1WF      WF66567  11.934   6.601   1.101 -0.0617 -0.0011 -0.2910
    1WF      WF66568   3.856   4.171   9.248  0.2056  0.1653 -0.2091
    1WF      WF66569  29.079  19.531   0.798  0.1651 -0.2103 -0.2573
    1WF      WF66570  10.704  24.939   9.022 -0.2403 -0.1929  0.3486
    1WF      WF66571   9.968  18.620   9.081 -0.3431  0.0252 -0.3608
    1WF      WF66572   3.780  20.576   7.694  0.4131  0.3163  0.4034
    1WF      WF66573  15.515  20.125   1.141  0.2478 -0.0103 -0.1253
    1WF      WF66574   5.995   3.045   1.308 -0.2112  0.1442 -0.1377
    1WF      WF66575   8.551  14.836   1.487  0.2662 -0.2286  0.2510
    1WF      WF66576   1.645   8.755   7.990 -0.1282  0.0200 -0.0008
    1WF      WF66577  11.777   3.682   0.396  0.0293 -0.3541 -0.1906
    1WF      WF66578   3.899   2.483   8.670 -0.1052 -0.0245  0.2258
    1WF      WF66579   8.949  14.693   9.301  0.1224  0.0122  0.2135
    1WF      WF66580  24.436  20.262   8.815  0.0676  0.1822 -0.0618
    1WF      WF66581  17.246  14.046   9.450  0.2686 -0.4900  0.1592
    1WF      WF66582  21.482  27.395   0.033  0.2012  0.1523  0.0829
    1WF      WF66583  18.861   4.766   3.729  0.2801  0.3550 -0.0760
    1WF      WF66584   1.418  21.308   0.071 -0.2519  0.0191  0.0418
    1WF      WF66585   3.518  17.909   6.277 -0.1428 -0.0137  0.2312
    1WF      WF66586  27.526  21.938   8.193 -0.1328 -0.0624 -0.1594
    1WF      WF66587   1.399  23.155   0.086  0.1097 -0.0735  0.0731
    1WF      WF66588   4.883  17.400   0.029  0.0297 -0.1654 -0.0802
    1WF      WF66589  20.017   6.888   7.709  0.0965  0.1050 -0.3909
    1WF      WF66590   3.667  22.939   9.407 -0.1205  0.0132 -0.0957
    1WF      WF66591  28.580   3.863   8.959 -0.1332 -0.1648 -0.0132
    1WF      WF66592  20.835   1.494   0.135 -0.0463 -0.2783  0.1152
    1WF      WF66593  18.404  24.068   8.204  0.0952  0.0331 -0.0326
    1WF      WF66594   7.802  25.084   9.280 -0.1345  0.1104  0.2160
    1WF      WF66595   6.822   2.236   1.001 -0.0438  0.0797 -0.1850
    1WF      WF66596  20.809  28.747   7.913 -0.2577  0.3956  0.2174
    1WF      WF66597   9.114   4.643   1.276 -0.1562  0.0627 -0.0829
    1WF      WF66598   1.063   2.178   0.524 -0.0697  0.0214  0.1814
    1WF      WF66599  15.044  28.544   1.211 -0.0803  0.0175 -0.2850
    1WF      WF66600  26.580   3.575   1.634 -0.2960  0.0002  0.1259
    1WF      WF66601   2.490   9.881   2.502 -0.0357 -0.2538  0.0423
    1WF      WF66602  13.662   2.651   9.315 -0.3888  0.1917 -0.2507
    1WF      WF66603  25.356  21.453   0.725  0.1004  0.0233  0.1968
    1WF      WF66604   4.215   7.304   2.168  0.1347  0.1661  0.1132
    1WF      WF66605   2.705  14.152   8.445  0.3397 -0.2147  0.0318
    1WF      WF66606   7.216  23.248   0.574  0.0088  0.2296  0.0115
    1WF      WF66607   0.636  24.259   0.666  0.0371  0.0884 -0.0930
    1WF      WF66608  23.135   6.163   7.855  0.1493 -0.1891  0.1220
    1WF      WF66609  27.865  25.846   8.706  0.0431  0.2913  0.2063
    1WF      WF66610  22.759  25.778   2.058  0.4335 -0.3041  0.0176
    1WF      WF66611   5.925  13.685   0.349 -0.1136 -0.1807  0.4271
    1WF      WF66612   7.092   2.639   8.970  0.0650 -0.3452 -0.0193
    1WF      WF66613  12.796  11.380   6.543 -0.0351  0.0295 -0.0849
    1WF      WF66614  19.558   9.826   8.480  0.0629 -0.1202  0.2581
    1WF      WF66615  19.886  13.291   9.054  0.1755  0.0489 -0.1334
    1WF      WF66616  21.447   0.550   0.647 -0.0881 -0.2149  0.0607
    1WF      WF66617  28.013   8.219   6.614  0.0103  0.0945 -0.2014
    1WF      WF66618   1.174  21.383   0.977 -0.0889 -0.2064  0.1610
    1WF      WF66619  23.910   0.711   0.635  0.1745 -0.0181  0.0114
    1WF      WF66620   5.757   0.603   0.825 -0.0422 -0.0270 -0.3468
    1WF      WF66621  13.960   7.812   6.218 -0.0818  0.2564 -0.0074
    1WF      WF66622   1.996  10.678   2.680  0.1871  0.1331  0.3358
    1WF      WF66623  27.479  14.583   7.056 -0.0037  0.3197 -0.3460
    1WF      WF66624   7.821   7.906   8.750 -0.2655  0.4465 -0.2096
    1WF      WF66625  16.242   3.261   0.985  0.1907 -0.2109 -0.1861
    1WF      WF66626  23.692   1.850   1.309  0.1307  0.0555  0.0656
    1WF      WF66627   2.145   1.093   0.676 -0.2371  0.0619  0.0457
    1WF      WF66628  25.112   7.233   8.458 -0.0234  0.2348  0.0708
    1WF      WF66629   7.362  18.905   7.370 -0.0019  0.1744 -0.0672
    1WF      WF66630   9.445  16.525   0.171 -0.1320  0.0647 -0.0266
    1WF      WF66631  25.907  21.936   7.179 -0.2828 -0.2257 -0.2083
    1WF      WF66632   7.694  26.062   0.882  0.0486  0.2290  0.0491
    1WF      WF66633  10.209   2.008   8.166 -0.1837  0.0100  0.3644
    1WF      WF66634  10.056  17.617   9.378 -0.0186 -0.3163  0.0842
    1WF      WF66635   4.776  22.541   0.830 -0.0528  0.2384 -0.1315
    1WF      WF66636  10.664   6.338   8.905  0.1641  0.1364  0.1057
    1WF      WF66637   3.623   7.432   8.366  0.2985  0.0425  0.1808
    1WF      WF66638  17.109  25.521   1.499  0.0951 -0.1751  0.3528
    1WF      WF66639   6.776   0.698   9.288 -0.2976 -0.0087 -0.0664
    1WF      WF66640   8.053  22.189   9.526  0.0122  0.2405 -0.0488
    1WF      WF66641   3.228   0.331   8.520  0.0344 -0.3304 -0.1024
    1WF      WF66642   4.159   5.448   0.245 -0.0012  0.1062 -0.1545
    1WF      WF66643   8.716   5.359   1.061  0.0423 -0.1991 -0.0230
    1WF      WF66644  12.313  14.784   0.472  0.5196 -0.0177 -0.0718
    1WF      WF66645   0.572  22.843   8.196 -0.3038  0.2354 -0.1892
    1WF      WF66646  23.878   0.527   9.043  0.1747 -0.2077 -0.2447
    1WF      WF66647   3.602   2.073   8.630 -0.3741 -0.0011 -0.2896
    1WF      WF66648  26.525  12.548   8.677 -0.2189  0.3273  0.2512
    1WF      WF66649   8.079  19.443   8.158  0.1553 -0.2266  0.0603
    1WF      WF66650   7.794   8.435   2.725 -0.0668  0.1537  0.2435
    1WF      WF66651   4.288   2.469   1.710 -0.1478 -0.3105  0.1474
    1WF      WF66652  12.021   8.419   8.931  0.1859 -0.1331  0.0251
    1WF      WF66653  28.942  20.738   2.159 -0.0096 -0.0868  0.0720
    1WF      WF66654   1.471  21.406   0.561 -0.0479 -0.0621  0.1754
    1WF      WF66655  19.819  20.122   1.138  0.1092 -0.1866  0.0403
    1WF      WF66656  12.577  13.114   0.454  0.0081 -0.4585 -0.0769
    1WF      WF66657  16.090  22.385   1.672 -0.2426  0.0687 -0.1414
    1WF      WF66658  12.722  20.326   1.362  0.0034 -0.1906  0.0316
    1WF      WF66659   0.978   5.729   7.975 -0.0158  0.0315 -0.0899
    1WF      WF66660  23.466  19.796   7.165  0.0515  0.1944  0.0240
    1WF      WF66661  23.499  23.463   2.510 -0.0852  0.2783 -0.1824
    1WF      WF66662   8.425  19.323   7.808  0.0693 -0.1090 -0.2124
    1WF      WF66663  16.878  28.172   6.946 -0.1806 -0.0741  0.1215
    1WF      WF66664  26.147  13.359   0.532  0.0169 -0.0605  0.3199
    1WF      WF66665  25.451   9.396   7.923  0.1333  0.1622  0.0073
    1WF      WF66666  12.772   3.575   9.138  0.2062 -0.4173  0.3855
    1WF      WF66667  12.809  24.924   0.880 -0.4002 -0.0661 -0.1899
    1WF      WF66668  20.753  29.142   2.586  0.3871  0.0064  0.0755
    1WF      WF66669  17.584   7.012   1.363  0.1200  0.1613 -0.3151
    1WF      WF66670   8.811  26.705   0.005  0.0943  0.1423 -0.0985
    1WF      WF66671  23.322  12.417   9.235  0.0563  0.2326  0.2472
    1WF      WF66672   2.257  14.444   8.625  0.1451  0.0545 -0.0081
    1WF      WF66673  18.658  20.995   0.843 -0.1071  0.2552 -0.0519
    1WF      WF66674  23.451   8.832   1.682 -0.2921  0.1954 -0.0746
    1WF      WF66675  24.506   0.881   2.466 -0.1116  0.1062 -0.2063
    1WF      WF66676   1.719   0.672   1.683 -0.1309 -0.1219 -0.2990
    1WF      WF66677  13.645  21.321   7.917 -0.2403 -0.3369  0.0542
    1WF      WF66678  19.002  28.628   0.742 -0.1663 -0.0107  0.4884
    1WF      WF66679   9.990  11.578   7.822  0.0670 -0.0711 -0.0207
    1WF      WF66680   6.906   6.150   1.841  0.0715 -0.2200 -0.2920
    1WF      WF66681   7.442  26.707   8.951  0.0127  0.1452  0.2346
    1WF      WF66682  15.118   3.289   3.045  0.0210  0.0132  0.4354
    1WF      WF66683  26.973  19.483   0.096  0.5382 -0.3489 -0.0329
    1WF      WF66684  11.501   8.364   0.593  0.1548 -0.0484  0.1866
    1WF      WF66685  16.719  21.295   1.308 -0.0086 -0.2940 -0.4232
    1WF      WF66686  28.993  24.715   0.778  0.2494  0.2301 -0.1100
    1WF      WF66687   4.460  13.245   9.136  0.0967 -0.0399  0.0815
    1WF      WF66688  18.263  15.221   7.743  0.1980  0.3847  0.0552
    1WF      WF66689  16.616  23.987   1.604  0.0402  0.3020 -0.2690
    1WF      WF66690  12.404   5.671   2.369  0.2814 -0.3808 -0.0975
    1WF      WF66691  18.797  29.695   0.770  0.3864 -0.2806 -0.0118
    1WF      WF66692   9.588   6.894   3.532 -0.0692 -0.0083 -0.2793
    1WF      WF66693  18.671   3.053   8.480  0.1292 -0.2902  0.3133
    1WF      WF66694   7.687  12.156   0.394  0.3542  0.0078  0.0761
    1WF      WF66695  20.642   0.045   0.279 -0.0535  0.1204  0.1674
    1WF      WF66696  17.592  19.023   8.715 -0.1130  0.0440 -0.2604
    1WF      WF66697  17.900  21.782   9.503  0.2405  0.2742 -0.1517
    1WF      WF66698  24.331  15.333   9.106  0.3658  0.0004  0.0869
    1WF      WF66699   5.154  25.122   2.079 -0.4640 -0.0043  0.1381
    1WF      WF66700   7.617   0.474   9.325  0.0932  0.1649  0.3594
    1WF      WF66701  22.753  26.196   2.307 -0.3023  0.2411  0.0985
    1WF      WF66702  17.207  21.146   5.853 -0.0594  0.1687 -0.3341
    1WF      WF66703  23.466   1.767   0.877  0.0626  0.1006 -0.0454
    1WF      WF66704  18.339  14.206   1.272 -0.0095  0.1552  0.1392
    1WF      WF66705   6.946  23.096   1.079 -0.4661 -0.0839 -0.1534
    1WF      WF66706  22.985  25.690   6.773 -0.1128  0.1925  0.0712
    1WF      WF66707   4.496  12.567   0.291  0.3060 -0.0474  0.0240
    1WF      WF66708   7.941   0.672   0.218 -0.1378 -0.0833 -0.1115
    1WF      WF66709  19.798   6.779   0.353  0.0382 -0.1401 -0.0400
    1WF      WF66710  14.990  28.188   2.035  0.0328  0.1687 -0.0760
    1WF      WF66711   4.967   5.204   1.925  0.3040 -0.3404 -0.2298
    1WF      WF66712  13.091  24.241   2.306  0.0282 -0.1223 -0.4760
    1WF      WF66713  15.594   4.459   8.911  0.1448  0.3644  0.2331
    1WF      WF66714  12.917  27.852   2.664  0.3513  0.2667  0.1527
    1WF      WF66715  20.681   4.928   2.306 -0.2832  0.0934  0.0867
    1WF      WF66716   1.371  13.266   9.216 -0.1836 -0.1147 -0.0479
    1WF      WF66717  23.368  16.327   9.253  0.1699  0.0901 -0.0641
    1WF      WF66718  14.914  28.089   1.527 -0.0001 -0.1974  0.0035
    1WF      WF66719  13.682   3.822   1.208  0.0503  0.2318  0.1097
    1WF      WF66720   5.253  26.679   7.759  0.0516  0.1282 -0.2792
    1WF      WF66721   1.087   8.242   9.058  0.1896  0.0798 -0.0972
    1WF      WF66722  21.476   0.627   3.163  0.3948  0.0371 -0.1847
    1WF      WF66723   5.918   4.209   0.080 -0.2214  0.0526  0.1163
    1WF      WF66724  20.191  16.018   8.423 -0.2737  0.5412  0.0604
    1WF      WF66725  27.153  26.455   8.464  0.0794 -0.0554 -0.4390
    1WF      WF66726  19.953   6.279   0.420  0.2058  0.2643 -0.1435
    1WF      WF66727   7.803   3.696   9.313  0.0248  0.1675  0.0050
    1WF      WF66728   2.471   3.270   0.970 -0.2952 -0.4229  0.1580
    1WF      WF66729  12.831  10.669   7.131  0.0882 -0.0352 -0.1375
    1WF      WF66730  16.982   0.990   0.171 -0.0517  0.1660  0.0774
    1WF      WF66731  18.441  24.713   7.145 -0.2052  0.0752  0.1212
    1WF      WF66732  16.903  20.959   1.033  0.0721  0.0460  0.2870
    1WF      WF66733  16.645   6.817   8.627 -0.0859 -0.2364  0.2931
    1WF      WF66734   9.129   6.523   9.469 -0.1502 -0.0476 -0.3059
    1WF      WF66735  27.464  13.059   8.514  0.0197  0.0190  0.0448
    1WF      WF66736  24.114  28.828   1.424 -0.3976  0.0583  0.1462
    1WF      WF66737   8.758   4.023   0.060 -0.0291 -0.1427  0.1131
    1WF      WF66738  11.636   2.598   3.934  0.0740 -0.2935  0.2365
    1WF      WF66739  22.581  22.561   7.561 -0.2770  0.1874  0.0839
    1WF      WF66740  27.591   3.308   8.508  0.2959  0.0073 -0.0631
    1WF      WF66741  20.700  15.835   0.410  0.0660 -0.0805  0.1363
    1WF      WF66742  10.259  11.446   0.500 -0.2746  0.2492  0.1721
    1WF      WF66743  29.148  18.302   8.224  0.0822  0.1531 -0.0550
    1WF      WF66744  21.613  26.267   8.734 -0.0996  0.0286 -0.1636
    1WF      WF66745  23.514  12.633   8.831 -0.0930  0.0865  0.2528
    1WF      WF66746  15.996  21.175   8.577 -0.1617 -0.0200 -0.1065
    1WF      WF66747  28.279  26.557   0.211  0.1005  0.5335 -0.0322
    1WF      WF66748   1.022  18.871   0.008  0.0165  0.0634  0.1269
    1WF      WF66749  23.318  16.978   0.793  0.0952 -0.1233  0.0203
    1WF      WF66750  18.656  23.455   0.896  0.0801  0.0285 -0.1467
    1WF      WF66751  13.132  22.077   2.292 -0.0057  0.4479 -0.0089
    1WF      WF66752  20.162  15.519   1.668  0.1468  0.2432 -0.2551
    1WF      WF66753  16.600  29.142   1.157 -0.3902  0.1362  0.0870
    1WF      WF66754  25.489  26.825   1.232 -0.1019 -0.0889  0.3523
    1WF      WF66755  17.088  18.492   8.111 -0.2363  0.0004  0.0737
    1WF      WF66756  26.966  26.919   0.052  0.2645  0.2887 -0.2160
    1WF      WF66757   6.526   7.049   0.548 -0.1877 -0.3227  0.1121
    1WF      WF66758   8.434  27.999   9.008 -0.1601 -0.2082 -0.2232
    1WF      WF66759  21.704  28.671   1.525 -0.1908  0.1224  0.0935
    1WF      WF66760  19.496  11.567   0.950 -0.0383 -0.0403 -0.0654
    1WF      WF66761  19.862  27.726   0.805 -0.0979  0.1682 -0.1959
    1WF      WF66762  25.754   8.674   2.385 -0.1794  0.1217  0.0697
    1WF      WF66763  15.157   6.552   9.034  0.0336 -0.0159 -0.4932
    1WF      WF66764   9.853  24.985   1.549 -0.2148 -0.2231 -0.1497
    1WF      WF66765  27.104  23.301   9.081  0.1677 -0.1497  0.1447
    1WF      WF66766  10.651   8.556   0.940  0.1156 -0.1145 -0.2528
    1WF      WF66767  26.216  23.435   7.824 -0.0228 -0.1104 -0.1390
    1WF      WF66768  20.885  28.862   3.009 -0.1157 -0.1216 -0.1547
    1WF      WF66769   4.581  28.065   7.624 -0.0775 -0.0531  0.0130
    1WF      WF66770   5.155   9.748   2.846  0.0882  0.1714 -0.1400
    1WF      WF66771  15.454   3.957   8.774 -0.0871 -0.3891 -0.0994
    1WF      WF66772  12.205   7.311   9.190 -0.2287  0.0891 -0.1626
    1WF      WF66773  18.109  23.349   1.476 -0.0748  0.0480 -0.0581
    1WF      WF66774   1.609  20.752   2.451 -0.2647 -0.2843  0.2229
    1WF      WF66775   4.860  14.378   1.252  0.0503  0.0055 -0.0380
    1WF      WF66776  22.927   2.612   8.454  0.1960  0.0446  0.0179
    1WF      WF66777  24.270  28.267   8.384  0.0878 -0.0736  0.3782
    1WF      WF66778  29.662  24.919   7.672  0.0270  0.1122  0.2584
    1WF      WF66779   9.413  16.509   7.979  0.0611  0.0983  0.2826
    1WF      WF66780  29.123  16.210   7.301 -0.1093 -0.2005 -0.0026
    1WF      WF66781  14.076  13.007   8.764 -0.0004 -0.0427  0.0323
    1WF      WF66782  29.796  15.489   0.552 -0.3728  0.2132  0.0730
    1WF      WF66783  12.995  10.828   7.875  0.1938  0.3627  0.5278
    1WF      WF66784  21.274   5.393   7.758 -0.0665 -0.0059 -0.0549
    1WF      WF66785   2.146   3.447   0.528 -0.1184  0.2349  0.0390
    1WF      WF66786   3.236   1.335   1.423  0.0044 -0.1920 -0.1911
    1WF      WF66787  11.836   2.610   9.458  0.2092  0.1554 -0.2762
    1WF      WF66788  18.399   5.958   7.258 -0.1832 -0.0698 -0.0991
    1WF      WF66789  14.697  25.844   1.584 -0.0872 -0.1021  0.0900
    1WF      WF66790   0.766  27.704   1.709 -0.1378 -0.2617  0.0486
    1WF      WF66791  16.712   5.110   1.797 -0.0149  0.2553 -0.0792
    1WF      WF66792  25.729  14.367   7.543  0.3015 -0.1832  0.0149
    1WF      WF66793  19.422  19.660   1.032 -0.0841 -0.0380 -0.3806
    1WF      WF66794  23.637  16.133   8.485 -0.1254  0.1652  0.1837
    1WF      WF66795  13.310  25.822   7.949  0.2423 -0.4076 -0.2899
    1WF      WF66796   3.336  20.627   7.470 -0.1573  0.0162 -0.1627
    1WF      WF66797  23.294  22.840   7.616  0.2776 -0.0792  0.2919
    1WF      WF66798  17.048  10.976   1.464  0.0080 -0.0544  0.2132
    1WF      WF66799  28.245   6.953   2.108  0.0228 -0.0367  0.0081
    1WF      WF66800   9.141  22.564   0.404  0.1468 -0.2227  0.2785
    1WF      WF66801   8.495  14.891   1.032  0.1744  0.2211  0.0020
    1WF      WF66802   6.107  17.392   8.625  0.0858 -0.0127 -0.0797
    1WF      WF66803   2.942   1.069   1.783  0.1613  0.1602  0.2552
    1WF      WF66804  29.549   0.754   8.202  0.1475 -0.1167 -0.1654
    1WF      WF66805   0.741   5.846   8.445  0.1672 -0.0893  0.1494
    1WF      WF66806  14.399   9.411   3.440  0.3191  0.1237 -0.0435
    1WF      WF66807  11.085  14.395   0.463  0.1493  0.1066 -0.1644
    1WF      WF66808  12.018   9.729   1.976  0.1880  0.1082  0.0526
    1WF      WF66809  21.591  15.033   8.549 -0.1015  0.5765 -0.0356
    1WF      WF66810   0.502   0.203   0.634  0.1612 -0.0694 -0.1807
    1WF      WF66811  13.697  15.441   7.103  0.0404  0.1596  0.0878
    1WF      WF66812   7.760  11.097   0.344 -0.0755 -0.0654 -0.0275
    1WF      WF66813  21.757  25.658   8.932  0.1067  0.2404  0.0821
    1WF      WF66814   6.942  16.880   0.422 -0.0727  0.0939 -0.0648
    1WF      WF66815  24.107   4.455   8.130 -0.0679  0.1996  0.0157
    1WF      WF66816   5.219  23.336   6.964  0.2312  0.1564  0.3160
    1WF      WF66817  19.112   5.335   2.338 -0.0030  0.0535 -0.1158
    1WF      WF66818   9.988   7.456   0.189  0.1117 -0.0669  0.2644
    1WF      WF66819   1.928   2.379   9.255  0.0218  0.2048  0.2591
    1WF      WF66820   1.760  16.525   6.896 -0.0161  0.0355 -0.3095
    1WF      WF66821  15.064   2.183   8.538 -0.4831 -0.0496  0.0483
    1WF      WF66822  20.230   3.428   8.103 -0.0272 -0.0323 -0.2992
    1WF      WF66823  18.530  11.127   8.753 -0.2082 -0.1103  0.2851
    1WF      WF66824  25.273   5.255   9.426  0.3806 -0.1477  0.1309
    1WF      WF66825   8.754   7.643   9.438  0.3181 -0.0493  0.2910
    1WF      WF66826   1.043  16.089   8.488 -0.1988 -0.2755 -0.1673
    1WF      WF66827  13.204   2.636   9.140 -0.2283  0.0253 -0.1004
    1WF      WF66828   3.104  20.600   8.681 -0.0460 -0.0436  0.0436
    1WF      WF66829   8.839  26.334   0.318  0.1919  0.2772 -0.0022
    1WF      WF66830   6.293   3.378   1.509 -0.2233  0.0976  0.0314
    1WF      WF66831   7.500   3.910   0.225  0.0619 -0.0681 -0.0055
    1WF      WF66832  26.905  25.594   8.143  0.1449  0.2707  0.1654
    1WF      WF66833  17.412  14.972   7.439 -0.2417  0.0736  0.1808
    1WF      WF66834   6.718  15.891   7.489  0.0990  0.1785 -0.2674
    1WF      WF66835   1.975  17.113   0.682  0.0662 -0.2221 -0.1088
    1WF      WF66836  17.760  16.012   9.229  0.0669  0.1800 -0.1798
    1WF      WF66837  14.715  14.457   6.826  0.1131 -0.0736 -0.1629
    1WF      WF66838  25.468  12.636   8.511  0.3213  0.0491 -0.0146
    1WF      WF66839  25.390  29.782   0.190 -0.0552  0.1520  0.1074
    1WF      WF66840   5.716  26.666   1.119 -0.0079  0.1442  0.0233
    1WF      WF66841  28.467  24.879   0.733  0.1705 -0.2581  0.3459
    1WF      WF66842  15.206  23.740   9.346 -0.1564  0.1008 -0.0098
    1WF      WF66843  22.039   2.331   0.831 -0.0205 -0.0348 -0.0555
    1WF      WF66844  15.225  20.114   0.713  0.0668  0.1864  0.2123
    1WF      WF66845  14.638  21.624   0.734 -0.2958  0.1587 -0.0253
    1WF      WF66846  26.941  24.740   9.255  0.0843 -0.1139  0.1276
    1WF      WF66847  28.515  13.631   2.127 -0.0646 -0.1599 -0.2671
    1WF      WF66848  19.377   6.779   1.403 -0.1947 -0.3904  0.3655
    1WF      WF66849  24.398  21.045   0.818 -0.2495  0.1659  0.0951
    1WF      WF66850  24.713   9.030   7.705 -0.4671  0.1795  0.3818
    1WF      WF66851  28.627  19.523   0.440  0.0718  0.0777  0.4165
    1WF      WF66852  29.509  12.083   7.765  0.0545 -0.1779  0.0363
    1WF      WF66853  12.578  27.115   8.066  0.3803  0.1441 -0.0407
    1WF      WF66854  17.041  21.330   8.104  0.4725 -0.0080 -0.1201
    1WF      WF66855  20.544  22.168   6.225  0.0649  0.0457 -0.0971
    1WF      WF66856   6.569  19.272   9.051 -0.0078 -0.0496 -0.2475
    1WF      WF66857  13.481  17.438   2.936 -0.0608  0.1044  0.0610
    1WF      WF66858   4.951  16.163   7.872  0.0850  0.0691 -0.0897
    1WF      WF66859  16.882  12.387   1.771 -0.3038 -0.1430 -0.0170
    1WF      WF66860  21.156   5.723   3.968 -0.0271  0.1808 -0.1138
    1WF      WF66861  28.038   1.565   9.244 -0.4410  0.0035 -0.2470
    1WF      WF66862  29.621  28.034   3.118  0.4728 -0.0226 -0.1615
    1WF      WF66863  10.303  20.438   8.432  0.1684 -0.2311 -0.0961
    1WF      WF66864  22.852  24.701   0.656 -0.1123  0.2608  0.1174
    1WF      WF66865  13.067  23.571   2.109  0.0980  0.1363 -0.0700
    1WF      WF66866  24.620  20.714   8.565  0.2687  0.0966  0.2370
    1WF      WF66867   2.145  20.688   0.853 -0.3966  0.0558  0.1444
    1WF      WF66868   2.477  12.705   8.393  0.2312  0.3872 -0.0757
    1WF      WF66869  11.598  17.424   0.053 -0.0383  0.1618 -0.1025
    1WF      WF66870  29.095  21.666   0.016  0.1396  0.3440  0.0178
    1WF      WF66871  10.792  19.548   1.184  0.3123 -0.1577 -0.0400
    1WF      WF66872  24.597   6.054   9.412 -0.2861 -0.1959 -0.0857
    1WF      WF66873  22.532   8.398   0.701 -0.0623  0.0323 -0.1850
    1WF      WF66874  20.712  16.552   6.515 -0.0949 -0.0450 -0.2261
    1WF      WF66875  26.058  17.628   9.386 -0.3394  0.0999 -0.0015
    1WF      WF66876  19.327   5.821   2.283 -0.1061 -0.1233 -0.1007
    1WF      WF66877   8.961  10.121   9.482  0.0524  0.5123 -0.0354
    1WF      WF66878   1.395  25.441   8.795  0.1622  0.1319 -0.0701
    1WF      WF66879   5.661  10.083   0.500 -0.1708 -0.0864 -0.0260
    1WF      WF66880   6.019  29.659   2.173  0.0508 -0.0948 -0.3508
    1WF      WF66881  16.511  28.211   0.902 -0.0172 -0.2870 -0.1817
    1WF      WF66882  21.953  10.750   8.390 -0.4848 -0.2247 -0.0928
    1WF      WF66883  20.214  27.149   2.833 -0.0073 -0.0898 -0.1323
    1WF      WF66884  16.625  26.259   6.502  0.3567 -0.3456 -0.1122
    1WF      WF66885  14.486  15.912   0.924 -0.2027  0.1365  0.0674
    1WF      WF66886  27.954  12.306   0.040 -0.2190 -0.0764 -0.0569
    1WF      WF66887  10.388   0.695   0.298 -0.1945  0.0117 -0.3692
    1WF      WF66888  18.330  15.850   8.334 -0.1845 -0.0931  0.1629
    1WF      WF66889   0.681  28.774   9.007  0.0026  0.1769 -0.2867
    1WF      WF66890   7.179   8.997   1.186 -0.1354  0.1983 -0.2132
    1WF      WF66891  26.293  17.639   8.834  0.1479  0.0563  0.0311
    1WF      WF66892  21.521   6.765   1.412 -0.1768 -0.1009  0.0574
    1WF      WF66893  16.058  17.131   6.665  0.0702  0.1063 -0.1276
    1WF      WF66894  27.041  11.063   8.392  0.1466  0.0315 -0.1254
    1WF      WF66895  11.778  26.161   8.166 -0.0546  0.0674 -0.2300
    1WF      WF66896  28.013  25.115   0.605 -0.0766  0.0093 -0.0837
    1WF      WF66897   6.959  10.249   8.201 -0.1130 -0.0777  0.0070
    1WF      WF66898  28.724   0.496   0.585 -0.4114  0.3685 -0.1173
    1WF      WF66899  14.277  11.812   7.749 -0.1760 -0.1390 -0.0334
    1WF      WF66900   9.182  10.741   2.646  0.1961  0.0597 -0.3178
    1WF      WF66901  23.835  21.135   9.160 -0.2710 -0.0489 -0.1220
    1WF      WF66902   9.732   6.077   2.428 -0.2446 -0.0128 -0.2259
    1WF      WF66903  22.496   6.459   0.598 -0.2282 -0.1366 -0.1023
    1WF      WF66904  16.566  16.548   8.155  0.0017 -0.4157  0.0357
    1WF      WF66905  20.923  17.038   6.816  0.4277  0.2111 -0.2220
    1WF      WF66906  14.150  18.825   1.123 -0.3244 -0.5352  0.0593
    1WF      WF66907   1.400  24.136   9.050 -0.2723  0.0697  0.2576
    1WF      WF66908   4.445  27.036   1.403  0.0111 -0.1558  0.3438
    1WF      WF66909   4.668  25.271   2.065 -0.0847 -0.1676 -0.1377
    1WF      WF66910  19.175   8.289   1.425 -0.1354 -0.1026  0.0941
    1WF      WF66911  22.197  20.593   1.067  0.0933 -0.3311 -0.0285
    1WF      WF66912  24.124  10.737   8.271 -0.3796 -0.2194 -0.0883
    1WF      WF66913  29.769  12.058   0.194 -0.0745  0.0371 -0.5467
    1WF      WF66914  21.814  26.558   1.069  0.3309  0.2444 -0.2358
    1WF      WF66915  16.159  17.607   7.030 -0.2971  0.2016 -0.0475
    1WF      WF66916  25.764  29.141   2.393  0.3185 -0.2498  0.2058
    1WF      WF66917   6.279  13.108   8.130  0.0400 -0.0014 -0.0569
    1WF      WF66918   2.593   9.779   8.461  0.1846 -0.2172  0.0485
    1WF      WF66919  20.280  24.530   7.422  0.1100  0.0154 -0.0804
    1WF      WF66920  24.389  10.002   0.926  0.1495 -0.4086 -0.0234
    1WF      WF66921   3.642   8.346   1.227 -0.3700  0.0319  0.0195
    1WF      WF66922  15.546   3.698   8.331  0.0053 -0.0471  0.1126
    1WF      WF66923  10.377  15.218   0.810  0.1876 -0.0513 -0.0220
    1WF      WF66924  26.340   6.009   1.445  0.0685 -0.3171  0.3964
    1WF      WF66925  15.169   7.020   8.749 -0.1988  0.0295 -0.1841
    1WF      WF66926  16.843   2.066   3.499  0.1592  0.1688 -0.0379
    1WF      WF66927   2.987  19.252   0.462 -0.0707 -0.0300 -0.2304
    1WF      WF66928  11.366   9.855   9.038 -0.1340 -0.1398 -0.0752
    1WF      WF66929  23.640  12.843   8.393  0.0866 -0.3581  0.0949
    1WF      WF66930  24.612   0.852   8.721  0.0264  0.0988  0.1589
    1WF      WF66931  22.757  16.940   0.091 -0.0464 -0.1598  0.0155
    1WF      WF66932  15.937  24.051   7.618 -0.1874 -0.0859 -0.2421
    1WF      WF66933  15.577  23.838   0.142  0.1181  0.0035 -0.1579
    1WF      WF66934  12.047  17.856   8.495  0.0690  0.0784 -0.2490
    1WF      WF66935   1.362  27.484   8.526 -0.0148 -0.2142  0.0630
    1WF      WF66936   8.662   4.303   3.899  0.2841 -0.1233 -0.1501
    1WF      WF66937  13.991  29.696   8.872 -0.0513  0.1749  0.0745
    1WF      WF66938  21.242  17.196   9.266  0.1196  0.3378  0.0254
    1WF      WF66939   9.693   9.848   7.914  0.2440  0.0814 -0.0502
    1WF      WF66940  16.612   5.203   8.884 -0.1464  0.0482  0.2394
    1WF      WF66941   2.331  16.645   1.458  0.1031 -0.2783 -0.3272
    1WF      WF66942  27.038   6.053   0.445 -0.0709 -0.0531  0.1186
    1WF      WF66943   2.312  22.326   0.793  0.0294 -0.3493  0.0142
    1WF      WF66944   5.607  26.631   8.199  0.1570 -0.0522 -0.2114
    1WF      WF66945  24.584  23.504   9.310  0.1782  0.0227 -0.0502
    1WF      WF66946   8.031  11.536   0.480 -0.2157  0.0274  0.1327
    1WF      WF66947  11.460   1.832   1.416 -0.2336  0.0495 -0.2628
    1WF      WF66948   9.269  16.461   8.505  0.3460  0.0574 -0.0063
    1WF      WF66949  21.736  26.105   9.161  0.1052 -0.1359 -0.1294
    1WF      WF66950   3.611  29.155   2.643  0.1346 -0.1528 -0.1083
    1WF      WF66951   7.305  25.405   2.435 -0.0193 -0.0018 -0.0365
    1WF      WF66952   0.649   8.241   0.623  0.1465  0.0847  0.0950
    1WF      WF66953   2.678  20.363   8.724 -0.2496 -0.0462 -0.3681
    1WF      WF66954  10.971  24.613   7.366  0.0463  0.1282 -0.0495
    1WF      WF66955  14.421   8.485   0.108 -0.0688 -0.0196  0.1804
    1WF      WF66956  15.824   6.116   0.665  0.2209 -0.1756 -0.1508
    1WF      WF66957  20.717  15.500   0.015  0.0067 -0.2446 -0.2389
    1WF      WF66958  12.089  12.269   1.142  0.2616  0.2285  0.2007
    1WF      WF66959   2.626   3.174   8.893  0.0728 -0.1613 -0.1791
    1WF      WF66960  23.384   7.608   8.319  0.3340  0.0411  0.1351
    1WF      WF66961  27.191   2.824   8.653 -0.0106 -0.0429 -0.4195
    1WF      WF66962   3.549   9.775   1.896  0.2884 -0.0823  0.4738
    1WF      WF66963  14.523  12.188   0.955  0.0217 -0.1680  0.1133
    1WF      WF66964  17.745  17.367   6.788  0.3268  0.1343  0.1210
    1WF      WF66965  17.176  20.549   1.261  0.0108 -0.1712  0.0525
    1WF      WF66966  10.768  13.266   8.476 -0.2408  0.0148 -0.0841
    1WF      WF66967   6.205  15.068   0.071  0.0984  0.0248  0.2012
    1WF      WF66968  15.572  26.294   9.458  0.1298 -0.1612  0.1349
    1WF      WF66969  16.333  19.484   1.957 -0.0043 -0.0697  0.1983
    1WF      WF66970  17.445  18.198   1.272  0.3420 -0.2389  0.2198
    1WF      WF66971  15.770  28.819   1.733  0.0692  0.1579 -0.0802
    1WF      WF66972  26.268  14.492   7.882 -0.2081  0.1401 -0.3676
    1WF      WF66973   4.942   3.013   2.708 -0.1287 -0.0226  0.0937
    1WF      WF66974  10.652  27.885   0.087  0.0109 -0.0779  0.4608
    1WF      WF66975  15.630   7.852   0.401  0.2135 -0.3691  0.1462
    1WF      WF66976  23.276  26.265   8.352  0.0191 -0.0771  0.0215
    1WF      WF66977   4.655   9.718   1.572  0.1061  0.4078  0.0324
    1WF      WF66978  23.126  21.077   8.566  0.2336 -0.2348 -0.2582
    1WF      WF66979  15.354   0.505   8.636  0.2068 -0.2566 -0.2042
    1WF      WF66980  29.381  14.885   2.012  0.1437  0.3509 -0.1690
    1WF      WF66981  16.608  10.594   7.225  0.0149 -0.1064 -0.0280
    1WF      WF66982  21.499   2.934   0.404  0.2958  0.0292  0.2820
    1WF      WF66983  28.275  22.121   1.217 -0.0814  0.0822  0.0773
    1WF      WF66984  11.188  25.428   9.252 -0.1096 -0.0977  0.2294
    1WF      WF66985   7.724  15.464   0.581 -0.1167 -0.0383  0.0235
    1WF      WF66986  15.255  15.155   9.170 -0.0415 -0.1783  0.1946
    1WF      WF66987   5.318  23.230   3.011  0.0478  0.1363  0.0626
    1WF      WF66988   3.114   1.849   2.444 -0.0300 -0.0251 -0.2202
    1WF      WF66989   2.108   3.001   0.775  0.0614 -0.1141  0.0096
    1WF      WF66990   1.217  21.092   6.780 -0.2668  0.0876  0.2413
    1WF      WF66991  25.035   7.493   1.821 -0.3032  0.0690  0.0933
    1WF      WF66992  14.064   5.722   8.542 -0.0194 -0.0055  0.0387
    1WF      WF66993  16.165   5.478   8.816  0.2123 -0.1127 -0.0751
    1WF      WF66994  25.884   5.635   1.310 -0.0729  0.1851  0.0143
    1WF      WF66995   3.803  14.967   0.027 -0.0995  0.1294 -0.0783
    1WF      WF66996  25.492  17.044   7.035  0.0381 -0.2249 -0.0773
    1WF      WF66997   1.406   2.142   8.037 -0.0531 -0.0092  0.0472
    1WF      WF66998  13.221  23.190   8.045 -0.1219  0.3162 -0.4228
    1WF      WF66999  10.686  19.351   0.451 -0.0833 -0.1956 -0.1593
    1WF      WF67000   4.164  26.927   8.402 -0.1033  0.0397 -0.0086
    1WF      WF67001  23.256   6.878   7.573 -0.2285 -0.2464  0.2882
    1WF      WF67002  12.890   8.838   0.250  0.0921  0.1837 -0.1372
    1WF      WF67003  26.613  22.356   6.962  0.1392  0.2101 -0.1197
    1WF      WF67004  22.470  22.838   5.704  0.1095  0.0830  0.2532
    1WF      WF67005  13.450  15.552   8.471  0.0330  0.1882  0.3968
    1WF      WF67006  20.964   7.440   8.634 -0.0502 -0.0216 -0.0077
    1WF      WF67007  14.266  16.128   1.312 -0.1638  0.0187  0.3695
    1WF      WF67008  15.328  14.073   1.121 -0.0578  0.1133  0.0281
    1WF      WF67009   3.906  12.591   8.486 -0.0094  0.3779  0.0735
    1WF      WF67010  16.437  21.196   1.698 -0.1255 -0.1639 -0.0000
    1WF      WF67011  22.688  23.903   8.532 -0.1466 -0.0292  0.1223
    1WF      WF67012  16.744  17.269   2.179  0.0315 -0.0206  0.0754
    1WF      WF67013  12.634  18.157   7.787 -0.1519 -0.0021  0.4952
    1WF      WF67014   2.094   0.083   8.981 -0.0890  0.0237 -0.0995
    1WF      WF67015  13.092   3.780   8.836  0.0442 -0.2325  0.2053
    1WF      WF67016  18.386  24.149   0.112 -0.0027 -0.0835 -0.1805
    1WF      WF67017   2.041   8.619   0.585 -0.1497  0.2261  0.1188
    1WF      WF67018  20.730  21.413   8.789  0.3322  0.2323 -0.1420
    1WF      WF67019  15.018  27.841   1.011  0.0063 -0.0402 -0.1440
    1WF      WF67020   5.990  21.130   7.884  0.1440  0.3756 -0.0273
    1WF      WF67021   0.998   2.006   6.269 -0.1293 -0.2330  0.0627
    1WF      WF67022  24.349   5.037   0.408 -0.0928  0.1766 -0.2503
    1WF      WF67023   2.161  14.086   0.828  0.0230 -0.1347 -0.1773
    1WF      WF67024   6.487   6.226   9.353 -0.2117  0.0598  0.4145
    1WF      WF67025   5.905  25.558   8.782  0.0768 -0.2266 -0.0252
    1WF      WF67026  22.051  21.033   0.939  0.0582 -0.0007  0.1376
    1WF      WF67027  25.246  25.087   0.012  0.0536 -0.0012  0.0471
    1WF      WF67028  25.786  29.517   2.096 -0.1910 -0.0172 -0.1206
    1WF      WF67029   9.393  23.898   9.375  0.2490  0.0691 -0.0896
    1WF      WF67030  28.011  26.740   0.625 -0.1337  0.0180 -0.4058
    1WF      WF67031   4.131  23.992   8.929 -0.0442 -0.1779 -0.0479
    1WF      WF67032  26.604   7.675   1.018  0.1514 -0.0281  0.1284
    1WF      WF67033   1.517  18.902   0.003 -0.4899 -0.2201 -0.0484
    1WF      WF67034  15.216   8.929   0.070  0.0261  0.1267  0.3061
    1WF      WF67035  13.798  27.789   9.011  0.0749 -0.2483 -0.0395
    1WF      WF67036   6.547  17.752   8.509 -0.0728  0.4062 -0.1715
    1WF      WF67037  23.003  12.125   0.557 -0.0798  0.2782  0.0918
    1WF      WF67038   8.662  14.029   8.974 -0.2781  0.0961 -0.0363
    1WF      WF67039  17.479  26.239   1.612  0.1059  0.4122  0.1889
    1WF      WF67040   1.755  18.468   0.027  0.0661 -0.1811  0.0498
    1WF      WF67041  13.861   2.844   2.408 -0.0622 -0.1654  0.2831
    1WF      WF67042  14.330  17.856   1.372 -0.2283  0.0287 -0.1647
    1WF      WF67043  24.450  11.078   8.676 -0.0290 -0.0881  0.0739
    1WF      WF67044  27.545  20.953   9.082  0.2009 -0.1121 -0.0637
    1WF      WF67045   9.347  10.466   0.054 -0.0629  0.1040  0.2355
    1WF      WF67046  20.202  22.949   0.613  0.1987 -0.0782  0.1774
    1WF      WF67047  21.888  15.032   0.646  0.1003  0.2192 -0.0351
    1WF      WF67048  27.927  22.397   7.645  0.2209  0.0345 -0.0155
    1WF      WF67049   8.331   7.954   8.471  0.1615  0.1824 -0.2289
    1WF      WF67050  19.652  15.792   7.613  0.0978  0.0646  0.1416
    1WF      WF67051   6.902   0.352   1.185  0.2813 -0.0021 -0.2946
    1WF      WF67052   8.404   0.611   6.854  0.1362  0.1079  0.0234
    1WF      WF67053  19.132  19.089   0.361  0.0906  0.0414 -0.1748
    1WF      WF67054  26.943  20.532   0.458 -0.0658  0.0633 -0.0147
    1WF      WF67055  28.876  29.482   7.695 -0.1493 -0.1566  0.0879
    1WF      WF67056  24.409  13.885   6.903  0.1528  0.1966  0.0800
    1WF      WF67057   6.315  21.339   7.307 -0.0969  0.1752  0.1803
    1WF      WF67058   3.860  28.485   0.083  0.3104  0.0767  0.0952
    1WF      WF67059  20.786   2.258   9.149 -0.0581  0.0062 -0.1108
    1WF      WF67060   8.221  27.650   8.603 -0.0242  0.0127 -0.1425
    1WF      WF67061  25.115  21.805   7.714  0.1195  0.2370 -0.0385
    1WF      WF67062  21.093  16.818   6.417  0.0334 -0.2642  0.0904
    1WF      WF67063  18.784  23.875   8.451  0.2356  0.0352  0.1693
    1WF      WF67064   1.861  12.371   9.477  0.0360 -0.1555  0.0549
    1WF      WF67065  17.398  16.394   8.156 -0.1337  0.2874 -0.1263
    1WF      WF67066   8.545   5.727   2.679 -0.1220  0.1692 -0.0072
    1WF      WF67067   9.067   8.317   9.004 -0.1400 -0.1696  0.2270
    1WF      WF67068   1.943  15.454   8.735 -0.0709  0.0476 -0.1783
    1WF      WF67069  26.362  22.845   1.786  0.1160 -0.1527 -0.1755
    1WF      WF67070   0.014   3.007   0.728 -0.2327 -0.4420 -0.1761
    1WF      WF67071  18.360  13.435   8.466 -0.1034 -0.1325 -0.0386
    1WF      WF67072   7.906  13.906   0.026 -0.4010  0.0335 -0.0536
    1WF      WF67073  28.516   8.970   8.746 -0.0493 -0.2395  0.0953
    1WF      WF67074  25.470   6.433   8.498  0.0831  0.0643 -0.2721
    1WF      WF67075  19.526  16.965   6.279  0.0598  0.0573  0.0848
    1WF      WF67076   9.090  20.521   8.775  0.1274  0.0027  0.1965
    1WF      WF67077   7.889  27.281   8.491 -0.3025 -0.1663 -0.0068
    1WF      WF67078   0.224  25.650   1.542 -0.1487  0.0259 -0.4043
    1WF      WF67079  11.457  20.009   8.159 -0.1210  0.0978 -0.1765
    1WF      WF67080  13.348  24.244   9.118  0.1727  0.2719 -0.2531
    1WF      WF67081   6.590   4.038   1.285 -0.1089  0.0857  0.1371
    1WF      WF67082  11.888   6.106   8.521  0.0414 -0.1612  0.3267
    1WF      WF67083   0.769  13.656   7.773 -0.2095 -0.1487 -0.1629
    1WF      WF67084   2.681  19.247   0.882 -0.0180 -0.2261  0.1114
    1WF      WF67085  26.256  29.354   2.336  0.2525  0.1102 -0.1129
    1WF      WF67086  27.238   9.137   0.233  0.0648 -0.0643 -0.1508
    1WF      WF67087  29.638   7.244   9.257 -0.1848  0.1171 -0.1977
    1WF      WF67088  15.068   0.713   0.585  0.3512 -0.2802  0.0025
    1WF      WF67089   8.219  20.110   8.994  0.1721 -0.1922 -0.1314
    1WF      WF67090  26.598  17.786   8.484 -0.1494 -0.3385  0.0102
    1WF      WF67091   7.502  16.789   8.486 -0.0100  0.0741  0.6071
    1WF      WF67092   4.051  27.583   0.245 -0.1005  0.1347  0.0898
    1WF      WF67093  21.388  23.502   7.965 -0.0481 -0.2174  0.0497
    1WF      WF67094   8.455  11.665   0.692 -0.2379  0.2262  0.0574
    1WF      WF67095  22.202  23.304   1.710 -0.0719 -0.4464 -0.0640
    1WF      WF67096   3.396  11.502   0.152 -0.1335 -0.0120  0.0407
    1WF      WF67097   0.644  23.602   2.849  0.5241 -0.0695 -0.0972
    1WF      WF67098  26.498  14.821   9.532  0.0181 -0.0353 -0.1194
    1WF      WF67099  15.240   9.520   7.453 -0.3958  0.1284 -0.2882
    1WF      WF67100  15.832  24.448   7.998 -0.1714  0.0308  0.3385
    1WF      WF67101   4.847   5.253   8.801  0.0027  0.0415 -0.0600
    1WF      WF67102  15.562   2.915   7.508 -0.0031  0.0134 -0.3087
    1WF      WF67103  18.284  24.229   7.179 -0.2237  0.4102 -0.1409
    1WF      WF67104  24.724  25.088   9.525 -0.0292  0.0688 -0.1051
    1WF      WF67105  22.827   3.582   0.328 -0.0701 -0.2496 -0.2179
    1WF      WF67106  16.636   6.466   7.446  0.1498 -0.2565  0.0155
    1WF      WF67107   3.785  24.567   1.315  0.0527  0.0771  0.1233
    1WF      WF67108  17.813  14.473   9.373  0.0819 -0.0978  0.1786
    1WF      WF67109  13.385  18.490   9.471 -0.1682 -0.1014 -0.3874
    1WF      WF67110   0.454  24.144   7.761  0.0316 -0.0354 -0.1814
    1WF      WF67111  21.610  27.795   0.266 -0.1004 -0.2124 -0.1107
    1WF      WF67112   4.286   5.945   0.306  0.2913  0.0554 -0.1483
    1WF      WF67113  25.414  20.771   8.238 -0.1098  0.0510 -0.1673
    1WF      WF67114   5.559  28.662   7.059 -0.1897 -0.1222 -0.2655
    1WF      WF67115  21.453  24.716   1.894 -0.1236  0.0964 -0.3806
    1WF      WF67116  18.594  22.451   8.296 -0.0375 -0.2235  0.3674
    1WF      WF67117  23.551  18.780   9.329  0.1144 -0.0019 -0.2260
    1WF      WF67118   9.048   0.269   8.393  0.0322  0.0588 -0.1596
    1WF      WF67119   3.388  29.585   9.196  0.0763  0.0813 -0.1172
    1WF      WF67120  23.227   8.417   8.849 -0.1425 -0.2303  0.1807
    1WF      WF67121  17.346   8.854   8.948  0.2782 -0.2025 -0.0332
    1WF      WF67122   8.122  25.763   0.916  0.2035  0.1413 -0.1741
    1WF      WF67123  28.723  15.053   8.966 -0.0094 -0.1065  0.0131
    1WF      WF67124  13.179  17.028   1.472 -0.0537 -0.3504 -0.3207
    1WF      WF67125  20.358   9.492   9.019 -0.1599  0.0494 -0.0864
    1WF      WF67126  29.281  13.400   8.719  0.0268 -0.2972  0.4328
    1WF      WF67127  28.671  24.745   1.159 -0.1278 -0.3075  0.2210
    1WF      WF67128  25.013  12.356   0.582  0.0323 -0.0555  0.3919
    1WF      WF67129   5.299  26.334   8.516  0.1414 -0.1683 -0.3364
    1WF      WF67130   0.680  23.755   8.019  0.0076 -0.0283 -0.1585
    1WF      WF67131  20.684  29.277   0.242 -0.2107  0.2084  0.2459
    1WF      WF67132  19.928  25.021   0.222  0.0213  0.1263 -0.0948
    1WF      WF67133  27.291  15.068   7.253 -0.0618  0.3403  0.0415
    1WF      WF67134  16.154  16.230   8.232  0.2744 -0.1323  0.1087
    1WF      WF67135  29.349  19.916   0.999  0.4323  0.1763  0.2199
    1WF      WF67136   7.770  20.559   7.558  0.0684  0.1496  0.1051
    1WF      WF67137  25.613  28.071   0.190  0.4199 -0.0219 -0.3897
    1WF      WF67138  12.185  24.965   2.102 -0.2011  0.4943 -0.0915
    1WF      WF67139   7.873  29.629   2.136 -0.0376  0.1543  0.2586
    1WF      WF67140  12.377   2.696   2.570 -0.2189  0.2111 -0.1076
    1WF      WF67141   5.380  24.589   8.290 -0.1277 -0.0103 -0.0410
    1WF      WF67142  15.034   2.256   7.460 -0.1420  0.1214  0.4505
    1WF      WF67143  17.216  21.290   0.712 -0.1084  0.0654 -0.2190
    1WF      WF67144   7.458  16.772   1.127  0.1246 -0.2068 -0.0676
    1WF      WF67145   7.312   0.636   1.525 -0.0890 -0.1072  0.1240
    1WF      WF67146  12.043   0.830   7.214 -0.3211  0.0086 -0.1265
    1WF      WF67147   3.123   1.547   1.873  0.0554  0.0978 -0.1887
    1WF      WF67148  11.448  22.783   8.131  0.0890 -0.1945 -0.0776
    1WF      WF67149  25.902  22.989   8.784 -0.0728  0.1938 -0.1350
    1WF      WF67150   2.665  11.583   8.635 -0.1828 -0.2012 -0.2100
    1WF      WF67151   6.982  24.610   7.301 -0.1677  0.0644 -0.1467
    1WF      WF67152   4.181   6.317   7.370 -0.0572  0.3146 -0.0363
    1WF      WF67153   2.284   6.318   0.346 -0.0341  0.0875  0.3084
    1WF      WF67154  18.238  17.087   7.388 -0.1720  0.2965 -0.0771
    1WF      WF67155  27.803   9.880   9.461  0.0958 -0.1762 -0.3151
    1WF      WF67156  22.615  16.209   5.231 -0.1171  0.1333  0.1845
    1WF      WF67157  19.571  27.506   1.197 -0.3140 -0.0880  0.0213
    1WF      WF67158   1.170   9.458   6.314 -0.1823 -0.0416 -0.2389
    1WF      WF67159  27.449  18.527   8.116 -0.0177 -0.1500  0.0750
    1WF      WF67160   6.339  19.572   1.655  0.0150 -0.1505  0.0493
    1WF      WF67161   4.837  17.321   7.832 -0.1158 -0.0461 -0.1431
    1WF      WF67162   6.114  16.580   9.365  0.3645  0.0289 -0.0522
    1WF      WF67163   6.798   2.255   8.870 -0.0526 -0.0346  0.3239
    1WF      WF67164  27.652  14.273   7.425  0.0362 -0.0653 -0.0266
    1WF      WF67165  17.944   8.501   0.095  0.1241 -0.0738 -0.3271
    1WF      WF67166  12.808   0.585   0.945 -0.0528  0.0750  0.2480
    1WF      WF67167  12.776  11.876   1.360  0.1505  0.2575  0.3327
    1WF      WF67168   9.298  11.281   1.060  0.0203 -0.0460  0.0589
    1WF      WF67169   7.937  16.565   6.796  0.2077 -0.3270 -0.0094
    1WF      WF67170  25.567   7.221   0.142 -0.3787  0.2229  0.1570
    1WF      WF67171   9.445  21.025   7.714  0.1558 -0.1729  0.0530
    1WF      WF67172  11.437  10.580   8.464 -0.2775 -0.2813  0.1483
    1WF      WF67173   5.821  25.401   9.289  0.0282 -0.3492 -0.1246
    1WF      WF67174  24.697  11.285   6.977  0.0159  0.0866  0.0739
    1WF      WF67175   8.650   2.571   7.412 -0.1434 -0.0289  0.1968
    1WF      WF67176  27.888  19.157   9.498  0.0641 -0.2625 -0.0762
    1WF      WF67177  21.661  29.297   8.776  0.1309  0.1211  0.1690
    1WF      WF67178   4.134  23.607   1.287 -0.1061  0.2868  0.0068
    1WF      WF67179  18.195  14.779   9.529 -0.2271 -0.1693  0.1199
    1WF      WF67180   9.228  24.916   8.937  0.2189 -0.2473 -0.1481
    1WF      WF67181  25.536  26.913   8.851 -0.2452  0.0656  0.0275
    1WF      WF67182  25.305   0.272   7.463  0.1910  0.1293 -0.2066
    1WF      WF67183   6.139  15.002   1.886 -0.1196  0.1119 -0.0076
    1WF      WF67184   7.211  24.905   3.291  0.2116  0.0439 -0.2358
    1WF      WF67185  10.984  10.610   6.907  0.1262  0.0461 -0.0054
    1WF      WF67186  13.193  15.356   8.837  0.0140 -0.1406  0.0687
    1WF      WF67187  20.764  25.982   1.291 -0.2987 -0.1753 -0.0568
    1WF      WF67188  11.204  18.398   9.443  0.0643 -0.1545  0.0707
    1WF      WF67189  12.206  21.738   9.457  0.1185  0.0201  0.4577
    1WF      WF67190  26.365  10.985   0.553 -0.0916  0.2219  0.0366
    1WF      WF67191  25.453  27.628   0.294 -0.0298 -0.2376 -0.0099
    1WF      WF67192   2.278   1.484   0.332  0.0063 -0.3483 -0.1641
    1WF      WF67193  13.209  17.449   9.324 -0.1747  0.2275 -0.1443
    1WF      WF67194   7.500  13.378   8.959  0.0751 -0.0622  0.1862
    1WF      WF67195  12.437  22.194   9.329  0.2763  0.1206 -0.2768
    1WF      WF67196  10.857   6.337   8.432 -0.2528 -0.2204  0.1450
    1WF      WF67197  18.059  15.665   7.726  0.0590 -0.1089 -0.1034
    1WF      WF67198  12.764  22.507   1.130 -0.0635  0.2671 -0.1469
    1WF      WF67199   6.317  14.791   9.238 -0.0219  0.1416 -0.0189
    1WF      WF67200   3.715  26.209   8.071 -0.1135 -0.1550 -0.0057
    1WF      WF67201   7.025  16.607   8.437  0.0258 -0.0384 -0.1218
    1WF      WF67202   7.696  23.529   0.407  0.0319 -0.0642 -0.1866
    1WF      WF67203  11.588   2.430   9.052 -0.1647  0.1071  0.3440
    1WF      WF67204  19.995  17.088   7.408  0.0332  0.1781  0.1528
    1WF      WF67205   6.485   1.427   8.315  0.2344  0.1730  0.0908
    1WF      WF67206  18.983  14.779   7.534 -0.0838  0.0480 -0.2127
    1WF      WF67207  24.419  18.367   6.940 -0.2043  0.0822 -0.1253
    1WF      WF67208   9.457  11.257   1.660 -0.0834 -0.1121  0.1711
    1WF      WF67209  13.415   5.779   7.330 -0.1488  0.1692 -0.1873
    1WF      WF67210  25.202  23.357   7.887  0.2276  0.2631  0.1323
    1WF      WF67211   2.015  22.478   0.349  0.2105 -0.0511 -0.0922
    1WF      WF67212  19.775  13.534   0.665  0.1375  0.2733  0.1323
    1WF      WF67213  19.072   4.072   8.386  0.0431  0.1376  0.0228
    1WF      WF67214   0.425   4.082   1.757 -0.0526  0.1139  0.0637
    1WF      WF67215  14.040  28.094   7.479 -0.1129  0.2224 -0.1765
    1WF      WF67216   4.347  25.607   2.133  0.2464  0.2092 -0.3054
    1WF      WF67217  21.246   8.462   0.178  0.4124  0.0164  0.2652
    1WF      WF67218  28.500   5.532   8.989  0.0372  0.1021  0.0726
    1WF      WF67219   7.486  18.462   7.595 -0.0217 -0.1485 -0.0814
    1WF      WF67220   0.908  26.802   2.072  0.1340  0.2487  0.1092
    1WF      WF67221   0.330   2.218   8.210 -0.0799 -0.0239  0.1153
    1WF      WF67222  23.701  23.451   8.815 -0.2147  0.1113 -0.3134
    1WF      WF67223  19.241  22.531   1.200  0.4428  0.1577  0.1444
    1WF      WF67224   4.039   2.748   1.305 -0.1091 -0.2484 -0.0699
    1WF      WF67225  27.389  27.742   9.492  0.1674 -0.2597  0.2269
    1WF      WF67226   3.408  22.619   0.209 -0.2925 -0.0455  0.1590
    1WF      WF67227  24.173  29.158   2.446  0.2581  0.2047  0.2547
    1WF      WF67228  15.707   7.133   1.721  0.1928  0.0596 -0.0840
    1WF      WF67229  27.893  17.852   0.156  0.0069  0.1965  0.0835
    1WF      WF67230  23.971  11.071   2.174  0.1521 -0.0333 -0.0915
    1WF      WF67231   8.790  13.988   8.480 -0.1869  0.0109 -0.3089
    1WF      WF67232   6.864   1.589   7.101 -0.2649  0.5147  0.0360
    1WF      WF67233   6.013   7.973   1.698 -0.1346  0.2576 -0.1922
    1WF      WF67234  28.721   1.208   8.059 -0.0243 -0.1937 -0.0722
    1WF      WF67235   8.596   9.380   6.539 -0.1317 -0.3219 -0.2992
    1WF      WF67236  12.629  13.796   1.364  0.3633  0.3144  0.4908
    1WF      WF67237   0.488   4.759   0.078 -0.1461 -0.0126 -0.0497
    1WF      WF67238   0.768  29.650   0.459 -0.0308 -0.3082 -0.2397
    1WF      WF67239  14.385  13.635   0.992 -0.0177 -0.0991 -0.4247
    1WF      WF67240   7.629  13.858   0.425 -0.1699 -0.1706  0.0424
    1WF      WF67241  26.456  13.376   7.724 -0.1319  0.0224 -0.1011
    1WF      WF67242  15.506   6.697   8.639 -0.1487 -0.2429 -0.0553
    1WF      WF67243  28.431  23.814   9.105  0.0073  0.0566 -0.1598
    1WF      WF67244  26.060  12.569   8.947 -0.1359  0.1352  0.0395
    1WF      WF67245   5.483   4.402   0.376  0.1605  0.2148 -0.1096
    1WF      WF67246  12.405   1.977   1.946 -0.3097 -0.1891  0.1734
    1WF      WF67247   2.638  26.653   7.785  0.0719 -0.3483 -0.1908
    1WF      WF67248  16.988  19.399   9.513  0.1037 -0.0029 -0.0527
    1WF      WF67249  17.570   5.894   9.412  0.1138 -0.0518  0.0788
    1WF      WF67250   1.025   3.451   9.221 -0.0498  0.0055 -0.3499
    1WF      WF67251  20.008  27.025   9.390 -0.2476  0.0301 -0.2314
    1WF      WF67252  15.518   2.168   8.942 -0.1372 -0.1254  0.2777
    1WF      WF67253  25.867  20.248   8.025  0.1249 -0.1287  0.1131
    1WF      WF67254  16.606   7.729   9.074 -0.2893  0.1819 -0.0991
    1WF      WF67255   8.635  20.323   8.806 -0.0391  0.1517 -0.2725
    1WF      WF67256   8.542   4.988   2.407  0.1559  0.0408  0.1682
    1WF      WF67257  11.038  17.648   0.703  0.0443 -0.0751 -0.3574
    1WF      WF67258  26.978  16.493   8.387  0.0987  0.0104  0.0972
    1WF      WF67259   9.330   0.321   2.606 -0.0597 -0.2018  0.1111
    1WF      WF67260   1.581   5.284   3.255 -0.1924 -0.2059 -0.1146
    1WF      WF67261  17.381  18.861   8.295  0.0510 -0.1192  0.0266
    1WF      WF67262   3.350  29.683   8.704 -0.1479  0.1342  0.0447
    1WF      WF67263   3.785   2.276   1.819 -0.1081  0.1345  0.1547
    1WF      WF67264  23.283  26.680   0.558  0.0615 -0.3857  0.0552
    1WF      WF67265  24.337  27.790   0.092  0.2743  0.0475  0.2398
    1WF      WF67266  25.708   3.306   8.377  0.0701 -0.1798  0.0812
    1WF      WF67267  26.711  17.354   8.682 -0.1850  0.0805 -0.2046
    1WF      WF67268  19.337   4.437   1.008 -0.0382 -0.1216 -0.0574
    1WF      WF67269  22.308  21.943   9.275  0.1676 -0.0441 -0.0137
    1WF      WF67270   7.618  21.266   1.104  0.1269 -0.4302 -0.1618
    1WF      WF67271  21.880   6.301   8.571 -0.0406  0.0123  0.0179
    1WF      WF67272   1.176  24.070   8.600 -0.0402  0.0302 -0.2719
    1WF      WF67273  13.993  23.415   0.697 -0.0056  0.0577  0.1201
    1WF      WF67274  14.779  22.138   0.668 -0.2793 -0.2716  0.1510
    1WF      WF67275  29.144  20.553   0.841  0.2992 -0.2179  0.1968
    1WF      WF67276  17.897   0.062   2.268  0.0554 -0.0401  0.1929
    1WF      WF67277  16.682  29.702   0.412  0.0511 -0.1421 -0.3219
    1WF      WF67278  15.860   2.861   1.022 -0.2279  0.2265  0.1304
    1WF      WF67279  21.770   2.022   8.197  0.1626 -0.0363 -0.0028
    1WF      WF67280  24.554  22.084   8.389  0.2677 -0.2083  0.1966
    1WF      WF67281   1.385  18.349   8.197 -0.1182  0.0033 -0.1799
    1WF      WF67282  17.803  26.681   2.747  0.0612 -0.1202 -0.2908
    1WF      WF67283   2.114   8.052   0.532  0.1091 -0.1362 -0.2180
    1WF      WF67284  12.913  17.823   7.574  0.0998  0.1151  0.0219
    1WF      WF67285   6.559  25.837   1.495  0.1165 -0.1266  0.1928
    1WF      WF67286  11.864   0.084   0.224 -0.0967 -0.0859 -0.0536
    1WF      WF67287  20.377   4.550   2.134  0.3417  0.1136  0.1577
    1WF      WF67288  28.724  15.663   6.763  0.0569  0.0004  0.0518
    1WF      WF67289  18.558  20.776   7.540 -0.1818  0.0921  0.1037
    1WF      WF67290   2.931  14.807   0.350 -0.0575 -0.3787 -0.2026
    1WF      WF67291   9.858  13.192   9.144  0.1406  0.3758 -0.2209
    1WF      WF67292   9.183   3.705   0.714 -0.2070 -0.1537 -0.0784
    1WF      WF67293  14.992   5.285   1.644  0.0691 -0.2689  0.1228
    1WF      WF67294  19.264   8.931   9.232 -0.1212  0.3218  0.1072
    1WF      WF67295  10.736  25.212   7.021  0.2050  0.1467 -0.2314
    1WF      WF67296   9.523  25.564   3.315  0.6884 -0.3010  0.2323
    1WF      WF67297  26.601  26.538   9.293 -0.1022 -0.1337 -0.3883
    1WF      WF67298   6.660  22.627   2.184  0.5036  0.0614 -0.1293
    1WF      WF67299  13.569  13.760   0.719  0.0204 -0.2375  0.0491
    1WF      WF67300  19.644  19.242   8.326 -0.2833  0.2027  0.1575
    1WF      WF67301   5.490  17.825   1.439 -0.0824  0.4938  0.0302
    1WF      WF67302   6.736  10.641   8.395  0.0047  0.1799  0.1051
    1WF      WF67303   1.248  24.977   8.565  0.3018  0.0350  0.0243
    1WF      WF67304  18.409  19.225   7.764  0.3432 -0.0583  0.2793
    1WF      WF67305  15.280   5.911   0.704  0.1659  0.0250 -0.2446
    1WF      WF67306   1.815  17.639   0.780  0.0052 -0.0633  0.0494
    1WF      WF67307   5.126  16.053   0.437  0.2494 -0.1060  0.2633
    1WF      WF67308   6.655  23.124   0.613  0.0330  0.1257 -0.0630
    1WF      WF67309  16.212   8.779   8.671  0.1763 -0.0026 -0.3996
    1WF      WF67310   4.689   8.030   0.042 -0.1719  0.0983  0.0137
    1WF      WF67311   9.436  10.215   0.491 -0.1480 -0.1748 -0.0418
    1WF      WF67312  10.679   9.485   1.909  0.1505 -0.0366  0.0986
    1WF      WF67313  17.318   7.874   9.114 -0.4270  0.0473 -0.1307
    1WF      WF67314  13.135  25.480   0.787 -0.0075  0.1157  0.2262
    1WF      WF67315  15.017  22.213   0.220 -0.1007 -0.0254  0.1240
    1WF      WF67316  18.092   6.203   8.438 -0.1241  0.1033  0.6121
    1WF      WF67317  17.062  11.044   7.354 -0.0859  0.2059  0.1398
    1WF      WF67318  15.203  23.634   2.513 -0.2074  0.0202  0.3085
    1WF      WF67319  24.711   3.992   2.023 -0.0759 -0.2245  0.0007
    1WF      WF67320  16.246   4.930   3.468 -0.0632  0.1191  0.4098
    1WF      WF67321   5.234   0.172   8.930  0.0623  0.1320 -0.1565
    1WF      WF67322   9.227  11.639   1.997 -0.1461  0.0189 -0.2215
    1WF      WF67323  15.661   8.008   8.649 -0.1577 -0.1268 -0.3283
    1WF      WF67324   8.196  14.033   9.233 -0.1212 -0.4415 -0.1114
    1WF      WF67325  10.766  14.182   8.126  0.1841 -0.1972 -0.1612
    1WF      WF67326  27.870  10.117   8.503 -0.0232  0.2652  0.0327
    1WF      WF67327  25.757   6.708   8.204 -0.1904 -0.3929  0.0642
    1WF      WF67328  28.167  14.176   8.296 -0.0400 -0.1524  0.1093
    1WF      WF67329   0.947  28.384   9.008  0.0994  0.1151 -0.1440
    1WF      WF67330   2.239  29.175   8.033  0.3652 -0.0311 -0.1851
    1WF      WF67331  26.823   0.122   8.531 -0.0597  0.0092 -0.2294
    1WF      WF67332  16.530  12.964   2.545  0.1980 -0.2414  0.1926
    1WF      WF67333  16.841   3.792   1.247 -0.0788 -0.1945 -0.0540
    1WF      WF67334  27.465   2.946   6.508  0.1749  0.2987  0.0886
    1WF      WF67335   5.994   5.982   9.449 -0.0795 -0.2531 -0.3201
    1WF      WF67336   4.986  13.659   0.370  0.1905 -0.0656  0.1266
    1WF      WF67337   3.982  25.141   8.896  0.3163 -0.1340  0.1631
    1WF      WF67338  22.287  17.730   7.715 -0.1799  0.0672 -0.3428
    1WF      WF67339   8.851   4.461   0.858 -0.2288 -0.3504 -0.2388
    1WF      WF67340  14.343   6.309   1.403 -0.0033 -0.2535 -0.0227
    1WF      WF67341   8.422  26.829   0.220  0.1497  0.2882 -0.2359
    1WF      WF67342  15.593  13.447   0.815 -0.1826 -0.2447 -0.1259
    1WF      WF67343  21.539  22.196   7.422 -0.0694 -0.1420  0.3058
    1WF      WF67344  14.495  26.792   9.386  0.1580 -0.6057  0.0137
    1WF      WF67345  23.994  15.438   7.107  0.1009 -0.0088 -0.2845
    1WF      WF67346   9.887  25.322   0.473  0.1151 -0.0289 -0.3969
    1WF      WF67347  14.831   3.507   0.663 -0.3930 -0.0149 -0.0960
    1WF      WF67348  26.256  22.092   9.502  0.0630  0.1547  0.1154
    1WF      WF67349  16.020  19.947   8.292 -0.1048  0.2640 -0.1625
    1WF      WF67350   6.051  19.750   8.136 -0.0327  0.1469  0.0083
    1WF      WF67351  16.303  14.649   1.602 -0.1864 -0.1338  0.1527
    1WF      WF67352  20.717  25.400   8.989  0.0236  0.2545 -0.2153
    1WF      WF67353  21.672  12.720   0.761 -0.2445  0.2536 -0.0881
    1WF      WF67354  19.916  23.766   0.293  0.0477  0.2174  0.0131
    1WF      WF67355  15.561  25.732   2.092  0.0694  0.0583 -0.1803
    1WF      WF67356   0.884  23.999   0.362 -0.0869  0.2206  0.5523
    1WF      WF67357  25.058  12.700   7.610 -0.0585  0.0655 -0.0501
    1WF      WF67358   1.393  24.351   8.248 -0.0801  0.0450  0.0548
    1WF      WF67359  12.823  15.566   1.271 -0.0597 -0.2197 -0.1049
    1WF      WF67360  22.490  21.481   9.150  0.0110  0.0723 -0.2794
    1WF      WF67361  21.732   7.986   1.531 -0.1164 -0.0535  0.1730
    1WF      WF67362  14.691   8.872   0.146  0.0931 -0.0188 -0.0754
    1WF      WF67363  12.911  28.897   2.235 -0.1174  0.0984 -0.2246
    1WF      WF67364   8.709   8.130   8.750 -0.0427 -0.0133 -0.1927
    1WF      WF67365  17.865  21.262   9.510  0.0374 -0.1736 -0.1910
    1WF      WF67366  24.173  28.583   6.526 -0.0289 -0.2144  0.5554
    1WF      WF67367   9.527  20.996   6.257  0.0340 -0.0925  0.0909
    1WF      WF67368  23.499  22.803   7.016 -0.0002 -0.1583  0.1079
    1WF      WF67369   7.592  11.148   8.725 -0.0806  0.3591  0.2416
    1WF      WF67370  26.121   1.333   0.421 -0.0794 -0.0902  0.0428
    1WF      WF67371  16.803  18.911   9.429  0.1013 -0.0607 -0.3301
    1WF      WF67372   5.623  11.675   1.097  0.1169  0.1559 -0.1125
    1WF      WF67373  11.834  10.200   0.845 -0.4301  0.1444 -0.1662
    1WF      WF67374  15.789  22.725   1.981 -0.2581 -0.0658 -0.2663
    1WF      WF67375  17.973  14.310   2.467 -0.1200  0.2889  0.2719
    1WF      WF67376  15.460   0.420   9.318  0.2098 -0.1336 -0.1568
    1WF      WF67377  15.874  13.162   0.522  0.1772  0.0709 -0.0397
    1WF      WF67378  24.374   9.836   1.373  0.2327  0.2131 -0.7075
    1WF      WF67379  26.491  12.369   9.223 -0.0293  0.1073  0.1696
    1WF      WF67380  26.156   4.327   9.084 -0.1507  0.3858  0.1192
    1WF      WF67381   2.074   6.039   9.509  0.1524 -0.0928  0.1657
    1WF      WF67382  15.148  10.937   9.201  0.1967  0.0695  0.0398
    1WF      WF67383  24.240   7.668   1.436 -0.0477 -0.4299  0.0344
    1WF      WF67384  22.045  23.805   0.665  0.0223  0.1013 -0.1721
    1WF      WF67385   9.091  24.336   0.872  0.1017 -0.0936  0.4086
    1WF      WF67386  10.100   5.856   0.873  0.3294  0.2111 -0.1472
    1WF      WF67387   4.469  24.403   0.332 -0.2012 -0.0705 -0.1061
    1WF      WF67388   0.606  12.442   8.840 -0.2788  0.0433  0.3152
    1WF      WF67389  29.545  17.591   9.136  0.1786  0.1067 -0.1609
    1WF      WF67390  28.007   7.125   7.787  0.0143 -0.2829  0.3626
    1WF      WF67391  10.645  25.431   9.215 -0.0521 -0.0326  0.1386
    1WF      WF67392  20.064  20.751   7.558  0.0430  0.2219 -0.1653
    1WF      WF67393  25.950  20.742   8.031  0.0108 -0.1638 -0.1867
    1WF      WF67394  14.612  13.713   0.574  0.2546  0.2722 -0.1399
    1WF      WF67395  23.878  16.532   1.526 -0.1148 -0.2528  0.1661
    1WF      WF67396  20.143   4.200   9.345 -0.1570 -0.0898  0.3159
    1WF      WF67397  27.177   5.853   8.176  0.2219  0.2618 -0.1553
    1WF      WF67398  13.621   7.354   0.735 -0.0455  0.0621 -0.0042
    1WF      WF67399  19.199  10.470   6.853 -0.0143 -0.0061 -0.2581
    1WF      WF67400   7.959  15.842   9.315  0.0272  0.0721 -0.2280
    1WF      WF67401   7.639   4.959   9.295 -0.0247  0.3039 -0.0776
    1WF      WF67402   6.688  13.764   8.461 -0.0113 -0.1707 -0.0106
    1WF      WF67403  14.146  13.695   8.552 -0.2556  0.0287  0.0829
    1WF      WF67404  17.883  25.777   7.956  0.1623  0.4164 -0.1188
    1WF      WF67405   4.144   7.412   0.346 -0.2698  0.0081 -0.2324
    1WF      WF67406  20.653   1.822   9.326  0.1394  0.3197  0.0479
    1WF      WF67407  13.068  15.127   1.359 -0.2797 -0.0828 -0.2775
    1WF      WF67408  19.883  23.370   0.644  0.1193 -0.0914 -0.0016
    1WF      WF67409  23.298  24.381   9.359 -0.0042  0.0108 -0.1007
    1WF      WF67410   8.008  16.297   9.526 -0.1498 -0.2289  0.0177
    1WF      WF67411  29.586   0.671   0.286  0.0270 -0.3010  0.1091
    1WF      WF67412  20.901  10.511   9.516 -0.0863  0.2123  0.0686
    1WF      WF67413   2.444  17.671   7.991  0.0242  0.0575  0.0286
    1WF      WF67414  26.221  17.352   6.692 -0.1058  0.0340  0.0431
    1WF      WF67415  29.633   9.010   1.576 -0.2731 -0.0086  0.1152
    1WF      WF67416  15.539  28.162   8.606  0.4998  0.1104 -0.1131
    1WF      WF67417  24.644   5.639   7.643 -0.1409 -0.0531 -0.2086
    1WF      WF67418  15.146  18.084   0.040 -0.1780 -0.1579  0.0851
    1WF      WF67419   5.431  28.418   1.711 -0.0348 -0.1680 -0.1705
    1WF      WF67420   9.646   8.774   8.127  0.2072  0.1666  0.2112
    1WF      WF67421   9.476   9.899   0.079 -0.0704  0.0887  0.1960
    1WF      WF67422  18.166  21.812   3.234 -0.1115 -0.2374 -0.1594
    1WF      WF67423   7.872  20.310   9.405 -0.0724  0.0820 -0.0148
    1WF      WF67424  19.946  25.174   3.161 -0.1879  0.0026 -0.0823
    1WF      WF67425  18.216  27.548   1.406 -0.0625 -0.1907 -0.1723
    1WF      WF67426  24.778   3.646   9.223  0.0008  0.2496  0.2555
    1WF      WF67427   3.988  17.748   9.402  0.1111  0.0392  0.1291
    1WF      WF67428   1.476   3.968   7.141  0.2007  0.2298 -0.0249
    1WF      WF67429  29.576  19.577   0.700 -0.1482  0.1414 -0.2351
    1WF      WF67430  28.805   3.965   9.512  0.1508 -0.1248 -0.0671
    1WF      WF67431  24.612  16.851   1.193  0.2880  0.1595 -0.0415
    1WF      WF67432   5.157  11.009   7.787  0.0019 -0.1732 -0.0113
    1WF      WF67433  25.727  21.595   1.067 -0.1823 -0.0517 -0.0429
    1WF      WF67434  14.323  14.682   7.018  0.0283 -0.1954  0.0265
    1WF      WF67435   4.534  25.503   8.311 -0.1356 -0.1689 -0.3304
    1WF      WF67436   1.798  25.693   8.720  0.0266 -0.0284 -0.3460
    1WF      WF67437   2.107  10.393   9.046  0.0148  0.2145 -0.1530
    1WF      WF67438  29.643   6.177   0.642  0.4048 -0.0010  0.2025
    1WF      WF67439  27.031  19.084   8.597  0.1658  0.0574 -0.2772
    1WF      WF67440  11.197  20.931   9.325 -0.0419  0.0672  0.0683
    1WF      WF67441   5.703   6.046   2.030 -0.0076 -0.0598  0.1038
    1WF      WF67442  18.534  27.426   1.841 -0.3615 -0.1101  0.2179
    1WF      WF67443   4.768  16.715   7.906 -0.1215  0.4411 -0.1052
    1WF      WF67444  10.767  22.186   0.979  0.0628  0.2898 -0.2598
    1WF      WF67445  24.582  22.556   8.614 -0.1561  0.0229 -0.2025
    1WF      WF67446  23.621  15.632   8.710  0.0698 -0.1788  0.0928
    1WF      WF67447  23.621  20.873   8.751  0.0473 -0.2298  0.0985
    1WF      WF67448  18.897   7.417   9.184  0.0118  0.2341  0.3986
    1WF      WF67449   8.470  11.276   8.063 -0.1103  0.0705  0.1425
    1WF      WF67450   7.242   4.620   1.264  0.1817  0.1213 -0.0356
    1WF      WF67451   3.685   3.746   0.010  0.0932 -0.1223  0.3099
    1WF      WF67452   1.381   8.863   1.064  0.1830  0.3968  0.3275
    1WF      WF67453  26.807  11.384   0.321 -0.3086  0.1412 -0.0438
    1WF      WF67454   4.079   8.138   1.069  0.0063 -0.0380  0.0054
    1WF      WF67455   2.865   1.295   7.253  0.3027 -0.1746  0.0207
    1WF      WF67456  19.960  27.507   0.341 -0.0317  0.2056 -0.0446
    1WF      WF67457  22.456  21.026   9.315  0.5167 -0.1286  0.1210
    1WF      WF67458  21.899   1.184   7.324 -0.2366  0.0046  0.0291
    1WF      WF67459  23.682   3.776   9.219  0.1162  0.2423  0.1827
    1WF      WF67460   7.011   9.801   8.406  0.4516 -0.0411 -0.2075
    1WF      WF67461  11.964   7.747   9.072 -0.0460 -0.1564  0.3698
    1WF      WF67462   1.797   6.519   0.292 -0.1711 -0.0733 -0.0617
    1WF      WF67463  24.026  16.263   8.177  0.0592  0.0210 -0.1161
    1WF      WF67464  12.395  17.517   8.725 -0.2421 -0.0433  0.1706
    1WF      WF67465  25.142   6.114   8.311 -0.0102 -0.1568 -0.1737
    1WF      WF67466  16.659   8.536   1.936 -0.1828 -0.0892 -0.2054
    1WF      WF67467   0.776  18.557   9.197 -0.0972 -0.2913 -0.3100
    1WF      WF67468  12.862   0.572   8.521 -0.2903 -0.0303  0.0293
    1WF      WF67469  27.863  10.373   1.090 -0.0765  0.0138 -0.0258
    1WF      WF67470   8.725   6.277   9.479  0.1040  0.1638 -0.2147
    1WF      WF67471  21.151  29.485   7.006  0.0007 -0.0819  0.3661
    1WF      WF67472  20.563  21.939   0.561 -0.0496 -0.0877 -0.2581
    1WF      WF67473  14.812  10.950   0.665 -0.2515  0.0780  0.1887
    1WF      WF67474  22.558   9.764   9.525  0.1890  0.4601  0.0771
    1WF      WF67475  23.778  21.401   9.549 -0.0365 -0.0250 -0.1938
    1WF      WF67476   7.227  23.369   8.459  0.0164  0.1116  0.2892
    1WF      WF67477  28.334  29.272   8.784  0.1815 -0.0874  0.2341
    1WF      WF67478  16.616  18.332   7.826 -0.0345  0.1046  0.3220
    1WF      WF67479  20.485  26.856   9.341 -0.0235  0.2062  0.0980
    1WF      WF67480  29.642   5.257   0.309  0.1866 -0.0462 -0.2417
    1WF      WF67481  21.359  13.710   5.784 -0.0296 -0.0867 -0.1417
    1WF      WF67482  13.141   7.008   9.373 -0.2567 -0.2034 -0.1428
    1WF      WF67483  14.182  11.153   0.614  0.0863  0.1921  0.1486
    1WF      WF67484  13.477  28.219   8.882 -0.2436  0.3052  0.0479
    1WF      WF67485  22.621  15.838   5.843 -0.0523  0.2865 -0.1406
    1WF      WF67486  26.139  12.398   8.400 -0.3061 -0.2586 -0.0144
    1WF      WF67487   2.932   2.999   8.482 -0.0336  0.0119 -0.0048
    1WF      WF67488  24.595  28.887   1.310  0.2941  0.0065 -0.1951
    1WF      WF67489  17.993   3.545   9.067 -0.0065 -0.0356  0.2343
    1WF      WF67490  18.120  17.427   7.066 -0.2716  0.1619  0.0117
    1WF      WF67491  23.493  24.353   8.177  0.1690  0.0705  0.0741
    1WF      WF67492  12.026  14.300   0.628 -0.2498 -0.1192  0.2453
    1WF      WF67493  17.571  26.846   0.551  0.0826 -0.2569  0.1478
    1WF      WF67494   9.293  20.664   7.337  0.1409  0.0294  0.2859
    1WF      WF67495  24.558  11.503   7.492 -0.0726 -0.1727  0.2998
    1WF      WF67496   2.583   8.140   0.728 -0.3291  0.0128 -0.2043
    1WF      WF67497  23.667   1.371   1.058 -0.1943  0.1456  0.0762
    1WF      WF67498  12.573  28.445   8.284  0.1482 -0.5159  0.0413
    1WF      WF67499  24.906  12.474   8.594  0.1588 -0.3284  0.1367
    1WF      WF67500  21.499  14.666   0.683  0.0149  0.1982  0.1030
    1WF      WF67501   7.571   8.665   1.080  0.2133  0.1785 -0.3043
    1WF      WF67502  10.313   6.555   1.759 -0.1048 -0.3412  0.3430
    1WF      WF67503  25.773  14.393   8.057  0.0617 -0.0390 -0.3478
    1WF      WF67504  17.711   9.369   1.038  0.3261 -0.2586  0.1309
    1WF      WF67505  23.788   6.102   1.327 -0.0278  0.2811 -0.2006
    1WF      WF67506  15.201  10.415   2.275 -0.0425  0.1554  0.1365
    1WF      WF67507  19.215  15.844   0.616 -0.1677 -0.3139  0.0704
    1WF      WF67508  27.266   6.320   8.073  0.3684  0.1825  0.1335
    1WF      WF67509   2.014   5.838   9.036  0.0216 -0.0822  0.3852
    1WF      WF67510  15.617  12.624   9.006 -0.0884  0.1647  0.1789
    1WF      WF67511  16.505  18.401   8.343  0.2071 -0.0742  0.0464
    1WF      WF67512   9.438  23.710   7.981 -0.3106  0.2116 -0.0292
    1WF      WF67513  26.998  16.854   7.996  0.0898  0.3236  0.1419
    1WF      WF67514  25.497  14.561   8.961 -0.2233 -0.0654 -0.1840
    1WF      WF67515  28.962  19.296   8.399  0.1337 -0.0793 -0.1285
    1WF      WF67516  25.678  15.850   9.353  0.1491 -0.0385 -0.0702
    1WF      WF67517  20.495   2.796   9.061  0.0913 -0.2289 -0.1460
    1WF      WF67518  21.627  10.996   8.047  0.0881  0.1419 -0.0251
    1WF      WF67519  13.759  29.298   8.745 -0.0003  0.1903  0.0357
    1WF      WF67520  20.988  10.815   0.339  0.0782 -0.0350  0.2383
    1WF      WF67521  21.758  25.791   0.403  0.0707  0.0776 -0.1205
    1WF      WF67522  24.017  27.909   0.875 -0.1945  0.0118  0.3183
    1WF      WF67523  24.327  17.525   6.812  0.0142 -0.1685  0.1001
    1WF      WF67524  11.392  13.782   0.081 -0.1500 -0.0407  0.1088
    1WF      WF67525  21.934  14.085   0.683  0.0458  0.1097 -0.1579
    1WF      WF67526   0.624  19.816   7.648  0.1302 -0.0117  0.1062
    1WF      WF67527   9.298  15.105   2.669  0.1566 -0.1324  0.1072
    1WF      WF67528  23.408  17.104   7.618  0.1208 -0.1033 -0.2945
    1WF      WF67529  19.520   6.281   2.260 -0.1739 -0.0833  0.0708
    1WF      WF67530  25.494  16.252   0.050  0.1550 -0.0818  0.0552
    1WF      WF67531  24.014   3.721   0.061 -0.0230 -0.0395  0.0193
    1WF      WF67532  13.923  19.854   8.149 -0.0298  0.1165 -0.1569
    1WF      WF67533  12.153  29.710   0.571 -0.1085  0.0650 -0.1450
    1WF      WF67534   2.609   0.084   0.498 -0.2029  0.2498 -0.4485
    1WF      WF67535  26.880  20.431   7.483 -0.5089 -0.3415  0.1090
    1WF      WF67536   2.124  10.324   7.927 -0.1573  0.3655 -0.1255
    1WF      WF67537  10.550  28.161   1.917  0.1102 -0.2844 -0.1423
    1WF      WF67538   2.215  26.803   7.602 -0.0558 -0.3921 -0.1290
    1WF      WF67539  18.633  20.487   1.036  0.0451  0.1298  0.0598
    1WF      WF67540  19.691  25.146   2.056 -0.0137  0.1474 -0.1084
    1WF      WF67541   6.785   5.428   9.507 -0.2940 -0.0764  0.1498
    1WF      WF67542   4.379   4.331   0.980  0.1962 -0.2522 -0.1200
    1WF      WF67543  23.088  17.023   7.222 -0.5971 -0.0534  0.1456
    1WF      WF67544   8.852   5.335   2.508  0.0485  0.0251 -0.0465
    1WF      WF67545  29.124   9.542   0.601  0.1744 -0.0905  0.1233
    1WF      WF67546  19.190  18.094   7.571 -0.3682 -0.0863  0.0148
    1WF      WF67547  28.693  21.366   0.247 -0.3828 -0.0601 -0.0862
    1WF      WF67548  18.238  10.356   8.740  0.1926 -0.0260  0.0040
    1WF      WF67549   6.127   3.906   2.337  0.0033 -0.0047 -0.1991
    1WF      WF67550  19.895  10.344   0.674  0.0835  0.0770  0.2062
    1WF      WF67551   6.974  20.932   8.621 -0.1232  0.0004  0.0988
    1WF      WF67552   4.793  28.394   0.188  0.1682  0.1847 -0.0706
    1WF      WF67553   4.243   3.200   1.025  0.2112 -0.2238  0.1868
    1WF      WF67554  24.476   3.326   8.945 -0.0981 -0.0112 -0.0889
    1WF      WF67555  12.072  28.807   2.305 -0.0682  0.0211  0.0386
    1WF      WF67556   8.587  14.293   8.029 -0.1282 -0.0839 -0.1698
    1WF      WF67557  15.048  17.897   0.888 -0.0506  0.1233  0.1788
    1WF      WF67558  18.048  20.786   9.445 -0.2502 -0.2917  0.0510
    1WF      WF67559  17.341  10.853   7.724  0.0474  0.0958  0.1213
    1WF      WF67560   2.858  24.758   1.637 -0.0313 -0.3605  0.3685
    1WF      WF67561  18.606  15.488   8.100  0.2603  0.1541 -0.0325
    1WF      WF67562  14.388  17.427   8.458  0.3191  0.0273 -0.4327
    1WF      WF67563  20.390  27.184   0.186 -0.1167 -0.1804  0.2091
    1WF      WF67564  12.512   5.476   2.989 -0.3771  0.0343 -0.2747
    1WF      WF67565  25.746   4.591   7.963 -0.3832 -0.0841 -0.1874
    1WF      WF67566  12.777  21.427   7.973  0.2677  0.0653 -0.2813
    1WF      WF67567  15.537  17.799   0.034 -0.1099  0.2134 -0.3106
    1WF      WF67568  16.991  16.411   7.806  0.1427 -0.2996 -0.1120
    1WF      WF67569   0.826   5.341   8.709  0.0272 -0.2792 -0.2659
    1WF      WF67570  15.649  22.255   1.774 -0.0325 -0.4572  0.1500
    1WF      WF67571  25.747  27.578   8.233 -0.1628  0.0564  0.2779
    1WF      WF67572   1.759   4.934   0.137  0.0320 -0.0348 -0.2014
    1WF      WF67573  23.221  16.849   0.243 -0.1309 -0.1513 -0.1943
    1WF      WF67574  24.510  24.236   0.220 -0.0678  0.1173 -0.0358
    1WF      WF67575   7.128  21.572   2.828  0.0001  0.2292  0.0226
    1WF      WF67576  22.062  12.825   0.505 -0.1395 -0.1007  0.0439
    1WF      WF67577  12.338   0.016   0.114  0.2478  0.1564 -0.0406
    1WF      WF67578   3.052  29.729   0.817  0.0304 -0.0184  0.2044
    1WF      WF67579   9.147  27.745   1.988 -0.1745 -0.0669 -0.1959
    1WF      WF67580  15.420   7.139   8.386 -0.0331 -0.1970  0.2248
    1WF      WF67581  22.698  20.029   0.207  0.2295 -0.1292 -0.0037
    1WF      WF67582   4.912  24.287   0.861 -0.0405  0.2838  0.1657
    1WF      WF67583  25.298  27.337   1.300  0.0990  0.1134  0.0242
    1WF      WF67584   9.837  12.756   8.828 -0.0032  0.0369 -0.1291
    1WF      WF67585  10.426  19.464   0.900 -0.0376  0.1884  0.0939
    1WF      WF67586  19.616  26.085   7.957 -0.2122 -0.0895  0.0105
    1WF      WF67587   1.822  23.348   1.608  0.1861 -0.0388  0.1374
    1WF      WF67588  15.436  13.107   9.236  0.0162 -0.0183  0.4094
    1WF      WF67589   6.141   6.662   0.204 -0.0161 -0.2025  0.0706
    1WF      WF67590  13.467  17.035   1.029  0.0525 -0.0792  0.2335
    1WF      WF67591   3.727  10.913   8.219 -0.1161 -0.2590 -0.1184
    1WF      WF67592  18.807   2.036   0.337 -0.1752 -0.2779 -0.1975
    1WF      WF67593   2.286   2.570   0.583  0.0803  0.0274  0.0950
    1WF      WF67594  29.309  11.937   0.366  0.2090  0.0168 -0.2239
    1WF      WF67595  20.411   8.152   8.755  0.0165 -0.0280  0.0112
    1WF      WF67596  28.707   4.804   0.719 -0.2676 -0.3525  0.0739
    1WF      WF67597  12.768   7.150   0.228 -0.1167  0.0505  0.0657
    1WF      WF67598  29.288  17.527   9.544 -0.2628 -0.3015  0.0405
    1WF      WF67599  17.982   1.071   2.238 -0.1609 -0.0276 -0.2778
    1WF      WF67600  19.056   4.251   9.458  0.0021 -0.1298 -0.1855
    1WF      WF67601  25.773   5.663   1.789  0.2055 -0.0454 -0.1937
    1WF      WF67602  22.054  12.481   1.039 -0.3137 -0.0363 -0.1900
    1WF      WF67603  15.906  16.552   8.536 -0.1475 -0.2634 -0.0005
    1WF      WF67604  11.926  24.040   8.285  0.1018  0.1389 -0.1032
    1WF      WF67605  23.955   1.371   1.445 -0.1569  0.1051 -0.0539
    1WF      WF67606  15.038  10.934   0.215  0.0575  0.0626 -0.2550
    1WF      WF67607   9.003  19.818   0.895 -0.0801  0.6760  0.0377
    1WF      WF67608  19.012   0.431   7.971 -0.0965 -0.3673  0.0345
    1WF      WF67609  15.936  11.565   6.564 -0.1124 -0.0654  0.0938
    1WF      WF67610   8.109   3.484   2.342 -0.3317 -0.0517 -0.1631
    1WF      WF67611  26.081  10.223   2.542  0.3677  0.0010  0.1503
    1WF      WF67612   9.182  27.236   2.044  0.1162  0.0433  0.0724
    1WF      WF67613  29.367   3.059   2.312 -0.0929 -0.0003  0.1327
    1WF      WF67614  15.360   3.695   7.858 -0.0952 -0.2496  0.0239
    1WF      WF67615  25.060  14.262   8.852  0.1472  0.0480  0.1474
    1WF      WF67616  24.632   7.757   1.790  0.1272 -0.0765  0.1228
    1WF      WF67617  10.415   1.307   2.136  0.1625 -0.1350  0.1872
    1WF      WF67618  17.415  12.929   7.757  0.3548 -0.0275  0.1679
    1WF      WF67619  27.403   8.996   0.639 -0.0807 -0.0001 -0.1763
    1WF      WF67620  17.184   5.081   1.608  0.2028 -0.2774  0.0176
    1WF      WF67621   3.721   3.368   9.202  0.3447  0.1663 -0.1685
    1WF      WF67622   4.545   1.147   8.715 -0.0589  0.1465 -0.2959
    1WF      WF67623   8.933  24.219   6.371  0.2102 -0.0376  0.0205
    1WF      WF67624  28.113  28.810   7.551 -0.0762  0.3081 -0.1512
    1WF      WF67625   4.188  13.727   9.261  0.1028 -0.2275  0.0888
    1WF      WF67626  12.472  20.781   1.183  0.3093 -0.0457  0.1099
    1WF      WF67627  25.162   2.718   0.624  0.2585  0.0332 -0.1189
    1WF      WF67628  24.491  13.697   6.453  0.1896  0.0943  0.0214
    1WF      WF67629  20.422   4.341   0.215 -0.3563 -0.0618 -0.0844
    1WF      WF67630  20.552   5.446   2.320  0.0012 -0.0914 -0.2568
    1WF      WF67631   7.202  28.943   9.270  0.5986  0.1071 -0.1917
    1WF      WF67632  17.689  15.412   7.484  0.0410 -0.0879 -0.0402
    1WF      WF67633   5.719  17.820   6.770 -0.0006  0.1173  0.0702
    1WF      WF67634   9.555  26.870   8.413  0.0459 -0.0425 -0.2052
    1WF      WF67635  15.966   4.483   9.301 -0.0776 -0.3595 -0.1519
    1WF      WF67636  13.089  12.181   1.107  0.0509 -0.0634  0.0148
    1WF      WF67637  29.396  11.845   8.260 -0.2023 -0.2664  0.1172
    1WF      WF67638  19.279   1.058   0.689 -0.2276 -0.0230 -0.4280
    1WF      WF67639  11.036  23.211   0.343  0.3515  0.1266  0.0332
    1WF      WF67640  24.517  22.136   1.891 -0.1197  0.0531 -0.1989
    1WF      WF67641  17.429   6.799   8.557  0.2457  0.2026 -0.2188
    1WF      WF67642   5.490  10.598   0.503 -0.1036  0.0141  0.1747
    1WF      WF67643  26.846  25.984   8.429 -0.1692 -0.0344 -0.2369
    1WF      WF67644  21.822  13.773   0.329 -0.1591  0.1576  0.2380
    1WF      WF67645   1.855  15.950   8.438 -0.4364 -0.0929 -0.0044
    1WF      WF67646   5.937   8.002   9.262 -0.2256  0.1876  0.1739
    1WF      WF67647  11.732  24.167   5.690 -0.2020 -0.0605  0.0769
    1WF      WF67648  13.668  12.720   8.715 -0.0112 -0.1858 -0.0637
    1WF      WF67649   9.549  14.794   8.607 -0.0097 -0.0011 -0.0929
    1WF      WF67650  12.624   0.251   0.602 -0.3767  0.0604  0.2474
    1WF      WF67651  28.751   7.793   8.558 -0.1413  0.0103  0.0178
    1WF      WF67652   9.879  22.155   0.125 -0.2341 -0.2710  0.0361
    1WF      WF67653   2.411  19.862   8.852 -0.1395  0.1503 -0.0079
    1WF      WF67654   2.195  12.515   7.500  0.1982  0.3119 -0.0268
    1WF      WF67655   6.262  27.835   0.022  0.0646  0.0157  0.2266
    1WF      WF67656   8.914   2.749   9.343 -0.0125 -0.2816 -0.0143
    1WF      WF67657   7.489  18.968   1.118 -0.0663 -0.4045  0.2136
    1WF      WF67658  20.850   6.437   2.274 -0.0878 -0.0482 -0.3680
    1WF      WF67659   6.874  26.115   1.253 -0.0596  0.2191 -0.1555
    1WF      WF67660  14.019  27.796   8.599 -0.3076  0.1895  0.0133
    1WF      WF67661  16.927  23.012   0.938  0.1595 -0.1460  0.3764
    1WF      WF67662   5.423  21.818   0.335 -0.1395  0.2286  0.1861
    1WF      WF67663  22.002  27.470   0.055  0.0913  0.2173  0.0086
    1WF      WF67664   3.636   0.694   8.499 -0.1696  0.0659 -0.2488
    1WF      WF67665   0.138  24.449   0.512  0.2545 -0.0565 -0.1341
    1WF      WF67666  26.222   7.941   0.896 -0.0453 -0.0530  0.0529
    1WF      WF67667  13.690  13.322   8.686  0.0459 -0.2101 -0.0911
    1WF      WF67668  13.170  22.586   9.417  0.1572  0.0549 -0.1878
    1WF      WF67669   6.452  13.768   9.030 -0.1114 -0.4013  0.1737
    1WF      WF67670  11.319   9.691   9.507  0.1117  0.2323  0.0263
    1WF      WF67671  28.528  17.976   7.946  0.0189 -0.1539  0.1247
    1WF      WF67672  25.863  11.095   0.574 -0.0398 -0.0228  0.0530
    1WF      WF67673   6.905   2.630   1.312  0.2890  0.2098 -0.1476
    1WF      WF67674   1.859  24.190   9.274  0.2334  0.1626  0.0660
    1WF      WF67675  24.403   8.964   0.932  0.1488  0.0248 -0.0903
    1WF      WF67676  23.828   3.992   2.026  0.0050 -0.4228 -0.0430
    1WF      WF67677  15.969   0.232   9.262 -0.0435  0.2131  0.0943
    1WF      WF67678  16.201  21.343   8.194 -0.0575 -0.1029 -0.0628
    1WF      WF67679   8.165  23.640   2.687 -0.3506 -0.0621 -0.2055
    1WF      WF67680  24.626   1.884   0.229  0.2823 -0.0999 -0.0081
    1WF      WF67681  12.897  15.700   8.662  0.0065 -0.0285  0.0933
    1WF      WF67682  19.803  28.826   3.378 -0.0590 -0.1698 -0.1387
    1WF      WF67683  25.905   0.100   7.252 -0.2113 -0.0586 -0.0968
    1WF      WF67684  18.634   4.070   1.394  0.0636 -0.1436  0.0642
    1WF      WF67685  22.384   0.967   1.248  0.1661 -0.2022  0.2682
    1WF      WF67686   6.725   2.880   1.739 -0.1876  0.2312 -0.0584
    1WF      WF67687  13.992   3.040   7.649 -0.0410  0.0599 -0.4368
    1WF      WF67688  17.524  25.631   9.337 -0.0032  0.0865  0.1187
    1WF      WF67689  14.009  26.529   3.177  0.3384  0.2607  0.1803
    1WF      WF67690   9.058  28.172   2.227  0.1967 -0.2915 -0.0362
    1WF      WF67691   7.929  15.320   0.139 -0.1235 -0.0143  0.0169
    1WF      WF67692   1.262   9.637   8.675  0.1387 -0.1221 -0.0040
    1WF      WF67693  25.133  27.324   8.746  0.1911  0.0004 -0.0565
    1WF      WF67694  13.443  16.887   0.434 -0.0240  0.2666 -0.1570
    1WF      WF67695   8.632   8.122   0.155 -0.2660 -0.1843 -0.1210
    1WF      WF67696  24.921  23.280   0.050 -0.1433  0.1036  0.4006
    1WF      WF67697   1.697   5.791   1.298 -0.3293  0.1501  0.1080
    1WF      WF67698  11.013  19.241   0.828  0.0192  0.0014  0.0879
    1WF      WF67699  18.145  17.431   1.445 -0.0275 -0.0905 -0.0809
    1WF      WF67700  25.685  15.045   7.533  0.4454 -0.4752 -0.2563
    1WF      WF67701  28.818  29.683   7.244 -0.1218 -0.1808 -0.1694
    1WF      WF67702   1.791  13.723   0.916 -0.0274 -0.2550  0.0222
    1WF      WF67703  20.985  10.842   7.190 -0.2674  0.0217 -0.1422
    1WF      WF67704  22.025  13.263   0.333  0.1299  0.1133 -0.2208
    1WF      WF67705   7.441  22.892   9.039 -0.1460  0.0736 -0.1366
    1WF      WF67706   2.932  22.394   8.411  0.1220 -0.0672  0.0948
    1WF      WF67707   4.018  21.700   1.123  0.1379 -0.0957 -0.2223
    1WF      WF67708  17.285   3.833   8.294  0.0720 -0.1711  0.1838
    1WF      WF67709   4.786  13.889   1.361  0.1907 -0.5481  0.0142
    1WF      WF67710   8.453  21.824   9.319 -0.0223  0.0979  0.1765
    1WF      WF67711   6.796  28.382   7.669  0.0116 -0.1695 -0.0094
    1WF      WF67712  19.549  12.678   6.337  0.1314 -0.2137  0.3220
    1WF      WF67713  13.389  20.378   9.183 -0.1871 -0.1988  0.2019
    1WF      WF67714   9.778  24.553   2.751  0.1061  0.1355 -0.1381
    1WF      WF67715  22.671  15.578   7.902  0.0768  0.1106 -0.1882
    1WF      WF67716   2.248  10.892   8.027  0.0052  0.0505  0.0715
    1WF      WF67717  16.729   3.922   1.769 -0.2698 -0.2161  0.1065
    1WF      WF67718  13.720   5.049   0.452  0.1717  0.2968  0.1706
    1WF      WF67719  28.459  14.966   7.740  0.1014 -0.1165 -0.0787
    1WF      WF67720  21.003  28.405   8.218  0.2254  0.0288 -0.0796
    1WF      WF67721   7.466  24.508   7.190  0.0590 -0.4217  0.0047
    1WF      WF67722  13.263  22.597   1.421 -0.1470  0.0727 -0.0982
    1WF      WF67723  26.890  23.874   5.870 -0.3542  0.0959 -0.1321
    1WF      WF67724  23.263  27.712   1.264 -0.1772 -0.2976 -0.0419
    1WF      WF67725   7.254   1.309   3.745  0.0150  0.1223  0.0588
    1WF      WF67726   8.847  13.771   1.880 -0.1600  0.1598 -0.1578
    1WF      WF67727  13.278   9.243   0.050  0.0111 -0.3645 -0.0210
    1WF      WF67728   5.740  11.256   0.769 -0.1927 -0.2224 -0.0063
    1WF      WF67729   4.243  14.993   1.111 -0.2162  0.1369  0.3594
    1WF      WF67730  22.017   1.060   0.925 -0.0531 -0.0844  0.0913
    1WF      WF67731  27.309  18.704   8.542  0.4111 -0.0166 -0.0316
    1WF      WF67732   7.260  27.044   8.419  0.0873 -0.1368 -0.0365
    1WF      WF67733  29.739  27.162   0.634  0.1546 -0.0131  0.0796
    1WF      WF67734  12.139  27.493   9.142  0.0475  0.2081 -0.0826
    1WF      WF67735  13.945  27.059   1.794 -0.1399 -0.0596 -0.1754
    1WF      WF67736  20.733   1.124   7.279 -0.0484  0.4117  0.2900
    1WF      WF67737  26.478  22.520   0.699  0.2754 -0.0947 -0.1759
    1WF      WF67738  16.400  24.914   7.900 -0.1129 -0.1387 -0.0545
    1WF      WF67739   6.238  12.632   8.155 -0.1241 -0.0942 -0.0313
    1WF      WF67740  15.985  15.939   0.751 -0.1662  0.1849 -0.2381
    1WF      WF67741  15.186  12.839   8.777  0.4074 -0.0194  0.0963
    1WF      WF67742  16.367   8.200   1.533 -0.0530 -0.2053  0.1197
    1WF      WF67743  21.374  20.221   7.046 -0.1365  0.2951  0.0547
    1WF      WF67744  10.316  25.217   8.932  0.1051 -0.0911  0.0069
    1WF      WF67745  18.552  17.216   8.768  0.1333  0.1684  0.0239
    1WF      WF67746   1.682  28.678   1.328 -0.1245  0.1600  0.0989
    1WF      WF67747  27.452  15.329   0.497 -0.3176  0.0158  0.1003
    1WF      WF67748  22.491   8.749   0.363  0.0890  0.0956  0.1418
    1WF      WF67749  14.880  27.835   2.386 -0.0943  0.1516  0.3154
    1WF      WF67750  15.460  15.350   1.200  0.0279  0.0411  0.0920
    1WF      WF67751  26.284  20.748   0.408 -0.1102 -0.3173 -0.0750
    1WF      WF67752  10.082  26.068   3.811  0.4257  0.0411  0.0759
    1WF      WF67753  28.720   4.338   0.821 -0.1948  0.1364 -0.2156
    1WF      WF67754   0.074   3.469   7.033  0.0675  0.1836 -0.1542
    1WF      WF67755   9.825   0.343   2.868 -0.0753  0.1661  0.3725
    1WF      WF67756   4.281  28.257   0.141  0.1652 -0.0488 -0.0974
    1WF      WF67757  14.432  26.113   1.167  0.2821 -0.3946  0.1755
    1WF      WF67758  28.359  17.778   0.445  0.0189  0.1313 -0.2712
    1WF      WF67759   2.002   8.615   8.437  0.0777  0.1104  0.1849
    1WF      WF67760  11.689   5.894   2.733  0.1758  0.2449 -0.3808
    1WF      WF67761   1.392  28.151   8.123  0.0995 -0.0528  0.2175
    1WF      WF67762  12.194   6.386   1.552  0.0905  0.1334  0.0334
    1WF      WF67763  22.569  23.201   2.050 -0.0365 -0.2122  0.1102
    1WF      WF67764  17.882  20.574   6.096 -0.0737 -0.0933 -0.3384
    1WF      WF67765  16.916   5.517   3.789  0.1605 -0.0075 -0.0315
    1WF      WF67766  20.579  21.307   8.275  0.1140 -0.2989  0.2196
    1WF      WF67767  29.490  24.395   0.690 -0.1120 -0.0250  0.3022
    1WF      WF67768  11.137   4.921   1.607 -0.0747  0.3528 -0.1023
    1WF      WF67769   5.289   6.688   8.423 -0.2211  0.2133  0.0388
    1WF      WF67770  27.936  21.187   6.953 -0.1730 -0.0192 -0.3081
    1WF      WF67771  13.569  16.502   0.750  0.1877  0.1374  0.1653
    1WF      WF67772   9.933   9.638   1.120 -0.2609 -0.4065  0.3453
    1WF      WF67773  22.332  15.673   1.978 -0.0268 -0.3961  0.0771
    1WF      WF67774   5.444  21.383   2.885  0.0796 -0.3460 -0.4521
    1WF      WF67775  26.916  23.004   8.705 -0.1919  0.2923  0.3273
    1WF      WF67776  25.744   5.085   9.361 -0.1167 -0.0740 -0.1551
    1WF      WF67777  13.536  10.488   7.879  0.2762  0.3134 -0.1190
    1WF      WF67778  14.399  17.333   7.946 -0.0577  0.3372  0.1673
    1WF      WF67779   4.513  27.183   7.204 -0.3094  0.1199  0.0496
    1WF      WF67780   2.049  12.004   9.162  0.2350 -0.1448 -0.0042
    1WF      WF67781  27.350  20.290   7.571  0.1308  0.2615 -0.1085
    1WF      WF67782  28.209   9.805   1.351 -0.0557  0.1697 -0.0400
    1WF      WF67783   9.443  19.895   1.203 -0.0406  0.0666  0.2988
    1WF      WF67784  27.737  28.024   1.316  0.1647  0.1619 -0.1794
    1WF      WF67785  24.272  27.672   1.221 -0.2509 -0.0726  0.0018
    1WF      WF67786  29.575  21.928   0.078 -0.0180  0.3035 -0.2632
    1WF      WF67787  10.721  27.100   9.077  0.2920 -0.0649  0.2387
    1WF      WF67788  22.781  27.790   1.420 -0.1175 -0.2166 -0.2146
    1WF      WF67789   8.334   8.891   9.282 -0.2477  0.1708 -0.1066
    1WF      WF67790  12.456  16.980   8.525 -0.1553 -0.2304  0.0187
    1WF      WF67791  18.253  16.869   8.950 -0.1123 -0.1620 -0.4532
    1WF      WF67792  17.613  12.818   8.521  0.0149 -0.0823 -0.1524
    1WF      WF67793   4.407  22.706   1.668  0.2442  0.3027 -0.0504
    1WF      WF67794  11.241  19.122   7.676  0.2888 -0.2331 -0.1305
    1WF      WF67795  12.124  27.890   1.674 -0.0770  0.0077 -0.0989
    1WF      WF67796  21.352  29.101   2.730  0.0213  0.0504  0.2286
    1WF      WF67797   1.807  27.952   0.687  0.3826 -0.2205  0.1561
    1WF      WF67798  18.857   0.125   1.193 -0.1429 -0.2435  0.1140
    1WF      WF67799   6.152  25.318   0.094  0.0893 -0.1738  0.4302
    1WF      WF67800  18.634  29.194   0.753 -0.3098  0.2294  0.0089
    1WF      WF67801   8.961  11.647   0.753  0.0256  0.1852  0.3669
    1WF      WF67802  15.895  27.879   0.112  0.0983 -0.1005 -0.2231
    1WF      WF67803  19.409  13.234   0.728  0.1319 -0.0070 -0.2263
    1WF      WF67804  20.715  27.935   1.520 -0.1891  0.0362  0.0532
    1WF      WF67805  12.690   4.539   7.504 -0.1600 -0.2729  0.0570
    1WF      WF67806  25.195   9.106   7.574 -0.1894 -0.1083  0.1498
    1WF      WF67807  29.400   2.604   8.801  0.0314  0.3527  0.3970
    1WF      WF67808  25.737  11.111   1.049 -0.1794 -0.2504 -0.5245
    1WF      WF67809  10.849  23.150   7.572  0.0750  0.0391 -0.4086
    1WF      WF67810   8.562  18.913   2.534 -0.3199 -0.0312 -0.0011
    1WF      WF67811  22.351   9.479   9.200  0.0531  0.0296  0.3191
    1WF      WF67812   0.066  25.998   0.707 -0.0384 -0.0793  0.4091
    1WF      WF67813   8.120   1.732   7.367 -0.4503  0.0377  0.1944
    1WF      WF67814  22.017  28.988   8.848  0.0478 -0.0527  0.1417
    1WF      WF67815  26.619  14.340   9.326 -0.0886  0.0326  0.0743
    1WF      WF67816   2.678  22.312   7.954 -0.0054  0.2300 -0.1349
    1WF      WF67817   2.622   1.736   7.284 -0.1035 -0.0803 -0.1691
    1WF      WF67818   5.911  22.365   1.354 -0.3482  0.1691 -0.2206
    1WF      WF67819   7.220   5.850   8.031  0.2011  0.0005  0.0089
    1WF      WF67820  25.751   2.758   8.113 -0.1395  0.2463  0.2160
    1WF      WF67821   5.934  23.764   1.764 -0.0683 -0.2638  0.2727
    1WF      WF67822  21.403  29.350   9.234  0.0595  0.0129  0.0195
    1WF      WF67823   9.084   9.574   9.073 -0.0388 -0.0118 -0.3053
    1WF      WF67824   5.474   3.037   9.504  0.2236 -0.0415 -0.0093
    1WF      WF67825   9.519   9.326   8.953  0.1105  0.0054 -0.0195
    1WF      WF67826  24.971  21.143   0.820  0.0261  0.0764 -0.2194
    1WF      WF67827  17.693  28.742   2.810  0.0094  0.0823 -0.2319
    1WF      WF67828  27.794   3.592   1.179 -0.2251 -0.1879 -0.0967
    1WF      WF67829   8.519  27.437   0.327 -0.3664  0.0452  0.0002
    1WF      WF67830   2.968   8.431   1.021  0.2108  0.0766  0.0753
    1WF      WF67831  29.490   2.343   0.809 -0.1117  0.3129 -0.2425
    1WF      WF67832   9.086  27.344   1.531 -0.0060  0.4184 -0.2997
    1WF      WF67833   1.662   1.286   1.588  0.1442 -0.1860 -0.3378
    1WF      WF67834  26.527  14.413   7.349  0.1970  0.1366  0.3461
    1WF      WF67835   1.254   9.286   0.023 -0.0601 -0.0344 -0.0741
    1WF      WF67836  17.645   8.725   9.299 -0.5455 -0.1658  0.2478
    1WF      WF67837  14.100  18.346   1.320  0.2158 -0.1273 -0.1000
    1WF      WF67838  29.397   6.296   1.072  0.0689 -0.0708 -0.2430
    1WF      WF67839  29.740   8.250   1.293 -0.3273  0.2285  0.0959
    1WF      WF67840  19.873  14.829   6.843 -0.0212 -0.2128  0.0428
    1WF      WF67841  12.590  15.331   9.243 -0.3811  0.0444 -0.2325
    1WF      WF67842   2.886   7.851   1.015 -0.0041  0.3624  0.2384
    1WF      WF67843   5.557   5.815   8.587  0.0884  0.3905 -0.3732
    1WF      WF67844  21.345  29.436   1.096 -0.0814 -0.1770  0.1346
    1WF      WF67845  23.222   8.163   6.328  0.1756  0.0061 -0.4156
    1WF      WF67846  19.938  29.743   1.905  0.0083  0.2614  0.0568
    1WF      WF67847  17.569  28.664   2.297 -0.1137  0.1794 -0.0654
    1WF      WF67848   9.074   9.118   1.150 -0.1182 -0.0754 -0.1941
    1WF      WF67849  11.592   5.070   1.428  0.1171  0.0658  0.1237
    1WF      WF67850  18.025  20.778   8.555  0.1413  0.3132  0.0656
    1WF      WF67851  20.931  17.516   9.012  0.1735 -0.1219 -0.4093
    1WF      WF67852  14.444  12.677   8.865  0.1673  0.1923 -0.1456
    1WF      WF67853  13.374  18.000   9.414  0.1434 -0.2249  0.0816
    1WF      WF67854  25.326   5.851   1.751  0.0029 -0.3759  0.0468
    1WF      WF67855   5.717   8.333   3.649 -0.0547 -0.1760 -0.1796
    1WF      WF67856   9.991  27.119   8.253 -0.2485 -0.0474 -0.0613
    1WF      WF67857  18.193  17.007   1.066 -0.2110  0.1328  0.2909
    1WF      WF67858  10.314  15.097   7.612 -0.0343  0.0698  0.2503
    1WF      WF67859  14.231  24.119   1.147  0.2488  0.0960 -0.0292
    1WF      WF67860   0.867  18.212   8.320 -0.1451 -0.0980  0.2218
    1WF      WF67861   9.710  14.534   0.302  0.0261 -0.0757 -0.0344
    1WF      WF67862   0.192  21.735   7.950  0.0541 -0.1125  0.1642
    1WF      WF67863  24.690  11.472   5.870  0.1351  0.0378 -0.4598
    1WF      WF67864  12.123  22.733   7.396 -0.1446  0.1171  0.1029
    1WF      WF67865   0.551  11.294   7.813 -0.0358  0.2674 -0.3928
    1WF      WF67866   1.394  20.784   9.491 -0.3063  0.2797 -0.1512
    1WF      WF67867   6.473   9.455   2.958  0.2388  0.1541  0.0196
    1WF      WF67868   7.350  27.230   2.270  0.0386  0.0795  0.2679
    1WF      WF67869   2.608   4.195   8.865  0.0016  0.1139 -0.0405
    1WF      WF67870  29.311  20.358   1.257 -0.0143 -0.0626  0.2491
    1WF      WF67871  27.757  22.271   8.516 -0.1925  0.0585  0.0375
    1WF      WF67872   0.024  23.596   9.214 -0.0817  0.0138  0.0041
    1WF      WF67873  10.805  17.739   6.863 -0.1168 -0.0731  0.0041
    1WF      WF67874  18.883   8.873   0.877  0.0264  0.1215  0.1023
    1WF      WF67875  28.861   3.966   0.501  0.0888  0.0669 -0.1681
    1WF      WF67876   6.828   7.460   1.981 -0.0782 -0.1457 -0.1733
    1WF      WF67877  16.594  21.428   7.884 -0.3071  0.0616 -0.0860
    1WF      WF67878  28.805   5.715   1.803  0.2439 -0.2917  0.2767
    1WF      WF67879   3.394   5.179   1.633 -0.1287  0.1431  0.0622
    1WF      WF67880  12.626  11.301   2.416 -0.1218  0.2312  0.1213
    1WF      WF67881  15.237  20.655   7.964  0.0662  0.0572 -0.4392
    1WF      WF67882  19.868  16.610   7.279 -0.3908  0.1578  0.0225
    1WF      WF67883  24.594  17.887   7.080 -0.1848  0.2888  0.3105
    1WF      WF67884  25.747   8.317   1.989  0.1781 -0.0090 -0.0023
    1WF      WF67885  25.704  27.465   8.772  0.2522  0.5157  0.1154
    1WF      WF67886   8.598   7.265   1.372  0.1160  0.1687  0.0357
    1WF      WF67887  13.004   2.823   8.626  0.1016 -0.0819 -0.3471
    1WF      WF67888  17.349  16.806   0.328  0.2752 -0.5023 -0.1705
    1WF      WF67889   1.110   9.542   9.131  0.2201 -0.1161 -0.2399
    1WF      WF67890   5.313   5.434   8.768  0.2051 -0.1387  0.2645
    1WF      WF67891  28.378  21.293   7.228 -0.1093  0.4359  0.0660
    1WF      WF67892  15.534   9.680   9.389 -0.0912 -0.0157  0.3923
    1WF      WF67893  18.863  23.930   0.421 -0.0172 -0.0611 -0.2428
    1WF      WF67894   5.765   3.478   1.355 -0.0318  0.0832 -0.1155
    1WF      WF67895  11.842  19.296   7.375 -0.1336  0.1100  0.3322
    1WF      WF67896   4.309  28.417   7.928 -0.2865 -0.0583 -0.2649
    1WF      WF67897   5.295  24.754   6.935 -0.0476  0.0802  0.1285
    1WF      WF67898  24.698  15.029   9.282 -0.2809 -0.0236  0.1082
    1WF      WF67899  15.368   6.148   8.620 -0.0303  0.0878 -0.1161
    1WF      WF67900   2.268  25.945   8.967 -0.3051  0.0941  0.0731
    1WF      WF67901  23.949  23.140   0.882 -0.1396  0.3799  0.2221
    1WF      WF67902  10.274   5.452   0.568 -0.3154  0.2033  0.0330
    1WF      WF67903  12.310   2.692   3.054  0.3413 -0.0472 -0.2019
    1WF      WF67904  10.553   8.394   7.902  0.0262 -0.1090  0.1339
    1WF      WF67905  27.594   0.142   7.289  0.3486 -0.2260 -0.1504
    1WF      WF67906  25.043   5.758   9.399 -0.2596 -0.3776  0.2683
    1WF      WF67907   4.390  27.178   2.111  0.2542  0.0487  0.0023
    1WF      WF67908  25.671  21.113   1.077 -0.2488 -0.2691 -0.0436
    1WF      WF67909   7.294  18.020   7.417 -0.1449 -0.1819 -0.1863
    1WF      WF67910   1.966  22.337   9.396 -0.0263  0.1689 -0.0586
    1WF      WF67911  11.839  23.884   8.785 -0.0328  0.0405 -0.1246
    1WF      WF67912   4.495   9.823   6.720 -0.2837 -0.1819  0.2586
    1WF      WF67913  13.681   2.591   2.763  0.2088 -0.4805 -0.2343
    1WF      WF67914  22.893  12.111   9.033  0.2424 -0.2013  0.2751
    1WF      WF67915  10.766  15.730   6.690  0.1187  0.0298  0.0304
    1WF      WF67916   8.261   3.882   9.119 -0.1310 -0.0683 -0.3237
    1WF      WF67917   2.617  15.549   6.241  0.1161  0.1812 -0.0769
    1WF      WF67918  15.493   2.791   0.710 -0.0601 -0.1831  0.1926
    1WF      WF67919  19.411   0.687   2.486  0.2085  0.1565 -0.2722
    1WF      WF67920  24.201  22.293   8.888  0.4046 -0.0685 -0.2482
    1WF      WF67921   7.295   2.295   1.328 -0.1047  0.2179 -0.0186
    1WF      WF67922   8.678  14.507   0.634 -0.0256 -0.0580 -0.1202
    1WF      WF67923   3.465  28.817   9.522 -0.0298  0.2025  0.3101
    1WF      WF67924  21.725  25.009   1.564  0.0730  0.3630  0.1598
    1WF      WF67925  13.094   9.492   0.430  0.0883 -0.1175 -0.1449
    1WF      WF67926   9.184  24.934   8.056  0.0419 -0.0153  0.0066
    1WF      WF67927  16.460  25.922   0.189  0.0912 -0.1178  0.1379
    1WF      WF67928  13.065   8.468   7.387  0.1281  0.1296 -0.1332
    1WF      WF67929  21.143  16.657   9.387 -0.1668 -0.1944 -0.1799
    1WF      WF67930   1.712  20.970   0.418  0.3282 -0.2120 -0.0217
    1WF      WF67931  21.471  10.657   8.397  0.2028 -0.0764  0.0854
    1WF      WF67932  11.768  22.731   7.725 -0.2297 -0.0505 -0.1463
    1WF      WF67933  17.504  26.731   1.616  0.1410  0.1010  0.1253
    1WF      WF67934  28.934   0.050   0.544  0.3073  0.0894  0.0639
    1WF      WF67935  17.526   4.445   0.127 -0.2672 -0.0801 -0.1295
    1WF      WF67936  22.529  12.298   6.811 -0.3305 -0.2841  0.1570
    1WF      WF67937  11.683  12.794   1.091 -0.0615  0.1263 -0.4304
    1WF      WF67938  23.409  11.023   8.510  0.2118 -0.0209 -0.0541
    1WF      WF67939  16.761   4.653   7.012  0.1129  0.0187 -0.4755
    1WF      WF67940  15.785   7.650   0.847 -0.0078  0.2656 -0.1757
    1WF      WF67941  10.712   4.054   7.919  0.0496  0.3309 -0.0017
    1WF      WF67942   5.241  20.916   1.129 -0.0984  0.4220  0.0956
    1WF      WF67943   1.283  14.093   1.584 -0.0931 -0.0598 -0.0433
    1WF      WF67944   8.886  27.365   3.944  0.0472 -0.0872 -0.0526
    1WF      WF67945  11.042   3.832   7.577  0.0551 -0.1196 -0.2353
    1WF      WF67946  11.967  20.081   8.610  0.1985 -0.0190 -0.2943
    1WF      WF67947  15.309  21.870   0.434  0.4501  0.1267 -0.0415
    1WF      WF67948  27.714   1.978   0.797 -0.0882 -0.0662 -0.0500
    1WF      WF67949  24.303  29.306   1.295 -0.0116 -0.0533 -0.0951
    1WF      WF67950   0.980  28.556   2.492 -0.1696  0.0195 -0.1445
    1WF      WF67951  14.648  16.400   0.078 -0.5846 -0.2399 -0.0880
    1WF      WF67952   7.086  23.433   3.155 -0.0906 -0.1079 -0.0975
    1WF      WF67953  10.787  27.476   9.428  0.2724  0.2275 -0.1427
    1WF      WF67954   9.959  12.139   1.296  0.2172 -0.1108  0.4899
    1WF      WF67955  15.443   9.514   7.954  0.0482  0.0517 -0.0647
    1WF      WF67956  29.071   7.922   0.616 -0.2411  0.0353 -0.0272
    1WF      WF67957  22.224  29.665   7.131 -0.1821 -0.3955  0.2872
    1WF      WF67958   7.300  11.415   8.488 -0.2516 -0.1170 -0.1294
    1WF      WF67959  24.415  10.430   0.703 -0.2685  0.1894  0.1316
    1WF      WF67960   5.918  18.083   1.172  0.1174 -0.4428 -0.0364
    1WF      WF67961  13.773   7.883   1.062 -0.3547  0.1904  0.3319
    1WF      WF67962  26.433   1.267   0.026  0.3087  0.1955  0.1516
    1WF      WF67963  23.630  16.624   9.535 -0.0904  0.3004 -0.0202
    1WF      WF67964  28.292  13.765   7.257 -0.0479 -0.0870  0.3235
    1WF      WF67965  16.941  12.281   0.214  0.0453  0.0971  0.0924
    1WF      WF67966   1.770  28.498   7.501 -0.2644 -0.0763  0.0240
    1WF      WF67967  16.027  18.984   0.402  0.1130  0.1055 -0.0261
    1WF      WF67968   1.145  29.360   0.571  0.2509  0.3987 -0.2654
    1WF      WF67969  18.555  23.626   1.332 -0.0225 -0.3123  0.3348
    1WF      WF67970   1.926   8.465   7.673  0.0178 -0.2551  0.1493
    1WF      WF67971  20.700   4.639   0.641 -0.0541 -0.0331  0.1105
    1WF      WF67972  24.158  14.029   0.166  0.0515  0.0921  0.2425
    1WF      WF67973  24.059  18.665   9.412 -0.0072 -0.2096 -0.3121
    1WF      WF67974  20.410   3.444   0.925 -0.1293  0.1489  0.2227
    1WF      WF67975   4.107  10.766   8.482  0.1137  0.2607  0.0510
    1WF      WF67976  18.980   6.705   3.451 -0.5567 -0.2438  0.1627
    1WF      WF67977  14.357  16.954   8.905 -0.0127  0.1555 -0.3052
    1WF      WF67978  17.567  14.607   2.482  0.2215  0.1585  0.1183
    1WF      WF67979  22.684  17.981   7.950  0.2358 -0.2043 -0.1533
    1WF      WF67980  21.221  23.894   7.599 -0.1120  0.0530  0.3946
    1WF      WF67981  25.794   4.059   6.613  0.3620  0.0451 -0.1425
    1WF      WF67982  28.727  23.847   1.929 -0.1722  0.1999  0.0559
    1WF      WF67983   0.369  25.910   1.067  0.1748  0.0323  0.3196
    1WF      WF67984   9.729   9.786   0.649  0.0424 -0.0921  0.1186
    1WF      WF67985  16.574  19.578   1.540  0.0971 -0.0649  0.0741
    1WF      WF67986  14.723  25.409   1.291 -0.2641 -0.1809 -0.0745
    1WF      WF67987  19.960  13.212   7.390 -0.0898  0.0313  0.0009
    1WF      WF67988   3.418  24.438   8.043 -0.1606  0.1263  0.2450
    1WF      WF67989  19.029  23.480   0.494  0.1996  0.0241 -0.2939
    1WF      WF67990   7.666   0.983   1.514 -0.2935  0.0386  0.0690
    1WF      WF67991  16.054  26.125   9.413 -0.1509  0.1451  0.3408
    1WF      WF67992  13.573   3.872   8.617 -0.1059  0.0354 -0.0428
    1WF      WF67993  17.819  13.309   5.615 -0.1005  0.4015  0.1409
    1WF      WF67994  12.892  21.642   1.405 -0.0289 -0.5828  0.2034
    1WF      WF67995   1.419  22.592   7.752 -0.1003  0.4600  0.0376
    1WF      WF67996  23.879  22.582   0.825 -0.1287 -0.1744 -0.1688
    1WF      WF67997   2.221   1.847   9.416 -0.0363 -0.0380  0.2539
    1WF      WF67998  25.698   9.648   0.595 -0.1491  0.0062 -0.0036
    1WF      WF67999  22.807   0.875   8.501  0.0418 -0.1639  0.1416
    1WF      WF68000   5.944  12.901   8.444 -0.2779 -0.0100 -0.2036
    1WF      WF68001   8.830   6.590   9.045 -0.0917 -0.0379 -0.1071
    1WF      WF68002  29.082  20.730   8.760  0.1523  0.2307 -0.0764
    1WF      WF68003   6.709   7.319   1.517  0.0941 -0.3548 -0.0727
    1WF      WF68004  22.412   1.333   1.785  0.2132 -0.0766  0.0401
    1WF      WF68005  25.727  18.369   0.344 -0.0470 -0.1467  0.0870
    1WF      WF68006   0.886  23.945   1.965 -0.0397  0.0848 -0.1767
    1WF      WF68007  28.559  29.733   8.782  0.0517  0.2406  0.2891
    1WF      WF68008  25.961  28.290   9.437 -0.0120 -0.0012  0.2886
    1WF      WF68009   5.793  12.751   1.638 -0.0518 -0.0503  0.1333
    1WF      WF68010  25.221   3.173   0.878 -0.0809 -0.0271 -0.1509
    1WF      WF68011  15.744   7.450   1.297 -0.1182  0.2097 -0.0969
    1WF      WF68012  18.938  15.906   0.146  0.0296  0.1371 -0.1400
    1WF      WF68013  11.919  16.495   7.851  0.2796  0.0721 -0.3237
    1WF      WF68014  11.593  26.013   8.583  0.3535 -0.1503 -0.1176
    1WF      WF68015  28.246  10.912   0.592 -0.1333 -0.0313 -0.2537
    1WF      WF68016  18.487  20.859   1.324 -0.2058 -0.0504 -0.0802
    1WF      WF68017  28.746   5.265   0.125 -0.0092  0.0897 -0.2279
    1WF      WF68018  12.937  25.873   1.156 -0.3420  0.2964 -0.0322
    1WF      WF68019   4.592  11.057   9.465  0.1786 -0.2562 -0.1512
    1WF      WF68020   7.705  26.787   8.520  0.1554 -0.1109  0.1663
    1WF      WF68021  13.426  25.241   7.773  0.1081 -0.2202  0.4024
    1WF      WF68022   3.635  10.470   8.480 -0.0995 -0.1583  0.0807
    1WF      WF68023  23.074  23.158   6.984 -0.0339  0.2706 -0.1249
    1WF      WF68024  12.671  23.957   2.228 -0.0141  0.0244 -0.3585
    1WF      WF68025  25.575   5.086   0.254  0.2065 -0.0492 -0.1849
    1WF      WF68026  27.150  24.774   2.728  0.0663 -0.1338 -0.3379
    1WF      WF68027  26.838  28.013   6.793 -0.0492  0.2896  0.1337
    1WF      WF68028  27.505   3.374   2.291 -0.2690 -0.0518  0.2828
    1WF      WF68029  26.378   2.438   0.253  0.0538 -0.1255  0.0527
    1WF      WF68030  29.434   6.478   6.232 -0.1545 -0.0623 -0.0461
    1WF      WF68031   1.219  17.289   0.333 -0.1847 -0.2390  0.2284
    1WF      WF68032  12.775   2.279   9.121 -0.1612 -0.0397  0.2407
    1WF      WF68033   9.562  21.600   1.869  0.0171  0.0927  0.1218
    1WF      WF68034  17.467  14.063   8.982  0.3054  0.0495  0.2067
    1WF      WF68035   6.817  11.043   0.810 -0.0918 -0.0176  0.1479
    1WF      WF68036  27.023  24.135   8.683  0.1406  0.1560 -0.3156
    1WF      WF68037  12.277   6.813   1.804  0.1386 -0.1797  0.0539
    1WF      WF68038   0.725  14.215   8.906  0.0829  0.1640  0.1257
    1WF      WF68039  29.003  28.877   0.091  0.2026  0.2483 -0.1652
    1WF      WF68040  18.421  17.663   8.526 -0.2242 -0.0867 -0.0591
    1WF      WF68041  16.973  20.682   6.592  0.0647 -0.1582  0.0687
    1WF      WF68042  11.422  17.430   0.544  0.2392 -0.0607  0.0880
    1WF      WF68043  23.547  27.969   0.352 -0.1472  0.2458 -0.1038
    1WF      WF68044   7.106  22.599   2.001  0.1244  0.1745 -0.2483
    1WF      WF68045  21.766  18.561   0.874 -0.2276  0.2417 -0.2647
    1WF      WF68046   6.225  25.750   9.351 -0.1502  0.0340  0.0670
    1WF      WF68047   8.596   9.042   1.153  0.0414  0.3495 -0.1820
    1WF      WF68048   1.179  28.571   1.418 -0.1374 -0.0547  0.3206
    1WF      WF68049  23.114   2.228   8.802  0.1123 -0.0321  0.0745
    1WF      WF68050  28.928   9.818   2.481 -0.0599  0.0158 -0.0012
    1WF      WF68051  26.605  23.375   9.008 -0.0477 -0.0382  0.2189
    1WF      WF68052  26.912  21.887   0.368 -0.2416 -0.1545  0.0109
    1WF      WF68053   7.671  21.926   0.145 -0.0595  0.0029 -0.1365
    1WF      WF68054   3.789  14.845   9.036  0.0681 -0.0461  0.0340
    1WF      WF68055  10.989  26.706   1.686  0.0162 -0.0432  0.0963
    1WF      WF68056  20.289   9.185   9.390 -0.0288 -0.0320  0.2843
    1WF      WF68057  19.189   8.437   0.927 -0.0673  0.0407 -0.0662
    1WF      WF68058  24.389   1.320   1.764 -0.2950 -0.0925  0.0924
    1WF      WF68059  28.926  15.081   2.179  0.1579  0.0999  0.0931
    1WF      WF68060  13.118  23.578   8.400  0.0609 -0.1261 -0.1098
    1WF      WF68061  22.481   4.280   1.544  0.0416  0.0592  0.0380
    1WF      WF68062   1.073  11.065   0.533  0.0650 -0.1529  0.0795
    1WF      WF68063   1.086  12.164   0.501  0.1774  0.0371  0.0413
    1WF      WF68064  11.486   1.562   9.481 -0.1841  0.0593 -0.1132
    1WF      WF68065  22.616  20.581   9.510 -0.1030 -0.1369 -0.0131
    1WF      WF68066  22.266  27.443   7.225  0.1565  0.0080  0.1255
    1WF      WF68067   4.455   9.544   1.184  0.1943 -0.0725 -0.1226
    1WF      WF68068  21.852   8.492   1.781  0.1499  0.2109 -0.2495
    1WF      WF68069   2.627   7.287   1.892 -0.2517 -0.0367  0.0703
    1WF      WF68070  24.909  28.798   7.808 -0.0254 -0.0110  0.1313
    1WF      WF68071  21.282   6.386   8.451 -0.1248 -0.2411  0.0877
    1WF      WF68072   7.629  20.148   7.287  0.1204 -0.1635  0.0806
    1WF      WF68073   4.529   1.432   8.274 -0.0664  0.0886  0.0075
    1WF      WF68074  21.462  18.776   2.776  0.0248  0.0425  0.1184
    1WF      WF68075  25.978  22.503   0.285 -0.2294  0.0458  0.1585
    1WF      WF68076  14.097  14.508   7.963 -0.0593 -0.1063  0.0464
    1WF      WF68077  14.651  25.102   0.810  0.0754  0.0709  0.1032
    1WF      WF68078   6.348  19.439   8.640  0.0228 -0.0236 -0.0374
    1WF      WF68079  27.959  21.426   5.903  0.3341  0.2242 -0.1841
    1WF      WF68080   6.191  14.586   0.895  0.0628  0.3481  0.1547
    1WF      WF68081  21.362  18.747   0.641 -0.1428 -0.1499  0.0222
    1WF      WF68082   1.839   9.680   1.373 -0.0354 -0.0071 -0.0928
    1WF      WF68083   7.485  16.210   9.204 -0.0557 -0.0709  0.0467
    1WF      WF68084   8.895   4.954   0.854  0.4153  0.1831 -0.3862
    1WF      WF68085  11.574  22.413   0.719  0.1288  0.0663 -0.1482
    1WF      WF68086  18.099  25.085   7.203 -0.1294  0.0246  0.1080
    1WF      WF68087   6.444   6.328   1.853  0.0493  0.0982  0.0499
    1WF      WF68088  28.005  10.306   8.990 -0.3798  0.1317 -0.1439
    1WF      WF68089  19.702   8.658   9.274  0.0837  0.1947 -0.2558
    1WF      WF68090  14.789  15.104   9.082  0.2604 -0.1024 -0.2629
    1WF      WF68091  25.008   5.645   8.134 -0.0075  0.1564  0.0302
    1WF      WF68092  12.188  19.373   7.686 -0.1704  0.2853  0.2567
    1WF      WF68093   9.108  16.948   9.545  0.0557  0.0984  0.2044
    1WF      WF68094  19.747   8.676   8.013  0.0545  0.0641 -0.3442
    1WF      WF68095  10.851   2.857   1.296 -0.1294  0.0681 -0.1549
    1WF      WF68096  29.455  28.904   0.272 -0.2341 -0.0577 -0.0676
    1WF      WF68097   4.459   8.965   0.674 -0.0000  0.0698 -0.0490
    1WF      WF68098   5.400  13.220   0.279 -0.2404  0.0478  0.3810
    1WF      WF68099  20.213   1.987   9.421  0.2874  0.2944 -0.0956
    1WF      WF68100  28.778  24.778   7.806 -0.4376 -0.0009 -0.2451
    1WF      WF68101   3.573  28.661   8.718 -0.3386  0.0096 -0.4638
    1WF      WF68102   5.064  25.074   7.290  0.1516  0.1680 -0.0726
    1WF      WF68103  24.904  12.853   8.119  0.1713 -0.0115 -0.0766
    1WF      WF68104  21.793  27.289   9.216  0.0267 -0.1255  0.2754
    1WF      WF68105  15.216   9.957   0.139  0.0814 -0.0152 -0.2895
    1WF      WF68106  19.787   3.051   1.402 -0.0768  0.0144 -0.0458
    1WF      WF68107   8.577   6.772   1.334 -0.0805  0.0309 -0.0900
    1WF      WF68108  29.359   9.370   7.476  0.2708  0.2776 -0.0386
    1WF      WF68109  20.257   4.300   2.685 -0.1723 -0.3680  0.2203
    1WF      WF68110  12.375  27.456   1.732 -0.0310 -0.0463  0.5042
    1WF      WF68111  19.528  10.362   8.597 -0.0664  0.0317  0.1502
    1WF      WF68112  11.353  28.515   1.718  0.3924  0.2410 -0.2410
    1WF      WF68113  23.488  17.056   6.817 -0.1360 -0.2387  0.1875
    1WF      WF68114  26.184  28.929   0.909  0.1429  0.1507 -0.0217
    1WF      WF68115   8.138   8.455   3.517  0.1500  0.0580  0.1875
    1WF      WF68116  27.257   1.740   0.524 -0.0941  0.1170 -0.1263
    1WF      WF68117   8.618  18.059   0.266  0.0339 -0.0899 -0.1556
    1WF      WF68118  15.197  13.081   2.253 -0.0913 -0.0096 -0.2869
    1WF      WF68119  14.729  25.619   0.828 -0.0035  0.1398 -0.0718
    1WF      WF68120  12.581  11.576   3.324 -0.1529  0.0174 -0.0832
    1WF      WF68121   7.143   0.321   9.272 -0.1356 -0.0493  0.1081
    1WF      WF68122  14.316   4.862   9.531  0.0854  0.2159 -0.2021
    1WF      WF68123  14.272   5.961   0.992  0.2886 -0.1507 -0.0810
    1WF      WF68124  28.988  23.897   9.241 -0.1364 -0.1666  0.0987
    1WF      WF68125  12.146  20.447   8.928 -0.0752  0.5418 -0.1102
    1WF      WF68126  21.607  20.544   8.002 -0.2283 -0.1114  0.0988
    1WF      WF68127  12.962  22.056   9.489 -0.0213 -0.1360 -0.0273
    1WF      WF68128  21.418   5.630   7.305  0.2248 -0.0110  0.0083
    1WF      WF68129   0.763  23.270   8.072  0.2592  0.0315  0.0238
    1WF      WF68130   5.959  23.826   1.271 -0.2049  0.2922 -0.3655
    1WF      WF68131  23.951  17.343   7.100 -0.1228  0.1045 -0.2618
    1WF      WF68132   8.423  23.147   2.807 -0.0688 -0.0632 -0.4463
    1WF      WF68133   2.440   0.592   0.724 -0.1683  0.1459 -0.2101
    1WF      WF68134   1.662   0.319   8.731  0.2556 -0.2508  0.2759
    1WF      WF68135  20.493  22.457   3.157  0.1316  0.0022  0.0096
    1WF      WF68136  16.418   6.904   2.435  0.2306  0.2848 -0.1832
    1WF      WF68137  28.691  11.225   0.555 -0.0198  0.0369 -0.1423
    1WF      WF68138  20.870  16.328   0.117  0.2378 -0.1583  0.0983
    1WF      WF68139  25.605   2.530   2.222 -0.3784  0.2040 -0.0988
    1WF      WF68140  23.302   6.616   7.986 -0.4130 -0.0576  0.0658
    1WF      WF68141   5.509  21.016   7.799 -0.4378  0.1288  0.1424
    1WF      WF68142  27.493  14.979   1.461 -0.1439  0.1831  0.3410
    1WF      WF68143   2.309  10.585   8.584 -0.0049 -0.1742  0.1178
    1WF      WF68144  24.233  19.297   1.579 -0.2093 -0.3473  0.0925
    1WF      WF68145  27.403  26.792   8.747 -0.1025  0.1993  0.1351
    1WF      WF68146  16.203  16.816   0.368  0.0278 -0.0039  0.1874
    1WF      WF68147   9.646  23.764   1.924  0.0575 -0.1134  0.2188
    1WF      WF68148  27.273  11.025   8.817 -0.0533 -0.1974 -0.2286
    1WF      WF68149   6.141   7.180   0.292  0.0903 -0.1803  0.0580
    1WF      WF68150   3.464  12.771   9.057 -0.2633  0.1849 -0.0280
    1WF      WF68151   3.927  28.705   8.187 -0.0422  0.0095 -0.2152
    1WF      WF68152   6.800  10.540   1.597 -0.4733 -0.2189 -0.0334
    1WF      WF68153  12.278  24.351   8.140  0.1133 -0.0173 -0.0156
    1WF      WF68154   6.588  14.246   8.678  0.1092 -0.1850 -0.1175
    1WF      WF68155  21.436  18.986   6.999  0.1789  0.2005  0.2679
    1WF      WF68156   2.769  27.624   2.069  0.1057 -0.2766 -0.1672
    1WF      WF68157   3.267   2.080   2.007  0.0253 -0.0506  0.2683
    1WF      WF68158  16.095   6.123   3.744  0.4030  0.1849  0.5000
    1WF      WF68159  11.718  19.119   6.353  0.0120  0.3336  0.1223
    1WF      WF68160  26.772  21.593   8.609 -0.1104  0.3333  0.2504
    1WF      WF68161  10.250   0.056   2.210 -0.0512 -0.3089  0.1373
    1WF      WF68162  27.109  27.296   0.288  0.0777  0.2431 -0.2035
    1WF      WF68163  15.518  19.644   1.109 -0.0864 -0.1706 -0.1587
    1WF      WF68164   7.289  23.027   1.660 -0.0458  0.0002 -0.0740
    1WF      WF68165   3.670  17.449   9.119 -0.2112 -0.0704 -0.0863
    1WF      WF68166  21.790  20.546   0.779  0.3048  0.0584 -0.4818
    1WF      WF68167  22.098  29.399   2.081 -0.3663  0.1114 -0.1520
    1WF      WF68168  10.567  23.575   2.833 -0.1248 -0.1900  0.1181
    1WF      WF68169   0.098  14.704   2.037 -0.0136  0.0158  0.0683
    1WF      WF68170  23.559  22.233   6.772 -0.3120 -0.0859  0.0100
    1WF      WF68171   0.140   2.511   0.805  0.3050  0.0884  0.0105
    1WF      WF68172  26.132  18.138   5.587  0.1346  0.1245  0.1449
    1WF      WF68173  25.619  11.965   6.889 -0.2377 -0.1370 -0.1291
    1WF      WF68174  11.939  22.194   9.185 -0.1574 -0.0678  0.0611
    1WF      WF68175  19.447   2.234   2.887  0.0847 -0.1016 -0.0469
    1WF      WF68176  14.091  15.116   7.187 -0.2306 -0.4310 -0.0835
    1WF      WF68177  15.902   3.934   9.090 -0.1032 -0.2795 -0.3776
    1WF      WF68178   5.638  27.509   2.942 -0.1328  0.1689  0.0501
    1WF      WF68179  24.870  11.435   9.389 -0.0707 -0.1195  0.0837
    1WF      WF68180  15.787  20.926   0.799 -0.0578  0.0974  0.3769
    1WF      WF68181  28.805  11.697   0.340 -0.0165 -0.1199  0.0107
    1WF      WF68182  10.953  28.732   1.131 -0.1757  0.0640 -0.1057
    1WF      WF68183  19.989  13.760   2.531  0.0247  0.2854  0.1690
    1WF      WF68184  23.049  24.499   1.322 -0.1248 -0.0992  0.0348
    1WF      WF68185  15.684  18.743   8.753 -0.2417  0.2324  0.1883
    1WF      WF68186  19.774  22.727   6.278  0.1287  0.5106 -0.1405
    1WF      WF68187  25.391  19.856   0.026 -0.0323 -0.3924  0.0466
    1WF      WF68188  28.746   0.383   8.530 -0.1345  0.0017  0.0410
    1WF      WF68189  22.340  19.864   8.497 -0.0350  0.0269  0.0855
    1WF      WF68190   6.689  11.532   7.582 -0.1732  0.0832 -0.1712
    1WF      WF68191  13.419  22.939   9.047  0.2114 -0.0904 -0.0814
    1WF      WF68192   3.257   5.377   8.521 -0.1233 -0.1824  0.1774
    1WF      WF68193   9.956  22.764   8.430 -0.1368  0.0629  0.1775
    1WF      WF68194  11.881  15.711   8.850 -0.0996 -0.1268  0.1339
    1WF      WF68195  20.578  27.735   1.971  0.2352 -0.1622  0.0893
    1WF      WF68196  28.003   6.973   8.282  0.2906 -0.2040  0.0596
    1WF      WF68197  15.677  28.436   8.109 -0.0390 -0.3638 -0.0213
    1WF      WF68198  18.758  24.437   3.026 -0.0585 -0.0513  0.0931
    1WF      WF68199   6.540   4.109   2.607 -0.0811  0.0107 -0.1707
    1WF      WF68200  17.414   0.754   2.113 -0.0319  0.1985 -0.0270
    1WF      WF68201  12.733   3.265   8.636  0.1175 -0.0019  0.0927
    1WF      WF68202   2.898   0.285   8.945  0.3394  0.0863 -0.0560
    1WF      WF68203   3.036  10.029   9.027 -0.0730  0.0654  0.2288
    1WF      WF68204   5.716  27.909   9.443 -0.3483  0.3148 -0.2746
    1WF      WF68205  11.092  16.168   0.671 -0.0856  0.0076 -0.3379
    1WF      WF68206   8.947  22.896   8.364 -0.0917  0.0907 -0.0586
    1WF      WF68207  25.617  18.094   9.412 -0.1711  0.2927  0.0117
    1WF      WF68208   4.126   5.734   7.362 -0.1075  0.0560  0.2486
    1WF      WF68209  20.280  25.243   9.231 -0.0907  0.0978 -0.1849
    1WF      WF68210  20.262  22.593   7.691  0.4140  0.1359 -0.0140
    1WF      WF68211  22.135   4.001   1.907  0.1928  0.1447  0.0902
    1WF      WF68212  19.236   5.667   8.150  0.0943  0.1231  0.1438
    1WF      WF68213  25.409  12.898   8.081  0.2123 -0.0724  0.0029
    1WF      WF68214  17.311   8.362   9.410  0.0836 -0.2567 -0.3436
    1WF      WF68215  20.756  15.022   7.381 -0.2182 -0.1046 -0.1778
    1WF      WF68216  27.973  11.829   0.181  0.0510  0.1397 -0.1468
    1WF      WF68217  21.919  26.258   0.112  0.1906  0.0782  0.2786
    1WF      WF68218  19.938  28.004   0.430 -0.0877 -0.0892 -0.1563
    1WF      WF68219  13.342   4.215   8.890  0.1040 -0.5214  0.1363
    1WF      WF68220  11.279  27.527   9.328 -0.0702  0.0265  0.3405
    1WF      WF68221  10.772   3.259   2.031  0.0189 -0.0441  0.1629
    1WF      WF68222  10.153  15.548   8.883  0.1195  0.2008  0.2156
    1WF      WF68223   0.211   5.170   0.008 -0.2685  0.0559  0.1460
    1WF      WF68224  21.963  24.773   1.979 -0.0467  0.1065  0.1263
    1WF      WF68225  19.235   8.816   8.148 -0.0296  0.0664 -0.1437
    1WF      WF68226  19.664  21.699   7.374  0.1584 -0.0788  0.0388
    1WF      WF68227  20.509   8.593   0.415  0.1658 -0.2505  0.0753
    1WF      WF68228   8.503  10.716   8.080 -0.1194 -0.1702 -0.0727
    1WF      WF68229   1.206   3.839   2.061  0.0733 -0.0069 -0.1718
    1WF      WF68230  27.869  25.510   9.087  0.4238  0.0379  0.0941
    1WF      WF68231  13.445  26.003   0.011  0.1332  0.2259  0.5037
    1WF      WF68232   6.288   3.870   1.754 -0.0238  0.0794 -0.0910
    1WF      WF68233  24.986  24.106   0.268  0.0258 -0.2493 -0.0459
    1WF      WF68234  14.003  24.932   8.701 -0.0218  0.0115 -0.0373
    1WF      WF68235  19.672  15.846   8.847 -0.1632 -0.2289 -0.1169
    1WF      WF68236  23.356  27.784   3.456 -0.2199  0.4302 -0.0543
    1WF      WF68237  25.037   4.040   0.010 -0.1836  0.1903 -0.0838
    1WF      WF68238  18.725   0.793   8.914  0.0860  0.2516 -0.0126
    1WF      WF68239  17.824  24.057   0.211 -0.1108  0.0356  0.0935
    1WF      WF68240  21.023  20.821   1.223  0.3247  0.2276 -0.4330
    1WF      WF68241  19.951   6.986   1.625  0.2360  0.0522 -0.0600
    1WF      WF68242   5.570   5.222   0.752 -0.0390 -0.0203 -0.0328
    1WF      WF68243  19.198  10.046   8.180  0.1328  0.1311 -0.2585
    1WF      WF68244  26.263  29.224   8.103  0.1583 -0.1517  0.3676
    1WF      WF68245  14.385  26.467   8.933 -0.0752 -0.0122 -0.0184
    1WF      WF68246  14.400  19.663   8.229  0.4400 -0.1480  0.0103
    1WF      WF68247  22.823  26.186   1.765  0.1266  0.1668 -0.1079
    1WF      WF68248   6.742  10.865   1.282 -0.0258 -0.4832  0.1283
    1WF      WF68249  24.515  12.424   0.687 -0.0239  0.2429 -0.0788
    1WF      WF68250  21.194  24.453   0.636 -0.1431  0.3077 -0.2947
    1WF      WF68251  19.278  19.488   9.527 -0.2668  0.0600  0.2162
    1WF      WF68252  21.089   3.458   8.812 -0.0421  0.1098  0.3199
    1WF      WF68253  29.188  19.775   8.368 -0.0776  0.6038 -0.1309
    1WF      WF68254  28.295  10.673   8.097  0.0646 -0.0101 -0.1722
    1WF      WF68255  10.784   4.164   8.401 -0.0614  0.0386  0.1317
    1WF      WF68256  12.058   8.079   8.544 -0.0044  0.4114  0.2554
    1WF      WF68257  16.819   4.020   8.517  0.2681 -0.1265 -0.1610
    1WF      WF68258  26.096  14.724   7.485  0.1369 -0.1403 -0.0834
    1WF      WF68259  24.868   2.235   0.462 -0.0567 -0.1806 -0.1421
    1WF      WF68260  28.319   4.350   8.776  0.3158  0.0221  0.1356
    1WF      WF68261  29.077  26.408   2.830 -0.0248 -0.0942  0.0024
    1WF      WF68262  12.518   8.312   8.613  0.1566 -0.1319 -0.1423
    1WF      WF68263   8.663   4.305   8.718 -0.1152  0.2858  0.3658
    1WF      WF68264  21.069   1.438   1.701 -0.2257  0.0442 -0.0848
    1WF      WF68265  13.223  10.857   0.898 -0.2975  0.3414 -0.1258
    1WF      WF68266   5.039  28.543   7.278  0.1720 -0.0362 -0.0663
    1WF      WF68267  22.940   7.527   8.567 -0.6483  0.0448  0.4769
    1WF      WF68268  10.744   4.871   6.777  0.4410 -0.0737  0.1479
    1WF      WF68269  27.225  15.666   7.518 -0.1368 -0.0775 -0.1795
    1WF      WF68270  12.391  21.473   2.699 -0.0110  0.0906 -0.2199
    1WF      WF68271  25.652  13.587   0.573  0.2341  0.2505  0.1077
    1WF      WF68272  26.904  22.211   0.737  0.2311  0.0784 -0.0237
    1WF      WF68273  20.232  26.228   1.286  0.1701  0.0906  0.3290
    1WF      WF68274   4.320   9.646   8.175 -0.2842  0.3171  0.2620
    1WF      WF68275   1.798  25.728   9.211  0.0578 -0.0537  0.3529
    1WF      WF68276  25.283  11.989   0.850  0.1265  0.1179  0.0245
    1WF      WF68277  20.562  18.426   8.371  0.3573  0.1463  0.0752
    1WF      WF68278   6.807   4.933   1.363 -0.0232 -0.0179  0.0012
    1WF      WF68279   7.116  22.431   8.846 -0.0168  0.3170 -0.1885
    1WF      WF68280  14.569   5.003   1.735 -0.0581  0.1203  0.2063
    1WF      WF68281  27.871  27.314   7.350 -0.0810  0.4939 -0.1453
    1WF      WF68282  26.315  16.776   0.139 -0.0177 -0.3891  0.0589
    1WF      WF68283  26.620   0.682   8.663 -0.1565  0.0669 -0.0239
    1WF      WF68284  21.597   6.876   0.229  0.1007 -0.0437 -0.1091
    1WF      WF68285  22.477   2.445   8.493 -0.1053  0.3353  0.2618
    1WF      WF68286   5.654  16.257   2.634 -0.1614  0.0522  0.0252
    1WF      WF68287  10.335  29.647   1.719  0.2791 -0.0572  0.1382
    1WF      WF68288  28.062   3.674   6.026  0.0011 -0.0944 -0.3075
    1WF      WF68289   4.363   1.159   3.085 -0.2247  0.2300 -0.3087
    1WF      WF68290  13.441   7.530   1.175 -0.0685 -0.0549  0.0052
    1WF      WF68291  23.246  27.830   2.980 -0.0862  0.0354  0.0657
    1WF      WF68292  16.910  28.278   7.875 -0.3258  0.1209  0.0837
    1WF      WF68293  27.300   1.810   9.069  0.0607 -0.2077  0.0783
    1WF      WF68294  12.170  29.238   2.077 -0.1274  0.0361 -0.2049
    1WF      WF68295   3.192  11.583   8.610  0.3271  0.1003 -0.3105
    1WF      WF68296  29.728  21.614   8.346  0.1624  0.0225  0.0926
    1WF      WF68297  28.356   0.982   0.414 -0.1389  0.1077 -0.1441
    1WF      WF68298   6.098  16.136   2.266  0.3545  0.1927  0.0726
    1WF      WF68299  19.906  20.929   0.530 -0.0168  0.1152 -0.0852
    1WF      WF68300  16.265  20.739   8.695 -0.2428 -0.3992 -0.0913
    1WF      WF68301  23.986  11.772   6.085  0.0849 -0.0508  0.2406
    1WF      WF68302  19.563   7.128   7.488 -0.0547 -0.1580 -0.0177
    1WF      WF68303   2.943  16.128   1.993  0.2015  0.2903 -0.2048
    1WF      WF68304  22.707   8.837   7.707 -0.2334 -0.1386 -0.0402
    1WF      WF68305  13.805  25.003   6.895  0.3364  0.0278 -0.0681
    1WF      WF68306  19.175  26.069   7.802 -0.1356 -0.3526  0.0951
    1WF      WF68307  16.277  20.450   9.168 -0.1460 -0.1251  0.3194
    1WF      WF68308  24.735  21.085   1.246 -0.0150 -0.1378 -0.0452
    1WF      WF68309   4.000  15.299   9.171 -0.2062  0.0215  0.0353
    1WF      WF68310  16.862  25.931   1.367 -0.1928 -0.1040 -0.0576
    1WF      WF68311  19.085   4.216   3.632 -0.1448 -0.0130 -0.0454
    1WF      WF68312  25.816  25.678   8.973 -0.2043 -0.2157 -0.1423
    1WF      WF68313  13.750  29.459   9.290  0.0041  0.4479  0.1959
    1WF      WF68314  20.719   4.485   2.542  0.0205  0.0547  0.3695
    1WF      WF68315   1.528  13.285   8.755 -0.0897  0.2027 -0.1118
    1WF      WF68316  27.829  10.565   7.987  0.1777  0.1034 -0.2807
    1WF      WF68317  27.053  26.671   9.125  0.0967 -0.1508 -0.1228
    1WF      WF68318  22.177  25.951   9.030 -0.0035 -0.0718  0.0270
    1WF      WF68319  15.351   6.868   1.360  0.0220 -0.1120 -0.1519
    1WF      WF68320  19.533   4.077   8.594  0.1559 -0.2605  0.2730
    1WF      WF68321  19.043  13.170   7.588  0.1968 -0.2431 -0.0693
    1WF      WF68322   5.311  26.260   8.036 -0.0336 -0.2085  0.0855
    1WF      WF68323  18.420   9.712   0.178 -0.0878 -0.0223 -0.2371
    1WF      WF68324   0.024  12.386   1.483 -0.0208  0.1509 -0.1657
    1WF      WF68325   5.419  26.585   9.016  0.2941  0.0306  0.4156
    1WF      WF68326  19.193   5.808   8.620  0.1690 -0.2704  0.1927
    1WF      WF68327  18.012   6.262   9.532 -0.2195  0.2074 -0.1523
    1WF      WF68328  28.794  17.760   0.192 -0.0862 -0.1226 -0.0299
    1WF      WF68329   8.999  20.335   0.842  0.0917  0.3307  0.1751
    1WF      WF68330  27.371  15.038   5.559  0.0173  0.1657 -0.0435
    1WF      WF68331  15.270  28.518   7.810  0.1046 -0.0744  0.0937
    1WF      WF68332  15.804   3.592   8.767 -0.0857  0.2651 -0.1751
    1WF      WF68333   2.278  11.326   8.432  0.2008  0.1515  0.1987
    1WF      WF68334  22.951   3.847   1.856  0.2033  0.2315  0.1086
    1WF      WF68335   0.952   6.153   8.809 -0.0502  0.0131  0.0970
    1WF      WF68336  16.361   8.243   9.113  0.1534 -0.0792  0.2521
    1WF      WF68337  16.930  15.890   0.980  0.0283 -0.0586 -0.0555
    1WF      WF68338  16.155   7.841   1.209  0.0748 -0.1054  0.0653
    1WF      WF68339  26.774   3.979   1.323  0.0875 -0.1486 -0.4285
    1WF      WF68340  26.340  29.190   0.527 -0.1316  0.0707  0.0235
    1WF      WF68341   7.423  25.240   8.437  0.0952  0.2662 -0.6236
    1WF      WF68342  14.877  14.909   6.884  0.0935 -0.2339 -0.2057
    1WF      WF68343   1.943  28.368   0.851  0.1340  0.6475  0.0661
    1WF      WF68344  16.374  12.604   2.909 -0.0317 -0.0263 -0.3071
    1WF      WF68345  24.593  12.562   0.204 -0.0133  0.2035  0.1376
    1WF      WF68346  25.305  19.795   9.076  0.0760  0.2555  0.0681
    1WF      WF68347  24.029  22.381   7.152  0.0670 -0.0286  0.2998
    1WF      WF68348  29.390   8.455   1.538  0.1068 -0.0682  0.0268
    1WF      WF68349   2.734   3.154   3.182  0.2185 -0.0865  0.2975
    1WF      WF68350  24.309  29.198   1.863  0.2565 -0.1323  0.1630
    1WF      WF68351  24.063  22.783   1.240  0.0232  0.2022  0.2436
    1WF      WF68352  20.391  14.824   7.685  0.2028 -0.1584 -0.2213
    1WF      WF68353   1.336   6.596   2.446  0.1270  0.2589 -0.1152
    1WF      WF68354  21.552  23.891   0.541  0.1117  0.4691  0.2907
    1WF      WF68355  16.020  25.152   8.815  0.0927 -0.3595 -0.6108
    1WF      WF68356   5.008  23.103   8.598  0.0278  0.1258  0.2084
    1WF      WF68357  21.709  15.361   0.943 -0.1162  0.0064  0.1902
    1WF      WF68358  18.860  21.972   6.842  0.1979  0.2379  0.1734
    1WF      WF68359  25.401  25.414   9.097  0.1567  0.2693  0.0482
    1WF      WF68360   2.466   4.643   2.280 -0.1877  0.1557  0.1354
    1WF      WF68361  21.479  20.948   0.902  0.1506 -0.0640 -0.2564
    1WF      WF68362   6.802  23.513   0.334 -0.2367  0.0210  0.0327
    1WF      WF68363  22.228  18.910   1.411  0.3137 -0.2512 -0.1388
    1WF      WF68364   6.112   8.052   8.172  0.0651  0.0912  0.1677
    1WF      WF68365  13.833   3.733   8.257 -0.0277  0.2746 -0.3201
    1WF      WF68366   9.181  10.975   9.485  0.2328 -0.1801  0.0176
    1WF      WF68367   2.955   9.983   6.516 -0.0803 -0.3989 -0.1426
    1WF      WF68368   5.314  20.789   8.250  0.3172 -0.0892  0.2166
    1WF      WF68369  14.748  15.708   0.021  0.2689  0.0983  0.1598
    1WF      WF68370  16.664   3.312   7.924 -0.1265  0.0964  0.0999
    1WF      WF68371   3.207  15.498   7.405 -0.0817 -0.1349  0.1447
    1WF      WF68372   9.039  16.080   7.698 -0.1308  0.1288  0.0545
    1WF      WF68373  27.975  21.150   7.524  0.1142 -0.0665 -0.2686
    1WF      WF68374  25.741  29.609   2.612 -0.1217  0.1233  0.1644
    1WF      WF68375  20.141  14.873   7.278 -0.3609  0.1057  0.1393
    1WF      WF68376   1.449  16.253   8.729 -0.2443  0.3531  0.0618
    1WF      WF68377  29.418  12.010   7.238  0.0283  0.2245 -0.2214
    1WF      WF68378  25.393   3.125   0.418 -0.0367 -0.3066  0.2371
    1WF      WF68379  24.808  10.281   1.050 -0.0350 -0.3265  0.0896
    1WF      WF68380   1.696   3.308   8.929 -0.0697  0.0055  0.1057
    1WF      WF68381  10.400   9.417   2.330 -0.1507 -0.1691  0.0444
    1WF      WF68382  20.420  26.543   8.308 -0.3257 -0.1125 -0.0237
    1WF      WF68383  16.617  10.734   7.678 -0.0658  0.0860  0.1019
    1WF      WF68384  28.349   1.336   0.088  0.1528  0.1018  0.1386
    1WF      WF68385  22.503  22.364   8.025  0.1489 -0.0924 -0.0772
    1WF      WF68386  28.492  28.256   8.658 -0.1333  0.4790 -0.0057
    1WF      WF68387  20.556  14.902   6.970  0.1898  0.3259 -0.1127
    1WF      WF68388  21.831   8.517   7.357 -0.0894  0.1432  0.0305
    1WF      WF68389  19.471  11.502   8.116  0.0277 -0.0502  0.1738
    1WF      WF68390  10.101  29.033   9.078  0.1499 -0.3567 -0.2047
    1WF      WF68391   1.973  20.550   0.385  0.3305  0.0782 -0.2639
    1WF      WF68392  25.162   2.541   0.140 -0.1226 -0.0088 -0.2296
    1WF      WF68393  26.094  29.364   1.079 -0.2195  0.0052  0.1184
    1WF      WF68394   2.357   2.873   1.217  0.1919 -0.0664 -0.2358
    1WF      WF68395   8.946  14.922   0.673  0.1648 -0.1295 -0.0755
    1WF      WF68396   5.305  11.059   0.374  0.0718  0.2929 -0.0573
    1WF      WF68397  23.694  21.146   1.249  0.2758  0.2011  0.1704
    1WF      WF68398  26.525  20.416   0.166 -0.0952  0.0783  0.0108
    1WF      WF68399   4.744  29.162   6.105 -0.0942  0.5362  0.0421
    1WF      WF68400   4.515  27.695   0.280 -0.0754 -0.0632  0.1204
    1WF      WF68401  20.622  11.205   2.568  0.1427  0.0925  0.0704
    1WF      WF68402  19.749  11.104   1.023  0.2535 -0.2037  0.3283
    1WF      WF68403  22.877  11.116   8.577 -0.3505  0.0920  0.2137
    1WF      WF68404  23.043   4.708   0.055 -0.1710  0.0712  0.0569
    1WF      WF68405  16.885  24.094   1.143 -0.1588  0.0511  0.1259
    1WF      WF68406   5.719  28.368   1.249 -0.1204 -0.0310  0.1740
    1WF      WF68407  16.369  29.459   0.797 -0.1983  0.1351 -0.0642
    1WF      WF68408  12.276  21.553   8.187 -0.0699 -0.0965  0.0205
    1WF      WF68409  27.966  14.679   7.541  0.0817 -0.1178  0.0093
    1WF      WF68410  28.847  29.082   0.564  0.0203  0.0743 -0.1996
    1WF      WF68411  20.185  26.020   6.540  0.2008 -0.0298  0.2602
    1WF      WF68412  17.460  12.458   0.256 -0.4398  0.0318 -0.0983
    1WF      WF68413   2.475  27.471   1.634 -0.1726 -0.1334  0.0332
    1WF      WF68414  11.032  26.926   2.175 -0.0252  0.1979  0.2360
    1WF      WF68415  19.277   6.441   1.780  0.1981  0.1013 -0.1707
    1WF      WF68416   9.819   0.304   2.319  0.0194 -0.1271  0.2752
    1WF      WF68417  23.472  15.985   8.011 -0.4073  0.1235 -0.0881
    1WF      WF68418   6.693  14.721   0.744 -0.3583 -0.4501  0.1519
    1WF      WF68419   7.020  10.234   8.712  0.1946 -0.0806  0.1744
    1WF      WF68420  20.882  22.365   5.952  0.3051 -0.2742 -0.1005
    1WF      WF68421   6.552  28.457   6.248 -0.2780  0.1227  0.2521
    1WF      WF68422  18.973   2.322   9.529  0.1709 -0.0016 -0.0928
    1WF      WF68423   4.561  10.385   6.754 -0.3545  0.0627  0.0885
    1WF      WF68424  23.987   5.746   1.100 -0.1502  0.2614  0.2768
    1WF      WF68425   2.660  22.689   0.931  0.3502 -0.2382 -0.0939
    1WF      WF68426  24.325   8.116   1.763  0.0185  0.1632  0.0513
    1WF      WF68427  22.374  17.322   7.954 -0.0377  0.0716  0.4011
    1WF      WF68428   6.099  15.000   2.455 -0.2481  0.1371 -0.1842
    1WF      WF68429  17.819  24.374   0.696 -0.0807  0.0584 -0.1218
    1WF      WF68430  19.850  10.824   0.633  0.1403 -0.4426  0.0001
    1WF      WF68431  15.126   2.750   7.521 -0.1796  0.1421 -0.1289
    1WF      WF68432   1.498  24.525   8.746  0.1127 -0.0104  0.1643
    1WF      WF68433   8.202  28.127   2.551  0.0829 -0.0790 -0.0105
    1WF      WF68434  28.830  13.905   1.897 -0.0258 -0.2805 -0.2042
    1WF      WF68435  17.569   2.721   9.436  0.1791  0.3895 -0.3295
    1WF      WF68436  15.625  12.975   0.135  0.0142 -0.1774  0.2754
    1WF      WF68437  23.493   2.801   2.097 -0.2795  0.0298  0.0144
    1WF      WF68438  16.635   1.272   0.399 -0.0904  0.0115 -0.0377
    1WF      WF68439  27.308   9.608   9.526 -0.0217 -0.0966  0.1117
    1WF      WF68440  13.736  20.189   8.683  0.1760  0.2476  0.1218
    1WF      WF68441  21.131  11.224   0.594  0.1061  0.5607  0.1863
    1WF      WF68442  12.241   0.999   3.709  0.1226  0.0551  0.1020
    1WF      WF68443   9.291  16.007   8.209  0.2357  0.0532  0.1856
    1WF      WF68444  20.006  19.530   8.428  0.1892  0.0373 -0.0376
    1WF      WF68445  24.980   7.369   8.933  0.1329  0.3630 -0.0551
    1WF      WF68446  17.150  26.046   9.260 -0.0879  0.0387 -0.0681
    1WF      WF68447  26.529  29.514   8.405  0.0267  0.0373 -0.0851
    1WF      WF68448  23.103  14.203   9.508 -0.0298  0.0815 -0.0874
    1WF      WF68449  13.181   8.871   7.110  0.0789 -0.3436  0.2649
    1WF      WF68450  26.741  26.408   8.775  0.1519 -0.1012 -0.2728
    1WF      WF68451  10.917  16.427   0.292 -0.0381 -0.0077  0.0243
    1WF      WF68452  19.984   9.909   0.441 -0.1147  0.3162 -0.1842
    1WF      WF68453  29.716   3.193   0.267 -0.3369 -0.1056  0.1753
    1WF      WF68454   4.419  19.666   0.978  0.0232 -0.0346  0.1574
    1WF      WF68455   1.717  22.657   8.287 -0.2070  0.1767  0.0576
    1WF      WF68456  29.339  23.476   9.387 -0.0454 -0.1070 -0.1677
    1WF      WF68457  16.744   3.426   1.009 -0.0419 -0.2037 -0.0635
    1WF      WF68458  13.027  26.907   0.126  0.0348 -0.3505 -0.1518
    1WF      WF68459   0.161  24.553   7.647  0.0244  0.3130  0.0622
    1WF      WF68460   4.836  22.827   1.829  0.1823 -0.0074  0.1185
    1WF      WF68461  18.685   3.770   8.183  0.2543 -0.0221 -0.0547
    1WF      WF68462  12.879  10.505   0.764  0.1020  0.2069  0.1669
    1WF      WF68463  16.474  18.734   3.076 -0.1116 -0.4972 -0.1805
    1WF      WF68464  28.813   6.132   2.051  0.1851  0.0081  0.2027
    1WF      WF68465  11.163  10.393   8.819 -0.1433  0.0389  0.0175
    1WF      WF68466   6.961  10.574   0.916  0.1864  0.1418 -0.2383
    1WF      WF68467   0.353  20.632   0.470 -0.0672 -0.1656 -0.1617
    1WF      WF68468  16.646  12.261   9.375 -0.2361 -0.1200 -0.1392
    1WF      WF68469  18.720   4.572   1.567  0.3364 -0.2069 -0.2252
    1WF      WF68470   8.799  18.848   9.508  0.2041 -0.1133  0.0481
    1WF      WF68471  10.295  27.340   8.613  0.0150  0.2143  0.4474
    1WF      WF68472  10.683  20.818   8.678  0.2816 -0.1795  0.7411
    1WF      WF68473  18.435  24.214   7.708  0.0786 -0.0115 -0.2244
    1WF      WF68474  17.915   2.127   8.487 -0.1542  0.2365 -0.0278
    1WF      WF68475   1.010  10.637   0.820  0.1721 -0.0263 -0.0017
    1WF      WF68476   2.074   2.547   1.549 -0.1984  0.0716  0.0671
    1WF      WF68477   3.449   1.566   8.411  0.1670 -0.3162 -0.0755
    1WF      WF68478   3.356  17.730   7.755 -0.1176  0.1413  0.0714
    1WF      WF68479  22.787  13.838   0.096 -0.1837 -0.1463  0.0072
    1WF      WF68480   7.601   0.047   6.402 -0.0448 -0.2748 -0.0308
    1WF      WF68481   1.915  10.732   0.623 -0.1396 -0.3568  0.2500
    1WF      WF68482   0.955   8.592   0.886  0.4261  0.0583 -0.1005
    1WF      WF68483   8.105   1.332   8.924  0.0516  0.1352  0.0215
    1WF      WF68484  23.623  28.444   0.088  0.0311  0.0079  0.1959
    1WF      WF68485  12.007  18.765   6.142  0.2468 -0.1492 -0.2037
    1WF      WF68486   4.462   5.045   0.289 -0.0293 -0.1268  0.2717
    1WF      WF68487  19.867  17.661   9.540  0.1247  0.0419  0.1962
    1WF      WF68488   1.044  28.080   1.397 -0.0638  0.1659  0.1142
    1WF      WF68489  26.459  12.976   0.353 -0.0704  0.1565  0.0453
    1WF      WF68490  25.604  24.720   0.014  0.1791  0.1640 -0.3296
    1WF      WF68491  28.952   9.874   6.191  0.4273 -0.2385  0.2187
    1WF      WF68492  13.268   7.264   0.221  0.1256  0.1460 -0.0774
    1WF      WF68493  22.524   1.021   2.758 -0.1470 -0.2805 -0.0341
    1WF      WF68494  18.669  15.722   0.533  0.1837  0.0173 -0.0986
    1WF      WF68495  19.334   7.508   6.853  0.1135 -0.1111 -0.1459
    1WF      WF68496   7.299  18.061   6.892  0.2919  0.1344  0.0500
    1WF      WF68497   2.839   5.797   0.102  0.5298 -0.1176 -0.3263
    1WF      WF68498  12.171  22.052   8.089 -0.0153  0.5319  0.0722
    1WF      WF68499  25.403   5.593   1.273 -0.1911 -0.1023  0.1712
    1WF      WF68500  11.398   2.090   9.359  0.0999  0.0753  0.3276
    1WF      WF68501  16.376  10.693   8.354 -0.0900 -0.0919  0.1414
    1WF      WF68502   1.772  14.346   0.956 -0.0926 -0.0345 -0.2883
    1WF      WF68503  11.762  22.014   6.795 -0.0341  0.1951 -0.2485
    1WF      WF68504  17.861  20.696   7.369 -0.1350  0.0917  0.0008
    1WF      WF68505  17.251   6.374   7.939  0.0894  0.0748  0.1688
    1WF      WF68506  11.906   5.633   2.358 -0.1200 -0.5835 -0.0504
    1WF      WF68507  22.618  20.153   9.272 -0.0947  0.1114 -0.2295
    1WF      WF68508  25.918   9.934   0.951 -0.4679  0.0630 -0.1202
    1WF      WF68509  18.692  11.899   7.888  0.0337  0.2866  0.0239
    1WF      WF68510  15.974  22.950   0.154  0.0149  0.3156  0.2982
    1WF      WF68511   5.303   3.078   0.404 -0.1275 -0.1637  0.0542
    1WF      WF68512  12.733  25.399   1.042  0.1911 -0.0290 -0.0136
    1WF      WF68513   8.052  27.673   2.495 -0.2623  0.1516  0.0624
    1WF      WF68514  28.842  28.254   8.240  0.0350 -0.0658  0.2228
    1WF      WF68515   9.520  16.716   9.278  0.2185  0.3696 -0.2044
    1WF      WF68516  14.022  12.471   1.294  0.1789 -0.0062  0.3097
    1WF      WF68517  25.432   7.273   1.646 -0.0774 -0.0728 -0.2935
    1WF      WF68518  14.135  27.779   6.952  0.0546 -0.2611 -0.2516
    1WF      WF68519  14.331  15.654   1.450  0.0510 -0.3184 -0.0281
    1WF      WF68520   1.825   2.824   1.104  0.1747  0.0624 -0.2181
    1WF      WF68521   3.193  18.176   8.040  0.1203 -0.3409 -0.0254
    1WF      WF68522  24.979  17.490   6.307 -0.0861 -0.2365  0.0005
    1WF      WF68523  20.406   3.664   8.524  0.0768 -0.1170  0.3524
    1WF      WF68524  21.528  15.396   8.240 -0.1840 -0.1281  0.5000
    1WF      WF68525  24.486  11.697   6.974 -0.2997 -0.1944 -0.3326
    1WF      WF68526   1.525  16.980   0.562 -0.0054 -0.3095 -0.3295
    1WF      WF68527   6.362  25.743   0.265 -0.0623 -0.1445  0.1007
    1WF      WF68528   4.569   1.294   7.223  0.3144  0.2014  0.0321
    1WF      WF68529  13.214  21.536   7.830 -0.0473  0.0251 -0.4664
    1WF      WF68530  16.587   0.145   0.949 -0.1222 -0.0485  0.0247
    1WF      WF68531  16.692  26.192   9.083 -0.0564 -0.4256  0.1843
    1WF      WF68532  24.189  18.528   7.978  0.2098  0.3200 -0.0104
    1WF      WF68533   4.946  11.281   0.120 -0.0244 -0.1486  0.1645
    1WF      WF68534  20.565   2.584   0.712  0.1269  0.1771  0.0597
    1WF      WF68535  27.907  22.579   8.143  0.2142  0.0800 -0.2213
    1WF      WF68536  11.514  25.518   8.748 -0.0257 -0.1453  0.2258
    1WF      WF68537  17.874  14.093   0.934 -0.0347  0.1121 -0.1841
    1WF      WF68538   1.178  27.957   8.752 -0.2059  0.1604  0.0065
    1WF      WF68539  18.573   2.196   9.218  0.1157 -0.0163 -0.1024
    1WF      WF68540  15.635  21.992   9.018 -0.0086  0.2212  0.0010
    1WF      WF68541  18.728  16.106   0.879 -0.1126 -0.0369 -0.1876
    1WF      WF68542  11.901  27.178   7.528  0.0272  0.2936  0.0192
    1WF      WF68543  12.068  27.645   7.772 -0.2231  0.1730  0.0601
    1WF      WF68544   9.578  20.543   9.067  0.2330 -0.2874  0.0772
    1WF      WF68545  20.597  10.747   6.083  0.2988  0.0698 -0.1448
    1WF      WF68546  16.352   8.832   0.457 -0.0430  0.0211 -0.1490
    1WF      WF68547   9.399   4.706   1.676 -0.3680  0.3057  0.3113
    1WF      WF68548  12.370  10.233   0.837 -0.1596  0.3094  0.1104
    1WF      WF68549  17.452  23.294   8.214  0.2573 -0.0874  0.1722
    1WF      WF68550   2.170  28.273   7.223 -0.1075 -0.1335  0.3150
    1WF      WF68551  22.665   5.970   0.605 -0.0692 -0.0171 -0.0658
    1WF      WF68552   8.461  13.793   8.097  0.1213  0.3336  0.3569
    1WF      WF68553   4.700  28.685   7.608  0.1545 -0.1081  0.1177
    1WF      WF68554  13.247  26.496   0.175  0.1995 -0.1010 -0.4925
    1WF      WF68555   4.729  22.794   1.265 -0.4996 -0.1683  0.1206
    1WF      WF68556  14.754  11.207   9.141  0.1597  0.3400  0.2072
    1WF      WF68557   5.910  14.068   0.691 -0.2076  0.0459  0.0970
    1WF      WF68558  11.111   5.312   1.907 -0.2205 -0.3376  0.2421
    1WF      WF68559   2.277  25.924   8.449 -0.0997 -0.3270  0.0779
    1WF      WF68560  13.580   0.117   9.014  0.0944 -0.0406  0.0253
    1WF      WF68561  24.768   0.488   2.700 -0.0247  0.0091  0.0585
    1WF      WF68562  16.524   7.315   8.762 -0.2296 -0.2714 -0.2012
    1WF      WF68563   0.485   4.961   8.648 -0.1901 -0.1427  0.0700
    1WF      WF68564  19.493  23.258   0.371 -0.1075 -0.2580  0.1753
    1WF      WF68565   8.266  24.199   0.405 -0.3065 -0.2530 -0.1162
    1WF      WF68566  24.116  23.614   9.005 -0.1711  0.0320 -0.0878
    1WF      WF68567   3.935   2.425   8.080  0.0644  0.2268  0.0214
    1WF      WF68568  20.623  20.929   8.590  0.5136  0.1516 -0.0442
    1WF      WF68569   7.613   0.563   0.580  0.2727  0.2442  0.1655
    1WF      WF68570   4.876  28.985   0.684  0.0630 -0.0045  0.1381
    1WF      WF68571  18.957   0.695   8.468  0.0379  0.1137 -0.2494
    1WF      WF68572   3.784   7.064   2.375 -0.1218 -0.1715 -0.2455
    1WF      WF68573  14.873   0.212   0.134  0.0197  0.1188 -0.0377
    1WF      WF68574  28.220  17.614   7.749 -0.0898 -0.0819 -0.0906
    1WF      WF68575  23.681   9.055   2.267  0.1418 -0.0906  0.1122
    1WF      WF68576   0.039  27.534   0.298 -0.0711  0.4106 -0.2505
    1WF      WF68577   1.517   2.258   8.598 -0.0144 -0.1393 -0.3648
    1WF      WF68578  22.512  16.333   5.771  0.2250 -0.0061 -0.1701
    1WF      WF68579  24.972  28.188   2.113  0.5094 -0.0045 -0.0056
    1WF      WF68580  24.889   7.702   8.539 -0.0902 -0.1918 -0.0107
    1WF      WF68581  20.603  12.746   9.181  0.2042 -0.3156  0.2433
    1WF      WF68582  17.608  21.492   0.348 -0.2541  0.1132 -0.1452
    1WF      WF68583   6.875  28.385   8.181 -0.0286  0.0332 -0.0318
    1WF      WF68584   7.607  15.529   1.094  0.1797 -0.0021  0.1634
    1WF      WF68585  19.831   0.860   9.394 -0.2471  0.3953  0.0802
    1WF      WF68586   3.464   2.815   3.002  0.0500  0.2403 -0.0244
    1WF      WF68587   4.139   4.631   1.310  0.1949  0.1573 -0.2480
    1WF      WF68588   8.103  27.606   0.567 -0.3914 -0.0585  0.0841
    1WF      WF68589   1.811  25.495   0.063 -0.1334  0.2630 -0.0648
    1WF      WF68590  24.570  28.666   8.251  0.1232  0.1133  0.1724
    1WF      WF68591  15.798   9.732   8.314 -0.2110  0.3303 -0.1213
    1WF      WF68592  25.183  14.795   6.806 -0.1425  0.0140  0.2541
    1WF      WF68593  22.810   6.946   6.505  0.2339 -0.2656  0.4033
    1WF      WF68594  15.353  11.320   8.131  0.1095  0.0476  0.0318
    1WF      WF68595  15.243   3.216   7.740  0.0900 -0.2361  0.1848
    1WF      WF68596  29.411   6.298   6.782  0.1785 -0.0117 -0.2040
    1WF      WF68597  17.532  18.332   2.956 -0.2816  0.0318 -0.3517
    1WF      WF68598  17.386  11.296   7.856  0.1302 -0.1095  0.1771
    1WF      WF68599   4.658   9.477   0.717 -0.0484 -0.1782  0.0445
    1WF      WF68600   8.160   9.153   0.065  0.0143  0.0757 -0.4981
    1WF      WF68601  26.657  16.391   6.995 -0.0430  0.0175  0.5473
    1WF      WF68602  27.505  28.492   1.156 -0.1311 -0.1016  0.1353
    1WF      WF68603  21.979  22.285   9.303  0.1175  0.3052  0.0855
    1WF      WF68604  19.745   4.840   3.524  0.0821  0.3294 -0.1333
    1WF      WF68605  10.591   1.738   9.019 -0.4100  0.1717 -0.2637
    1WF      WF68606  10.762  24.549   7.798  0.1353 -0.1173 -0.0904
    1WF      WF68607  22.483  15.313   7.557 -0.0176 -0.1919  0.3216
    1WF      WF68608  20.361   6.465   7.582 -0.0465  0.0900 -0.0333
    1WF      WF68609  16.817   3.598   8.283  0.0380 -0.0584 -0.2137
    1WF      WF68610  21.495   9.778   1.657  0.0160  0.2742 -0.0233
    1WF      WF68611  14.293  14.757   7.566  0.0929 -0.1312 -0.0521
    1WF      WF68612  21.094  21.992   0.609  0.1512  0.2703 -0.0560
    1WF      WF68613  15.834  27.602   3.351  0.0445 -0.0622 -0.1087
    1WF      WF68614   2.079  16.673   0.996 -0.2064  0.1462 -0.3078
    1WF      WF68615   2.275  11.660   8.925  0.1230  0.0982  0.0064
    1WF      WF68616  24.474  11.449   9.028 -0.1232  0.0426  0.1430
    1WF      WF68617   8.628   2.768   0.222 -0.0432 -0.0456  0.1172
    1WF      WF68618  20.007   3.283   1.814  0.2070 -0.0449  0.2755
    1WF      WF68619  10.300  16.251   2.721  0.3573  0.0023  0.1309
    1WF      WF68620  28.333  11.545   0.419  0.2965  0.2092  0.1800
    1WF      WF68621   9.627  29.228   9.142 -0.1254  0.3092 -0.0772
    1WF      WF68622   9.391  29.063   7.023 -0.1462 -0.3368 -0.1608
    1WF      WF68623  13.347   0.719   0.882  0.1189 -0.2521  0.1440
    1WF      WF68624  10.332   6.156   9.200 -0.1304  0.0968  0.1007
    1WF      WF68625  17.232   3.948   1.511 -0.0997 -0.0751 -0.0635
    1WF      WF68626  25.918   2.262   2.487  0.1059 -0.2495  0.4480
    1WF      WF68627  14.941   0.695   1.091  0.0861 -0.0819  0.0893
    1WF      WF68628  29.135   8.978   8.768 -0.0335  0.1058 -0.0385
    1WF      WF68629   7.177  11.943   0.371 -0.1824 -0.2174  0.0260
    1WF      WF68630   9.945   3.420   2.010  0.0997  0.0786  0.2587
    1WF      WF68631   3.544  12.594   9.532  0.2789 -0.1135 -0.0810
    1WF      WF68632  27.600   6.700   8.006 -0.3048 -0.0950  0.0378
    1WF      WF68633   5.579  15.312   8.187  0.1544 -0.3812  0.3988
    1WF      WF68634  25.759  16.800   0.226 -0.1833  0.5052  0.0246
    1WF      WF68635   6.627  29.010   9.163 -0.1997 -0.0322 -0.1218
    1WF      WF68636  24.158   3.662   9.089 -0.0241  0.0012 -0.0237
    1WF      WF68637  16.388  13.614   7.593 -0.3270 -0.3066 -0.1537
    1WF      WF68638  18.960   7.967   9.239  0.0266  0.2766 -0.3374
    1WF      WF68639   7.899   7.192   8.734 -0.0633 -0.1784  0.0983
    1WF      WF68640  28.334  17.583   0.019  0.1938 -0.0768  0.2763
    1WF      WF68641   1.147  28.827   9.111 -0.1245 -0.0069  0.0562
    1WF      WF68642  29.042  24.394   8.122 -0.1462 -0.5121 -0.2793
    1WF      WF68643  23.682   0.868   0.140  0.0919  0.0656 -0.1368
    1WF      WF68644   1.892  20.864   9.504  0.1568  0.2130 -0.1475
    1WF      WF68645  22.396  23.569   0.392 -0.0586  0.0343 -0.2831
    1WF      WF68646   1.059  25.323   8.141 -0.1147  0.1535  0.2159
    1WF      WF68647   5.969   8.385   8.437 -0.0052  0.1386 -0.1600
    1WF      WF68648  15.706  16.257   8.839 -0.0818 -0.0419  0.1157
    1WF      WF68649   1.667   9.954   1.002 -0.0848  0.2080 -0.2197
    1WF      WF68650  14.584   3.840   1.013 -0.1111 -0.1946  0.1041
    1WF      WF68651  27.816   3.340   0.617 -0.1263 -0.2649  0.1098
    1WF      WF68652  29.061  28.139   7.765  0.1015  0.1369 -0.2463
    1WF      WF68653   7.077   1.808   8.993 -0.0272 -0.4602  0.1550
    1WF      WF68654   8.604   8.467   9.298 -0.0112  0.0994  0.0068
    1WF      WF68655  10.047  18.081   9.533  0.0014 -0.0635  0.2031
    1WF      WF68656  28.945  14.480   6.239 -0.0976  0.0168  0.0710
    1WF      WF68657  14.798  16.073   3.181  0.1229 -0.2644 -0.0367
    1WF      WF68658  15.715   2.746   6.920  0.0613  0.1565  0.0185
    1WF      WF68659  29.009  20.673   1.692  0.0420  0.0240  0.0835
    1WF      WF68660  24.429   6.487   9.162 -0.0574  0.3361  0.0451
    1WF      WF68661   6.846   4.417   1.466 -0.1685 -0.0103  0.0221
    1WF      WF68662   0.813   7.534   8.172  0.1476 -0.0222 -0.0556
    1WF      WF68663   7.854  12.427   0.795 -0.1186 -0.4231 -0.1233
    1WF      WF68664  16.379   8.743   1.577 -0.0430  0.0455  0.4450
    1WF      WF68665   6.467  19.499   8.016 -0.1904 -0.2490  0.2333
    1WF      WF68666  25.023  23.412   0.632 -0.1474 -0.0027  0.2146
    1WF      WF68667  24.786  27.489   1.222  0.1008 -0.1262 -0.2236
    1WF      WF68668  15.291  12.354   6.613  0.1446  0.1210  0.0709
    1WF      WF68669  18.694   1.972   8.812 -0.2836  0.2922 -0.1785
    1WF      WF68670  10.977  26.372   2.095  0.1376 -0.3126 -0.1550
    1WF      WF68671   3.809   0.279   6.780  0.0238  0.2557  0.1646
    1WF      WF68672   9.100   5.668   0.962  0.0234 -0.0475 -0.1863
    1WF      WF68673  15.678  12.964   7.786 -0.1440  0.0026  0.2019
    1WF      WF68674  14.274  22.127   1.573 -0.3719 -0.1635 -0.0825
    1WF      WF68675   1.682   4.381   7.603  0.0261  0.0506 -0.0286
    1WF      WF68676  27.372  14.936   0.847  0.0126 -0.0344  0.1124
    1WF      WF68677  21.287  22.222   7.862  0.0019 -0.3510  0.1113
    1WF      WF68678   9.032   7.833   9.044 -0.0573 -0.3275  0.0600
    1WF      WF68679   1.524   0.345   1.990 -0.2390  0.0671 -0.0045
    1WF      WF68680   1.617  18.123   9.265  0.1270  0.0914  0.1428
    1WF      WF68681  11.780   6.162   0.943  0.1661  0.1875  0.0993
    1WF      WF68682  27.861   4.929   1.864  0.4666 -0.1944 -0.1889
    1WF      WF68683  11.575  10.778   8.922  0.0796  0.0075 -0.2176
    1WF      WF68684  15.783  20.489   0.657 -0.1377  0.1488 -0.2004
    1WF      WF68685  14.452  16.847   6.635  0.1959 -0.0370  0.0462
    1WF      WF68686  19.027   6.029   1.769 -0.2108 -0.1183 -0.4209
    1WF      WF68687  11.498  24.032   7.990  0.2171  0.1789 -0.2011
    1WF      WF68688   1.179  23.446   0.866  0.1100  0.1701  0.2675
    1WF      WF68689  13.276   3.431   6.800  0.2821  0.1036 -0.0485
    1WF      WF68690  11.482   8.170   1.157 -0.2754  0.0166  0.0334
    1WF      WF68691  17.955   8.281   1.374 -0.2556 -0.1469 -0.0878
    1WF      WF68692   4.239   6.817   8.578 -0.1720 -0.1593 -0.3931
    1WF      WF68693   0.687  10.265   0.705 -0.3862 -0.0951 -0.1030
    1WF      WF68694   1.137  14.911   9.474 -0.0007 -0.1851  0.2058
    1WF      WF68695  13.890  15.764   8.245 -0.0893 -0.0184  0.4404
    1WF      WF68696   3.790  28.298   7.942 -0.2472  0.1470  0.0409
    1WF      WF68697   0.468  21.675   8.339  0.0285 -0.0772 -0.0534
    1WF      WF68698  11.944   4.129   8.158  0.0005  0.3290 -0.0970
    1WF      WF68699   5.503  13.620   0.616  0.0840 -0.1344  0.1200
    1WF      WF68700   8.182  10.914   8.421 -0.1924  0.0497 -0.0595
    1WF      WF68701  12.228  22.520   7.806 -0.0837 -0.2198  0.2154
    1WF      WF68702   4.573  13.586   0.069  0.2292  0.1673  0.1724
    1WF      WF68703  20.922  10.274   9.021  0.0083 -0.1087  0.2110
    1WF      WF68704  10.288  27.457   0.009  0.2669  0.0106 -0.0274
    1WF      WF68705  23.151  16.757   9.268  0.0448  0.0302 -0.0854
    1WF      WF68706  13.682   7.793   1.534  0.2211  0.0563  0.0686
    1WF      WF68707  25.831  23.528   0.267  0.3174  0.0615 -0.1854
    1WF      WF68708  16.777  11.064   6.905 -0.2515 -0.2186 -0.0584
    1WF      WF68709   8.936   2.343   9.076 -0.1455 -0.0340 -0.0439
    1WF      WF68710  19.144  20.983   7.626 -0.1105 -0.1746  0.1384
    1WF      WF68711  29.431   2.803   8.341 -0.0075  0.1104  0.0984
    1WF      WF68712  20.009  18.281   8.445 -0.1857  0.1053  0.1357
    1WF      WF68713  28.164  28.985   9.160 -0.2609  0.0084 -0.1658
    1WF      WF68714  12.664  23.807   6.177  0.1891 -0.2346  0.0954
    1WF      WF68715  24.108  17.844   0.269  0.0108  0.1911  0.1145
    1WF      WF68716   2.874  17.753   7.740  0.0751  0.1725 -0.0208
    1WF      WF68717  22.911   6.547   7.667  0.0009  0.0904  0.3087
    1WF      WF68718   4.208   3.289   3.212  0.1652  0.0672  0.0594
    1WF      WF68719  14.881  16.501   2.819  0.0097 -0.0296 -0.0439
    1WF      WF68720  20.950  14.747   9.054  0.0487 -0.3383  0.1122
    1WF      WF68721  15.628  19.108   0.066 -0.1532 -0.1476  0.3306
    1WF      WF68722  12.451   3.577   1.075  0.0587 -0.0133 -0.3181
    1WF      WF68723   4.524  25.336   8.828 -0.3251 -0.1783 -0.0038
    1WF      WF68724  11.763  10.711   1.033 -0.3001 -0.0148  0.0546
    1WF      WF68725  23.035  12.360   2.259  0.1001  0.3832  0.0363
    1WF      WF68726  27.093  17.001   8.494  0.2913 -0.3317  0.0414
    1WF      WF68727  11.866  28.501   1.761  0.0367 -0.3139 -0.0062
    1WF      WF68728   9.886  26.562   1.812  0.0669 -0.1000  0.3001
    1WF      WF68729  21.411  14.943   9.070 -0.0216  0.0213 -0.2964
    1WF      WF68730   3.500  11.980   8.652  0.0770 -0.1667  0.0649
    1WF      WF68731  10.049  14.998   8.849  0.0204  0.1809  0.0569
    1WF      WF68732  28.832  17.378   9.441  0.1555  0.1691 -0.2895
    1WF      WF68733   3.460  10.181   8.810  0.0161 -0.0163  0.4205
    1WF      WF68734   6.030  27.657   9.098  0.2270 -0.1688 -0.0055
    1WF      WF68735  11.191  17.698   0.203 -0.3403 -0.1426  0.1792
    1WF      WF68736   3.084  13.026   9.316 -0.2484  0.1891  0.1941
    1WF      WF68737  17.020  10.381   3.259  0.0896 -0.2340  0.2170
    1WF      WF68738  24.692  23.704   0.203 -0.4503 -0.0336 -0.0574
    1WF      WF68739  25.713  27.455   7.733 -0.0331  0.2752  0.2946
    1WF      WF68740  21.577  20.367   7.458  0.1187 -0.1674  0.1317
    1WF      WF68741   7.039  22.946   6.615 -0.2178 -0.0760  0.2329
    1WF      WF68742  20.732  28.583   8.678 -0.2479 -0.1464 -0.2528
    1WF      WF68743  26.127  20.850   0.949 -0.0597 -0.1832 -0.1062
    1WF      WF68744  10.344  25.757   0.722  0.3613  0.2871  0.1568
    1WF      WF68745  29.587  20.471   7.931 -0.0887 -0.4467  0.0024
    1WF      WF68746  14.686   7.985   0.316 -0.0705 -0.2224 -0.0366
    1WF      WF68747  16.606   7.986   1.157 -0.1557 -0.3012  0.0875
    1WF      WF68748  14.715   5.314   9.363  0.0092 -0.0807 -0.0671
    1WF      WF68749   9.668   3.804   2.001  0.2244 -0.2578  0.3317
    1WF      WF68750  26.832  19.385   8.967  0.4590 -0.0953  0.0322
    1WF      WF68751  24.982  20.597   8.154 -0.4874 -0.0596 -0.0854
    1WF      WF68752   7.174   4.650   1.786  0.0021  0.0356 -0.0383
    1WF      WF68753  18.622  11.327   2.404  0.0267  0.1170  0.2127
    1WF      WF68754  12.437  11.281   1.969 -0.1307 -0.2091  0.0218
    1WF      WF68755  23.743   9.238   1.818  0.2428 -0.0799  0.1209
    1WF      WF68756  27.137  16.471   7.073 -0.0858 -0.2808 -0.0733
    1WF      WF68757   8.835   4.027   0.522  0.1823 -0.1358 -0.1159
    1WF      WF68758  15.939   8.397   8.787  0.0593 -0.4257  0.0877
    1WF      WF68759  15.735   5.716   8.737  0.4199  0.3107 -0.1272
    1WF      WF68760   3.923   8.484   0.770 -0.1386 -0.0124 -0.0334
    1WF      WF68761  25.870   4.376   2.077  0.1160  0.1813  0.3010
    1WF      WF68762  13.730  18.315   9.161  0.0675 -0.2861 -0.1928
    1WF      WF68763  28.394  16.020   5.952  0.2169 -0.0208 -0.0932
    1WF      WF68764  24.105   9.307   6.231 -0.0745 -0.2566 -0.1008
    1WF      WF68765   0.177   9.863   7.937  0.0577 -0.0959  0.0062
    1WF      WF68766   7.329   5.923   1.780  0.0787 -0.2360  0.0133
    1WF      WF68767   0.658  23.633   0.666  0.2091 -0.0398  0.2134
    1WF      WF68768   2.410  27.702   8.898  0.0749  0.0688 -0.0469
    1WF      WF68769  22.363  11.501   0.153  0.1886  0.0432 -0.0816
    1WF      WF68770  11.873   1.810   1.085 -0.2602  0.1781 -0.0472
    1WF      WF68771  12.131  12.930   0.569  0.1754  0.0088 -0.1672
    1WF      WF68772  17.998   4.470   9.463 -0.2846 -0.1047  0.1280
    1WF      WF68773  15.100  25.225   0.920 -0.3101 -0.2634 -0.1744
    1WF      WF68774   8.126  23.751   0.360  0.1471  0.2685 -0.3619
    1WF      WF68775  13.528  28.327   9.468 -0.1247  0.0909 -0.0085
    1WF      WF68776  12.822  24.206   9.150 -0.0751  0.2407  0.1949
    1WF      WF68777   4.004   7.304   8.623  0.3540 -0.1213 -0.0409
    1WF      WF68778  20.593  29.000   8.344 -0.0325 -0.0533  0.0990
    1WF      WF68779  25.815   9.570   0.123 -0.1815  0.1816 -0.0004
    1WF      WF68780  22.061   2.650   0.465  0.1808 -0.2275  0.2760
    1WF      WF68781  24.846  19.914   8.911 -0.0387  0.4151 -0.1706
    1WF      WF68782   7.965   3.541   8.859  0.1682 -0.1582 -0.1216
    1WF      WF68783   5.981   7.553   9.503 -0.3243  0.0223 -0.2804
    1WF      WF68784   7.989  27.313   0.985 -0.1285 -0.2274 -0.1581
    1WF      WF68785  11.221  17.514   9.293  0.0225  0.0248  0.0507
    1WF      WF68786  20.950  19.745   0.167  0.0477  0.1053 -0.0547
    1WF      WF68787  24.852   0.983   8.091 -0.0633  0.1043  0.1131
    1WF      WF68788  18.729  21.893   8.177 -0.1256  0.0910  0.4106
    1WF      WF68789   4.670  14.825   1.298  0.0451  0.1131  0.0854
    1WF      WF68790  27.328  28.951   1.396  0.1212  0.0462 -0.1023
    1WF      WF68791   7.680   9.252   1.245  0.2757 -0.0396 -0.0411
    1WF      WF68792   6.400  29.004   8.705  0.0816 -0.1309 -0.1756
    1WF      WF68793  18.785  28.050   7.181 -0.0652 -0.0205  0.0196
    1WF      WF68794  14.425  27.589   2.357  0.1372 -0.0976 -0.0504
    1WF      WF68795  27.704   3.351   7.981  0.1686  0.0157 -0.0590
    1WF      WF68796  28.884  25.135   8.765 -0.0414  0.1426  0.2838
    1WF      WF68797  10.066  22.138   2.539  0.1473  0.1135 -0.1837
    1WF      WF68798   9.776  16.050   0.411  0.0020 -0.5484 -0.0469
    1WF      WF68799  22.909   2.583   1.597 -0.0033  0.0003  0.1393
    1WF      WF68800  18.464  11.546   8.472  0.1182 -0.0344 -0.1330
    1WF      WF68801   6.408   4.285   3.097  0.0005  0.1006  0.3717
    1WF      WF68802   1.705  16.406   0.770 -0.0689 -0.1936 -0.1481
    1WF      WF68803  17.947  16.159   7.998 -0.0666 -0.0821 -0.0089
    1WF      WF68804  25.387  15.393   7.734 -0.0732 -0.0124 -0.2163
    1WF      WF68805  13.773  10.927   0.463  0.1114 -0.1635  0.3394
    1WF      WF68806   7.441  25.104   8.915 -0.1338  0.0162  0.0216
    1WF      WF68807   7.112  22.642   1.402 -0.1207  0.0239 -0.3110
    1WF      WF68808  27.780   4.536   1.515 -0.0861  0.0350 -0.3399
    1WF      WF68809  23.252  26.186   1.419  0.1373  0.2184  0.0487
    1WF      WF68810  17.921  14.585   8.819 -0.2228  0.0501 -0.0494
    1WF      WF68811  11.892  24.934   7.736  0.1930 -0.3141  0.0841
    1WF      WF68812   3.407  22.150   2.678 -0.0948 -0.1616  0.0594
    1WF      WF68813  12.011  27.142   8.832 -0.1983  0.0474  0.2765
    1WF      WF68814  28.520  19.358   9.385  0.0404  0.0211 -0.0229
    1WF      WF68815  24.978  18.239   7.066  0.1208 -0.1912 -0.1225
    1WF      WF68816  15.509  16.220   8.325 -0.4509 -0.2957  0.0663
    1WF      WF68817  25.600  11.481   0.782 -0.1667  0.3806  0.1109
    1WF      WF68818  27.631   9.935   0.998 -0.2142  0.2562  0.0232
    1WF      WF68819  28.656  15.421   7.593 -0.0052  0.1419  0.1673
    1WF      WF68820   9.541   5.931   0.816 -0.0701 -0.0487 -0.3780
    1WF      WF68821  27.697   1.594   8.790 -0.0781  0.3139  0.3680
    1WF      WF68822   9.260  23.386   8.288  0.3267 -0.1397 -0.2271
    1WF      WF68823  10.283  19.050   9.237  0.1481 -0.0845  0.0817
    1WF      WF68824  29.284  24.282   1.694  0.1135 -0.0339  0.1829
    1WF      WF68825  16.841   7.051   2.230  0.4188  0.0570  0.2406
    1WF      WF68826   5.977   4.293   2.647 -0.1255 -0.0002  0.2849
    1WF      WF68827   1.413  28.544   7.858  0.1546 -0.0708 -0.0144
    1WF      WF68828  17.494  13.727   0.999 -0.2460 -0.1755  0.0562
    1WF      WF68829  25.469  23.150   0.259  0.1103 -0.2286 -0.2079
    1WF      WF68830  27.591  10.575   8.866  0.0229  0.0869 -0.1361
    1WF      WF68831   5.902  23.347   1.570 -0.0676  0.1582  0.1105
    1WF      WF68832   2.408   3.880   0.453 -0.1025 -0.1001 -0.1435
    1WF      WF68833  20.868   0.186   7.040 -0.2540  0.2622 -0.1853
    1WF      WF68834  22.410   0.253   9.120 -0.0706  0.1841  0.1701
    1WF      WF68835  19.471  22.726   1.571 -0.1969  0.0992  0.0007
    1WF      WF68836   9.064  25.360   8.939  0.2240 -0.1758  0.3873
    1WF      WF68837   0.987  24.174   8.026 -0.4506 -0.0527 -0.1854
    1WF      WF68838   0.382   0.721   6.818 -0.1492 -0.1271  0.1839
    1WF      WF68839  27.129  19.931   7.903  0.1814 -0.0846  0.1655
    1WF      WF68840  20.482   7.433   8.642 -0.0183 -0.0293 -0.0759
    1WF      WF68841  27.729  16.553   1.057 -0.1157 -0.0791  0.2503
    1WF      WF68842   3.547  23.381   1.915 -0.3680  0.1494  0.0097
    1WF      WF68843  22.548  24.386   7.977  0.2294 -0.1679 -0.0448
    1WF      WF68844  24.041  13.276   7.449 -0.0548 -0.1420  0.0584
    1WF      WF68845  26.836   3.729   8.779  0.0074 -0.2125  0.2041
    1WF      WF68846  15.183   3.179   2.485  0.2242  0.1692  0.0041
    1WF      WF68847   6.832  20.637   1.333 -0.1032 -0.0352  0.3256
    1WF      WF68848   9.039  25.124   8.506  0.3116 -0.1393 -0.0464
    1WF      WF68849  22.832   0.619   8.941  0.1854  0.3080 -0.0557
    1WF      WF68850   3.763  24.066   1.139  0.2714  0.0875  0.0191
    1WF      WF68851  26.757  19.963   0.348 -0.2411  0.1430 -0.0740
    1WF      WF68852  25.107   2.631   2.230 -0.1719  0.1847 -0.0159
    1WF      WF68853  22.560   3.425   9.038 -0.0279  0.1696  0.1073
    1WF      WF68854  24.020  21.444   0.904  0.2828  0.0896 -0.0484
    1WF      WF68855   2.817   1.648   6.514 -0.0279 -0.0726 -0.1980
    1WF      WF68856  15.549  16.839   8.875 -0.0618  0.4162  0.0592
    1WF      WF68857   6.236  27.556   1.210 -0.2227  0.2029 -0.1481
    1WF      WF68858  20.162  29.249   0.207 -0.0932 -0.0118 -0.2095
    1WF      WF68859  10.592  16.203   6.631 -0.0558 -0.2405  0.1336
    1WF      WF68860  13.494  19.780   8.420  0.1010 -0.0505  0.0462
    1WF      WF68861  17.056  16.021   8.259  0.0241  0.0966 -0.1112
    1WF      WF68862   6.939  23.196   6.997  0.1914 -0.1181 -0.1917
    1WF      WF68863   2.806   1.428   0.251  0.0587 -0.3619  0.0931
    1WF      WF68864  11.131  18.483   2.429 -0.3080 -0.2952 -0.0344
    1WF      WF68865  17.502  13.251   8.170  0.1180  0.1522 -0.2887
    1WF      WF68866   2.920  29.741   8.476  0.0798  0.1719 -0.0480
    1WF      WF68867  18.666   4.240   7.956  0.0072 -0.0426  0.2115
    1WF      WF68868  14.699  16.039   0.423 -0.0853 -0.2836 -0.1247
    1WF      WF68869  24.905   3.647   8.717 -0.0667 -0.1821 -0.0248
    1WF      WF68870   4.195  12.033   1.411  0.1060 -0.1519 -0.1494
    1WF      WF68871  14.404  29.247   2.760 -0.2785 -0.4672  0.3059
    1WF      WF68872  27.626   4.498   2.141  0.0944 -0.2647  0.1422
    1WF      WF68873  26.294   5.083   2.801  0.3447 -0.1345 -0.0011
    1WF      WF68874   2.331  25.664   9.323 -0.2990 -0.2444 -0.0814
    1WF      WF68875  13.936   3.510   7.789 -0.1245  0.1127 -0.2115
    1WF      WF68876   4.353  26.653   7.194  0.0969 -0.3200 -0.0511
    1WF      WF68877  25.714  22.346   5.510  0.3874  0.4117  0.0336
    1WF      WF68878  13.570  20.226   0.070 -0.1035 -0.0732 -0.3322
    1WF      WF68879  19.002   3.885   7.733  0.3361 -0.2166  0.2411
    1WF      WF68880  23.503  27.898   0.837  0.0035 -0.2984 -0.0135
    1WF      WF68881  19.958   3.817   8.325 -0.2996 -0.1565  0.1187
    1WF      WF68882  17.168  10.035   1.383  0.0107  0.0585  0.2560
    1WF      WF68883   6.100   9.810   0.391 -0.0762  0.0908  0.1158
    1WF      WF68884  13.880   7.811   8.959  0.0568  0.3621  0.2294
    1WF      WF68885  22.646   0.462   9.492 -0.1338 -0.2239  0.0272
    1WF      WF68886  27.687  21.823   8.738 -0.0981  0.2465  0.1480
    1WF      WF68887   7.942  15.744   1.419 -0.2572 -0.1541 -0.1346
    1WF      WF68888  25.003  28.834   8.279 -0.0001 -0.1670  0.0214
    1WF      WF68889  15.191  12.900   7.555  0.0671 -0.1549 -0.0899
    1WF      WF68890  25.979  13.258   7.447 -0.0504 -0.2031 -0.2858
    1WF      WF68891  17.949  13.167   8.384 -0.0406 -0.1947 -0.0875
    1WF      WF68892  16.423  23.918   0.855  0.2675  0.0021  0.3914
    1WF      WF68893  15.007  20.695   1.775 -0.0353  0.0310 -0.1240
    1WF      WF68894   0.439  14.534   8.606 -0.1114 -0.3890  0.2725
    1WF      WF68895   4.493  16.648   8.420  0.2495  0.1750  0.0424
    1WF      WF68896   5.584   5.823   9.098 -0.1644 -0.1293  0.1264
    1WF      WF68897  19.345   2.172   0.276 -0.0539  0.0309  0.0309
    1WF      WF68898  25.802  19.934   9.154  0.0558  0.3348  0.1556
    1WF      WF68899  19.667  12.882   8.790 -0.2512  0.1084  0.2669
    1WF      WF68900  13.392  21.588   1.641 -0.1596 -0.1753  0.3068
    1WF      WF68901   6.506  11.106   7.844 -0.0945  0.2069  0.1237
    1WF      WF68902  10.328   6.647   9.138  0.0957  0.1728  0.0144
    1WF      WF68903  17.270  24.454   1.024 -0.2669 -0.3167 -0.1173
    1WF      WF68904   4.623  24.626   9.466 -0.3271  0.0575  0.0968
    1WF      WF68905  12.453  20.625   1.897 -0.0307 -0.0182 -0.0700
    1WF      WF68906   0.393   8.371   1.079 -0.1210 -0.4121 -0.4206
    1WF      WF68907  21.471  22.522   9.147 -0.0353  0.0693 -0.1879
    1WF      WF68908  28.859  23.428   9.145 -0.0650  0.1989 -0.0969
    1WF      WF68909   0.180   6.584   0.502  0.0092  0.2549  0.1397
    1WF      WF68910   1.740  28.901   7.797  0.2189  0.0405 -0.0223
    1WF      WF68911   3.073   8.765   7.305  0.0345 -0.1585  0.1462
    1WF      WF68912  14.185   5.808   3.647  0.0311 -0.0238 -0.0601
    1WF      WF68913   4.523  27.494   1.746 -0.0725 -0.2590  0.3117
    1WF      WF68914   4.056   0.798   8.859 -0.2872  0.1166  0.0289
    1WF      WF68915  26.104   9.994   1.985  0.2406 -0.0476  0.0144
    1WF      WF68916  11.886  25.566   9.459  0.1557  0.0324  0.0779
    1WF      WF68917  17.347   1.236   4.136  0.2337  0.3282 -0.2130
    1WF      WF68918  25.699  21.934   0.680  0.1536  0.0715 -0.1963
    1WF      WF68919   2.563   6.872   2.338 -0.0460 -0.2206 -0.0124
    1WF      WF68920  27.806  27.802   0.171 -0.3208  0.0977  0.1567
    1WF      WF68921  16.345   2.643   8.498 -0.3949 -0.0451 -0.0870
    1WF      WF68922   5.496   6.805   7.914 -0.2459 -0.1543  0.0307
    1WF      WF68923  27.791  21.412   9.055  0.0237 -0.1364  0.0125
    1WF      WF68924  10.413   3.614   1.919 -0.0029  0.0252 -0.2580
    1WF      WF68925  23.918   6.419   9.074 -0.0827  0.0304  0.1083
    1WF      WF68926   4.516  29.336   0.757 -0.2377  0.1861 -0.2292
    1WF      WF68927   6.721   7.089   1.087 -0.2870  0.0257  0.2485
    1WF      WF68928  16.959  25.813   0.102  0.0719 -0.1882  0.4218
    1WF      WF68929  17.267   2.489   0.212 -0.0217 -0.0008  0.1219
    1WF      WF68930  13.128   0.289   8.820  0.0018 -0.0644 -0.0494
    1WF      WF68931  14.051   6.063   0.529  0.2141  0.0112 -0.0006
    1WF      WF68932  21.468  22.251   8.355  0.1340  0.3931  0.1016
    1WF      WF68933  17.470  28.737   0.366 -0.0796  0.0946  0.2687
    1WF      WF68934  21.037  27.198   3.926 -0.1691 -0.2961 -0.1406
    1WF      WF68935  18.507  19.499   6.803  0.3144 -0.1524  0.0798
    1WF      WF68936  14.699  26.902   8.954  0.1799 -0.1229 -0.0857
    1WF      WF68937  28.627  16.209   7.574 -0.0693 -0.3417  0.2167
    1WF      WF68938  12.211  13.709   1.726 -0.1993 -0.1117 -0.1453
    1WF      WF68939  13.138  23.786   8.916  0.0307 -0.1331 -0.1586
    1WF      WF68940  27.527  21.218   8.680  0.2733  0.0498  0.1471
    1WF      WF68941  19.945  11.583   8.202 -0.2719 -0.1655 -0.2232
    1WF      WF68942   5.965  27.923   1.087  0.0190  0.0307  0.1421
    1WF      WF68943   3.424  19.582   9.279 -0.3509  0.0945 -0.0349
    1WF      WF68944   6.540  26.871   8.796 -0.0371 -0.1597 -0.2479
    1WF      WF68945   2.192  27.825   0.248  0.0444  0.0802  0.1039
    1WF      WF68946  13.165  19.069   8.456  0.3546  0.3114  0.2878
    1WF      WF68947  29.514  11.204   8.720  0.0020 -0.1139 -0.1167
    1WF      WF68948  16.147  11.536   8.593  0.0077  0.1807  0.3873
    1WF      WF68949  11.709  27.220   9.284 -0.1750 -0.1041  0.1213
    1WF      WF68950  12.061  15.456   3.135 -0.3720 -0.0746  0.2493
    1WF      WF68951  17.886  19.324   9.062 -0.1115 -0.5408 -0.3275
    1WF      WF68952  21.688  29.079   1.838  0.2063 -0.3091  0.2390
    1WF      WF68953  15.889  12.960   9.253  0.1093  0.0260  0.0604
    1WF      WF68954  16.422  15.818   0.854  0.1871 -0.2285 -0.1524
    1WF      WF68955  25.498  14.678   7.208 -0.0713 -0.1965 -0.1471
    1WF      WF68956  20.174   1.509   8.029  0.2822  0.5591  0.1243
    1WF      WF68957  19.794  27.177   0.678 -0.2625  0.2099 -0.3873
    1WF      WF68958   7.186  25.011   2.787  0.2477  0.1769 -0.1150
    1WF      WF68959  20.056  20.516   0.194 -0.0004 -0.4029  0.1111
    1WF      WF68960   5.508  23.232   8.444  0.0703  0.1042  0.0670
    1WF      WF68961  11.796  24.502   7.965 -0.0003 -0.0104 -0.0696
    1WF      WF68962   5.959  28.135   0.293  0.0587  0.2173 -0.0686
    1WF      WF68963  20.196  12.911   8.818  0.4425 -0.0905  0.1934
    1WF      WF68964   7.953   6.037   7.982  0.1725 -0.0285  0.0475
    1WF      WF68965  16.553  24.553   6.435  0.1456  0.1347 -0.1192
    1WF      WF68966   5.417   5.059   1.170 -0.3054  0.1304  0.1662
    1WF      WF68967  22.365  13.567   0.158  0.0358 -0.2072  0.0541
    1WF      WF68968  26.106   0.836   0.205 -0.0329 -0.0431 -0.2971
    1WF      WF68969   5.962  23.399   8.372 -0.0693  0.1210 -0.1989
    1WF      WF68970  11.196  18.816   8.149  0.0737  0.2358  0.0558
    1WF      WF68971   7.519   7.614   8.387 -0.0643 -0.1309 -0.2086
    1WF      WF68972  13.101  20.396   0.051 -0.0208  0.0962  0.0454
    1WF      WF68973  26.623  20.930   0.772  0.0979 -0.0483  0.1797
    1WF      WF68974  24.254   4.002   2.305  0.0866 -0.1505  0.0789
    1WF      WF68975  29.728   3.605   0.536 -0.0353  0.1222 -0.1893
    1WF      WF68976   8.227  17.440   2.612  0.2556 -0.0829 -0.1533
    1WF      WF68977   2.134   2.388   1.098 -0.0564 -0.1536 -0.1006
    1WF      WF68978  20.630   7.636   1.954 -0.3542  0.0636  0.0274
    1WF      WF68979   2.355  28.182   0.646 -0.1262 -0.0802 -0.2113
    1WF      WF68980  18.872   1.647   0.714  0.2614 -0.2111  0.3057
    1WF      WF68981  24.018   0.923   1.089  0.4639  0.3164 -0.1221
    1WF      WF68982  15.113  12.831   9.473 -0.1351 -0.1281 -0.2541
    1WF      WF68983   9.467  16.340   8.989 -0.1144 -0.0025  0.0455
    1WF      WF68984  17.057   4.276   1.875 -0.1549 -0.3097 -0.0828
    1WF      WF68985  19.318   2.383   1.311  0.2933 -0.0739  0.0313
    1WF      WF68986  21.118  10.067   9.460 -0.1353 -0.0604 -0.2884
    1WF      WF68987  15.425  24.237   7.693 -0.2878 -0.2969  0.0231
    1WF      WF68988  11.013   1.730   9.272 -0.1493 -0.0399  0.0307
    1WF      WF68989  18.487   6.529   8.434 -0.6419  0.1963 -0.0349
    1WF      WF68990  17.702  28.076   0.851  0.2314 -0.0794 -0.2799
    1WF      WF68991   7.723  28.031   2.650  0.1538 -0.0974 -0.0643
    1WF      WF68992  20.022  25.500   2.155  0.1296 -0.2336  0.0005
    1WF      WF68993  16.492  15.667   2.544  0.0014  0.1153 -0.1605
    1WF      WF68994   3.911  26.009   3.604 -0.2881  0.0271 -0.0938
    1WF      WF68995  21.004  13.333   8.690 -0.1370  0.1721 -0.1034
    1WF      WF68996  26.416  15.355   5.597  0.1365 -0.3043  0.0689
    1WF      WF68997  29.396   3.909   0.767  0.5005  0.1041 -0.0499
    1WF      WF68998  11.665  26.763   0.803 -0.1228 -0.1393  0.0430
    1WF      WF68999  23.022  26.568   8.682  0.0394  0.3701 -0.1223
    1WF      WF69000   9.078  14.617   0.238 -0.1768  0.0057  0.2826
    1WF      WF69001  19.831  19.943   0.630  0.0218  0.0708  0.0194
    1WF      WF69002  13.450   9.420   8.629  0.1759  0.1941 -0.0104
    1WF      WF69003  20.690  16.006   6.611 -0.0277  0.1083 -0.1366
    1WF      WF69004  28.136   2.175   0.349 -0.1652  0.0149  0.0653
    1WF      WF69005   5.547  11.814   6.658  0.1309 -0.1030  0.1194
    1WF      WF69006  18.220   7.778   1.607 -0.0137 -0.2257 -0.0586
    1WF      WF69007  23.051   8.315   0.681 -0.0783  0.0508 -0.1207
    1WF      WF69008  23.473  22.747   0.648  0.0150 -0.4548  0.2548
    1WF      WF69009  25.003  21.812   8.250  0.4282  0.1954 -0.0710
    1WF      WF69010  10.487   9.642   1.434  0.0599 -0.1186 -0.2567
    1WF      WF69011  28.308  22.682   1.242  0.0032 -0.1958 -0.1007
    1WF      WF69012   9.820  11.290   1.205  0.0803 -0.3220  0.1306
    1WF      WF69013  21.296  24.999   2.633  0.1213  0.2930 -0.1998
    1WF      WF69014   7.037   2.942   7.084  0.1972 -0.2379 -0.0765
    1WF      WF69015  15.171  29.664   0.412 -0.0599 -0.0342 -0.7453
    1WF      WF69016  17.784  10.375   0.479 -0.0824  0.0248  0.1764
    1WF      WF69017  17.157   8.581   1.942 -0.2367 -0.1278  0.2179
    1WF      WF69018   1.076   0.087   2.104  0.1786  0.0081  0.4060
    1WF      WF69019   4.712  14.343   2.419 -0.2712  0.0346 -0.2396
    1WF      WF69020   6.316   5.160   1.245 -0.1961  0.1732 -0.1470
    1WF      WF69021  15.065   0.115   8.863 -0.0907 -0.1328  0.1132
    1WF      WF69022   9.238  18.795   8.059  0.0046  0.3635  0.0335
    1WF      WF69023  22.352  11.031   8.588 -0.0305 -0.1891  0.1544
    1WF      WF69024  18.009  24.587   0.200  0.4204  0.2292  0.1140
    1WF      WF69025   2.350  24.609   1.555  0.2958  0.2348  0.4898
    1WF      WF69026  16.579  16.969   1.791 -0.1132 -0.2307  0.1467
    1WF      WF69027  24.404   1.003   1.384 -0.1025 -0.0204  0.2970
    1WF      WF69028  21.030  21.979   8.559  0.2870  0.0734 -0.3179
    1WF      WF69029   7.933   4.887   2.362 -0.2231 -0.0588 -0.3005
    1WF      WF69030   1.248  19.320   0.094 -0.0665 -0.3268 -0.0669
    1WF      WF69031  12.922  14.683   7.337  0.0539 -0.2581 -0.1149
    1WF      WF69032  14.525   6.066   8.557 -0.1568 -0.0850  0.1013
    1WF      WF69033   6.115  13.125   1.416  0.0120  0.1557 -0.0464
    1WF      WF69034  15.635  11.578   8.508  0.2050 -0.0716 -0.1943
    1WF      WF69035   6.461  21.667   7.631  0.2124 -0.0717  0.0318
    1WF      WF69036  22.767  21.098   8.902  0.1923 -0.5690  0.1858
    1WF      WF69037  24.450   5.836   0.976 -0.1279 -0.3310 -0.1021
    1WF      WF69038  26.507  24.350   9.427 -0.6387 -0.4859 -0.0439
    1WF      WF69039  18.167  19.260   2.521 -0.1795 -0.0510  0.1286
    1WF      WF69040   9.551  22.501   9.551 -0.0107  0.1434 -0.0135
    1WF      WF69041  22.626   7.838   1.015 -0.0558  0.1265 -0.0045
    1WF      WF69042  25.774   6.834   8.898  0.3711  0.0810  0.0917
    1WF      WF69043   8.525  26.062   0.658 -0.0408  0.2211  0.0322
    1WF      WF69044  10.928  21.051   0.561 -0.1840 -0.0713  0.0428
    1WF      WF69045   3.832  26.538   6.927  0.2182  0.1725 -0.3694
    1WF      WF69046  12.403  16.593   8.151 -0.0200  0.0785  0.1794
    1WF      WF69047   6.219  21.469   9.092 -0.1606 -0.0132 -0.2720
    1WF      WF69048  16.103  13.328   0.915  0.3512  0.1544  0.2048
    1WF      WF69049  24.512  22.621   2.002 -0.1451 -0.2604 -0.0840
    1WF      WF69050  25.325   9.665   0.250 -0.0111 -0.4488 -0.4515
    1WF      WF69051  18.689   5.277   2.572  0.1314 -0.4123 -0.3570
    1WF      WF69052  12.648   2.736   9.016 -0.1404  0.1640 -0.0184
    1WF      WF69053   7.515  20.860   8.562  0.0555 -0.0046  0.1953
    1WF      WF69054  16.115  24.894   8.349  0.2037 -0.0284  0.0197
    1WF      WF69055  12.418  10.788   7.345 -0.0303 -0.1200  0.2244
    1WF      WF69056   6.352  29.742   1.852 -0.1151 -0.1349  0.1487
    1WF      WF69057  18.787  22.256   1.126  0.0585  0.1781 -0.0182
    1WF      WF69058   0.382  11.368   8.349 -0.1971  0.3335  0.0737
    1WF      WF69059   8.837  14.656   7.690 -0.2458 -0.2024 -0.2461
    1WF      WF69060  29.262  29.649   1.558 -0.1302 -0.2807 -0.0807
    1WF      WF69061   6.374  19.957   7.744  0.1181  0.1569 -0.2676
    1WF      WF69062  12.531  28.590   2.431  0.2149 -0.0673 -0.2077
    1WF      WF69063  23.923  10.592   2.373 -0.3253  0.4884  0.1529
    1WF      WF69064  29.429  25.488   1.842  0.1447  0.0275 -0.0468
    1WF      WF69065  12.402  20.833   8.718  0.3472  0.2375  0.1372
    1WF      WF69066   8.209   4.631   3.833  0.2142 -0.0844  0.2470
    1WF      WF69067  12.931  10.042   2.731  0.0596  0.0128 -0.0909
    1WF      WF69068   3.079   8.896   7.822 -0.0492 -0.2087  0.0512
    1WF      WF69069   9.911  10.972   6.836 -0.0773 -0.3595  0.1399
    1WF      WF69070   3.773   2.870   9.296 -0.3382 -0.0020  0.1928
    1WF      WF69071  13.037  19.545   8.492  0.0393  0.3099 -0.2561
    1WF      WF69072   5.532   1.356   7.826 -0.0005  0.0072 -0.1041
    1WF      WF69073   9.441  26.928   1.674  0.2073 -0.0228 -0.0815
    1WF      WF69074   1.975  26.961   7.991  0.2134  0.0541  0.0176
    1WF      WF69075  17.954   3.158   9.406  0.4911 -0.1097 -0.0971
    1WF      WF69076   0.968  20.650   9.197  0.0220  0.0084 -0.0009
    1WF      WF69077  26.967  27.897   8.147 -0.0426 -0.0468  0.0232
    1WF      WF69078  24.187  21.141   1.254  0.1178  0.2313 -0.0109
    1WF      WF69079  28.120  14.125   7.667 -0.1727 -0.0805  0.0238
    1WF      WF69080  22.613  19.428   8.529 -0.2121  0.2664 -0.2897
    1WF      WF69081  10.490   2.120   8.556 -0.1114 -0.1885  0.0088
    1WF      WF69082  17.414  19.313   9.249 -0.1978  0.1416  0.1311
    1WF      WF69083   4.603   0.616   0.721  0.1172  0.0660 -0.1280
    1WF      WF69084  26.128  17.091   9.381 -0.0178 -0.1009  0.3690
    1WF      WF69085  29.019   9.509   7.087 -0.1610  0.2102  0.0056
    1WF      WF69086  17.327  22.037   1.926 -0.0738  0.4691  0.1725
    1WF      WF69087  16.998  16.484   8.443 -0.1479 -0.0708  0.0419
    1WF      WF69088   9.191  20.904   9.202  0.0244 -0.0412 -0.2450
    1WF      WF69089  25.536   6.821   9.322  0.3880 -0.3117  0.0215
    1WF      WF69090  12.089  28.240   1.315 -0.0520 -0.0769 -0.1138
    1WF      WF69091  26.868   5.979   9.059 -0.1472 -0.1140 -0.0695
    1WF      WF69092  10.118  24.351   6.346  0.2502  0.5992 -0.1805
    1WF      WF69093  23.707  14.064   9.532 -0.0053 -0.1165  0.1332
    1WF      WF69094  10.549   3.500   0.013 -0.0995 -0.1160 -0.0162
    1WF      WF69095  15.587   9.884   8.770 -0.1253  0.2529 -0.4599
    1WF      WF69096  13.695  13.832   8.697  0.0202 -0.0344 -0.1037
    1WF      WF69097  20.503  22.925   7.418  0.1728 -0.2465  0.0646
    1WF      WF69098   0.949   4.062   0.672 -0.0672  0.1172  0.1119
    1WF      WF69099  22.666  22.053   7.332 -0.1132 -0.1038 -0.0170
    1WF      WF69100  28.883   9.343   8.489 -0.0755  0.2865  0.2190
    1WF      WF69101  19.752  18.711   8.416  0.3988 -0.1290  0.3630
    1WF      WF69102   6.364  26.242   2.627  0.1429 -0.0358  0.2580
    1WF      WF69103  12.835   4.922   0.614 -0.0317 -0.0748  0.2120
    1WF      WF69104   2.635   0.999   0.566 -0.1491 -0.0297  0.1519
    1WF      WF69105   6.356   4.646   2.707  0.1922 -0.2246 -0.1671
    1WF      WF69106   6.413   5.752   0.070 -0.2319 -0.0360 -0.0166
    1WF      WF69107  14.020  23.925   0.750 -0.3312 -0.0063 -0.1949
    1WF      WF69108   5.369   9.936   8.071  0.1396  0.1599  0.1397
    1WF      WF69109  12.897   9.907   3.201 -0.1646  0.0882 -0.1891
    1WF      WF69110   7.753  19.951   8.937 -0.0116 -0.2174 -0.2659
    1WF      WF69111   5.948  25.986   2.673  0.2486 -0.0545 -0.0397
    1WF      WF69112  20.072  15.659   7.827  0.0379 -0.0230 -0.3056
    1WF      WF69113  10.327   2.792   1.405 -0.2447  0.0019 -0.4911
    1WF      WF69114   6.016  11.040   6.766 -0.1027 -0.1288  0.1935
    1WF      WF69115  27.847  29.179   8.766 -0.1078  0.0849  0.0468
    1WF      WF69116  26.295   3.526   2.069  0.0918  0.0377 -0.0150
    1WF      WF69117  24.330   9.326   1.290 -0.1505 -0.0875  0.2398
    1WF      WF69118  13.999  26.808   1.341  0.3609  0.0135  0.1411
    1WF      WF69119  23.293  15.960   8.928  0.1079  0.0416  0.0165
    1WF      WF69120  17.600   8.465   1.717  0.0699  0.0203 -0.0631
    1WF      WF69121  20.986  13.459   9.188 -0.1346 -0.0982 -0.0039
    1WF      WF69122  11.779  25.239   0.287 -0.1178 -0.1854  0.0559
    1WF      WF69123  28.961   7.883   8.971 -0.2964  0.1779 -0.1858
    1WF      WF69124  16.582  23.983   2.124  0.0851 -0.2181  0.1096
    1WF      WF69125  15.962  23.951   0.590  0.1148 -0.1807  0.2547
    1WF      WF69126  21.016  18.450   8.006 -0.0461  0.0743 -0.1043
    1WF      WF69127  14.715   6.315   0.528 -0.2894 -0.0906 -0.1416
    1WF      WF69128  14.204  21.066   7.864  0.4175  0.0301 -0.1722
    1WF      WF69129   5.853  24.672   8.259  0.4149  0.0271 -0.2087
    1WF      WF69130   3.825   6.020   7.685 -0.1379  0.0641 -0.3670
    1WF      WF69131  18.644  16.225   0.356  0.1575  0.0406  0.2210
    1WF      WF69132  14.415  26.784   8.495  0.2464 -0.3079  0.2047
    1WF      WF69133  29.240  16.695   7.119  0.2647 -0.1695 -0.1055
    1WF      WF69134   2.881  16.569   9.385 -0.0122 -0.0103  0.0404
    1WF      WF69135  13.313   9.011   0.497 -0.4251 -0.2125  0.2772
    1WF      WF69136  24.337  13.712   7.445 -0.0564 -0.0479 -0.3653
    1WF      WF69137   1.394   5.415   1.242 -0.0250 -0.2861  0.1965
    1WF      WF69138  16.826  23.530   0.837 -0.1858  0.1231  0.3201
    1WF      WF69139  16.749  28.694   6.088 -0.0388 -0.1119  0.0662
    1WF      WF69140  21.441   3.794   8.711 -0.2324  0.0694  0.0800
    1WF      WF69141   2.345  10.139   8.326  0.2341  0.0164 -0.1294
    1WF      WF69142   6.076  12.417   1.370 -0.1084  0.3664 -0.0123
    1WF      WF69143  20.262   2.354   9.062 -0.0405  0.0181  0.0719
    1WF      WF69144  28.782  13.571   0.646  0.0635 -0.0053 -0.0065
    1WF      WF69145  20.111  26.077   8.077  0.0891 -0.0247 -0.3262
    1WF      WF69146  17.898  14.856   7.576  0.2508  0.3552  0.0899
    1WF      WF69147   7.247  25.978   3.163 -0.0611  0.1722 -0.0037
    1WF      WF69148  15.227   5.556   1.139  0.1205 -0.2337 -0.1301
    1WF      WF69149  14.192  13.603   1.472 -0.1957 -0.0170 -0.1866
    1WF      WF69150   1.672  27.056   8.378  0.1894 -0.1902  0.1089
    1WF      WF69151  14.592  12.105   7.982  0.0293 -0.0609  0.0126
    1WF      WF69152  23.076  20.326   5.418 -0.0570  0.0348 -0.1121
    1WF      WF69153  26.256  16.620   6.691 -0.0440  0.0579  0.1373
    1WF      WF69154  22.328  18.795   0.960 -0.1161  0.0508  0.1888
    1WF      WF69155  23.406  16.044   7.521  0.2311  0.0064  0.3301
    1WF      WF69156  15.174  17.469   9.524 -0.0220 -0.1594  0.0241
    1WF      WF69157  23.986  28.131   0.141  0.0389  0.1693 -0.0271
    1WF      WF69158  26.654  10.906   0.141  0.1461 -0.0708  0.1805
    1WF      WF69159  20.649  24.215   7.520  0.0596  0.0195 -0.2898
    1WF      WF69160  13.160  21.279   6.294 -0.1794  0.0954 -0.0068
    1WF      WF69161  16.542  19.205   0.167  0.0032 -0.0291 -0.0648
    1WF      WF69162  12.937   3.408   6.370 -0.2312 -0.1946 -0.1373
    1WF      WF69163   6.084  28.351   0.775  0.2525  0.1960 -0.0658
    1WF      WF69164  16.917  21.602   0.959 -0.0696 -0.1413 -0.3355
    1WF      WF69165   2.655   3.698   8.878  0.0299  0.0908  0.0119
    1WF      WF69166  22.753  19.399   8.050 -0.0960  0.3129 -0.3256
    1WF      WF69167   0.244  28.536   8.128 -0.2813  0.2196  0.0892
    1WF      WF69168  12.860  22.127   1.411  0.0912  0.0653  0.0520
    1WF      WF69169   8.477  26.322   9.326  0.1234  0.1743 -0.4435
    1WF      WF69170  27.926  10.864   0.999 -0.0806  0.2163  0.0187
    1WF      WF69171  26.393   4.000   8.728 -0.1067  0.2357  0.0586
    1WF      WF69172   1.375  15.749   8.513 -0.1647  0.3654  0.0821
    1WF      WF69173  21.086  16.198   0.555 -0.1541 -0.2014  0.1550
    1WF      WF69174  22.871   3.914   1.370 -0.2118 -0.0140 -0.0714
    1WF      WF69175   6.484  16.248   9.380 -0.0389  0.3031 -0.1523
    1WF      WF69176  23.448  17.412   7.196 -0.1946 -0.0631  0.0445
    1WF      WF69177   8.483  24.750   1.137  0.0859 -0.0481 -0.0414
    1WF      WF69178  13.540  29.011   1.549 -0.1960 -0.1036  0.2304
    1WF      WF69179  22.806   3.303   8.095  0.0524 -0.1625 -0.1632
    1WF      WF69180  12.673  14.323   1.263  0.1671  0.0053 -0.1091
    1WF      WF69181  24.282  15.158   6.688  0.2427  0.0640  0.1585
    1WF      WF69182  19.404  12.476   8.911 -0.1860  0.1275  0.1483
    1WF      WF69183  14.390   0.399   7.240 -0.1693 -0.2380  0.2416
    1WF      WF69184  13.324   0.735   2.138  0.0496  0.1820  0.2448
    1WF      WF69185  20.504   0.549   8.779  0.2991  0.0327 -0.0510
    1WF      WF69186   6.707   9.158   0.810  0.1765  0.0459  0.1570
    1WF      WF69187  29.331  15.383   0.543 -0.2543  0.1137  0.0192
    1WF      WF69188  12.357   6.399   1.023 -0.0712  0.1536 -0.0395
    1WF      WF69189  22.303  26.149   1.993 -0.2355  0.3370 -0.0301
    1WF      WF69190  24.292   5.436   0.779 -0.1060  0.2348 -0.3697
    1WF      WF69191  24.181  20.696   8.848 -0.0586 -0.0658 -0.0806
    1WF      WF69192  17.436   4.619   1.711 -0.0904 -0.2021  0.0190
    1WF      WF69193  18.080  17.252   8.601 -0.2853  0.2277  0.1488
    1WF      WF69194   6.051   7.041   9.403 -0.0385 -0.4460  0.0838
    1WF      WF69195  20.880   0.817   7.693 -0.3998 -0.2443  0.1231
    1WF      WF69196   2.866  13.657   6.685  0.1016  0.3363 -0.1494
    1WF      WF69197   1.108  23.517   0.379  0.0309  0.3574 -0.0086
    1WF      WF69198  24.041  22.267   6.681 -0.2317  0.3048 -0.4352
    1WF      WF69199  18.983  19.081   9.323  0.2836  0.0665  0.3697
    1WF      WF69200  20.157  26.976   2.322  0.0119  0.0094 -0.0708
    1WF      WF69201  23.020  26.915   3.557  0.0523 -0.1579 -0.0772
    1WF      WF69202   3.024  18.840   0.773 -0.0351  0.0924  0.0901
    1WF      WF69203  28.526   4.186   7.395 -0.1537 -0.0450 -0.1769
    1WF      WF69204   2.403  14.271   2.290  0.1374  0.2878  0.3591
    1WF      WF69205  29.197   1.279   8.092 -0.2469  0.1537  0.0428
    1WF      WF69206  18.736  12.383   7.953 -0.1196  0.0893 -0.0999
    1WF      WF69207  27.758  27.119   8.792 -0.0330  0.3746 -0.0203
    1WF      WF69208  16.143   5.030   9.086  0.2680 -0.1358 -0.1501
    1WF      WF69209   3.168  19.185   0.022  0.2710 -0.2533 -0.0557
    1WF      WF69210  28.913   2.739   0.497  0.3273  0.2662 -0.1854
    1WF      WF69211   5.421  16.891   0.676  0.1651  0.0804 -0.2548
    1WF      WF69212  13.970  12.510   9.035 -0.4551  0.1655 -0.0574
    1WF      WF69213  21.386   3.633   9.200  0.0621  0.1063  0.1068
    1WF      WF69214   9.502   2.257   8.696 -0.3673  0.0323 -0.0798
    1WF      WF69215   6.103  27.013   1.106 -0.2120 -0.1168  0.0740
    1WF      WF69216  20.659   3.270   8.873  0.0980 -0.2663  0.2114
    1WF      WF69217  24.583  18.751   9.541  0.0512 -0.0930  0.1441
    1WF      WF69218  25.626   5.951   2.260 -0.1006 -0.2753  0.2697
    1WF      WF69219   2.122   5.038   0.456  0.2889  0.0480 -0.0200
    1WF      WF69220   1.347  16.517   0.422  0.0742  0.1933  0.0017
    1WF      WF69221  16.214  28.952   6.072  0.1494  0.0304 -0.0217
    1WF      WF69222  25.163  22.951   0.612 -0.1426 -0.0681  0.0867
    1WF      WF69223  19.320  22.031   7.203  0.0754  0.0203  0.2406
    1WF      WF69224  19.628  26.687   0.776  0.0492 -0.1261  0.1125
    1WF      WF69225   2.311  28.676   0.671  0.2816 -0.2978  0.0052
    1WF      WF69226  13.340   8.870   6.611 -0.2871 -0.0158  0.0641
    1WF      WF69227  10.613  28.743   0.746 -0.3909  0.1516  0.1703
    1WF      WF69228   5.465  20.798   8.803  0.2726  0.0044  0.1895
    1WF      WF69229  20.234   7.231   1.955 -0.1075  0.2181  0.3643
    1WF      WF69230   8.575   2.260   9.475  0.0587  0.3101  0.3725
    1WF      WF69231  14.231   8.613   1.420  0.1310  0.0176 -0.0729
    1WF      WF69232   8.032   7.593   8.415 -0.3299 -0.1368  0.0950
    1WF      WF69233  11.920  16.707   8.310 -0.1676 -0.1941  0.2358
    1WF      WF69234  16.327  11.049   8.699  0.2845 -0.2111  0.2633
    1WF      WF69235   2.464  14.552   8.143 -0.3168  0.2283 -0.3296
    1WF      WF69236   8.081  17.952   0.171 -0.1279 -0.1175 -0.0148
    1WF      WF69237  21.056  19.905   0.684  0.0467 -0.0860 -0.1719
    1WF      WF69238  24.885   5.875   1.343  0.1547 -0.1393  0.0077
    1WF      WF69239  13.783   4.751   0.009  0.1258 -0.0914 -0.0919
    1WF      WF69240  13.822  14.590   8.424  0.5446 -0.1262  0.0901
    1WF      WF69241  11.875   9.656   1.519 -0.1721 -0.0526 -0.3397
    1WF      WF69242  22.750  19.586   0.938  0.1343 -0.0543 -0.0693
    1WF      WF69243  15.146  23.269   9.143  0.0986 -0.0609 -0.0438
    1WF      WF69244   2.531   8.682   0.803  0.0253  0.0266  0.0185
    1WF      WF69245  29.262   1.977   1.228 -0.0732 -0.1741  0.3674
    1WF      WF69246  15.078   2.854   0.425  0.1852 -0.1973 -0.1030
    1WF      WF69247  29.583   6.738   1.271  0.1606  0.1081  0.1292
    1WF      WF69248  29.451  23.875   9.038  0.0483  0.0604 -0.0287
    1WF      WF69249   6.278   0.097   0.848 -0.0590  0.2656  0.2000
    1WF      WF69250   2.634  13.664   8.522  0.1777  0.0742  0.1436
    1WF      WF69251  10.909  11.355   1.557  0.0054  0.0326 -0.2011
    1WF      WF69252  28.835   6.200   2.591  0.2280  0.0524  0.0403
    1WF      WF69253  26.455  22.817   8.914  0.3190  0.0075  0.0034
    1WF      WF69254   9.528   5.229   7.637  0.0420  0.2475  0.0319
    1WF      WF69255  28.189  26.707   3.224  0.0278  0.0447 -0.0545
    1WF      WF69256  21.592   6.294   1.293 -0.1428 -0.2862  0.2047
    1WF      WF69257  23.647  10.634   8.363 -0.1823  0.1443  0.0234
    1WF      WF69258   8.907   1.055   9.028 -0.0847 -0.2156 -0.0241
    1WF      WF69259  11.703  10.215   8.758 -0.1720  0.4418 -0.1077
    1WF      WF69260  23.186   3.038   1.727 -0.2548  0.3244  0.3115
    1WF      WF69261  17.938   1.922   1.711  0.1334 -0.2794 -0.0240
    1WF      WF69262  10.220   7.114   9.428 -0.2813  0.1583  0.2182
    1WF      WF69263  14.512  20.712   1.889  0.1196 -0.2471 -0.1015
    1WF      WF69264  26.992  16.017   7.250 -0.2699  0.1390  0.1848
    1WF      WF69265  21.496   3.451   8.320  0.2521 -0.4359  0.1212
    1WF      WF69266  10.862   3.282   1.555 -0.3217 -0.0510  0.3232
    1WF      WF69267  15.314  12.946   8.076 -0.2251 -0.0604  0.0001
    1WF      WF69268  21.381   8.599   7.165  0.2355  0.2201  0.0143
    1WF      WF69269  22.251   4.535   2.005  0.1780 -0.0323  0.2334
    1WF      WF69270  26.904  15.416   7.145 -0.0990 -0.0846 -0.1118
    1WF      WF69271  14.474  24.766   8.681 -0.0823 -0.1060 -0.0376
    1WF      WF69272  19.614  11.278   5.922  0.1617  0.2485  0.0580
    1WF      WF69273  10.044   0.813   6.716  0.1428  0.2163  0.1686
    1WF      WF69274  29.418   2.815   0.396  0.3149  0.1473 -0.1186
    1WF      WF69275  13.487  22.022   9.445  0.3859 -0.0097  0.2168
    1WF      WF69276  24.680   7.423   1.465 -0.0423  0.2271  0.1768
    1WF      WF69277  20.218   3.076   7.725 -0.1772 -0.4940  0.0175
    1WF      WF69278  12.539   2.600   1.008  0.1208 -0.2533 -0.0013
    1WF      WF69279  19.877  25.134   2.535  0.1620 -0.1947 -0.0765
    1WF      WF69280  10.109   6.474   2.431 -0.1257  0.1091 -0.1456
    1WF      WF69281   3.238  27.587   8.897  0.1217  0.2651 -0.2335
    1WF      WF69282  25.979  10.016   1.522 -0.1472 -0.0189  0.2547
    1WF      WF69283  17.985   6.527   0.673  0.1831  0.1042 -0.0333
    1WF      WF69284  16.321  10.276   8.013  0.1139 -0.1092 -0.1200
    1WF      WF69285  13.522  14.897   8.731  0.0617  0.0265 -0.0971
    1WF      WF69286  28.132   0.896   2.011  0.0229 -0.1500  0.0795
    1WF      WF69287  19.578   3.058   1.996 -0.1792 -0.0399 -0.0493
    1WF      WF69288   3.810   5.854   9.447 -0.0900  0.0876 -0.1807
    1WF      WF69289  12.409  15.814   1.115  0.0765 -0.0436  0.1443
    1WF      WF69290  12.593  14.094   1.738 -0.3708 -0.0043 -0.0213
    1WF      WF69291   0.508   6.975   0.775  0.3686  0.2144 -0.0427
    1WF      WF69292   1.476   1.765   7.778  0.0625  0.0425 -0.1301
    1WF      WF69293  25.198  19.576   1.614 -0.3387  0.2065  0.0548
    1WF      WF69294  28.710   9.073   9.186  0.2117  0.3811 -0.2107
    1WF      WF69295   9.494  10.045   8.381 -0.0141  0.1538 -0.2061
    1WF      WF69296  13.724   4.311   1.421  0.0277 -0.0068  0.0204
    1WF      WF69297   6.561   3.034   1.301  0.1046  0.2404 -0.2569
    1WF      WF69298  15.786   4.808   3.175  0.1395 -0.1106  0.0988
    1WF      WF69299   7.869  13.184   8.576 -0.0627  0.2153 -0.1989
    1WF      WF69300  21.093  24.815   2.147  0.2319 -0.0874  0.3192
    1WF      WF69301  19.048   2.519   0.570  0.0027  0.0258 -0.1395
    1WF      WF69302   3.949   7.891   9.080  0.2781  0.1731 -0.1340
    1WF      WF69303  26.726  15.529   8.654  0.0162 -0.0104 -0.0880
    1WF      WF69304  20.636  19.403   0.069  0.1193 -0.0108  0.1053
    1WF      WF69305  24.637  10.575   6.706  0.2852 -0.0605  0.2703
    1WF      WF69306  11.261   5.912   1.156 -0.1216 -0.1612 -0.1757
    1WF      WF69307  11.398  10.477   2.102 -0.1079 -0.4301  0.0042
    1WF      WF69308  17.755  22.241   1.778  0.0060 -0.0117  0.3522
    1WF      WF69309   0.696   7.146   8.453 -0.0755 -0.2284  0.0744
    1WF      WF69310  12.579  21.247   1.263 -0.2261 -0.1482  0.1228
    1WF      WF69311  21.225  29.139   3.237 -0.0243 -0.0889  0.1938
    1WF      WF69312   4.394  23.148   1.385  0.0064 -0.1445  0.0090
    1WF      WF69313   3.441   6.039   8.002  0.0760  0.1846  0.0229
    1WF      WF69314  11.738  22.376   8.117  0.3307 -0.0301 -0.1726
    1WF      WF69315  16.706  28.650   1.154 -0.2996  0.0773 -0.1285
    1WF      WF69316  12.922   7.590   0.356 -0.0436 -0.1174 -0.4097
    1WF      WF69317   7.015  17.850   8.640 -0.2102 -0.1806  0.0585
    1WF      WF69318  19.032  20.726   8.007  0.0744 -0.3552 -0.0301
    1WF      WF69319  16.541  29.330   3.171 -0.3578 -0.0680 -0.1369
    1WF      WF69320   7.613   0.764   1.937  0.0659 -0.2694  0.2863
    1WF      WF69321  19.868  24.729   7.234  0.0898 -0.0225  0.1614
    1WF      WF69322  22.527  12.727   7.442  0.2527  0.2352  0.0416
    1WF      WF69323  25.187   3.387   8.392 -0.0684  0.2473  0.3161
    1WF      WF69324   4.240   4.075   0.028  0.1953  0.0227 -0.0578
    1WF      WF69325  12.874  18.590   8.678  0.0361  0.3740 -0.0181
    1WF      WF69326  10.725  29.689   2.052 -0.0026  0.2547  0.2442
    1WF      WF69327   7.392  29.598   2.114 -0.0197  0.1130  0.2619
    1WF      WF69328  22.211  22.023   0.221  0.2582  0.2153  0.0818
    1WF      WF69329   1.449  17.694   9.199  0.0259  0.0841  0.0426
    1WF      WF69330   6.848   5.756   1.629 -0.0317  0.0065 -0.0404
    1WF      WF69331  21.218   5.141   7.342  0.3519  0.1449  0.1479
    1WF      WF69332  26.011  17.997   0.170 -0.0484  0.0425  0.2586
    1WF      WF69333  12.477  11.642   9.133  0.0695 -0.1560  0.0048
    1WF      WF69334   7.592  27.484   2.568  0.1655  0.0741  0.0810
    1WF      WF69335   7.394  16.353   8.707 -0.0438 -0.4001  0.0749
    1WF      WF69336  13.002  23.099   7.612  0.0335 -0.1128 -0.0638
    1WF      WF69337  25.614   6.220   8.087  0.0883 -0.2209 -0.0149
    1WF      WF69338   3.121   8.140   1.374 -0.1531 -0.1431  0.2617
    1WF      WF69339  28.377  15.353   9.260 -0.3143  0.0944 -0.4245
    1WF      WF69340  20.518  19.644   8.431  0.1153 -0.1722 -0.0342
    1WF      WF69341   0.052  28.662   8.548 -0.0583  0.2055  0.1054
    1WF      WF69342  21.652  27.300   1.764 -0.2983  0.0922  0.2934
    1WF      WF69343  21.644  22.133   0.516  0.2109 -0.1925  0.4397
    1WF      WF69344  29.411   7.682   8.854 -0.0124 -0.3306 -0.0292
    1WF      WF69345   9.971  16.284   1.487 -0.1717 -0.1368  0.0814
    1WF      WF69346  12.381  26.947   7.642  0.1208  0.0284  0.0711
    1WF      WF69347  24.213   4.916   8.169  0.5138  0.2427  0.3114
    1WF      WF69348  11.139   9.205   0.157  0.0203 -0.0474 -0.0888
    1WF      WF69349   6.433  29.766   1.272 -0.0443  0.1572 -0.0502
    1WF      WF69350  28.744  24.840   8.393  0.3043  0.1186 -0.0959
    1WF      WF69351  15.880  18.296   8.460  0.1976 -0.1215 -0.1458
    1WF      WF69352   0.274  23.165   9.210 -0.1560  0.0151 -0.2419
    1WF      WF69353   0.556   3.389   7.390 -0.1945 -0.1324  0.1838
    1WF      WF69354  19.048   0.670   2.766  0.2917  0.3039 -0.2801
    1WF      WF69355  17.131  29.063   1.373 -0.1228 -0.0299  0.1592
    1WF      WF69356  26.904   4.339   1.007  0.1733  0.5040  0.3362
    1WF      WF69357   2.578  13.238   8.279  0.4157 -0.0037  0.2012
    1WF      WF69358   8.094  16.505   0.416 -0.0740 -0.0412 -0.1384
    1WF      WF69359   2.286  26.316   1.688  0.1111  0.2288  0.0209
    1WF      WF69360  19.822  26.528   8.000  0.0590 -0.2205 -0.2954
    1WF      WF69361   0.497  14.994   8.454  0.1560 -0.3037 -0.1242
    1ION     NA69362  15.139   1.925   7.884 -0.3757  0.1581 -0.5495
    1ION     NA69363   6.497  14.052   2.730 -0.1823 -0.0818  0.0282
    1ION     NA69364  18.873  21.580   0.922  0.5352  0.1501  0.1335
    1ION     NA69365  20.251  26.441   9.514 -0.1878  0.2257 -0.2509
    1ION     NA69366   1.453  25.320   3.329  0.1132 -0.0524 -0.0408
    1ION     NA69367  10.918  23.415   6.592  0.0086  0.0685 -0.0263
    1ION     NA69368  16.050  23.191   9.277  0.0648 -0.4456  0.1103
    1ION     NA69369  14.542  21.019   1.565  0.0318 -0.1755  0.1998
    1ION     NA69370  21.666  29.556   1.699 -0.1769 -0.1900  0.0392
    1ION     NA69371  21.109  15.297   9.260 -0.1009  0.0553  0.1058
    1ION     NA69372  14.726  24.475   0.971 -0.2943 -0.0219 -0.0188
    1ION     NA69373  25.381  20.195   8.254 -0.1869  0.1250  0.1056
    1ION     NA69374   4.971   4.177   7.810  0.0583 -0.1070  0.1866
    1ION     NA69375   1.539   6.215   8.862  0.1019  0.2376  0.0743
    1ION     NA69376  22.576  28.460   9.374 -0.4457  0.1957 -0.1974
    1ION     NA69377  25.038  23.858   7.902  0.2229  0.1910 -0.1544
    1ION     NA69378   6.559   1.397   1.513  0.1371  0.0577 -0.0255
    1ION     NA69379   2.363  24.903   7.094  0.1164 -0.0254 -0.0924
    1ION     NA69380   0.443   8.827   2.597  0.1167  0.2768 -0.4075
    1ION     NA69381   9.980  24.606   6.779 -0.0539 -0.2161  0.0585
    1ION     NA69382  13.071  23.513   6.137 -0.0982 -0.0669  0.2400
    1ION     NA69383  19.457  12.572   2.254 -0.1102  0.1177 -0.3197
    1ION     NA69384  14.553   1.292   9.430 -0.0314 -0.0450  0.1698
    1ION     NA69385   3.588  28.257   6.167 -0.1234 -0.1398 -0.1148
    1ION     NA69386   7.002  10.676   2.085  0.1386 -0.0913  0.2171
    1ION     NA69387  26.507  21.271   8.254  0.0439  0.1624  0.0029
    1ION     NA69388  22.381   2.549   1.527 -0.1140  0.2360 -0.2393
    1ION     NA69389   3.656  18.511   0.580 -0.2023  0.2323  0.2510
    1ION     NA69390  24.667   1.504   9.493  0.1069  0.2081 -0.0471
    1ION     NA69391  29.524  10.646   8.706 -0.2078 -0.0489  0.1922
    1ION     NA69392  20.317   9.591   0.627  0.3144 -0.3055  0.2577
    1ION     NA69393   3.735  11.941   1.226 -0.1886 -0.1443 -0.2088
    1ION     NA69394   5.853  21.295   6.984  0.4050 -0.1772  0.2846
    1ION     NA69395  14.490  28.123   7.847  0.3939 -0.2667  0.0985
    1ION     NA69396   2.124   8.387   8.913 -0.0458 -0.1035 -0.0335
    1ION     NA69397  13.272  14.337   7.165 -0.0374 -0.2813 -0.0377
    1ION     NA69398  16.236   6.405   2.372  0.1345 -0.1442  0.0508
    1ION     NA69399   2.482   7.724   9.268 -0.0476  0.2980 -0.1762
    1ION     NA69400   9.212  12.625   0.591 -0.0152 -0.1017 -0.3922
    1ION     NA69401   7.703  21.750   1.214  0.0640 -0.0026  0.0120
    1ION     NA69402  21.291   8.259   8.555 -0.0133  0.2086  0.2861
    1ION     NA69403   8.242   2.893   7.620  0.1041 -0.0210 -0.1663
    1ION     NA69404  10.091   5.168   0.197  0.1486 -0.0298 -0.1977
    1ION     NA69405   4.504  27.111   6.221  0.0460  0.1522 -0.1606
    1ION     NA69406   6.256  12.761   7.066  0.2354  0.0565 -0.0810
    1ION     NA69407  13.189  13.429   6.995 -0.0501  0.0913 -0.2105
    1ION     NA69408  24.244  24.954   2.949  0.2948  0.0727 -0.0861
    1ION     NA69409   5.079  18.856   0.181  0.0494  0.2217  0.0565
    1ION     NA69410   4.871  14.620   6.730 -0.2789  0.1949 -0.0404
    1ION     NA69411   2.272  29.774   2.429 -0.0630  0.1366 -0.5354
    1ION     NA69412   4.886   1.849   9.150  0.1370 -0.4159 -0.1315
    1ION     NA69413  20.781  10.347   6.242  0.3467 -0.2412 -0.0743
    1ION     NA69414  11.148  29.149   7.142  0.0301 -0.1129 -0.1449
    1ION     NA69415  10.626   0.237   7.367 -0.0377  0.0632 -0.1409
    1ION     NA69416  11.636  13.328   7.187  0.2095  0.0636 -0.2722
    1ION     NA69417  12.780   4.465   6.977  0.0625 -0.1793 -0.1805
    1ION     NA69418  26.611  11.905   9.049 -0.1777 -0.0074  0.2515
    1ION     NA69419   2.634  21.714   7.256  0.0223 -0.1776 -0.0529
    1ION     NA69420  29.687  23.214   6.909 -0.0303 -0.0890  0.2628
    1ION     NA69421  16.407  25.905   2.440  0.1384  0.0134 -0.1747
    1ION     NA69422  10.770  21.216   8.365 -0.1200  0.0368 -0.1205
    1ION     NA69423   5.540  11.315   6.929 -0.2857  0.0369  0.4351
    1ION     NA69424  20.122   7.304   0.532  0.0403 -0.0069  0.0881
    1ION     NA69425  12.850   3.991   1.731 -0.0032 -0.1525  0.1135
    1ION     NA69426  11.506  14.064   1.553  0.0504  0.2549 -0.0385
    1ION     NA69427  28.760  29.679   1.568 -0.2637  0.0323  0.3550
    1ION     NA69428  18.031  28.868   2.147  0.3806  0.1135  0.2051
    1ION     NA69429  28.699  28.100   9.117 -0.0340  0.0951 -0.2010
    1ION     NA69430  12.438  27.343   7.364 -0.1715 -0.0161 -0.1418
    1ION     NA69431   2.935  27.058   6.832  0.0043 -0.1143  0.1629
    1ION     NA69432  26.140  13.410   8.656  0.0119 -0.3490  0.0011
    1ION     NA69433  13.686   4.778   6.822 -0.0079 -0.4394  0.2256
    1ION     NA69434  23.721  20.655   1.207 -0.1997  0.2517 -0.1569
    1ION     NA69435   7.198   7.287   1.156 -0.1609 -0.1864 -0.1554
    1ION     NA69436   1.926   7.085   1.289 -0.2739  0.0257  0.1459
    1ION     NA69437  17.093   8.096   7.700  0.0539 -0.2397  0.2125
    1ION     NA69438  15.249  22.580   3.266  0.1819 -0.2755 -0.1044
    1ION     NA69439  13.618   2.113   2.821 -0.1277 -0.0783 -0.2797
    1ION     NA69440   9.151   9.863   6.844 -0.0474 -0.0950 -0.1775
    1ION     NA69441   6.130   0.333   2.376  0.2421  0.1367 -0.1883
    1ION     NA69442   3.218   3.189   3.044  0.2624  0.1497  0.0384
    1ION     NA69443  17.273  20.539   1.808 -0.0720 -0.1154 -0.2748
    1ION     NA69444   8.149  18.805   2.237 -0.0034  0.3845  0.0337
    1ION     NA69445  26.739  18.447   5.701 -0.0327  0.1248  0.0987
    1ION     NA69446  10.468  20.526   2.430  0.0965 -0.4488  0.1827
    1ION     NA69447   1.354  12.603   0.466  0.2028  0.0155  0.0799
    1ION     NA69448  16.393   2.926   8.037  0.1143  0.0207 -0.0973
    1ION     NA69449  25.082  14.931   0.670  0.1436 -0.0148  0.0244
    1ION     NA69450  18.725   0.609   7.588  0.0716  0.1458  0.2600
    1ION     NA69451  29.210   8.889   1.245  0.4368  0.0363  0.0652
    1ION     NA69452  16.327  11.301   6.755  0.1498  0.0846 -0.0300
    1ION     NA69453  19.242  26.847   2.655 -0.2694  0.0894  0.0591
    1ION     NA69454   6.181   0.109   8.023 -0.3742 -0.0448 -0.2950
    1ION     NA69455  23.631   8.817   7.303  0.1589 -0.1135  0.2281
    1ION     NA69456  16.965   5.595   2.001  0.0104  0.0162 -0.0158
    1ION     NA69457  10.721  14.865   0.541 -0.0980 -0.3070  0.3305
    1ION     NA69458  14.416   4.994   2.490  0.1856 -0.1113  0.2641
    1ION     NA69459  20.846  20.765   0.076  0.0313 -0.4119 -0.2555
    1ION     NA69460  10.632  20.908   9.183  0.2072  0.1832  0.2450
    1ION     NA69461  28.989   2.973   8.135 -0.2081 -0.2806 -0.2261
    1ION     NA69462   4.767   1.922   1.054 -0.0092 -0.1064  0.2558
    1ION     NA69463   9.910  24.155   2.989 -0.2139 -0.1962 -0.1745
    1ION     NA69464  10.826  16.066   2.702 -0.2939  0.2627  0.1834
    1ION     NA69465  21.455   9.884   9.086 -0.0641  0.2289  0.0939
    1ION     NA69466   5.170   6.015   7.270 -0.2817  0.2213  0.0385
    1ION     NA69467  11.025   1.881   1.734  0.0848 -0.1428  0.1038
    1ION     NA69468  23.138   4.727   7.461  0.2038 -0.0942  0.0948
    1ION     NA69469  29.339  29.355   7.962  0.1209  0.1541  0.1848
    1ION     NA69470  23.766  27.846   1.334 -0.3337 -0.3662 -0.0573
    1ION     NA69471  19.575  23.371   2.510 -0.1414 -0.0536 -0.1215
    1ION     NA69472  26.985   6.032   2.883  0.2166 -0.0491 -0.1523
    1ION     NA69473   9.445  15.983   8.668  0.4685 -0.3584 -0.1532
    1ION     NA69474  16.379   4.923   7.434 -0.3217 -0.0443 -0.2026
    1ION     NA69475  29.448  15.274   8.087 -0.2244  0.0490 -0.2173
    1ION     NA69476  13.745  28.730   3.300  0.1659  0.2997  0.0187
    1ION     NA69477  27.028  28.683   3.398 -0.0439  0.0468 -0.0040
    1ION     NA69478  18.001  23.262   3.301 -0.2266 -0.0696  0.1435
    1ION     NA69479   9.600   3.608   3.912  0.1237 -0.2914  0.0452
    1ION     NA69480   9.576  25.581   7.061  0.0663  0.0232 -0.1646
    1ION     NA69481  12.347   4.222   7.763 -0.1276 -0.1542  0.4529
    1ION     NA69482   1.815  20.207   2.504  0.1897 -0.0464 -0.1049
    1ION     NA69483  23.944  17.013   0.091 -0.1805 -0.0703  0.0178
    1ION     NA69484  23.644  21.728   2.394  0.0986 -0.0657  0.2496
    1ION     NA69485  20.419  18.590   6.557 -0.0327  0.1413  0.0628
    1ION     NA69486  22.226  19.342   8.824 -0.0257  0.0082 -0.1155
    1ION     NA69487   1.434   5.658   2.366 -0.2088  0.2153  0.0218
    1ION     NA69488  28.160  12.212   2.343 -0.1166 -0.1622 -0.4240
    1ION     NA69489  20.071   0.842   3.848  0.1553  0.2921  0.1657
    1ION     NA69490   5.978   7.880   8.719 -0.0178 -0.1156  0.4257
    1ION     NA69491  20.567  15.146   2.589 -0.1894  0.0058  0.2109
    1ION     NA69492  23.235  12.843   2.148 -0.0922 -0.0508  0.1173
    1ION     NA69493  27.481  19.012   1.738 -0.2666 -0.1170  0.1615
    1ION     NA69494  11.945   0.346   0.689 -0.1580  0.2015  0.1230
    1ION     NA69495  18.954  14.953   6.172 -0.1670  0.2415  0.5049
    1ION     NA69496  13.011  15.144   7.278 -0.0866 -0.0387  0.0475
    1ION     NA69497   9.024  27.329   7.391  0.1021 -0.0026  0.0300
    1ION     NA69498  26.722   3.994   6.855 -0.2900  0.2654  0.0508
    1ION     NA69499  25.035  14.690   1.255  0.2055  0.0793  0.0311
    1ION     NA69500   5.934   0.204   7.133 -0.0524 -0.1596  0.0176
    1ION     NA69501  22.166  26.679   3.692 -0.0144 -0.1770  0.0776
    1ION     NA69502  26.918  14.936   8.610  0.1613  0.1602 -0.2898
    1ION     NA69503  12.728  19.583   8.920  0.1358  0.1921  0.2630
    1ION     NA69504  21.483  16.510   0.502 -0.0146  0.3030 -0.0683
    1ION     NA69505   9.087  25.955   3.514  0.3417 -0.1489 -0.1648
    1ION     NA69506   6.361   2.029   2.319 -0.2450  0.1519  0.0575
    1ION     NA69507  10.380  17.486   7.202 -0.2110  0.0494 -0.0660
    1ION     NA69508   3.417   0.023   0.502 -0.0383 -0.4339  0.1773
    1ION     NA69509   9.668  18.338   9.427  0.3120 -0.0281  0.2629
    1ION     NA69510  14.876  15.593   3.281 -0.2192 -0.2650  0.2912
    1ION     NA69511   0.962  26.306   1.980 -0.0878 -0.2380  0.1312
    1ION     NA69512  27.769   3.775   8.187 -0.0380  0.0499 -0.3054
    1ION     NA69513  11.370  19.448   7.131 -0.2138  0.1755  0.1631
    1ION     NA69514  26.074  10.751   8.290  0.0911  0.1864 -0.0630
    1ION     NA69515  14.056  21.590   8.060 -0.2319 -0.1319  0.3312
    1ION     NA69516  17.993  12.937   8.837  0.0062 -0.0646  0.2445
    1ION     NA69517   0.765   7.472   7.567  0.1648  0.1197 -0.1285
    1ION     NA69518  29.267  14.198   6.548  0.4634 -0.1022 -0.1118
    1ION     NA69519  23.246  27.675   2.462  0.2637 -0.0396  0.1190
    1ION     NA69520  13.080  27.735   3.115 -0.1342 -0.1980  0.2173
    1ION     NA69521   1.879   2.522   6.822  0.1022  0.1348  0.1611
    1ION     NA69522   7.824  16.572   2.718  0.1186  0.1138 -0.4403
    1ION     NA69523   9.638   3.820   7.401  0.1795 -0.1192  0.1196
    1ION     NA69524   5.201  29.561   2.641  0.2890  0.1094  0.0078
    1ION     NA69525  13.327   0.877   2.600  0.4906  0.3304 -0.1710
    1ION     NA69526  18.549  14.583   5.951 -0.0002  0.1595  0.1519
    1ION     NA69527   9.230  25.842   8.862 -0.0636  0.1371  0.1279
    1ION     NA69528  20.976   8.492   3.247 -0.1004  0.0403  0.0544
    1ION     NA69529  15.788  19.894   0.765  0.1464  0.1872  0.4632
    1ION     NA69530  12.078  23.031   2.257 -0.0094  0.0929  0.0330
    1ION     NA69531   4.267   0.263   7.825 -0.3747 -0.0155  0.1106
    1ION     NA69532   4.067   2.109   7.757  0.1129  0.0067  0.1964
    1ION     NA69533   8.036   9.384   8.320  0.0930  0.0980 -0.2353
    1ION     NA69534  14.887  10.160   2.610 -0.2289  0.2358 -0.0071
    1ION     NA69535  20.137  28.799   8.474  0.2741 -0.0050 -0.1031
    1ION     NA69536  23.505  16.054   5.191 -0.1568  0.1088 -0.4948
    1ION     NA69537  27.408  19.364   8.753 -0.2544  0.0147  0.0695
    1ION     NA69538   5.432  24.202   7.885 -0.1356  0.1583  0.1182
    1ION     NA69539   6.632  21.042   2.889  0.0206 -0.0300 -0.0955
    1ION     NA69540  27.022  10.549   0.249  0.1406 -0.3337  0.0046
    1ION     NA69541  27.524  23.414   0.983  0.2222 -0.0581  0.0007
    1ION     NA69542  17.590   0.162   8.242  0.0487 -0.3329  0.3805
    1ION     NA69543  27.766  10.110   7.057 -0.0150 -0.0285 -0.0077
    1ION     NA69544  22.110   7.800   1.224  0.0364 -0.0995 -0.3091
    1ION     NA69545  14.746  16.017   1.402 -0.1216 -0.0546 -0.1609
    1ION     NA69546  14.924  24.602   3.376 -0.0747  0.2070 -0.0523
    1ION     NA69547   4.806   8.514   9.470 -0.2318  0.0531  0.3543
    1ION     NA69548  21.881   0.901   3.473  0.1957  0.2318  0.2681
    1ION     NA69549  21.048  29.634   0.519  0.0936 -0.0584 -0.3910
    1ION     NA69550  11.990   1.767   1.716 -0.2292 -0.0878  0.0340
    1ION     NA69551   0.590  12.138   0.824  0.0551  0.0001 -0.0647
    1ION     NA69552  16.915  23.132   8.920  0.1670 -0.1819 -0.1149
    1ION     NA69553   0.008   9.672   6.411 -0.0555 -0.1651 -0.0887
    1ION     NA69554  13.279  12.239   2.563 -0.0281 -0.0450 -0.0659
    1ION     NA69555   7.950  20.394   6.477  0.0072  0.1180  0.0309
    1ION     NA69556  11.001  26.195   1.625  0.1986  0.0740 -0.0396
    1ION     NA69557  16.444  16.720   1.389 -0.0434 -0.1748 -0.0501
    1ION     NA69558  18.113   5.592   7.465  0.3057 -0.0559  0.1134
    1ION     NA69559  18.269  11.446   6.535  0.5332  0.1010 -0.2438
    1ION     NA69560   2.711   3.376   2.051 -0.1320  0.0063  0.2748
    1ION     NA69561  11.475   9.317   8.128  0.1569 -0.0716  0.0239
    1ION     NA69562  27.644  28.899   0.924  0.0960  0.1475 -0.0457
    1ION     NA69563   5.095   8.063   0.610  0.1108 -0.4899 -0.0531
    1ION     NA69564   7.045   4.503   8.348 -0.0215 -0.0911  0.0588
    1ION     NA69565  28.786   2.177   2.386  0.4285 -0.2199  0.0219
    1ION     NA69566  22.108  23.720   8.555 -0.1788 -0.1420  0.4244
    1ION     NA69567   4.075   0.067   1.329 -0.1210 -0.4012  0.1186
    1ION     NA69568  15.748  25.223   2.126 -0.0252  0.3336 -0.2253
    1ION     NA69569  16.563  12.991   8.435  0.1341 -0.0378  0.0713
    1ION     NA69570  25.853   8.314   0.841  0.1973 -0.0343  0.1102
    1ION     NA69571  26.503  18.205   7.119  0.2046  0.2684 -0.4129
    1ION     NA69572   9.106  16.474   2.865  0.1990 -0.1281  0.1648
    1ION     NA69573   7.133   0.034   0.110 -0.0252  0.0994 -0.1435
    1ION     NA69574  15.119  14.056   1.624 -0.0823  0.1946 -0.1026
    1ION     NA69575   0.945  22.547   2.432  0.0369  0.3092 -0.0886
    1ION     NA69576  17.682  12.482   6.720 -0.2759  0.1546 -0.1864
    1ION     NA69577   4.666  19.339   7.745 -0.1278  0.3875 -0.3178
    1ION     NA69578  19.503  25.457   2.373  0.2446  0.1174  0.2668
    1ION     NA69579  13.632  19.924   7.299  0.1748  0.1746 -0.0920
    1ION     NA69580  13.494  16.520   2.488 -0.0085  0.0821 -0.2697
    1ION     NA69581  24.299  17.874   9.246 -0.0386  0.0410 -0.2185
    1ION     NA69582  21.387  23.679   2.095  0.2106 -0.0062  0.0227
    1ION     NA69583  28.113  26.816   8.649  0.0380 -0.0184  0.0305
    1ION     NA69584   1.409  19.884   1.190  0.0864  0.0517  0.2385
    1ION     NA69585  18.350  23.653   8.468  0.0396  0.0551 -0.0901
    1ION     NA69586  22.586  15.375   1.624  0.1704 -0.0262  0.0946
    1ION     NA69587   4.869   3.670   7.038 -0.0387 -0.1756  0.0910
    1ION     NA69588  16.784  12.418   2.710  0.1739 -0.1454 -0.0107
    1ION     NA69589  11.231  23.512   1.447 -0.1206  0.2014 -0.0215
    1ION     NA69590  11.344  20.694   8.899 -0.2119 -0.1957 -0.1690
    1ION     NA69591   7.468  17.604   7.084 -0.0830 -0.5075 -0.1919
    1ION     NA69592  19.758   1.285   6.915  0.0738  0.0755  0.2843
    1ION     NA69593   8.062  12.000   0.702  0.2539 -0.1265  0.1818
    1ION     NA69594  11.495   1.115   6.797  0.0528  0.1718 -0.2736
    1ION     NA69595   6.844  25.455   0.291  0.3145 -0.0721 -0.1643
    1ION     NA69596  17.937  29.645   9.077 -0.0048  0.1778 -0.0511
    1ION     NA69597  17.219  12.052   2.012 -0.0728 -0.0866  0.2418
    1ION     NA69598   4.388  19.199   0.731 -0.1177 -0.0802  0.0843
    1ION     NA69599   3.327  11.917   2.585  0.2566 -0.0225 -0.2627
    1ION     NA69600  26.074  11.430   7.658 -0.3092  0.1456 -0.0484
    1ION     NA69601   8.022   0.818   9.232 -0.1335 -0.0650  0.0259
    1ION     NA69602  20.596  15.000   9.385  0.2362 -0.0138  0.2993
    1ION     NA69603  25.717  17.300   0.132 -0.0608  0.1529  0.2518
    1ION     NA69604  22.053  18.817   2.548 -0.1864 -0.0082  0.4846
    1ION     NA69605  14.211  12.074   1.522 -0.3663 -0.2136  0.1787
    1ION     NA69606   3.179  14.991   7.167  0.1900  0.0114  0.1829
    1ION     NA69607  24.565  26.726   9.448 -0.0919 -0.1174 -0.1769
    1ION     NA69608  10.601  27.655   2.046 -0.0223 -0.1202  0.1166
    1ION     NA69609  27.723  13.164   0.697  0.0425 -0.0728 -0.0330
    1ION     NA69610   2.961  11.116   2.631 -0.0352 -0.1950  0.0380
    1ION     NA69611   6.702   2.735   0.886 -0.4572 -0.2745  0.2668
    1ION     NA69612   4.688   7.478   3.296 -0.2287 -0.2249  0.0509
    1ION     NA69613  17.107   2.910   9.544 -0.1824 -0.1869 -0.0558
    1ION     NA69614  15.276  25.974   6.671 -0.0505 -0.0128 -0.2429
    1ION     NA69615  15.485  26.215   1.920 -0.2137 -0.2181 -0.0693
    1ION     NA69616  21.661  21.468   2.313 -0.0291  0.0253  0.2069
    1ION     NA69617   3.870   7.590   1.853  0.0294 -0.0733 -0.3992
    1ION     NA69618  11.516  16.355   0.246  0.1621 -0.1002  0.1734
    1ION     NA69619  15.075  19.245   1.397  0.0047 -0.1427 -0.1375
    1ION     NA69620  29.671  24.303   2.045  0.0390  0.1005 -0.0904
    1ION     NA69621   1.658  13.824   8.549  0.1279  0.1446  0.1112
    1ION     NA69622  16.407  10.525   3.228 -0.2310  0.0167  0.1995
    1ION     NA69623  12.427  23.836   1.386 -0.2526  0.0864  0.3040
    1ION     NA69624   4.772  22.807   8.978 -0.2361 -0.0316  0.0340
    1ION     NA69625  21.685   3.205   0.834 -0.0064  0.4002 -0.0755
    1ION     NA69626  22.936  17.222   1.022 -0.1005  0.3689 -0.0289
    1ION     NA69627   3.943   2.834   8.341  0.0438 -0.1313 -0.0902
    1ION     NA69628   1.114   0.055   6.545  0.3429 -0.1030  0.0352
    1ION     NA69629  11.158  26.657   3.237 -0.2318 -0.1519 -0.0606
    1ION     NA69630  22.351   8.297   0.243  0.1135  0.1510  0.4218
    1ION     NA69631  18.281   7.120   0.390  0.2190 -0.1081 -0.0752
    1ION     NA69632  20.614  21.213   5.869 -0.0235 -0.2235  0.0009
    1ION     NA69633  24.415   8.277   6.270 -0.2490 -0.2753  0.0193
    1ION     NA69634   8.838  12.646   8.111 -0.0512 -0.0885 -0.3633
    1ION     NA69635  29.567  19.025   6.074  0.2320 -0.1759  0.1804
    1ION     NA69636  18.147  14.268   8.403  0.1150 -0.0836  0.1103
    1ION     NA69637  17.082  22.015   6.219  0.3712  0.0822  0.3049
    1ION     NA69638  11.395  10.779   7.190 -0.0425  0.3532 -0.2823
    1ION     NA69639  11.411  21.076   6.399 -0.0298  0.1719  0.2531
    1ION     NA69640   7.590   8.836   3.045 -0.0316 -0.0367  0.0315
    1ION     NA69641  11.102  19.260   1.466  0.0955 -0.1773 -0.1587
    1ION     NA69642  11.607   2.634   7.136  0.1411  0.0358 -0.1237
    1ION     NA69643  16.063   7.072   3.497  0.1159  0.0186  0.4235
    1ION     NA69644  19.063  10.639   1.807  0.0076  0.0349  0.2433
    1ION     NA69645  18.611   1.052   9.384 -0.3735 -0.2253 -0.1718
    1ION     NA69646   8.631  27.869   2.728  0.2393  0.1604 -0.2207
    1ION     NA69647  11.714  27.161   7.091  0.1757 -0.2643  0.1059
    1ION     NA69648  15.199  10.074   3.033  0.1601  0.0761  0.1352
    1ION     NA69649  25.450  28.858   6.733 -0.2140  0.0105  0.0287
    1ION     NA69650  17.902  23.712   2.757 -0.0312 -0.0811 -0.0425
    1ION     NA69651  10.233  28.232   7.218  0.0722  0.4829 -0.1878
    1ION     NA69652   8.149  15.215   8.089 -0.1332 -0.2101  0.1220
    1ION     NA69653   5.956  13.879   2.720 -0.0229  0.1158 -0.0984
    1ION     NA69654  12.729   0.913   0.575 -0.1131  0.1658  0.0570
    1ION     NA69655  24.269   5.047   8.842  0.2807  0.1034  0.1155
    1ION     NA69656  14.230  21.325   2.486 -0.1076 -0.3059 -0.0045
    1ION     NA69657  14.255  19.520   2.001  0.0828 -0.2314 -0.1005
    1ION     NA69658  20.921   6.513   8.849  0.4108 -0.0326 -0.1957
    1ION     NA69659  18.024   1.493   3.659 -0.1969 -0.0025  0.0522
    1ION     NA69660   4.304  19.816   2.475  0.1211  0.1313  0.4402
    1ION     NA69661   0.562  26.792   3.270  0.1068 -0.0237  0.0164
    1ION     NA69662  14.964  28.943   8.121  0.0725  0.1941 -0.1508
    1ION     NA69663  25.562  15.228   5.435 -0.1567 -0.2667 -0.4419
    1ION     NA69664   8.458   3.748   1.309 -0.0615 -0.0531  0.0213
    1ION     NA69665  17.169  10.197   2.806 -0.1567  0.0781 -0.0690
    1ION     NA69666  28.573  24.212   9.414 -0.0778 -0.0206 -0.4924
    1ION     NA69667   4.276   7.001   2.549 -0.1664 -0.1128  0.3749
    1ION     NA69668  10.032  21.890   2.988 -0.0176  0.1140 -0.1165
    1ION     NA69669  23.199  29.707   0.550  0.0085  0.0803 -0.0835
    1ION     NA69670   9.274   7.400   8.645  0.0474 -0.2070  0.0458
    1ION     NA69671   4.421  22.935   2.825 -0.3356  0.0445  0.1673
    1ION     NA69672  28.525  18.412   6.907 -0.1860  0.0994 -0.5312
    1ION     NA69673  25.894  23.258   2.528 -0.0119  0.1526  0.1072
    1ION     NA69674  10.373  17.818   6.657  0.0425 -0.0963  0.3427
    1ION     NA69675  20.388   5.969   0.678 -0.1097 -0.1858 -0.2833
    1ION     NA69676  19.629  27.193   0.140  0.1407  0.2371  0.2865
    1ION     NA69677  14.047  16.092   1.945  0.1948  0.0219  0.1597
    1ION     NA69678  14.088  19.620   6.614  0.2317 -0.1552  0.0959
    1ION     NA69679   0.575  29.286   0.735  0.0947 -0.0647  0.0070
    1ION     NA69680  21.350  24.123   6.414 -0.0624  0.1768  0.2155
    1ION     NA69681   1.738  17.195   2.118  0.1278 -0.0908  0.1784
    1ION     NA69682  12.513  28.139   2.645  0.2638  0.1101  0.0444
    1ION     NA69683   3.037   1.627   6.987  0.1951 -0.0584 -0.0199
    1ION     NA69684   2.878  20.503   1.407 -0.1534  0.2001 -0.0541
    1ION     NA69685   8.290  28.170   6.935 -0.0384  0.2066  0.4041
    1ION     NA69686  29.312   1.715   6.829 -0.2302  0.0748  0.3910
    1ION     NA69687  27.472   1.905   6.813 -0.0296 -0.1576 -0.0331
    1ION     NA69688  28.276   3.041   9.360 -0.0069  0.3163 -0.0385
    1ION     NA69689  18.018  15.101   5.732  0.0179 -0.1225 -0.1915
    1ION     NA69690  10.988  20.802   6.357 -0.0680 -0.0038  0.0900
    1ION     NA69691  29.629  19.445   1.983 -0.0305 -0.1789 -0.0887
    1ION     NA69692   8.861  22.852   0.053  0.1314 -0.0243 -0.2538
    1ION     NA69693  19.592  14.946   2.448 -0.2035  0.0340 -0.1285
    1ION     NA69694  24.457   1.133   7.799  0.0569 -0.1302  0.0041
    1ION     NA69695  23.391   2.186   0.609 -0.2319 -0.1969  0.2310
    1ION     NA69696  28.314  13.138   8.940  0.1508 -0.0849 -0.1545
    1ION     NA69697   0.747  19.315   6.316 -0.0663  0.0769 -0.1606
    1ION     NA69698   7.759   7.806   8.000  0.2370 -0.0217 -0.0519
    1ION     NA69699   7.647  27.048   8.121 -0.1307 -0.2078  0.0573
    1ION     NA69700   0.434   6.229   7.387  0.3404 -0.1224  0.2909
    1ION     NA69701  16.562  26.676   8.726 -0.1273 -0.0282  0.0627
    1ION     NA69702  19.103  24.267   6.658 -0.0235  0.0370  0.1367
    1ION     NA69703   5.661  17.355   0.456  0.0017  0.1122 -0.0143
    1ION     NA69704  18.618  16.239   6.842 -0.3454  0.0564 -0.0693
    1ION     NA69705  16.537  19.048   1.734  0.2477  0.2356  0.2569
    1ION     NA69706  22.243  11.977   5.561  0.1406 -0.1063  0.1294
    1ION     NA69707  28.777   5.885   6.452 -0.0638  0.1128 -0.0644
    1ION     NA69708  24.803   6.145   3.247 -0.2115  0.1903 -0.3019
    1ION     NA69709   4.664   7.728   8.164  0.3719 -0.0126 -0.0799
    1ION     NA69710  20.785  28.281   1.928 -0.5576 -0.0687 -0.0425
    1ION     NA69711   2.549  21.179   0.840 -0.0609  0.1977 -0.1466
    1ION     NA69712   5.770   4.222   3.758 -0.0898 -0.0673 -0.0160
    1ION     NA69713  24.577   7.084   9.152  0.0360  0.2348  0.0801
    1ION     NA69714  18.723   9.147   1.286  0.0088  0.2140  0.0772
    1ION     NA69715  28.233  22.901   9.528 -0.1067 -0.0354  0.1340
    1ION     NA69716   6.981  14.930   8.553  0.1073  0.2309  0.2110
    1ION     NA69717   9.019  26.333   0.862 -0.2768 -0.0804 -0.2851
    1ION     NA69718   0.544   5.357   7.354 -0.0889 -0.0581 -0.2241
    1ION     NA69719  25.806   9.149   2.260 -0.4639 -0.0870  0.0240
    1ION     NA69720   0.358   4.709   8.267 -0.2420  0.0194  0.1293
    1ION     NA69721   8.472  14.097   7.070 -0.0017  0.0844  0.1086
    1ION     NA69722   6.896  26.736   8.051  0.0107  0.0124  0.0746
    1ION     NA69723  10.451   2.895   7.794  0.2919  0.3805 -0.2149
    1ION     NA69724   7.602  25.139   3.170  0.0714 -0.1893  0.1110
    1ION     NA69725   7.475   6.252   9.234 -0.0092  0.0786  0.1094
    1ION     NA69726  18.075  25.770   7.459 -0.2264 -0.3863  0.0034
    1ION     NA69727  27.716  21.125   9.459 -0.3553  0.0716 -0.2574
    1ION     NA69728   3.393  24.894   8.150 -0.2186 -0.1050  0.0888
    1ION     NA69729  28.076   8.995   2.652  0.0409  0.0413 -0.0158
    1ION     NA69730  14.064  13.683   0.546 -0.0594 -0.0811 -0.0754
    1ION     NA69731  27.640   9.704   8.561  0.1251  0.3064  0.4717
    1ION     NA69732  27.343  22.375   0.882  0.1860  0.0169  0.0045
    1ION     NA69733  14.643  28.371   3.089 -0.1599 -0.1006 -0.2285
    1ION     NA69734  20.465  29.329   9.319  0.1459 -0.0783  0.2971
    1ION     NA69735  12.574  22.901   7.800 -0.2270  0.2739  0.0080
    1ION     NA69736  23.230  18.347   9.024  0.0081 -0.3179  0.0900
    1ION     NA69737  28.056   2.101   1.852 -0.1553  0.1295 -0.2998
    1ION     NA69738  23.535  10.253   6.103  0.1928 -0.1651 -0.3053
    1ION     NA69739   8.508  10.866   8.830 -0.0947 -0.4348  0.2982
    1ION     NA69740  29.474  12.165   6.631 -0.4076  0.2647 -0.1427
    1ION     NA69741  17.158  18.645   1.233 -0.0021  0.1233  0.0997
    1ION     NA69742   3.292  21.182   2.437 -0.1289  0.1178  0.1465
    1ION     NA69743   3.544  27.831   7.855  0.0343 -0.2680  0.1839
    1ION     NA69744  24.868  26.419   2.013 -0.0099 -0.0971 -0.3053
    1ION     NA69745  27.412  17.690   5.844 -0.0447 -0.1504  0.1120
    1ION     NA69746   5.041  19.079   8.064 -0.0915 -0.0333  0.0488
    1ION     NA69747   3.945   8.314   7.106 -0.0035 -0.2722  0.2535
    1ION     NA69748  27.589  26.298   6.709  0.3133  0.1520 -0.1494
    1ION     NA69749  25.740  17.556   8.025  0.0250 -0.5535  0.1674
    1ION     NA69750   8.935  10.238   0.454 -0.1378 -0.2327  0.0835
    1ION     NA69751   8.248   1.022   1.249  0.0154  0.1233 -0.1976
    1ION     NA69752  15.584   6.788   3.457 -0.3262  0.1137  0.1113
    1ION     NA69753  16.771   8.252   2.332  0.1807  0.1187  0.1634
    1ION     NA69754   1.668   3.621   7.591  0.0335  0.1348  0.0566
    1ION     NA69755   8.707  23.046   0.991 -0.1676  0.0122 -0.1848
    1ION     NA69756  28.895   3.612   8.697 -0.2275 -0.2491 -0.0841
    1ION     NA69757  15.147   9.148   6.450 -0.2799  0.0512 -0.0262
    1ION     NA69758  25.403   5.788   2.763 -0.0626  0.1412 -0.0919
    1ION     NA69759  24.574   4.264   2.574  0.2301  0.0122  0.4725
    1ION     NA69760  11.052   6.213   7.959  0.0581  0.3115  0.2658
    1ION     NA69761  12.322   1.105   3.182  0.1031 -0.1657 -0.0609
    1ION     NA69762  13.823  12.342   6.856  0.3632  0.0766  0.2048
    1ION     NA69763   4.529   2.865   1.302  0.1768  0.2840 -0.1340
    1ION     NA69764  15.967  22.213   7.104  0.0624 -0.1131 -0.0107
    1ION     NA69765  12.955   5.259   6.579 -0.0882  0.0481  0.0762
    1ION     NA69766  25.730  11.027   6.147 -0.4137  0.0729 -0.2022
    1ION     NA69767  27.114   6.927   8.224 -0.0934  0.0542 -0.0692
    1ION     NA69768   5.011   8.820   3.151  0.2923  0.0902 -0.0609
    1ION     NA69769  17.041   9.866   8.758  0.0548 -0.0299  0.0037
    1ION     NA69770  12.298  13.621   3.182  0.1877  0.2944  0.0159
    1ION     NA69771  15.862  27.216   2.240 -0.1973 -0.3426  0.1962
    1ION     NA69772  24.487  16.977   0.727 -0.0452 -0.0205 -0.1923
    1ION     NA69773   9.040  12.139   7.330  0.1711 -0.1946  0.0436
    1ION     NA69774  21.330   5.707   1.584 -0.3451 -0.0762 -0.3023
    1ION     NA69775  16.807  20.220   6.507 -0.0155  0.1157  0.1033
    1ION     NA69776  11.427  22.835   0.503 -0.1937  0.0866  0.1896
    1ION     NA69777  15.072  24.582   6.614  0.0296 -0.0536  0.2081
    1ION     NA69778   8.772  29.754   8.093  0.0897 -0.1777 -0.1525
    1ION     NA69779  14.836  10.193   1.827 -0.1302  0.1125 -0.0825
    1ION     NA69780  29.613  25.458   7.831 -0.1411  0.0513 -0.1405
    1ION     NA69781   0.551  20.547   9.509 -0.0457 -0.0175 -0.2276
    1ION     NA69782  14.480  10.608   7.024 -0.3150  0.1994 -0.0097
    1ION     NA69783   9.814  15.290   2.419 -0.2386  0.0912  0.1001
    1ION     CL69784   4.269   5.985   9.331  0.0650  0.2421  0.1603
    1ION     CL69785  11.485  18.899   9.414  0.0339 -0.1299 -0.0171
    1ION     CL69786  19.682   3.430   8.462  0.0101  0.0685 -0.0176
    1ION     CL69787   9.675  16.838   8.383 -0.3251  0.1191 -0.0096
    1ION     CL69788  24.300  28.724   2.704  0.1704  0.0888  0.1340
    1ION     CL69789  18.377  22.613   7.913  0.1923  0.0105  0.0414
    1ION     CL69790  13.490   5.567   7.774  0.2738  0.2091  0.0239
    1ION     CL69791  26.564  29.297   7.085  0.1547  0.0964  0.1258
    1ION     CL69792  15.152  22.220   2.073  0.0980 -0.0729 -0.2709
    1ION     CL69793   4.869  27.862   1.783 -0.2075  0.4311  0.2947
    1ION     CL69794  29.506  25.307   7.343 -0.4053 -0.0549 -0.0397
    1ION     CL69795  14.786   7.118   7.144 -0.2321 -0.1538  0.1658
    1ION     CL69796  15.358  20.018   0.193  0.3538 -0.0283 -0.2920
    1ION     CL69797  16.664  10.204   2.787 -0.2892  0.0219 -0.0042
    1ION     CL69798   2.709   5.498   1.574 -0.0216 -0.1923 -0.0527
    1ION     CL69799   7.035  26.612   2.128 -0.0543 -0.0882  0.1958
    1ION     CL69800  14.882  16.935   2.578  0.1363 -0.2058  0.3231
    1ION     CL69801   5.130  19.112   7.576  0.1386  0.0196  0.1006
    1ION     CL69802  24.676   7.164   2.977  0.3220 -0.0188  0.2155
    1ION     CL69803  24.428  13.599   9.404  0.1916 -0.0139 -0.1833
    1ION     CL69804   0.190  25.117   7.987  0.1389 -0.0419 -0.1390
    1ION     CL69805  22.168   2.140   1.727  0.1838  0.1193  0.2072
    1ION     CL69806   8.761  10.446   7.314 -0.1838  0.2364 -0.1421
    1ION     CL69807  13.828  15.849   1.484 -0.0424 -0.2684  0.1420
    1ION     CL69808  28.673   4.052   1.766 -0.0224  0.0136 -0.0781
    1ION     CL69809  27.742   3.697   7.621  0.1876  0.1848 -0.0655
    1ION     CL69810  26.533  11.526   7.516 -0.2179  0.1590  0.0993
    1ION     CL69811  13.044  15.331   9.413  0.0540  0.1032  0.0052
    1ION     CL69812   3.340   9.944   0.397 -0.0896  0.2160  0.0220
    1ION     CL69813  24.872  20.714   1.557 -0.1609 -0.3736  0.0093
    1ION     CL69814   1.510  21.768   1.460 -0.1220 -0.1130  0.2809
    1ION     CL69815   4.870   4.663   7.740 -0.0458  0.0389 -0.0304
    1ION     CL69816   7.075  18.425   0.267  0.2419  0.5559 -0.1383
    1ION     CL69817   0.005  22.757   9.363  0.0396 -0.2213  0.2132
    1ION     CL69818  26.019   0.886   2.988 -0.0094 -0.0518  0.1485
    1ION     CL69819  12.770  17.939   1.107 -0.1589 -0.0165  0.2263
    1ION     CL69820  16.637  27.891   2.374  0.0082  0.0153 -0.0866
    1ION     CL69821  18.358   0.340   9.035  0.2653  0.0900  0.0162
    1ION     CL69822   9.493  21.924   7.305  0.0598 -0.0297  0.0548
    1ION     CL69823  16.110  21.175   2.730  0.0133  0.1163 -0.2249
    1ION     CL69824  22.855   8.363   0.210 -0.0494  0.1419  0.0281
    1ION     CL69825  12.481  16.645   2.098 -0.0849  0.2556 -0.0879
    1ION     CL69826  23.853   9.182   7.021  0.2315  0.0226 -0.0899
    1ION     CL69827  22.357  29.740   0.620  0.0662  0.2100 -0.2218
    1ION     CL69828  28.957   1.630   7.760  0.1917  0.0060  0.1954
    1ION     CL69829  21.889  19.893   1.684 -0.1823 -0.2529  0.1214
    1ION     CL69830  23.027  25.183   6.835 -0.2362 -0.1352  0.1447
    1ION     CL69831   9.123  15.121   7.686 -0.4212 -0.3591  0.0277
    1ION     CL69832  16.760  26.938   8.332  0.3994 -0.1685 -0.5684
    1ION     CL69833   4.358   5.000   1.064  0.4164 -0.1493  0.0003
    1ION     CL69834   6.364   7.723   9.088 -0.0255  0.2622 -0.1793
    1ION     CL69835   6.899  22.753   0.369  0.1235 -0.3530  0.3096
    1ION     CL69836  13.409  19.887   7.773 -0.2166 -0.2059  0.1724
    1ION     CL69837  10.755  19.262   1.847 -0.0227  0.2776  0.2418
    1ION     CL69838   1.335   0.598   9.079 -0.2817 -0.1230 -0.1106
    1ION     CL69839  15.161  24.144   7.251 -0.2951 -0.0944 -0.0475
    1ION     CL69840   4.049  27.928   7.756  0.1287 -0.0644  0.1157
    1ION     CL69841  22.537  20.960   0.916  0.0522 -0.0228 -0.1495
    1ION     CL69842  29.058   6.754   1.426  0.0306 -0.2588  0.1087
    1ION     CL69843  10.797  17.824   7.384  0.1636 -0.2604 -0.1663
    1ION     CL69844  20.123  13.241   1.516  0.1475 -0.0204  0.3495
    1ION     CL69845  27.275  13.514   0.657  0.0675  0.0291  0.1272
    1ION     CL69846  12.163  27.306   6.960 -0.2764  0.0716 -0.0640
    1ION     CL69847  10.378  22.244   7.526 -0.3141 -0.1504  0.2143
    1ION     CL69848  23.465  11.408   6.610  0.2595  0.1607 -0.2553
    1ION     CL69849  25.265  24.291   8.408 -0.1233 -0.1683 -0.1301
    1ION     CL69850  14.409   8.200   1.501  0.0462  0.0045 -0.0034
    1ION     CL69851  23.096   5.673   0.553  0.1493 -0.0342  0.0060
    1ION     CL69852  27.939  10.513   7.289 -0.2920 -0.0897  0.0617
    1ION     CL69853  17.345   5.839   8.390  0.2350 -0.0783 -0.0712
    1ION     CL69854   6.384   1.767   1.877 -0.0754 -0.4238  0.0761
    1ION     CL69855  24.926   4.179   9.109 -0.0257  0.0534 -0.1569
    1ION     CL69856  16.414  27.134   2.251 -0.2163  0.1352 -0.0700
    1ION     CL69857  20.159   7.420   2.652  0.0354 -0.0423 -0.3628
    1ION     CL69858   9.257  23.944   7.559  0.2093 -0.1807  0.1382
    1ION     CL69859  10.429   9.077   1.992 -0.3516 -0.0174  0.2333
    1ION     CL69860   4.980   6.639   7.993  0.0190  0.0038  0.0125
    1ION     CL69861  27.386  10.375   6.787  0.1063  0.1685 -0.1422
    1ION     CL69862  21.675  21.770   8.432  0.1822 -0.2932 -0.0896
    1ION     CL69863  28.907  28.055   2.354 -0.0874 -0.2135 -0.0600
    1ION     CL69864  24.996  16.527   8.817  0.2325 -0.1226  0.0645
    1ION     CL69865  29.779   8.922   8.480 -0.2341  0.3132  0.0674
    1ION     CL69866  22.742  10.638   7.178  0.2401 -0.3540  0.1433
    1ION     CL69867  11.025  21.105   8.918  0.1834 -0.0432 -0.0534
    1ION     CL69868  28.409  15.271   6.706  0.0930 -0.4766  0.1800
    1ION     CL69869  28.366  10.988   1.820 -0.2369  0.0881 -0.1840
    1ION     CL69870  28.124  12.972   0.040  0.2997 -0.2805 -0.0277
    1ION     CL69871   0.061  25.243   1.349  0.2328 -0.0075  0.0318
    1ION     CL69872  19.254  22.524   7.060 -0.2998  0.0790 -0.2003
    1ION     CL69873   7.255  20.942   1.207  0.2899  0.1092 -0.2664
    1ION     CL69874  17.886  28.369   1.932 -0.0854  0.0610  0.1261
    1ION     CL69875  20.381  13.649   6.135 -0.1157  0.0483  0.0520
    1ION     CL69876   1.950   0.682   7.776 -0.1716 -0.1890  0.0482
    1ION     CL69877   8.178  21.918   1.352 -0.0339 -0.0280  0.1971
    1ION     CL69878  21.438   3.433   0.150 -0.0550  0.0449 -0.0449
    1ION     CL69879  28.509  11.862   0.768  0.0818  0.0680  0.0033
    1ION     CL69880  14.100  27.957   8.158  0.2015  0.2046 -0.2103
    1ION     CL69881   0.836  13.268   7.408  0.2201  0.1130 -0.0054
    1ION     CL69882   6.567   7.787   8.022  0.2743 -0.3662 -0.0559
    1ION     CL69883  23.948   9.775   1.658 -0.0056  0.1404 -0.1065
    1ION     CL69884   3.743  16.975   0.826  0.2389  0.1923 -0.0830
    1ION     CL69885   1.245   5.206   1.672  0.2226 -0.2429 -0.4313
    1ION     CL69886   6.123   6.297   2.187 -0.1785  0.2310 -0.1339
    1ION     CL69887  27.658   8.768   2.281  0.2173  0.3064  0.1675
    1ION     CL69888  20.477  23.113   6.967 -0.0975 -0.0794 -0.0280
    1ION     CL69889  22.626   6.135   7.780 -0.0067  0.0686  0.0093
    1ION     CL69890  18.999  26.155   8.816  0.3824  0.1813 -0.1641
    1ION     CL69891  22.558  18.321   8.371 -0.1581 -0.3066  0.1535
    1ION     CL69892  29.112   2.649   0.034  0.0916  0.0990  0.1863
    1ION     CL69893  20.993  11.708   1.706 -0.1116 -0.3238  0.0717
    1ION     CL69894  12.591   1.528   1.810  0.0105 -0.1142  0.1671
    1ION     CL69895  15.567  25.605   2.612  0.2676  0.1823 -0.0201
    1ION     CL69896   1.592  13.972   8.051 -0.0282 -0.1326  0.0855
    1ION     CL69897  10.994  20.491   2.441  0.0850  0.1435  0.0049
    1ION     CL69898   9.151  29.500   7.797 -0.1120  0.1184 -0.0214
    1ION     CL69899  24.230  17.323   0.368  0.0281 -0.1139 -0.2377
    1ION     CL69900   4.552  19.381   7.286 -0.1734 -0.3499  0.1953
    1ION     CL69901   5.589  21.722   6.996  0.3890  0.1479  0.0579
    1ION     CL69902  18.958  20.145   8.747  0.0697  0.2067 -0.1298
    1ION     CL69903  13.986  26.599   6.854  0.1176  0.1693 -0.1497
    1ION     CL69904   9.820   5.570   0.527 -0.0642  0.1219 -0.0452
    1ION     CL69905  26.549  17.736   6.907 -0.2758 -0.2663 -0.2366
    1ION     CL69906  17.599   6.294   0.185 -0.1106 -0.3312 -0.0389
    1ION     CL69907  26.265  16.511   7.284 -0.0555 -0.2159 -0.0378
    1ION     CL69908  20.459   9.198   2.297 -0.1269  0.0931  0.0333
    1ION     CL69909  24.171   6.708   8.749 -0.1289 -0.3035 -0.0023
    1ION     CL69910  18.734  17.311   0.182 -0.3158 -0.2302  0.0759
    1ION     CL69911  24.515   1.758   7.900 -0.0978  0.4127  0.0270
    1ION     CL69912  14.608  12.386   2.263 -0.2817 -0.0893 -0.0106
    1ION     CL69913   2.077  15.714   7.314 -0.2145 -0.0025 -0.4335
    1ION     CL69914  20.827   9.671   0.723 -0.1593  0.0007  0.2455
    1ION     CL69915  19.877  24.666   2.403  0.0720 -0.0795 -0.0738
    1ION     CL69916   9.376  26.649   1.020 -0.1952  0.1494  0.0197
    1ION     CL69917   4.277   7.964   2.139 -0.1421 -0.1160 -0.3244
    1ION     CL69918  18.338  27.434   2.290  0.3038 -0.1636  0.1809
    1ION     CL69919  19.089  12.785   7.291  0.2383 -0.2797 -0.2387
    1ION     CL69920   5.711  28.267   2.247 -0.0130  0.4181  0.0267
    1ION     CL69921  27.238  19.577   7.330  0.1396 -0.1469  0.1310
    1ION     CL69922  28.807  19.121   0.243  0.2245 -0.2781 -0.2812
    1ION     CL69923  13.615   7.864   6.608  0.0310  0.0420 -0.2185
    1ION     CL69924   2.996  14.562   8.138 -0.1017  0.1237  0.0083
    1ION     CL69925  21.621   5.848   7.738 -0.4905 -0.0788 -0.4148
    1ION     CL69926  28.838   9.912   2.015 -0.1737  0.2317 -0.2076
    1ION     CL69927  27.842  20.585   9.307 -0.2433 -0.0714  0.4143
    1ION     CL69928   1.635  17.495   1.720  0.0723 -0.1937  0.0152
    1ION     CL69929   4.013   2.953   8.848 -0.0396 -0.1242 -0.0939
    1ION     CL69930   4.986   2.676   7.788 -0.1121  0.1261 -0.1696
    1ION     CL69931   2.476  20.818   1.194 -0.1957 -0.1222  0.0561
    1ION     CL69932  26.150  19.431   6.319  0.0302 -0.1707  0.2990
    1ION     CL69933  29.459   8.911   7.101 -0.1392  0.0860 -0.1133
    1ION     CL69934   8.747   6.048   7.646  0.4598 -0.2572  0.0412
    1ION     CL69935   2.679  19.199   0.010 -0.0047  0.1477  0.0013
    1ION     CL69936  14.928   6.421   2.548  0.2292  0.2435  0.3114
    1ION     CL69937  14.120   1.448   8.984  0.0034 -0.3209 -0.0922
    1ION     CL69938  25.756  10.558   8.630  0.0794  0.0199 -0.1553
    1ION     CL69939  14.322  20.764   9.259 -0.1008 -0.1100  0.2480
    1ION     CL69940  15.001   9.864   2.255 -0.2472 -0.0529  0.1075
    1ION     CL69941  11.177   2.357   7.263  0.0726 -0.0464 -0.2244
    1ION     CL69942  10.595  14.416   2.350  0.1228  0.0432 -0.1504
    1ION     CL69943  20.203  19.955   8.700  0.4324  0.3389  0.2016
    1ION     CL69944   3.673  22.295   2.053 -0.0923 -0.1534  0.1751
    1ION     CL69945   1.138  25.226   7.635  0.2100 -0.0251  0.2206
    1ION     CL69946   4.298   1.720   7.209  0.2078  0.0560  0.1001
    1ION     CL69947  26.891   4.653   0.605 -0.0693  0.1608 -0.0402
    1ION     CL69948   9.462   7.235   2.421 -0.4427  0.2705 -0.0455
    1ION     CL69949  13.291  19.539   1.125  0.0776  0.0600 -0.1947
    1ION     CL69950   6.921  21.248   2.558  0.4745 -0.1854  0.1109
    1ION     CL69951  21.225   9.548   9.423 -0.0312 -0.0410 -0.1127
    1ION     CL69952  22.763  22.871   6.722 -0.0887  0.0163  0.2659
    1ION     CL69953   3.157  15.501   7.885 -0.3812  0.0785 -0.2034
    1ION     CL69954  11.735  22.859   1.888 -0.0845 -0.0844  0.0113
    1ION     CL69955   7.866  28.402   8.045  0.1665 -0.0294  0.1681
    1ION     CL69956   8.231   7.067   2.630 -0.2492 -0.1036  0.0750
    1ION     CL69957  20.235  14.983   6.563  0.2081 -0.0637 -0.1541
    1ION     CL69958   6.926  15.334   7.726 -0.0718  0.2040  0.1701
    1ION     CL69959  15.640  26.879   8.622 -0.0925 -0.0928  0.0404
    1ION     CL69960   6.969  17.677   7.232 -0.4450  0.2145 -0.1924
    1ION     CL69961   4.372  26.686   1.015  0.0802 -0.0366 -0.0123
    1ION     CL69962  29.058   1.809   2.615  0.0551  0.1927 -0.1703
    1ION     CL69963  27.260  22.570   1.360  0.0201  0.1271  0.0820
    1ION     CL69964  13.967  28.597   7.513 -0.0083  0.0093  0.2768
    1ION     CL69965   2.525   8.505   9.207 -0.0092 -0.1411 -0.0234
    1ION     CL69966  19.843  25.504   9.247 -0.1360 -0.1741 -0.0324
    1ION     CL69967   6.481  26.220   0.408 -0.1423 -0.0535 -0.3963
    1ION     CL69968   0.811   5.652   0.721 -0.1768 -0.0842  0.0639
    1ION     CL69969  12.159  11.345   8.386  0.0531 -0.0468 -0.0643
    1ION     CL69970  17.475  10.149   8.082  0.3310  0.0220  0.1619
    1ION     CL69971   0.982  16.307   0.083 -0.0789  0.0395  0.1651
    1ION     CL69972   0.837  15.271   1.628 -0.1975  0.0455 -0.3546
    1ION     CL69973  19.993   9.789   0.927  0.0662  0.0446  0.0449
    1ION     CL69974  14.155  20.944   2.187  0.2433 -0.0049  0.2158
    1ION     CL69975  17.413  22.284   6.719 -0.0644  0.2468 -0.0512
    1ION     CL69976  11.898   0.188   9.288 -0.3128 -0.1213  0.5306
    1ION     CL69977  21.126  10.939   6.716  0.2954 -0.0244  0.0416
    1ION     CL69978  13.012   1.515   8.247  0.1488 -0.2738 -0.0740
    1ION     CL69979   7.356  26.616   8.187 -0.0602 -0.0150 -0.1346
    1ION     CL69980   8.123  11.637   1.173  0.2286 -0.1891  0.0055
    1ION     CL69981  27.954   3.405   0.095 -0.0543  0.3773  0.3164
    1ION     CL69982  20.458  21.565   0.247  0.1349 -0.2627  0.1533
    1ION     CL69983   9.939   8.488   7.317  0.0548  0.0225 -0.1296
    1ION     CL69984  17.343  12.377   8.502  0.0912  0.0724  0.0570
    1ION     CL69985  11.214  23.776   1.915 -0.1061 -0.1644 -0.2661
    1ION     CL69986  11.162  26.108   0.300  0.0558 -0.0185 -0.0606
    1ION     CL69987  17.062   2.970   0.450 -0.0074  0.1307  0.3925
    1ION     CL69988  16.238  24.170   2.680 -0.2011 -0.0053  0.2121
    1ION     CL69989  10.651   7.404   9.529  0.0116 -0.3356 -0.1331
    1ION     CL69990   9.570  25.019   2.630  0.3520 -0.2329  0.0820
    1ION     CL69991  28.524   4.632   6.927 -0.2688  0.0976 -0.0078
    1ION     CL69992  22.370   5.253   9.029  0.1194  0.0654 -0.0237
    1ION     CL69993   7.444  11.528   7.929  0.1265 -0.3188 -0.0859
    1ION     CL69994   7.393   8.400   2.439  0.0595  0.0824  0.0041
    1ION     CL69995  12.712  13.617   1.882 -0.0315  0.0712  0.1325
    1ION     CL69996  27.231   6.760   1.678  0.0318  0.3745 -0.0387
    1ION     CL69997  14.240  23.699   8.693 -0.2770  0.1347  0.1944
    1ION     CL69998   7.146   0.465   0.361 -0.0588 -0.1003  0.1284
    1ION     CL69999  19.191   6.831   7.979 -0.3255 -0.3953  0.1522
    1ION     CL70000   5.701  16.211   1.572 -0.0016 -0.1950  0.0690
    1ION     CL70001  14.946  22.849   8.910 -0.2024 -0.2905  0.1338
    1ION     CL70002   4.508  12.388   1.804 -0.4377  0.0965 -0.1382
    1ION     CL70003  29.022  28.451   9.333 -0.1863  0.2526 -0.0365
    1ION     CL70004   6.715  20.997   0.417  0.2453  0.3542 -0.1881
    1ION     CL70005  16.699  11.790   1.915 -0.1245 -0.4934  0.1537
    1ION     CL70006  25.182  10.540   6.664 -0.1541 -0.1001 -0.1977
    1ION     CL70007   2.593  17.352   7.620  0.1174 -0.2076 -0.1370
    1ION     CL70008  15.226  13.613   1.410 -0.1805 -0.1046 -0.0205
    1ION     CL70009   9.399   8.336   2.271  0.1211  0.1555  0.0607
    1ION     CL70010  29.172  14.737   1.525 -0.0576  0.3043 -0.2354
    1ION     CL70011   8.768  16.891   1.964 -0.3456  0.2958 -0.1188
    1ION     CL70012  11.196  27.127   6.881 -0.3091 -0.3070 -0.1280
    1ION     CL70013  29.764  11.058   9.125 -0.1118 -0.0343 -0.2394
    1ION     CL70014   0.833   4.989   7.163 -0.1193  0.0439  0.0010
    1ION     CL70015   9.152  12.678   1.537  0.0874  0.3281  0.0435
    1ION     CL70016  24.923  29.553   0.336  0.0595 -0.2207  0.2816
    1ION     CL70017   8.997  16.109   8.883 -0.0623  0.0621 -0.2795
    1ION     CL70018   3.990  21.100   7.605  0.1318  0.1194  0.0270
    1ION     CL70019   6.483   7.774   1.767  0.1041 -0.3674 -0.0578
    1ION     CL70020  20.228   5.964   0.091  0.1840 -0.0989 -0.3703
    1ION     CL70021  13.214  19.683   7.194  0.1072  0.1791  0.0653
    1ION     CL70022  25.060   9.534   7.083 -0.1632  0.1259 -0.1318
    1ION     CL70023   5.970  26.192   2.177 -0.1277 -0.0962  0.0151
    1ION     CL70024  27.083  28.775   8.817  0.0191 -0.0259  0.1918
    1ION     CL70025  25.500   4.548   1.162 -0.1530  0.1080 -0.1623
    1ION     CL70026  14.232  27.505   1.922 -0.1729  0.0967 -0.1609
    1ION     CL70027  15.857  19.409   0.866 -0.0530  0.1021 -0.3224
    1ION     CL70028  19.926   3.080   2.355 -0.1045  0.0814 -0.0067
    1ION     CL70029   5.860  17.112   1.683  0.0406 -0.2553  0.0687
    1ION     CL70030  10.868  26.481   1.173 -0.2114  0.2077 -0.2310
    1ION     CL70031   4.810  19.516   0.768  0.2232 -0.0708 -0.1353
    1ION     CL70032  18.373  23.460   2.605  0.2584  0.1180  0.1311
    1ION     CL70033  16.889  23.495   9.307  0.1610  0.0845 -0.1872
    1ION     CL70034  17.881  12.974   7.889 -0.1666 -0.0250 -0.0143
    1ION     CL70035  14.601  15.877   1.916 -0.0970  0.3497 -0.0331
    1ION     CL70036  16.654   8.961   2.978 -0.0599  0.0602 -0.0794
    1ION     CL70037  12.251  23.833   1.844 -0.0951  0.0065 -0.0069
    1ION     CL70038  17.516   6.856   3.484 -0.0928  0.4841 -0.2370
    1ION     CL70039  14.476  19.098   2.113 -0.4418 -0.1452 -0.1055
    1ION     CL70040  14.341  21.830   1.969 -0.0257  0.2658 -0.1284
    1ION     CL70041  27.057  19.273   1.304 -0.0077  0.1286 -0.0291
    1ION     CL70042   9.932   9.687   8.774  0.1557 -0.5097 -0.3151
    1ION     CL70043  19.631  29.328   1.695 -0.2253 -0.0384  0.2171
    1ION     CL70044  10.924  19.686   6.964  0.2820 -0.0349  0.3302
    1ION     CL70045  20.914  22.456   6.459  0.1332  0.2006  0.0522
    1ION     CL70046  26.236  18.180   7.594 -0.0986 -0.1689 -0.0757
    1ION     CL70047   6.873  29.794   2.072  0.3784 -0.0222  0.3298
    1ION     CL70048   4.711  29.672   0.403  0.2261  0.2726  0.1273
    1ION     CL70049   1.486   8.074   6.725 -0.0137 -0.0716  0.1055
    1ION     CL70050  19.750  17.991   6.803 -0.0554 -0.1258 -0.1119
    1ION     CL70051  26.027  17.191   7.805 -0.0440  0.0568  0.0357
    1ION     CL70052   0.623   7.172   2.100  0.0928 -0.0843  0.0532
    1ION     CL70053  15.560  17.675   8.595  0.0789  0.0880 -0.2225
    1ION     CL70054  13.076  24.777   2.354  0.0728  0.1403 -0.3081
    1ION     CL70055   8.922  23.053   0.523  0.0635  0.0146  0.0757
    1ION     CL70056  14.746  14.797   7.370  0.0679  0.2323  0.0137
    1ION     CL70057  26.815  24.911   8.770  0.0291 -0.0486  0.1063
    1ION     CL70058   3.786   2.799   7.864  0.0807  0.3538  0.0452
    1ION     CL70059   2.147   8.889   8.836  0.2334  0.1147 -0.0556
    1ION     CL70060   6.438  26.917   7.735  0.0078 -0.0944 -0.3190
    1ION     CL70061  25.339   3.534   0.083 -0.0953  0.0865 -0.0852
    1ION     CL70062  22.420   9.221   0.093  0.0902  0.2583 -0.0579
    1ION     CL70063  21.784   0.333   2.930  0.0813  0.2968 -0.1680
    1ION     CL70064  12.344  24.748   7.840 -0.2077  0.0796 -0.0452
    1ION     CL70065  10.962   6.764   8.147  0.3658 -0.0612 -0.3775
    1ION     CL70066  11.313   1.638   2.969  0.2599 -0.0932 -0.0699
    1ION     CL70067  22.589   4.442   2.411  0.0918  0.1722 -0.0062
    1ION     CL70068   9.024  23.153   7.220 -0.0083 -0.1546  0.0170
    1ION     CL70069  13.721  21.262   1.220 -0.3196  0.1317  0.0427
    1ION     CL70070  10.572   5.237   0.072  0.1150 -0.3765 -0.2560
    1ION     CL70071  24.530   3.035   7.695  0.0805  0.1244  0.1295
    1ION     CL70072  12.884   4.079   1.211 -0.0526 -0.0130 -0.3719
    1ION     CL70073   3.654  28.488   1.350 -0.1876 -0.0853 -0.0015
    1ION     CL70074   0.877  12.563   0.707  0.3049 -0.1524 -0.0310
    1ION     CL70075  20.508  20.599   2.396 -0.2713 -0.1628  0.0766
    1ION     CL70076   5.296   6.115   2.462 -0.0658 -0.0085  0.0371
    1ION     CL70077   9.189   1.934   2.815 -0.1621 -0.4313 -0.1344
    1ION     CL70078  13.317   3.171   1.313  0.2601  0.2825  0.0553
    1ION     CL70079   0.722   5.786   7.563  0.0349 -0.0957 -0.2834
    1ION     CL70080   5.187   2.204   1.175  0.0108 -0.0411  0.1816
    1ION     CL70081   0.158   4.287   8.350  0.1224  0.0296  0.2489
    1ION     CL70082   9.193   6.429   8.394 -0.2262 -0.0573  0.1338
    1ION     CL70083  18.968  17.361   6.969 -0.1507 -0.2362  0.0498
    1ION     CL70084   5.209  17.842   1.016  0.0551  0.0369 -0.0395
    1ION     CL70085   7.662  26.239   8.825  0.1041  0.0515 -0.6081
    1ION     CL70086  24.428  14.469   6.893  0.0082 -0.1307 -0.0717
    1ION     CL70087  22.885  12.593   6.624  0.0114 -0.0950  0.0653
    1ION     CL70088   9.801   2.840   2.890 -0.0552  0.0890  0.0435
    1ION     CL70089  16.216   3.231   7.585  0.0901  0.2132 -0.0039
    1ION     CL70090  25.805  11.802   7.346  0.0292  0.0293  0.0091
    1ION     CL70091   5.182   8.192   0.110 -0.0749  0.2612  0.1616
    1ION     CL70092   4.455   1.620   8.944  0.1163  0.0502  0.0978
    1ION     CL70093  28.435   6.441   2.285  0.0154  0.1762 -0.4028
    1ION     CL70094   0.389   1.836   2.329  0.1216 -0.0711  0.1081
    1ION     CL70095  10.560  23.852   8.412  0.1592 -0.0156 -0.0439
    1ION     CL70096  10.201   1.614   8.727 -0.2503  0.0066  0.0138
    1ION     CL70097   1.305   7.926   9.479  0.2188  0.1031 -0.1816
    1ION     CL70098   6.028  16.865   8.396  0.0830 -0.1298  0.3131
    1ION     CL70099   7.715  17.139   7.379  0.0536 -0.0089 -0.2573
    1ION     CL70100  21.490  14.235   0.931 -0.0924  0.1106 -0.4176
    1ION     CL70101  25.816  20.881   1.565  0.3431  0.0314 -0.0941
    1ION     CL70102   0.939  26.937   9.264 -0.4842 -0.1027 -0.0282
    1ION     CL70103  11.270   5.282   8.149 -0.5217 -0.2162  0.0677
    1ION     CL70104  19.947   9.602   8.622  0.3975 -0.0197 -0.4434
    1ION     CL70105   8.591  15.951   7.785 -0.2929  0.0978  0.2338
    1ION     CL70106   6.672   4.655   7.687 -0.0278 -0.1433  0.1573
    1ION     CL70107  25.974  13.152   8.994  0.1595  0.0234  0.0530
    1ION     CL70108  24.420  22.541   6.834  0.0258  0.0205 -0.1415
    1ION     CL70109  19.344   1.578   7.844  0.1017  0.1490  0.0467
    1ION     CL70110  27.369  22.373   2.344 -0.1294 -0.1646 -0.0812
    1ION     CL70111  12.714  12.786   7.757  0.0692  0.2155 -0.0503
    1ION     CL70112  11.345   8.867   8.764  0.0542  0.1675 -0.0549
    1ION     CL70113   3.167  18.126   7.458  0.0835 -0.0504 -0.3855
    1ION     CL70114  12.327  21.141   2.283 -0.0610 -0.2152  0.0660
    1ION     CL70115  19.497  26.326   2.485 -0.2008  0.1040  0.2538
    1ION     CL70116  13.926  24.034   0.138 -0.0596  0.1215 -0.0200
    1ION     CL70117  18.395  11.499   9.034 -0.1580 -0.1409  0.3131
    1ION     CL70118   0.665  23.860   8.481  0.1314  0.1718 -0.2794
    1ION     CL70119  12.357   4.801   7.781  0.0882  0.1728  0.2643
    1ION     CL70120  16.336  12.720   9.365 -0.2872 -0.2669  0.1484
    1ION     CL70121  15.715   8.674   2.968 -0.0483  0.1203  0.0910
    1ION     CL70122  29.612  16.238   7.208 -0.0390  0.3450 -0.0557
    1ION     CL70123  19.362  14.846   7.861  0.1767 -0.0792 -0.1537
    1ION     CL70124  12.555  15.078   7.490  0.2319 -0.0624 -0.0882
    1ION     CL70125  24.329  11.586   6.414 -0.1500  0.3027 -0.2053
    1ION     CL70126  12.311  13.916   7.659  0.2137 -0.0448  0.1701
    1ION     CL70127  15.710   0.130   2.631  0.1240  0.2166  0.0222
    1ION     CL70128  28.085  23.523   0.803 -0.1220  0.1600 -0.0485
    1ION     CL70129  23.381   8.347   1.670  0.4186 -0.0535  0.0577
    1ION     CL70130  27.150  23.080   0.671  0.2029  0.0613  0.1581
    1ION     CL70131  21.898  28.425   8.045 -0.3091  0.0659  0.0249
    1ION     CL70132  11.643  19.365   0.838 -0.2257  0.1118 -0.0904
    1ION     CL70133  12.142  22.778   6.869 -0.4110 -0.0311 -0.2002
    1ION     CL70134  17.642   0.091   7.668 -0.0069 -0.1122  0.3518
    1ION     CL70135   8.943   2.371   0.229 -0.2652 -0.0166  0.2256
    1ION     CL70136   9.816  15.939   8.987  0.2810  0.2421 -0.1969
    1ION     CL70137  17.649   4.780   9.270 -0.1179 -0.0785  0.2547
    1ION     CL70138  26.056  10.333   6.963 -0.1357  0.1512 -0.2720
    1ION     CL70139  26.255   2.761   7.270  0.3426 -0.1656  0.1010
    1ION     CL70140  21.716  26.930   2.052 -0.0233  0.0736  0.1701
    1ION     CL70141  11.653  21.151   7.431  0.1551 -0.1234 -0.1908
    1ION     CL70142  23.553  10.242   6.962  0.1875 -0.0932 -0.3529
    1ION     CL70143  26.918  14.501   8.968  0.1495  0.0126  0.1831
    1ION     CL70144   3.274  19.745   7.736  0.0374  0.1196  0.4588
    1ION     CL70145   4.596   7.769   0.504  0.1387 -0.0790 -0.1478
    1ION     CL70146  19.844   6.404   7.576  0.1462 -0.2555 -0.1174
    1ION     CL70147  12.710   3.809   0.021  0.1334  0.0264  0.1477
    1ION     CL70148   2.838  20.237   0.919  0.2420 -0.0134  0.0333
    1ION     CL70149   8.724   2.842   7.829 -0.1611  0.0182 -0.3951
    1ION     CL70150  15.763  25.909   1.463 -0.1486 -0.0238 -0.1055
    1ION     CL70151   5.374  29.125   6.840  0.0957  0.0996  0.1237
    1ION     CL70152   8.438  22.437   9.270 -0.2281 -0.1987  0.1026
    1ION     CL70153  25.659  21.375   6.398 -0.0951  0.1173 -0.1718
    1ION     CL70154  26.394   2.554   1.585  0.1885 -0.3768  0.2715
    1ION     CL70155   7.536   5.746   9.193  0.4706 -0.0621  0.1033
    1ION     CL70156  25.479   3.087   2.286  0.0835  0.3255 -0.0798
    1ION     CL70157  24.794  11.930   0.792  0.2964  0.0799 -0.3122
    1ION     CL70158  22.793   0.918   2.248  0.0661  0.0903 -0.3382
    1ION     CL70159  23.734  13.988   1.098  0.2827  0.2154  0.1536
    1ION     CL70160   9.535  13.400   0.168  0.1180  0.0877  0.3006
    1ION     CL70161  26.349  25.356   2.532  0.0926  0.1906 -0.2019
    1ION     CL70162   6.137   2.187   2.798 -0.2408  0.0711  0.1003
    1ION     CL70163  14.268  11.908   7.187 -0.2249 -0.0405 -0.1081
    1ION     CL70164   7.946  18.654   7.417 -0.0522 -0.0410 -0.1141
    1ION     CL70165  11.888  22.240   7.646  0.1455 -0.0508  0.1521
    1ION     CL70166   5.128   9.256   7.230 -0.1557  0.0658 -0.2005
    1ION     CL70167   9.431  17.587   1.842  0.2693  0.2908 -0.0236
    1ION     CL70168  24.106  12.679   1.607  0.1009 -0.0046  0.0675
    1ION     CL70169  25.268  24.130   1.870  0.0652 -0.1213  0.1662
    1ION     CL70170  20.519   7.529   0.250  0.2044 -0.0545  0.0359
    1ION     CL70171  14.011  29.061   2.467  0.0190 -0.0221 -0.1324
    1ION     CL70172   7.988  16.325   1.749 -0.1258 -0.0599  0.0408
    1ION     CL70173  21.107  28.863   8.383  0.1233 -0.0766 -0.0076
    1ION     CL70174  22.496  17.904   0.351  0.2683 -0.1176 -0.1225
    1ION     CL70175   8.215  29.761   8.205  0.0458  0.0938 -0.0572
    1ION     CL70176   4.896  22.583   8.577 -0.3105  0.0339 -0.2389
    1ION     CL70177   7.842   0.759   1.100  0.2621 -0.0229  0.1439
    1ION     CL70178  27.259  11.080   0.270  0.0434  0.0872  0.1066
    1ION     CL70179  29.717   2.077   7.927 -0.1102  0.2754 -0.2231
    1ION     CL70180  26.712  15.239   8.251 -0.0279  0.0095  0.1238
    1ION     CL70181  29.148   3.115   8.632 -0.1834 -0.1087  0.2634
    1ION     CL70182  23.067  27.315   3.118 -0.1905  0.0857 -0.0596
    1ION     CL70183  28.856  25.535   2.430 -0.2070  0.1614 -0.3303
    1ION     CL70184  27.087  27.571   2.677 -0.0299 -0.1102 -0.0109
    1ION     CL70185  17.600  23.013   7.184  0.0969  0.0495  0.2701
    1ION     CL70186   8.778  20.908   9.523  0.0204 -0.1131  0.3644
    1ION     CL70187  23.862   7.838   8.248  0.1462 -0.4875 -0.0617
    1ION     CL70188   3.108  12.800   1.285  0.1089  0.1580  0.1791
    1ION     CL70189  15.679   8.137   7.259  0.3649 -0.0009  0.1399
    1ION     CL70190   6.285  10.224   2.341 -0.0065 -0.3716 -0.1257
    1ION     CL70191   9.996   3.011   7.971 -0.1833 -0.1397 -0.1848
    1ION     CL70192   2.511  12.129   7.548  0.0813  0.2433 -0.2996
    1ION     CL70193  14.871  21.128   2.193 -0.3174  0.1140  0.1122
    1ION     CL70194  12.013  29.092   8.934 -0.0703 -0.2538  0.1450
    1ION     CL70195  20.036  26.832   0.396  0.1255  0.3093 -0.1393
    1ION     CL70196  19.857  22.076   0.821 -0.0999 -0.2643  0.0165
    1ION     CL70197  29.550  27.696   8.332  0.0554 -0.1877 -0.1315
    1ION     CL70198   4.404  15.675   1.980  0.0906  0.0301 -0.1507
    1ION     CL70199  27.271   9.423   6.944  0.1386  0.2360 -0.2742
    1ION     CL70200   0.510  26.508   1.865 -0.1472  0.3100  0.0691
    1ION     CL70201  15.203  10.506   2.773 -0.0377  0.2729  0.1499
    1ION     CL70202   6.524  22.042   7.190 -0.1738 -0.4137 -0.2039
    1ION     CL70203  19.346  16.286   1.578  0.4195 -0.0184  0.2554
    1ION     CL70204  16.544   7.557   0.978  0.3535  0.1310 -0.1802
    1ION     CL70205  22.338  26.455   2.383 -0.4295  0.0315 -0.0653
    1IPC    NC370206   9.596   5.572   7.193  0.2870  0.3108  0.0540
    1IPC    PO470207   9.778   5.865   7.341 -0.0541  0.0896 -0.2173
    1IPC    GL170208   9.562   5.946   6.930  0.3915  0.0792  0.0009
    1IPC    GL270209   9.594   5.909   6.621 -0.0685  0.0506  0.2638
    1IPC    C1B70210   9.775   5.754   6.259  0.2428  0.1849 -0.3842
    1IPC    D2B70211   9.809   5.690   5.893 -0.1594  0.1780  0.3496
    1IPC    D3B70212   9.824   5.357   5.998 -0.1124  0.0080  0.0848
    1IPC    C4B70213  10.207   5.070   5.747 -0.0042 -0.0399 -0.1565
    1IPC    NC370214  15.499  28.010   7.098  0.0340 -0.1124  0.0123
    1IPC    PO470215  15.271  28.245   6.820  0.2551 -0.2118 -0.0840
    1IPC    GL170216  15.037  28.454   6.571 -0.1019  0.4389  0.1570
    1IPC    GL270217  14.817  28.288   6.384 -0.1376 -0.1189  0.0029
    1IPC    C1B70218  14.558  28.280   5.917  0.0060  0.1236  0.1990
    1IPC    D2B70219  14.427  28.055   5.621  0.0865 -0.2018  0.0752
    1IPC    D3B70220  14.539  27.812   5.219 -0.0486 -0.1875 -0.0546
    1IPC    C4B70221  14.192  27.955   4.906 -0.0647  0.0602  0.4084
    1IPC    NC370222  17.559   7.432   7.639  0.2341 -0.3198 -0.0623
    1IPC    PO470223  17.216   7.720   7.408  0.1277 -0.1908  0.0708
    1IPC    GL170224  17.054   7.962   7.084  0.0273 -0.0836  0.0861
    1IPC    GL270225  17.056   8.151   6.798  0.0780  0.4880 -0.1271
    1IPC    C1B70226  17.125   7.981   6.409 -0.2070 -0.2087  0.1918
    1IPC    D2B70227  17.158   8.220   5.995  0.2191  0.0490  0.4310
    1IPC    D3B70228  17.397   7.822   5.935 -0.2044  0.0089  0.1609
    1IPC    C4B70229  17.225   7.420   6.063  0.0508  0.0807  0.1492
    1IPC    NC370230  19.707  18.308   6.408  0.2900  0.0467  0.0703
    1IPC    PO470231  20.016  18.427   6.136 -0.2006  0.0691 -0.0597
    1IPC    GL170232  19.727  18.362   5.904 -0.0989 -0.0761  0.1634
    1IPC    GL270233  19.736  18.404   5.615 -0.1304 -0.2059 -0.0580
    1IPC    C1B70234  19.546  18.368   5.257 -0.0669  0.0034 -0.0234
    1IPC    D2B70235  19.418  18.299   4.852 -0.3867  0.2460  0.1973
    1IPC    D3B70236  19.787  18.067   4.836 -0.0318  0.0492  0.0240
    1IPC    C4B70237  20.009  17.738   4.671 -0.2602  0.2039 -0.4118
    1IPC    NC370238   8.070  28.568   7.599 -0.0158 -0.1726 -0.0455
    1IPC    PO470239   8.360  28.532   7.286 -0.0129  0.0447  0.0803
    1IPC    GL170240   8.345  28.696   6.850  0.4191  0.0872  0.0307
    1IPC    GL270241   8.389  28.541   6.559 -0.2545 -0.0124 -0.1240
    1IPC    C1B70242   8.393  28.523   6.127  0.1874 -0.1019  0.1464
    1IPC    D2B70243   8.012  28.690   5.911  0.1316 -0.4129 -0.3828
    1IPC    D3B70244   8.281  28.817   5.603 -0.0075  0.0338  0.2368
    1IPC    C4B70245   8.240  29.135   5.189 -0.2708  0.0525  0.2503
    1IPC    NC370246  17.359  10.904   6.291  0.0249  0.0232  0.1584
    1IPC    PO470247  17.661  10.527   6.447 -0.1331  0.0016  0.0893
    1IPC    GL170248  17.532  10.421   6.030  0.1625 -0.3303 -0.0628
    1IPC    GL270249  17.653  10.505   5.642  0.2035 -0.1012 -0.0015
    1IPC    C1B70250  17.620  10.735   5.326 -0.0362 -0.2631 -0.3289
    1IPC    D2B70251  17.336  10.856   5.047 -0.2572  0.0306 -0.0793
    1IPC    D3B70252  16.963  11.126   4.892  0.0616  0.0329 -0.1353
    1IPC    C4B70253  16.938  11.507   5.209 -0.0718  0.0159  0.0041
    1IPC    NC370254   3.242  15.906   6.871  0.1070  0.1094 -0.0349
    1IPC    PO470255   3.320  15.461   6.870  0.1707 -0.1100  0.0427
    1IPC    GL170256   3.204  15.527   6.448 -0.1397  0.3195  0.0018
    1IPC    GL270257   3.103  15.718   6.227 -0.1269 -0.0149 -0.1696
    1IPC    C1B70258   2.892  15.629   5.820  0.0588  0.0018 -0.0421
    1IPC    D2B70259   2.770  15.772   5.486 -0.1498 -0.1573  0.0548
    1IPC    D3B70260   2.657  15.683   5.020 -0.0036  0.0458 -0.1012
    1IPC    C4B70261   2.647  15.395   4.739 -0.0760  0.2405 -0.0748
    1IPC    NC370262  19.254  17.028   6.712 -0.3733  0.0638 -0.6361
    1IPC    PO470263  18.919  16.637   6.658  0.3755  0.2307  0.3476
    1IPC    GL170264  18.968  16.758   6.298  0.0268 -0.1891 -0.4286
    1IPC    GL270265  18.880  16.828   6.002 -0.1752  0.3080 -0.1360
    1IPC    C1B70266  18.690  16.910   5.548  0.7140  0.0970  0.2133
    1IPC    D2B70267  18.919  16.869   5.163 -0.3319  0.1054 -0.0178
    1IPC    D3B70268  18.686  16.691   4.870 -0.1759 -0.0252 -0.2342
    1IPC    C4B70269  18.635  16.381   4.505 -0.0106  0.1033 -0.2073
    1IPC    NC370270  19.661  15.742   6.292 -0.0203  0.0932  0.1036
    1IPC    PO470271  20.080  15.749   6.037 -0.0836  0.0495 -0.1572
    1IPC    GL170272  20.115  16.138   5.742 -0.2558 -0.1128  0.1362
    1IPC    GL270273  20.068  16.263   5.378 -0.1106 -0.4595 -0.5460
    1IPC    C1B70274  19.902  16.514   4.935 -0.0727  0.1251 -0.1514
    1IPC    D2B70275  19.543  16.825   4.734  0.1266  0.0205 -0.1126
    1IPC    D3B70276  19.157  16.604   4.685  0.0558 -0.2228  0.1500
    1IPC    C4B70277  18.949  16.642   4.274 -0.0209  0.3217 -0.0867
    1IPC    NC370278  24.621   9.488   6.903 -0.0884 -0.1264  0.0816
    1IPC    PO470279  24.525   9.568   6.414  0.2026  0.2810 -0.1242
    1IPC    GL170280  24.373   9.707   6.009 -0.2815  0.2194  0.0085
    1IPC    GL270281  24.300   9.836   5.737 -0.5038  0.2703  0.1101
    1IPC    C1B70282  24.172   9.604   5.367 -0.1943  0.1058 -0.3488
    1IPC    D2B70283  23.991   9.402   5.036 -0.0075  0.1292 -0.2185
    1IPC    D3B70284  23.632   9.160   4.959 -0.0101  0.0148  0.0676
    1IPC    C4B70285  23.565   8.924   5.321  0.3503  0.0497 -0.0816
    1IPC    NC370286  26.496  27.063   7.244  0.2166 -0.2274 -0.0466
    1IPC    PO470287  26.626  26.711   7.046 -0.0826 -0.1283  0.2916
    1IPC    GL170288  26.450  26.973   6.709 -0.1449 -0.1696  0.1381
    1IPC    GL270289  26.131  27.179   6.606  0.0931  0.1155 -0.1750
    1IPC    C1B70290  25.756  27.312   6.315 -0.1072 -0.3487 -0.1177
    1IPC    D2B70291  25.489  27.257   6.013 -0.1130  0.3390 -0.0128
    1IPC    D3B70292  25.631  27.196   5.569  0.0926 -0.0330 -0.0602
    1IPC    C4B70293  25.997  26.912   5.477  0.3046 -0.0469  0.0807
    1IPC    NC370294  13.613   8.502   6.829 -0.0679  0.0369 -0.2881
    1IPC    PO470295  13.659   8.944   7.005 -0.0008  0.0899 -0.2193
    1IPC    GL170296  13.871   8.906   6.684 -0.2730 -0.0452 -0.0491
    1IPC    GL270297  13.782   8.988   6.369  0.4155 -0.2523 -0.1300
    1IPC    C1B70298  13.774   8.787   5.916 -0.0595 -0.1067  0.0462
    1IPC    D2B70299  13.690   8.356   5.862 -0.0362  0.0496 -0.1859
    1IPC    D3B70300  13.387   8.345   5.554 -0.1204  0.2572  0.0026
    1IPC    C4B70301  13.336   8.508   5.107  0.1283  0.2985  0.2593
    1IPC    NC370302   9.245   3.895   7.884  0.0077  0.0349  0.2886
    1IPC    PO470303   9.407   3.434   7.712  0.1356 -0.0904 -0.3664
    1IPC    GL170304   9.542   3.318   7.330  0.1226  0.2780  0.0424
    1IPC    GL270305   9.795   3.368   7.123  0.0992 -0.0129  0.3143
    1IPC    C1B70306   9.735   3.553   6.776  0.0078 -0.0760 -0.0247
    1IPC    D2B70307   9.691   3.914   6.438 -0.1320  0.0079  0.0312
    1IPC    D3B70308   9.997   3.711   6.307 -0.0126 -0.2407 -0.2126
    1IPC    C4B70309   9.874   3.602   5.912  0.0365 -0.2806  0.0753
    1IPC    NC370310  27.389   6.289   6.762 -0.2018  0.1848  0.1304
    1IPC    PO470311  27.863   6.412   6.843  0.4028 -0.3000 -0.2697
    1IPC    GL170312  27.951   6.198   6.409  0.1269 -0.1579  0.2154
    1IPC    GL270313  27.957   6.265   6.109  0.1239  0.2309  0.0589
    1IPC    C1B70314  27.940   6.104   5.594 -0.1403  0.0201 -0.0812
    1IPC    D2B70315  27.912   5.835   5.177 -0.1344 -0.3994 -0.2050
    1IPC    D3B70316  28.260   5.966   4.858 -0.1106  0.1524 -0.0192
    1IPC    C4B70317  28.421   5.654   4.600 -0.0117  0.0954 -0.0400
    1IPC    NC370318  18.764   1.191   6.880  0.2559  0.0370 -0.1045
    1IPC    PO470319  18.654   1.444   6.499  0.0332  0.0926 -0.2777
    1IPC    GL170320  18.854   1.739   6.209  0.0911 -0.0391 -0.0643
    1IPC    GL270321  18.938   1.694   6.017  0.0635 -0.0193  0.0379
    1IPC    C1B70322  18.805   1.915   5.682 -0.2086 -0.0641 -0.0452
    1IPC    D2B70323  18.512   1.743   5.309  0.0235  0.1482  0.4322
    1IPC    D3B70324  18.591   1.998   5.110 -0.2944 -0.0147  0.0379
    1IPC    C4B70325  18.769   2.325   5.339  0.1232  0.2348  0.1503
    1IPC    NC370326   9.635  26.863   7.807 -0.0995  0.2057  0.1833
    1IPC    PO470327   9.407  26.936   7.453  0.0614 -0.3346  0.1054
    1IPC    GL170328   9.091  26.941   7.006  0.2145  0.3371 -0.1575
    1IPC    GL270329   8.799  27.030   6.724  0.1542 -0.0584  0.0657
    1IPC    C1B70330   8.521  27.349   6.484  0.1067  0.0544  0.0706
    1IPC    D2B70331   8.590  27.573   6.174  0.1021 -0.2610 -0.1339
    1IPC    D3B70332   8.171  27.440   6.034 -0.0990  0.0096  0.2832
    1IPC    C4B70333   8.128  27.230   5.652  0.2055  0.4358  0.0019
    1IPC    NC370334  22.576  23.511   6.823 -0.0707  0.1965 -0.0098
    1IPC    PO470335  22.481  23.528   6.387 -0.0487 -0.3252 -0.1821
    1IPC    GL170336  22.599  23.861   6.087 -0.3676  0.1626  0.0677
    1IPC    GL270337  22.584  23.869   5.734  0.0606 -0.2385 -0.1608
    1IPC    C1B70338  22.560  23.950   5.274 -0.1622  0.2766 -0.2189
    1IPC    D2B70339  22.701  24.234   4.959 -0.2926 -0.2500 -0.0856
    1IPC    D3B70340  22.703  24.621   5.082 -0.1007 -0.1568  0.0019
    1IPC    C4B70341  22.323  24.825   4.821  0.1843  0.1296  0.2457
    1IPC    NC370342  25.691   8.104   7.015  0.2625  0.1536 -0.0958
    1IPC    PO470343  26.083   7.828   6.872 -0.0894 -0.1998 -0.0837
    1IPC    GL170344  26.112   7.433   7.030 -0.1032  0.0817  0.1227
    1IPC    GL270345  26.221   7.147   6.838 -0.0019 -0.0061 -0.1818
    1IPC    C1B70346  26.159   7.166   6.437 -0.0643  0.0254  0.1346
    1IPC    D2B70347  26.112   7.483   6.154 -0.0754  0.0758  0.1270
    1IPC    D3B70348  26.554   7.306   6.102  0.1601 -0.3717  0.2326
    1IPC    C4B70349  26.594   7.113   5.638  0.1272  0.1793  0.0130
    1IPC    NC370350   7.925   1.636   8.151 -0.0871  0.2701  0.1467
    1IPC    PO470351   7.696   1.667   7.751 -0.0827 -0.0178 -0.0555
    1IPC    GL170352   7.637   1.755   7.213  0.1748  0.1609  0.0418
    1IPC    GL270353   7.555   1.822   7.008  0.0096  0.0935  0.4374
    1IPC    C1B70354   7.461   1.742   6.528  0.1283 -0.0924 -0.3567
    1IPC    D2B70355   7.450   1.547   6.119  0.1835 -0.2827  0.0653
    1IPC    D3B70356   7.071   1.356   6.028  0.3538 -0.3043  0.0432
    1IPC    C4B70357   6.937   1.223   5.687 -0.1621 -0.1546  0.1485
    1IPC    NC370358  17.137  23.067   7.014 -0.2476 -0.0150 -0.1254
    1IPC    PO470359  16.901  22.924   6.736  0.0278 -0.1407 -0.0371
    1IPC    GL170360  16.801  22.925   6.293 -0.3759 -0.0936  0.0575
    1IPC    GL270361  16.678  22.945   6.016 -0.1645  0.0963 -0.3075
    1IPC    C1B70362  16.388  23.118   5.781  0.1375 -0.0274  0.0572
    1IPC    D2B70363  16.418  23.434   5.472 -0.1514 -0.2478  0.0139
    1IPC    D3B70364  16.367  23.311   5.038 -0.4932  0.0158  0.0567
    1IPC    C4B70365  16.314  23.368   4.563  0.1014  0.2503 -0.2235
    1IPC    NC370366  14.406  22.657   6.746 -0.2576 -0.1004 -0.0186
    1IPC    PO470367  14.582  22.415   7.087 -0.0221  0.0564 -0.0131
    1IPC    GL170368  14.940  22.557   6.805  0.0909  0.2282  0.1585
    1IPC    GL270369  14.961  22.540   6.404  0.1976 -0.1538 -0.1345
    1IPC    C1B70370  15.039  22.238   6.099 -0.0273 -0.0122 -0.3242
    1IPC    D2B70371  15.395  22.069   5.971 -0.1422  0.0490 -0.1289
    1IPC    D3B70372  15.306  22.032   5.511 -0.0807  0.0156 -0.1115
    1IPC    C4B70373  15.191  21.789   5.243  0.0266  0.1151  0.1427
    1IPC    NC370374   3.670   3.268   7.752  0.0520  0.0949 -0.0771
    1IPC    PO470375   4.015   3.098   7.460  0.1496  0.0711  0.1796
    1IPC    GL170376   4.131   2.931   7.048 -0.0191  0.3189  0.3610
    1IPC    GL270377   4.207   2.799   6.735  0.2443  0.1066  0.1279
    1IPC    C1B70378   4.510   2.881   6.605 -0.1396 -0.0922 -0.1934
    1IPC    D2B70379   4.950   2.892   6.508 -0.1360 -0.0038 -0.1274
    1IPC    D3B70380   5.005   2.634   6.256  0.5199 -0.1546  0.2694
    1IPC    C4B70381   5.260   2.678   5.942  0.0226  0.3676  0.1015
    1IPC    NC370382   3.169  22.320   7.896  0.1101 -0.2860 -0.1933
    1IPC    PO470383   2.897  21.912   7.740 -0.1991  0.1383  0.1671
    1IPC    GL170384   2.861  22.242   7.529  0.3699  0.2224  0.0291
    1IPC    GL270385   2.968  22.475   7.219 -0.0468  0.1103  0.0390
    1IPC    C1B70386   3.105  22.354   6.777 -0.0007 -0.1570 -0.1489
    1IPC    D2B70387   3.468  22.497   6.618  0.0594 -0.2336  0.2239
    1IPC    D3B70388   3.234  22.872   6.774  0.0500 -0.1028  0.0442
    1IPC    C4B70389   3.131  23.272   6.523 -0.1029  0.0822 -0.0699
    1IPC    NC370390  19.588   0.594   7.224  0.3654  0.1564  0.4951
    1IPC    PO470391  19.666   0.877   7.340 -0.0003  0.0219  0.0025
    1IPC    GL170392  19.822   0.726   6.827 -0.1534 -0.0770 -0.0612
    1IPC    GL270393  19.992   0.855   6.593  0.1262 -0.3080 -0.2050
    1IPC    C1B70394  19.974   0.526   6.229 -0.1430 -0.1120 -0.0522
    1IPC    D2B70395  19.995   0.548   5.811 -0.0087 -0.0587  0.3040
    1IPC    D3B70396  19.974   0.241   5.442  0.0476 -0.0322  0.1404
    1IPC    C4B70397  20.371   0.086   5.246  0.2278  0.0604 -0.4275
    1IPC    NC370398  18.659  18.279   6.319  0.2116  0.1302 -0.1861
    1IPC    PO470399  19.008  18.155   6.355  0.0189 -0.2897 -0.0018
    1IPC    GL170400  19.258  18.300   6.064  0.1966  0.3106  0.2254
    1IPC    GL270401  19.172  18.475   5.655  0.0920  0.6034 -0.2405
    1IPC    C1B70402  19.060  18.601   5.185 -0.0501 -0.2145 -0.1388
    1IPC    D2B70403  18.916  18.783   4.788 -0.0702  0.1279  0.2572
    1IPC    D3B70404  18.573  18.455   4.881 -0.0453 -0.0401 -0.0895
    1IPC    C4B70405  18.520  18.089   4.565  0.0309  0.0689  0.0979
    1IPC    NC370406  27.765  10.393   6.374  0.1080  0.0265 -0.1311
    1IPC    PO470407  28.225  10.427   6.473  0.1546 -0.1474  0.2549
    1IPC    GL170408  28.169  10.177   6.169  0.0155  0.1612 -0.1774
    1IPC    GL270409  28.004   9.980   5.959 -0.2954 -0.0318 -0.3265
    1IPC    C1B70410  27.881  10.022   5.588  0.2743  0.0488  0.4165
    1IPC    D2B70411  27.549  10.164   5.346 -0.0504  0.1966 -0.1416
    1IPC    D3B70412  27.788  10.258   5.092 -0.0442 -0.1170  0.0076
    1IPC    C4B70413  27.685  10.545   4.810 -0.1460 -0.2694  0.0436
    1IPC    NC370414  15.962   2.297   7.046  0.0407 -0.0002  0.0172
    1IPC    PO470415  15.539   2.262   7.121 -0.1386 -0.0351  0.2061
    1IPC    GL170416  15.618   1.742   7.066 -0.2942 -0.2462  0.0395
    1IPC    GL270417  15.554   1.440   6.974  0.0190 -0.0124 -0.2233
    1IPC    C1B70418  15.305   1.545   6.693  0.1063  0.0391  0.1165
    1IPC    D2B70419  15.189   1.496   6.378  0.0596  0.0204 -0.3436
    1IPC    D3B70420  14.799   1.495   6.369  0.1458  0.0785  0.1068
    1IPC    C4B70421  14.578   1.287   6.225  0.1044 -0.0742  0.2046
    1IPC    NC370422  16.195  10.261   6.536 -0.3972 -0.0544  0.1893
    1IPC    PO470423  15.862  10.633   6.537  0.0635  0.3558 -0.0062
    1IPC    GL170424  15.547  10.514   6.297 -0.0231  0.0885 -0.0616
    1IPC    GL270425  15.462  10.538   6.065  0.1806 -0.2735  0.3357
    1IPC    C1B70426  15.248  10.202   5.919 -0.0332 -0.1206 -0.1147
    1IPC    D2B70427  15.110   9.953   5.596  0.0411  0.0125  0.6390
    1IPC    D3B70428  14.877   9.913   5.195 -0.3956  0.0807 -0.1440
    1IPC    C4B70429  14.852   9.599   4.853 -0.1603 -0.0283 -0.4612
    1IPC    NC370430  20.461   0.133   7.470  0.2079  0.4206 -0.2188
    1IPC    PO470431  20.266  -0.024   7.730 -0.3460  0.0255  0.2108
    1IPC    GL170432  19.993   0.002   7.384 -0.3224  0.1805  0.1268
    1IPC    GL270433  20.047  -0.073   7.111  0.1086  0.2819 -0.2419
    1IPC    C1B70434  20.201  -0.309   6.816 -0.1098 -0.0577  0.3295
    1IPC    D2B70435  20.344  -0.763   6.612  0.1908 -0.0719  0.2013
    1IPC    D3B70436  20.579  -0.732   6.087 -0.0508  0.0424  0.2075
    1IPC    C4B70437  20.368  -0.752   5.695 -0.2604 -0.0761 -0.3033
    1IPC    NC370438  10.684  26.164   7.443  0.0404 -0.1200 -0.0613
    1IPC    PO470439  10.542  26.426   7.076  0.0111  0.0703  0.2559
    1IPC    GL170440  10.459  26.505   6.561 -0.1271 -0.2906  0.3343
    1IPC    GL270441  10.482  26.431   6.259  0.0561  0.0348 -0.1062
    1IPC    C1B70442  10.398  26.442   5.885 -0.0756  0.0416 -0.0461
    1IPC    D2B70443  10.458  26.499   5.473  0.0096  0.2797 -0.2976
    1IPC    D3B70444  10.156  26.857   5.468  0.1457  0.1033  0.1593
    1IPC    C4B70445  10.221  27.262   5.520 -0.0872 -0.0561  0.1441
    1IPC    NC370446  26.145  21.313   6.111  0.1989 -0.1124  0.2613
    1IPC    PO470447  25.924  20.934   6.247  0.1817  0.2691  0.2399
    1IPC    GL170448  25.974  21.053   5.715 -0.0441 -0.1544 -0.2047
    1IPC    GL270449  25.961  21.072   5.378 -0.3616  0.0406  0.1476
    1IPC    C1B70450  25.914  21.266   5.005  0.1769  0.2870 -0.1173
    1IPC    D2B70451  25.959  21.256   4.509 -0.1475 -0.0655  0.1540
    1IPC    D3B70452  25.663  21.320   4.116  0.3407  0.0895 -0.3659
    1IPC    C4B70453  25.507  21.013   3.805 -0.2403 -0.2317  0.0242
    1IPC    NC370454  19.762  28.988   7.670 -0.0454  0.3130 -0.4383
    1IPC    PO470455  19.865  28.546   7.678  0.1079 -0.1127 -0.3390
    1IPC    GL170456  19.821  28.684   7.270  0.1038 -0.0491  0.1487
    1IPC    GL270457  19.744  28.657   6.910  0.0655  0.0229  0.1314
    1IPC    C1B70458  19.608  28.433   6.544 -0.1506  0.2021  0.0268
    1IPC    D2B70459  19.531  28.177   6.336  0.0356  0.1629 -0.0611
    1IPC    D3B70460  19.626  28.565   6.002 -0.1099  0.3179 -0.3863
    1IPC    C4B70461  19.328  28.694   5.717 -0.2055 -0.3155 -0.1461
    1IPC    NC370462  25.553  27.868   6.864  0.1147  0.3152  0.1162
    1IPC    PO470463  25.674  27.606   7.257 -0.0028  0.0022 -0.1836
    1IPC    GL170464  25.588  27.322   6.847  0.1684  0.0190  0.2628
    1IPC    GL270465  25.616  27.010   6.671  0.0266  0.2063  0.2063
    1IPC    C1B70466  25.424  26.833   6.293  0.0955  0.1076 -0.1204
    1IPC    D2B70467  25.556  26.704   5.877  0.0151  0.1881 -0.3074
    1IPC    D3B70468  25.904  26.472   5.935 -0.2986  0.2274 -0.0761
    1IPC    C4B70469  26.049  26.253   5.690  0.0564 -0.1297 -0.1948
    1IPC    NC370470   2.910  24.341   7.105  0.1946  0.2200 -0.0643
    1IPC    PO470471   2.791  24.711   7.302  0.1441 -0.2597 -0.0764
    1IPC    GL170472   2.812  24.836   6.852 -0.3087  0.1699  0.0240
    1IPC    GL270473   2.875  25.003   6.609 -0.0317 -0.0864 -0.0110
    1IPC    C1B70474   2.893  25.162   6.217  0.2796 -0.2310  0.0314
    1IPC    D2B70475   3.165  25.121   5.837  0.0703  0.2668  0.2958
    1IPC    D3B70476   3.179  25.178   5.453  0.1173 -0.0968 -0.5003
    1IPC    C4B70477   3.393  24.883   5.207 -0.0012 -0.0993  0.0536
    1IPC    NC370478  14.569   1.829   7.284  0.1542  0.0534 -0.1795
    1IPC    PO470479  14.654   2.397   7.150  0.2440 -0.1608  0.3480
    1IPC    GL170480  14.484   2.150   6.870 -0.0313 -0.0341 -0.0207
    1IPC    GL270481  14.370   2.000   6.620 -0.1731 -0.0145 -0.0532
    1IPC    C1B70482  14.205   2.035   6.278  0.0525  0.1789  0.3035
    1IPC    D2B70483  13.791   1.973   6.050 -0.2709  0.0574  0.2944
    1IPC    D3B70484  14.006   1.811   5.565 -0.1308  0.0710 -0.2280
    1IPC    C4B70485  13.820   1.931   5.125  0.0682  0.0846  0.2468
    1IPC    NC370486  29.215  12.402   7.466  0.0958 -0.0746  0.0746
    1IPC    PO470487  29.175  12.392   7.066 -0.2084 -0.0834 -0.0675
    1IPC    GL170488  28.967  12.188   6.746 -0.1618 -0.2263 -0.2823
    1IPC    GL270489  29.083  12.022   6.370 -0.1828 -0.0191 -0.2046
    1IPC    C1B70490  29.406  12.106   6.038 -0.0417 -0.1076 -0.2441
    1IPC    D2B70491  29.433  12.254   5.617  0.2897 -0.2477 -0.1753
    1IPC    D3B70492  28.956  12.113   5.478  0.0240  0.1048  0.0715
    1IPC    C4B70493  29.031  11.625   5.397  0.0506 -0.1494  0.0824
    1IPC    NC370494  23.221  26.020   7.883  0.1978  0.0194  0.1227
    1IPC    PO470495  23.082  26.251   7.464  0.2553 -0.1382 -0.0324
    1IPC    GL170496  23.153  26.123   7.023 -0.0305  0.0857 -0.1717
    1IPC    GL270497  23.218  26.088   6.688 -0.0204  0.1534 -0.0708
    1IPC    C1B70498  23.153  26.171   6.304  0.1951 -0.0864  0.0217
    1IPC    D2B70499  23.100  26.220   5.952  0.0668 -0.1056  0.0645
    1IPC    D3B70500  22.937  26.049   5.531 -0.0544  0.2993 -0.0266
    1IPC    C4B70501  22.567  26.063   5.317  0.0655  0.1052  0.2045
    1IPC    NC370502   9.597  28.595   7.048  0.1086 -0.0703 -0.1294
    1IPC    PO470503   9.738  28.161   7.273  0.2157 -0.3394  0.1278
    1IPC    GL170504   9.593  27.807   7.052  0.4091 -0.2437 -0.0594
    1IPC    GL270505   9.624  27.649   6.805  0.2952 -0.0484 -0.1920
    1IPC    C1B70506   9.643  27.635   6.354  0.1777 -0.1150 -0.0685
    1IPC    D2B70507   9.537  27.472   5.934  0.4117  0.2166 -0.1722
    1IPC    D3B70508   9.341  27.218   5.589  0.0467  0.4423  0.3533
    1IPC    C4B70509   9.619  27.084   5.191 -0.2346 -0.1177  0.0572
    1IPC    NC370510  20.393   9.096   6.763 -0.1088  0.2736  0.1071
    1IPC    PO470511  20.452   8.717   6.737 -0.0369  0.1355  0.3545
    1IPC    GL170512  20.415   8.497   6.345 -0.1789 -0.0423 -0.0749
    1IPC    GL270513  20.549   8.404   6.040  0.1124  0.2672  0.0119
    1IPC    C1B70514  20.729   8.525   5.618 -0.0142  0.1559 -0.0875
    1IPC    D2B70515  21.069   8.551   5.288  0.0113  0.1088 -0.0707
    1IPC    D3B70516  20.718   8.577   5.045 -0.1661  0.0890 -0.3908
    1IPC    C4B70517  20.234   8.514   5.067 -0.1109  0.0127  0.2685
    1IPC    NC370518  17.945  25.022   7.702 -0.0653 -0.2133 -0.3891
    1IPC    PO470519  17.737  25.411   7.575  0.3083  0.1355 -0.0145
    1IPC    GL170520  17.766  25.523   7.120 -0.4198  0.2764  0.1733
    1IPC    GL270521  17.816  25.637   6.808 -0.0736  0.1505 -0.1450
    1IPC    C1B70522  18.042  25.635   6.579  0.2274  0.3007  0.0980
    1IPC    D2B70523  18.152  25.504   6.172 -0.1719 -0.0033  0.1501
    1IPC    D3B70524  18.209  25.902   6.056  0.0367  0.0121  0.0864
    1IPC    C4B70525  18.532  26.018   5.944  0.2685 -0.1619  0.1105
    1IPC    NC370526   5.976   8.635   7.319  0.0098 -0.0586 -0.1131
    1IPC    PO470527   5.857   8.217   7.424 -0.1517 -0.1928 -0.0832
    1IPC    GL170528   6.061   8.208   7.006  0.1807 -0.0843 -0.0670
    1IPC    GL270529   6.091   8.107   6.631 -0.0787 -0.0785 -0.4475
    1IPC    C1B70530   6.119   7.748   6.351 -0.1160 -0.1599 -0.0071
    1IPC    D2B70531   6.152   7.692   5.986 -0.2945  0.0936  0.0939
    1IPC    D3B70532   6.238   7.312   5.670  0.2867 -0.1290  0.1040
    1IPC    C4B70533   6.583   7.224   5.463 -0.2342 -0.1940 -0.0374
    1IPC    NC370534  14.483  21.948   7.142 -0.0991 -0.1361 -0.0708
    1IPC    PO470535  14.534  22.163   6.669  0.1832  0.2761 -0.2252
    1IPC    GL170536  14.639  21.974   6.300  0.0466 -0.2552  0.2556
    1IPC    GL270537  14.441  21.693   6.076 -0.0214  0.1878 -0.4281
    1IPC    C1B70538  14.351  21.623   5.703 -0.1189  0.2402  0.0181
    1IPC    D2B70539  14.448  21.235   5.384  0.1998 -0.0438 -0.2067
    1IPC    D3B70540  14.237  21.237   5.012  0.0194  0.0141 -0.0157
    1IPC    C4B70541  14.348  21.079   4.716 -0.2122  0.1416 -0.1573
    1IPC    NC370542  11.432  20.822   7.146 -0.2457  0.1964 -0.1998
    1IPC    PO470543  11.804  20.741   6.916  0.0965 -0.1093 -0.1034
    1IPC    GL170544  11.879  20.922   6.504 -0.0395 -0.1979 -0.1558
    1IPC    GL270545  11.831  20.881   6.081 -0.1482 -0.1635  0.1287
    1IPC    C1B70546  11.951  20.708   5.721  0.2326  0.3187 -0.2311
    1IPC    D2B70547  11.975  20.579   5.299  0.0501  0.1242 -0.3032
    1IPC    D3B70548  12.384  20.534   5.023  0.3946  0.1295 -0.2957
    1IPC    C4B70549  12.300  20.342   4.613 -0.0847 -0.3473 -0.1245
    1IPC    NC370550  26.736   1.504   6.873  0.0266 -0.0325  0.2811
    1IPC    PO470551  27.122   1.654   7.130  0.0335 -0.3186 -0.3001
    1IPC    GL170552  27.302   1.372   6.815  0.0505 -0.1358 -0.1109
    1IPC    GL270553  27.200   1.195   6.644 -0.1974 -0.2491  0.0830
    1IPC    C1B70554  27.356   0.937   6.446 -0.2727 -0.0002  0.0073
    1IPC    D2B70555  27.572   1.218   6.119  0.0861 -0.1498 -0.1371
    1IPC    D3B70556  27.207   1.286   6.152 -0.0025 -0.1206  0.1409
    1IPC    C4B70557  26.881   1.238   6.298  0.1611 -0.1119 -0.1119
    1IPC    NC370558   2.752   5.435   7.378  0.1059 -0.0380  0.1605
    1IPC    PO470559   3.069   5.293   7.137  0.3608  0.2178 -0.3489
    1IPC    GL170560   3.248   4.911   6.979  0.0057  0.0762 -0.2406
    1IPC    GL270561   3.468   4.858   6.734 -0.2513 -0.4299 -0.0602
    1IPC    C1B70562   3.654   5.013   6.349 -0.0568  0.4355 -0.1485
    1IPC    D2B70563   3.714   5.226   5.935 -0.0029 -0.0472 -0.1085
    1IPC    D3B70564   3.460   5.497   5.819 -0.1139  0.0444  0.0371
    1IPC    C4B70565   3.543   5.491   5.386 -0.2473 -0.4413 -0.4162
    1IPC    NC370566   6.435  29.324   6.797  0.0060 -0.0536 -0.2242
    1IPC    PO470567   6.276  29.626   7.105  0.0358 -0.0043 -0.0312
    1IPC    GL170568   6.051  29.624   6.697  0.1153 -0.3058 -0.0534
    1IPC    GL270569   6.048  29.646   6.317 -0.1297 -0.1587 -0.2585
    1IPC    C1B70570   6.312  29.573   5.901 -0.2060 -0.2975  0.1379
    1IPC    D2B70571   6.461  29.719   5.516 -0.0964  0.2346  0.1788
    1IPC    D3B70572   6.949  29.601   5.427  0.1474 -0.0271 -0.2110
    1IPC    C4B70573   7.259  29.835   5.707 -0.1378 -0.1352  0.1331
    1IPC    NC370574  27.775  28.817   7.136 -0.2132  0.2099 -0.1071
    1IPC    PO470575  28.155  28.959   7.096  0.5298 -0.0330 -0.0168
    1IPC    GL170576  27.934  29.115   6.703  0.0378 -0.1208 -0.0040
    1IPC    GL270577  27.898  29.035   6.370  0.0895  0.2316  0.2430
    1IPC    C1B70578  27.662  29.062   6.034  0.0183 -0.2425  0.1951
    1IPC    D2B70579  27.366  29.082   5.727 -0.1666  0.0842  0.0464
    1IPC    D3B70580  27.263  29.108   5.443  0.1853 -0.0804 -0.4106
    1IPC    C4B70581  27.123  29.415   5.336 -0.0542  0.0264  0.1426
    1IPC    NC370582  24.916  23.400   6.484 -0.0740 -0.1034  0.3340
    1IPC    PO470583  24.590  23.613   6.440  0.1866 -0.0348 -0.2062
    1IPC    GL170584  24.389  23.621   6.029 -0.0935 -0.1914 -0.0758
    1IPC    GL270585  24.260  23.525   5.794  0.0621  0.4135 -0.0367
    1IPC    C1B70586  24.149  23.409   5.333 -0.0881 -0.3134  0.2005
    1IPC    D2B70587  23.829  23.289   5.041  0.0558  0.0279 -0.1099
    1IPC    D3B70588  23.941  23.222   4.642  0.0126 -0.1593 -0.1801
    1IPC    C4B70589  23.732  23.030   4.169  0.0943  0.0418  0.1024
    1IPC    NC370590  13.138   6.269   7.446 -0.0719  0.0871  0.4367
    1IPC    PO470591  12.961   5.971   7.104  0.0590 -0.2803 -0.0454
    1IPC    GL170592  12.890   5.857   6.591  0.2769 -0.3132  0.1336
    1IPC    GL270593  12.770   5.941   6.224  0.1981 -0.1428 -0.2818
    1IPC    C1B70594  12.527   5.775   5.868 -0.0544  0.0813 -0.2001
    1IPC    D2B70595  12.488   5.667   5.547 -0.0798 -0.2120 -0.1162
    1IPC    D3B70596  12.384   5.207   5.550  0.2322 -0.0276 -0.2401
    1IPC    C4B70597  12.511   4.878   5.732  0.0476  0.0304 -0.0078
    1IPC    NC370598  21.112  17.345   5.288 -0.0834 -0.1046  0.0164
    1IPC    PO470599  20.939  17.757   5.515 -0.1420 -0.1359 -0.0588
    1IPC    GL170600  20.842  17.844   5.138 -0.1207 -0.2481 -0.1492
    1IPC    GL270601  20.922  17.674   4.901 -0.0187 -0.0502 -0.0290
    1IPC    C1B70602  20.622  17.595   4.497 -0.1948 -0.1481  0.1434
    1IPC    D2B70603  20.663  17.557   4.058 -0.1632  0.0397 -0.0726
    1IPC    D3B70604  20.777  17.859   3.777  0.1562 -0.1439  0.1369
    1IPC    C4B70605  20.613  17.872   3.397  0.0830  0.0789  0.0396
    1IPC    NC370606  11.334   8.218   6.802 -0.2015 -0.0637 -0.2351
    1IPC    PO470607  10.940   8.225   6.458  0.0510  0.0073  0.1277
    1IPC    GL170608  10.829   7.817   6.260  0.1716 -0.0272 -0.0296
    1IPC    GL270609  10.796   7.739   6.059  0.0208 -0.1994 -0.0638
    1IPC    C1B70610  10.748   7.873   5.660  0.3422  0.0389  0.0510
    1IPC    D2B70611  10.810   8.210   5.395 -0.0078  0.1143  0.0712
    1IPC    D3B70612  10.483   8.571   5.379  0.2721  0.3674  0.0011
    1IPC    C4B70613  10.286   9.005   5.468  0.0626 -0.2936  0.0692
    1IPC    NC370614   5.371  27.691   6.167  0.0533  0.1895  0.0932
    1IPC    PO470615   5.314  28.121   6.385 -0.1988 -0.0922 -0.1861
    1IPC    GL170616   5.231  28.311   6.063  0.0068 -0.1299  0.2368
    1IPC    GL270617   5.300  28.497   5.775 -0.0423 -0.1371  0.1437
    1IPC    C1B70618   5.315  28.696   5.424 -0.0164  0.4591 -0.1984
    1IPC    D2B70619   5.603  28.797   5.006  0.0540  0.2291  0.2940
    1IPC    D3B70620   5.496  29.229   4.833 -0.2048  0.3744  0.2262
    1IPC    C4B70621   5.572  29.467   5.161 -0.2436 -0.4424  0.3005
    1IPC    NC370622   9.528  23.936   7.101  0.1193  0.0320  0.2653
    1IPC    PO470623   9.592  23.639   6.883  0.0165 -0.1201  0.0681
    1IPC    GL170624   9.523  23.626   6.421 -0.0501  0.0228 -0.0921
    1IPC    GL270625   9.608  23.401   6.189 -0.0708  0.0888  0.0963
    1IPC    C1B70626   9.827  23.498   5.721  0.0326 -0.1340  0.1888
    1IPC    D2B70627  10.172  23.474   5.468  0.0574 -0.0164 -0.0599
    1IPC    D3B70628  10.133  23.273   5.028  0.0103 -0.0549  0.0782
    1IPC    C4B70629  10.093  23.014   4.702  0.0357  0.1352  0.1244
    1IPC    NC370630   1.970   8.019   6.546 -0.0715 -0.0970  0.0652
    1IPC    PO470631   2.187   7.504   6.449 -0.1256  0.3956  0.0435
    1IPC    GL170632   2.490   7.388   6.262  0.1030  0.1052 -0.1899
    1IPC    GL270633   2.492   7.243   5.965 -0.1518 -0.1776 -0.0695
    1IPC    C1B70634   2.552   7.141   5.599  0.2231 -0.0151  0.2764
    1IPC    D2B70635   2.449   7.143   5.130 -0.0795  0.1450 -0.2129
    1IPC    D3B70636   2.630   6.797   5.139 -0.1850  0.1739 -0.1088
    1IPC    C4B70637   2.787   6.620   5.505 -0.1622 -0.0187  0.2280
    1IPC    NC370638  10.440  19.219   6.702  0.2648 -0.1747  0.2281
    1IPC    PO470639  10.763  18.869   6.491 -0.2519 -0.0305  0.0770
    1IPC    GL170640  10.576  18.506   6.323 -0.1642 -0.0325 -0.0193
    1IPC    GL270641  10.569  18.364   6.063 -0.1940  0.0532 -0.3765
    1IPC    C1B70642  10.689  18.346   5.608 -0.0489  0.2409 -0.1262
    1IPC    D2B70643  10.757  18.461   5.184  0.0565 -0.7270 -0.1426
    1IPC    D3B70644  10.735  18.945   5.288 -0.0286 -0.3735  0.3051
    1IPC    C4B70645  10.926  19.213   5.714 -0.3437 -0.1623 -0.2619
    1IPC    NC370646   2.056  26.074   7.027 -0.0496  0.0607 -0.0779
    1IPC    PO470647   2.410  26.332   7.283  0.2124  0.0573 -0.0153
    1IPC    GL170648   2.472  26.263   6.855  0.2403 -0.0886 -0.1453
    1IPC    GL270649   2.574  26.394   6.668 -0.1290  0.0304  0.1462
    1IPC    C1B70650   2.308  26.464   6.346 -0.1692 -0.2764 -0.1784
    1IPC    D2B70651   1.986  26.410   6.230  0.3801 -0.0468 -0.2398
    1IPC    D3B70652   1.953  26.064   6.368  0.2389 -0.0155  0.1287
    1IPC    C4B70653   2.437  25.906   6.519  0.0328 -0.1869  0.1792
    1IPC    NC370654   9.902  26.020   7.832 -0.2444  0.3758 -0.2129
    1IPC    PO470655  10.217  26.042   7.483  0.0092 -0.0605 -0.1206
    1IPC    GL170656  10.075  26.358   7.172  0.2613 -0.0203 -0.0465
    1IPC    GL270657   9.958  26.558   6.883 -0.1230  0.0445  0.2577
    1IPC    C1B70658  10.074  26.842   6.616  0.0025  0.0753 -0.0281
    1IPC    D2B70659  10.283  27.048   6.418 -0.0115  0.1064 -0.2637
    1IPC    D3B70660  10.128  26.867   6.018 -0.1218  0.1943 -0.2176
    1IPC    C4B70661   9.755  27.002   5.811  0.0765 -0.0976 -0.1699
    1IPC    NC370662  13.989  13.211   6.767 -0.0297  0.0057  0.0463
    1IPC    PO470663  13.719  13.666   6.879  0.0369  0.0078  0.0407
    1IPC    GL170664  13.374  13.574   6.588 -0.2899  0.2216 -0.2910
    1IPC    GL270665  13.212  13.263   6.366  0.3183 -0.0850  0.1020
    1IPC    C1B70666  13.076  13.379   5.949 -0.1472  0.0677 -0.1686
    1IPC    D2B70667  12.837  13.422   5.449 -0.0086 -0.1607  0.0376
    1IPC    D3B70668  12.438  13.585   5.463 -0.2444  0.2954 -0.4153
    1IPC    C4B70669  12.069  13.474   5.218 -0.1211  0.2195  0.1121
    1IPC    NC370670  14.307   4.034   7.141  0.1802  0.0987  0.2764
    1IPC    PO470671  14.494   3.831   6.786 -0.1087  0.2476 -0.0185
    1IPC    GL170672  14.743   3.951   6.415  0.0099  0.0257 -0.5083
    1IPC    GL270673  14.754   3.921   6.132  0.3053  0.2068  0.0159
    1IPC    C1B70674  14.846   3.685   5.772  0.5486  0.1581  0.0912
    1IPC    D2B70675  14.872   3.787   5.263  0.2015  0.1830  0.0122
    1IPC    D3B70676  14.631   3.466   5.044  0.0873  0.5207 -0.0961
    1IPC    C4B70677  14.241   3.370   5.007 -0.1753 -0.2352 -0.0900
    1IPC    NC370678  15.328  18.243   6.639 -0.0701 -0.4592  0.1703
    1IPC    PO470679  15.518  18.749   6.804  0.0844  0.0451 -0.0865
    1IPC    GL170680  15.320  18.709   6.473 -0.1970  0.2274 -0.0823
    1IPC    GL270681  15.286  18.709   6.125  0.0470  0.1976 -0.0462
    1IPC    C1B70682  15.340  18.356   5.827  0.2341 -0.1275 -0.3458
    1IPC    D2B70683  15.232  18.312   5.287 -0.0253  0.0032  0.0890
    1IPC    D3B70684  15.367  18.437   4.928 -0.2391  0.2650  0.4149
    1IPC    C4B70685  15.644  18.634   4.623  0.0652  0.4150  0.0353
    1IPC    NC370686  14.624   0.891   7.252 -0.3427 -0.2213 -0.0186
    1IPC    PO470687  14.450   1.303   7.063  0.1837 -0.0035  0.2469
    1IPC    GL170688  14.305   1.389   6.729  0.1841  0.0302  0.3379
    1IPC    GL270689  14.124   1.393   6.526 -0.2644 -0.2782  0.2315
    1IPC    C1B70690  13.955   1.364   6.146 -0.0166 -0.1156 -0.1659
    1IPC    D2B70691  13.830   1.351   5.718  0.0132 -0.1555 -0.1768
    1IPC    D3B70692  13.467   1.474   5.383 -0.2724  0.0674 -0.2435
    1IPC    C4B70693  13.575   1.473   4.849  0.1780  0.1306 -0.0476
    1IPC    NC370694  16.060   7.479   7.244 -0.4699  0.2243 -0.2160
    1IPC    PO470695  16.504   7.694   7.252 -0.2268  0.0469  0.1446
    1IPC    GL170696  16.442   8.017   6.966  0.1884 -0.3488  0.1809
    1IPC    GL270697  16.581   8.238   6.709  0.0446 -0.1743 -0.0352
    1IPC    C1B70698  16.653   8.127   6.268 -0.0911 -0.3462  0.2645
    1IPC    D2B70699  16.795   7.800   5.976 -0.1299 -0.0289 -0.0315
    1IPC    D3B70700  16.440   7.849   5.685  0.2231 -0.0101  0.0539
    1IPC    C4B70701  16.012   7.715   5.616 -0.1245  0.0582 -0.0841
    1IPC    NC370702  19.757   4.785   6.912  0.1571 -0.1700  0.1020
    1IPC    PO470703  19.849   4.576   7.275  0.1141 -0.1504  0.0396
    1IPC    GL170704  20.296   4.422   7.214  0.0011 -0.2206 -0.1000
    1IPC    GL270705  20.459   4.157   7.069  0.1590 -0.1982 -0.2000
    1IPC    C1B70706  20.676   3.907   6.704  0.0430 -0.0144 -0.2263
    1IPC    D2B70707  20.816   3.888   6.195  0.0333  0.1647 -0.1735
    1IPC    D3B70708  20.568   4.184   5.906 -0.0447  0.2536 -0.2420
    1IPC    C4B70709  20.100   4.072   5.929  0.1045  0.0388  0.1296
    1IPC    NC370710   8.319   6.888   6.761 -0.2136 -0.2039  0.0869
    1IPC    PO470711   8.251   6.395   6.585 -0.1151  0.0617  0.1798
    1IPC    GL170712   8.622   6.203   6.522  0.1699 -0.1895  0.0463
    1IPC    GL270713   8.834   6.209   6.311 -0.1455 -0.0712 -0.1680
    1IPC    C1B70714   9.081   6.270   5.890 -0.0346  0.1625  0.2889
    1IPC    D2B70715   9.347   6.463   5.595  0.1076 -0.0363  0.0406
    1IPC    D3B70716   9.033   6.734   5.522  0.0095  0.0168 -0.0345
    1IPC    C4B70717   8.696   6.483   5.357 -0.1612 -0.1091  0.2862
    1IPC    NC370718  14.768   9.793   6.733 -0.2884  0.3388 -0.2082
    1IPC    PO470719  14.818  10.267   6.823 -0.1889  0.3709 -0.0686
    1IPC    GL170720  14.848  10.432   6.441 -0.0385  0.3120 -0.3924
    1IPC    GL270721  15.059  10.444   6.390 -0.0121 -0.2152 -0.2378
    1IPC    C1B70722  15.087  10.841   6.222  0.0721  0.1423 -0.1142
    1IPC    D2B70723  15.129  10.986   5.726 -0.0343  0.0480  0.1416
    1IPC    D3B70724  15.347  11.430   5.773  0.2618 -0.3627 -0.0141
    1IPC    C4B70725  15.690  11.575   5.618  0.0937  0.0806  0.1643
    1IPC    NC370726  12.423   5.938   6.587  0.0756  0.3831  0.1561
    1IPC    PO470727  12.510   5.596   6.789  0.1233 -0.1515  0.0856
    1IPC    GL170728  12.539   5.474   6.367 -0.3230 -0.2117 -0.3396
    1IPC    GL270729  12.679   5.326   6.141 -0.0222  0.2394  0.3117
    1IPC    C1B70730  12.911   5.433   5.825 -0.2746 -0.1303 -0.2031
    1IPC    D2B70731  12.978   5.579   5.384  0.1874 -0.2775 -0.1324
    1IPC    D3B70732  13.189   5.828   5.405  0.1187 -0.0488 -0.0259
    1IPC    C4B70733  13.027   6.214   5.286  0.0056  0.0424  0.0109
    1IPC    NC370734  21.671   1.586   7.976  0.0379  0.1755  0.3159
    1IPC    PO470735  21.617   1.588   7.515  0.2663 -0.0381  0.0037
    1IPC    GL170736  22.040   1.596   7.157 -0.1233 -0.2445 -0.1468
    1IPC    GL270737  21.951   1.531   6.887 -0.1842 -0.1037  0.1825
    1IPC    C1B70738  22.019   1.046   6.747  0.2761  0.1357  0.3352
    1IPC    D2B70739  21.781   0.631   6.619 -0.1893  0.0204 -0.1087
    1IPC    D3B70740  21.679   0.635   6.152 -0.1724  0.2426 -0.0063
    1IPC    C4B70741  21.531   0.336   5.814  0.0875  0.1692  0.4069
    1IPC    NC370742   1.180   7.690   6.781 -0.2479 -0.0083  0.3272
    1IPC    PO470743   0.906   7.454   7.076  0.0232 -0.5477  0.2148
    1IPC    GL170744   0.884   7.296   6.598 -0.1164 -0.0053 -0.1066
    1IPC    GL270745   0.795   7.048   6.284  0.0843  0.2417 -0.0232
    1IPC    C1B70746   0.627   7.079   5.860 -0.2622 -0.0353 -0.1367
    1IPC    D2B70747   0.583   7.277   5.397  0.0615 -0.0341 -0.0593
    1IPC    D3B70748   0.096   7.409   5.395  0.0514  0.1839  0.1092
    1IPC    C4B70749  -0.228   7.197   5.503  0.0105 -0.1053 -0.1494
    1IPC    NC370750  11.503   5.435   7.675 -0.0706 -0.1018  0.3590
    1IPC    PO470751  11.328   5.433   7.294 -0.1113 -0.0057 -0.0577
    1IPC    GL170752  11.182   5.642   7.010 -0.1618  0.1094  0.0554
    1IPC    GL270753  11.033   5.720   6.735  0.2118 -0.0248 -0.0514
    1IPC    C1B70754  11.141   5.492   6.398 -0.2773 -0.0456 -0.0709
    1IPC    D2B70755  11.187   5.007   6.394  0.0182 -0.0052  0.0993
    1IPC    D3B70756  10.796   4.870   6.150 -0.0365 -0.3078  0.2254
    1IPC    C4B70757  10.980   4.626   5.859  0.2021  0.1804 -0.0598
    1IPC    NC370758   7.577  13.541   7.504 -0.1471  0.1853 -0.1384
    1IPC    PO470759   7.435  13.379   7.149  0.1074  0.1697  0.0401
    1IPC    GL170760   7.288  13.665   6.967 -0.0096  0.0248 -0.1207
    1IPC    GL270761   7.157  13.833   6.918 -0.3268 -0.0521  0.1585
    1IPC    C1B70762   6.887  13.907   6.514 -0.2955 -0.1563  0.1349
    1IPC    D2B70763   6.996  13.921   6.083 -0.0264 -0.1886  0.0619
    1IPC    D3B70764   7.164  14.215   6.154 -0.2560 -0.1051  0.2453
    1IPC    C4B70765   7.143  14.310   6.609 -0.0434 -0.0858  0.0058
    1IPC    NC370766  10.083   1.495   7.783  0.3371 -0.0225 -0.0521
    1IPC    PO470767  10.390   1.624   7.280  0.0551 -0.2205 -0.0354
    1IPC    GL170768  10.397   1.977   6.938  0.2233  0.2846  0.2719
    1IPC    GL270769  10.640   2.034   6.636  0.2805  0.0374  0.1772
    1IPC    C1B70770  10.857   1.752   6.396 -0.1757 -0.0764  0.0822
    1IPC    D2B70771  11.031   1.349   6.612  0.0137 -0.1420  0.1993
    1IPC    D3B70772  11.362   1.451   6.426  0.2495  0.4397  0.1744
    1IPC    C4B70773  11.532   1.888   6.414 -0.0416 -0.5626  0.1178
    1IPC    NC370774  18.165   3.794   7.077  0.3908  0.5188 -0.0312
    1IPC    PO470775  18.429   3.647   6.855 -0.0317  0.0637  0.2786
    1IPC    GL170776  18.456   3.565   6.507 -0.0012  0.0619  0.1001
    1IPC    GL270777  18.579   3.335   6.291 -0.0825  0.0468 -0.0711
    1IPC    C1B70778  18.748   3.104   5.937 -0.0158  0.1511 -0.2728
    1IPC    D2B70779  19.121   3.045   5.677  0.0763 -0.3413  0.2372
    1IPC    D3B70780  19.402   3.007   6.085  0.0710 -0.0532 -0.1863
    1IPC    C4B70781  19.562   3.372   5.893  0.1470 -0.0367  0.0792
    1IPC    NC370782   3.072  24.092   7.811 -0.2717 -0.1257 -0.2511
    1IPC    PO470783   3.138  23.963   7.355  0.2230 -0.1096  0.2356
    1IPC    GL170784   2.901  23.631   7.117  0.0071  0.0086  0.2035
    1IPC    GL270785   3.081  23.528   6.983 -0.2154  0.1216  0.0770
    1IPC    C1B70786   3.325  23.675   6.609  0.1652 -0.1022  0.2296
    1IPC    D2B70787   3.272  23.498   6.139  0.0195 -0.0439  0.4187
    1IPC    D3B70788   3.014  23.369   5.791 -0.1187  0.0080  0.1655
    1IPC    C4B70789   3.099  23.606   5.502 -0.2833 -0.0578  0.1373
    1IPC    NC370790   4.981  25.559   7.161  0.3775  0.1227  0.0311
    1IPC    PO470791   5.249  25.315   6.930  0.1109 -0.0683 -0.2193
    1IPC    GL170792   5.275  25.598   6.541  0.2830  0.2414  0.2382
    1IPC    GL270793   5.410  25.494   6.174  0.3621  0.0769  0.0683
    1IPC    C1B70794   5.429  25.400   5.713 -0.1367 -0.1170 -0.0725
    1IPC    D2B70795   5.180  25.196   5.354  0.0954  0.1029  0.0223
    1IPC    D3B70796   5.289  25.393   4.987  0.3409  0.1936 -0.1180
    1IPC    C4B70797   5.313  25.764   4.793  0.2766 -0.3864  0.1765
    1IPC    NC370798   2.067   6.898   7.310 -0.1353  0.0586  0.2510
    1IPC    PO470799   2.313   6.915   7.005 -0.1057  0.0408 -0.1298
    1IPC    GL170800   2.362   6.979   6.562  0.4006 -0.1618  0.0277
    1IPC    GL270801   2.187   6.958   6.247 -0.1359  0.0629  0.0293
    1IPC    C1B70802   2.047   7.087   5.844  0.1723  0.1328  0.1049
    1IPC    D2B70803   1.630   7.201   5.550  0.2849 -0.1679 -0.0889
    1IPC    D3B70804   1.476   7.413   5.944 -0.0618  0.1887 -0.4146
    1IPC    C4B70805   1.372   7.932   5.870 -0.1846  0.1508 -0.3131
    1IPC    NC370806  24.041  13.932   5.880  0.0496 -0.0825 -0.0712
    1IPC    PO470807  23.853  13.603   5.585 -0.2436 -0.0631 -0.0718
    1IPC    GL170808  23.830  14.114   5.482 -0.0706  0.6207  0.0187
    1IPC    GL270809  23.788  14.368   5.271  0.1113 -0.1090 -0.0978
    1IPC    C1B70810  23.692  14.458   4.818  0.1307 -0.0798 -0.1939
    1IPC    D2B70811  23.543  14.655   4.463  0.2232  0.0114  0.1090
    1IPC    D3B70812  23.492  14.727   4.004  0.2558 -0.1542  0.2543
    1IPC    C4B70813  23.368  14.394   3.718  0.0614  0.1911  0.0108
    1IPC    NC370814  22.752  17.804   6.257  0.1609  0.1386 -0.1671
    1IPC    PO470815  22.848  17.473   5.948  0.0756  0.0213 -0.0141
    1IPC    GL170816  22.948  17.532   5.499 -0.0785  0.0214 -0.2263
    1IPC    GL270817  23.011  17.529   5.166 -0.2271 -0.0296  0.0696
    1IPC    C1B70818  23.088  17.675   4.716  0.2365 -0.0954  0.1102
    1IPC    D2B70819  22.918  18.086   4.663 -0.0206 -0.0126  0.1260
    1IPC    D3B70820  23.168  17.987   4.320 -0.0875  0.2737  0.0730
    1IPC    C4B70821  23.217  17.671   4.156 -0.1538  0.0139  0.0425
    1IPC    NC370822  27.249  28.810   7.039 -0.1835 -0.0435 -0.0025
    1IPC    PO470823  27.450  29.060   6.867 -0.4097  0.1603 -0.0338
    1IPC    GL170824  27.588  28.728   6.599 -0.2591 -0.0791  0.0048
    1IPC    GL270825  27.739  28.584   6.345  0.1979 -0.3100 -0.0283
    1IPC    C1B70826  27.841  28.648   5.871  0.0636 -0.0643  0.2261
    1IPC    D2B70827  27.743  28.747   5.419 -0.2071 -0.1621 -0.1097
    1IPC    D3B70828  27.455  28.506   5.068  0.4513 -0.1260  0.0162
    1IPC    C4B70829  27.016  28.714   5.027  0.2571 -0.0221 -0.3732
    1IPC    NC370830  15.094  26.205   7.123 -0.0358 -0.0195  0.2369
    1IPC    PO470831  15.379  26.433   6.725 -0.0438 -0.3904 -0.0687
    1IPC    GL170832  15.258  26.487   6.183  0.2368  0.0689  0.0444
    1IPC    GL270833  15.229  26.597   5.907  0.0109  0.2038 -0.3002
    1IPC    C1B70834  15.097  26.659   5.478  0.1148  0.0175  0.1377
    1IPC    D2B70835  15.317  26.576   5.126 -0.0757  0.0860  0.0191
    1IPC    D3B70836  15.327  26.154   5.037 -0.0345  0.0010 -0.2230
    1IPC    C4B70837  15.598  25.776   5.251  0.0545 -0.0667  0.2173
    1IPC    NC370838  12.920   7.249   7.112  0.1180 -0.1220 -0.0754
    1IPC    PO470839  12.536   7.195   7.100  0.1950  0.0108 -0.0262
    1IPC    GL170840  12.267   7.345   6.816 -0.3307 -0.1939  0.0706
    1IPC    GL270841  12.113   7.245   6.577  0.1146  0.2152  0.1035
    1IPC    C1B70842  12.131   7.378   6.109  0.0390 -0.0842  0.0596
    1IPC    D2B70843  12.208   7.239   5.649  0.1586 -0.0057 -0.0613
    1IPC    D3B70844  12.057   7.696   5.631 -0.1579 -0.1407  0.0899
    1IPC    C4B70845  12.203   7.699   5.179  0.1392  0.1046 -0.1368
    1IPC    NC370846  17.583  15.115   6.991 -0.0496  0.0627  0.1870
    1IPC    PO470847  17.827  15.221   6.514  0.0900 -0.0809  0.4108
    1IPC    GL170848  17.698  15.316   6.076  0.0482  0.0440 -0.1619
    1IPC    GL270849  17.776  15.515   5.758 -0.1177 -0.0025  0.0472
    1IPC    C1B70850  17.853  15.818   5.484  0.1461 -0.1304 -0.4830
    1IPC    D2B70851  17.884  15.819   5.029 -0.3530 -0.1429 -0.1335
    1IPC    D3B70852  17.860  16.225   4.739 -0.0806  0.0374  0.1404
    1IPC    C4B70853  18.176  16.601   4.805 -0.0254 -0.2442 -0.0204
    1IPC    NC370854  19.649  17.460   6.115  0.0257  0.3241 -0.1534
    1IPC    PO470855  19.245  17.352   6.278 -0.0238 -0.1411  0.1719
    1IPC    GL170856  19.292  17.186   5.897 -0.0361  0.1628 -0.4846
    1IPC    GL270857  19.348  16.943   5.684  0.1845 -0.0119  0.1673
    1IPC    C1B70858  19.196  16.593   5.637 -0.1148  0.1318  0.1902
    1IPC    D2B70859  19.112  16.175   5.582 -0.1110  0.0179  0.1029
    1IPC    D3B70860  19.107  16.177   5.957  0.1842  0.3812 -0.1618
    1IPC    C4B70861  19.331  16.559   6.108 -0.1530  0.0810  0.1615
    1IPC    NC370862  11.719  22.556   6.822  0.0872  0.1383 -0.1015
    1IPC    PO470863  11.568  22.362   6.474 -0.1664  0.2236 -0.2369
    1IPC    GL170864  11.480  21.939   6.278 -0.0884 -0.0237  0.0600
    1IPC    GL270865  11.675  21.802   6.063 -0.0065  0.2423 -0.0669
    1IPC    C1B70866  11.855  21.703   5.668  0.1561 -0.0871 -0.0083
    1IPC    D2B70867  12.027  21.524   5.227 -0.0009  0.1532  0.3764
    1IPC    D3B70868  11.594  21.339   5.058  0.1038  0.1828 -0.0066
    1IPC    C4B70869  11.370  21.296   4.624 -0.4440  0.0158  0.2314
    1IPC    NC370870  10.462   8.000   7.142  0.2350  0.2550  0.0271
    1IPC    PO470871  10.085   7.888   6.928 -0.2309 -0.0208 -0.0224
    1IPC    GL170872   9.903   7.632   6.637  0.0969 -0.1133 -0.0497
    1IPC    GL270873   9.831   7.528   6.341 -0.0230 -0.0692 -0.1004
    1IPC    C1B70874   9.831   7.412   5.830 -0.0673 -0.0744  0.0221
    1IPC    D2B70875   9.780   7.507   5.432 -0.1234  0.0102 -0.0195
    1IPC    D3B70876   9.883   7.884   5.138 -0.0281  0.3572  0.2144
    1IPC    C4B70877  10.157   7.948   4.889  0.0225  0.0810  0.0608
    1IPC    NC370878  11.787   6.527   7.975 -0.1144 -0.1979 -0.2124
    1IPC    PO470879  11.564   6.372   7.676  0.1486 -0.1086  0.2291
    1IPC    GL170880  11.531   6.363   7.226  0.1752  0.0649 -0.1198
    1IPC    GL270881  11.336   6.211   7.003 -0.0122 -0.3434 -0.1008
    1IPC    C1B70882  11.525   6.265   6.634  0.3056  0.0081 -0.0301
    1IPC    D2B70883  11.881   5.973   6.398 -0.0695 -0.2774 -0.0986
    1IPC    D3B70884  12.109   5.808   6.093 -0.0495 -0.5019  0.2663
    1IPC    C4B70885  12.224   5.422   5.983  0.0565  0.2405 -0.0885
    1IPC    NC370886   9.939  29.125   7.798  0.0732  0.0450  0.0125
    1IPC    PO470887  10.335  29.327   7.726  0.1403  0.1765  0.0821
    1IPC    GL170888  10.427  29.570   7.357 -0.1049 -0.1232  0.0494
    1IPC    GL270889  10.504  29.524   7.097  0.0194  0.0915  0.3032
    1IPC    C1B70890  10.396  29.377   6.661  0.1143  0.0536  0.0015
    1IPC    D2B70891  10.516  29.477   6.289  0.2429 -0.0192  0.2011
    1IPC    D3B70892  10.633  29.140   6.238  0.0967  0.0098  0.1657
    1IPC    C4B70893  11.005  29.218   6.230 -0.5358 -0.2920 -0.0744
    1IPC    NC370894  10.478  10.379   7.276 -0.1322  0.0217  0.0391
    1IPC    PO470895  10.300  10.738   7.195 -0.1036  0.0545 -0.0368
    1IPC    GL170896  10.144  10.513   6.877 -0.1065 -0.0932 -0.1949
    1IPC    GL270897  10.087  10.411   6.604 -0.1044 -0.1819 -0.7599
    1IPC    C1B70898  10.257  10.556   6.239 -0.2218 -0.0942 -0.0911
    1IPC    D2B70899  10.206  10.372   5.823  0.2336 -0.5403  0.1168
    1IPC    D3B70900  10.001  10.454   5.420 -0.0379 -0.0172  0.1351
    1IPC    C4B70901   9.946  10.040   5.281  0.0626  0.0495 -0.2162
    1IPC    NC370902   3.491  26.294   6.581  0.1561 -0.1966  0.4790
    1IPC    PO470903   3.505  26.060   6.929  0.0089  0.0807 -0.0881
    1IPC    GL170904   3.309  25.833   6.636 -0.1274  0.2451 -0.2097
    1IPC    GL270905   3.224  25.601   6.364 -0.1664  0.1430  0.0977
    1IPC    C1B70906   3.441  25.548   6.008 -0.0200  0.2041 -0.1448
    1IPC    D2B70907   3.673  25.770   5.716 -0.2823  0.1419  0.0878
    1IPC    D3B70908   3.895  25.538   5.587  0.1723 -0.1455 -0.2943
    1IPC    C4B70909   3.722  25.210   5.535  0.0501 -0.0842  0.0122
    1IPC    NC370910  20.502   1.108   7.834 -0.0967  0.1672 -0.1423
    1IPC    PO470911  20.455   1.411   7.575  0.4045 -0.0824  0.1266
    1IPC    GL170912  20.557   1.570   7.140 -0.2207  0.3618  0.2943
    1IPC    GL270913  20.701   1.715   6.851  0.1905  0.3496  0.2257
    1IPC    C1B70914  20.842   1.820   6.458 -0.1674 -0.1029  0.1134
    1IPC    D2B70915  20.849   1.865   6.014 -0.5353 -0.0889 -0.0405
    1IPC    D3B70916  20.630   1.518   5.878 -0.0288  0.1884 -0.2220
    1IPC    C4B70917  20.221   1.561   5.906 -0.1269 -0.0964 -0.1677
    1IPC    NC370918  14.786   8.016   7.234 -0.0757  0.0235  0.1737
    1IPC    PO470919  15.201   7.896   7.068 -0.3326  0.0750 -0.0993
    1IPC    GL170920  15.039   8.113   6.733 -0.2050  0.0129 -0.0859
    1IPC    GL270921  15.082   8.332   6.426 -0.1927 -0.1298  0.4405
    1IPC    C1B70922  14.782   8.560   6.093  0.1246 -0.1635 -0.1383
    1IPC    D2B70923  14.791   8.535   5.622  0.2814  0.0707 -0.0092
    1IPC    D3B70924  14.557   8.905   5.355 -0.1744  0.1627  0.2321
    1IPC    C4B70925  14.130   8.993   5.438  0.0354 -0.0326  0.3448
    1IPC    NC370926   4.577   2.825   7.528 -0.0483 -0.0992  0.0028
    1IPC    PO470927   4.612   3.216   7.314 -0.3305  0.1132  0.2140
    1IPC    GL170928   4.502   3.323   6.871 -0.0732  0.2290  0.4112
    1IPC    GL270929   4.669   3.420   6.557 -0.2239 -0.3383  0.1533
    1IPC    C1B70930   4.975   3.321   6.271  0.2703  0.2956 -0.1754
    1IPC    D2B70931   4.992   3.075   5.780 -0.2067 -0.2196 -0.2314
    1IPC    D3B70932   4.795   3.402   5.708 -0.0945 -0.2858 -0.1089
    1IPC    C4B70933   4.462   3.387   5.340 -0.1499 -0.3429 -0.0046
    1IPC    NC370934  29.352   6.111   7.286 -0.0318  0.0674  0.0855
    1IPC    PO470935  29.816   6.163   7.057  0.0684 -0.1110  0.1494
    1IPC    GL170936  29.682   5.886   6.748 -0.0345  0.1277  0.0936
    1IPC    GL270937  29.811   5.845   6.395  0.2562 -0.1208  0.0549
    1IPC    C1B70938  29.720   6.111   6.069  0.1040 -0.0348 -0.0701
    1IPC    D2B70939  29.840   6.423   5.773  0.1450 -0.3887 -0.2576
    1IPC    D3B70940  29.856   6.394   5.339 -0.0491 -0.2390  0.2865
    1IPC    C4B70941  29.643   6.217   4.950 -0.0065  0.1127 -0.2572
    1IPC    NC370942  28.471   5.092   7.131 -0.1716  0.1251  0.1433
    1IPC    PO470943  28.473   5.316   6.738 -0.0251  0.0031  0.0466
    1IPC    GL170944  28.554   5.399   6.355  0.1865  0.2579  0.2582
    1IPC    GL270945  28.685   5.348   6.091 -0.0992  0.2538 -0.1731
    1IPC    C1B70946  28.724   5.481   5.687 -0.0735  0.2106 -0.0261
    1IPC    D2B70947  28.958   5.821   5.560  0.2407  0.0611 -0.1733
    1IPC    D3B70948  28.786   5.922   5.102  0.0664  0.0680 -0.1949
    1IPC    C4B70949  29.164   6.117   4.779  0.0652  0.1694 -0.2093
    1IPC    NC370950   6.091  23.621   7.904  0.1997  0.2462 -0.1126
    1IPC    PO470951   6.015  23.540   7.456  0.0874 -0.2923  0.0021
    1IPC    GL170952   5.842  23.152   7.136  0.0823 -0.0488  0.0955
    1IPC    GL270953   5.627  23.090   6.877 -0.0266 -0.1201 -0.0728
    1IPC    C1B70954   5.532  23.084   6.538  0.1023 -0.2005  0.4327
    1IPC    D2B70955   5.564  22.780   6.157  0.0567 -0.2846 -0.1631
    1IPC    D3B70956   5.503  23.168   6.024 -0.4268  0.0779  0.0277
    1IPC    C4B70957   5.679  23.243   5.717  0.3108  0.2422 -0.1377
    1IPC    NC370958   1.191  10.324   6.619  0.0485  0.1958  0.2189
    1IPC    PO470959   1.320   9.896   6.589 -0.2132  0.0678 -0.0716
    1IPC    GL170960   1.578   9.798   6.277  0.2382 -0.3857 -0.1772
    1IPC    GL270961   1.623   9.866   6.018  0.0991  0.0809 -0.4327
    1IPC    C1B70962   1.702   9.797   5.574 -0.0926  0.0009  0.2229
    1IPC    D2B70963   1.778   9.447   5.362  0.2089 -0.0493  0.0286
    1IPC    D3B70964   1.470   9.491   4.955 -0.2347  0.0139 -0.2361
    1IPC    C4B70965   1.444   9.220   4.567  0.1956  0.0553 -0.0052
    1IPC    NC370966  11.676  23.336   6.752  0.1298 -0.0010  0.1104
    1IPC    PO470967  11.338  23.328   6.387  0.1915  0.1684 -0.0110
    1IPC    GL170968  11.140  23.246   6.069 -0.1377  0.0813 -0.0059
    1IPC    GL270969  11.125  23.398   5.840 -0.0506 -0.4613 -0.0191
    1IPC    C1B70970  11.320  23.306   5.507 -0.4526  0.1355  0.1535
    1IPC    D2B70971  11.552  23.249   5.146 -0.1411  0.0520  0.0718
    1IPC    D3B70972  11.588  23.008   4.791  0.0854 -0.0833 -0.1893
    1IPC    C4B70973  11.869  22.776   4.613 -0.0627  0.2195  0.0321
    1IPC    NC370974  16.770  23.915   6.789 -0.1575  0.0559  0.1108
    1IPC    PO470975  17.039  23.548   6.905  0.1409 -0.1962 -0.1756
    1IPC    GL170976  16.849  23.505   6.530 -0.0355  0.0724 -0.0268
    1IPC    GL270977  16.863  23.528   6.173 -0.0190 -0.1312  0.1825
    1IPC    C1B70978  16.820  23.494   5.687  0.2202  0.0840 -0.1046
    1IPC    D2B70979  17.055  23.325   5.319  0.2297 -0.3191 -0.3058
    1IPC    D3B70980  16.829  23.403   4.905 -0.1858 -0.3093 -0.0998
    1IPC    C4B70981  16.648  23.788   4.767 -0.1193  0.0779  0.1835
    1IPC    NC370982   2.913  23.093   7.745 -0.1236 -0.0056  0.3581
    1IPC    PO470983   2.957  22.689   7.621  0.0863 -0.1583 -0.3381
    1IPC    GL170984   2.925  23.026   7.232 -0.2514  0.2262  0.0565
    1IPC    GL270985   2.727  23.128   6.989  0.0583 -0.2061  0.2264
    1IPC    C1B70986   2.668  23.350   6.643 -0.3801 -0.1201  0.1217
    1IPC    D2B70987   2.847  23.586   6.317 -0.0070  0.0113  0.0073
    1IPC    D3B70988   2.706  23.148   6.205 -0.2143 -0.0141 -0.1207
    1IPC    C4B70989   2.742  22.965   5.829 -0.4625  0.0853  0.0025
    1IPC    NC370990  27.487  26.954   7.212  0.0362  0.0921  0.3538
    1IPC    PO470991  28.050  26.812   7.205 -0.1258  0.0586 -0.2073
    1IPC    GL170992  28.106  26.531   6.790  0.0504 -0.0816  0.0709
    1IPC    GL270993  28.325  26.404   6.587 -0.1976 -0.3951  0.2813
    1IPC    C1B70994  28.563  26.403   6.166  0.0969 -0.1430 -0.0945
    1IPC    D2B70995  28.602  26.377   5.676  0.2846  0.0846  0.0540
    1IPC    D3B70996  28.369  26.059   5.825  0.0185  0.2369 -0.0782
    1IPC    C4B70997  28.385  25.740   5.471  0.0316 -0.3275 -0.0628
    1IPC    NC370998  19.948   3.726   7.828 -0.2560  0.0521 -0.3198
    1IPC    PO470999  20.134   3.574   7.581  0.0685  0.0348  0.0596
    1IPC    GL171000  20.252   3.418   7.204 -0.0702 -0.4149 -0.0117
    1IPC    GL271001  20.285   3.719   7.010  0.4493  0.2911  0.0613
    1IPC    C1B71002  20.113   4.010   6.812 -0.0402 -0.0630 -0.0951
    1IPC    D2B71003  19.803   4.389   6.740  0.0349  0.2936  0.0975
    1IPC    D3B71004  19.490   4.718   6.501 -0.1547  0.1709 -0.0401
    1IPC    C4B71005  19.412   4.829   6.161 -0.0364 -0.0296 -0.3677
    1IPC    NC371006  15.543  16.464   7.239 -0.2893  0.1695 -0.0193
    1IPC    PO471007  15.704  16.785   7.072  0.2658 -0.2554 -0.1660
    1IPC    GL171008  15.542  16.872   6.759 -0.1564 -0.2156  0.1020
    1IPC    GL271009  15.480  16.792   6.431 -0.1826 -0.0029 -0.0824
    1IPC    C1B71010  15.587  16.820   5.955 -0.0366  0.2329 -0.2272
    1IPC    D2B71011  15.805  16.840   5.667 -0.0399  0.1154  0.1551
    1IPC    D3B71012  15.672  17.280   5.757  0.0243  0.1457 -0.1461
    1IPC    C4B71013  15.472  17.545   5.431  0.1370  0.2740  0.0567
    1IPC    NC371014  22.251  20.933   6.285 -0.1951  0.1733  0.1455
    1IPC    PO471015  22.294  20.574   6.005  0.1432  0.0204 -0.2295
    1IPC    GL171016  22.437  20.437   5.594 -0.1994 -0.1198  0.1203
    1IPC    GL271017  22.551  20.497   5.352  0.0484  0.2875  0.1043
    1IPC    C1B71018  22.618  20.259   5.026  0.0678 -0.2626  0.0429
    1IPC    D2B71019  22.601  20.416   4.582  0.0160 -0.0053 -0.0159
    1IPC    D3B71020  22.699  20.801   4.683  0.2585  0.0635 -0.0179
    1IPC    C4B71021  22.657  20.993   5.022  0.0186  0.1080 -0.1792
    1IPC    NC371022  28.885  12.775   7.082 -0.0638 -0.0226  0.2340
    1IPC    PO471023  28.605  12.568   6.793  0.1162 -0.0717 -0.2968
    1IPC    GL171024  28.496  12.685   6.445 -0.0639  0.0137  0.2563
    1IPC    GL271025  28.489  12.703   6.082 -0.1108 -0.1512  0.1675
    1IPC    C1B71026  28.582  12.492   5.594  0.1361 -0.1028  0.0110
    1IPC    D2B71027  28.619  12.470   5.199  0.2595  0.0929  0.2066
    1IPC    D3B71028  28.389  12.613   4.948  0.1498 -0.2340  0.2725
    1IPC    C4B71029  28.052  12.509   4.713 -0.1044  0.0634 -0.3092
    1IPC    NC371030  26.513  24.170   6.821 -0.2240  0.3920  0.1093
    1IPC    PO471031  26.669  24.278   6.455 -0.0579  0.0102  0.2592
    1IPC    GL171032  27.019  24.266   6.180  0.3017 -0.0950  0.0072
    1IPC    GL271033  26.865  24.374   5.887  0.1493 -0.0561 -0.0070
    1IPC    C1B71034  26.680  24.173   5.543 -0.2795  0.0071 -0.2387
    1IPC    D2B71035  26.295  24.055   5.386  0.1874  0.0836  0.0809
    1IPC    D3B71036  26.351  24.470   5.240 -0.0090  0.3412 -0.3569
    1IPC    C4B71037  26.822  24.549   5.220  0.0136  0.0891  0.1725
    1IPC    NC371038  25.752  26.982   7.910  0.0629 -0.0247 -0.1199
    1IPC    PO471039  26.028  27.099   7.543 -0.0448  0.0649  0.1607
    1IPC    GL171040  26.157  26.716   7.261 -0.2231  0.3620 -0.0588
    1IPC    GL271041  26.015  26.739   6.863 -0.2491  0.0406 -0.0670
    1IPC    C1B71042  25.922  26.739   6.346 -0.1701 -0.0468 -0.2407
    1IPC    D2B71043  26.005  26.995   5.973 -0.1660  0.1345  0.3001
    1IPC    D3B71044  26.371  26.980   6.184  0.1815  0.1965 -0.5860
    1IPC    C4B71045  26.784  26.921   5.919  0.1641  0.1853 -0.2114
    1IPC    NC371046  14.272  10.251   7.690 -0.0420  0.0041  0.1320
    1IPC    PO471047  14.344  10.207   7.306  0.3798  0.1778 -0.1146
    1IPC    GL171048  14.249  10.236   6.785 -0.2383  0.0975 -0.0730
    1IPC    GL271049  14.340  10.145   6.484 -0.3207  0.3181  0.0185
    1IPC    C1B71050  14.303  10.383   6.112 -0.0137 -0.0101 -0.1320
    1IPC    D2B71051  14.173  10.398   5.664  0.0136 -0.1312  0.1239
    1IPC    D3B71052  14.054  10.358   5.267  0.1127 -0.1694  0.0308
    1IPC    C4B71053  13.977  10.709   5.048  0.1227  0.1527 -0.0178
    1IPC    NC371054  22.852  18.468   5.610 -0.0530 -0.0019 -0.2111
    1IPC    PO471055  22.375  18.276   5.536 -0.0309  0.0046 -0.1492
    1IPC    GL171056  22.258  18.181   5.203  0.0477 -0.0819 -0.2104
    1IPC    GL271057  22.237  18.300   4.884  0.1315  0.0535  0.1287
    1IPC    C1B71058  22.234  18.541   4.504 -0.1531  0.0003  0.1015
    1IPC    D2B71059  21.881  18.535   4.290 -0.1725 -0.0059  0.0436
    1IPC    D3B71060  22.173  18.650   3.918 -0.1041  0.3599 -0.0790
    1IPC    C4B71061  22.453  18.398   3.680  0.1214  0.1977  0.2006
    1IPC    NC371062   4.620   8.530   6.607 -0.0306 -0.0109 -0.1336
    1IPC    PO471063   4.382   8.137   6.833 -0.0983  0.0095  0.0604
    1IPC    GL171064   4.677   8.023   6.573  0.0987 -0.2100  0.1658
    1IPC    GL271065   4.885   8.121   6.358  0.1235 -0.0130  0.2441
    1IPC    C1B71066   4.797   8.226   6.023  0.1110  0.1201 -0.0307
    1IPC    D2B71067   4.733   8.013   5.667 -0.0308  0.1167 -0.0324
    1IPC    D3B71068   4.674   7.618   5.577  0.4485  0.0286  0.0429
    1IPC    C4B71069   4.954   7.378   5.362 -0.1115 -0.0150 -0.0408
    1IPC    NC371070  25.799  11.421   6.866 -0.0789  0.2168 -0.0314
    1IPC    PO471071  25.936  11.302   6.519 -0.0785 -0.0144 -0.1347
    1IPC    GL171072  26.072  11.458   6.144 -0.0527 -0.0286  0.1707
    1IPC    GL271073  26.286  11.451   5.940  0.1391  0.1131  0.1082
    1IPC    C1B71074  26.628  11.364   5.768 -0.2097  0.0694 -0.0337
    1IPC    D2B71075  26.717  11.193   5.349 -0.2490  0.4400 -0.0190
    1IPC    D3B71076  26.882  11.537   5.128  0.1242 -0.3498  0.2066
    1IPC    C4B71077  27.187  11.493   4.849  0.1405  0.1038 -0.0767
    1IPC    NC371078  17.949  21.669   6.891  0.2730  0.0386  0.1229
    1IPC    PO471079  18.358  21.883   6.683  0.1561  0.0904 -0.0855
    1IPC    GL171080  18.632  22.024   6.361  0.2013  0.0649  0.1142
    1IPC    GL271081  18.746  22.021   6.086  0.0508  0.2245  0.6355
    1IPC    C1B71082  18.828  21.924   5.672  0.1734 -0.2252 -0.2875
    1IPC    D2B71083  19.090  21.958   5.395 -0.1991 -0.2239  0.3736
    1IPC    D3B71084  19.051  22.203   5.054 -0.0278 -0.1904  0.3217
    1IPC    C4B71085  19.128  22.201   4.548  0.1548 -0.1539 -0.0553
    1IPC    NC371086  17.559   5.927   7.858 -0.3579 -0.1093 -0.0135
    1IPC    PO471087  17.650   5.929   7.392 -0.1417  0.0449 -0.3540
    1IPC    GL171088  17.873   5.863   7.075  0.1152 -0.1418  0.1187
    1IPC    GL271089  17.970   5.736   6.938 -0.1488  0.1202 -0.2907
    1IPC    C1B71090  18.047   5.616   6.540  0.2327  0.2451  0.2263
    1IPC    D2B71091  18.228   5.389   6.275 -0.2655  0.1656  0.2861
    1IPC    D3B71092  17.810   5.083   6.175  0.2748  0.2256  0.1489
    1IPC    C4B71093  17.587   4.970   5.801 -0.0210 -0.2507 -0.2677
    1IPC    NC371094  17.872  28.053   6.657  0.0874 -0.2198  0.2053
    1IPC    PO471095  17.359  28.277   6.686 -0.1612 -0.1095  0.0365
    1IPC    GL171096  17.513  27.955   6.371  0.0399 -0.0794 -0.0526
    1IPC    GL271097  17.340  27.929   6.063 -0.2135  0.2020  0.1231
    1IPC    C1B71098  17.163  27.752   5.766 -0.0806  0.2842 -0.2690
    1IPC    D2B71099  17.293  27.780   5.314  0.1606  0.1715  0.1651
    1IPC    D3B71100  16.866  27.896   5.327 -0.0328  0.0552  0.1290
    1IPC    C4B71101  16.898  28.247   5.456 -0.0365 -0.2141 -0.4046
    1IPC    NC371102  19.934   2.675   7.599 -0.2365 -0.1457  0.0013
    1IPC    PO471103  20.146   2.825   7.199 -0.0151  0.1410  0.1663
    1IPC    GL171104  20.186   2.949   6.827  0.2113 -0.0107  0.2695
    1IPC    GL271105  20.262   2.838   6.541  0.1761 -0.0314  0.1075
    1IPC    C1B71106  20.427   2.613   6.136  0.0901  0.1692  0.0723
    1IPC    D2B71107  20.195   2.407   5.836  0.2932 -0.1830 -0.0463
    1IPC    D3B71108  20.334   2.810   5.682  0.1764 -0.0582 -0.0348
    1IPC    C4B71109  20.009   3.251   5.641 -0.1397 -0.3857  0.1242
    1IPC    NC371110   3.953  26.093   7.171  0.2030 -0.0123 -0.0593
    1IPC    PO471111   4.207  25.831   7.206 -0.2398 -0.0460  0.2825
    1IPC    GL171112   4.340  25.672   6.816 -0.2178 -0.3126  0.0586
    1IPC    GL271113   4.279  25.633   6.506  0.2025 -0.2204  0.2418
    1IPC    C1B71114   3.913  25.731   6.223  0.2334  0.0835  0.2010
    1IPC    D2B71115   3.651  25.983   6.244  0.0577 -0.0394  0.0889
    1IPC    D3B71116   3.499  26.261   5.787  0.1513  0.1586 -0.0692
    1IPC    C4B71117   3.250  26.170   5.355  0.0573  0.0738 -0.0440
    1IPC    NC371118  17.715  11.613   6.454  0.0964 -0.1373 -0.1948
    1IPC    PO471119  17.537  11.378   6.094 -0.0567  0.0575  0.0269
    1IPC    GL171120  17.526  11.344   5.691 -0.0180  0.1137  0.0307
    1IPC    GL271121  17.375  11.240   5.393  0.1122 -0.1997  0.2331
    1IPC    C1B71122  17.338  11.386   4.945 -0.4070  0.0330 -0.0764
    1IPC    D2B71123  17.415  11.510   4.563  0.1348  0.0447  0.0499
    1IPC    D3B71124  17.876  11.478   4.621 -0.2434 -0.2488 -0.0490
    1IPC    C4B71125  18.026  11.577   4.164 -0.2925  0.1510  0.1568
    1IPC    NC371126  14.381   7.131   6.851 -0.1645 -0.4141 -0.0820
    1IPC    PO471127  14.298   7.543   6.522  0.0829  0.0470  0.2457
    1IPC    GL171128  14.552   7.648   6.251 -0.0036 -0.1524  0.0787
    1IPC    GL271129  14.662   7.549   5.981  0.1488  0.1711 -0.1826
    1IPC    C1B71130  14.641   7.218   5.726  0.1733  0.1206 -0.4677
    1IPC    D2B71131  14.439   7.252   5.305  0.0201  0.0833  0.0119
    1IPC    D3B71132  14.813   7.418   5.141  0.0122  0.1178 -0.2224
    1IPC    C4B71133  14.893   7.382   4.759 -0.0448  0.0539 -0.1176
    1IPC    NC371134  14.774  20.023   6.325 -0.0236  0.1403 -0.1813
    1IPC    PO471135  14.876  19.586   6.341  0.0693  0.0627 -0.0051
    1IPC    GL171136  14.949  19.527   5.956 -0.1855 -0.0506  0.2417
    1IPC    GL271137  15.148  19.466   5.703  0.1130 -0.0855 -0.1975
    1IPC    C1B71138  15.182  19.330   5.287  0.1754 -0.2385 -0.0300
    1IPC    D2B71139  15.496  19.251   5.112  0.0772 -0.0708 -0.0385
    1IPC    D3B71140  15.523  19.086   4.673  0.1632  0.2285 -0.0115
    1IPC    C4B71141  15.609  19.328   4.529 -0.2213 -0.1663 -0.1093
    1IPC    NC371142   0.037  22.144   6.895 -0.0023  0.0840 -0.2782
    1IPC    PO471143   0.239  22.606   6.928 -0.3183 -0.1100 -0.0928
    1IPC    GL171144   0.400  22.856   6.616  0.1041  0.0508  0.1405
    1IPC    GL271145   0.639  22.970   6.483  0.0123  0.2005 -0.0032
    1IPC    C1B71146   1.133  23.007   6.500  0.3772  0.0459 -0.1235
    1IPC    D2B71147   1.545  22.975   6.334 -0.1033 -0.1405  0.1376
    1IPC    D3B71148   1.884  23.230   6.527 -0.0232  0.1669 -0.2163
    1IPC    C4B71149   2.237  23.035   6.594 -0.1734 -0.0006 -0.1166
    1IPC    NC371150  23.773  20.843   6.702  0.0262  0.2708  0.2357
    1IPC    PO471151  24.000  20.844   6.254  0.1672  0.0226  0.1090
    1IPC    GL171152  24.205  20.961   5.846 -0.0229  0.0540  0.1843
    1IPC    GL271153  24.201  20.958   5.498 -0.0911  0.2300  0.1356
    1IPC    C1B71154  24.133  20.889   5.132 -0.1008  0.0664 -0.1775
    1IPC    D2B71155  24.219  20.828   4.695  0.2086 -0.0158  0.0778
    1IPC    D3B71156  24.544  21.075   4.835  0.3011 -0.0030  0.1260
    1IPC    C4B71157  24.496  21.236   5.211 -0.0100  0.0403 -0.0429
    1IPC    NC371158   4.114   7.817   6.518 -0.3333 -0.0849  0.2592
    1IPC    PO471159   3.894   8.210   6.644  0.1524  0.1509 -0.0716
    1IPC    GL171160   3.681   8.142   6.287  0.0992  0.1910 -0.0043
    1IPC    GL271161   3.776   7.902   6.134  0.0438 -0.0729  0.0015
    1IPC    C1B71162   3.803   7.818   5.701 -0.0023  0.0999 -0.0348
    1IPC    D2B71163   4.150   7.738   5.367 -0.1268  0.3038  0.2388
    1IPC    D3B71164   3.692   7.747   5.063 -0.0194  0.2202  0.0913
    1IPC    C4B71165   3.395   7.326   5.109  0.0550 -0.1553 -0.1592
    1IPC    NC371166  25.126  11.671   6.049  0.3104 -0.3486 -0.0392
    1IPC    PO471167  24.848  11.955   5.799  0.2039 -0.0458 -0.0794
    1IPC    GL171168  24.842  11.710   5.474 -0.1864 -0.1344  0.1270
    1IPC    GL271169  25.044  11.615   5.239 -0.2687 -0.0907  0.1566
    1IPC    C1B71170  25.166  11.275   5.003 -0.0697  0.0901 -0.0983
    1IPC    D2B71171  25.451  11.012   4.727 -0.1280  0.1604  0.0118
    1IPC    D3B71172  25.610  11.311   4.419  0.3569  0.0343 -0.0144
    1IPC    C4B71173  25.427  11.258   3.989  0.2842 -0.5359 -0.5167
    1IPC    NC371174  23.530  26.380   7.269  0.2768 -0.0902  0.1574
    1IPC    PO471175  23.662  26.280   6.866 -0.0277  0.3430  0.0172
    1IPC    GL171176  23.617  26.271   6.424 -0.0774 -0.4500 -0.3961
    1IPC    GL271177  23.613  26.431   6.214  0.0518  0.3729  0.1686
    1IPC    C1B71178  23.750  26.630   5.800  0.0402 -0.0403  0.0700
    1IPC    D2B71179  23.650  26.751   5.307  0.0505 -0.1348  0.0242
    1IPC    D3B71180  24.095  26.748   5.464 -0.1182 -0.3609  0.1093
    1IPC    C4B71181  24.285  27.074   5.311  0.0951  0.3302 -0.0062
    1IPC    NC371182  21.529   5.987   6.997  0.1684 -0.3244 -0.1153
    1IPC    PO471183  21.772   5.641   6.951  0.0046  0.2107 -0.4803
    1IPC    GL171184  21.930   5.714   6.527 -0.1536 -0.1689  0.1470
    1IPC    GL271185  22.046   5.949   6.302 -0.1440  0.2269 -0.3384
    1IPC    C1B71186  22.576   6.004   6.230 -0.1382 -0.0018  0.1048
    1IPC    D2B71187  23.039   5.923   6.374 -0.1686  0.0539  0.1608
    1IPC    D3B71188  22.937   5.934   5.940 -0.2587 -0.4005  0.0248
    1IPC    C4B71189  23.015   5.552   5.681 -0.0597  0.0825  0.0163
    1IPC    NC371190   1.876  23.780   7.299 -0.2099  0.0511  0.2272
    1IPC    PO471191   2.029  23.379   7.436  0.1548 -0.0032  0.3918
    1IPC    GL171192   2.169  23.459   6.985 -0.0424  0.0205 -0.2343
    1IPC    GL271193   2.181  23.669   6.717 -0.0902  0.0659 -0.1484
    1IPC    C1B71194   2.355  23.504   6.242  0.0915  0.2755 -0.1311
    1IPC    D2B71195   2.547  23.650   5.887  0.0297  0.0226 -0.5021
    1IPC    D3B71196   2.457  23.304   5.587 -0.0588 -0.0565 -0.0096
    1IPC    C4B71197   2.363  23.356   5.074  0.0935 -0.1750 -0.1293
    1IPC    NC371198   5.941  28.694   6.715  0.0471  0.0641 -0.0424
    1IPC    PO471199   6.228  28.759   6.515  0.0287  0.0581  0.0592
    1IPC    GL171200   6.172  28.729   6.126 -0.2843  0.3346 -0.0513
    1IPC    GL271201   6.180  28.519   5.834 -0.1307 -0.2089 -0.1655
    1IPC    C1B71202   6.100  28.671   5.329  0.2644 -0.1281  0.0475
    1IPC    D2B71203   6.158  28.814   4.883 -0.0058 -0.2972  0.3141
    1IPC    D3B71204   5.784  28.631   4.564 -0.3987  0.0371  0.1053
    1IPC    C4B71205   5.415  28.786   4.469  0.2096  0.3422 -0.1753
    1IPC    NC371206  28.026  12.895   6.554  0.1041  0.0246 -0.1318
    1IPC    PO471207  28.373  13.337   6.419 -0.4358 -0.1030  0.0646
    1IPC    GL171208  28.626  13.256   6.161 -0.2002  0.1202 -0.1338
    1IPC    GL271209  28.840  13.039   6.002  0.1390 -0.0700  0.2584
    1IPC    C1B71210  28.922  12.831   5.710  0.1060  0.0438 -0.2040
    1IPC    D2B71211  29.055  12.529   5.837  0.3143  0.0421 -0.2294
    1IPC    D3B71212  28.777  12.158   5.985  0.0313 -0.0843 -0.0445
    1IPC    C4B71213  28.986  11.810   5.913 -0.2318  0.1433 -0.0836
    1IPC    NC371214   9.476  11.555   7.894 -0.0419  0.2900 -0.0399
    1IPC    PO471215   9.615  11.706   7.510  0.0494  0.1030 -0.2262
    1IPC    GL171216   9.517  11.814   7.167 -0.0015 -0.2060  0.0400
    1IPC    GL271217   9.531  12.214   7.080 -0.1324 -0.1220 -0.1084
    1IPC    C1B71218   9.488  12.522   6.726 -0.2619  0.0777  0.2439
    1IPC    D2B71219   9.217  12.417   6.384 -0.0574  0.0293 -0.0213
    1IPC    D3B71220   9.219  12.100   6.098 -0.0292  0.0768 -0.0634
    1IPC    C4B71221   9.585  11.920   5.899  0.0953 -0.0249 -0.1278
    1IPC    NC371222  24.233  18.769   5.527 -0.3118 -0.0841 -0.2614
    1IPC    PO471223  24.111  18.494   5.137  0.2124 -0.2069 -0.1215
    1IPC    GL171224  24.176  18.648   4.658  0.0596 -0.2345 -0.0816
    1IPC    GL271225  24.003  18.628   4.412  0.1170 -0.1696 -0.3029
    1IPC    C1B71226  23.902  18.632   3.943 -0.2147  0.1772  0.1050
    1IPC    D2B71227  23.967  18.760   3.450  0.5103  0.1442 -0.1086
    1IPC    D3B71228  23.700  19.123   3.598  0.1322  0.2895 -0.1534
    1IPC    C4B71229  23.846  19.175   3.974  0.1594  0.2308  0.0508
    1IPC    NC371230   8.419   7.460   7.539  0.0390  0.0450 -0.0044
    1IPC    PO471231   8.235   7.260   7.219  0.0561 -0.2384  0.2881
    1IPC    GL171232   7.906   7.339   7.065  0.1554  0.1006  0.0678
    1IPC    GL271233   7.855   7.278   6.787  0.3017  0.0393  0.0946
    1IPC    C1B71234   8.098   7.424   6.451  0.0802 -0.0747  0.1494
    1IPC    D2B71235   8.417   7.774   6.325  0.1222  0.0850 -0.0652
    1IPC    D3B71236   8.051   8.017   6.396  0.0906 -0.2527 -0.2320
    1IPC    C4B71237   7.892   8.069   6.100  0.3352 -0.1538  0.2802
    1IPC    NC371238   5.622   2.653   7.900 -0.3491 -0.1635 -0.0703
    1IPC    PO471239   5.508   2.697   7.514 -0.2261 -0.0149  0.0762
    1IPC    GL171240   5.511   2.443   7.140 -0.0665  0.1028 -0.0499
    1IPC    GL271241   5.594   2.399   6.867  0.0404  0.0520  0.1239
    1IPC    C1B71242   5.723   2.397   6.427 -0.0341 -0.1572  0.2127
    1IPC    D2B71243   5.754   2.677   6.066  0.0392 -0.0060  0.0703
    1IPC    D3B71244   5.858   2.665   5.659 -0.0517  0.1354  0.2650
    1IPC    C4B71245   6.282   2.744   5.444  0.0801  0.3611  0.0119
    1IPC    NC371246  16.563   1.887   7.084 -0.3379  0.0263  0.0107
    1IPC    PO471247  16.931   2.016   6.779 -0.0467  0.2601 -0.0412
    1IPC    GL171248  16.630   1.966   6.547  0.1832  0.2935 -0.3134
    1IPC    GL271249  16.635   2.080   6.256 -0.1779  0.0754  0.0563
    1IPC    C1B71250  16.738   2.287   5.910 -0.0351 -0.2030 -0.0167
    1IPC    D2B71251  16.928   2.209   5.493 -0.1255  0.2685  0.0244
    1IPC    D3B71252  16.523   2.269   5.456 -0.0590  0.5073  0.0485
    1IPC    C4B71253  16.272   2.133   5.876 -0.0970  0.1299 -0.2361
    1IPC    NC371254  22.332  11.014   6.003  0.5074  0.1503  0.0127
    1IPC    PO471255  22.012  10.922   6.300  0.0378 -0.0797  0.2938
    1IPC    GL171256  21.707  10.719   5.979 -0.1003 -0.2960  0.2851
    1IPC    GL271257  21.578  10.547   5.715 -0.0740  0.0936  0.1300
    1IPC    C1B71258  21.501  10.506   5.290 -0.2873 -0.0604  0.0158
    1IPC    D2B71259  21.451  10.811   5.071 -0.2067  0.3289 -0.0199
    1IPC    D3B71260  21.677  10.541   4.607 -0.0858  0.0653 -0.1917
    1IPC    C4B71261  22.134  10.731   4.394 -0.0734  0.1996 -0.1970
    1IPC    NC371262  19.857  29.642   8.198  0.2636  0.0301 -0.1438
    1IPC    PO471263  19.661  29.516   7.769 -0.1615  0.1251 -0.0345
    1IPC    GL171264  19.699  29.359   7.306  0.0098  0.2005 -0.4683
    1IPC    GL271265  19.759  29.229   6.998 -0.1029 -0.1715 -0.0104
    1IPC    C1B71266  19.872  28.957   6.577  0.0516 -0.1894 -0.0729
    1IPC    D2B71267  20.132  28.626   6.453 -0.1136  0.2808 -0.2807
    1IPC    D3B71268  20.286  28.648   5.952 -0.3207  0.1443  0.0561
    1IPC    C4B71269  19.934  28.814   5.741 -0.0098 -0.0366 -0.3273
    1IPC    NC371270   9.748   0.600   7.110  0.0700 -0.1103  0.1526
    1IPC    PO471271  10.099   0.879   7.212 -0.1297  0.2214 -0.1054
    1IPC    GL171272  10.342   1.189   6.954  0.0112 -0.0437  0.5361
    1IPC    GL271273  10.549   1.004   6.759  0.4725 -0.3999 -0.1647
    1IPC    C1B71274  10.712   1.027   6.326 -0.3099  0.0671 -0.0792
    1IPC    D2B71275  10.811   0.836   5.948 -0.2384  0.1018  0.0020
    1IPC    D3B71276  10.657   1.170   5.721 -0.3974 -0.1101 -0.0589
    1IPC    C4B71277  10.959   1.540   5.525  0.0267 -0.1203  0.2653
    1IPC    NC371278   1.633  23.412   7.117 -0.1689  0.0089  0.0703
    1IPC    PO471279   1.214  23.392   7.101 -0.0319  0.0240  0.0742
    1IPC    GL171280   1.265  23.421   6.699 -0.3172  0.1664  0.0802
    1IPC    GL271281   1.333  23.505   6.437  0.1507  0.1908 -0.1451
    1IPC    C1B71282   1.487  23.471   5.984 -0.0261  0.0433  0.0616
    1IPC    D2B71283   1.516  23.305   5.547 -0.2032 -0.1599 -0.0695
    1IPC    D3B71284   1.861  23.501   5.397 -0.0667 -0.1577 -0.4056
    1IPC    C4B71285   1.839  23.928   5.517 -0.0875  0.2646 -0.3373
    1IPC    NC371286  20.947  14.831   5.798 -0.1288  0.0974 -0.0242
    1IPC    PO471287  21.383  14.611   5.707 -0.3453  0.2488  0.1334
    1IPC    GL171288  21.545  14.750   5.378  0.0049 -0.0252 -0.0428
    1IPC    GL271289  21.853  14.963   5.207  0.2142  0.1636 -0.1402
    1IPC    C1B71290  22.101  15.131   4.856  0.1628  0.1572 -0.3332
    1IPC    D2B71291  22.225  15.062   4.486 -0.2768  0.0972  0.2421
    1IPC    D3B71292  22.135  15.306   4.167  0.1870 -0.3207 -0.2005
    1IPC    C4B71293  21.998  15.377   3.830 -0.0201 -0.2947  0.0613
    1IPC    NC371294  11.994  22.030   6.345  0.2302 -0.1473  0.2306
    1IPC    PO471295  12.071  21.643   6.669  0.2774  0.2402  0.0455
    1IPC    GL171296  12.332  21.597   6.341  0.0613  0.3285  0.0839
    1IPC    GL271297  12.183  21.671   6.001 -0.0523 -0.2376  0.0791
    1IPC    C1B71298  12.350  21.949   5.625  0.2987  0.1940 -0.0717
    1IPC    D2B71299  12.408  21.906   5.200 -0.0303  0.0629  0.0482
    1IPC    D3B71300  12.783  21.858   5.114 -0.0080 -0.1855  0.4227
    1IPC    C4B71301  13.068  21.613   5.469  0.0035  0.0899 -0.2131
    1IPC    NC371302  25.639   9.552   6.314  0.1092  0.0531  0.2758
    1IPC    PO471303  25.967   9.186   6.414 -0.0716  0.2861 -0.0419
    1IPC    GL171304  25.769   9.270   5.942 -0.2392 -0.0561 -0.0364
    1IPC    GL271305  25.573   9.311   5.730  0.3647  0.2541 -0.0816
    1IPC    C1B71306  25.363   9.420   5.319  0.0470  0.4307 -0.0187
    1IPC    D2B71307  25.019   9.483   4.998  0.0902  0.1054 -0.1276
    1IPC    D3B71308  25.145   9.265   4.656  0.0207  0.3183  0.0163
    1IPC    C4B71309  25.164   9.501   4.258 -0.1953  0.3162 -0.2710
    1IPC    NC371310  23.253  14.927   5.538  0.0922  0.0442  0.0912
    1IPC    PO471311  23.372  14.489   5.596  0.0645  0.5677  0.0183
    1IPC    GL171312  23.462  14.754   5.178  0.0365 -0.2827 -0.0237
    1IPC    GL271313  23.426  14.927   4.841 -0.3980  0.2112 -0.1960
    1IPC    C1B71314  23.203  15.298   4.627 -0.0427 -0.0119  0.1699
    1IPC    D2B71315  22.962  15.565   4.535  0.2179  0.1716 -0.1851
    1IPC    D3B71316  23.014  15.341   4.141 -0.1773 -0.2463  0.0081
    1IPC    C4B71317  22.670  15.171   4.002  0.0632 -0.0099 -0.0067
    1IPC    NC371318  17.560   2.462   7.536 -0.0087 -0.0617  0.0141
    1IPC    PO471319  17.640   2.447   7.191  0.0442  0.0622 -0.3199
    1IPC    GL171320  17.593   2.433   6.799  0.0389  0.2317 -0.0461
    1IPC    GL271321  17.705   2.328   6.543 -0.0290  0.2992  0.0581
    1IPC    C1B71322  17.664   2.319   6.106  0.2452 -0.0089 -0.0098
    1IPC    D2B71323  17.955   2.068   5.794  0.2715 -0.3975 -0.1674
    1IPC    D3B71324  17.836   1.941   5.431 -0.3251  0.1349 -0.1756
    1IPC    C4B71325  18.043   1.687   5.191 -0.0992  0.0828 -0.2933
    1IPC    NC371326  16.061  20.561   6.383 -0.0301 -0.0953 -0.1310
    1IPC    PO471327  16.507  20.614   6.435 -0.0702 -0.2228  0.0295
    1IPC    GL171328  16.795  20.740   6.094 -0.0222 -0.0861 -0.0626
    1IPC    GL271329  16.992  20.708   5.807 -0.2753  0.2042  0.1788
    1IPC    C1B71330  16.852  20.398   5.479 -0.2022  0.3659  0.0059
    1IPC    D2B71331  16.692  20.032   5.271 -0.2129  0.0807  0.0227
    1IPC    D3B71332  16.525  20.281   4.890 -0.2463 -0.0993  0.2217
    1IPC    C4B71333  16.491  20.728   4.746 -0.0318 -0.0287 -0.0115
    1IPC    NC371334  22.280  10.026   6.550 -0.0312 -0.0351 -0.0790
    1IPC    PO471335  21.842   9.894   6.586 -0.1825 -0.0778 -0.2424
    1IPC    GL171336  21.634   9.847   6.288 -0.0865  0.1392  0.3140
    1IPC    GL271337  21.466   9.711   6.001  0.0275 -0.3241  0.1630
    1IPC    C1B71338  21.456   9.609   5.595  0.0312 -0.1466  0.2204
    1IPC    D2B71339  21.718   9.393   5.461 -0.0329 -0.1204  0.0537
    1IPC    D3B71340  21.313   9.183   5.252 -0.1783  0.1980 -0.1735
    1IPC    C4B71341  21.022   9.505   5.026  0.0072 -0.0273 -0.0126
    1IPC    NC371342  28.646  21.701   6.973 -0.0162 -0.3905  0.3160
    1IPC    PO471343  28.637  21.711   6.496 -0.1977 -0.1895 -0.1612
    1IPC    GL171344  29.042  21.810   6.285  0.1789  0.2307 -0.1007
    1IPC    GL271345  29.139  22.089   6.190  0.2270 -0.0127 -0.1681
    1IPC    C1B71346  29.303  22.137   5.835  0.0598 -0.0643  0.3482
    1IPC    D2B71347  29.449  21.926   5.512 -0.0013 -0.3169 -0.2219
    1IPC    D3B71348  29.544  22.239   5.201 -0.2322  0.0812  0.3379
    1IPC    C4B71349  29.743  22.313   4.785 -0.2184  0.1849  0.1188
    1IPC    NC371350  14.614  20.193   6.767 -0.1628 -0.2535 -0.3084
    1IPC    PO471351  14.542  19.804   6.651  0.3277  0.0658  0.1354
    1IPC    GL171352  14.392  19.678   6.211  0.0324 -0.0398  0.0104
    1IPC    GL271353  14.408  19.485   5.953  0.0172 -0.0831  0.2758
    1IPC    C1B71354  14.116  19.275   5.611  0.2690 -0.3496  0.1868
    1IPC    D2B71355  13.826  19.344   5.287  0.0868  0.0723  0.1055
    1IPC    D3B71356  13.488  19.265   5.059  0.0154  0.0911 -0.0558
    1IPC    C4B71357  13.020  19.381   5.055 -0.1914 -0.0092 -0.0507
    1IPC    NC371358  23.881  21.763   5.697  0.2386 -0.0102  0.0897
    1IPC    PO471359  23.461  21.504   5.894  0.2593  0.2694  0.1123
    1IPC    GL171360  23.471  21.645   5.463  0.1493  0.1072  0.0515
    1IPC    GL271361  23.294  21.774   5.130 -0.2109  0.2849  0.0719
    1IPC    C1B71362  23.273  21.688   4.594 -0.0396 -0.1288 -0.3860
    1IPC    D2B71363  23.403  21.625   4.080 -0.3028  0.2394 -0.1787
    1IPC    D3B71364  23.733  21.913   4.111 -0.0805  0.4450  0.0590
    1IPC    C4B71365  23.662  22.065   4.558  0.1949  0.0972  0.1257
    1IPC    NC371366  26.909   6.245   6.710  0.2367 -0.3608  0.0761
    1IPC    PO471367  26.939   6.701   6.699 -0.3184  0.0583 -0.0447
    1IPC    GL171368  27.125   6.573   6.376 -0.1051  0.0271  0.1635
    1IPC    GL271369  27.055   6.368   6.168  0.1666 -0.0009 -0.0752
    1IPC    C1B71370  27.010   6.417   5.735 -0.1572  0.1213 -0.1636
    1IPC    D2B71371  27.148   6.673   5.352  0.1699  0.0049 -0.0108
    1IPC    D3B71372  26.886   6.409   5.126  0.0628 -0.1043 -0.0437
    1IPC    C4B71373  27.173   6.130   4.975  0.0408  0.0991  0.2062
    1IPC    NC371374   4.144  13.213   7.307  0.0843 -0.0518 -0.1759
    1IPC    PO471375   4.152  13.651   7.277  0.1679 -0.0315  0.0828
    1IPC    GL171376   4.017  13.529   6.944 -0.3108 -0.1848 -0.1257
    1IPC    GL271377   3.795  13.604   6.697  0.2123 -0.0142  0.2257
    1IPC    C1B71378   3.668  13.484   6.270  0.0361 -0.0732 -0.0108
    1IPC    D2B71379   3.736  13.401   5.819 -0.0714 -0.0752 -0.0623
    1IPC    D3B71380   3.806  13.157   5.469 -0.2309 -0.1937 -0.1436
    1IPC    C4B71381   3.939  13.040   5.061 -0.0814  0.0958 -0.0419
    1IPC    NC371382  12.895   8.020   7.158  0.1742 -0.1131  0.0136
    1IPC    PO471383  13.153   8.326   6.870  0.2854  0.2320  0.0348
    1IPC    GL171384  12.865   8.461   6.566 -0.0857 -0.2676 -0.1674
    1IPC    GL271385  12.833   8.544   6.216  0.1737  0.0344 -0.0938
    1IPC    C1B71386  12.635   8.330   5.824 -0.1538 -0.1656 -0.1282
    1IPC    D2B71387  12.583   8.030   5.531  0.1684  0.2349 -0.2948
    1IPC    D3B71388  12.903   8.321   5.243  0.1484  0.0867  0.0927
    1IPC    C4B71389  13.223   8.040   5.060  0.3907  0.1054  0.0701
    1IPC    NC371390  16.598  23.243   7.100  0.1887  0.2613 -0.1733
    1IPC    PO471391  16.452  23.562   6.887  0.4752  0.2862 -0.2449
    1IPC    GL171392  16.257  23.447   6.505 -0.3546  0.1138 -0.1174
    1IPC    GL271393  16.420  23.342   6.274  0.2488 -0.1013  0.3425
    1IPC    C1B71394  16.428  23.638   5.960  0.0587  0.1473  0.3142
    1IPC    D2B71395  16.411  23.935   5.598 -0.1470  0.0805 -0.0527
    1IPC    D3B71396  16.731  23.809   5.307  0.0043  0.0647 -0.2104
    1IPC    C4B71397  16.900  24.144   5.082 -0.1750  0.0376 -0.2462
    1IPC    NC371398   8.366  11.423   7.566  0.0772 -0.1930  0.0238
    1IPC    PO471399   8.661  11.780   7.768 -0.1159 -0.2631  0.1699
    1IPC    GL171400   8.699  11.762   7.330  0.2540 -0.0263  0.2190
    1IPC    GL271401   8.930  11.753   7.022  0.4149 -0.1486  0.0776
    1IPC    C1B71402   9.303  11.917   6.608  0.2526 -0.1365 -0.2077
    1IPC    D2B71403   9.673  11.782   6.350 -0.1333  0.1315  0.1327
    1IPC    D3B71404   9.755  12.187   6.334 -0.0563 -0.2815  0.2159
    1IPC    C4B71405   9.548  12.440   6.021 -0.3444  0.0298 -0.0658
    1IPC    NC371406  21.425  10.574   6.924  0.0437  0.3480  0.3591
    1IPC    PO471407  21.686  10.561   6.477 -0.0724 -0.0389  0.1564
    1IPC    GL171408  21.866  10.294   6.156 -0.2376 -0.0236 -0.0980
    1IPC    GL271409  21.727  10.097   5.815 -0.0474 -0.2804 -0.0369
    1IPC    C1B71410  21.735  10.041   5.354  0.1746 -0.4772  0.1659
    1IPC    D2B71411  21.550  10.168   4.951 -0.0804 -0.2500  0.0173
    1IPC    D3B71412  21.272  10.190   4.509 -0.0427 -0.0445  0.0327
    1IPC    C4B71413  21.089  10.560   4.247 -0.0966  0.1903 -0.1082
    1IPC    NC371414  15.709  15.181   6.532  0.3658  0.1916  0.2259
    1IPC    PO471415  16.105  15.502   6.428 -0.0829  0.1586  0.1488
    1IPC    GL171416  15.898  15.218   6.028 -0.0131  0.1724  0.1234
    1IPC    GL271417  15.845  15.175   5.709  0.0204 -0.0323 -0.0078
    1IPC    C1B71418  15.927  15.382   5.271  0.0086 -0.1858  0.0906
    1IPC    D2B71419  15.996  15.209   4.822  0.0989 -0.1222 -0.1275
    1IPC    D3B71420  15.553  15.183   4.859  0.0300  0.0170 -0.0615
    1IPC    C4B71421  15.432  15.229   4.473 -0.0724  0.1160  0.3753
    1IPC    NC371422  10.209  23.213   2.745  0.1386  0.1726 -0.2932
    1IPC    PO471423  10.038  23.671   2.837 -0.1979 -0.0244  0.2228
    1IPC    GL171424   9.742  23.630   3.253 -0.1255 -0.1374  0.1994
    1IPC    GL271425   9.613  23.489   3.513  0.2131  0.0224 -0.1222
    1IPC    C1B71426   9.710  23.379   3.968 -0.1094  0.1192  0.2000
    1IPC    D2B71427  10.001  23.674   4.216 -0.0757 -0.1548  0.0075
    1IPC    D3B71428   9.725  23.436   4.466  0.0745  0.2325 -0.2744
    1IPC    C4B71429   9.596  23.324   5.014  0.0182  0.0829  0.4057
    1IPC    NC371430   5.768  23.464   2.863  0.0847  0.1027 -0.3333
    1IPC    PO471431   6.155  23.249   2.899 -0.1787 -0.5742 -0.0986
    1IPC    GL171432   6.223  23.179   3.327 -0.0484  0.0470 -0.2219
    1IPC    GL271433   6.367  22.899   3.486  0.0150  0.0641 -0.1708
    1IPC    C1B71434   6.595  22.819   3.905  0.1032  0.1473 -0.0427
    1IPC    D2B71435   6.558  22.443   4.187 -0.0766  0.0172  0.0153
    1IPC    D3B71436   6.870  22.178   3.963 -0.1587  0.2916  0.0810
    1IPC    C4B71437   7.103  21.908   4.228  0.3907 -0.1781 -0.1177
    1IPC    NC371438  23.158  28.674   3.052  0.0921  0.1678 -0.0609
    1IPC    PO471439  23.129  28.272   2.826 -0.1061  0.2083  0.3168
    1IPC    GL171440  23.157  28.221   3.233  0.2730  0.1412 -0.0857
    1IPC    GL271441  23.175  28.327   3.583  0.0398  0.1433  0.0322
    1IPC    C1B71442  23.129  28.190   4.027  0.3180 -0.4324 -0.0490
    1IPC    D2B71443  23.036  27.683   4.138 -0.0261  0.0769  0.1852
    1IPC    D3B71444  23.144  27.452   4.501 -0.1691 -0.1573 -0.0634
    1IPC    C4B71445  23.459  27.610   4.773  0.0369  0.1562 -0.2788
    1IPC    NC371446  26.849  22.498   1.642 -0.0220  0.0503  0.0497
    1IPC    PO471447  26.664  22.732   2.202  0.0090  0.0039 -0.0724
    1IPC    GL171448  26.969  22.610   2.430  0.1302 -0.1445 -0.1166
    1IPC    GL271449  27.087  22.712   2.694 -0.1052  0.1148 -0.4425
    1IPC    C1B71450  26.890  22.562   3.078  0.1786  0.0914 -0.0353
    1IPC    D2B71451  26.896  22.218   3.403  0.1855  0.4039 -0.1182
    1IPC    D3B71452  26.545  22.179   3.721 -0.3859 -0.0700  0.0694
    1IPC    C4B71453  26.162  22.172   3.837  0.2257 -0.1918 -0.1806
    1IPC    NC371454   2.923  28.905   1.917  0.0099  0.1769 -0.0574
    1IPC    PO471455   3.010  28.507   2.193 -0.2832  0.0134  0.0885
    1IPC    GL171456   3.151  28.329   2.612  0.1143  0.3532 -0.1254
    1IPC    GL271457   3.190  28.271   2.973 -0.0986 -0.1723 -0.0499
    1IPC    C1B71458   2.828  28.327   3.366  0.0642  0.0829 -0.1422
    1IPC    D2B71459   2.403  28.082   3.177 -0.0745 -0.1445  0.0980
    1IPC    D3B71460   2.265  27.761   3.429  0.0225 -0.0073 -0.1023
    1IPC    C4B71461   2.372  27.697   3.870  0.0429 -0.0361 -0.0937
    1IPC    NC371462   9.358   9.829   2.319  0.1438  0.0920  0.3084
    1IPC    PO471463   9.655   9.898   2.717 -0.1091  0.0952  0.2776
    1IPC    GL171464   9.658  10.081   3.124 -0.2294  0.0595  0.4555
    1IPC    GL271465   9.587   9.921   3.407  0.1125  0.0095  0.0234
    1IPC    C1B71466   9.674   9.803   3.795  0.2794  0.2869 -0.1397
    1IPC    D2B71467  10.032   9.807   3.877  0.0534  0.2027  0.1749
    1IPC    D3B71468   9.843  10.036   4.194  0.0500 -0.2535 -0.2655
    1IPC    C4B71469   9.554   9.990   4.606 -0.2233  0.0911  0.2089
    1IPC    NC371470   4.497   2.631   2.516  0.1768  0.0684  0.0260
    1IPC    PO471471   4.374   2.897   2.927 -0.2014  0.0653  0.0614
    1IPC    GL171472   4.214   2.775   3.309  0.2454  0.0934  0.1113
    1IPC    GL271473   4.216   2.744   3.548 -0.0557 -0.1486  0.1790
    1IPC    C1B71474   4.190   2.752   3.915  0.0130  0.5900 -0.1778
    1IPC    D2B71475   4.213   2.672   4.372 -0.0503 -0.0368  0.0850
    1IPC    D3B71476   4.299   2.833   4.691  0.2257  0.0233 -0.1638
    1IPC    C4B71477   4.130   2.620   5.070 -0.1911 -0.0914  0.0315
    1IPC    NC371478  16.265  25.135   2.969 -0.0327 -0.0889 -0.2007
    1IPC    PO471479  16.766  25.127   3.059 -0.3092  0.1543 -0.3932
    1IPC    GL171480  17.231  25.153   3.093 -0.4182  0.0386  0.1997
    1IPC    GL271481  17.432  25.149   3.358  0.2432  0.0075  0.1527
    1IPC    C1B71482  17.420  25.034   3.879  0.1425 -0.0266 -0.0382
    1IPC    D2B71483  17.608  24.713   4.207  0.1625 -0.1914 -0.0067
    1IPC    D3B71484  18.048  24.654   4.342  0.2489  0.1725 -0.0699
    1IPC    C4B71485  18.049  24.785   4.894  0.2575  0.2069  0.2919
    1IPC    NC371486  18.742   9.023   2.705 -0.2023 -0.1464 -0.2039
    1IPC    PO471487  18.663   8.552   2.852 -0.1621 -0.3020 -0.1073
    1IPC    GL171488  18.488   8.240   3.105 -0.1022  0.0103  0.1195
    1IPC    GL271489  18.586   8.207   3.391  0.1639  0.2336 -0.0439
    1IPC    C1B71490  18.484   8.167   3.826  0.1267  0.0025  0.1679
    1IPC    D2B71491  18.468   8.549   4.102  0.1255 -0.3144 -0.1633
    1IPC    D3B71492  18.123   8.652   4.359  0.0888  0.1066  0.0845
    1IPC    C4B71493  17.958   8.796   3.936 -0.0054  0.1026  0.2213
    1IPC    NC371494   9.559  23.858   2.421  0.0058  0.1427 -0.0982
    1IPC    PO471495   9.467  24.165   2.781  0.0261 -0.1184  0.2672
    1IPC    GL171496   9.408  23.971   3.153 -0.2503  0.1872  0.0568
    1IPC    GL271497   9.279  24.026   3.496 -0.0444 -0.1520 -0.2571
    1IPC    C1B71498   9.329  24.240   3.888 -0.1453  0.0321 -0.0445
    1IPC    D2B71499   9.405  24.448   4.171 -0.0137 -0.0445 -0.1317
    1IPC    D3B71500   9.378  24.256   4.702  0.0533  0.0983 -0.0995
    1IPC    C4B71501   9.697  24.283   5.151  0.1443  0.0836  0.0110
    1IPC    NC371502  20.613  11.757   2.035 -0.0517 -0.1311 -0.1324
    1IPC    PO471503  20.249  12.036   1.922  0.2170  0.2088 -0.2187
    1IPC    GL171504  20.540  12.245   2.260 -0.1953  0.2409 -0.2861
    1IPC    GL271505  20.482  12.496   2.468 -0.1474 -0.1561  0.1972
    1IPC    C1B71506  20.480  12.507   2.894  0.1071  0.0294  0.0279
    1IPC    D2B71507  20.372  12.528   3.338 -0.1415  0.2111  0.0663
    1IPC    D3B71508  20.576  12.844   3.599  0.0734  0.0187  0.0062
    1IPC    C4B71509  20.325  13.097   3.899  0.0326 -0.0593  0.0074
    1IPC    NC371510  22.107   3.186   3.299  0.0051 -0.2288 -0.2024
    1IPC    PO471511  22.322   2.922   3.455  0.2321 -0.1084 -0.1062
    1IPC    GL171512  22.203   2.591   3.786  0.4272  0.0891  0.0576
    1IPC    GL271513  22.417   2.409   3.955  0.1091 -0.0791 -0.5051
    1IPC    C1B71514  22.474   2.509   4.447 -0.5368 -0.1080 -0.1500
    1IPC    D2B71515  22.485   2.486   4.913 -0.1510  0.1142  0.3123
    1IPC    D3B71516  22.292   2.329   5.200  0.0923 -0.1077 -0.1542
    1IPC    C4B71517  21.850   2.225   5.327 -0.0769 -0.1078  0.0736
    1IPC    NC371518  25.126   4.519   3.369  0.1812 -0.0188  0.3685
    1IPC    PO471519  25.585   4.687   3.228  0.0222 -0.4753  0.1634
    1IPC    GL171520  25.870   4.438   3.383 -0.3026  0.4522 -0.0367
    1IPC    GL271521  25.821   4.381   3.659 -0.0374  0.3696 -0.0721
    1IPC    C1B71522  25.842   4.097   4.038 -0.1646 -0.2516  0.1464
    1IPC    D2B71523  26.223   3.915   4.201 -0.1011 -0.2683 -0.1397
    1IPC    D3B71524  25.976   3.789   4.566 -0.2003 -0.2404 -0.1755
    1IPC    C4B71525  25.980   3.398   4.908 -0.0931 -0.0160 -0.1041
    1IPC    NC371526  17.036  10.408   2.169  0.0975 -0.1374  0.0232
    1IPC    PO471527  17.440  10.427   2.438  0.1360  0.0686  0.0235
    1IPC    GL171528  17.544  10.578   2.899 -0.1035 -0.2040  0.0803
    1IPC    GL271529  17.548  10.453   3.136 -0.0315 -0.0886 -0.1691
    1IPC    C1B71530  17.439  10.410   3.476 -0.1528  0.2067  0.0842
    1IPC    D2B71531  17.033  10.223   3.747  0.4003  0.1455 -0.2054
    1IPC    D3B71532  17.051  10.583   3.935 -0.1465  0.2864 -0.0935
    1IPC    C4B71533  17.079  10.990   3.900 -0.1969 -0.0534 -0.0817
    1IPC    NC371534  25.533  26.178   2.876  0.3256  0.0403 -0.0807
    1IPC    PO471535  25.898  26.264   3.081  0.3488 -0.0061  0.0287
    1IPC    GL171536  25.517  26.259   3.374  0.1630 -0.0964 -0.1573
    1IPC    GL271537  25.275  26.258   3.611 -0.0802  0.1383 -0.2701
    1IPC    C1B71538  25.093  26.191   3.983  0.0912 -0.1145 -0.2728
    1IPC    D2B71539  24.821  26.094   4.262  0.0328 -0.1704  0.2159
    1IPC    D3B71540  25.187  26.011   4.438 -0.2657 -0.2056 -0.0090
    1IPC    C4B71541  25.195  25.686   4.633 -0.4522 -0.2343 -0.0144
    1IPC    NC371542  24.375  18.859   1.408 -0.0096 -0.1063 -0.1017
    1IPC    PO471543  23.866  18.951   1.356  0.5787 -0.0204  0.1382
    1IPC    GL171544  23.818  19.025   1.867  0.0789 -0.0787 -0.0827
    1IPC    GL271545  23.762  18.696   2.182 -0.1854  0.2401  0.1286
    1IPC    C1B71546  23.908  18.600   2.577  0.2780 -0.3671 -0.0038
    1IPC    D2B71547  23.886  18.790   2.993  0.1354 -0.3098  0.2218
    1IPC    D3B71548  24.245  18.807   2.813  0.1960 -0.0538 -0.1931
    1IPC    C4B71549  24.181  18.954   2.370 -0.1980  0.0419 -0.1127
    1IPC    NC371550   8.855   5.470   2.997 -0.0387 -0.0958  0.1347
    1IPC    PO471551   8.697   5.806   3.237  0.0183 -0.1285 -0.1264
    1IPC    GL171552   8.921   6.086   3.455 -0.0893  0.1713 -0.4023
    1IPC    GL271553   9.025   6.060   3.758 -0.0089  0.1144  0.2316
    1IPC    C1B71554   9.060   6.123   4.211  0.1964 -0.3213  0.0327
    1IPC    D2B71555   9.243   6.360   4.560  0.0884  0.2578  0.0003
    1IPC    D3B71556   9.129   6.110   4.853 -0.0386 -0.1516 -0.0818
    1IPC    C4B71557   9.047   6.119   5.271 -0.1105  0.0751 -0.0678
    1IPC    NC371558  10.327  18.003   1.492 -0.0926  0.0088  0.3270
    1IPC    PO471559  10.108  18.080   1.976 -0.2044  0.1477 -0.1865
    1IPC    GL171560   9.771  18.029   2.405  0.1578  0.1753  0.2275
    1IPC    GL271561   9.694  18.144   2.622  0.0717  0.1040 -0.1329
    1IPC    C1B71562   9.723  18.375   2.966 -0.0092 -0.0544  0.0349
    1IPC    D2B71563   9.874  18.549   3.291  0.1252 -0.0958  0.0090
    1IPC    D3B71564  10.208  18.461   3.300 -0.0766  0.0254  0.0265
    1IPC    C4B71565  10.657  18.615   3.241 -0.0642 -0.0393  0.0556
    1IPC    NC371566   7.583   2.856   2.712  0.1296  0.0854  0.0237
    1IPC    PO471567   7.328   3.085   3.024 -0.2425 -0.1943 -0.0998
    1IPC    GL171568   7.073   3.254   3.440  0.1246  0.0733 -0.2065
    1IPC    GL271569   7.160   3.116   3.901 -0.2215 -0.2809 -0.0334
    1IPC    C1B71570   6.987   3.035   4.409  0.0310 -0.1827  0.1210
    1IPC    D2B71571   6.534   3.091   4.280 -0.2980 -0.0380 -0.2741
    1IPC    D3B71572   6.644   2.799   4.698  0.2631 -0.1497 -0.0506
    1IPC    C4B71573   7.025   2.732   4.822 -0.0292  0.0671 -0.0666
    1IPC    NC371574   9.065   6.921   3.534  0.2370 -0.0867  0.2037
    1IPC    PO471575   9.223   6.514   3.713  0.1743 -0.1658 -0.0113
    1IPC    GL171576   9.484   6.590   3.989 -0.2287  0.0891  0.0195
    1IPC    GL271577   9.587   6.623   4.241 -0.1300 -0.1438  0.0412
    1IPC    C1B71578   9.402   6.826   4.591  0.0292 -0.0128 -0.0818
    1IPC    D2B71579   9.031   7.122   4.802  0.0030  0.1605 -0.2963
    1IPC    D3B71580   8.960   7.091   5.163 -0.2146 -0.0508  0.0196
    1IPC    C4B71581   8.458   6.868   5.173 -0.2376 -0.0955  0.3326
    1IPC    NC371582  15.205  16.702   2.257  0.1830 -0.2070 -0.0775
    1IPC    PO471583  15.377  16.541   2.686  0.0317  0.1300  0.1625
    1IPC    GL171584  15.618  16.641   3.046 -0.0273 -0.2571  0.0930
    1IPC    GL271585  15.691  16.670   3.377 -0.1515 -0.0842  0.0807
    1IPC    C1B71586  15.657  16.873   3.818 -0.2670  0.1651 -0.0734
    1IPC    D2B71587  15.636  17.220   4.132  0.2146  0.1802  0.1599
    1IPC    D3B71588  15.598  17.070   4.466 -0.1316  0.0208  0.2937
    1IPC    C4B71589  15.800  17.197   4.832 -0.2848 -0.0101  0.4152
    1IPC    NC371590   1.094  24.207   1.592  0.0232 -0.0734 -0.0273
    1IPC    PO471591   1.379  24.508   1.826 -0.4425 -0.2812  0.4126
    1IPC    GL171592   1.301  24.100   2.173  0.1848  0.0582 -0.1611
    1IPC    GL271593   1.164  23.921   2.374 -0.0616 -0.2529  0.1300
    1IPC    C1B71594   1.029  23.954   2.795  0.1986 -0.0438 -0.0015
    1IPC    D2B71595   0.766  24.112   3.172 -0.1395  0.0680  0.1986
    1IPC    D3B71596   1.243  24.228   3.215 -0.4222  0.1169 -0.0544
    1IPC    C4B71597   1.257  24.237   3.683  0.1721  0.1272  0.4278
    1IPC    NC371598  18.412  20.303   2.552 -0.0123  0.0160 -0.2202
    1IPC    PO471599  18.164  20.626   2.785  0.1343  0.0689 -0.2453
    1IPC    GL171600  18.319  20.732   3.246  0.1052  0.1329  0.0700
    1IPC    GL271601  18.230  20.739   3.503  0.2193 -0.3745  0.1866
    1IPC    C1B71602  18.140  20.881   3.893 -0.1449  0.1641 -0.1514
    1IPC    D2B71603  18.291  21.072   4.320  0.3527 -0.1292 -0.0563
    1IPC    D3B71604  18.622  21.023   4.590 -0.2963 -0.0907 -0.2586
    1IPC    C4B71605  18.571  20.818   4.996  0.2148  0.0218 -0.1580
    1IPC    NC371606  11.496   0.609   2.885 -0.2443  0.1695  0.1946
    1IPC    PO471607  11.314   0.581   3.303  0.2643 -0.1127 -0.2871
    1IPC    GL171608  11.175   0.642   3.709  0.0889  0.0890  0.0220
    1IPC    GL271609  11.088   0.751   4.069  0.1852 -0.0211 -0.1441
    1IPC    C1B71610  11.047   0.835   4.558 -0.3714  0.1264 -0.0582
    1IPC    D2B71611  10.705   0.816   4.892 -0.1182  0.0727 -0.0263
    1IPC    D3B71612  10.763   0.806   5.366 -0.0470  0.1893  0.1771
    1IPC    C4B71613  10.418   0.720   5.648  0.1448 -0.1835  0.0235
    1IPC    NC371614  21.603   7.781   3.410 -0.3293 -0.1033  0.0996
    1IPC    PO471615  21.985   7.707   3.198 -0.2560 -0.0018  0.1502
    1IPC    GL171616  22.177   8.006   3.445 -0.0858 -0.0784  0.4589
    1IPC    GL271617  22.231   8.296   3.400  0.2873  0.0302  0.0632
    1IPC    C1B71618  22.354   8.681   3.600 -0.0766 -0.1733  0.0535
    1IPC    D2B71619  22.310   8.798   3.941  0.1470 -0.1830 -0.0929
    1IPC    D3B71620  22.309   9.131   4.149  0.0770  0.2193  0.3701
    1IPC    C4B71621  22.670   9.510   4.200 -0.1335  0.1660 -0.1129
    1IPC    NC371622  12.040   5.223   3.081  0.1167 -0.0715 -0.0512
    1IPC    PO471623  11.620   4.967   3.214 -0.1778  0.0467  0.3865
    1IPC    GL171624  11.349   5.050   3.568 -0.0918 -0.1220 -0.0395
    1IPC    GL271625  11.108   5.126   3.799  0.0141 -0.1524 -0.6192
    1IPC    C1B71626  10.998   5.319   4.229 -0.1631  0.0116  0.1643
    1IPC    D2B71627  11.017   5.240   4.649 -0.1662 -0.1702 -0.2928
    1IPC    D3B71628  11.460   5.327   4.444 -0.0188  0.1167  0.2008
    1IPC    C4B71629  11.618   5.372   4.051  0.0180  0.2007 -0.2347
    1IPC    NC371630   4.103   7.422   2.689  0.0319 -0.0034  0.0150
    1IPC    PO471631   3.623   7.446   2.720  0.0535 -0.1178  0.3913
    1IPC    GL171632   3.418   7.603   3.151 -0.0484  0.1499 -0.0462
    1IPC    GL271633   3.401   7.552   3.469  0.0579 -0.4856 -0.4417
    1IPC    C1B71634   3.493   7.476   3.911 -0.1676 -0.1086  0.0764
    1IPC    D2B71635   3.359   7.449   4.413 -0.0621  0.4908 -0.1962
    1IPC    D3B71636   2.942   7.259   4.445 -0.1431  0.0956  0.1060
    1IPC    C4B71637   2.547   7.288   4.657 -0.0219 -0.3568  0.2996
    1IPC    NC371638  15.092  11.916   2.432 -0.2643  0.2698  0.0971
    1IPC    PO471639  15.097  11.891   2.854  0.0354 -0.0426  0.2511
    1IPC    GL171640  15.206  11.956   3.305 -0.1339 -0.0275  0.4175
    1IPC    GL271641  15.159  12.179   3.499  0.0629 -0.0029 -0.0556
    1IPC    C1B71642  14.999  12.486   3.635  0.0288  0.0671 -0.0681
    1IPC    D2B71643  14.983  12.814   4.004 -0.0321  0.0555 -0.3274
    1IPC    D3B71644  15.214  12.592   4.383 -0.3096 -0.0439  0.0407
    1IPC    C4B71645  15.039  12.338   4.679 -0.0834 -0.3545 -0.2179
    1IPC    NC371646  13.145  17.776   2.788 -0.6140  0.2413 -0.1778
    1IPC    PO471647  13.129  17.349   2.584 -0.1589  0.1667  0.1780
    1IPC    GL171648  12.803  17.252   2.916 -0.0899  0.1804  0.2191
    1IPC    GL271649  12.705  17.324   3.271 -0.1177  0.1790 -0.2156
    1IPC    C1B71650  12.809  17.629   3.698 -0.0834  0.1354 -0.2001
    1IPC    D2B71651  12.850  17.770   4.147  0.0963  0.2160 -0.0497
    1IPC    D3B71652  12.891  17.296   4.353 -0.0769 -0.0147 -0.2326
    1IPC    C4B71653  12.527  17.047   4.520  0.0292  0.1564  0.0372
    1IPC    NC371654   6.350  19.354   2.179 -0.1675 -0.0847 -0.0826
    1IPC    PO471655   6.521  19.578   2.564 -0.1534  0.1351 -0.4976
    1IPC    GL171656   6.678  19.340   2.905 -0.1777 -0.3414  0.2334
    1IPC    GL271657   6.727  19.442   3.112 -0.0050 -0.2001 -0.1118
    1IPC    C1B71658   6.869  19.488   3.603 -0.1445  0.3146 -0.1694
    1IPC    D2B71659   7.190  19.521   3.951  0.2229 -0.2155 -0.0323
    1IPC    D3B71660   7.149  19.394   4.412 -0.0539  0.0005  0.3077
    1IPC    C4B71661   7.093  19.693   4.701  0.0120  0.0454  0.2351
    1IPC    NC371662  14.186  22.693   2.939  0.0884  0.2057  0.0980
    1IPC    PO471663  14.642  22.753   2.858 -0.1384 -0.2530  0.4672
    1IPC    GL171664  14.695  22.622   3.259 -0.0845  0.2286 -0.1955
    1IPC    GL271665  14.774  22.398   3.491  0.1412 -0.0149 -0.0342
    1IPC    C1B71666  14.634  22.180   3.844 -0.2730 -0.0868  0.3623
    1IPC    D2B71667  14.690  22.378   4.176  0.0427 -0.3087 -0.0131
    1IPC    D3B71668  14.520  22.082   4.398 -0.0299  0.0326  0.2226
    1IPC    C4B71669  14.415  21.793   4.078  0.1480 -0.0384 -0.4040
    1IPC    NC371670  20.351   2.597   3.898 -0.0477  0.0953 -0.0679
    1IPC    PO471671  20.756   2.410   3.924 -0.0274 -0.1511 -0.0981
    1IPC    GL171672  21.003   2.596   4.318  0.5892  0.0396 -0.0726
    1IPC    GL271673  21.314   2.693   4.359  0.2213  0.1891  0.4930
    1IPC    C1B71674  21.695   2.507   4.516 -0.2213 -0.1479  0.0221
    1IPC    D2B71675  21.763   2.182   4.658 -0.1992  0.0159 -0.1077
    1IPC    D3B71676  22.106   2.205   4.746  0.2733  0.0064 -0.0475
    1IPC    C4B71677  22.166   1.875   5.104 -0.0878 -0.1454 -0.0191
    1IPC    NC371678  22.884   9.434   2.516 -0.0775 -0.0425 -0.2339
    1IPC    PO471679  23.182   9.050   2.473 -0.0598 -0.3127 -0.2573
    1IPC    GL171680  23.208   9.122   2.957  0.0498  0.0804  0.1926
    1IPC    GL271681  23.428   9.149   3.173 -0.3274 -0.0081  0.1631
    1IPC    C1B71682  23.721   9.281   3.433  0.0989 -0.3521 -0.3635
    1IPC    D2B71683  24.077   9.501   3.352  0.0886 -0.1483  0.1789
    1IPC    D3B71684  24.368   9.801   3.281  0.1096  0.3201 -0.1331
    1IPC    C4B71685  24.360  10.193   3.425  0.3437  0.1390 -0.2048
    1IPC    NC371686  27.291   8.636   2.603 -0.0390 -0.0134 -0.2501
    1IPC    PO471687  27.688   8.565   2.878 -0.0639 -0.6674 -0.2073
    1IPC    GL171688  27.414   8.859   3.025  0.0417 -0.2339  0.0496
    1IPC    GL271689  27.390   8.834   3.409  0.1553 -0.0418  0.0771
    1IPC    C1B71690  27.067   8.557   3.661 -0.2394 -0.0406  0.0790
    1IPC    D2B71691  26.645   8.558   3.793  0.1110 -0.2276  0.0436
    1IPC    D3B71692  26.786   8.355   4.060 -0.1171  0.0154  0.2234
    1IPC    C4B71693  26.727   8.342   4.621 -0.1440  0.2823  0.0680
    1IPC    NC371694  25.076   1.446   3.520  0.1695  0.2140  0.6171
    1IPC    PO471695  25.099   1.074   3.216  0.0633 -0.1667 -0.0546
    1IPC    GL171696  25.300   0.950   3.616 -0.1240  0.0332 -0.2389
    1IPC    GL271697  25.432   0.673   3.768 -0.0580 -0.0761  0.0211
    1IPC    C1B71698  25.716   0.663   4.151 -0.1830 -0.0572 -0.0514
    1IPC    D2B71699  25.731   0.844   4.545  0.1132  0.0571  0.1744
    1IPC    D3B71700  25.870   0.533   4.803 -0.1267  0.1362  0.0929
    1IPC    C4B71701  25.605   0.344   5.044 -0.3310 -0.3389 -0.3310
    1IPC    NC371702   7.828  13.722   2.752 -0.0736 -0.0921  0.1520
    1IPC    PO471703   8.107  14.084   2.805 -0.0627 -0.1495  0.0079
    1IPC    GL171704   7.736  14.224   3.046 -0.4434 -0.0095  0.0191
    1IPC    GL271705   7.596  14.266   3.289  0.0349 -0.1021  0.1835
    1IPC    C1B71706   7.471  14.262   3.754 -0.0319 -0.0679  0.0305
    1IPC    D2B71707   7.295  14.291   4.238 -0.1209 -0.0743  0.1297
    1IPC    D3B71708   7.315  14.043   4.647  0.2714  0.1371  0.0454
    1IPC    C4B71709   7.612  14.261   4.849 -0.2587  0.2257 -0.1758
    1IPC    NC371710  11.729  29.595   3.163  0.0881  0.2262  0.1830
    1IPC    PO471711  12.143  29.959   3.339 -0.0582 -0.3191  0.0162
    1IPC    GL171712  12.129  30.185   3.641 -0.0236  0.0145 -0.3114
    1IPC    GL271713  12.113  30.296   4.066  0.2010 -0.4823  0.0822
    1IPC    C1B71714  12.162  30.369   4.505 -0.0276 -0.0851  0.0385
    1IPC    D2B71715  12.114  30.086   4.848  0.4097  0.0431  0.0659
    1IPC    D3B71716  12.518  30.006   5.106 -0.1284 -0.0576 -0.1026
    1IPC    C4B71717  12.854  29.746   4.866  0.1511  0.4566  0.0995
    1IPC    NC371718  27.715  16.042   1.229 -0.1683  0.1480  0.0818
    1IPC    PO471719  28.097  15.956   1.537 -0.0404  0.2439 -0.0217
    1IPC    GL171720  27.905  15.820   1.956 -0.0035  0.3191  0.1056
    1IPC    GL271721  27.638  15.878   2.204  0.0464 -0.1809  0.1197
    1IPC    C1B71722  27.272  15.725   2.242  0.1132 -0.0094  0.1449
    1IPC    D2B71723  26.962  15.555   2.196  0.1028  0.0532  0.0387
    1IPC    D3B71724  26.815  15.200   1.941  0.0505 -0.1001  0.1111
    1IPC    C4B71725  27.140  15.008   1.763  0.1171 -0.0379 -0.1331
    1IPC    NC371726   6.657   5.110   3.424  0.1668 -0.1464 -0.0037
    1IPC    PO471727   6.636   4.750   3.251  0.1656  0.2790 -0.0032
    1IPC    GL171728   6.623   4.597   3.673  0.1856 -0.0608 -0.0510
    1IPC    GL271729   6.675   4.595   3.908 -0.0033  0.1894 -0.0528
    1IPC    C1B71730   6.746   4.769   4.342  0.0435  0.1770 -0.1700
    1IPC    D2B71731   6.698   4.581   4.777  0.1578  0.0579 -0.0427
    1IPC    D3B71732   6.490   4.803   5.217 -0.4082  0.0932 -0.0080
    1IPC    C4B71733   6.888   5.058   5.411  0.2635 -0.2499  0.0444
    1IPC    NC371734  17.692  16.512   2.841 -0.3206 -0.0096 -0.0654
    1IPC    PO471735  17.767  16.797   2.422 -0.1339  0.3904  0.3789
    1IPC    GL171736  17.913  16.998   2.788 -0.3721 -0.2727  0.0779
    1IPC    GL271737  18.068  17.084   3.034 -0.0899  0.3513 -0.1170
    1IPC    C1B71738  17.974  16.811   3.329  0.1093  0.0042  0.0147
    1IPC    D2B71739  17.974  16.562   3.652  0.0930 -0.2100 -0.0397
    1IPC    D3B71740  17.772  16.199   3.324  0.3081 -0.2704 -0.3294
    1IPC    C4B71741  17.430  15.889   3.487 -0.1097 -0.1740  0.1431
    1IPC    NC371742  21.805   5.289   3.204 -0.2877  0.1597  0.1689
    1IPC    PO471743  21.657   5.766   3.217  0.2721  0.0560 -0.3010
    1IPC    GL171744  21.298   5.910   3.475  0.2835 -0.0084  0.2005
    1IPC    GL271745  21.201   6.108   3.711  0.0011  0.0009 -0.0628
    1IPC    C1B71746  21.159   6.259   4.150 -0.2018  0.2871  0.2803
    1IPC    D2B71747  21.042   6.638   4.408  0.1012  0.0022 -0.0312
    1IPC    D3B71748  20.712   6.349   4.666  0.0337 -0.0300  0.1901
    1IPC    C4B71749  20.574   6.585   5.033 -0.0289 -0.1251  0.2128
    1IPC    NC371750  18.848  27.494   2.250 -0.0566  0.0693 -0.0415
    1IPC    PO471751  19.089  27.324   2.628  0.1617 -0.0766  0.1073
    1IPC    GL171752  19.220  27.273   3.102  0.1418  0.1810  0.1559
    1IPC    GL271753  19.324  27.324   3.417 -0.1279 -0.1861 -0.1697
    1IPC    C1B71754  19.328  27.508   3.821 -0.1579 -0.0495 -0.2448
    1IPC    D2B71755  19.246  27.876   3.973 -0.2492  0.1843 -0.1531
    1IPC    D3B71756  19.082  27.446   4.217 -0.3504  0.0514 -0.0942
    1IPC    C4B71757  19.351  27.055   4.364  0.1372  0.0482  0.0477
    1IPC    NC371758  20.844   5.955   2.530  0.1191  0.0445  0.1803
    1IPC    PO471759  20.653   6.243   2.859  0.0056  0.2782 -0.3130
    1IPC    GL171760  20.460   6.384   3.399  0.0816  0.0037 -0.0882
    1IPC    GL271761  20.078   6.434   3.616 -0.0613 -0.0577 -0.0255
    1IPC    C1B71762  20.077   6.599   4.050  0.2518  0.2766 -0.0091
    1IPC    D2B71763  19.963   6.807   4.374 -0.0447  0.1235  0.2618
    1IPC    D3B71764  19.732   6.421   4.382 -0.0514 -0.0275 -0.0869
    1IPC    C4B71765  19.472   6.227   4.656 -0.0673 -0.1177  0.4644
    1IPC    NC371766  26.128  27.490   3.384  0.1541  0.0385  0.2738
    1IPC    PO471767  26.493  27.511   3.447 -0.0139 -0.0630  0.0052
    1IPC    GL171768  26.294  27.875   3.616 -0.3699 -0.1888  0.1278
    1IPC    GL271769  26.171  28.228   3.718 -0.1432 -0.1604 -0.1407
    1IPC    C1B71770  26.211  28.606   4.023 -0.2074  0.1454 -0.1119
    1IPC    D2B71771  26.290  28.644   4.416  0.3780 -0.3037 -0.2662
    1IPC    D3B71772  26.223  28.333   4.718  0.0805  0.2374 -0.3526
    1IPC    C4B71773  26.005  27.923   4.848  0.0804 -0.1466  0.0090
    1IPC    NC371774  25.737  14.154   1.186 -0.0409 -0.0761  0.1579
    1IPC    PO471775  25.519  14.495   1.079  0.0443 -0.2896 -0.3522
    1IPC    GL171776  25.551  14.619   1.460  0.2914  0.2436 -0.0335
    1IPC    GL271777  25.427  14.880   1.586  0.0798  0.0199  0.2845
    1IPC    C1B71778  25.328  15.053   2.100 -0.0672 -0.1679 -0.0462
    1IPC    D2B71779  25.438  15.309   2.480  0.2524 -0.0321  0.3539
    1IPC    D3B71780  25.263  15.551   2.745  0.1869  0.1485  0.1004
    1IPC    C4B71781  25.503  15.787   3.072  0.0986 -0.0457 -0.1788
    1IPC    NC371782  17.525  20.102   2.743  0.0736  0.3560 -0.1994
    1IPC    PO471783  17.924  20.191   2.517 -0.0453  0.0790  0.1704
    1IPC    GL171784  17.907  20.290   3.030 -0.1142  0.2766 -0.1353
    1IPC    GL271785  17.944  20.357   3.373  0.0826 -0.0188  0.1081
    1IPC    C1B71786  18.220  20.288   3.601 -0.0873  0.1695 -0.1320
    1IPC    D2B71787  18.318  20.331   3.980 -0.2446 -0.0175 -0.0576
    1IPC    D3B71788  18.395  20.043   4.386 -0.4392  0.5295  0.0914
    1IPC    C4B71789  18.834  20.224   4.531  0.1928 -0.1407  0.0015
    1IPC    NC371790   2.195  24.005   2.427 -0.0634 -0.1124 -0.1543
    1IPC    PO471791   1.829  24.312   2.374  0.2158 -0.1272  0.1138
    1IPC    GL171792   1.802  24.697   2.494  0.0753 -0.4403  0.4207
    1IPC    GL271793   1.735  24.701   2.804 -0.0353 -0.0751 -0.0924
    1IPC    C1B71794   1.827  24.396   3.134 -0.0214 -0.0897 -0.1537
    1IPC    D2B71795   1.978  24.014   3.287 -0.3555 -0.3788 -0.0269
    1IPC    D3B71796   1.652  23.924   3.285 -0.1572 -0.4208 -0.1976
    1IPC    C4B71797   1.543  23.420   3.373 -0.0908 -0.0928  0.0224
    1IPC    NC371798  25.778  20.574   1.139  0.0410 -0.1910  0.1240
    1IPC    PO471799  25.706  20.123   1.179 -0.0112  0.0370 -0.0633
    1IPC    GL171800  25.540  19.921   1.500  0.0154  0.1595  0.1816
    1IPC    GL271801  25.651  19.841   1.781 -0.2087 -0.1441  0.2661
    1IPC    C1B71802  25.726  19.730   2.188 -0.2686 -0.0826 -0.1959
    1IPC    D2B71803  25.640  19.439   2.540  0.0396 -0.0052  0.0988
    1IPC    D3B71804  25.889  19.635   2.855 -0.1083  0.1220  0.2122
    1IPC    C4B71805  25.782  19.846   3.288 -0.1433  0.3155 -0.0953
    1IPC    NC371806  13.729   3.317   3.018  0.2093  0.0141  0.0647
    1IPC    PO471807  13.978   3.348   2.575 -0.1091 -0.2717  0.0082
    1IPC    GL171808  14.425   3.329   2.542  0.2652  0.1254 -0.0930
    1IPC    GL271809  14.643   3.219   2.689  0.2024  0.2834  0.2585
    1IPC    C1B71810  14.658   3.173   3.132  0.1383  0.1034  0.1776
    1IPC    D2B71811  14.916   3.537   3.391 -0.1462 -0.1027 -0.2435
    1IPC    D3B71812  14.993   3.206   3.553  0.0447  0.4738 -0.0327
    1IPC    C4B71813  15.031   2.859   3.432  0.1169  0.0320 -0.0638
    1IPC    NC371814   4.832   6.693   3.188 -0.1725  0.2622  0.1552
    1IPC    PO471815   4.799   7.014   3.159 -0.1229 -0.1735 -0.2936
    1IPC    GL171816   4.617   7.004   3.554 -0.0278  0.2824  0.1162
    1IPC    GL271817   4.495   7.087   3.850  0.0660  0.0626  0.1123
    1IPC    C1B71818   4.344   6.872   4.219  0.3142 -0.1851  0.0946
    1IPC    D2B71819   4.380   6.885   4.684  0.2101 -0.1079 -0.0403
    1IPC    D3B71820   4.017   6.656   4.919  0.4059 -0.2980  0.0871
    1IPC    C4B71821   4.203   6.454   5.317 -0.0876  0.4537  0.1973
    1IPC    NC371822  15.120   7.927   3.199  0.2150 -0.0099  0.3065
    1IPC    PO471823  14.906   7.518   3.269 -0.0712  0.0719  0.1214
    1IPC    GL171824  14.632   7.766   3.437  0.1454 -0.4060 -0.3607
    1IPC    GL271825  14.254   7.899   3.450 -0.1925  0.2885 -0.0872
    1IPC    C1B71826  13.870   7.942   3.654  0.2369  0.1846 -0.0433
    1IPC    D2B71827  13.360   8.074   3.777 -0.1764  0.0650 -0.4011
    1IPC    D3B71828  13.225   8.001   4.224  0.1997  0.1628  0.1296
    1IPC    C4B71829  13.409   8.186   4.625 -0.1304  0.0861 -0.1351
    1IPC    NC371830  18.171   9.490   2.165  0.1238  0.0904 -0.2173
    1IPC    PO471831  18.194   9.771   2.532  0.0231 -0.1054 -0.3717
    1IPC    GL171832  18.387   9.880   2.960 -0.2345  0.0399  0.4253
    1IPC    GL271833  18.361  10.084   3.294 -0.1079  0.2609  0.1181
    1IPC    C1B71834  18.408  10.047   3.786  0.0292  0.0236 -0.3433
    1IPC    D2B71835  18.201  10.216   4.198 -0.0065 -0.1325  0.3209
    1IPC    D3B71836  18.364  10.578   3.992  0.2701 -0.1743  0.1052
    1IPC    C4B71837  18.537  10.957   4.084 -0.2252 -0.1880 -0.2985
    1IPC    NC371838  18.688  20.723   2.833  0.0214  0.1917  0.1475
    1IPC    PO471839  19.105  20.525   3.063 -0.0858 -0.1940  0.1613
    1IPC    GL171840  18.833  20.742   3.305 -0.1073  0.0736 -0.1479
    1IPC    GL271841  18.743  20.589   3.511  0.2057  0.0547  0.4587
    1IPC    C1B71842  18.845  20.163   3.631 -0.0515 -0.4055 -0.2024
    1IPC    D2B71843  18.703  19.924   3.912  0.1187  0.1336  0.4791
    1IPC    D3B71844  18.814  19.699   4.301  0.4915  0.1572  0.0991
    1IPC    C4B71845  18.691  19.237   4.508  0.1237 -0.0895  0.1472
    1IPC    NC371846  13.571  26.190   2.245 -0.1837  0.0478 -0.0148
    1IPC    PO471847  13.124  26.168   2.533  0.1758 -0.2386  0.2010
    1IPC    GL171848  13.282  26.016   2.961  0.3131  0.0920  0.0865
    1IPC    GL271849  13.507  26.128   3.194 -0.1190 -0.0525  0.0576
    1IPC    C1B71850  13.678  26.401   3.520 -0.2911 -0.0879 -0.2576
    1IPC    D2B71851  13.875  26.598   3.810  0.0636  0.0169  0.0971
    1IPC    D3B71852  13.939  26.196   4.027 -0.2396 -0.1617  0.4172
    1IPC    C4B71853  13.634  25.960   4.123 -0.0681 -0.2156 -0.0606
    1IPC    NC371854  26.137  15.053   1.073 -0.0916 -0.3663 -0.2384
    1IPC    PO471855  26.476  14.760   1.103  0.1347  0.0776 -0.1694
    1IPC    GL171856  26.417  14.795   1.483 -0.1399  0.0592  0.2318
    1IPC    GL271857  26.408  14.904   1.781  0.0593 -0.1008 -0.2822
    1IPC    C1B71858  26.314  15.185   2.162  0.2595  0.0708  0.0542
    1IPC    D2B71859  26.017  15.106   2.475  0.2540 -0.0818  0.1318
    1IPC    D3B71860  25.753  14.937   2.712  0.2343 -0.0223 -0.1219
    1IPC    C4B71861  25.894  15.011   3.126 -0.0874 -0.0568  0.0110
    1IPC    NC371862  20.538   7.594   2.929 -0.2561  0.4119  0.1675
    1IPC    PO471863  20.721   8.002   3.274 -0.0551  0.2223  0.4176
    1IPC    GL171864  21.012   7.847   3.567 -0.0264  0.0550  0.0995
    1IPC    GL271865  21.186   7.856   3.774  0.4344  0.1859  0.1591
    1IPC    C1B71866  21.349   8.183   4.028  0.0107  0.0774 -0.0376
    1IPC    D2B71867  21.150   8.454   4.310 -0.0414  0.2641 -0.2370
    1IPC    D3B71868  21.165   8.524   4.662 -0.4013  0.1705  0.2416
    1IPC    C4B71869  21.038   8.959   4.877  0.0741  0.1913 -0.5095
    1IPC    NC371870  17.111   0.890   3.849 -0.1616  0.1279  0.0136
    1IPC    PO471871  17.566   0.921   3.728  0.0070  0.0777 -0.4982
    1IPC    GL171872  17.804   1.064   3.918 -0.2833  0.0517 -0.3691
    1IPC    GL271873  17.994   0.929   4.078 -0.0072 -0.0317 -0.0501
    1IPC    C1B71874  18.148   0.971   4.442  0.2289 -0.3660 -0.0642
    1IPC    D2B71875  18.467   0.894   4.745 -0.1036  0.2150 -0.2172
    1IPC    D3B71876  18.902   0.802   4.871  0.0459 -0.2141 -0.2215
    1IPC    C4B71877  18.931   1.198   5.094  0.0872  0.1217  0.0898
    1IPC    NC371878  12.306  13.988   2.262  0.2282  0.3479  0.2346
    1IPC    PO471879  12.050  14.189   2.626  0.1590 -0.0491  0.1152
    1IPC    GL171880  11.688  14.118   2.833 -0.2626  0.1709 -0.2273
    1IPC    GL271881  11.365  14.224   2.907  0.2042  0.0415 -0.0036
    1IPC    C1B71882  11.251  14.516   3.166 -0.3649 -0.0033  0.1964
    1IPC    D2B71883  11.407  14.688   3.546 -0.0575 -0.0692  0.0968
    1IPC    D3B71884  11.197  15.054   3.628  0.2150 -0.0073  0.0513
    1IPC    C4B71885  10.943  15.232   3.366 -0.1537 -0.2888  0.1504
    1IPC    NC371886   3.268  26.037   2.461  0.0121  0.0280 -0.2718
    1IPC    PO471887   3.077  26.095   2.826 -0.0602  0.2549  0.2481
    1IPC    GL171888   3.091  26.084   3.232 -0.2516  0.1124 -0.0153
    1IPC    GL271889   3.009  26.205   3.502 -0.3537 -0.0988  0.5523
    1IPC    C1B71890   2.909  26.266   3.919  0.0336  0.2361 -0.0097
    1IPC    D2B71891   3.134  26.167   4.341  0.1890  0.1729 -0.2243
    1IPC    D3B71892   3.604  26.387   4.379  0.0394 -0.0236 -0.1098
    1IPC    C4B71893   3.696  26.721   4.699  0.0318  0.0614 -0.3013
    1IPC    NC371894  19.823  10.728   1.788  0.1733  0.0915  0.1473
    1IPC    PO471895  19.571  10.912   2.092 -0.0052  0.1628 -0.0125
    1IPC    GL171896  19.721  10.746   2.528  0.2847  0.1364  0.0584
    1IPC    GL271897  19.685  10.838   2.878 -0.1049  0.2264 -0.0877
    1IPC    C1B71898  19.760  11.059   3.262  0.0166 -0.2311 -0.1617
    1IPC    D2B71899  19.773  11.161   3.683  0.1763 -0.0246 -0.1821
    1IPC    D3B71900  19.971  11.014   4.051 -0.0835  0.2320  0.4331
    1IPC    C4B71901  20.360  11.296   4.172 -0.1959 -0.1770 -0.1688
    1IPC    NC371902  19.439  27.720   2.924  0.1848 -0.0755 -0.0856
    1IPC    PO471903  19.727  27.530   3.192  0.1292 -0.0154  0.0167
    1IPC    GL171904  19.884  27.753   3.521 -0.3187  0.0031  0.0815
    1IPC    GL271905  19.680  27.818   3.798  0.0159 -0.0045 -0.1723
    1IPC    C1B71906  19.731  27.947   4.207 -0.2934  0.0028  0.1192
    1IPC    D2B71907  19.396  28.018   4.470 -0.4186 -0.1783 -0.1453
    1IPC    D3B71908  18.981  27.950   4.617  0.2126 -0.4513  0.3974
    1IPC    C4B71909  18.748  27.575   4.559  0.1261 -0.0507 -0.0194
    1IPC    NC371910   9.239  29.004   3.166 -0.4330 -0.0712 -0.0932
    1IPC    PO471911   9.160  29.361   3.365  0.0738  0.1179  0.1445
    1IPC    GL171912   8.985  29.398   3.847  0.0039 -0.2491  0.1093
    1IPC    GL271913   8.885  29.326   4.073 -0.1748  0.4803 -0.0783
    1IPC    C1B71914   8.524  29.386   4.262  0.0656  0.0472  0.0409
    1IPC    D2B71915   8.288  29.093   4.571  0.0640  0.0383 -0.0971
    1IPC    D3B71916   8.524  29.393   4.742  0.0870 -0.3158 -0.2480
    1IPC    C4B71917   8.686  29.485   5.227 -0.0380  0.1362  0.4182
    1IPC    NC371918  22.917   1.249   3.012  0.1204  0.1699 -0.0522
    1IPC    PO471919  23.221   0.987   3.222  0.0931 -0.0429 -0.2639
    1IPC    GL171920  23.288   1.139   3.619 -0.0444  0.0750  0.2975
    1IPC    GL271921  23.410   1.204   3.851 -0.0098 -0.0362  0.3587
    1IPC    C1B71922  23.537   1.421   4.209 -0.2778 -0.1023 -0.3082
    1IPC    D2B71923  23.471   1.231   4.690 -0.0225 -0.1175  0.4378
    1IPC    D3B71924  23.814   1.523   4.721 -0.1833 -0.1497 -0.0771
    1IPC    C4B71925  23.755   1.738   5.107 -0.1307 -0.2277 -0.1483
    1IPC    NC371926  22.009  17.054   1.488 -0.0285  0.2433 -0.0735
    1IPC    PO471927  22.446  17.177   1.898 -0.2335  0.0931  0.0334
    1IPC    GL171928  22.403  17.521   2.199 -0.3526 -0.1043 -0.1325
    1IPC    GL271929  22.586  17.769   2.545  0.0404 -0.0273  0.0249
    1IPC    C1B71930  22.501  17.827   2.949  0.2680  0.0725 -0.3139
    1IPC    D2B71931  22.768  17.514   3.191  0.2575 -0.2050 -0.2065
    1IPC    D3B71932  23.254  17.490   3.281  0.0694 -0.1980 -0.1405
    1IPC    C4B71933  23.508  17.553   2.945  0.0808  0.0972  0.0200
    1IPC    NC371934  21.578  15.817   1.347 -0.1007  0.2604  0.0622
    1IPC    PO471935  21.983  15.972   1.578 -0.0257  0.0495  0.2361
    1IPC    GL171936  22.361  16.164   1.880  0.3025 -0.4721 -0.0318
    1IPC    GL271937  22.513  16.472   2.067 -0.1138 -0.2380 -0.3414
    1IPC    C1B71938  22.680  16.457   2.486  0.3010 -0.0091 -0.0388
    1IPC    D2B71939  23.042  16.024   2.532 -0.0267  0.2462  0.1355
    1IPC    D3B71940  23.030  15.739   2.990 -0.1351 -0.2641  0.1873
    1IPC    C4B71941  22.835  15.907   3.387 -0.0019 -0.0652 -0.0984
    1IPC    NC371942  21.252  18.573   1.876  0.1551 -0.0556  0.0793
    1IPC    PO471943  21.511  18.717   2.282  0.0086  0.0085  0.0619
    1IPC    GL171944  21.717  18.391   2.426  0.1538 -0.0966 -0.0452
    1IPC    GL271945  21.781  18.455   2.628  0.1900 -0.2725 -0.4004
    1IPC    C1B71946  21.933  18.471   2.976 -0.1811 -0.1490 -0.2897
    1IPC    D2B71947  22.143  18.625   3.348 -0.3564  0.0069  0.3151
    1IPC    D3B71948  21.954  18.962   3.583  0.1413 -0.2696  0.0636
    1IPC    C4B71949  21.537  19.168   3.558 -0.4368 -0.3215  0.0058
    1IPC    NC371950  25.631   6.371   3.134  0.0026  0.0418 -0.0187
    1IPC    PO471951  25.300   6.076   3.165  0.1216  0.2962 -0.1292
    1IPC    GL171952  25.113   6.529   3.262  0.0157  0.1521  0.1242
    1IPC    GL271953  25.068   6.696   3.574 -0.0023  0.2094  0.0938
    1IPC    C1B71954  25.171   6.606   3.980 -0.1439 -0.0836  0.2851
    1IPC    D2B71955  24.972   6.832   4.403  0.0767  0.2540 -0.1519
    1IPC    D3B71956  24.526   6.845   4.353  0.1491  0.0000  0.0560
    1IPC    C4B71957  24.240   6.703   3.954  0.0764  0.1536 -0.2052
    1IPC    NC371958   7.099  27.329   2.787 -0.0246  0.0369  0.1027
    1IPC    PO471959   6.750  27.213   2.848 -0.1181  0.2100 -0.1496
    1IPC    GL171960   6.497  27.352   3.233  0.0380 -0.0176  0.0012
    1IPC    GL271961   6.524  27.528   3.449  0.1121  0.0966  0.3376
    1IPC    C1B71962   6.686  27.425   3.959 -0.0787 -0.0251  0.2279
    1IPC    D2B71963   6.715  27.657   4.343 -0.0002  0.1472 -0.1323
    1IPC    D3B71964   6.763  27.698   4.845  0.0224  0.1079 -0.1113
    1IPC    C4B71965   6.753  28.129   4.977  0.0282 -0.2030 -0.3077
    1IPC    NC371966  16.813  19.775   2.010 -0.0201  0.1620 -0.0579
    1IPC    PO471967  17.131  19.936   2.388 -0.1859 -0.0010 -0.2422
    1IPC    GL171968  17.035  19.948   2.808 -0.2858  0.0382 -0.1243
    1IPC    GL271969  17.177  19.942   3.072  0.1902  0.0141  0.1441
    1IPC    C1B71970  17.210  19.982   3.533 -0.0802 -0.2263 -0.0047
    1IPC    D2B71971  17.377  20.252   3.900 -0.1456 -0.2285  0.2721
    1IPC    D3B71972  17.470  19.864   4.165  0.1273  0.0156  0.0092
    1IPC    C4B71973  17.831  19.895   4.493 -0.2667  0.0709  0.0025
    1IPC    NC371974  16.626   4.748   3.157 -0.3539  0.0920  0.1833
    1IPC    PO471975  16.892   4.370   3.152 -0.0895 -0.0244  0.1023
    1IPC    GL171976  16.730   4.171   3.592 -0.0062 -0.4568  0.2431
    1IPC    GL271977  16.768   3.915   3.876 -0.0375  0.0541 -0.1486
    1IPC    C1B71978  16.744   3.646   4.253 -0.1068 -0.2792 -0.0979
    1IPC    D2B71979  16.944   3.747   4.672  0.1297  0.1109 -0.0880
    1IPC    D3B71980  16.501   3.679   4.702 -0.0316  0.1426  0.0990
    1IPC    C4B71981  16.314   3.151   4.592  0.0152  0.0575  0.1099
    1IPC    NC371982   1.501   3.771   3.149 -0.0053  0.1355  0.1561
    1IPC    PO471983   1.838   3.996   2.951 -0.0308  0.0374 -0.2507
    1IPC    GL171984   1.819   3.997   3.459  0.0472 -0.1883  0.0753
    1IPC    GL271985   2.150   3.952   3.502  0.0186  0.3355  0.1688
    1IPC    C1B71986   2.538   3.926   3.652 -0.0041  0.0146  0.0079
    1IPC    D2B71987   2.725   4.033   3.847  0.1341  0.0353  0.0629
    1IPC    D3B71988   2.637   3.739   4.101  0.1772  0.3370 -0.0911
    1IPC    C4B71989   2.943   3.523   4.435  0.0157  0.0779 -0.3380
    1IPC    NC371990  19.795  26.503   3.264 -0.1221  0.0744 -0.1249
    1IPC    PO471991  20.022  26.181   3.555  0.1174  0.0425 -0.1816
    1IPC    GL171992  19.878  26.317   3.966  0.3236 -0.2262  0.1961
    1IPC    GL271993  19.715  26.092   4.268 -0.0237  0.0810 -0.0432
    1IPC    C1B71994  19.681  25.820   4.639 -0.1661  0.1439  0.1722
    1IPC    D2B71995  19.834  25.745   5.024  0.5085  0.1806 -0.0796
    1IPC    D3B71996  19.851  26.191   5.304  0.1443  0.0786  0.0373
    1IPC    C4B71997  19.533  26.289   5.531  0.0628  0.0582 -0.0563
    1IPC    NC371998   1.010   6.455   2.881 -0.2165 -0.0884  0.0362
    1IPC    PO471999   0.717   6.674   3.073  0.0666  0.3328  0.1513
    1IPC    GL172000   1.031   6.513   3.406  0.2869 -0.1840 -0.0702
    1IPC    GL272001   1.124   6.518   3.810 -0.2338 -0.1186  0.1039
    1IPC    C1B72002   1.141   6.517   4.207 -0.2173 -0.0162 -0.2990
    1IPC    D2B72003   0.906   6.737   4.546 -0.2633 -0.0715 -0.1069
    1IPC    D3B72004   1.063   6.707   4.971 -0.3944 -0.0334  0.1883
    1IPC    C4B72005   1.219   7.085   5.030 -0.0573  0.0380 -0.1394
    1IPC    NC372006  10.413  28.340   3.471  0.1669 -0.1481 -0.1534
    1IPC    PO472007  10.478  28.640   3.789 -0.0797 -0.1778  0.3229
    1IPC    GL172008  10.353  28.610   4.171 -0.4282  0.2779 -0.0166
    1IPC    GL272009  10.056  28.676   4.356  0.3732  0.0391  0.0054
    1IPC    C1B72010   9.694  28.759   4.682 -0.0992  0.1005 -0.0140
    1IPC    D2B72011   9.487  28.837   5.092 -0.0136 -0.0797  0.1545
    1IPC    D3B72012   9.617  29.279   5.000  0.2276  0.1079  0.0067
    1IPC    C4B72013   9.656  29.592   4.587 -0.3688  0.1597 -0.2897
    1IPC    NC372014  14.837   4.594   3.275 -0.1927  0.2426 -0.2927
    1IPC    PO472015  14.472   4.352   3.189  0.0376 -0.0590 -0.1072
    1IPC    GL172016  14.170   4.099   3.500  0.3460 -0.0608 -0.4217
    1IPC    GL272017  14.084   3.744   3.494  0.1947 -0.2528  0.0300
    1IPC    C1B72018  14.079   3.217   3.485 -0.2638 -0.3933 -0.0948
    1IPC    D2B72019  14.050   2.781   3.505  0.2900  0.1246 -0.1395
    1IPC    D3B72020  14.119   2.711   3.943 -0.3068  0.0071 -0.3082
    1IPC    C4B72021  14.409   3.004   4.016  0.0953 -0.1163  0.0572
    1IPC    NC372022  22.055   6.176   3.638  0.0745 -0.1202 -0.1374
    1IPC    PO472023  21.748   5.913   3.720 -0.1360 -0.0222  0.1836
    1IPC    GL172024  21.663   6.085   4.039  0.1016  0.2409 -0.0339
    1IPC    GL272025  21.748   6.267   4.395 -0.2666 -0.1374 -0.1301
    1IPC    C1B72026  21.859   6.195   4.872 -0.1374 -0.0083  0.2363
    1IPC    D2B72027  21.726   5.913   5.207 -0.3878  0.0164 -0.1051
    1IPC    D3B72028  22.017   5.742   5.289 -0.1425 -0.3432  0.1281
    1IPC    C4B72029  22.079   5.301   5.472 -0.2359 -0.1477 -0.0538
    1IPC    NC372030  26.574   2.441   2.987  0.2580 -0.0680 -0.3213
    1IPC    PO472031  27.027   2.532   2.920 -0.0592  0.2525  0.1547
    1IPC    GL172032  26.863   2.874   3.058  0.1254 -0.1582 -0.1617
    1IPC    GL272033  26.800   3.012   3.372  0.1181 -0.3488 -0.0957
    1IPC    C1B72034  26.409   3.091   3.630 -0.1712  0.0381  0.2509
    1IPC    D2B72035  26.068   2.950   3.661  0.0738  0.1729  0.0096
    1IPC    D3B72036  26.090   3.183   3.211  0.2120  0.1688  0.1347
    1IPC    C4B72037  26.483   3.287   3.031  0.1586  0.1488 -0.1410
    1IPC    NC372038  15.333   9.491   2.408 -0.0468  0.2600 -0.1637
    1IPC    PO472039  15.355   9.541   2.875  0.1112 -0.1313  0.1463
    1IPC    GL172040  15.295   9.607   3.250 -0.1748 -0.3213 -0.2907
    1IPC    GL272041  15.271   9.750   3.538  0.2136  0.0531  0.1952
    1IPC    C1B72042  15.125   9.990   3.919  0.0396 -0.0319 -0.0977
    1IPC    D2B72043  14.662  10.091   4.052  0.0502  0.0264  0.0812
    1IPC    D3B72044  14.246  10.014   4.342  0.3019  0.0847  0.0979
    1IPC    C4B72045  14.153  10.279   4.713 -0.2052 -0.0826  0.1161
    1IPC    NC372046   6.903   8.169   3.211 -0.0229 -0.1368 -0.1134
    1IPC    PO472047   6.649   8.397   3.060  0.0008  0.0542 -0.0891
    1IPC    GL172048   6.746   8.732   3.371 -0.0036 -0.0104  0.3354
    1IPC    GL272049   6.689   8.608   3.609 -0.1314 -0.0336 -0.2366
    1IPC    C1B72050   6.684   8.401   4.061  0.2685  0.1986  0.4060
    1IPC    D2B72051   6.374   8.238   4.369  0.1297 -0.0702 -0.2552
    1IPC    D3B72052   6.661   8.368   4.687 -0.0581 -0.4268 -0.0122
    1IPC    C4B72053   6.981   8.685   4.843 -0.2044  0.0537  0.1753
    1IPC    NC372054   2.449   3.832   2.918  0.0674 -0.1763 -0.1408
    1IPC    PO472055   2.365   3.435   2.921 -0.0217  0.1718  0.2232
    1IPC    GL172056   2.420   3.478   3.406  0.4358 -0.1813  0.2079
    1IPC    GL272057   2.523   3.417   3.756  0.0281 -0.1394  0.0252
    1IPC    C1B72058   2.329   3.311   4.205 -0.1328  0.0517  0.1681
    1IPC    D2B72059   2.253   3.136   4.632  0.2483 -0.1297 -0.1776
    1IPC    D3B72060   2.392   3.515   4.687 -0.0636  0.2299 -0.0685
    1IPC    C4B72061   2.023   3.689   4.975  0.1055  0.0899 -0.0105
    1IPC    NC372062  26.777  17.451   1.161 -0.2318 -0.2706 -0.2272
    1IPC    PO472063  27.091  17.259   1.282  0.2387  0.0592 -0.1252
    1IPC    GL172064  27.430  17.278   1.571  0.1613 -0.3362 -0.3614
    1IPC    GL272065  27.404  17.300   1.862  0.2020 -0.2733 -0.0003
    1IPC    C1B72066  27.124  17.282   2.212 -0.1850 -0.1121  0.4030
    1IPC    D2B72067  27.013  17.362   2.667 -0.1573  0.1919 -0.0495
    1IPC    D3B72068  27.192  16.891   2.556 -0.1130 -0.2428 -0.0133
    1IPC    C4B72069  27.209  16.778   2.134  0.3379  0.0334 -0.1052
    1IPC    NC372070   4.067  28.449   2.914  0.0036  0.0095  0.3714
    1IPC    PO472071   4.484  28.258   2.741  0.2332  0.1420 -0.4020
    1IPC    GL172072   4.749  28.234   3.085 -0.0623  0.0735 -0.0381
    1IPC    GL272073   4.772  28.015   3.361 -0.0582  0.0221 -0.0551
    1IPC    C1B72074   4.620  27.842   3.742  0.0211 -0.0956 -0.1334
    1IPC    D2B72075   4.353  27.598   4.053 -0.1565 -0.0663  0.0814
    1IPC    D3B72076   4.366  27.114   4.045  0.1232 -0.0152  0.4980
    1IPC    C4B72077   4.723  26.850   3.769 -0.2699  0.1447 -0.2578
    1IPC    NC372078   7.051  24.662   2.451 -0.0606  0.0532  0.3371
    1IPC    PO472079   6.696  24.695   2.690 -0.0294 -0.0806 -0.0702
    1IPC    GL172080   6.646  24.371   2.949 -0.1089 -0.3935  0.1619
    1IPC    GL272081   6.533  24.199   3.175  0.0495  0.1357  0.0440
    1IPC    C1B72082   6.628  23.969   3.618  0.1730  0.0506 -0.2127
    1IPC    D2B72083   6.835  23.701   3.954 -0.1009  0.0121 -0.3919
    1IPC    D3B72084   6.785  24.131   4.194 -0.2857 -0.0559  0.0791
    1IPC    C4B72085   6.855  24.468   3.978  0.0943  0.2988  0.1163
    1IPC    NC372086  13.504   3.097   2.602 -0.0472  0.1758 -0.3598
    1IPC    PO472087  13.187   3.222   3.080 -0.2300  0.1206  0.0454
    1IPC    GL172088  12.993   3.281   3.418 -0.0081  0.0882 -0.2632
    1IPC    GL272089  13.008   3.193   3.612  0.0773 -0.0166  0.2016
    1IPC    C1B72090  13.038   3.318   3.992  0.2028 -0.1649  0.1952
    1IPC    D2B72091  13.143   3.738   4.144 -0.0895 -0.0486 -0.2182
    1IPC    D3B72092  13.312   3.612   4.637  0.1028  0.0878 -0.1118
    1IPC    C4B72093  13.239   3.796   5.081 -0.1566  0.0506  0.3530
    1IPC    NC372094  24.784   1.974   2.906  0.3546 -0.2132 -0.0029
    1IPC    PO472095  25.118   1.845   3.202 -0.3332 -0.1426 -0.0417
    1IPC    GL172096  25.279   1.900   3.589 -0.0824 -0.1258 -0.2865
    1IPC    GL272097  25.382   2.016   3.834 -0.0524 -0.0119 -0.3528
    1IPC    C1B72098  25.476   1.940   4.270 -0.4209  0.3187  0.2538
    1IPC    D2B72099  25.756   1.741   4.531 -0.0902 -0.3313  0.1131
    1IPC    D3B72100  25.466   1.527   4.813  0.3760  0.2327 -0.1334
    1IPC    C4B72101  25.269   1.193   4.637  0.1724  0.5041 -0.0061
    1IPC    NC372102  10.821   2.042   2.923  0.5155  0.0629  0.3213
    1IPC    PO472103  10.648   1.814   3.295  0.0754 -0.0240  0.1634
    1IPC    GL172104  10.727   2.087   3.727 -0.2034  0.0155 -0.1285
    1IPC    GL272105  10.550   2.107   3.930  0.3196 -0.1365 -0.2471
    1IPC    C1B72106  10.545   2.119   4.457 -0.1106 -0.0264  0.1976
    1IPC    D2B72107  10.531   2.284   4.913 -0.1197  0.3363  0.0561
    1IPC    D3B72108  10.495   2.383   5.251  0.0770 -0.1594  0.2322
    1IPC    C4B72109  10.811   2.481   5.447 -0.1875  0.1229  0.1717
    1IPC    NC372110  15.769   4.260   3.075 -0.2686  0.3198  0.0607
    1IPC    PO472111  16.150   4.546   2.944 -0.1827 -0.1054  0.2261
    1IPC    GL172112  15.990   4.513   3.457 -0.3693 -0.0989 -0.1369
    1IPC    GL272113  16.219   4.486   3.725  0.0006  0.0164  0.0257
    1IPC    C1B72114  16.497   4.383   3.973  0.1539  0.0686  0.2470
    1IPC    D2B72115  16.807   4.589   4.220  0.1668  0.3030  0.1818
    1IPC    D3B72116  16.691   4.183   4.474 -0.3126 -0.0323  0.1903
    1IPC    C4B72117  16.961   4.256   4.807 -0.2969  0.1796  0.1515
    1IPC    NC372118  26.345   2.155   2.308 -0.2505 -0.0032 -0.4254
    1IPC    PO472119  26.221   2.148   2.786 -0.0219  0.0797 -0.1563
    1IPC    GL172120  26.128   2.281   3.246 -0.4400 -0.2153  0.3494
    1IPC    GL272121  26.186   2.229   3.586 -0.1124 -0.2055 -0.2179
    1IPC    C1B72122  26.526   2.218   3.913 -0.3371 -0.1942  0.1759
    1IPC    D2B72123  26.835   2.341   4.051  0.1954 -0.1160 -0.1229
    1IPC    D3B72124  27.006   2.375   4.520 -0.1241  0.1110 -0.2448
    1IPC    C4B72125  27.183   2.813   4.668 -0.0110  0.1398 -0.0492
    1IPC    NC372126   8.265  12.339   2.348  0.0469 -0.1667  0.2465
    1IPC    PO472127   8.412  12.644   2.564  0.1046 -0.0496 -0.0063
    1IPC    GL172128   8.301  12.621   2.927 -0.0015 -0.4065  0.1230
    1IPC    GL272129   8.542  12.587   3.315  0.0498  0.0423  0.0074
    1IPC    C1B72130   8.474  12.662   3.700  0.1383  0.0901  0.1519
    1IPC    D2B72131   8.461  12.685   4.153 -0.1791 -0.0135  0.0882
    1IPC    D3B72132   8.189  12.603   4.555 -0.2465  0.3937  0.1098
    1IPC    C4B72133   8.296  12.258   4.821  0.0797  0.0234  0.0426
    1IPC    NC372134  22.631   0.737   3.167  0.1465 -0.1030 -0.2002
    1IPC    PO472135  22.280   1.083   3.234  0.2435 -0.3124  0.2071
    1IPC    GL172136  22.275   1.218   3.713  0.0127 -0.0014  0.0320
    1IPC    GL272137  22.378   1.072   3.976  0.1684  0.0382 -0.1026
    1IPC    C1B72138  22.295   1.040   4.406  0.0498 -0.0893  0.1120
    1IPC    D2B72139  22.147   0.849   4.883  0.3210 -0.0702 -0.2668
    1IPC    D3B72140  22.488   1.210   4.837 -0.1400 -0.1021 -0.3193
    1IPC    C4B72141  22.610   1.455   5.295  0.0832 -0.1565  0.1863
    1IPC    NC372142  19.449   8.105   3.044  0.0055  0.0299  0.0886
    1IPC    PO472143  19.909   8.204   3.160  0.3512 -0.2137 -0.0731
    1IPC    GL172144  20.181   7.898   3.414 -0.0583  0.1486 -0.1043
    1IPC    GL272145  20.017   7.693   3.681 -0.1535  0.0414 -0.2054
    1IPC    C1B72146  19.734   7.750   3.993  0.0997  0.3917  0.2162
    1IPC    D2B72147  19.826   7.977   4.362 -0.3029 -0.3312  0.1075
    1IPC    D3B72148  19.796   8.351   4.734  0.0314  0.0164 -0.1310
    1IPC    C4B72149  19.820   8.168   5.083 -0.0569  0.0178 -0.1553
    1IPC    NC372150  21.877  15.532   1.808  0.1194 -0.0519  0.3687
    1IPC    PO472151  22.141  15.180   1.778 -0.2700 -0.0203  0.3023
    1IPC    GL172152  22.237  15.155   2.192  0.0764 -0.1874 -0.1283
    1IPC    GL272153  22.225  15.334   2.477 -0.0055 -0.2942 -0.1141
    1IPC    C1B72154  22.338  15.602   2.820 -0.2853  0.0570 -0.2580
    1IPC    D2B72155  22.583  15.527   3.195 -0.0912 -0.1824 -0.1628
    1IPC    D3B72156  22.503  15.605   3.721 -0.0175 -0.1211  0.2001
    1IPC    C4B72157  22.403  16.052   3.788 -0.2714  0.5334 -0.3750
    1IPC    NC372158  12.371  10.725   2.305  0.1996  0.4215 -0.0919
    1IPC    PO472159  12.236  10.920   2.658  0.0154  0.0437  0.0100
    1IPC    GL172160  11.913  10.777   3.007 -0.1409 -0.1446  0.3129
    1IPC    GL272161  11.873  10.735   3.311 -0.0085 -0.0799 -0.2928
    1IPC    C1B72162  11.991  10.664   3.681  0.0239 -0.1070  0.0482
    1IPC    D2B72163  12.121  10.229   3.804  0.3825 -0.0978 -0.1064
    1IPC    D3B72164  11.977   9.826   3.706 -0.2432  0.2444  0.1326
    1IPC    C4B72165  11.727   9.513   4.015  0.0100 -0.0794  0.1065
    1IPC    NC372166  28.977  29.042   2.716  0.2271 -0.1636 -0.0037
    1IPC    PO472167  28.744  28.786   3.120 -0.2190  0.0863 -0.0453
    1IPC    GL172168  29.154  28.937   3.211 -0.0582  0.0491  0.0297
    1IPC    GL272169  29.357  28.970   3.436 -0.0814  0.5227 -0.1660
    1IPC    C1B72170  29.592  28.678   3.783  0.3175 -0.0106 -0.2907
    1IPC    D2B72171  29.989  28.630   4.125  0.1177  0.0162 -0.0572
    1IPC    D3B72172  29.958  28.840   4.586 -0.0872 -0.0392  0.0399
    1IPC    C4B72173  29.815  29.262   4.598 -0.2262  0.1354 -0.0484
    1IPC    NC372174   6.179  28.089   2.349  0.0282  0.1797 -0.3456
    1IPC    PO472175   6.069  27.790   2.726 -0.0853 -0.2839 -0.1463
    1IPC    GL172176   6.085  27.548   3.138  0.2322  0.0964 -0.2198
    1IPC    GL272177   5.958  27.546   3.477 -0.1745  0.0280  0.3744
    1IPC    C1B72178   6.133  27.571   3.859  0.3286  0.2820 -0.0333
    1IPC    D2B72179   5.931  27.662   4.232  0.0364 -0.0044  0.1359
    1IPC    D3B72180   5.505  27.500   4.425  0.0258  0.1787 -0.1938
    1IPC    C4B72181   5.456  27.323   4.799 -0.5639 -0.1865 -0.0711
    1IPC    NC372182  14.431  18.846   3.013  0.2109 -0.0874 -0.1306
    1IPC    PO472183  14.825  18.631   2.874 -0.0582 -0.0579 -0.1400
    1IPC    GL172184  15.197  18.400   3.118 -0.2899 -0.0942  0.0398
    1IPC    GL272185  15.372  18.224   3.355  0.0769 -0.2131 -0.0308
    1IPC    C1B72186  15.397  18.141   3.817  0.0200 -0.0183  0.2484
    1IPC    D2B72187  15.414  18.394   4.223 -0.1123  0.0959 -0.2910
    1IPC    D3B72188  15.618  18.101   4.380  0.1249 -0.1078 -0.1215
    1IPC    C4B72189  16.012  18.207   4.357  0.0243  0.0832  0.2177
    1IPC    NC372190  22.856  16.796   1.811  0.1998  0.0330 -0.0475
    1IPC    PO472191  22.976  17.266   1.623 -0.0197  0.1895 -0.1375
    1IPC    GL172192  23.034  17.260   2.049 -0.0208 -0.2137 -0.0929
    1IPC    GL272193  22.847  17.309   2.318  0.3707 -0.1674  0.0294
    1IPC    C1B72194  22.530  17.234   2.640 -0.0120 -0.3490  0.0545
    1IPC    D2B72195  22.176  17.515   2.749  0.1495  0.2011  0.1150
    1IPC    D3B72196  22.039  17.215   2.487  0.0042  0.2389  0.0343
    1IPC    C4B72197  22.283  16.807   2.422  0.3104  0.2093  0.1153
    1IPC    NC372198  22.080  28.757   3.306 -0.0679 -0.2168 -0.0976
    1IPC    PO472199  21.594  28.866   3.122 -0.1086  0.3310 -0.2557
    1IPC    GL172200  21.257  28.680   3.373 -0.0782  0.0152  0.1185
    1IPC    GL272201  21.155  28.829   3.752  0.1840 -0.2940  0.5569
    1IPC    C1B72202  21.057  28.707   4.173 -0.1530  0.3047  0.0106
    1IPC    D2B72203  21.058  28.600   4.581  0.1037  0.0917  0.1774
    1IPC    D3B72204  21.190  28.979   4.649  0.2932 -0.0655 -0.1085
    1IPC    C4B72205  21.582  29.031   4.908 -0.0839 -0.1100  0.2824
    1IPC    NC372206  27.935  18.553   1.761 -0.1000 -0.4071 -0.2032
    1IPC    PO472207  27.654  18.415   1.396  0.1732 -0.2143 -0.1414
    1IPC    GL172208  27.519  18.182   1.731  0.0896 -0.1471 -0.1090
    1IPC    GL272209  27.356  18.059   2.068  0.0237 -0.0688 -0.1901
    1IPC    C1B72210  27.422  17.649   2.318  0.0493  0.0805  0.1125
    1IPC    D2B72211  27.561  17.191   2.414 -0.0603  0.2386  0.2318
    1IPC    D3B72212  27.431  17.213   2.878 -0.0427  0.0601 -0.3174
    1IPC    C4B72213  27.071  16.966   3.137 -0.1806  0.2555  0.1182
    1IPC    NC372214  17.905   3.800   2.428  0.0971 -0.0923 -0.0450
    1IPC    PO472215  18.080   3.663   2.926 -0.1575 -0.1962 -0.0094
    1IPC    GL172216  18.126   3.441   3.352  0.4543 -0.3128  0.1188
    1IPC    GL272217  17.851   3.346   3.608 -0.2183 -0.0917  0.1795
    1IPC    C1B72218  17.645   3.236   4.069 -0.1923 -0.2725 -0.1149
    1IPC    D2B72219  17.705   3.185   4.469  0.2424  0.1314  0.0517
    1IPC    D3B72220  17.690   3.661   4.522 -0.1014  0.0085  0.1929
    1IPC    C4B72221  17.975   3.978   4.726  0.2002 -0.0967  0.1563
    1IPC    NC372222  28.427   5.493   2.063  0.0859 -0.0485  0.4574
    1IPC    PO472223  28.822   5.577   2.349 -0.4146 -0.2576 -0.2677
    1IPC    GL172224  29.034   5.738   2.694  0.1866 -0.2480  0.0398
    1IPC    GL272225  28.923   5.896   2.979  0.1533 -0.0567 -0.3031
    1IPC    C1B72226  28.807   5.938   3.435 -0.1227 -0.0564 -0.0254
    1IPC    D2B72227  28.970   5.997   3.828  0.2590 -0.0880 -0.2941
    1IPC    D3B72228  28.977   5.568   4.250  0.0802 -0.0768  0.1108
    1IPC    C4B72229  29.021   5.592   4.746 -0.0923  0.1488 -0.1868
    1IPC    NC372230  14.057  24.500   2.655 -0.2531 -0.3016 -0.1073
    1IPC    PO472231  14.004  24.953   2.637  0.1452 -0.1159  0.0929
    1IPC    GL172232  14.102  25.005   3.094  0.0807  0.3614 -0.1633
    1IPC    GL272233  14.010  25.090   3.393  0.1250  0.2036  0.1087
    1IPC    C1B72234  14.004  25.458   3.765  0.0329 -0.2036  0.2779
    1IPC    D2B72235  13.872  25.434   4.119  0.0495 -0.2920 -0.2349
    1IPC    D3B72236  13.709  25.085   4.302  0.0822 -0.0425 -0.1604
    1IPC    C4B72237  13.320  25.132   4.613  0.0541  0.2274  0.0162
    1IPC    NC372238  25.398   2.780   2.724  0.2275 -0.1676  0.3308
    1IPC    PO472239  24.898   2.690   2.768 -0.0312 -0.0799 -0.1989
    1IPC    GL172240  24.747   2.483   3.166 -0.0036  0.1353 -0.2190
    1IPC    GL272241  24.748   2.341   3.545 -0.2694  0.0336 -0.0116
    1IPC    C1B72242  25.033   2.364   3.804 -0.1237 -0.1779  0.0500
    1IPC    D2B72243  25.093   2.334   4.234 -0.1200 -0.1952 -0.4657
    1IPC    D3B72244  24.973   1.883   4.082 -0.4226  0.0688 -0.0096
    1IPC    C4B72245  25.056   1.507   4.313 -0.0837  0.2008 -0.1048
    1IPC    NC372246  20.761   5.921   3.658 -0.3125  0.1899 -0.2203
    1IPC    PO472247  20.929   5.561   3.489 -0.1094  0.0528 -0.1977
    1IPC    GL172248  21.087   5.215   3.721  0.1097  0.1105  0.2703
    1IPC    GL272249  21.031   5.230   4.052 -0.3275 -0.2781  0.1034
    1IPC    C1B72250  20.797   4.972   4.282 -0.2026  0.2357 -0.0888
    1IPC    D2B72251  20.807   4.865   4.584 -0.0850 -0.0945  0.2278
    1IPC    D3B72252  20.890   5.136   5.002 -0.2000 -0.1854  0.0162
    1IPC    C4B72253  20.523   5.266   5.258  0.0528  0.0657  0.0852
    1IPC    NC372254  12.118  21.692   2.262 -0.2148  0.1055  0.1589
    1IPC    PO472255  11.766  21.924   2.550 -0.1077 -0.0771 -0.0916
    1IPC    GL172256  11.396  21.800   2.925 -0.0481  0.1053  0.0669
    1IPC    GL272257  11.509  21.683   3.147  0.3795  0.2159 -0.2137
    1IPC    C1B72258  11.726  21.462   3.483  0.1708  0.1814  0.2335
    1IPC    D2B72259  11.734  21.230   3.748 -0.1664  0.1583 -0.2873
    1IPC    D3B72260  11.968  21.604   3.955 -0.2137 -0.0338 -0.1231
    1IPC    C4B72261  11.978  21.885   3.658 -0.1655 -0.1888 -0.2238
    1IPC    NC372262  29.103  25.204   2.178 -0.2800 -0.2687  0.1357
    1IPC    PO472263  29.518  25.089   2.369  0.0535 -0.2288 -0.0984
    1IPC    GL172264  29.748  25.009   2.752  0.1413  0.1736 -0.1033
    1IPC    GL272265  29.829  24.935   3.049 -0.2548 -0.2814 -0.2488
    1IPC    C1B72266  29.937  24.571   3.299  0.0734  0.3710 -0.1180
    1IPC    D2B72267  30.125  24.258   3.223  0.3582  0.0861  0.1344
    1IPC    D3B72268  29.948  24.148   3.590  0.4440 -0.0301 -0.0665
    1IPC    C4B72269  30.055  24.574   3.800 -0.0782  0.2797  0.1532
    1IPC    NC372270  28.119   2.329   2.847  0.2997  0.1667 -0.0111
    1IPC    PO472271  28.074   1.855   2.722 -0.2197  0.0629 -0.1314
    1IPC    GL172272  28.243   1.923   3.169  0.0841 -0.1454 -0.2061
    1IPC    GL272273  28.072   1.938   3.472 -0.1086  0.0063 -0.2384
    1IPC    C1B72274  28.166   1.730   3.967  0.1920  0.1533 -0.1731
    1IPC    D2B72275  28.330   1.604   4.377 -0.0317 -0.2357 -0.0165
    1IPC    D3B72276  28.071   1.913   4.629 -0.0939  0.0549 -0.1399
    1IPC    C4B72277  28.174   1.870   5.067 -0.0966  0.0043 -0.0926
    1IPC    NC372278  22.143  21.988   2.052 -0.0245  0.0632  0.0455
    1IPC    PO472279  21.835  22.338   2.089  0.0045  0.0261 -0.3644
    1IPC    GL172280  21.647  22.222   2.407  0.0634  0.0511 -0.2648
    1IPC    GL272281  21.525  22.235   2.687 -0.0833 -0.2130  0.1219
    1IPC    C1B72282  21.540  22.353   3.069 -0.1093  0.0595 -0.0150
    1IPC    D2B72283  21.793  22.397   3.453 -0.0040 -0.1787 -0.1065
    1IPC    D3B72284  21.835  22.256   3.945 -0.0397 -0.2573 -0.2053
    1IPC    C4B72285  21.566  22.114   4.267  0.0866  0.2439 -0.1650
    1IPC    NC372286  24.147  22.804   2.254  0.1925 -0.1600  0.0547
    1IPC    PO472287  24.455  23.006   2.379 -0.3565 -0.1092  0.3882
    1IPC    GL172288  24.774  22.640   2.481  0.1793  0.1953 -0.1090
    1IPC    GL272289  24.829  22.510   2.831 -0.1356  0.1158  0.0016
    1IPC    C1B72290  24.959  22.296   3.267  0.3773  0.1832 -0.1670
    1IPC    D2B72291  24.980  21.944   3.629 -0.2938 -0.0697  0.0564
    1IPC    D3B72292  24.875  21.738   3.277  0.2155 -0.1467 -0.2244
    1IPC    C4B72293  24.614  21.350   3.379 -0.0184 -0.0033 -0.1536
    1IPC    NC372294  18.514   3.693   3.415  0.0481 -0.0127  0.0567
    1IPC    PO472295  18.651   4.113   3.337 -0.1649 -0.0067  0.0076
    1IPC    GL172296  18.559   4.039   3.751  0.1931 -0.1524  0.2422
    1IPC    GL272297  18.326   4.046   3.957  0.1834  0.1453 -0.2564
    1IPC    C1B72298  18.068   4.035   4.238 -0.0573  0.2125  0.0501
    1IPC    D2B72299  17.659   4.039   4.097 -0.3426  0.0355  0.1001
    1IPC    D3B72300  17.814   3.751   3.906 -0.1117 -0.0958 -0.1176
    1IPC    C4B72301  18.036   3.522   4.196  0.1384  0.0599  0.1352
    1IPC    NC372302  12.059   1.259   2.529 -0.1827 -0.2420  0.1661
    1IPC    PO472303  11.909   0.889   2.844 -0.0208  0.1686 -0.1180
    1IPC    GL172304  11.888   0.808   3.284 -0.0532 -0.1020  0.1707
    1IPC    GL272305  11.752   0.749   3.591 -0.1136  0.1860  0.0534
    1IPC    C1B72306  11.557   0.467   3.944  0.0997  0.1575 -0.3696
    1IPC    D2B72307  11.227   0.361   4.264  0.0597 -0.2245 -0.0484
    1IPC    D3B72308  11.370   0.412   4.781 -0.1882  0.0374  0.3575
    1IPC    C4B72309  11.704   0.559   4.953  0.3560  0.1860 -0.1422
    1IPC    NC372310   4.647   0.789   2.823  0.0091 -0.1956  0.1913
    1IPC    PO472311   4.430   0.421   2.735 -0.2104 -0.2526 -0.1132
    1IPC    GL172312   4.658   0.322   3.051  0.0735 -0.1206  0.1834
    1IPC    GL272313   4.677   0.253   3.311 -0.0386  0.0603  0.0463
    1IPC    C1B72314   4.562   0.353   3.797  0.2161  0.0122 -0.1008
    1IPC    D2B72315   4.157   0.336   3.958 -0.2790  0.0258  0.4894
    1IPC    D3B72316   4.129   0.540   4.393 -0.2439  0.1099  0.0087
    1IPC    C4B72317   4.337   0.928   4.494 -0.0585 -0.4115  0.0243
    1IPC    NC372318  20.310  25.371   2.561 -0.1031  0.0975 -0.1122
    1IPC    PO472319  20.269  25.001   2.747  0.0582  0.0110  0.0409
    1IPC    GL172320  20.241  24.831   3.121  0.0207  0.0753 -0.0699
    1IPC    GL272321  20.106  24.588   3.217  0.0435  0.0306  0.2414
    1IPC    C1B72322  19.870  24.233   3.307  0.2138 -0.0491  0.4849
    1IPC    D2B72323  19.600  23.876   3.321  0.1632  0.1225  0.1313
    1IPC    D3B72324  19.727  23.436   3.476  0.2637  0.0690 -0.0122
    1IPC    C4B72325  19.774  23.420   3.853 -0.2919  0.0871 -0.0163
    1IPC    NC372326  24.640   4.691   3.162 -0.0830  0.0457  0.1657
    1IPC    PO472327  24.433   4.270   3.106  0.2842  0.1070  0.3307
    1IPC    GL172328  24.580   4.381   3.500 -0.1000 -0.0773  0.1079
    1IPC    GL272329  24.561   4.670   3.673 -0.3984  0.1543  0.0129
    1IPC    C1B72330  24.679   4.679   4.011 -0.1890 -0.0668 -0.2650
    1IPC    D2B72331  24.440   4.589   4.313 -0.2456  0.1562 -0.0502
    1IPC    D3B72332  24.664   4.675   4.611 -0.0217 -0.0821 -0.2904
    1IPC    C4B72333  24.777   4.468   4.905 -0.0264  0.0662  0.1052
    1IPC    NC372334  22.749   3.684   3.479 -0.2360 -0.3955 -0.1197
    1IPC    PO472335  22.572   3.326   3.228  0.1344  0.0593  0.0579
    1IPC    GL172336  22.768   3.225   3.607 -0.1879 -0.1577  0.1099
    1IPC    GL272337  23.004   3.107   3.821  0.0035 -0.0716 -0.2870
    1IPC    C1B72338  23.257   3.170   4.224 -0.0028  0.0089 -0.0604
    1IPC    D2B72339  23.365   3.146   4.688  0.2472  0.2091 -0.0369
    1IPC    D3B72340  23.418   2.853   4.880  0.1859 -0.3025  0.1794
    1IPC    C4B72341  23.861   2.653   4.868 -0.2300 -0.1381 -0.4672
    1IPC    NC372342  27.066   6.662   2.222 -0.3132  0.1673 -0.1489
    1IPC    PO472343  27.076   6.466   2.585  0.2149  0.2518 -0.2510
    1IPC    GL172344  27.084   6.655   2.889 -0.3495  0.1384  0.0007
    1IPC    GL272345  27.295   6.820   3.062 -0.3805 -0.0580  0.1301
    1IPC    C1B72346  27.651   6.810   3.347  0.2196 -0.1610  0.0195
    1IPC    D2B72347  27.914   7.143   3.647 -0.0533  0.3136  0.0501
    1IPC    D3B72348  28.384   7.230   3.658 -0.0695  0.1687  0.3629
    1IPC    C4B72349  28.687   6.960   3.641  0.1578 -0.0879  0.0126
    1IPC    NC372350  22.914   2.264   3.398  0.0242 -0.2860  0.2375
    1IPC    PO472351  23.266   2.103   3.219  0.2328  0.1635 -0.0795
    1IPC    GL172352  23.127   1.898   3.630  0.0391  0.0158 -0.0861
    1IPC    GL272353  23.131   2.164   3.841  0.0990  0.4531  0.2456
    1IPC    C1B72354  22.991   2.288   4.256 -0.2583 -0.1556  0.2012
    1IPC    D2B72355  23.123   2.472   4.743 -0.0922  0.2363 -0.0908
    1IPC    D3B72356  23.424   2.602   4.441 -0.1478 -0.0140 -0.2853
    1IPC    C4B72357  23.295   2.598   4.016 -0.1595 -0.1594 -0.0014
    1IPC    NC372358  20.055  12.754   1.544  0.0003  0.0314 -0.0019
    1IPC    PO472359  19.846  12.652   1.907  0.0771  0.2145  0.0488
    1IPC    GL172360  20.016  12.544   2.299 -0.2412 -0.0116  0.0962
    1IPC    GL272361  19.862  12.589   2.660  0.0110 -0.2367  0.1213
    1IPC    C1B72362  19.986  12.351   3.042 -0.0978  0.0340 -0.0359
    1IPC    D2B72363  19.960  12.423   3.575  0.0702 -0.1617 -0.0590
    1IPC    D3B72364  20.035  11.989   3.828 -0.0958 -0.0753  0.0587
    1IPC    C4B72365  20.438  11.869   3.985 -0.2126 -0.1228  0.0661
    1IPC    NC372366  28.094   8.002   2.277 -0.0486 -0.0112  0.0839
    1IPC    PO472367  27.663   7.839   2.539 -0.0602 -0.0454  0.2505
    1IPC    GL172368  27.611   7.796   2.991 -0.1150 -0.0845  0.0919
    1IPC    GL272369  27.640   7.812   3.320 -0.0035  0.0181 -0.0338
    1IPC    C1B72370  27.524   7.951   3.746 -0.0243  0.0498 -0.1432
    1IPC    D2B72371  27.493   8.318   3.760 -0.1748 -0.3143 -0.0076
    1IPC    D3B72372  27.486   8.308   4.207  0.2348 -0.2990  0.0292
    1IPC    C4B72373  27.299   8.309   4.640 -0.0648  0.1371  0.0702
    1IPC    NC372374  20.869  10.355   2.570  0.2147 -0.1884  0.1681
    1IPC    PO472375  20.985   9.967   2.704 -0.2930 -0.4773  0.3808
    1IPC    GL172376  21.036  10.179   3.008  0.2685  0.2941 -0.3307
    1IPC    GL272377  21.078  10.379   3.235  0.1208  0.1735  0.0200
    1IPC    C1B72378  21.252  10.764   3.361  0.0355  0.1977 -0.2357
    1IPC    D2B72379  21.155  11.029   3.846 -0.0504  0.2709 -0.0886
    1IPC    D3B72380  21.506  11.207   3.713  0.0521 -0.0086  0.1392
    1IPC    C4B72381  21.572  11.600   3.696 -0.2708 -0.2219 -0.1179
    1IPC    NC372382  27.977  20.992   1.212  0.3569 -0.0936  0.1635
    1IPC    PO472383  28.070  20.647   1.480  0.0124  0.0883 -0.0897
    1IPC    GL172384  27.771  20.816   1.863  0.2128 -0.1214  0.1064
    1IPC    GL272385  27.675  20.843   2.175  0.3012 -0.1951 -0.1506
    1IPC    C1B72386  27.761  20.997   2.586 -0.4207  0.2092 -0.0829
    1IPC    D2B72387  27.738  21.006   3.079  0.1064  0.0155  0.0074
    1IPC    D3B72388  27.814  21.071   3.575 -0.2322  0.1852 -0.0646
    1IPC    C4B72389  28.029  20.782   3.790  0.1080 -0.1799  0.0133
    1IPC    NC372390   9.484   8.688   2.612  0.0486  0.1437  0.1182
    1IPC    PO472391   9.898   8.724   2.591  0.1707  0.0801  0.0244
    1IPC    GL172392   9.886   8.519   3.027 -0.2337 -0.0468  0.2667
    1IPC    GL272393   9.904   8.675   3.382 -0.0774  0.2941 -0.1462
    1IPC    C1B72394   9.789   8.697   3.828  0.0368 -0.0349 -0.0737
    1IPC    D2B72395   9.708   8.315   4.041 -0.3252  0.0254  0.0212
    1IPC    D3B72396  10.140   8.223   3.995 -0.0446  0.4255 -0.0731
    1IPC    C4B72397  10.494   8.398   4.107  0.0861 -0.0363 -0.2647
    1IPC    NC372398  10.922  27.822   3.421  0.0100 -0.2049  0.1464
    1IPC    PO472399  10.604  27.896   3.686  0.0434 -0.2092 -0.1008
    1IPC    GL172400  10.519  27.587   4.019  0.3432  0.0230  0.0464
    1IPC    GL272401  10.343  27.476   4.129  0.0368  0.1288  0.1489
    1IPC    C1B72402  10.150  27.334   4.505 -0.1372 -0.1987  0.4944
    1IPC    D2B72403   9.699  27.173   4.626  0.0386 -0.1468  0.1395
    1IPC    D3B72404   9.416  27.371   4.392  0.0791  0.1812  0.0131
    1IPC    C4B72405   8.955  27.150   4.390  0.0675 -0.1735 -0.2584
    1IPC    NC372406  22.841   8.556   2.528 -0.1954 -0.1064 -0.3366
    1IPC    PO472407  22.542   8.418   2.786 -0.2096 -0.0449  0.0337
    1IPC    GL172408  22.848   8.620   3.039 -0.2193 -0.1945 -0.0401
    1IPC    GL272409  22.762   8.612   3.379 -0.1537 -0.0959  0.0488
    1IPC    C1B72410  22.817   8.752   3.888  0.2267 -0.1924 -0.2153
    1IPC    D2B72411  22.779   8.952   4.308 -0.2461 -0.3396 -0.0908
    1IPC    D3B72412  22.771   8.767   4.744 -0.1676 -0.1126  0.0343
    1IPC    C4B72413  22.794   8.264   4.653 -0.4371 -0.2051  0.3714
    1IPC    NC372414  12.956   1.398   2.632 -0.2038  0.0652  0.2721
    1IPC    PO472415  12.842   0.957   2.459  0.0067 -0.2201 -0.2830
    1IPC    GL172416  12.913   0.972   2.989 -0.1495 -0.1197 -0.0612
    1IPC    GL272417  12.818   1.091   3.265 -0.0871  0.2409  0.0228
    1IPC    C1B72418  12.908   1.236   3.665 -0.0429  0.1699 -0.2709
    1IPC    D2B72419  12.925   1.416   3.952 -0.3704 -0.0023 -0.1993
    1IPC    D3B72420  12.587   1.258   4.172 -0.1273  0.1180  0.1451
    1IPC    C4B72421  12.708   1.307   4.531 -0.2130 -0.2132  0.0772
    1IPC    NC372422  20.179   6.211   3.049  0.0546 -0.0342  0.1024
    1IPC    PO472423  20.207   5.987   3.476 -0.0644 -0.0637 -0.0411
    1IPC    GL172424  20.374   6.119   3.920  0.0100 -0.0918  0.2169
    1IPC    GL272425  20.635   6.157   4.046  0.2565  0.2497  0.0909
    1IPC    C1B72426  20.882   5.889   4.392 -0.1999  0.0762 -0.1676
    1IPC    D2B72427  21.337   5.829   4.469  0.0261  0.0538  0.2439
    1IPC    D3B72428  21.543   5.657   4.690  0.0920  0.2228  0.2075
    1IPC    C4B72429  21.316   5.386   4.768  0.0606  0.1997 -0.3679
    1IPC    NC372430  13.499   7.594   2.545 -0.2988 -0.1216 -0.2350
    1IPC    PO472431  13.422   7.066   2.464 -0.0068 -0.2431  0.2104
    1IPC    GL172432  13.604   7.196   2.877  0.5159  0.0706 -0.0825
    1IPC    GL272433  13.515   7.155   3.171  0.2827 -0.0682 -0.2657
    1IPC    C1B72434  13.585   7.164   3.616 -0.1562 -0.2384  0.1449
    1IPC    D2B72435  13.698   7.065   3.992  0.1117 -0.1682  0.0400
    1IPC    D3B72436  13.850   7.382   4.066  0.1744 -0.0954  0.3221
    1IPC    C4B72437  13.826   7.387   4.486 -0.2507 -0.0110 -0.1238
    1IPC    NC372438  25.080  13.720   1.471  0.0749  0.1623 -0.0202
    1IPC    PO472439  24.626  13.790   1.487  0.3261 -0.1740  0.0262
    1IPC    GL172440  24.943  14.016   1.846 -0.0308  0.0704 -0.0090
    1IPC    GL272441  24.990  14.097   2.099 -0.2811 -0.1445 -0.2024
    1IPC    C1B72442  25.152  14.296   2.473  0.1249 -0.0296 -0.1243
    1IPC    D2B72443  25.174  14.780   2.611 -0.0231 -0.1981 -0.0857
    1IPC    D3B72444  25.289  15.057   2.913  0.0633 -0.2206  0.2308
    1IPC    C4B72445  25.707  15.396   2.879 -0.0180  0.0089 -0.0112
    1IPC    NC372446  29.252   5.281   2.599  0.1857 -0.1160 -0.2665
    1IPC    PO472447  29.678   5.190   2.780 -0.0363  0.0639  0.2268
    1IPC    GL172448  29.679   5.198   3.231 -0.0094 -0.0535  0.0725
    1IPC    GL272449  29.626   5.366   3.465  0.1778 -0.0214 -0.0152
    1IPC    C1B72450  29.860   5.518   3.852 -0.4365 -0.2095  0.0534
    1IPC    D2B72451  29.819   5.668   4.232 -0.1985  0.2239  0.0253
    1IPC    D3B72452  29.859   6.042   4.576 -0.0933 -0.0283  0.0452
    1IPC    C4B72453  29.513   6.416   4.514  0.3799  0.2493  0.1646
    1IPC    NC372454  27.946  28.412   2.988  0.0185  0.0555 -0.0262
    1IPC    PO472455  27.514  28.469   3.223  0.0691  0.2459  0.1298
    1IPC    GL172456  27.477  28.530   3.634  0.0701  0.3497 -0.3442
    1IPC    GL272457  27.405  28.647   3.814 -0.1858 -0.0056  0.1517
    1IPC    C1B72458  27.523  28.449   4.191  0.0032 -0.2620 -0.0847
    1IPC    D2B72459  27.652  28.293   4.616 -0.1683 -0.2587 -0.1089
    1IPC    D3B72460  27.427  27.914   4.689 -0.1202 -0.0189  0.1536
    1IPC    C4B72461  27.777  27.525   4.822  0.1521  0.0991  0.0061
    1IPC    NC372462  10.504  19.623   2.569  0.1123 -0.1095 -0.1916
    1IPC    PO472463  10.019  19.550   2.433  0.1174 -0.2044 -0.3476
    1IPC    GL172464  10.019  19.598   2.809  0.0779  0.0444  0.1172
    1IPC    GL272465   9.877  19.581   3.109  0.0277 -0.0461 -0.1806
    1IPC    C1B72466  10.102  19.900   3.370  0.1302 -0.0665  0.1980
    1IPC    D2B72467  10.424  20.040   3.631 -0.0590 -0.1640 -0.0649
    1IPC    D3B72468  10.022  20.010   3.833 -0.0428  0.4949 -0.3188
    1IPC    C4B72469   9.722  19.700   3.628  0.0173  0.0248 -0.1496
    1IPC    NC372470  21.479   9.818   2.683  0.1517 -0.0510 -0.2990
    1IPC    PO472471  21.473   9.344   2.451  0.1775 -0.1438 -0.3400
    1IPC    GL172472  21.568   9.401   2.970  0.2075  0.0359  0.1293
    1IPC    GL272473  21.713   9.402   3.341  0.1024  0.2194 -0.3070
    1IPC    C1B72474  22.056   9.247   3.630  0.0887 -0.3298  0.1709
    1IPC    D2B72475  22.544   9.286   3.696 -0.3541  0.0021 -0.0154
    1IPC    D3B72476  22.634   9.652   3.681 -0.2177  0.1133  0.0829
    1IPC    C4B72477  22.574   9.869   3.242  0.0696  0.2621 -0.2617
    1IPC    NC372478  17.839  25.387   3.148 -0.1989  0.4974  0.1194
    1IPC    PO472479  17.488  25.587   3.024  0.3749  0.2132 -0.0449
    1IPC    GL172480  17.547  25.595   3.524 -0.0198 -0.0156 -0.2394
    1IPC    GL272481  17.549  25.500   3.812  0.3713  0.0493  0.0495
    1IPC    C1B72482  17.202  25.584   4.074  0.1169 -0.0244 -0.3244
    1IPC    D2B72483  17.115  25.855   4.528 -0.2696  0.0542  0.1769
    1IPC    D3B72484  17.318  25.584   4.761 -0.2412 -0.0225 -0.2615
    1IPC    C4B72485  17.684  25.605   4.912 -0.0478  0.1498 -0.1395
    1IPC    NC372486   0.069  20.478   1.404  0.1986  0.2572  0.1098
    1IPC    PO472487  -0.232  20.330   1.654  0.1843  0.0389 -0.1699
    1IPC    GL172488  -0.540  20.216   1.903 -0.1565 -0.2813  0.0011
    1IPC    GL272489  -0.782  20.247   2.121  0.0115  0.1299 -0.0025
    1IPC    C1B72490  -0.979  20.378   2.558 -0.1070  0.0309 -0.0301
    1IPC    D2B72491  -1.086  20.789   2.716  0.0755  0.2915  0.4116
    1IPC    D3B72492  -1.440  20.675   2.592  0.2390  0.1599  0.4696
    1IPC    C4B72493  -1.612  20.909   2.907  0.2044 -0.1855 -0.2005
    1IPC    NC372494  18.683  10.227   2.668  0.1956 -0.0428  0.0387
    1IPC    PO472495  19.049  10.062   2.682  0.0725 -0.1352  0.1516
    1IPC    GL172496  19.298  10.062   3.159 -0.0610  0.0443  0.0369
    1IPC    GL272497  19.347  10.112   3.498 -0.1739  0.0723 -0.1804
    1IPC    C1B72498  19.191  10.286   3.960 -0.2463  0.2104 -0.2515
    1IPC    D2B72499  19.047  10.102   4.336 -0.0387 -0.4200 -0.0341
    1IPC    D3B72500  18.737  10.363   4.333  0.0854 -0.2361  0.2561
    1IPC    C4B72501  18.443  10.614   4.518 -0.1039 -0.2985 -0.2078
    1IPC    NC372502  11.178   5.916   2.599 -0.3194 -0.1113 -0.0588
    1IPC    PO472503  11.135   5.705   2.985 -0.5030 -0.2365  0.1681
    1IPC    GL172504  11.156   5.505   3.431 -0.0321 -0.0718  0.3147
    1IPC    GL272505  11.397   5.536   3.634 -0.4260  0.0523  0.2128
    1IPC    C1B72506  11.670   5.823   3.783 -0.3802  0.1374 -0.1069
    1IPC    D2B72507  12.118   5.925   3.823 -0.5777  0.3007  0.2150
    1IPC    D3B72508  12.025   5.907   4.296 -0.0503  0.0916 -0.1433
    1IPC    C4B72509  11.688   5.813   4.299  0.1837  0.0458 -0.1024
    1IPC    NC372510  15.483  18.456   2.369  0.1785 -0.1635 -0.0266
    1IPC    PO472511  15.579  18.530   2.784 -0.1312 -0.2590 -0.2858
    1IPC    GL172512  15.637  18.648   3.213  0.2555  0.0409  0.0375
    1IPC    GL272513  15.337  18.798   3.383  0.0783  0.0128  0.0862
    1IPC    C1B72514  15.094  19.125   3.547 -0.2140  0.0699 -0.2019
    1IPC    D2B72515  15.231  19.440   3.774 -0.0938 -0.2238  0.2479
    1IPC    D3B72516  15.300  19.115   4.069 -0.0491 -0.0947  0.1619
    1IPC    C4B72517  15.617  18.819   4.198  0.0529  0.0751 -0.1618
    1IPC    NC372518  22.037  14.914   1.092  0.1222  0.0776  0.0610
    1IPC    PO472519  22.388  14.997   1.352 -0.1991 -0.1292  0.0862
    1IPC    GL172520  22.508  14.853   1.789  0.1134  0.0118  0.1391
    1IPC    GL272521  22.645  14.582   1.886 -0.1904 -0.1667  0.0952
    1IPC    C1B72522  22.974  14.514   2.273 -0.1979  0.1433  0.0116
    1IPC    D2B72523  23.158  14.638   2.690 -0.0435  0.1547  0.0946
    1IPC    D3B72524  23.482  14.890   2.699  0.0901  0.0139  0.2928
    1IPC    C4B72525  23.691  14.874   3.025 -0.0111  0.1382  0.2330
    1IPC    NC372526   4.011  29.275   2.387  0.2745  0.1391 -0.0226
    1IPC    PO472527   4.254  28.827   2.478 -0.1822  0.1260  0.1196
    1IPC    GL172528   3.983  28.898   2.868 -0.1873 -0.4723  0.3503
    1IPC    GL272529   3.883  29.120   3.146  0.0677 -0.0930  0.1841
    1IPC    C1B72530   3.970  29.163   3.577  0.0075 -0.3573 -0.0961
    1IPC    D2B72531   3.937  29.066   3.952 -0.0759  0.1419 -0.2027
    1IPC    D3B72532   4.238  28.740   3.923  0.1077  0.0856  0.2418
    1IPC    C4B72533   4.166  28.278   4.017 -0.3228  0.0924 -0.1731
    1IPC    NC372534  21.077   4.719   3.315  0.0737 -0.0548 -0.1355
    1IPC    PO472535  20.742   4.753   3.673 -0.1052 -0.0393 -0.1518
    1IPC    GL172536  20.559   5.226   3.821 -0.1187 -0.1671 -0.0606
    1IPC    GL272537  20.533   5.589   3.921 -0.0148  0.0058 -0.0460
    1IPC    C1B72538  20.365   5.782   4.293 -0.2057  0.3713  0.0867
    1IPC    D2B72539  20.515   5.930   4.730 -0.4124 -0.2781  0.0009
    1IPC    D3B72540  20.896   5.697   4.815  0.0223  0.0754  0.1061
    1IPC    C4B72541  21.276   5.914   5.093  0.2093 -0.1851 -0.0830
    1IPC    NC372542  20.711  24.683   2.663 -0.0103  0.0040 -0.0671
    1IPC    PO472543  21.151  24.540   2.628 -0.1092 -0.2690  0.0336
    1IPC    GL172544  21.165  24.361   3.035 -0.1884  0.2221  0.2247
    1IPC    GL272545  21.064  24.231   3.273  0.0408 -0.2079 -0.0851
    1IPC    C1B72546  20.860  24.283   3.630  0.0474  0.0971 -0.0095
    1IPC    D2B72547  20.635  24.215   4.002  0.1239 -0.1297  0.0360
    1IPC    D3B72548  20.447  23.857   4.326  0.1863  0.1060  0.1821
    1IPC    C4B72549  20.700  23.449   4.376  0.0952 -0.2948 -0.0821
    1IPC    NC372550   3.907   2.706   2.834 -0.3090 -0.0666 -0.0814
    1IPC    PO472551   4.208   2.295   2.719  0.2489  0.1808 -0.0266
    1IPC    GL172552   4.170   2.291   3.152  0.0148 -0.1704 -0.1580
    1IPC    GL272553   4.020   2.160   3.418 -0.1344 -0.1978 -0.3274
    1IPC    C1B72554   4.054   2.255   3.836 -0.0578  0.0322 -0.1109
    1IPC    D2B72555   4.030   2.211   4.179 -0.4590 -0.0425 -0.1765
    1IPC    D3B72556   3.637   1.936   4.179 -0.1755 -0.0764 -0.0744
    1IPC    C4B72557   3.620   1.859   4.626 -0.0551 -0.3037  0.2443
    1IPC    NC372558  12.610  11.110   2.976  0.1854  0.0904  0.0885
    1IPC    PO472559  12.238  11.481   2.887  0.1715  0.0169 -0.3892
    1IPC    GL172560  12.210  11.120   3.246  0.0387  0.1688 -0.1375
    1IPC    GL272561  12.245  11.052   3.555 -0.0349 -0.2232  0.0869
    1IPC    C1B72562  12.295  11.406   3.773  0.0231  0.2395 -0.2218
    1IPC    D2B72563  12.568  11.616   3.860 -0.0021  0.0833 -0.2263
    1IPC    D3B72564  12.896  11.243   3.649  0.0810  0.0228 -0.2277
    1IPC    C4B72565  13.038  10.793   3.691  0.2279 -0.1347  0.0809
    1IPC    NC372566  29.157  23.819   1.677 -0.3572 -0.1330 -0.1085
    1IPC    PO472567  29.132  24.117   2.188  0.0808 -0.3151  0.2015
    1IPC    GL172568  28.930  23.831   2.394 -0.0669  0.3130  0.1657
    1IPC    GL272569  28.856  23.743   2.677  0.0416  0.0924  0.1726
    1IPC    C1B72570  28.947  23.813   3.027 -0.1162  0.0689 -0.0090
    1IPC    D2B72571  29.309  23.517   3.046 -0.1733 -0.2301  0.2159
    1IPC    D3B72572  29.628  23.348   3.276 -0.0915  0.4479 -0.0251
    1IPC    C4B72573  29.793  23.588   3.658 -0.1940 -0.1179  0.4018
    1IPC    NC372574  29.391  11.267   2.527  0.0675  0.3080 -0.2087
    1IPC    PO472575  29.865  11.286   2.437  0.1804 -0.4701  0.1318
    1IPC    GL172576  30.044  11.421   2.717 -0.1739  0.0895 -0.0568
    1IPC    GL272577  29.881  11.521   3.010 -0.0539  0.3218 -0.2540
    1IPC    C1B72578  29.833  11.446   3.465  0.2029 -0.2480 -0.1358
    1IPC    D2B72579  29.745  11.398   3.931  0.3302  0.0178  0.1156
    1IPC    D3B72580  29.899  11.044   4.138  0.2651  0.1961  0.0061
    1IPC    C4B72581  30.157  11.193   4.546  0.0633 -0.1012  0.3335
    1IPC    NC372582  18.237  24.529   2.447  0.0862  0.0839 -0.1326
    1IPC    PO472583  18.171  24.604   2.929  0.0182 -0.0994  0.0219
    1IPC    GL172584  18.335  24.523   3.277 -0.3049 -0.0138 -0.3000
    1IPC    GL272585  18.698  24.579   3.481  0.2017  0.0462 -0.3284
    1IPC    C1B72586  19.060  24.576   3.728 -0.0845  0.1459  0.2103
    1IPC    D2B72587  19.364  24.524   4.125  0.2201 -0.0650 -0.0049
    1IPC    D3B72588  19.751  24.315   4.135 -0.1874 -0.1219 -0.3740
    1IPC    C4B72589  20.058  24.565   3.780 -0.1085 -0.0705 -0.2320
    1IPC    NC372590   2.849   0.739   2.369  0.1998  0.0818  0.2923
    1IPC    PO472591   2.724   0.476   2.759  0.4046  0.1188  0.1661
    1IPC    GL172592   2.747   0.618   3.122  0.0331 -0.0691  0.4315
    1IPC    GL272593   2.930   0.762   3.363 -0.1253  0.0679  0.1514
    1IPC    C1B72594   2.929   0.824   3.728  0.0638 -0.0616 -0.2150
    1IPC    D2B72595   3.007   1.019   4.083  0.1485  0.2517  0.2248
    1IPC    D3B72596   3.262   1.235   4.354  0.1901  0.0540  0.4370
    1IPC    C4B72597   3.724   0.937   4.437 -0.0104 -0.0692 -0.1101
    1IPC    NC372598   8.141   2.793   3.565  0.0080 -0.0200  0.0815
    1IPC    PO472599   8.247   3.165   3.449 -0.1926  0.3169 -0.2208
    1IPC    GL172600   7.808   3.207   3.658 -0.0437 -0.3959 -0.1721
    1IPC    GL272601   7.740   2.920   3.981 -0.4229 -0.1504 -0.3876
    1IPC    C1B72602   7.862   2.745   4.330 -0.3129  0.0901  0.0030
    1IPC    D2B72603   7.955   2.422   4.572 -0.0629 -0.2147  0.1928
    1IPC    D3B72604   7.457   2.338   4.652  0.2968 -0.2541 -0.1777
    1IPC    C4B72605   7.516   2.418   5.094 -0.1587 -0.0193 -0.0743
    1IPC    NC372606   5.012  26.299   2.764  0.2499 -0.4375  0.2171
    1IPC    PO472607   4.653  26.312   2.951  0.1106  0.1972 -0.1890
    1IPC    GL172608   4.951  26.188   3.282 -0.5411  0.1254  0.0102
    1IPC    GL272609   5.201  26.221   3.482 -0.0282  0.0043  0.1515
    1IPC    C1B72610   5.225  26.203   3.935 -0.1365 -0.4089  0.0654
    1IPC    D2B72611   5.300  26.031   4.375  0.2344  0.2861  0.2302
    1IPC    D3B72612   5.450  25.662   4.272  0.0261  0.0553 -0.3099
    1IPC    C4B72613   5.327  25.411   3.857 -0.0041 -0.0749  0.0867
    1IPC    NC372614  15.867  19.434   2.893  0.1770 -0.3558  0.0793
    1IPC    PO472615  15.848  19.925   2.915  0.0644  0.0327  0.0682
    1IPC    GL172616  15.585  19.688   3.257  0.0458  0.0529  0.0865
    1IPC    GL272617  15.407  19.813   3.527  0.2448 -0.0606  0.3212
    1IPC    C1B72618  15.317  19.878   3.964 -0.2639  0.0132  0.0801
    1IPC    D2B72619  15.113  19.973   4.380 -0.0300  0.2380 -0.1179
    1IPC    D3B72620  14.764  20.155   4.397  0.1755  0.3874  0.0836
    1IPC    C4B72621  14.487  19.929   4.228 -0.0692  0.4180  0.0179
    1IPC    NC372622  21.388  28.068   3.549 -0.1371 -0.2889  0.1436
    1IPC    PO472623  21.527  27.786   3.185 -0.2599 -0.0495  0.2446
    1IPC    GL172624  21.822  27.877   3.505 -0.2044  0.2786 -0.0379
    1IPC    GL272625  21.736  28.025   3.856  0.0231 -0.2089  0.0124
    1IPC    C1B72626  21.659  28.252   4.248  0.2056 -0.2703 -0.1466
    1IPC    D2B72627  21.550  28.641   4.551  0.1837 -0.2165 -0.0739
    1IPC    D3B72628  21.407  28.483   5.003  0.0831  0.0822 -0.2524
    1IPC    C4B72629  21.129  28.770   5.265 -0.0222  0.0769  0.0479
    1IPC    NC372630  23.295  15.779   1.064 -0.1577 -0.0877  0.2107
    1IPC    PO472631  23.086  15.724   1.499 -0.2657  0.0653  0.0021
    1IPC    GL172632  22.772  15.815   1.811  0.1145 -0.3178 -0.2751
    1IPC    GL272633  22.734  15.805   2.204 -0.4959 -0.2200  0.2050
    1IPC    C1B72634  22.780  15.567   2.569 -0.0710  0.0358  0.2721
    1IPC    D2B72635  22.622  15.207   2.797 -0.0887  0.2833 -0.4560
    1IPC    D3B72636  22.253  15.019   2.901  0.1190  0.3296 -0.0626
    1IPC    C4B72637  22.044  14.804   2.676  0.0443  0.1667  0.1236
  29.80455  29.80455   9.55340
